FER in water
 2520
    1FER    PA1    1   2.861   3.358   6.418  0.0411 -0.0834  0.1628
    1FER    PA2    2   2.666   3.246   6.613 -0.0151 -0.1527  0.0672
    1FER    PA3    3   2.912   3.134   6.643 -0.0422 -0.2176  0.0498
    1FER    PA4    4   3.113   3.047   6.714  0.5353 -0.2405  0.2522
    1FER    PA5    5   3.275   2.854   6.746 -0.2429 -0.1527  0.0947
    2FER    PA1    6   1.805   1.278   6.336  0.2967 -0.2228 -0.1729
    2FER    PA2    7   1.724   1.233   6.053  0.0564  0.1261 -0.1665
    2FER    PA3    8   1.667   1.487   6.134  0.0351  0.0028  0.2258
    2FER    PA4    9   1.716   1.736   6.181  0.1034  0.1447  0.0221
    2FER    PA5   10   1.808   1.933   6.141 -0.1467  0.1033  0.3726
    3FER    PA1   11   4.648   2.289   0.844 -0.1008 -0.0573 -0.0155
    3FER    PA2   12   4.650   2.229   0.552 -0.2064 -0.1717  0.0063
    3FER    PA3   13   4.409   2.330   0.632 -0.1343 -0.0162  0.0300
    3FER    PA4   14   4.176   2.468   0.637  0.2578 -0.1844 -0.3164
    3FER    PA5   15   4.028   2.577   0.452 -0.1154  0.4292 -0.1880
    4FER    PA1   16   3.908   1.225   0.426 -0.2342  0.0779  0.1896
    4FER    PA2   17   3.867   1.520   0.408  0.0005  0.1096  0.1327
    4FER    PA3   18   4.105   1.445   0.298 -0.1191 -0.1191  0.0211
    4FER    PA4   19   4.337   1.457   0.261  0.6513  0.3507  0.1805
    4FER    PA5   20   4.504   1.611   0.375 -0.2137  0.0111  0.3238
    5FER    PA1   21   2.668   2.212   0.338 -0.3155 -0.1738  0.1301
    5FER    PA2   22   2.428   2.071   0.231 -0.3602  0.0763 -0.1113
    5FER    PA3   23   2.626   2.087   0.044 -0.0098 -0.4327  0.1908
    5FER    PA4   24   2.773   1.980  -0.086 -0.7764  0.3378 -0.0508
    5FER    PA5   25   2.774   1.860  -0.288  0.0164  0.0310 -0.1068
    6FER    PA1   26   0.890   5.078   0.897  0.0522  0.0685 -0.0184
    6FER    PA2   27   0.744   4.819   0.875  0.2004 -0.0171 -0.0028
    6FER    PA3   28   0.789   4.930   0.629  0.4092 -0.1606 -0.0322
    6FER    PA4   29   0.805   5.013   0.376 -0.3330 -0.2634  0.3674
    6FER    PA5   30   0.980   5.164   0.272  0.4267 -0.0427 -0.3873
    7FER    PA1   31   1.843   4.974   4.559 -0.1891 -0.0309  0.2863
    7FER    PA2   32   1.813   5.251   4.664 -0.0675  0.0503  0.1114
    7FER    PA3   33   1.959   5.246   4.433 -0.1869 -0.1437  0.0368
    7FER    PA4   34   2.096   5.355   4.232  0.1420  0.1060 -0.4594
    7FER    PA5   35   2.256   5.529   4.215  0.3753  0.0723 -0.1645
    8FER    PA1   36   0.960   3.449   0.619  0.0961 -0.1439  0.0606
    8FER    PA2   37   1.231   3.440   0.742  0.1009 -0.0706  0.0555
    8FER    PA3   38   1.034   3.447   0.932  0.1172  0.3792  0.0669
    8FER    PA4   39   0.905   3.495   1.098 -0.4658 -0.0013  0.7210
    8FER    PA5   40   0.894   3.604   1.329 -0.2080 -0.3085 -0.2511
    9FER    PA1   41   3.615   1.649   1.504 -0.0036 -0.2029  0.1140
    9FER    PA2   42   3.890   1.540   1.464  0.1264  0.1854 -0.1065
    9FER    PA3   43   3.698   1.354   1.405  0.3394 -0.0142 -0.1855
    9FER    PA4   44   3.567   1.153   1.459 -0.1348 -0.2838  0.5288
    9FER    PA5   45   3.663   0.916   1.429 -0.2408  0.0795  0.2611
   10FER    PA1   46   2.688   4.206   2.390 -0.0489 -0.0728 -0.2857
   10FER    PA2   47   2.812   4.155   2.124  0.1804 -0.4305 -0.1188
   10FER    PA3   48   2.994   4.128   2.326  0.0499  0.0034  0.0691
   10FER    PA4   49   3.186   4.087   2.406 -0.4732  0.4095  0.1296
   10FER    PA5   50   3.415   4.166   2.418 -0.1857 -0.1612 -0.0024
   11FER    PA1   51   1.650   1.928   6.563  0.0903 -0.1010  0.1239
   11FER    PA2   52   1.840   1.700   6.537  0.3669  0.1490 -0.1541
   11FER    PA3   53   1.699   1.688   6.771  0.4170 -0.2704 -0.1378
   11FER    PA4   54   1.633   1.738   6.988  0.2577 -0.3067  0.2809
   11FER    PA5   55   1.501   1.983   6.974  0.4788 -0.3657 -0.3498
   12FER    PA1   56   3.363   2.869   5.407  0.3003  0.0838  0.3599
   12FER    PA2   57   3.235   2.965   5.658 -0.0047  0.3967  0.0934
   12FER    PA3   58   3.268   3.168   5.478 -0.0626  0.1251 -0.2331
   12FER    PA4   59   3.267   3.336   5.292 -0.0242 -0.2635 -0.0983
   12FER    PA5   60   3.406   3.543   5.255  0.0880 -0.1354 -0.0929
   13FER    PA1   61   0.753   6.372   6.369  0.1677  0.1631  0.0637
   13FER    PA2   62   0.748   6.125   6.203 -0.0093  0.1559  0.0773
   13FER    PA3   63   0.982   6.262   6.172  0.0100  0.0891 -0.0812
   13FER    PA4   64   1.148   6.398   6.073  0.2386  0.0519 -0.0380
   13FER    PA5   65   1.293   6.458   5.886 -0.1182 -0.2063  0.0490
   14FER    PA1   66   3.284   2.575   1.368  0.0122  0.0369 -0.0430
   14FER    PA2   67   3.171   2.768   1.565 -0.1589 -0.1330  0.0289
   14FER    PA3   68   3.384   2.874   1.432 -0.0890  0.0119  0.2502
   14FER    PA4   69   3.639   2.963   1.384 -0.0708  0.1770 -0.3127
   14FER    PA5   70   3.628   2.896   1.132 -0.4225  0.0928 -0.0419
   15FER    PA1   71   2.701   0.978   1.626  0.3965  0.5291 -0.2164
   15FER    PA2   72   2.525   1.087   1.840 -0.4828 -0.3777 -0.3994
   15FER    PA3   73   2.445   1.171   1.593  0.2397  0.2904 -0.4440
   15FER    PA4   74   2.295   1.288   1.449 -0.2425  0.2505  0.3847
   15FER    PA5   75   2.277   1.549   1.442 -0.1649  0.5098  0.3179
   16FER    PA1   76   5.260   5.259   6.143  0.0095  0.1853 -0.2775
   16FER    PA2   77   5.201   5.192   5.858  0.1267 -0.1847 -0.2200
   16FER    PA3   78   5.366   5.007   5.973  0.1782  0.0249  0.0559
   16FER    PA4   79   5.594   4.896   6.010  0.1735  0.1005  0.0311
   16FER    PA5   80   5.801   4.853   5.869 -0.1657 -0.2859  0.1293
   17FER    PA1   81   5.825   2.850   1.290 -0.0380 -0.1894  0.0897
   17FER    PA2   82   5.963   2.816   1.552 -0.1534  0.2223  0.2119
   17FER    PA3   83   6.086   3.005   1.398  0.0148 -0.1346 -0.1116
   17FER    PA4   84   6.171   3.170   1.285 -0.1525  0.0519 -0.0186
   17FER    PA5   85   6.247   3.309   1.109  0.1037 -0.0525  0.5889
   18FER    PA1   86   3.772   0.863   5.360 -0.0109 -0.2055  0.1477
   18FER    PA2   87   3.757   0.603   5.505 -0.1672 -0.2273  0.0945
   18FER    PA3   88   3.787   0.566   5.236  0.3062 -0.1865  0.1341
   18FER    PA4   89   3.776   0.479   5.005 -0.0353  0.0256 -0.2065
   18FER    PA5   90   3.726   0.518   4.773 -0.1303 -0.2302  0.1528
   19FER    PA1   91   0.809   1.995   0.969 -0.1434  0.0384 -0.0838
   19FER    PA2   92   0.573   2.003   1.150 -0.0698  0.0225  0.0141
   19FER    PA3   93   0.574   2.215   0.978 -0.2792 -0.1023 -0.1468
   19FER    PA4   94   0.569   2.432   0.877  0.2706 -0.1238 -0.0211
   19FER    PA5   95   0.487   2.481   0.629 -0.0798  0.0156 -0.0753
   20FER    PA1   96   3.877   2.269   2.749 -0.0115  0.0683 -0.1475
   20FER    PA2   97   4.088   2.406   2.589  0.2337 -0.2473 -0.1045
   20FER    PA3   98   3.854   2.548   2.589  0.4373  0.1005 -0.1670
   20FER    PA4   99   3.615   2.622   2.564 -0.1121  0.2075 -0.1124
   20FER    PA5  100   3.401   2.668   2.548  0.3391  0.5629 -0.0363
   21bCD     C4  101   4.638   2.074   1.724  0.0923 -0.1194  0.0424
   21bCD     O2  102   4.682   2.112   1.929  0.0983 -0.0244 -0.4309
   21bCD     C6  103   4.816   2.128   1.496 -0.0238  0.5671 -0.0037
   21bCD     C4  104   4.218   1.820   1.667  0.0814  0.1507  0.0860
   21bCD     O2  105   4.216   1.820   1.895 -0.2859 -0.1284 -0.4817
   21bCD     C6  106   4.419   1.794   1.443  0.2591  0.1568 -0.3621
   21bCD     C4  107   3.808   2.067   1.565 -0.0513  0.2329 -0.0360
   21bCD     O2  108   3.765   2.007   1.781  0.1861 -0.2481  0.3647
   21bCD     C6  109   3.938   1.944   1.362 -0.1424  0.4701 -0.1633
   21bCD     C4  110   3.729   2.521   1.463  0.0628 -0.2723 -0.0686
   21bCD     O2  111   3.590   2.477   1.647  0.4382  0.3098  0.3944
   21bCD     C6  112   3.795   2.354   1.239  0.3531 -0.2684  0.0121
   21bCD     C4  113   4.036   2.905   1.520 -0.0838  0.1516 -0.2501
   21bCD     O2  114   3.890   2.911   1.721 -0.1817 -0.5951  0.5751
   21bCD     C6  115   3.988   2.801   1.251 -0.0160 -0.3499  0.2280
   21bCD     C4  116   4.515   2.891   1.640 -0.1508  0.1798  0.1187
   21bCD     O2  117   4.441   2.923   1.846  0.5944  0.0481  0.1437
   21bCD     C6  118   4.485   2.992   1.355  0.2295  0.4623  0.3901
   21bCD     C4  119   4.811   2.523   1.716 -0.0892  0.1914 -0.0036
   21bCD     O2  120   4.795   2.597   1.936  0.2035  0.0007 -0.1968
   21bCD     C6  121   4.873   2.641   1.460  0.0421  0.1617  0.7074
   22bCD     C4  122   5.588   2.068   2.016 -0.2324  0.3838 -0.3007
   22bCD     O2  123   5.489   1.852   2.046  0.0397  0.2840  0.4617
   22bCD     C6  124   5.502   2.339   2.009  0.1192 -0.1706 -0.1861
   22bCD     C4  125   6.063   2.014   1.944 -0.1722 -0.0652  0.0894
   22bCD     O2  126   6.001   1.791   2.016 -0.3472 -0.1700  0.1147
   22bCD     C6  127   5.959   2.279   1.953  0.2466 -0.1279 -0.1322
   22bCD     C4  128   6.293   1.937   1.529 -0.0869  0.1249  0.2692
   22bCD     O2  129   6.320   1.726   1.614 -0.2511 -0.4213 -0.2968
   22bCD     C6  130   6.333   2.195   1.628 -0.4131 -0.2181  0.5881
   22bCD     C4  131   6.086   1.871   1.115 -0.2772 -0.3851  0.4030
   22bCD     O2  132   6.121   1.635   1.156  0.1259  0.2692  0.2183
   22bCD     C6  133   6.253   2.102   1.131 -0.4783  0.4904  0.1481
   22bCD     C4  134   5.629   1.971   1.023  0.0495  0.1615 -0.1710
   22bCD     O2  135   5.637   1.735   1.031 -0.3395  0.2823  0.1859
   22bCD     C6  136   5.804   2.164   0.885  0.0807 -0.0066  0.1116
   22bCD     C4  137   5.231   2.086   1.257  0.0311  0.0665  0.2310
   22bCD     O2  138   5.187   1.852   1.214 -0.5884  0.3743 -0.5522
   22bCD     C6  139   5.295   2.310   1.094 -0.2888  0.1412  0.1386
   22bCD     C4  140   5.195   2.130   1.745 -0.0862 -0.1405 -0.0309
   22bCD     O2  141   5.128   1.920   1.711  0.2413 -0.4553  0.0437
   22bCD     C6  142   5.196   2.395   1.607 -0.2519 -0.0885  0.1482
   23bCD     C4  143   1.091   2.955   0.919 -0.0047 -0.3119  0.1456
   23bCD     O2  144   1.206   2.987   1.087 -0.2649 -0.0099 -0.0580
   23bCD     C6  145   1.125   2.879   0.653  0.0183 -0.1319  0.1834
   23bCD     C4  146   0.636   3.127   0.983 -0.0697  0.1234  0.2125
   23bCD     O2  147   0.720   3.154   1.187 -0.3265 -0.0270 -0.3989
   23bCD     C6  148   0.678   2.900   0.794  0.1612  0.2419 -0.2888
   23bCD     C4  149   0.548   3.578   0.792 -0.0684 -0.1738 -0.1627
   23bCD     O2  150   0.545   3.613   1.021 -0.1891 -0.0370 -0.3263
   23bCD     C6  151   0.433   3.358   0.639  0.2824 -0.0826 -0.1383
   23bCD     C4  152   0.883   3.860   0.579 -0.0671 -0.2301 -0.2241
   23bCD     O2  153   0.872   3.936   0.788 -0.3177  0.0986  0.0520
   23bCD     C6  154   0.664   3.737   0.436  0.2828  0.4313 -0.3440
   23bCD     C4  155   1.365   3.804   0.476  0.1678  0.0103 -0.1229
   23bCD     O2  156   1.369   3.935   0.638  0.7465 -0.7469 -0.0176
   23bCD     C6  157   1.181   3.805   0.255  0.0927  0.4611 -0.0238
   23bCD     C4  158   1.678   3.432   0.537 -0.1543  0.4079 -0.0995
   23bCD     O2  159   1.776   3.561   0.692 -0.2963  0.3650 -0.1193
   23bCD     C6  160   1.619   3.507   0.265 -0.3887  0.2616  0.2138
   23bCD     C4  161   1.546   3.012   0.729 -0.0680  0.1340 -0.0808
   23bCD     O2  162   1.691   3.092   0.871  0.3775 -0.5981 -0.2534
   23bCD     C6  163   1.577   3.001   0.423 -0.0859  0.1612 -0.3109
   24bCD     C4  164   4.609   2.420   0.139 -0.0182 -0.0785  0.0571
   24bCD     O2  165   4.781   2.252   0.113 -0.0631 -0.6369 -0.4792
   24bCD     C6  166   4.592   2.707   0.178 -0.3364 -0.2780 -0.2452
   24bCD     C4  167   4.199   2.162   0.217  0.0487 -0.2710 -0.2401
   24bCD     O2  168   4.337   2.004   0.155  0.0592 -0.1425  0.0866
   24bCD     C6  169   4.116   2.402   0.052  0.0033 -0.1927 -0.4511
   24bCD     C4  170   3.988   2.112   0.655  0.3469  0.0382  0.2357
   24bCD     O2  171   4.101   1.921   0.657  0.6069 -0.1252  0.0017
   24bCD     C6  172   3.823   2.251   0.459 -0.3429 -0.2669 -0.2007
   24bCD     C4  173   4.156   2.350   1.040  0.0121  0.0092 -0.0139
   24bCD     O2  174   4.240   2.133   1.066  0.3694 -0.0145 -0.4086
   24bCD     C6  175   3.899   2.452   0.935 -0.6062  0.2106  0.1305
   24bCD     C4  176   4.522   2.628   1.167  0.1736  0.0051 -0.0217
   24bCD     O2  177   4.583   2.419   1.269  0.1262  0.4025 -0.5714
   24bCD     C6  178   4.292   2.775   1.111 -0.2115  0.0110  0.1385
   24bCD     C4  179   4.907   2.722   0.872  0.0525 -0.1828  0.2581
   24bCD     O2  180   4.983   2.555   0.996  0.0010 -0.0502 -0.0494
   24bCD     C6  181   4.724   2.955   0.926  0.4101  0.1783  0.5141
   24bCD     C4  182   4.955   2.639   0.400 -0.0458 -0.3273  0.2771
   24bCD     O2  183   5.087   2.482   0.473  0.0947 -0.0571  0.4011
   24bCD     C6  184   4.928   2.912   0.459  0.3962  0.1472 -0.0599
   25bCD     C4  185   4.133   3.417   2.008  0.1128  0.1952  0.2211
   25bCD     O2  186   4.208   3.618   2.059 -0.2069 -0.5327 -0.3923
   25bCD     C6  187   4.170   3.148   2.122 -0.1575 -0.3645  0.4082
   25bCD     C4  188   3.872   3.498   1.599 -0.1013  0.1006 -0.0289
   25bCD     O2  189   3.940   3.718   1.681  0.4917 -0.1004  0.3659
   25bCD     C6  190   3.780   3.281   1.775  0.2317 -0.0612 -0.0980
   25bCD     C4  191   4.095   3.425   1.157 -0.0549  0.1355 -0.0902
   25bCD     O2  192   4.116   3.644   1.179  0.4272 -0.2786  0.0546
   25bCD     C6  193   3.890   3.231   1.196 -0.4348  0.0872 -0.0897
   25bCD     C4  194   4.560   3.319   1.082  0.2265  0.0889  0.0748
   25bCD     O2  195   4.557   3.543   1.022 -0.4503 -0.2579 -0.2442
   25bCD     C6  196   4.352   3.089   1.030 -0.4222 -0.4420 -0.8144
   25bCD     C4  197   4.921   3.188   1.356  0.0573 -0.0434  0.0495
   25bCD     O2  198   5.004   3.372   1.260 -0.2147 -0.3278  0.1467
   25bCD     C6  199   4.798   2.947   1.262  0.1943 -0.0382  0.0253
   25bCD     C4  200   4.934   3.262   1.825  0.2480 -0.1233 -0.0467
   25bCD     O2  201   5.041   3.457   1.751  0.1520  0.1283 -0.0492
   25bCD     C6  202   4.963   2.972   1.751 -0.0687 -0.0411 -0.0850
   25bCD     C4  203   4.594   3.352   2.166  0.0113  0.1571  0.3009
   25bCD     O2  204   4.706   3.566   2.129  0.5293 -0.0265  0.3739
   25bCD     C6  205   4.680   3.070   2.178 -0.0521 -0.0640 -0.2236
   26bCD     C4  206   3.207   3.182   1.834 -0.1596  0.1357 -0.3161
   26bCD     O2  207   3.422   3.069   1.854  0.0346  0.3559 -0.0724
   26bCD     C6  208   2.934   3.229   1.984 -0.1280 -0.2465  0.0003
   26bCD     C4  209   3.242   3.417   1.425 -0.2722 -0.1274 -0.0046
   26bCD     O2  210   3.455   3.337   1.424  0.1101  0.0516 -0.0358
   26bCD     C6  211   3.098   3.541   1.645 -0.2264 -0.2004 -0.4767
   26bCD     C4  212   3.023   3.211   1.047 -0.0919 -0.1976 -0.1484
   26bCD     O2  213   3.247   3.182   0.989 -0.1680 -0.3031  0.2350
   26bCD     C6  214   2.886   3.414   1.206 -0.0989 -0.0487 -0.1995
   26bCD     C4  215   2.824   2.756   1.053  0.0134 -0.1550  0.1741
   26bCD     O2  216   3.041   2.714   0.961  0.0316 -0.0918  0.2091
   26bCD     C6  217   2.682   3.015   1.152  0.4220  0.0778  0.1001
   26bCD     C4  218   2.776   2.387   1.353  0.0828 -0.0302  0.0025
   26bCD     O2  219   2.951   2.311   1.225 -0.2317 -0.0574 -0.1527
   26bCD     C6  220   2.520   2.519   1.290 -0.3121 -0.2455  0.0914
   26bCD     C4  221   2.888   2.385   1.823  0.1733 -0.1127  0.1851
   26bCD     O2  222   3.075   2.279   1.746 -0.1772 -0.0391  0.0960
   26bCD     C6  223   2.607   2.361   1.768  0.1259 -0.3482  0.1698
   26bCD     C4  224   3.031   2.785   2.079 -0.0950  0.0716  0.0049
   26bCD     O2  225   3.213   2.651   2.081  0.0208  0.3299  0.0584
   26bCD     C6  226   2.756   2.746   2.082 -0.1075  0.2662 -0.1305
   27bCD     C4  227   4.136   2.946   2.667 -0.0148  0.1837  0.2227
   27bCD     O2  228   3.912   2.988   2.708 -0.1422 -0.1758  0.3921
   27bCD     C6  229   4.317   2.989   2.457 -0.0787  0.0339  0.0486
   27bCD     C4  230   4.316   2.664   3.008 -0.1014  0.0296 -0.1333
   27bCD     O2  231   4.153   2.784   3.113  0.1331  0.5871 -0.3183
   27bCD     C6  232   4.513   2.747   2.827  0.1554 -0.2484  0.3197
   27bCD     C4  233   4.265   2.189   3.087  0.1869  0.2268 -0.2928
   27bCD     O2  234   4.077   2.262   3.212 -0.0938  0.2278 -0.0019
   27bCD     C6  235   4.510   2.296   3.040 -0.1762  0.3958  0.2542
   27bCD     C4  236   4.084   1.855   2.781  0.1762 -0.0154 -0.2441
   27bCD     O2  237   3.907   1.853   2.938  0.7311  0.0041 -0.0432
   27bCD     C6  238   4.395   1.840   2.791  0.3874 -0.1065  0.1779
   27bCD     C4  239   3.884   1.955   2.338  0.0082  0.0508  0.1696
   27bCD     O2  240   3.688   1.918   2.459  0.4588 -0.1366  0.5075
   27bCD     C6  241   4.121   1.809   2.357 -0.3922 -0.0064 -0.2422
   27bCD     C4  242   3.872   2.382   2.100  0.2044  0.0442 -0.2317
   27bCD     O2  243   3.631   2.352   2.123  0.0434  0.4747  0.0704
   27bCD     C6  244   4.094   2.226   2.017 -0.2100  0.0566  0.1995
   27bCD     C4  245   3.928   2.832   2.247 -0.1878 -0.1702 -0.0233
   27bCD     O2  246   3.708   2.828   2.242  0.4046  0.0138  0.0574
   27bCD     C6  247   4.117   2.724   2.034  0.4577  0.5054  0.4702
   28bCD     C4  248   3.699   1.440   1.915  0.0207  0.0803 -0.1360
   28bCD     O2  249   3.526   1.276   1.875  0.0688  0.2369 -0.0465
   28bCD     C6  250   3.720   1.681   2.046 -0.5680 -0.4866  0.1562
   28bCD     C4  251   4.085   1.228   1.741 -0.1316  0.3277  0.0110
   28bCD     O2  252   3.971   1.047   1.772  0.0214  0.5413 -0.0913
   28bCD     C6  253   4.159   1.428   1.940  0.3885 -0.1829 -0.1703
   28bCD     C4  254   4.192   1.298   1.271 -0.5049 -0.1156 -0.0509
   28bCD     O2  255   4.095   1.090   1.222 -0.2173 -0.0590 -0.2381
   28bCD     C6  256   4.371   1.403   1.495  0.0275 -0.2720  0.1125
   28bCD     C4  257   4.008   1.650   1.014  0.2130 -0.0097  0.0833
   28bCD     O2  258   3.976   1.470   0.862  0.6123  0.2394  0.2151
   28bCD     C6  259   4.209   1.739   1.218  0.2018 -0.2313  0.3819
   28bCD     C4  260   3.588   1.905   1.049  0.1728  0.3333  0.1951
   28bCD     O2  261   3.519   1.748   0.898 -0.4516 -0.3776  0.1614
   28bCD     C6  262   3.821   2.066   1.029  0.0257 -0.1120  0.1936
   28bCD     C4  263   3.302   1.995   1.428  0.1001 -0.1586 -0.1263
   28bCD     O2  264   3.138   1.878   1.296 -0.2357 -0.0376  0.2674
   28bCD     C6  265   3.482   2.203   1.383 -0.2166  0.1083  0.2159
   28bCD     C4  266   3.336   1.747   1.843 -0.1615  0.0574  0.0270
   28bCD     O2  267   3.173   1.616   1.728 -0.0090 -0.1913  0.1099
   28bCD     C6  268   3.389   2.011   1.861 -0.0220 -0.1152 -0.4013
   29bCD     C4  269   2.821   3.655   2.383 -0.2197  0.1670  0.0545
   29bCD     O2  270   2.633   3.689   2.482 -0.4366 -0.0555 -0.1920
   29bCD     C6  271   3.112   3.626   2.477 -0.1269  0.0368 -0.1224
   29bCD     C4  272   2.742   3.726   1.907 -0.0137 -0.0622  0.1951
   29bCD     O2  273   2.532   3.705   1.978 -0.2213 -0.4563 -0.3681
   29bCD     C6  274   2.951   3.564   1.982 -0.0976  0.0314  0.2448
   29bCD     C4  275   2.853   4.096   1.622 -0.1927 -0.1929  0.1359
   29bCD     O2  276   2.626   4.119   1.562  0.1420  0.3839 -0.7336
   29bCD     C6  277   3.054   3.895   1.669 -0.0585 -0.0208  0.0918
   29bCD     C4  278   2.942   4.526   1.840  0.3326  0.1555 -0.0001
   29bCD     O2  279   2.695   4.561   1.796 -0.3277 -0.6490 -0.0763
   29bCD     C6  280   3.165   4.418   1.715 -0.0759 -0.2572  0.4107
   29bCD     C4  281   2.967   4.631   2.305  0.0747  0.1125  0.1216
   29bCD     O2  282   2.721   4.700   2.272  0.0486 -0.3188  0.0945
   29bCD     C6  283   3.218   4.678   2.151  0.2105 -0.3036  0.3633
   29bCD     C4  284   3.026   4.394   2.731 -0.1629 -0.2573  0.0723
   29bCD     O2  285   2.809   4.486   2.771  0.1422  0.1208  0.5183
   29bCD     C6  286   3.280   4.479   2.603  0.1193  0.5722 -0.1787
   29bCD     C4  287   2.972   3.910   2.769  0.2089  0.0247 -0.0285
   29bCD     O2  288   2.767   4.005   2.836 -0.4290 -0.0557 -0.1965
   29bCD     C6  289   3.236   3.976   2.767  0.1512 -0.1663 -0.2738
   30bCD     C4  290   5.276   1.255   1.297  0.1725 -0.0395  0.0090
   30bCD     O2  291   5.145   1.094   1.178 -0.1722 -0.3004 -0.4044
   30bCD     C6  292   5.277   1.485   1.479 -0.0384  0.0565 -0.2139
   30bCD     C4  293   5.703   1.237   1.046  0.1193  0.0839 -0.3426
   30bCD     O2  294   5.608   1.042   1.000 -0.5476  0.0872 -0.1085
   30bCD     C6  295   5.766   1.436   1.286 -0.2108  0.1015  0.4356
   30bCD     C4  296   5.728   1.465   0.612  0.0523  0.0171 -0.3751
   30bCD     O2  297   5.636   1.276   0.551 -0.3692  0.1476 -0.2827
   30bCD     C6  298   5.945   1.522   0.784  0.2493  0.2474 -0.3078
   30bCD     C4  299   5.430   1.812   0.496 -0.1091 -0.1826  0.2216
   30bCD     O2  300   5.334   1.665   0.347  0.2329  0.6200 -0.1958
   30bCD     C6  301   5.696   1.884   0.611  0.0275 -0.2593  0.0095
   30bCD     C4  302   5.050   2.003   0.728 -0.3156 -0.0663 -0.0084
   30bCD     O2  303   4.956   1.888   0.530  0.0260 -0.6759  0.1773
   30bCD     C6  304   5.324   2.082   0.817  0.1892  0.1497  0.1270
   30bCD     C4  305   4.723   1.835   1.073  0.1119 -0.0575  0.2515
   30bCD     O2  306   4.593   1.757   0.890  0.0648 -0.2491 -0.1071
   30bCD     C6  307   4.847   2.105   1.119 -0.0101 -0.1240 -0.1787
   30bCD     C4  308   4.836   1.468   1.362  0.0531 -0.1212  0.0579
   30bCD     O2  309   4.681   1.357   1.191 -0.6015 -0.2966 -0.1205
   30bCD     C6  310   4.852   1.741   1.493 -0.2760 -0.0807 -0.0821
   31bCD     C4  311   3.047   1.937   2.165  0.3382  0.1486  0.1407
   31bCD     O2  312   3.217   2.047   2.245 -0.2635 -0.2973 -0.2985
   31bCD     C6  313   2.783   2.006   2.039  0.0178 -0.0677  0.1523
   31bCD     C4  314   3.129   1.474   2.318  0.1296 -0.0902 -0.0820
   31bCD     O2  315   3.321   1.602   2.340 -0.1253  0.1332 -0.2200
   31bCD     C6  316   2.966   1.462   2.073 -0.1390 -0.0486 -0.2536
   31bCD     C4  317   2.989   1.272   2.712  0.0335  0.1118 -0.0064
   31bCD     O2  318   3.199   1.331   2.801  0.6119  0.0102 -0.0376
   31bCD     C6  319   2.894   1.151   2.480 -0.2188  0.2862  0.4336
   31bCD     C4  320   2.661   1.450   3.003  0.1529  0.0449 -0.0453
   31bCD     O2  321   2.867   1.493   3.136  0.0189  0.1338 -0.2153
   31bCD     C6  322   2.551   1.248   2.816  0.0286 -0.1243 -0.6607
   31bCD     C4  323   2.440   1.886   2.970 -0.2653 -0.1335  0.1631
   31bCD     O2  324   2.582   1.907   3.155 -0.2525 -0.4497 -0.1513
   31bCD     C6  325   2.297   1.657   2.869 -0.2653  0.0287 -0.1092
   31bCD     C4  326   2.496   2.281   2.688 -0.0527 -0.4325  0.0735
   31bCD     O2  327   2.604   2.377   2.875 -0.3778  0.2434  0.2514
   31bCD     C6  328   2.267   2.087   2.639 -0.2226 -0.0837  0.5083
   31bCD     C4  329   2.802   2.339   2.321 -0.0650  0.4081 -0.1668
   31bCD     O2  330   2.942   2.487   2.458  0.0126  0.4046  0.0111
   31bCD     C6  331   2.500   2.318   2.297  0.2921 -0.4166  0.2801
   32bCD     C4  332   1.036   1.801   1.637 -0.1938 -0.0143  0.1290
   32bCD     O2  333   1.197   1.760   1.784  0.4195  0.2732  0.2399
   32bCD     C6  334   0.982   1.829   1.345 -0.0109 -0.1392 -0.1507
   32bCD     C4  335   0.679   1.935   1.947 -0.0300  0.1522  0.1773
   32bCD     O2  336   0.848   1.871   2.090  0.2323  0.0374 -0.3131
   32bCD     C6  337   0.587   1.829   1.684 -0.2079  0.4661  0.0791
   32bCD     C4  338   0.612   2.419   2.029 -0.0414  0.2237 -0.1448
   32bCD     O2  339   0.706   2.329   2.230  0.5744  0.2304 -0.1046
   32bCD     C6  340   0.398   2.314   1.853  0.3456  0.0627  0.0492
   32bCD     C4  341   0.921   2.736   1.865 -0.2481  0.1553 -0.0020
   32bCD     O2  342   1.021   2.700   2.083  0.6923 -0.0633 -0.1961
   32bCD     C6  343   0.670   2.734   1.715  0.7486  0.0655  0.1169
   32bCD     C4  344   1.323   2.735   1.575 -0.1253 -0.3891  0.1701
   32bCD     O2  345   1.425   2.795   1.778 -0.1539 -0.0680  0.1884
   32bCD     C6  346   1.064   2.783   1.435  0.1844  0.0688  0.1819
   32bCD     C4  347   1.591   2.381   1.363  0.0040 -0.0823  0.1689
   32bCD     O2  348   1.770   2.425   1.530  0.1549  0.5251  0.7678
   32bCD     C6  349   1.442   2.556   1.178 -0.1539  0.1869  0.3521
   32bCD     C4  350   1.454   1.899   1.392 -0.0142  0.4397  0.3554
   32bCD     O2  351   1.656   1.866   1.514  0.1020  0.1105 -0.2218
   32bCD     C6  352   1.450   2.001   1.116  0.0903  0.1396  0.0325
   33bCD     C4  353   2.384   2.046   0.709 -0.1820  0.0604  0.3402
   33bCD     O2  354   2.474   1.843   0.671 -0.0829 -0.1702 -0.0898
   33bCD     C6  355   2.114   2.180   0.686 -0.2045  0.1859  0.4389
   33bCD     C4  356   2.760   2.342   0.781 -0.1589  0.0297 -0.1122
   33bCD     O2  357   2.899   2.141   0.768  0.3013 -0.0470 -0.1209
   33bCD     C6  358   2.512   2.393   0.943  0.0719 -0.1598 -0.1067
   33bCD     C4  359   2.892   2.645   0.414  0.5551  0.1371  0.0647
   33bCD     O2  360   3.071   2.490   0.381  0.0740 -0.1751  0.1112
   33bCD     C6  361   2.775   2.800   0.635  0.0455 -0.1733  0.2788
   33bCD     C4  362   2.680   2.676  -0.016 -0.1971 -0.0666  0.1140
   33bCD     O2  363   2.877   2.540  -0.065 -0.0579  0.0035 -0.3155
   33bCD     C6  364   2.577   2.878   0.133 -0.3409 -0.1177 -0.1049
   33bCD     C4  365   2.362   2.397  -0.251  0.0876  0.1071 -0.0482
   33bCD     O2  366   2.572   2.319  -0.357  0.3205  0.6717 -0.3619
   33bCD     C6  367   2.275   2.669  -0.174 -0.1115  0.3651  0.0839
   33bCD     C4  368   2.123   2.016  -0.075  0.3859  0.3126  0.0122
   33bCD     O2  369   2.295   1.879  -0.156  0.3698  0.1028  0.4844
   33bCD     C6  370   1.965   2.246  -0.173  0.0601 -0.4088  0.2152
   33bCD     C4  371   2.064   1.879   0.385 -0.2003 -0.0042 -0.0757
   33bCD     O2  372   2.177   1.679   0.310 -0.2086 -0.5472  0.0746
   33bCD     C6  373   1.851   2.082   0.301  0.1907 -0.0140 -0.1432
   34bCD     C4  374   3.380   3.625   2.073  0.1374  0.0389 -0.2688
   34bCD     O2  375   3.464   3.580   1.872 -0.0419 -0.1028  0.5085
   34bCD     C6  376   3.172   3.810   2.184  0.0321 -0.2321 -0.0236
   34bCD     C4  377   3.661   3.413   2.430 -0.1747  0.3718  0.0446
   34bCD     O2  378   3.739   3.306   2.233  0.2941 -0.0485 -0.1633
   34bCD     C6  379   3.402   3.511   2.539 -0.0719  0.1022 -0.3208
   34bCD     C4  380   4.050   3.576   2.676  0.0567  0.0873  0.1026
   34bCD     O2  381   4.165   3.407   2.531  0.0974 -0.5828  0.0852
   34bCD     C6  382   3.838   3.489   2.861  0.4029 -0.0636  0.4245
   34bCD     C4  383   4.172   4.055   2.605  0.1321 -0.0659  0.0849
   34bCD     O2  384   4.341   3.937   2.512  0.1134 -0.0928  0.2979
   34bCD     C6  385   4.019   4.017   2.842  0.1529  0.0602 -0.5238
   34bCD     C4  386   4.044   4.463   2.372  0.2018  0.2417 -0.1625
   34bCD     O2  387   4.230   4.406   2.251 -0.2071 -0.2659  0.0630
   34bCD     C6  388   3.971   4.456   2.671 -0.1989  0.0563  0.0750
   34bCD     C4  389   3.661   4.453   2.084 -0.0426  0.2589  0.2129
   34bCD     O2  390   3.844   4.443   1.928 -0.1989  0.2441 -0.0281
   34bCD     C6  391   3.604   4.530   2.360  0.0829  0.0496  0.2082
   34bCD     C4  392   3.357   4.087   1.905  0.0749  0.1003  0.2172
   34bCD     O2  393   3.521   4.091   1.752 -0.0974 -0.3084 -0.1124
   34bCD     C6  394   3.211   4.284   2.058  0.0454  0.3117  0.2296
   35bCD     C4  395   4.824   0.916   3.010 -0.0229 -0.1666 -0.0105
   35bCD     O2  396   4.784   0.687   2.997 -0.1659 -0.3235  0.1415
   35bCD     C6  397   4.736   1.146   3.147 -0.1158 -0.0282 -0.0264
   35bCD     C4  398   5.098   1.018   2.628 -0.1547  0.1037 -0.0061
   35bCD     O2  399   5.119   0.776   2.642 -0.5772  0.0099  0.1699
   35bCD     C6  400   5.126   1.223   2.844  0.2118 -0.4190 -0.0644
   35bCD     C4  401   4.849   1.124   2.222  0.3039 -0.0353  0.0559
   35bCD     O2  402   4.919   0.901   2.183 -0.4177 -0.1314  0.6100
   35bCD     C6  403   5.001   1.340   2.359 -0.1541 -0.0731  0.0289
   35bCD     C4  404   4.401   1.158   2.107 -0.3109 -0.0208  0.0338
   35bCD     O2  405   4.486   0.993   1.976  0.0636  0.1876  0.0370
   35bCD     C6  406   4.495   1.397   2.267 -0.2577 -0.2098 -0.0226
   35bCD     C4  407   4.030   0.950   2.320 -0.0817  0.1024 -0.5372
   35bCD     O2  408   4.055   0.772   2.162 -0.1423  0.4234  0.2888
   35bCD     C6  409   4.007   1.245   2.296 -0.2097  0.2722  0.4492
   35bCD     C4  410   4.005   0.826   2.795  0.2437 -0.0476  0.1557
   35bCD     O2  411   3.999   0.605   2.697 -0.2156  0.3799  0.1442
   35bCD     C6  412   3.896   1.098   2.734 -0.0070 -0.0747 -0.2937
   35bCD     C4  413   4.332   0.852   3.126 -0.2004  0.1677  0.0028
   35bCD     O2  414   4.292   0.612   3.121 -0.0575 -0.1894 -0.0232
   35bCD     C6  415   4.170   1.074   3.148 -0.2166 -0.1043 -0.4292
   36bCD     C4  416   0.286   1.917   0.688  0.1689  0.0556 -0.0499
   36bCD     O2  417   0.410   1.719   0.710 -0.3462 -0.5414 -0.1522
   36bCD     C6  418   0.260   2.150   0.527  0.2691 -0.0286  0.0372
   36bCD     C4  419   0.022   1.931   1.104  0.1700 -0.0306  0.3790
   36bCD     O2  420   0.106   1.719   1.107 -0.0108 -0.0761  0.2813
   36bCD     C6  421  -0.102   2.049   0.856  0.2481 -0.0314 -0.0295
   36bCD     C4  422   0.217   2.203   1.468  0.0248 -0.1220 -0.2590
   36bCD     O2  423   0.232   1.983   1.540  0.0849  0.4480  0.1058
   36bCD     C6  424   0.006   2.342   1.329  0.5121 -0.0765 -0.0098
   36bCD     C4  425   0.652   2.420   1.453  0.1815  0.2028  0.1112
   36bCD     O2  426   0.705   2.251   1.580 -0.2569 -0.3748  0.0379
   36bCD     C6  427   0.451   2.622   1.481 -0.1737 -0.0150  0.1090
   36bCD     C4  428   1.007   2.458   1.118  0.3821 -0.0849 -0.0337
   36bCD     O2  429   1.099   2.277   1.224  0.2988 -0.1371  0.1254
   36bCD     C6  430   0.832   2.693   1.174 -0.0578 -0.0708  0.1902
   36bCD     C4  431   1.004   2.346   0.644  0.0060 -0.0781 -0.3274
   36bCD     O2  432   1.172   2.203   0.744 -0.0682  0.0046  0.3588
   36bCD     C6  433   0.925   2.627   0.710  0.1631  0.0817  0.0632
   36bCD     C4  434   0.694   2.047   0.484  0.0225 -0.2879 -0.1167
   36bCD     O2  435   0.851   1.887   0.531  0.0388  0.0639  0.2929
   36bCD     C6  436   0.694   2.285   0.334  0.3011  0.1030  0.2484
   37bCD     C4  437   5.801   3.254   1.743 -0.1883 -0.0660  0.1559
   37bCD     O2  438   5.882   3.376   1.571 -0.4738  0.0051  0.1729
   37bCD     C6  439   5.848   3.161   2.014  0.1600 -0.1380 -0.4073
   37bCD     C4  440   5.354   3.135   1.587 -0.2232 -0.0915 -0.2569
   37bCD     O2  441   5.428   3.312   1.450 -0.1001  0.2641  0.3330
   37bCD     C6  442   5.381   3.105   1.874 -0.6191  0.1754 -0.0323
   37bCD     C4  443   5.277   2.727   1.335  0.0019 -0.0446 -0.3556
   37bCD     O2  444   5.285   2.902   1.175 -0.2891  0.1432 -0.2913
   37bCD     C6  445   5.182   2.727   1.603 -0.0578 -0.2676 -0.2151
   37bCD     C4  446   5.640   2.401   1.275  0.0487  0.0424 -0.0464
   37bCD     O2  447   5.626   2.516   1.059 -0.1547  0.0988 -0.1843
   37bCD     C6  448   5.482   2.317   1.501  0.2334 -0.0205 -0.2173
   37bCD     C4  449   6.113   2.420   1.379 -0.3312  0.0230  0.1033
   37bCD     O2  450   6.133   2.471   1.176 -0.1440 -0.5234  0.1884
   37bCD     C6  451   5.981   2.241   1.545 -0.1928  0.0634  0.2525
   37bCD     C4  452   6.388   2.739   1.655  0.1056  0.1618 -0.1418
   37bCD     O2  453   6.480   2.789   1.454  0.1410  0.2868  0.1141
   37bCD     C6  454   6.311   2.526   1.842 -0.1543  0.4273 -0.0053
   37bCD     C4  455   6.257   3.169   1.823 -0.1656  0.2503 -0.0795
   37bCD     O2  456   6.384   3.236   1.634  0.1522 -0.2472  0.3600
   37bCD     C6  457   6.313   2.975   2.023  0.1708 -0.2875  0.3884
   38bCD     C4  458   1.611   2.505   0.750  0.0871 -0.3158 -0.1842
   38bCD     O2  459   1.699   2.333   0.615 -0.3125  0.0422 -0.3325
   38bCD     C6  460   1.343   2.602   0.740 -0.0629 -0.1444  0.1460
   38bCD     C4  461   1.951   2.701   1.056 -0.2448  0.1635  0.0788
   38bCD     O2  462   2.054   2.490   1.015  0.4247 -0.1311 -0.1929
   38bCD     C6  463   1.671   2.773   1.084 -0.0643  0.1152 -0.1448
   38bCD     C4  464   2.261   3.060   0.918 -0.2711  0.0242  0.0263
   38bCD     O2  465   2.393   2.875   0.930 -0.1384 -0.0406 -0.2085
   38bCD     C6  466   2.048   3.148   1.089  0.3913  0.1736  0.0921
   38bCD     C4  467   2.299   3.271   0.479  0.3360  0.1076 -0.0897
   38bCD     O2  468   2.428   3.067   0.482 -0.2349 -0.2844  0.2167
   38bCD     C6  469   2.156   3.440   0.666  0.0217 -0.2431  0.3024
   38bCD     C4  470   2.006   3.202   0.080  0.0828 -0.0698 -0.2609
   38bCD     O2  471   2.188   3.079   0.018  0.2157  0.1391 -0.3173
   38bCD     C6  472   1.985   3.426   0.263 -0.6716 -0.4053 -0.0525
   38bCD     C4  473   1.617   2.918   0.024 -0.0019 -0.0734 -0.1031
   38bCD     O2  474   1.789   2.795  -0.117  0.1760 -0.1768  0.0387
   38bCD     C6  475   1.546   3.197   0.067 -0.0906 -0.0090 -0.1957
   38bCD     C4  476   1.442   2.565   0.306  0.2234 -0.1235  0.3327
   38bCD     O2  477   1.555   2.433   0.139 -0.0514  0.9191 -0.7162
   38bCD     C6  478   1.272   2.809   0.275 -0.4214 -0.1362 -0.2186
   39bCD     C4  479   6.268   3.591   2.146 -0.1533 -0.0231  0.1132
   39bCD     O2  480   6.419   3.682   2.304 -0.0305  0.1410  0.1182
   39bCD     C6  481   6.013   3.428   2.110  0.1151 -0.2861  0.1206
   39bCD     C4  482   6.469   3.724   1.708  0.1043 -0.2244  0.0256
   39bCD     O2  483   6.608   3.841   1.850  0.0239  0.3321 -0.2327
   39bCD     C6  484   6.193   3.591   1.728 -0.3248 -0.1536  0.0267
   39bCD     C4  485   6.799   3.488   1.450  0.0109  0.0537 -0.0757
   39bCD     O2  486   6.966   3.642   1.543  0.3977 -0.3980 -0.0599
   39bCD     C6  487   6.522   3.502   1.352 -0.0381  0.3482 -0.1195
   39bCD     C4  488   6.996   3.056   1.574 -0.0826 -0.1081 -0.2867
   39bCD     O2  489   7.189   3.204   1.649  0.4569  0.3977  0.0524
   39bCD     C6  490   6.801   3.047   1.368 -0.0571 -0.2795  0.4430
   39bCD     C4  491   6.868   2.834   1.999 -0.2203 -0.1858  0.0492
   39bCD     O2  492   7.068   2.928   2.058  0.1209  0.0922 -0.4750
   39bCD     C6  493   6.795   2.673   1.739 -0.1803 -0.2960 -0.4087
   39bCD     C4  494   6.534   2.833   2.351 -0.0565 -0.1292 -0.2607
   39bCD     O2  495   6.730   2.881   2.477 -0.1698  0.3807  0.2324
   39bCD     C6  496   6.459   2.668   2.116 -0.0205 -0.3157  0.0050
   39bCD     C4  497   6.265   3.217   2.453  0.2520  0.1642  0.2154
   39bCD     O2  498   6.429   3.247   2.616 -0.3486  0.0516 -0.3120
   39bCD     C6  499   6.125   2.998   2.333  0.5796  0.1387 -0.2582
   40bCD     C4  500   3.604   3.756   1.100  0.0259 -0.0526  0.3081
   40bCD     O2  501   3.708   3.897   0.928 -0.0234 -0.0741  0.2533
   40bCD     C6  502   3.725   3.511   1.203  0.0479 -0.3738 -0.1400
   40bCD     C4  503   3.222   3.953   1.318 -0.2106 -0.0544  0.3634
   40bCD     O2  504   3.286   4.148   1.205 -0.1408 -0.1086  0.2661
   40bCD     C6  505   3.371   3.779   1.483 -0.3630  0.4580  0.1358
   40bCD     C4  506   2.770   3.817   1.192  0.3466  0.0923  0.0330
   40bCD     O2  507   2.798   4.018   1.096 -0.3176 -0.2495  0.3199
   40bCD     C6  508   2.867   3.714   1.454 -0.0967 -0.0527 -0.2621
   40bCD     C4  509   2.594   3.488   0.867  0.2437 -0.2058 -0.0889
   40bCD     O2  510   2.528   3.693   0.773 -0.3303  0.0293  0.1956
   40bCD     C6  511   2.537   3.384   1.137  0.0485 -0.4145 -0.1135
   40bCD     C4  512   2.876   3.237   0.557  0.2547 -0.1339  0.1193
   40bCD     O2  513   2.830   3.415   0.433  0.4228 -0.1929 -0.1806
   40bCD     C6  514   2.748   3.101   0.773  0.1826 -0.1880 -0.1690
   40bCD     C4  515   3.341   3.197   0.488 -0.4826 -0.1403  0.1836
   40bCD     O2  516   3.311   3.344   0.296  0.4189 -0.0428  0.3993
   40bCD     C6  517   3.209   2.968   0.620 -0.2615  0.1049 -0.1526
   40bCD     C4  518   3.690   3.428   0.759  0.0010 -0.1656 -0.0438
   40bCD     O2  519   3.715   3.564   0.555 -0.2255 -0.1743  0.0996
   40bCD     C6  520   3.653   3.148   0.834 -0.3112 -0.5677 -0.2033
   41WN      WN  521   3.842   1.333   4.137 -0.2054 -0.1901 -0.2778
   42WN      WN  522   1.982   5.972   6.058 -0.1234 -0.1135 -0.1829
   43WN      WN  523   3.383   3.871   0.362 -0.1265  0.0567  0.0468
   44WN      WN  524   1.886   4.294   2.275 -0.1286 -0.3163 -0.1178
   45WN      WN  525   0.369   2.727   1.096 -0.0815 -0.2134 -0.2589
   46WN      WN  526   5.784   0.508   1.225 -0.0087  0.2950  0.2147
   47WN      WN  527   5.397   0.164   4.579  0.2073  0.1497  0.0616
   48WN      WN  528   0.944   3.613   4.217  0.2382 -0.0309 -0.1089
   49WN      WN  529   5.088   0.153   1.708 -0.0405 -0.0615 -0.1686
   50WN      WN  530   0.591   3.021   6.412  0.0325 -0.0974 -0.0873
   51WN      WN  531   4.727   0.875   0.499 -0.2093  0.1941 -0.2501
   52WN      WN  532   0.503   5.349   1.081  0.0469  0.0842 -0.1206
   53WN      WN  533   2.674   5.340   3.826 -0.2117 -0.2385 -0.1676
   54WN      WN  534   2.808   0.203   4.909  0.1502  0.2520 -0.0076
   55WN      WN  535   5.785   2.924   5.007 -0.0844 -0.1530 -0.0477
   56WN      WN  536   5.064   4.357   4.438 -0.0322  0.1771 -0.0364
   57WN      WN  537   1.669   2.529   2.799  0.0683 -0.0926  0.1927
   58WN      WN  538   3.082   0.607   2.953 -0.1788  0.0404 -0.1795
   59WN      WN  539   6.351   0.439   3.691  0.1979 -0.2786 -0.0106
   60WN      WN  540   0.661   0.316   4.984 -0.1084  0.3128 -0.0684
   61WN      WN  541   4.344   2.996   4.716  0.0493  0.0933 -0.1065
   62WN      WN  542   3.796   6.363   0.308 -0.0872  0.0071  0.3529
   63WN      WN  543   5.401   3.565   0.926 -0.1771 -0.2449 -0.0003
   64WN      WN  544   2.997   6.421   0.109  0.0000 -0.1912 -0.1865
   65WN      WN  545   2.964   4.238   6.443 -0.0659  0.1314 -0.0916
   66WN      WN  546   0.554   1.109   5.852 -0.1466  0.0928 -0.1641
   67WN      WN  547   0.189   3.063   0.160 -0.4158  0.1846 -0.0110
   68WN      WN  548   5.612   5.897   3.092  0.2239 -0.1907 -0.0483
   69WN      WN  549   6.284   4.168   1.676 -0.0362 -0.1513 -0.0108
   70WN      WN  550   0.756   1.954   2.637  0.0078  0.1060 -0.0899
   71WN      WN  551   5.552   2.018   4.011  0.2227 -0.0308  0.3352
   72WN      WN  552   1.430   1.537   4.896  0.2117 -0.2207 -0.1287
   73WN      WN  553   1.773   5.473   0.158 -0.1067 -0.1735 -0.4849
   74WN      WN  554   3.680   1.278   3.091 -0.0287  0.2096 -0.1822
   75WN      WN  555   5.890   5.934   5.585  0.1937 -0.2759  0.0062
   76WN      WN  556   1.565   2.562   4.657  0.2993  0.3552  0.5147
   77WN      WN  557   4.230   2.545   4.932 -0.0067  0.4490 -0.2255
   78WN      WN  558   0.810   3.502   6.372 -0.3538  0.1186 -0.0332
   79WN      WN  559   0.702   6.490   1.654 -0.0152 -0.0848  0.0623
   80WN      WN  560   6.258   6.145   5.245 -0.4159  0.0743  0.1715
   81WN      WN  561   0.532   0.199   2.392  0.0553  0.0637  0.2223
   82WN      WN  562   2.660   4.728   0.524  0.3280  0.0992 -0.1854
   83WN      WN  563   6.307   2.271   2.477  0.0788  0.0092  0.3298
   84WN      WN  564   3.301   3.584   5.705 -0.0553 -0.1286 -0.2422
   85WN      WN  565   3.768   4.375   0.483  0.1463  0.1702 -0.2451
   86WN      WN  566   3.625   1.716   4.410 -0.1288 -0.0881 -0.1591
   87WN      WN  567   5.142   1.384   1.928 -0.0113  0.0054 -0.0245
   88WN      WN  568   5.452   5.680   0.814  0.0683  0.5772  0.1979
   89WN      WN  569   5.831   5.874   3.553 -0.0981  0.3812 -0.0794
   90WN      WN  570   1.742   4.597   5.351  0.1175 -0.0693 -0.4603
   91WN      WN  571   1.715   4.551   0.340  0.0624 -0.0298  0.2030
   92WN      WN  572   4.080   1.150   5.184  0.0130  0.0310  0.0514
   93WN      WN  573   6.547   2.214   3.375  0.0748 -0.0981  0.2653
   94WN      WN  574   4.630   0.901   0.966 -0.0977 -0.3992  0.0381
   95WN      WN  575   3.423   1.782   2.832  0.3189  0.0964 -0.0222
   96WN      WN  576   4.734   5.589   6.112 -0.1082 -0.1899 -0.1265
   97WN      WN  577   4.763   1.796   4.824 -0.0647  0.0611  0.1485
   98WN      WN  578   5.416   0.648   5.490 -0.4117  0.0619  0.2537
   99WN      WN  579   6.310   1.753   2.974 -0.1745 -0.0896  0.0625
  100WN      WN  580   1.803   5.447   1.710 -0.0915  0.2807  0.0252
  101WN      WN  581   0.495   1.224   4.869  0.1647 -0.2542  0.2887
  102WN      WN  582   1.745   2.198   5.623 -0.0840  0.0993 -0.3281
  103WN      WN  583   6.080   5.109   5.528  0.2342 -0.0249  0.0012
  104WN      WN  584   4.098   4.398   4.124  0.1323  0.0145 -0.1593
  105WN      WN  585   5.672   0.023   2.644  0.0821  0.2268 -0.1283
  106WN      WN  586   2.862   1.015   1.119  0.3802 -0.2012 -0.0096
  107WN      WN  587   4.991   1.534   3.270 -0.1118  0.2300 -0.2108
  108WN      WN  588   2.434   4.133   4.493 -0.0355 -0.2172 -0.2195
  109WN      WN  589   4.144   0.309   4.984 -0.0812 -0.1672 -0.1547
  110WN      WN  590   1.086   6.364   4.789  0.1738  0.0118  0.1677
  111WN      WN  591   3.021   1.575   4.498 -0.0296 -0.0291 -0.2082
  112WN      WN  592   5.072   1.568   5.653 -0.0378  0.2039  0.1492
  113WN      WN  593   5.253   1.502   0.832  0.2062 -0.0387  0.0119
  114WN      WN  594   6.367   0.867   0.860  0.0359  0.2206  0.0924
  115WN      WN  595   4.671   4.595   2.354 -0.1054  0.2876  0.3094
  116WN      WN  596   5.835   2.406   5.125  0.1770 -0.2988 -0.1562
  117WN      WN  597   4.224   5.619   6.230 -0.4040 -0.0083  0.0789
  118WN      WN  598   2.483   4.464   6.341 -0.1164 -0.0184  0.1008
  119WN      WN  599   3.286   2.372   5.569  0.0343 -0.2682 -0.0472
  120WN      WN  600   0.646   4.209   3.444  0.1743 -0.0500 -0.1473
  121WN      WN  601   1.111   5.180   1.390  0.4011  0.1157  0.0079
  122WN      WN  602   2.074   4.154   5.636 -0.4716 -0.0444  0.4040
  123WN      WN  603   6.141   2.549   0.236  0.1343  0.0670  0.0659
  124WN      WN  604   2.849   4.463   3.319 -0.0124  0.2468 -0.1510
  125WN      WN  605   3.246   3.148   2.404  0.1259 -0.1256  0.0260
  126WN      WN  606   5.447   2.486   4.162  0.0204  0.3201 -0.2100
  127WN      WN  607   2.425   0.457   1.488  0.2762  0.1770 -0.0926
  128WN      WN  608   1.978   3.169   5.204 -0.4347  0.0635 -0.0966
  129WN      WN  609   3.447   0.303   5.991  0.0709  0.0548  0.2409
  130WN      WN  610   6.408   3.456   0.088  0.2933  0.0571 -0.1298
  131WN      WN  611   1.834   1.158   5.634 -0.0451  0.0182  0.1748
  132WN      WN  612   0.090   5.131   3.649  0.0671 -0.3822  0.2148
  133WN      WN  613   5.985   5.214   4.933  0.1015 -0.3947 -0.1139
  134WN      WN  614   1.749   1.610   4.148 -0.1297  0.1154  0.3993
  135WN      WN  615   3.305   4.515   3.609  0.0109 -0.1293 -0.2499
  136WN      WN  616   6.206   0.681   0.314  0.3401 -0.1985  0.2561
  137WN      WN  617   4.002   6.260   2.118  0.0456 -0.4291 -0.5030
  138WN      WN  618   1.951   1.567   5.324  0.3278  0.2000  0.1451
  139WN      WN  619   0.272   5.463   0.129  0.0548 -0.2617  0.0461
  140WN      WN  620   0.516   5.992   2.758  0.2162 -0.1236 -0.1553
  141WN      WN  621   0.155   5.372   5.159 -0.2589  0.1885  0.3665
  142WN      WN  622   5.598   4.687   0.339  0.3132  0.0878 -0.2611
  143WN      WN  623   1.512   3.526   3.180 -0.3164  0.0176 -0.0531
  144WN      WN  624   0.634   1.580   5.650 -0.2666 -0.2546  0.1401
  145WN      WN  625   4.413   2.479   2.182 -0.3626 -0.0125  0.1928
  146WN      WN  626   5.848   0.755   0.671 -0.1989  0.2085 -0.3473
  147WN      WN  627   1.847   3.775   4.314  0.1820  0.1234 -0.1795
  148WN      WN  628   5.096   4.834   1.480  0.0781  0.0737  0.0652
  149WN      WN  629   4.454   2.117   4.609 -0.0283  0.1038 -0.0017
  150WN      WN  630   5.677   6.279   4.526  0.0268 -0.0007  0.2159
  151WN      WN  631   2.092   5.896   3.857  0.1148 -0.0963  0.2517
  152WN      WN  632   0.448   5.356   3.873  0.2269  0.1915  0.0302
  153WN      WN  633   5.691   3.123   3.348  0.1918  0.1072 -0.0100
  154WN      WN  634   6.439   0.598   5.745  0.0398  0.0325  0.0036
  155WN      WN  635   2.566   0.797   0.822  0.0113 -0.2871 -0.2212
  156WN      WN  636   5.445   6.093   2.446 -0.1481  0.0185 -0.0154
  157WN      WN  637   0.705   2.914   2.476 -0.6627  0.0102 -0.2859
  158WN      WN  638   2.921   6.062   6.329 -0.4392  0.2912 -0.0241
  159WN      WN  639   1.478   0.340   1.386 -0.2378 -0.0276 -0.1259
  160WN      WN  640   2.762   3.244   4.665 -0.1568 -0.1471  0.3019
  161WN      WN  641   2.359   3.917   3.534  0.2777  0.2516 -0.0077
  162WN      WN  642   5.272   2.379   5.499  0.1623 -0.0862  0.0138
  163WN      WN  643   1.590   0.359   2.887 -0.1691 -0.2477 -0.1079
  164WN      WN  644   5.498   5.731   6.259 -0.0884 -0.1909  0.1935
  165WN      WN  645   3.410   2.266   2.689  0.3397 -0.1142  0.3519
  166WN      WN  646   6.446   5.219   0.862  0.4956 -0.0754 -0.2212
  167WN      WN  647   3.462   0.212   1.837  0.0556 -0.0708 -0.0967
  168WN      WN  648   2.923   3.920   0.567 -0.0168 -0.3224 -0.1360
  169WN      WN  649   3.241   1.363   1.144  0.0652 -0.0964 -0.2148
  170WN      WN  650   2.418   5.981   6.431  0.1456 -0.0337  0.0436
  171WN      WN  651   4.052   4.391   6.559 -0.1246 -0.1639  0.1734
  172WN      WN  652   0.950   0.711   5.745 -0.4210  0.0303 -0.0091
  173WN      WN  653   5.956   1.412   6.156  0.1738 -0.1317  0.0181
  174WN      WN  654   0.219   2.896   0.663  0.0057  0.1066 -0.1387
  175WN      WN  655   2.360   1.630   4.354 -0.2906 -0.2930  0.0228
  176WN      WN  656   1.201   4.816   0.575  0.1538  0.0056 -0.0453
  177WN      WN  657   4.237   5.049   1.580 -0.3630 -0.0368 -0.1677
  178WN      WN  658   4.618   1.248   3.544  0.2193  0.0284  0.2169
  179WN      WN  659   3.281   4.673   1.124 -0.0608  0.4696 -0.0315
  180WN      WN  660   4.207   3.840   0.733 -0.0873 -0.0486  0.2071
  181WN      WN  661   0.207   1.017   2.126 -0.2604  0.0784 -0.3983
  182WN      WN  662   2.305   0.380   2.693  0.0547  0.2664  0.0168
  183WN      WN  663   3.379   4.159   0.728  0.2549  0.1180 -0.1113
  184WN      WN  664   1.673   6.098   3.596  0.1324  0.0931  0.0885
  185WN      WN  665   6.364   1.707   6.235 -0.1968  0.2028  0.1359
  186WN      WN  666   4.922   1.762   0.057  0.0572  0.1082  0.3481
  187WN      WN  667   5.872   1.037   2.036  0.0992 -0.3183  0.3900
  188WN      WN  668   3.704   4.271   3.694 -0.0706  0.1236  0.1349
  189WN      WN  669   5.942   2.717   2.049  0.2309  0.3079  0.0208
  190WN      WN  670   5.847   4.284   6.449  0.2435 -0.1751  0.2497
  191WN      WN  671   1.223   2.322   4.092  0.2351  0.2876 -0.1866
  192WN      WN  672   6.292   5.532   1.253 -0.2364  0.4168  0.0263
  193WN      WN  673   3.708   5.477   1.600  0.0754  0.4624 -0.1206
  194WN      WN  674   2.532   1.515   3.531 -0.3425 -0.0531 -0.1642
  195WN      WN  675   4.639   1.726   4.319  0.4188 -0.0308  0.1315
  196WN      WN  676   5.137   4.844   4.605 -0.1049 -0.2134  0.1549
  197WN      WN  677   5.031   2.257   2.204 -0.0131  0.0589  0.0557
  198WN      WN  678   4.552   5.570   1.233  0.2237 -0.4351  0.1642
  199WN      WN  679   5.385   2.000   2.546 -0.1391  0.0740 -0.0544
  200WN      WN  680   1.835   5.875   5.227 -0.2041  0.0581 -0.0363
  201WN      WN  681   4.363   5.671   5.538  0.0398  0.0475  0.2656
  202WN      WN  682   4.042   3.450   4.013  0.1130 -0.0074 -0.2021
  203WN      WN  683   3.279   5.401   5.896  0.1007  0.3469 -0.0612
  204WN      WN  684   5.113   2.133   3.029  0.0316 -0.2134 -0.0193
  205WN      WN  685   1.745   3.697   6.398  0.0502  0.0942 -0.1408
  206WN      WN  686   5.388   4.832   1.909 -0.2547  0.1513  0.2124
  207WN      WN  687   6.077   1.325   2.769 -0.0630  0.0204  0.0633
  208WN      WN  688   0.406   4.325   5.046  0.1362  0.0796  0.0354
  209WN      WN  689   5.324   4.493   2.773  0.1348 -0.0755  0.1208
  210WN      WN  690   1.617   5.206   3.084  0.1091  0.4235 -0.2247
  211WN      WN  691   6.235   5.004   1.265 -0.0012 -0.1261  0.0750
  212WN      WN  692   2.345   3.472   6.198 -0.0789 -0.3133  0.0031
  213WN      WN  693   1.679   3.207   6.145  0.2436  0.0995  0.1696
  214WN      WN  694   3.517   5.846   2.959 -0.2730 -0.0799  0.0671
  215WN      WN  695   3.543   1.296   4.713 -0.0008 -0.2624  0.4101
  216WN      WN  696   4.498   3.276   5.081  0.0643 -0.5466  0.3749
  217WN      WN  697   0.745   6.313   5.758  0.3122 -0.3225 -0.0188
  218WN      WN  698   1.287   5.790   0.591 -0.1178  0.0888  0.3378
  219WN      WN  699   1.788   0.936   4.334 -0.0505  0.1059 -0.1013
  220WN      WN  700   5.369   4.778   4.145  0.3233 -0.0553  0.0445
  221WN      WN  701   1.891   0.469   1.594 -0.0962  0.0326 -0.0195
  222WN      WN  702   0.325   1.833   3.238  0.2067 -0.1028  0.0545
  223WN      WN  703   3.205   5.117   0.135  0.0548 -0.2058  0.0488
  224WN      WN  704   2.902   6.500   2.389  0.1553 -0.0079  0.0518
  225WN      WN  705   1.971   3.689   5.796 -0.2188  0.1306 -0.3123
  226WN      WN  706   2.071   1.902   1.825 -0.2010 -0.1537  0.3041
  227WN      WN  707   1.129   2.845   4.793  0.2094 -0.0711  0.2063
  228WN      WN  708   5.933   5.471   2.312 -0.0435 -0.0942  0.0978
  229WN      WN  709   5.731   0.265   2.206  0.0055 -0.0315 -0.2153
  230WN      WN  710   6.421   1.316   4.520  0.1565  0.1822 -0.0435
  231WN      WN  711   4.718   0.624   0.053 -0.1344  0.0686 -0.1328
  232WN      WN  712   2.937   3.607   4.997  0.2720 -0.0191  0.1423
  233WN      WN  713   5.911   0.545   5.026 -0.3331  0.1666 -0.1955
  234WN      WN  714   2.581   2.460   4.129 -0.1986  0.1970 -0.1357
  235WN      WN  715   0.514   1.130   6.450  0.0626  0.2185  0.0596
  236WN      WN  716   3.264   4.069   4.130 -0.0507  0.0258 -0.0692
  237WN      WN  717   4.938   3.735   5.808 -0.1037  0.0614 -0.2801
  238WN      WN  718   1.853   3.115   3.603  0.1665 -0.0789  0.0740
  239WN      WN  719   2.080   5.477   0.903 -0.0241  0.2186  0.1432
  240WN      WN  720   4.628   0.606   3.471  0.1130 -0.0750 -0.0782
  241WN      WN  721   1.628   4.749   0.812  0.1463 -0.1264  0.0359
  242WN      WN  722   4.486   0.542   3.960 -0.3346 -0.0688 -0.0243
  243WN      WN  723   0.566   5.184   2.331  0.3703  0.4505  0.0725
  244WN      WN  724   5.070   2.602   6.385  0.0397 -0.1493 -0.0390
  245WN      WN  725   1.897   2.955   4.570 -0.2530 -0.2444 -0.1080
  246WN      WN  726   4.132   2.678   6.099 -0.1986  0.0070  0.2112
  247WN      WN  727   0.216   6.476   0.188 -0.2528  0.0567 -0.1673
  248WN      WN  728   3.728   0.517   6.404  0.0847  0.0180 -0.0428
  249WN      WN  729   6.370   2.592   3.634  0.0255 -0.3962  0.2704
  250WN      WN  730   5.577   0.728   4.630  0.1008 -0.0789 -0.1443
  251WN      WN  731   1.710   5.154   4.104 -0.0888 -0.0642 -0.3261
  252WN      WN  732   5.611   4.595   2.313  0.0672 -0.2725  0.1179
  253WN      WN  733   6.050   0.643   2.216  0.3612  0.5559  0.0651
  254WN      WN  734   6.458   1.726   3.571 -0.3511 -0.1202  0.1456
  255WN      WN  735   3.860   0.026   2.482 -0.2127  0.0650 -0.0551
  256WN      WN  736   3.290   6.559   1.340 -0.0916  0.0156 -0.0329
  257WN      WN  737   2.786   3.384   4.179 -0.0740  0.1398 -0.1733
  258WN      WN  738   2.934   3.053   3.168  0.2273 -0.0274  0.1936
  259WN      WN  739   3.388   1.490   0.489 -0.0338 -0.0356  0.1735
  260WN      WN  740   4.145   4.104   1.826 -0.1415  0.2068  0.1337
  261WN      WN  741   1.901   6.441   5.930  0.0527 -0.3627  0.1393
  262WN      WN  742   5.808   0.954   5.901 -0.1130  0.1011  0.0158
  263WN      WN  743   3.681   2.078   5.652 -0.1501  0.1016 -0.1509
  264WN      WN  744   5.330   0.782   3.081 -0.3599  0.1863  0.1876
  265WN      WN  745   0.391   3.857   0.109 -0.1374  0.1071 -0.2482
  266WN      WN  746   5.969   6.439   5.522 -0.3192 -0.5310 -0.2131
  267WN      WN  747   5.248   6.173   6.123  0.3245 -0.1689  0.1377
  268WN      WN  748   2.514   5.889   5.948  0.0517  0.0099  0.3135
  269WN      WN  749   6.397   0.046   3.383 -0.0263 -0.0382  0.0424
  270WN      WN  750   1.532   4.286   5.633 -0.0641 -0.2696  0.0075
  271WN      WN  751   2.259   1.714   4.924 -0.0190  0.1671  0.3112
  272WN      WN  752   4.718   5.950   4.245  0.2661  0.2266 -0.0806
  273WN      WN  753   1.382   5.720   5.267  0.2407  0.1640 -0.2772
  274WN      WN  754   4.772   4.619   4.815  0.0173  0.1768 -0.1562
  275WN      WN  755   0.310   3.520   4.647 -0.3176  0.0627 -0.0023
  276WN      WN  756   3.191   2.353   3.525  0.1394  0.0231 -0.2938
  277WN      WN  757   1.967   2.625   4.229  0.3178 -0.0688 -0.2198
  278WN      WN  758   1.852   1.347   1.135 -0.0279  0.2478 -0.0653
  279WN      WN  759   3.696   1.434   2.627 -0.0254  0.0547  0.2417
  280WN      WN  760   1.636   4.658   4.344 -0.0331  0.0954 -0.2330
  281WN      WN  761   5.788   1.045   4.147 -0.1079 -0.1600  0.0408
  282WN      WN  762   5.395   2.750   5.867 -0.0351 -0.1442  0.2460
  283WN      WN  763   5.217   6.035   5.270 -0.1201 -0.1103 -0.1377
  284WN      WN  764   4.583   5.924   3.518 -0.0151  0.0668  0.2075
  285WN      WN  765   4.344   5.586   3.237  0.1583  0.0844 -0.0732
  286WN      WN  766   0.355   5.657   6.175 -0.1497  0.2268  0.0956
  287WN      WN  767   2.392   0.960   0.377  0.3154 -0.3723  0.1367
  288WN      WN  768   6.564   3.666   5.923 -0.1914  0.0713 -0.1666
  289WN      WN  769   2.714   3.346   1.604 -0.0884 -0.1406 -0.1649
  290WN      WN  770   3.690   1.896   0.203 -0.2703  0.0494 -0.2749
  291WN      WN  771   1.840   0.540   2.501  0.0170  0.1681  0.3811
  292WN      WN  772   2.825   0.991   5.437 -0.2058 -0.2280 -0.0167
  293WN      WN  773   0.524   5.956   0.243 -0.4139  0.0994 -0.0863
  294WN      WN  774   4.105   1.673   4.387 -0.1717 -0.1588  0.2488
  295WN      WN  775   0.529   5.307   3.412  0.1341  0.2817 -0.0107
  296WN      WN  776   4.043   1.770   5.417 -0.0098 -0.0568 -0.1869
  297WN      WN  777   1.921   5.906   0.007  0.1306 -0.3746  0.1831
  298WN      WN  778   3.091   0.846   4.669  0.2454  0.0836 -0.0351
  299WN      WN  779   2.853   3.145   3.696  0.4093 -0.2054  0.0056
  300WN      WN  780   0.818   6.081   1.343  0.0451  0.3688 -0.0909
  301WN      WN  781   2.862   1.494   5.601 -0.2618 -0.1841  0.0531
  302WN      WN  782   6.554   3.394   4.136 -0.2038 -0.2985 -0.1361
  303WN      WN  783   3.998   5.456   1.213  0.1747  0.1319 -0.0774
  304WN      WN  784   2.441   5.944   1.677  0.1427 -0.0728 -0.3675
  305WN      WN  785   0.111   4.081   1.388 -0.2966  0.2488  0.0329
  306WN      WN  786   1.625   5.355   2.410  0.2132 -0.1845  0.0658
  307WN      WN  787   6.202   1.610   5.282  0.1723  0.3254 -0.0673
  308WN      WN  788   5.553   4.333   4.314 -0.3867  0.1044  0.0467
  309WN      WN  789   2.285   2.351   3.268  0.2094  0.0233 -0.0144
  310WN      WN  790   1.180   2.232   2.217  0.2606 -0.4623  0.1878
  311WN      WN  791   0.785   2.318   3.589  0.0241 -0.1055  0.0018
  312WN      WN  792   5.578   2.515   0.125 -0.1414  0.0057  0.0845
  313WN      WN  793   2.090   0.117   0.181 -0.0112 -0.1428 -0.1016
  314WN      WN  794   6.399   2.038   0.363  0.0413 -0.3179 -0.0793
  315WN      WN  795   0.901   3.539   5.706  0.0672  0.1130  0.3881
  316WN      WN  796   0.469   2.328   3.137 -0.1327  0.1393 -0.0827
  317WN      WN  797   2.594   0.620   4.851 -0.3137  0.1169  0.1260
  318WN      WN  798   4.053   0.595   4.315 -0.0610 -0.2578 -0.1457
  319WN      WN  799   3.501   5.450   4.295 -0.0797 -0.1688 -0.1955
  320WN      WN  800   4.050   3.113   5.224  0.2629  0.0694  0.4143
  321WN      WN  801   2.303   3.360   2.380 -0.2521  0.0305  0.0460
  322WN      WN  802   0.158   0.251   1.174 -0.4486  0.1429 -0.3112
  323WN      WN  803   5.597   5.490   5.816  0.1290 -0.1429  0.1632
  324WN      WN  804   4.768   5.855   0.807  0.1457  0.1060 -0.2073
  325WN      WN  805   6.430   6.411   0.954 -0.0612  0.3771  0.2791
  326WN      WN  806   4.482   3.079   6.286 -0.1345  0.2168 -0.1839
  327WN      WN  807   3.658   1.085   0.928 -0.1005  0.2662 -0.0328
  328WN      WN  808   3.938   0.109   5.978 -0.1614 -0.1770 -0.2094
  329WN      WN  809   4.617   6.185   5.067 -0.5468  0.0180  0.1635
  330WN      WN  810   6.249   6.166   4.733  0.1932  0.2142 -0.2049
  331WN      WN  811   4.296   5.639   3.841 -0.1089  0.0485 -0.0056
  332WN      WN  812   5.080   3.850   1.444 -0.1537 -0.3830  0.1904
  333WN      WN  813   2.812   2.636   3.695 -0.0254 -0.1651 -0.2675
  334WN      WN  814   0.263   6.081   0.650 -0.0323 -0.0245  0.1720
  335WN      WN  815   3.717   5.013   1.756  0.0316  0.0665 -0.0830
  336WN      WN  816   6.258   6.024   1.256  0.0659  0.0784 -0.0402
  337WN      WN  817   0.950   4.690   0.002 -0.0414  0.0453  0.1821
  338WN      WN  818   1.366   3.562   2.720  0.2899  0.4192  0.1809
  339WN      WN  819   2.758   5.051   4.957 -0.0077  0.0120 -0.3295
  340WN      WN  820   0.281   6.296   3.587 -0.0114 -0.0535 -0.1078
  341WN      WN  821   1.717   0.938   2.978 -0.2255 -0.1217  0.0406
  342WN      WN  822   5.072   2.271   4.957  0.1027  0.0817 -0.0124
  343WN      WN  823   2.787   1.634   4.960 -0.0900  0.0205 -0.2594
  344WN      WN  824   1.825   5.187   5.601 -0.1351  0.2113 -0.0211
  345WN      WN  825   5.042   0.958   1.661 -0.3611 -0.0563  0.1261
  346WN      WN  826   1.351   4.573   6.246 -0.4228 -0.3794  0.0663
  347WN      WN  827   2.703   4.889   4.420 -0.3278 -0.2193  0.0149
  348WN      WN  828   5.997   0.699   5.515  0.1162 -0.0307  0.0049
  349WN      WN  829   0.600   0.197   0.393  0.2899 -0.3718  0.0473
  350WN      WN  830   0.945   1.348   3.853  0.0346 -0.1268 -0.1169
  351WN      WN  831   4.679   4.915   0.160 -0.1800 -0.0982 -0.1651
  352WN      WN  832   1.103   3.260   1.563  0.0868  0.1426 -0.1555
  353WN      WN  833   1.515   0.647   4.000 -0.2091  0.0571  0.0863
  354WN      WN  834   4.298   3.452   0.210 -0.0250 -0.0529 -0.2076
  355WN      WN  835   0.188   6.456   2.617 -0.1488  0.1949 -0.0251
  356WN      WN  836   2.442   4.846   5.805 -0.1548  0.0442  0.0259
  357WN      WN  837   0.071   1.276   0.740  0.2528  0.1770  0.0877
  358WN      WN  838   2.135   3.911   0.508 -0.0720 -0.0602 -0.0376
  359WN      WN  839   2.609   6.490   5.469  0.1293 -0.3003 -0.0900
  360WN      WN  840   5.994   1.901   2.539  0.0337  0.1377 -0.2650
  361WN      WN  841   3.144   0.744   5.927 -0.4709  0.0304 -0.1557
  362WN      WN  842   3.367   0.530   3.503  0.0160  0.1657  0.0905
  363WN      WN  843   1.295   3.490   6.446 -0.3137  0.2410 -0.1101
  364WN      WN  844   4.303   5.258   4.324  0.0813 -0.0734  0.3151
  365WN      WN  845   1.988   6.279   0.373  0.2116  0.0344 -0.0747
  366WN      WN  846   1.441   3.694   4.622  0.0730  0.0234 -0.0962
  367WN      WN  847   4.767   2.922   4.472 -0.0270 -0.0632 -0.1407
  368WN      WN  848   2.400   6.418   4.225  0.3648  0.0433 -0.1251
  369WN      WN  849   2.031   2.272   3.790 -0.1429  0.2687 -0.6430
  370WN      WN  850   2.754   1.960   5.806 -0.1176 -0.1492  0.2028
  371WN      WN  851   3.929   6.080   5.777 -0.0577 -0.1737 -0.0093
  372WN      WN  852   1.757   3.894   1.025 -0.0935 -0.3116 -0.0467
  373WN      WN  853   4.846   2.559   2.986  0.2319 -0.0686 -0.0156
  374WN      WN  854   0.299   1.443   3.574  0.2613  0.0524 -0.4102
  375WN      WN  855   0.412   0.594   6.493  0.3365 -0.0749 -0.2119
  376WN      WN  856   0.823   2.326   4.589  0.0367  0.1832 -0.2612
  377WN      WN  857   0.652   5.850   0.847  0.0421 -0.0198  0.0623
  378WN      WN  858   0.990   2.975   2.897  0.3497 -0.0861  0.1363
  379WN      WN  859   5.784   0.343   0.239 -0.1347  0.0559  0.0152
  380WN      WN  860   4.281   3.406   4.448  0.0422  0.1064 -0.0983
  381WN      WN  861   5.693   2.738   5.503  0.0763 -0.0477  0.0686
  382WN      WN  862   4.543   6.009   5.900 -0.0303  0.0427  0.1109
  383WN      WN  863   4.957   5.317   2.214 -0.0308  0.0775 -0.4658
  384WN      WN  864   1.502   3.035   2.798  0.1411  0.1667  0.2005
  385WN      WN  865   3.774   4.978   5.046 -0.0968  0.2312  0.2346
  386WN      WN  866   5.568   0.393   3.173  0.0380 -0.1699 -0.1182
  387WN      WN  867   2.841   5.102   6.303  0.0370 -0.0662 -0.2317
  388WN      WN  868   1.025   1.295   1.401  0.0397  0.0208  0.1182
  389WN      WN  869   6.038   6.535   4.961 -0.0275  0.0515  0.3141
  390WN      WN  870   3.711   2.551   3.504  0.1035  0.1836 -0.2531
  391WN      WN  871   2.889   6.090   0.675  0.0389 -0.0686  0.0542
  392WN      WN  872   1.557   2.772   5.915  0.1877  0.0751  0.1337
  393WN      WN  873   5.435   5.219   0.619  0.2715 -0.1992  0.0030
  394WN      WN  874   0.432   3.675   5.480 -0.0396 -0.2349 -0.0862
  395WN      WN  875   0.853   1.480   0.854  0.2188  0.0909 -0.3057
  396WN      WN  876   4.881   3.269   3.638  0.1468  0.0461  0.0181
  397WN      WN  877   3.282   6.294   2.758  0.1233  0.2552  0.1599
  398WN      WN  878   3.695   6.460   3.066  0.1126 -0.1934 -0.2135
  399WN      WN  879   3.591   6.104   3.501  0.2876  0.0523 -0.2591
  400WN      WN  880   3.240   3.929   3.663  0.1674  0.0921  0.2901
  401WN      WN  881   2.848   4.585   5.173  0.1436 -0.3574 -0.1378
  402WN      WN  882   0.124   5.241   1.408  0.0082 -0.3723 -0.0755
  403WN      WN  883   1.598   2.138   1.932  0.0516  0.2486  0.0592
  404WN      WN  884   2.319   5.796   0.302 -0.0799  0.0296 -0.3312
  405WN      WN  885   2.228   2.764   3.767 -0.0773  0.0526  0.1224
  406WN      WN  886   5.257   5.766   2.099 -0.0990 -0.1310  0.3008
  407WN      WN  887   1.568   5.856   1.021  0.0655  0.1673  0.3480
  408WN      WN  888   5.900   2.298   4.368  0.1171 -0.0777 -0.2403
  409WN      WN  889   5.645   4.426   3.734 -0.1263  0.0201  0.1408
  410WN      WN  890   5.392   1.956   5.777  0.0581  0.3271 -0.2631
  411WN      WN  891   1.931   1.263   0.212  0.0881 -0.0059  0.1806
  412WN      WN  892   4.704   0.523   6.009 -0.1713 -0.3466 -0.1356
  413WN      WN  893   2.310   4.106   2.054 -0.0459  0.2565 -0.0282
  414WN      WN  894   3.029   1.048   2.021 -0.4432 -0.0252 -0.2745
  415WN      WN  895   1.995   5.026   1.076 -0.3040  0.1004  0.0265
  416WN      WN  896   2.456   4.624   4.795  0.1300  0.0968 -0.1336
  417WN      WN  897   0.012   5.099   2.724 -0.0689 -0.1402 -0.2328
  418WN      WN  898   5.680   3.402   6.181 -0.4808  0.0214 -0.0572
  419WN      WN  899   1.081   6.058   5.493 -0.2340 -0.2945 -0.1906
  420WN      WN  900   1.147   4.504   5.429 -0.0293 -0.1803 -0.2359
  421WN      WN  901   0.260   6.284   5.914  0.0513  0.1604 -0.0627
  422WN      WN  902   4.884   4.736   2.835  0.1076 -0.0360  0.0633
  423WN      WN  903   4.890   5.700   1.677 -0.0338 -0.0096  0.1568
  424WN      WN  904   1.954   5.884   1.909 -0.0793 -0.4998 -0.2718
  425WN      WN  905   2.630   5.563   4.974 -0.0631  0.1966  0.3369
  426WN      WN  906   1.662   3.822   5.452 -0.1281  0.2678 -0.2219
  427WN      WN  907   4.006   4.114   5.749  0.3238  0.2971 -0.1744
  428WN      WN  908   3.274   0.815   1.077  0.1587 -0.3620 -0.3858
  429WN      WN  909   5.610   4.436   3.190  0.2464  0.4146  0.0378
  430WN      WN  910   3.022   5.472   2.470 -0.1864 -0.2209  0.0318
  431WN      WN  911   5.413   1.331   3.127 -0.0418 -0.0953 -0.3352
  432WN      WN  912   0.545   3.223   3.765  0.0141 -0.2294  0.0011
  433WN      WN  913   2.532   1.604   1.891 -0.0810  0.3250 -0.0102
  434WN      WN  914   3.151   3.090   6.216 -0.0249 -0.1570  0.1425
  435WN      WN  915   6.234   3.896   5.061 -0.1431 -0.1833 -0.1066
  436WN      WN  916   3.640   4.737   5.390  0.1011  0.1565 -0.0738
  437WN      WN  917   2.006   0.480   1.029 -0.1462  0.1326  0.0315
  438WN      WN  918   6.406   0.378   1.585 -0.1296  0.0866 -0.1017
  439WN      WN  919   1.547   6.320   2.660  0.0361  0.0311  0.1436
  440WN      WN  920   3.213   2.478   5.036  0.0271  0.0143 -0.0276
  441WN      WN  921   0.545   1.172   0.486  0.3295 -0.1256 -0.0858
  442WN      WN  922   5.184   5.722   5.856  0.3351  0.2454  0.2185
  443WN      WN  923   3.561   5.592   2.536  0.1184  0.3151  0.1858
  444WN      WN  924   5.938   4.647   1.554  0.1959 -0.0386  0.4276
  445WN      WN  925   6.323   1.021   5.967 -0.3686 -0.1423  0.1130
  446WN      WN  926   1.370   1.582   3.778 -0.1135 -0.1662  0.0532
  447WN      WN  927   4.371   1.941   4.009 -0.0968  0.1223 -0.0060
  448WN      WN  928   5.199   3.152   4.221 -0.0421 -0.2417 -0.0218
  449WN      WN  929   4.131   0.596   5.925  0.2273  0.0798 -0.0750
  450WN      WN  930   4.915   0.172   0.311 -0.0990  0.3806 -0.0952
  451WN      WN  931   5.006   1.010   3.534 -0.3388  0.1963  0.1506
  452WN      WN  932   4.047   3.291   6.341 -0.0163 -0.0321  0.0808
  453WN      WN  933   4.548   4.351   2.787  0.0102  0.0988 -0.1919
  454WN      WN  934   4.694   5.061   2.523  0.2345 -0.2879  0.2282
  455WN      WN  935   3.713   6.277   4.259 -0.0749 -0.1330  0.1675
  456WN      WN  936   3.382   4.750   0.528  0.1062 -0.0662 -0.1595
  457WN      WN  937   3.374   3.644   2.997 -0.1095  0.0114  0.4992
  458WN      WN  938   5.897   1.914   5.550  0.1416  0.1261  0.1857
  459WN      WN  939   4.354   4.236   6.057 -0.0784 -0.0858 -0.5378
  460WN      WN  940   2.490   3.035   1.917 -0.3464  0.0133 -0.0514
  461WN      WN  941   5.175   5.300   1.137 -0.2840 -0.1596 -0.1155
  462WN      WN  942   4.849   3.294   0.162 -0.1486 -0.5679 -0.2035
  463WN      WN  943   5.191   0.242   1.270 -0.0249  0.1336 -0.1669
  464WN      WN  944   3.965   3.008   3.744 -0.0838 -0.1547 -0.1479
  465WN      WN  945   0.339   0.923   3.373  0.1207  0.2267  0.3193
  466WN      WN  946   0.315   0.662   2.616  0.1565 -0.1210 -0.0994
  467WN      WN  947   3.612   3.168   4.087  0.0036 -0.0182  0.0338
  468WN      WN  948   3.175   1.077   1.550  0.0314  0.1348  0.0507
  469WN      WN  949   1.263   0.562   0.053 -0.1013  0.2048 -0.1848
  470WN      WN  950   5.184   3.098   3.250 -0.1012  0.2123  0.1525
  471WN      WN  951   6.032   3.691   6.328 -0.4982  0.1170  0.3059
  472WN      WN  952   4.862   2.379   4.437 -0.1805  0.0785  0.1516
  473WN      WN  953   0.764   2.412   5.743 -0.1124  0.1329  0.0026
  474WN      WN  954   0.210   0.643   3.872  0.0552  0.4622 -0.1480
  475WN      WN  955   4.739   0.857   4.367 -0.1939  0.1443  0.1023
  476WN      WN  956   0.530   1.608   4.033  0.2143 -0.0538 -0.2310
  477WN      WN  957   0.198   4.856   1.070  0.0295  0.0548 -0.0145
  478WN      WN  958   6.566   5.046   5.688  0.0138 -0.0999  0.0321
  479WN      WN  959   1.860   5.016   2.706  0.0536 -0.1965  0.3768
  480WN      WN  960   2.845   3.988   3.362  0.4253 -0.2006 -0.1347
  481WN      WN  961   1.484   6.436   0.605  0.2198  0.1265  0.1846
  482WN      WN  962   6.306   2.138   5.796 -0.0291  0.2455  0.3433
  483WN      WN  963   5.292   3.793   0.480 -0.0687  0.0917  0.0879
  484WN      WN  964   5.298   3.688   2.536  0.1235  0.2448 -0.1747
  485WN      WN  965   0.740   6.237   3.184 -0.0129 -0.2793 -0.1459
  486WN      WN  966   4.084   0.666   3.660  0.1056 -0.0640  0.1177
  487WN      WN  967   2.869   3.727   0.071  0.3437  0.1395  0.1389
  488WN      WN  968   2.849   4.973   1.263  0.1829 -0.1366 -0.1941
  489WN      WN  969   4.639   0.100   1.163 -0.0271  0.2608  0.0215
  490WN      WN  970   1.065   4.226   4.143 -0.0432  0.1641  0.1277
  491WN      WN  971   4.982   1.753   2.193  0.2090  0.1382 -0.1086
  492WN      WN  972   3.684   2.588   5.148 -0.0017  0.1695 -0.1608
  493WN      WN  973   3.363   2.641   6.362 -0.1062  0.0126  0.1109
  494WN      WN  974   3.930   0.939   4.686 -0.1112  0.1967 -0.1403
  495WN      WN  975   5.955   3.346   0.502 -0.0908  0.0586 -0.0803
  496WN      WN  976   1.932   6.399   5.208  0.2073 -0.0185  0.1730
  497WN      WN  977   5.341   0.001   2.328 -0.2453  0.2636 -0.1820
  498WN      WN  978   0.983   2.512   2.575 -0.0502 -0.2416 -0.3312
  499WN      WN  979   2.666   3.987   5.259 -0.3377 -0.1368 -0.1708
  500WN      WN  980   0.768   0.630   3.631  0.0354 -0.1387  0.0177
  501WN      WN  981   1.657   3.352   2.349 -0.2628  0.0883 -0.1685
  502WN      WN  982   4.619   1.563   1.824  0.1205  0.4986 -0.4281
  503WN      WN  983   4.930   4.122   2.458 -0.4776  0.0953 -0.1347
  504WN      WN  984   5.694   4.417   5.837  0.3059  0.3142 -0.2470
  505WN      WN  985   4.829   4.925   1.909 -0.0535  0.3821  0.0411
  506WN      WN  986   0.505   2.731   5.273  0.3043 -0.2257 -0.1308
  507WN      WN  987   4.056   2.310   5.353  0.0114  0.1326 -0.0977
  508WN      WN  988   6.154   1.624   4.784  0.1235 -0.1101 -0.2391
  509WN      WN  989   0.085   2.538   0.340 -0.0334  0.1608  0.1045
  510WN      WN  990   5.739   3.991   0.692 -0.2792 -0.1611 -0.2221
  511WN      WN  991   1.636   1.158   3.413 -0.0092  0.0519 -0.2699
  512WN      WN  992   5.788   3.988   6.032  0.3562  0.1091 -0.0511
  513WN      WN  993   1.488   4.312   1.120 -0.3294 -0.1388 -0.2175
  514WN      WN  994   5.597   4.391   5.349 -0.0689 -0.1661  0.1240
  515WN      WN  995   6.558   3.239   3.479  0.0409  0.1409 -0.1582
  516WN      WN  996   1.830   6.384   1.559  0.0338 -0.2364  0.2380
  517WN      WN  997   5.740   4.818   4.542 -0.0035  0.1809 -0.2377
  518WN      WN  998   0.159   0.448   2.182 -0.1839  0.0540 -0.0327
  519WN      WN  999   4.376   5.041   0.551  0.0830  0.1797  0.1905
  520WN      WN 1000   0.950   1.844   3.887  0.0743 -0.0669  0.2188
  521WN      WN 1001   3.415   5.748   1.304 -0.0890  0.2131 -0.1445
  522WN      WN 1002   2.639   5.442   4.500 -0.2978 -0.4011  0.2534
  523WN      WN 1003   1.932   1.937   2.914 -0.0044 -0.1459  0.0047
  524WN      WN 1004   3.191   5.545   6.388  0.3366  0.0172  0.1698
  525WN      WN 1005   3.455   1.950   5.251  0.0721 -0.1489  0.3361
  526WN      WN 1006   4.747   1.852   3.748  0.1544 -0.0416 -0.1251
  527WN      WN 1007   3.258   6.565   0.495  0.2666 -0.5700  0.2933
  528WN      WN 1008   5.673   2.930   2.833 -0.0955  0.3027  0.0237
  529WN      WN 1009   0.555   4.429   1.009  0.0574  0.4420 -0.1641
  530WN      WN 1010   2.315   4.243   5.056 -0.1447 -0.0907 -0.0801
  531WN      WN 1011   3.191   5.413   1.734 -0.1127 -0.5779  0.3801
  532WN      WN 1012   5.058   0.411   2.195  0.1297  0.3710 -0.0330
  533WN      WN 1013   0.408   2.837   2.971 -0.1721 -0.0172  0.1170
  534WN      WN 1014   2.967   5.099   2.067 -0.2450  0.1631 -0.0588
  535WN      WN 1015   2.950   0.061   0.830  0.1213 -0.0283  0.1122
  536WN      WN 1016   3.421   5.261   2.175 -0.2686 -0.0679  0.1132
  537WN      WN 1017   1.456   3.089   3.287 -0.1868  0.0829  0.2827
  538WN      WN 1018   0.341   3.341   2.674 -0.0386 -0.3629  0.2459
  539WN      WN 1019   3.346   1.245   4.282  0.1191 -0.2521 -0.2105
  540WN      WN 1020   2.778   1.446   1.500 -0.0776 -0.0613 -0.0273
  541WN      WN 1021   5.845   0.300   3.650  0.1664  0.1390  0.1509
  542WN      WN 1022   0.643   1.424   1.888 -0.2625  0.2273  0.1227
  543WN      WN 1023   2.724   0.193   4.425  0.0050  0.2875 -0.0293
  544WN      WN 1024   1.124   0.683   2.116  0.2860 -0.2445 -0.0353
  545WN      WN 1025   2.364   5.308   3.242 -0.1675 -0.0212 -0.0704
  546WN      WN 1026   4.259   4.363   3.670  0.0672 -0.4015 -0.0188
  547WN      WN 1027   3.790   0.262   3.409 -0.0570  0.0467 -0.1981
  548WN      WN 1028   1.308   5.256   5.870  0.0604 -0.5277 -0.0804
  549WN      WN 1029   0.423   4.817   5.875 -0.0820  0.2945 -0.0231
  550WN      WN 1030   3.285   6.179   0.977  0.1298  0.0479 -0.4390
  551WN      WN 1031   2.815   3.556   6.003  0.0487 -0.2901  0.0423
  552WN      WN 1032   0.080   2.417   0.829 -0.1488  0.3252  0.3406
  553WN      WN 1033   6.503   2.898   3.110  0.3244  0.1709  0.0574
  554WN      WN 1034   2.429   2.856   5.334 -0.0893 -0.2472  0.3196
  555WN      WN 1035   1.108   5.355   5.434  0.0705 -0.0626 -0.0434
  556WN      WN 1036   0.389   4.612   3.647 -0.1167 -0.1010 -0.0616
  557WN      WN 1037   3.275   5.978   4.303 -0.1461  0.2810  0.0584
  558WN      WN 1038   5.170   5.634   2.669  0.1820  0.1747 -0.0550
  559WN      WN 1039   2.613   3.932   6.218  0.1330  0.1086 -0.1753
  560WN      WN 1040   2.306   2.193   1.428  0.0433  0.0725 -0.3280
  561WN      WN 1041   5.347   6.295   3.720  0.1407 -0.0567  0.3570
  562WN      WN 1042   5.082   0.469   3.407 -0.1664 -0.0448 -0.0725
  563WN      WN 1043   3.743   0.762   3.272 -0.0394 -0.1590 -0.0447
  564WN      WN 1044   4.168   3.353   0.667 -0.0577 -0.1748  0.4801
  565WN      WN 1045   1.277   1.150   0.968 -0.0757 -0.0821  0.0275
  566WN      WN 1046   4.247   2.680   3.579 -0.0367  0.1068 -0.0109
  567WN      WN 1047   4.253   2.260   5.808 -0.0155 -0.2094  0.0453
  568WN      WN 1048   5.673   0.179   1.589  0.0547  0.0293 -0.2002
  569WN      WN 1049   5.598   2.981   2.312  0.3846  0.1299  0.1128
  570WN      WN 1050   3.289   0.485   5.520 -0.3584 -0.1127 -0.1466
  571WN      WN 1051   3.294   0.168   2.553  0.1239  0.0918  0.0677
  572WN      WN 1052   3.641   4.569   4.641 -0.0333  0.1566 -0.2598
  573WN      WN 1053   6.471   0.733   5.227  0.0915  0.0243  0.0780
  574WN      WN 1054   4.852   5.168   5.573  0.1047  0.0327  0.2122
  575WN      WN 1055   2.604   5.675   0.665  0.0221  0.1863  0.3471
  576WN      WN 1056   3.006   0.545   0.621 -0.4193  0.0953 -0.2734
  577WN      WN 1057   5.018   0.231   5.730 -0.4837  0.3740  0.1799
  578WN      WN 1058   0.301   0.545   1.735 -0.1609 -0.2575 -0.2766
  579WN      WN 1059   5.695   2.235   2.904  0.2482  0.1273  0.0973
  580WN      WN 1060   4.771   4.260   5.727  0.1493  0.1319  0.0518
  581WN      WN 1061   1.297   3.681   2.116  0.1499 -0.1282 -0.0811
  582WN      WN 1062   0.335   3.462   6.334  0.3917 -0.0303  0.0067
  583WN      WN 1063   1.441   0.846   2.512  0.0107  0.1004 -0.0965
  584WN      WN 1064   2.655   5.313   1.575 -0.0190 -0.2805  0.1396
  585WN      WN 1065   5.635   0.019   6.155  0.2657 -0.0676 -0.1228
  586WN      WN 1066   2.991   1.666   0.850  0.0220 -0.1627  0.0627
  587WN      WN 1067   3.663   3.522   6.058 -0.1632 -0.1413  0.0304
  588WN      WN 1068   5.467   3.522   2.028 -0.1388  0.2144 -0.0429
  589WN      WN 1069   4.297   1.652   4.876  0.0283  0.0966 -0.2716
  590WN      WN 1070   4.374   0.744   4.753 -0.1477  0.0273  0.2519
  591WN      WN 1071   4.420   3.741   2.935 -0.2249 -0.2401  0.1141
  592WN      WN 1072   6.389   0.501   2.555  0.0689 -0.2012 -0.0175
  593WN      WN 1073   0.839   0.963   0.866  0.2043  0.1550 -0.3332
  594WN      WN 1074   1.942   4.662   3.920  0.1678  0.2037 -0.2941
  595WN      WN 1075   4.857   5.535   3.235 -0.5547  0.0660 -0.1990
  596WN      WN 1076   1.233   5.275   4.257 -0.1317  0.1169 -0.0058
  597WN      WN 1077   3.945   0.568   1.643 -0.0143  0.2321  0.2263
  598WN      WN 1078   2.881   5.711   4.083  0.1286  0.4513  0.3139
  599WN      WN 1079   1.944   2.218   4.699  0.2887  0.0526  0.0673
  600WN      WN 1080   4.457   4.020   1.203  0.0418 -0.2911 -0.3389
  601WN      WN 1081   5.837   0.302   4.574 -0.2224 -0.1187  0.1032
  602WN      WN 1082   3.987   1.753   6.381  0.1789  0.1947  0.0922
  603WN      WN 1083   1.126   0.151   0.377  0.1263  0.0761 -0.0957
  604WN      WN 1084   2.621   1.024   3.284 -0.0957 -0.1057 -0.1569
  605WN      WN 1085   3.066   5.829   5.914  0.1594  0.0565  0.0856
  606WN      WN 1086   5.795   5.458   5.364 -0.0556 -0.1270  0.0083
  607WN      WN 1087   5.008   5.483   0.574 -0.0108  0.0640 -0.0108
  608WN      WN 1088   1.381   5.528   4.657 -0.0111  0.2337  0.2897
  609WN      WN 1089   0.589   1.551   2.379  0.0171  0.0398 -0.2667
  610WN      WN 1090   2.381   1.284   5.518  0.1337  0.1518  0.2353
  611WN      WN 1091   3.392   2.671   3.897 -0.1057  0.1372  0.0038
  612WN      WN 1092   6.429   1.759   2.448 -0.1162 -0.2005  0.2037
  613WN      WN 1093   3.169   4.421   5.549  0.1641  0.3074  0.0206
  614WN      WN 1094   3.815   5.168   6.287  0.2482 -0.2179 -0.0840
  615WN      WN 1095   0.749   0.572   4.159 -0.0303 -0.1707 -0.0976
  616WN      WN 1096   6.092   2.060   3.461 -0.1376 -0.1016 -0.1561
  617WN      WN 1097   3.762   4.905   2.900  0.2706 -0.1181 -0.0692
  618WN      WN 1098   5.948   1.441   2.335 -0.0577  0.1231  0.0881
  619WN      WN 1099   3.978   3.545   4.979 -0.3746  0.1985 -0.0060
  620WN      WN 1100   4.882   4.914   3.421 -0.0504  0.1173  0.3046
  621WN      WN 1101   3.155   4.776   3.063  0.0460  0.1757 -0.3254
  622WN      WN 1102   4.106   4.762   6.157 -0.2747 -0.1545 -0.2720
  623WN      WN 1103   6.427   0.928   1.709  0.0501 -0.1536 -0.3357
  624WN      WN 1104   2.750   5.319   0.339  0.2421  0.2818 -0.0426
  625WN      WN 1105   1.126   2.996   6.478  0.0883  0.1847 -0.1685
  626WN      WN 1106   2.231   5.329   0.417  0.0411 -0.0210 -0.3393
  627WN      WN 1107   2.593   6.040   3.829 -0.0718 -0.2179 -0.1269
  628WN      WN 1108   4.740   1.289   4.716 -0.0926  0.0598  0.3709
  629WN      WN 1109   3.779   0.141   1.265 -0.1214  0.0080  0.4406
  630WN      WN 1110   1.985   2.606   5.498 -0.2699  0.0855  0.4072
  631WN      WN 1111   3.047   2.651   5.965 -0.2496  0.1275 -0.3221
  632WN      WN 1112   4.889   3.938   3.583 -0.0683  0.2541 -0.2990
  633WN      WN 1113   0.193   1.032   4.316  0.1296 -0.1117  0.1994
  634WN      WN 1114   6.475   2.093   5.251 -0.3900 -0.1270  0.1440
  635WN      WN 1115   5.131   1.374   5.177 -0.2929  0.0187 -0.1471
  636WN      WN 1116   3.520   5.002   3.876 -0.4677  0.0249  0.3067
  637WN      WN 1117   4.452   3.902   5.672  0.3389 -0.3213  0.0883
  638WN      WN 1118   6.157   0.746   6.329  0.2260 -0.2173  0.0340
  639WN      WN 1119   1.737   0.825   0.100  0.1994  0.2448  0.3703
  640WN      WN 1120   5.911   4.002   4.582  0.0951 -0.1150 -0.0764
  641WN      WN 1121   1.099   0.451   5.355 -0.0829  0.0111  0.3765
  642WN      WN 1122   2.219   0.445   6.074  0.2349  0.2410 -0.1875
  643WN      WN 1123   1.132   5.612   1.073 -0.0616  0.1674 -0.1807
  644WN      WN 1124   1.258   1.637   6.564  0.0357 -0.0003  0.1349
  645WN      WN 1125   1.146   0.301   4.435  0.3388 -0.0899 -0.3754
  646WN      WN 1126   1.889   2.935   2.522 -0.2009  0.1337 -0.0395
  647WN      WN 1127   4.588   3.828   1.650 -0.2184  0.0387 -0.1057
  648WN      WN 1128   4.403   4.588   1.766  0.4161  0.3982  0.1973
  649WN      WN 1129   2.164   1.132   4.017  0.5268 -0.2486 -0.0892
  650WN      WN 1130   5.291   4.844   3.149  0.0694  0.3946  0.0859
  651WN      WN 1131   4.888   1.122   5.605  0.4803  0.1353 -0.0633
  652WN      WN 1132   6.391   4.107   2.929 -0.0570 -0.1179 -0.0578
  653WN      WN 1133   6.367   6.142   2.592  0.0488  0.0028  0.1755
  654WN      WN 1134   0.988   2.751   4.294 -0.0636  0.1141 -0.1616
  655WN      WN 1135   0.372   1.975   3.705 -0.0882  0.0905  0.4621
  656WN      WN 1136   1.564   0.507   2.082 -0.1247 -0.4868  0.1232
  657WN      WN 1137   0.398   1.126   2.620  0.0890  0.2461 -0.0847
  658WN      WN 1138   5.664   6.559   4.113 -0.0763  0.0295  0.1856
  659WN      WN 1139   1.468   3.498   1.122 -0.1414  0.2003 -0.0952
  660WN      WN 1140   5.459   1.820   3.196 -0.2845 -0.0052 -0.0758
  661WN      WN 1141   5.790   6.094   1.251 -0.1356 -0.0636 -0.1304
  662WN      WN 1142   0.691   6.340   0.919  0.0091  0.0228 -0.1778
  663WN      WN 1143   0.776   0.096   3.897 -0.0193 -0.0461 -0.0085
  664WN      WN 1144   5.563   2.708   1.757 -0.0046  0.0556  0.0842
  665WN      WN 1145   5.105   6.156   1.758 -0.2466  0.0252  0.4929
  666WN      WN 1146   2.833   6.169   5.110  0.0067 -0.2622  0.0369
  667WN      WN 1147   6.389   3.615   5.400  0.2235  0.0514  0.1149
  668WN      WN 1148   5.009   3.084   6.236  0.0108 -0.0836  0.0413
  669WN      WN 1149   1.211   1.720   2.342  0.2815 -0.1411 -0.2665
  670WN      WN 1150   0.420   1.632   0.228 -0.0877 -0.2709  0.2668
  671WN      WN 1151   1.189   2.768   3.788 -0.0300  0.0147 -0.2405
  672WN      WN 1152   1.995   3.536   3.360  0.1507 -0.1017  0.2937
  673WN      WN 1153   2.104   5.379   2.294 -0.0625 -0.0757 -0.1409
  674WN      WN 1154   6.259   5.580   2.738 -0.1086  0.0546  0.0327
  675WN      WN 1155   1.189   4.624   4.405  0.1220 -0.1322 -0.1785
  676WN      WN 1156   3.063   4.765   3.992 -0.1139  0.0596 -0.0087
  677WN      WN 1157   2.341   0.089   3.208 -0.3199  0.1348  0.5387
  678WN      WN 1158   2.394   1.798   5.466 -0.2036  0.1485 -0.0359
  679WN      WN 1159   1.326   4.223   1.644  0.1731 -0.0815  0.0447
  680WN      WN 1160   0.271   2.159   6.115  0.0708  0.1139  0.2506
  681WN      WN 1161   5.473   4.067   1.133 -0.0837  0.2339  0.3323
  682WN      WN 1162   3.614   5.678   5.537  0.1716 -0.0383  0.0425
  683WN      WN 1163   5.404   5.790   4.468  0.3732  0.1285  0.1395
  684WN      WN 1164   1.414   5.260   3.690  0.0827 -0.1872 -0.0273
  685WN      WN 1165   4.053   3.879   3.655  0.1680  0.1510 -0.3949
  686WN      WN 1166   1.259   1.582   0.505 -0.1933 -0.1590 -0.0844
  687WN      WN 1167   5.305   4.077   5.731  0.1067  0.0864 -0.3886
  688WN      WN 1168   5.200   4.133   5.266  0.0313 -0.1518  0.3195
  689WN      WN 1169   1.222   3.114   2.402  0.4652 -0.0363 -0.0254
  690WN      WN 1170   1.418   6.509   3.913 -0.0669  0.0639 -0.1210
  691WN      WN 1171   0.256   4.222   6.158  0.1788 -0.0568 -0.1011
  692WN      WN 1172   0.068   1.011   0.257 -0.2722  0.3014  0.3509
  693WN      WN 1173   1.104   5.403   3.386  0.3691  0.0094  0.0102
  694WN      WN 1174   2.228   6.295   2.012 -0.0227  0.1755 -0.1088
  695WN      WN 1175   2.738   3.165   2.402 -0.1534  0.0603  0.1301
  696WN      WN 1176   1.513   2.102   2.572  0.0962 -0.0699 -0.3946
  697WN      WN 1177   4.257   4.400   5.385  0.0306  0.1160  0.1204
  698WN      WN 1178   1.274   5.562   0.109 -0.0720  0.2285 -0.1652
  699WN      WN 1179   5.238   5.294   4.185  0.1876  0.1946  0.2033
  700WN      WN 1180   5.733   6.140   5.965 -0.1963  0.0394  0.1590
  701WN      WN 1181   0.554   0.547   6.043  0.0408 -0.0736  0.0886
  702WN      WN 1182   6.551   5.846   4.910 -0.2186 -0.2368 -0.1536
  703WN      WN 1183   3.651   1.282   5.991 -0.1902  0.2935  0.1479
  704WN      WN 1184   4.887   0.436   0.717  0.2413  0.0142  0.1888
  705WN      WN 1185   0.809   1.442   6.192  0.0719  0.2414  0.0573
  706WN      WN 1186   2.939   5.509   1.208 -0.1107 -0.2558 -0.2600
  707WN      WN 1187   6.385   6.110   3.648 -0.1000 -0.0609  0.1516
  708WN      WN 1188   4.348   4.767   3.985 -0.1593 -0.0439  0.2574
  709WN      WN 1189   3.764   3.924   2.154 -0.2333 -0.1770  0.0652
  710WN      WN 1190   3.152   4.675   4.572 -0.1089  0.1538 -0.2784
  711WN      WN 1191   4.376   0.260   1.600  0.0158 -0.2999 -0.2679
  712WN      WN 1192   3.721   6.424   0.785 -0.1471 -0.0705 -0.0620
  713WN      WN 1193   2.303   5.098   4.670  0.0934 -0.1773 -0.2124
  714WN      WN 1194   4.317   0.395   0.351  0.0188 -0.1515  0.1061
  715WN      WN 1195   5.275   2.500   2.622  0.1519 -0.1098  0.2063
  716WN      WN 1196   2.372   4.291   3.084 -0.4638  0.0490 -0.2072
  717WN      WN 1197   3.992   2.896   0.782 -0.3304  0.3953 -0.0357
  718WN      WN 1198   3.171   3.968   5.226  0.4085 -0.0074 -0.0940
  719WN      WN 1199   1.852   4.482   6.351  0.0161 -0.0314 -0.1456
  720WN      WN 1200   4.721   0.201   3.733  0.0340  0.1632 -0.1312
  721WN      WN 1201   0.611   5.087   6.469 -0.3769 -0.0924  0.1715
  722WN      WN 1202   4.657   6.421   1.590  0.1003  0.1009 -0.2357
  723WN      WN 1203   4.321   0.598   1.206  0.2527  0.0439  0.0319
  724WN      WN 1204   3.129   6.411   4.733 -0.4189 -0.2380 -0.0949
  725WN      WN 1205   5.509   5.636   3.937  0.2527 -0.1464  0.1717
  726WN      WN 1206   6.096   0.120   1.933  0.1926 -0.0642 -0.1590
  727WN      WN 1207   2.964   4.006   5.822  0.0629  0.0951  0.2917
  728WN      WN 1208   4.551   2.253   3.493  0.0962  0.2594 -0.1228
  729WN      WN 1209   4.372   1.199   4.347 -0.1615 -0.0555 -0.0557
  730WN      WN 1210   6.116   5.200   4.387 -0.1452  0.3572 -0.2778
  731WN      WN 1211   3.788   3.684   5.460 -0.0429  0.0865 -0.3184
  732WN      WN 1212   0.919   3.049   5.244  0.0908 -0.1375  0.2161
  733WN      WN 1213   3.873   4.415   5.043 -0.0026 -0.1832 -0.2411
  734WN      WN 1214   3.302   4.865   5.044  0.1059  0.0347 -0.1170
  735WN      WN 1215   0.078   5.399   3.180 -0.0476 -0.1243 -0.0958
  736WN      WN 1216   4.714   2.618   4.904 -0.1671  0.0963 -0.0584
  737WN      WN 1217   5.517   6.507   3.251  0.1969  0.1486 -0.0490
  738WN      WN 1218   5.158   4.143   3.995  0.3560 -0.2488  0.2156
  739WN      WN 1219   3.039   2.283   4.009 -0.2474  0.0023  0.2279
  740WN      WN 1220   5.025   1.590   6.157 -0.1128 -0.1305 -0.3666
  741WN      WN 1221   2.049   0.724   4.675 -0.0517 -0.0470 -0.1281
  742WN      WN 1222   3.087   1.362   3.576  0.1948 -0.1796 -0.5166
  743WN      WN 1223   0.588   0.146   4.383  0.1164 -0.3402  0.0010
  744WN      WN 1224   4.227   5.865   0.873  0.2284  0.2565 -0.0267
  745WN      WN 1225   0.171   2.383   2.325  0.1874 -0.4352 -0.0988
  746WN      WN 1226   5.410   3.149   3.796 -0.0343 -0.1940  0.0972
  747WN      WN 1227   1.621   1.698   3.255  0.0462  0.0913 -0.2676
  748WN      WN 1228   3.730   4.391   0.993  0.0332 -0.0363  0.0299
  749WN      WN 1229   4.445   1.571   6.474  0.0040  0.1749  0.1020
  750WN      WN 1230   2.640   5.145   5.468  0.0401 -0.2854 -0.1729
  751WN      WN 1231   3.444   6.378   2.189 -0.1749  0.2652 -0.2170
  752WN      WN 1232   0.215   5.712   1.209 -0.0303 -0.1069 -0.1903
  753WN      WN 1233   2.214   4.073   1.184 -0.0298  0.2372  0.1101
  754WN      WN 1234   0.889   4.944   4.218 -0.0127  0.3079  0.0025
  755WN      WN 1235   5.084   0.307   6.348  0.1669 -0.0201 -0.2354
  756WN      WN 1236   4.884   3.551   6.242  0.0348  0.4801 -0.0281
  757WN      WN 1237   6.068   5.684   4.999  0.1688 -0.2869  0.1321
  758WN      WN 1238   2.234   1.118   2.572  0.2538 -0.0244 -0.0766
  759WN      WN 1239   4.964   6.337   6.538  0.0414 -0.0777  0.0870
  760WN      WN 1240   4.079   1.732   5.914 -0.0272 -0.2030 -0.1249
  761WN      WN 1241   1.949   4.480   4.730  0.0339 -0.0239 -0.3402
  762WN      WN 1242   5.776   6.205   6.449 -0.3814 -0.0550 -0.0089
  763WN      WN 1243   3.827   4.989   2.423 -0.2239 -0.0625  0.1642
  764WN      WN 1244   1.459   1.453   5.711  0.0407  0.2713  0.2740
  765WN      WN 1245   5.719   5.062   3.089  0.0939  0.2472 -0.1674
  766WN      WN 1246   4.717   2.409   5.688 -0.0753  0.1735  0.3059
  767WN      WN 1247   5.034   4.359   3.217  0.1881 -0.0140 -0.0073
  768WN      WN 1248   4.517   2.998   3.834 -0.0318 -0.3564  0.0455
  769WN      WN 1249   0.017   6.539   4.438 -0.1182  0.0782  0.0987
  770WN      WN 1250   0.266   6.539   0.737  0.1385 -0.1071  0.1491
  771WN      WN 1251   0.440   3.183   4.234  0.0091 -0.2689  0.0203
  772WN      WN 1252   5.899   5.992   2.627 -0.1425 -0.1530 -0.0996
  773WN      WN 1253   1.446   5.004   0.155 -0.0231  0.1917 -0.1074
  774WN      WN 1254   6.370   5.446   5.988  0.0600 -0.0152  0.0815
  775WN      WN 1255   0.914   4.807   6.052  0.0883 -0.1824  0.1959
  776WN      WN 1256   3.318   1.752   3.326  0.2161  0.1292  0.1762
  777WN      WN 1257   1.964   3.284   2.923 -0.1955 -0.1137 -0.1200
  778WN      WN 1258   2.381   3.683   1.481  0.0034 -0.1303 -0.0533
  779WN      WN 1259   0.795   3.234   4.600  0.1923  0.0494 -0.1821
  780WN      WN 1260   1.992   4.045   3.205 -0.2105  0.0148  0.1251
  781WN      WN 1261   2.150   4.387   1.711  0.3773 -0.0015  0.2992
  782WN      WN 1262   4.016   0.133   6.484 -0.4380  0.1277 -0.0231
  783WN      WN 1263   1.084   1.332   2.053 -0.3684 -0.2133 -0.2674
  784WN      WN 1264   3.733   6.292   6.328  0.1559 -0.0922 -0.1416
  785WN      WN 1265   3.438   3.647   4.272 -0.2179  0.1626  0.1338
  786WN      WN 1266   2.910   0.468   1.142 -0.2595 -0.1791  0.2567
  787WN      WN 1267   5.089   2.764   3.938  0.2850  0.2719 -0.0953
  788WN      WN 1268   5.323   1.277   0.016 -0.0319 -0.2165 -0.0684
  789WN      WN 1269   0.927   5.400   2.590  0.1720  0.0810  0.0457
  790WN      WN 1270   1.977   3.997   4.715  0.0405  0.0845  0.2167
  791WN      WN 1271   5.511   4.553   1.319  0.2845  0.0355  0.1525
  792WN      WN 1272   0.609   5.655   2.227 -0.0857 -0.1039 -0.2698
  793WN      WN 1273   0.241   4.692   5.423  0.0943 -0.0614 -0.3262
  794WN      WN 1274   2.466   4.196   0.722 -0.0277  0.0079 -0.0464
  795WN      WN 1275   2.458   3.803   5.699  0.5079 -0.3339 -0.0522
  796WN      WN 1276   5.101   5.874   1.184 -0.0208  0.0663 -0.2460
  797WN      WN 1277   4.581   5.477   1.962  0.1380  0.1976  0.0876
  798WN      WN 1278   5.655   0.864   0.159  0.2418 -0.1619  0.0243
  799WN      WN 1279   4.582   4.569   6.355  0.2009  0.2724 -0.0246
  800WN      WN 1280   4.528   1.837   2.363 -0.1194  0.1197  0.1806
  801WN      WN 1281   1.831   3.546   1.519  0.0566  0.0230 -0.0953
  802WN      WN 1282   3.723   3.994   3.181 -0.1802 -0.0724  0.0664
  803WN      WN 1283   1.954   1.541   2.570 -0.0817  0.1137 -0.2154
  804WN      WN 1284   5.374   6.463   5.572 -0.0450 -0.2581 -0.3324
  805WN      WN 1285   2.159   2.711   1.514  0.1927  0.4710 -0.1327
  806WN      WN 1286   5.118   0.302   2.858 -0.0475  0.0718 -0.0326
  807WN      WN 1287   5.353   2.654   5.126  0.0001  0.3006 -0.0768
  808WN      WN 1288   3.280   5.836   2.117  0.0660  0.0637 -0.5025
  809WN      WN 1289   5.467   5.623   0.307  0.1599 -0.0487  0.1195
  810WN      WN 1290   5.921   0.377   5.933  0.0570  0.5572  0.2325
  811WN      WN 1291   5.709   1.819   4.470 -0.1024 -0.3316  0.2406
  812WN      WN 1292   4.770   5.144   0.932  0.0493  0.4841  0.2013
  813WN      WN 1293   1.503   2.834   5.311 -0.2166  0.0987  0.6047
  814WN      WN 1294   5.331   0.033   0.598 -0.0892  0.1327  0.2632
  815WN      WN 1295   1.037   3.443   3.059 -0.1271 -0.0520 -0.0362
  816WN      WN 1296   0.185   1.450   5.903 -0.2657  0.2196 -0.3325
  817WN      WN 1297   4.447   0.308   4.523 -0.2607 -0.3514  0.1084
  818WN      WN 1298   2.158   3.024   6.052 -0.0937  0.1702 -0.1216
  819WN      WN 1299   1.501   1.386   1.455 -0.0184  0.1711  0.0561
  820WN      WN 1300   5.541   5.021   5.498 -0.0536 -0.1245 -0.0610
  821WN      WN 1301   5.846   2.310   5.829  0.3789 -0.0877 -0.0859
  822WN      WN 1302   0.213   3.187   5.612 -0.1791 -0.1916 -0.0481
  823WN      WN 1303   3.241   1.517   5.111  0.1065  0.0337 -0.0145
  824WN      WN 1304   1.400   1.157   6.562  0.0322 -0.0650  0.1258
  825WN      WN 1305   1.075   2.678   6.087 -0.2032  0.1879 -0.0264
  826WN      WN 1306   1.921   1.968   2.324  0.1359  0.2087  0.1148
  827WN      WN 1307   0.401   0.711   5.537  0.0183 -0.0964 -0.0569
  828WN      WN 1308   3.206   3.400   3.940 -0.1609 -0.1687  0.1871
  829WN      WN 1309   0.209   5.493   1.993 -0.0056  0.0119  0.0251
  830WN      WN 1310   3.682   0.236   4.402 -0.3660 -0.1416 -0.0374
  831WN      WN 1311   4.547   0.981   1.498 -0.4267 -0.0943 -0.0606
  832WN      WN 1312   6.389   4.699   3.738 -0.1596  0.1311  0.2129
  833WN      WN 1313   0.807   1.941   5.960  0.1398  0.1913 -0.0222
  834WN      WN 1314   1.236   5.853   3.692 -0.2162  0.0558 -0.0106
  835WN      WN 1315   2.157   1.037   3.508  0.1536  0.0173  0.1101
  836WN      WN 1316   2.851   1.330   4.095  0.1573 -0.1637  0.0527
  837WN      WN 1317   2.034   5.769   3.207 -0.1900  0.0530 -0.2361
  838WN      WN 1318   4.551   0.944   2.618 -0.0741  0.0970  0.2054
  839WN      WN 1319   3.835   3.160   3.220  0.2941  0.1421  0.3356
  840WN      WN 1320   5.208   1.000   0.618 -0.0276 -0.0448  0.0379
  841WN      WN 1321   6.043   1.300   1.554 -0.1093  0.0008  0.0061
  842WN      WN 1322   5.638   1.018   1.544 -0.0599 -0.0686  0.2572
  843WN      WN 1323   3.028   2.134   3.061 -0.1415 -0.1187  0.1433
  844WN      WN 1324   2.407   5.693   2.866  0.3520  0.0107 -0.2029
  845WN      WN 1325   0.718   4.507   4.411 -0.2816 -0.0723 -0.1828
  846WN      WN 1326   3.914   1.800   3.961 -0.0147 -0.2871  0.2542
  847WN      WN 1327   2.200   0.118   1.771 -0.0501 -0.0853  0.0316
  848WN      WN 1328   3.156   2.628   3.092  0.1677  0.0214  0.1180
  849WN      WN 1329   4.296   5.705   4.584 -0.1589  0.0963  0.1238
  850WN      WN 1330   2.882   6.201   4.219 -0.0980 -0.2650 -0.0840
  851WN      WN 1331   3.906   6.328   3.752  0.1340  0.2646 -0.0126
  852WN      WN 1332   2.573   1.426   2.349 -0.3455 -0.2986 -0.1438
  853WN      WN 1333   3.589   2.945   6.012  0.1780 -0.0986  0.0279
  854WN      WN 1334   2.362   6.058   5.148  0.3889 -0.0512  0.0268
  855WN      WN 1335   0.857   0.906   1.714 -0.3741  0.2829 -0.1911
  856WN      WN 1336   2.136   0.852   1.854  0.1064  0.0827  0.0520
  857WN      WN 1337   4.943   3.080   4.981 -0.1090  0.0629 -0.1256
  858WN      WN 1338   2.277   0.707   5.276  0.2235 -0.1427  0.0513
  859WN      WN 1339   3.138   5.416   4.641 -0.0010 -0.0657 -0.1093
  860WN      WN 1340   0.076   4.381   0.949  0.1974  0.1806 -0.5191
  861WN      WN 1341   2.144   3.701   5.296  0.1406 -0.1109 -0.0265
  862WN      WN 1342   1.952   4.939   5.012 -0.1435 -0.1045  0.1454
  863WN      WN 1343   3.167   0.876   3.969  0.0923 -0.2245 -0.0119
  864WN      WN 1344   6.320   1.403   2.013 -0.1426 -0.0153  0.2402
  865WN      WN 1345   0.118   1.635   5.389 -0.2548 -0.1160 -0.2314
  866WN      WN 1346   0.264   5.090   0.632 -0.2363 -0.4592 -0.0424
  867WN      WN 1347   2.361   4.711   2.624  0.0406  0.0807  0.2060
  868WN      WN 1348   0.647   5.807   5.836  0.1446 -0.3159 -0.1096
  869WN      WN 1349   4.193   2.953   0.123 -0.3178 -0.3035  0.1332
  870WN      WN 1350   0.916   5.499   3.957  0.4488 -0.0304  0.4986
  871WN      WN 1351   2.685   0.275   2.027  0.1770  0.3069  0.1834
  872WN      WN 1352   4.401   4.322   4.871  0.0638 -0.2023 -0.1130
  873WN      WN 1353   1.265   5.998   3.227 -0.0477 -0.0288  0.1512
  874WN      WN 1354   2.716   1.940   4.310 -0.0419 -0.1071  0.0211
  875WN      WN 1355   1.437   0.360   0.905 -0.0104  0.4313 -0.0237
  876WN      WN 1356   3.390   4.382   5.022 -0.1246 -0.0296 -0.0968
  877WN      WN 1357   3.298   2.017   0.529  0.0629  0.2226  0.1799
  878WN      WN 1358   5.095   1.490   4.451 -0.2277 -0.0518  0.1667
  879WN      WN 1359   6.543   0.025   3.871 -0.2111  0.2036  0.1495
  880WN      WN 1360   4.084   2.250   3.763  0.0168 -0.1544  0.1556
  881WN      WN 1361   2.871   1.400   6.395  0.2640  0.1252  0.0398
  882WN      WN 1362   2.913   4.320   3.774  0.0143  0.2084 -0.0380
  883WN      WN 1363   0.626   4.872   1.340  0.1581  0.2353  0.2778
  884WN      WN 1364   1.226   5.330   0.661 -0.2584  0.2272 -0.1009
  885WN      WN 1365   3.787   5.429   3.023  0.3653  0.2686  0.0584
  886WN      WN 1366   5.582   0.992   5.094 -0.2195 -0.1269 -0.0547
  887WN      WN 1367   5.484   3.312   0.397 -0.2856  0.2023 -0.3983
  888WN      WN 1368   3.671   5.658   0.052 -0.0737 -0.0567  0.1646
  889WN      WN 1369   6.557   0.924   2.858  0.1298 -0.2625 -0.0922
  890WN      WN 1370   1.429   4.989   5.239 -0.0680 -0.0774 -0.0470
  891WN      WN 1371   5.375   5.451   3.206  0.0647  0.0846  0.3614
  892WN      WN 1372   4.501   6.457   4.277 -0.1653  0.0300  0.0245
  893WN      WN 1373   4.859   6.336   3.933  0.1331  0.0450  0.0381
  894WN      WN 1374   5.480   4.105   2.332 -0.0576  0.3971 -0.1845
  895WN      WN 1375   4.608   0.496   1.988 -0.0719 -0.1756 -0.0370
  896WN      WN 1376   6.201   6.361   5.992  0.1117 -0.2763  0.2459
  897WN      WN 1377   0.707   2.387   6.238  0.3089 -0.3865 -0.2498
  898WN      WN 1378   5.116   6.531   5.176  0.3224  0.1697 -0.1235
  899WN      WN 1379   1.047   0.464   3.108  0.3503 -0.0636 -0.0477
  900WN      WN 1380   1.417   0.130   1.802  0.1582  0.0262  0.2033
  901WN      WN 1381   5.239   6.310   4.242  0.0809 -0.3891 -0.1743
  902WN      WN 1382   3.601   1.401   3.731 -0.1674 -0.2035 -0.1415
  903WN      WN 1383   5.192   2.714   4.589  0.1864  0.0971  0.2339
  904WN      WN 1384   2.252   4.580   2.125  0.1863  0.1761 -0.1267
  905WN      WN 1385   2.038   5.450   6.319 -0.3933 -0.1365 -0.1335
  906WN      WN 1386   0.993   0.170   2.114 -0.1791  0.0116 -0.2541
  907WN      WN 1387   1.480   0.197   3.382 -0.0682  0.0984 -0.0361
  908WN      WN 1388   6.067   1.474   4.251  0.1566  0.0642 -0.1662
  909WN      WN 1389   6.501   5.752   6.385  0.0017  0.3059 -0.1225
  910WN      WN 1390   4.964   0.184   4.225 -0.1182 -0.2498 -0.1135
  911WN      WN 1391   1.188   1.456   3.294 -0.0451  0.0288  0.0608
  912WN      WN 1392   3.314   4.932   2.570 -0.0611  0.0019 -0.1278
  913WN      WN 1393   2.961   4.401   0.746 -0.0275  0.1300 -0.0627
  914WN      WN 1394   5.637   3.376   4.277  0.0135  0.0293 -0.0211
  915WN      WN 1395   6.046   0.803   2.810 -0.1635  0.3513 -0.4510
  916WN      WN 1396   6.032   1.310   3.705 -0.0888 -0.3061  0.1059
  917WN      WN 1397   2.128   6.413   6.371  0.0374  0.1877  0.1634
  918WN      WN 1398   1.043   6.013   2.807  0.4372 -0.3233 -0.2863
  919WN      WN 1399   2.887   5.872   4.681 -0.0197 -0.2145 -0.1746
  920WN      WN 1400   1.979   4.218   4.294 -0.1172 -0.1273  0.3094
  921WN      WN 1401   2.916   0.889   0.128  0.1318  0.2150  0.0234
  922WN      WN 1402   4.979   2.175   3.995  0.2301 -0.1056 -0.3148
  923WN      WN 1403   3.641   3.559   3.642  0.0744 -0.3880  0.1624
  924WN      WN 1404   5.562   0.562   2.681  0.1135  0.2775  0.0931
  925WN      WN 1405   3.911   5.392   5.838  0.0135  0.3103 -0.4219
  926WN      WN 1406   1.076   6.404   4.290  0.2433 -0.2418 -0.0681
  927WN      WN 1407   5.065   3.332   0.621 -0.0711 -0.1848  0.1656
  928WN      WN 1408   3.452   4.016   5.906  0.0980 -0.2764 -0.1610
  929WN      WN 1409   4.895   3.979   2.940 -0.1606 -0.2635 -0.1727
  930WN      WN 1410   6.448   5.960   4.102  0.2602 -0.0617  0.1560
  931WN      WN 1411   6.460   4.269   4.585 -0.2927 -0.1982  0.0675
  932WN      WN 1412   3.206   6.136   5.555 -0.0735  0.2959  0.0065
  933WN      WN 1413   4.188   0.140   3.951  0.2081 -0.4387  0.1210
  934WN      WN 1414   1.419   6.114   6.278  0.0125  0.0590 -0.1134
  935WN      WN 1415   1.590   3.958   3.494 -0.0091  0.1111 -0.0621
  936WN      WN 1416   2.726   2.790   1.573  0.0959 -0.1961 -0.2735
  937WN      WN 1417   5.144   0.769   5.835  0.3888  0.0026 -0.1675
  938WN      WN 1418   4.123   3.986   5.183  0.1759  0.3019  0.1945
  939WN      WN 1419   4.712   4.060   5.218  0.2598 -0.0083  0.1164
  940WN      WN 1420   6.499   4.418   5.138 -0.1952  0.0571  0.0815
  941WN      WN 1421   5.987   5.106   0.692  0.1090 -0.0637 -0.3119
  942WN      WN 1422   4.431   3.799   4.771 -0.1175  0.0786 -0.1168
  943WN      WN 1423   5.140   5.334   4.766  0.2898  0.0191 -0.0597
  944WN      WN 1424   0.839   0.103   3.381 -0.2946 -0.1216  0.1581
  945WN      WN 1425   3.578   0.728   4.327  0.3885 -0.2472 -0.1811
  946WN      WN 1426   6.553   2.956   4.431  0.2494  0.1302 -0.2114
  947WN      WN 1427   1.973   4.132   3.750 -0.0423  0.1488  0.0277
  948WN      WN 1428   4.404   0.168   5.834 -0.2031 -0.1939 -0.3362
  949WN      WN 1429   4.711   0.332   5.016  0.0925 -0.0463 -0.1522
  950WN      WN 1430   1.145   5.140   6.328 -0.2012 -0.0360 -0.1558
  951WN      WN 1431   3.640   2.472   5.950  0.0454  0.2697 -0.2666
  952WN      WN 1432   6.162   2.739   2.727 -0.0379 -0.0499 -0.1905
  953WN      WN 1433   1.923   5.877   1.421  0.4095 -0.0973 -0.0014
  954WN      WN 1434   1.806   5.866   0.542 -0.1034 -0.0257 -0.0675
  955WN      WN 1435   0.612   2.873   0.390  0.1263 -0.1601  0.0981
  956WN      WN 1436   5.207   6.325   2.861 -0.0321 -0.0444 -0.2511
  957WN      WN 1437   2.352   3.345   3.786 -0.1433  0.1426  0.0814
  958WN      WN 1438   6.257   3.713   3.394 -0.1539 -0.0044 -0.2959
  959WN      WN 1439   2.048   2.443   0.209 -0.2254  0.1383 -0.0671
  960WN      WN 1440   1.713   5.374   5.092 -0.2280  0.2053 -0.1676
  961WN      WN 1441   4.214   6.028   4.233 -0.0100  0.0838  0.3236
  962WN      WN 1442   2.507   0.737   5.751  0.1208  0.0934  0.0536
  963WN      WN 1443   4.174   5.836   5.020  0.0728  0.2100 -0.1274
  964WN      WN 1444   0.138   5.940   5.352 -0.1582  0.0057 -0.2935
  965WN      WN 1445   0.329   2.644   4.259 -0.5780 -0.1127 -0.1438
  966WN      WN 1446   4.640   4.133   2.054  0.1711 -0.0454  0.2366
  967WN      WN 1447   3.893   2.146   4.893  0.0277 -0.0644  0.0215
  968WN      WN 1448   0.968   1.466   5.250  0.1198 -0.2848 -0.0946
  969WN      WN 1449   5.010   6.481   3.284 -0.0891 -0.1394  0.0080
  970WN      WN 1450   0.705   2.293   5.265  0.0970  0.0864 -0.0279
  971WN      WN 1451   2.018   2.521   5.975 -0.0981 -0.0701 -0.1646
  972WN      WN 1452   4.448   3.781   6.392  0.2024  0.0510 -0.1956
  973WN      WN 1453   1.168   0.395   3.825 -0.2077  0.2672  0.0853
  974WN      WN 1454   2.605   4.697   3.714 -0.0602  0.2566  0.0612
  975WN      WN 1455   4.724   3.323   4.129 -0.0475 -0.1435 -0.1163
  976WN      WN 1456   1.149   4.738   1.700 -0.1787 -0.0077  0.0903
  977WN      WN 1457   0.084   4.922   1.787 -0.1293  0.3298 -0.2543
  978WN      WN 1458   4.122   0.784   0.775 -0.3828  0.1768  0.2498
  979WN      WN 1459   6.480   3.805   4.399  0.0368 -0.0036 -0.1688
  980WN      WN 1460   2.420   4.691   0.991 -0.2130 -0.0762 -0.0453
  981WN      WN 1461   0.435   1.978   5.596 -0.2954 -0.0697  0.0192
  982WN      WN 1462   5.884   4.134   2.811  0.0464  0.1124 -0.0215
  983WN      WN 1463   0.159   6.004   2.185  0.0237 -0.2792  0.1953
  984WN      WN 1464   3.355   6.314   5.973 -0.0247  0.0643  0.1767
  985WN      WN 1465   1.161   0.582   4.862 -0.0653 -0.0195 -0.0873
  986WN      WN 1466   6.106   3.929   0.292  0.3500  0.3430  0.1038
  987WN      WN 1467   0.126   5.615   4.385 -0.0685  0.0051 -0.0097
  988WN      WN 1468   1.309   1.637   0.995 -0.0012 -0.5789  0.2384
  989WN      WN 1469   1.795   6.498   3.134  0.0997  0.1022  0.0003
  990WN      WN 1470   6.150   2.743   4.714  0.1389  0.0422 -0.1403
  991WN      WN 1471   0.832   3.510   2.621  0.2858 -0.0548 -0.1576
  992WN      WN 1472   6.039   5.491   3.222 -0.0171 -0.0752  0.0251
  993WN      WN 1473   2.623   2.683   3.245 -0.0690 -0.1076  0.2187
  994WN      WN 1474   5.661   1.591   2.818  0.3078  0.1124 -0.0020
  995WN      WN 1475   1.024   1.542   4.644  0.2710 -0.0726  0.1671
  996WN      WN 1476   5.645   4.721   6.342  0.1390  0.0940  0.2484
  997WN      WN 1477   2.820   4.991   2.667 -0.0443 -0.1752 -0.2394
  998WN      WN 1478   5.831   3.614   1.165 -0.0149  0.0942  0.3482
  999WN      WN 1479   1.449   4.780   5.781 -0.0931  0.4567 -0.0719
 1000WN      WN 1480   3.417   3.544   4.775 -0.2970  0.0536  0.1936
 1001WN      WN 1481   6.326   0.306   4.733 -0.0294 -0.0909 -0.1584
 1002WN      WN 1482   1.755   4.905   3.468 -0.0651  0.2128  0.0579
 1003WN      WN 1483   0.589   5.154   1.813 -0.2135  0.0869 -0.0447
 1004WN      WN 1484   2.813   2.829   2.775  0.0992  0.2052 -0.0030
 1005WN      WN 1485   5.192   5.317   1.772  0.1172  0.1258 -0.0078
 1006WN      WN 1486   3.136   4.356   0.302 -0.2655 -0.0306 -0.2302
 1007WN      WN 1487   5.120   5.326   0.022  0.1577  0.0532 -0.0504
 1008WN      WN 1488   4.506   4.688   5.779 -0.2152  0.3324  0.3312
 1009WN      WN 1489   0.059   1.795   4.901  0.0283  0.1528 -0.3948
 1010WN      WN 1490   4.553   1.891   6.060  0.0319  0.2828  0.1995
 1011WN      WN 1491   0.277   0.416   4.735  0.0621 -0.1319  0.2690
 1012WN      WN 1492   0.841   4.869   5.285 -0.2034 -0.1656 -0.2989
 1013WN      WN 1493   4.392   4.522   0.359  0.0692  0.1129 -0.0526
 1014WN      WN 1494   5.913   0.215   0.752 -0.0162 -0.0867  0.1471
 1015WN      WN 1495   0.064   3.277   2.131  0.1415  0.2420  0.1990
 1016WN      WN 1496   4.735   4.366   3.763  0.0964 -0.2667 -0.0802
 1017WN      WN 1497   4.235   0.602   5.362  0.0663  0.0265  0.0850
 1018WN      WN 1498   2.259   5.295   5.171  0.1795 -0.0067  0.0659
 1019WN      WN 1499   4.830   5.824   4.684 -0.2253 -0.3211  0.3295
 1020WN      WN 1500   1.036   0.242   5.934  0.1062  0.1606 -0.0216
 1021WN      WN 1501   3.304   3.145   4.471 -0.1705 -0.0786 -0.0013
 1022WN      WN 1502   3.309   1.097   6.313  0.0749 -0.3614  0.2873
 1023WN      WN 1503   2.713   5.877   5.510  0.0620  0.0966 -0.0572
 1024WN      WN 1504   2.490   5.683   1.134  0.2750 -0.1792 -0.3217
 1025WN      WN 1505   5.180   3.204   5.782 -0.0645 -0.1359 -0.2209
 1026WN      WN 1506   4.616   3.164   2.678 -0.3934 -0.0249  0.0902
 1027WN      WN 1507   2.431   2.719   2.378  0.0806  0.0604 -0.0939
 1028WN      WN 1508   5.643   0.563   6.318  0.0865 -0.1377 -0.1028
 1029WN      WN 1509   3.033   0.053   6.197  0.0025 -0.1448 -0.1283
 1030WN      WN 1510   4.998   2.083   6.090 -0.0269  0.2116  0.1006
 1031WN      WN 1511   4.725   4.317   0.724  0.0217  0.2355  0.3723
 1032WN      WN 1512   4.242   1.871   3.495 -0.2971 -0.0318 -0.1922
 1033WN      WN 1513   4.036   6.322   5.090 -0.1781 -0.0298  0.2594
 1034WN      WN 1514   2.471   4.972   1.928  0.0352  0.3594 -0.0705
 1035WN      WN 1515   4.658   6.040   1.294 -0.2047 -0.0622 -0.0046
 1036WN      WN 1516   5.310   3.380   6.510 -0.0562 -0.1597  0.0040
 1037WN      WN 1517   0.038   2.504   2.825 -0.2376 -0.0241  0.2294
 1038WN      WN 1518   1.720   1.864   0.822 -0.0777 -0.1913  0.1189
 1039WN      WN 1519   3.421   0.004   3.688 -0.0489  0.2437 -0.1627
 1040WN      WN 1520   0.870   4.551   2.644 -0.1127 -0.1758  0.0514
 1041WN      WN 1521   6.043   6.208   3.079  0.1888  0.0720 -0.0359
 1042WN      WN 1522   4.778   5.992   2.842 -0.1720  0.0215  0.0302
 1043WN      WN 1523   1.178   6.440   1.421 -0.1128 -0.1343 -0.1287
 1044WN      WN 1524   4.780   1.168   0.036  0.1072  0.2836  0.1837
 1045WN      WN 1525   2.536   4.344   5.637  0.4912  0.3059 -0.1859
 1046WN      WN 1526   5.268   2.142   0.112  0.0214 -0.1003 -0.2998
 1047WN      WN 1527   1.654   0.192   4.234 -0.0117  0.0291 -0.3444
 1048WN      WN 1528   5.027   4.933   0.507 -0.3103  0.2182 -0.4114
 1049WN      WN 1529   2.830   0.377   5.748 -0.2130 -0.1068 -0.0683
 1050WN      WN 1530   0.959   2.558   0.149  0.2055 -0.1847 -0.0822
 1051WN      WN 1531   0.965   6.512   5.312  0.4057 -0.2239  0.0216
 1052WN      WN 1532   3.743   6.124   1.153 -0.1013  0.1136 -0.2528
 1053WN      WN 1533   0.652   0.274   5.555 -0.0722 -0.0233 -0.3213
 1054WN      WN 1534   6.351   3.072   0.490  0.1789 -0.2007 -0.0991
 1055WN      WN 1535   2.203   0.859   2.978 -0.1440 -0.0909 -0.3960
 1056WN      WN 1536   4.355   3.360   1.569  0.0294  0.1229 -0.1487
 1057WN      WN 1537   4.753   5.783   2.351 -0.0656  0.0972 -0.1359
 1058WN      WN 1538   0.515   0.079   6.128 -0.0990  0.0677  0.2302
 1059WN      WN 1539   2.339   5.872   2.252  0.0302  0.1910 -0.0283
 1060WN      WN 1540   0.643   6.105   4.662 -0.2717  0.0652 -0.2420
 1061WN      WN 1541   5.713   3.152   1.005  0.0627  0.2178 -0.0466
 1062WN      WN 1542   2.646   4.239   0.283  0.1795 -0.1290 -0.2620
 1063WN      WN 1543   5.862   3.020   0.163  0.0218 -0.0356  0.1719
 1064WN      WN 1544   5.788   4.580   0.825 -0.2102 -0.1454 -0.0614
 1065WN      WN 1545   3.652   5.484   5.037 -0.0277  0.1707  0.1551
 1066WN      WN 1546   0.927   4.479   4.987 -0.1227  0.0179 -0.1931
 1067WN      WN 1547   2.958   5.013   3.498  0.0347 -0.2157 -0.1357
 1068WN      WN 1548   1.084   5.688   6.143  0.1256  0.1033 -0.0846
 1069WN      WN 1549   2.336   3.096   4.729 -0.0561 -0.0915 -0.0924
 1070WN      WN 1550   4.955   6.233   5.631  0.0947  0.2133 -0.2069
 1071WN      WN 1551   2.933   1.812   3.668 -0.2971 -0.2824 -0.3994
 1072WN      WN 1552   3.342   0.978   5.095  0.2607  0.2628 -0.2220
 1073WN      WN 1553   4.264   0.225   3.471  0.2585  0.3468  0.2412
 1074WN      WN 1554   1.157   2.314   1.702 -0.1510 -0.1237 -0.1142
 1075WN      WN 1555   5.023   5.812   0.040 -0.2041 -0.0232  0.0731
 1076WN      WN 1556   6.276   4.034   6.017 -0.2666 -0.1829  0.3684
 1077WN      WN 1557   0.530   1.075   3.936  0.2547  0.0837 -0.1085
 1078WN      WN 1558   6.145   4.335   1.158 -0.0072 -0.1733  0.0285
 1079WN      WN 1559   5.535   1.235   3.618  0.0219  0.0798 -0.0750
 1080WN      WN 1560   2.621   6.395   1.733  0.2527  0.2371  0.2034
 1081WN      WN 1561   0.227   3.295   5.102 -0.2364 -0.0150  0.2490
 1082WN      WN 1562   6.504   4.190   3.583  0.0049  0.2054 -0.1890
 1083WN      WN 1563   1.539   0.840   0.681 -0.0112  0.2051  0.2241
 1084WN      WN 1564   0.208   5.583   0.684 -0.5631  0.0027  0.2317
 1085WN      WN 1565   5.281   0.971   4.191  0.0615 -0.0585 -0.0670
 1086WN      WN 1566   4.442   5.285   5.856  0.1133  0.0825  0.2311
 1087WN      WN 1567   0.700   0.783   4.627  0.1205 -0.1847  0.0838
 1088WN      WN 1568   2.402   0.805   4.333 -0.0966 -0.1612 -0.2984
 1089WN      WN 1569   4.910   6.210   0.485 -0.1696 -0.0006 -0.1654
 1090WN      WN 1570   4.207   4.346   0.844  0.1275  0.0858 -0.0314
 1091WN      WN 1571   1.941   4.529   1.207  0.1455 -0.1736  0.2857
 1092WN      WN 1572   1.015   4.380   3.182  0.0114 -0.0352 -0.2652
 1093WN      WN 1573   5.370   3.224   5.280 -0.2296 -0.0579  0.4584
 1094WN      WN 1574   5.473   4.941   3.571 -0.0596 -0.1470  0.0627
 1095WN      WN 1575   3.872   3.944   6.276 -0.3432 -0.1346 -0.0321
 1096WN      WN 1576   3.553   3.146   6.504 -0.3633 -0.2007 -0.0134
 1097WN      WN 1577   1.493   0.065   4.993  0.0490 -0.0113  0.1383
 1098WN      WN 1578   4.064   5.362   5.283 -0.3485 -0.1315  0.1736
 1099WN      WN 1579   2.842   3.798   3.886 -0.0881 -0.0955 -0.1466
 1100WN      WN 1580   1.000   6.460   2.518  0.1389  0.2939 -0.4001
 1101WN      WN 1581   0.638   4.537   1.682 -0.0661  0.1769  0.2176
 1102WN      WN 1582   0.027   2.105   1.958  0.1683 -0.3508  0.2174
 1103WN      WN 1583   4.203   3.376   3.561 -0.0930 -0.2158  0.0871
 1104WN      WN 1584   2.778   5.574   2.019 -0.1916 -0.2746  0.0660
 1105WN      WN 1585   0.564   3.792   5.987 -0.1863  0.1610  0.0489
 1106WN      WN 1586   5.389   0.766   2.170  0.0354 -0.3598  0.1936
 1107WN      WN 1587   2.467   3.262   2.898 -0.2666  0.4599  0.0585
 1108WN      WN 1588   2.468   1.105   5.018 -0.3517 -0.2233  0.1157
 1109WN      WN 1589   6.068   5.592   4.050 -0.0932 -0.0477 -0.1083
 1110WN      WN 1590   1.168   4.234   3.630  0.1009  0.1654 -0.1876
 1111WN      WN 1591   2.134   5.643   5.543 -0.1406 -0.0262  0.1302
 1112WN      WN 1592   4.193   5.999   1.412  0.2177  0.3948 -0.2787
 1113WN      WN 1593   3.599   6.287   4.742  0.0921 -0.1729  0.1998
 1114WN      WN 1594   6.234   0.109   2.849  0.0029 -0.1059  0.2454
 1115WN      WN 1595   5.166   1.949   3.597  0.2486  0.1773 -0.2478
 1116WN      WN 1596   3.522   0.926   2.796 -0.1108  0.1217 -0.0479
 1117WN      WN 1597   5.604   3.813   6.476  0.2877 -0.0808  0.0088
 1118WN      WN 1598   5.838   4.795   5.212  0.2351 -0.0187  0.2023
 1119WN      WN 1599   1.981   3.622   3.848  0.0284 -0.0350 -0.0137
 1120WN      WN 1600   0.573   1.304   3.064  0.0264 -0.1470  0.5575
 1121WN      WN 1601   5.756   6.080   4.996  0.3304 -0.0022  0.2494
 1122WN      WN 1602   5.477   5.075   5.029  0.1985  0.0024 -0.0224
 1123WN      WN 1603   3.588   5.209   5.438 -0.0720 -0.0998  0.0642
 1124WN      WN 1604   6.103   0.337   4.140  0.2473 -0.0842  0.1279
 1125WN      WN 1605   3.607   5.752   0.858 -0.2733 -0.0833 -0.1719
 1126WN      WN 1606   5.345   0.486   0.286 -0.2427  0.1386 -0.0592
 1127WN      WN 1607   5.980   6.214   0.789 -0.1315 -0.1232  0.1460
 1128WN      WN 1608   5.976   0.841   3.730 -0.1468  0.0103 -0.0140
 1129WN      WN 1609   5.132   3.215   2.287 -0.3903  0.2143 -0.2875
 1130WN      WN 1610   0.573   0.417   2.956  0.1094  0.1038 -0.0497
 1131WN      WN 1611   5.495   4.969   2.676  0.0400  0.1761 -0.1672
 1132WN      WN 1612   5.637   1.435   1.763 -0.1593  0.2854 -0.0569
 1133WN      WN 1613   1.572   4.258   4.003  0.0102  0.0516  0.4444
 1134WN      WN 1614   2.984   3.426   2.827 -0.0028  0.0826 -0.0328
 1135WN      WN 1615   3.211   0.589   6.379 -0.2716 -0.0833 -0.1306
 1136WN      WN 1616   1.876   6.373   4.055 -0.0566  0.2371 -0.0822
 1137WN      WN 1617   5.559   1.496   4.117  0.0460 -0.2455  0.1025
 1138WN      WN 1618   1.695   2.623   3.692  0.1855  0.2155 -0.2285
 1139WN      WN 1619   2.385   4.291   3.958 -0.0808  0.0114  0.0799
 1140WN      WN 1620   2.065   1.404   3.126  0.1370 -0.0385  0.2026
 1141WN      WN 1621   3.490   2.019   6.177  0.3115 -0.2706 -0.1518
 1142WN      WN 1622   4.101   4.386   3.112  0.2030  0.1305  0.1789
 1143WN      WN 1623   0.225   0.255   5.209 -0.0145  0.0731  0.1457
 1144WN      WN 1624   4.767   3.624   2.588 -0.0923 -0.0709 -0.1537
 1145WN      WN 1625   4.762   5.792   5.315 -0.2720 -0.1126  0.0593
 1146WN      WN 1626   2.924   0.599   1.767 -0.2893  0.2012  0.4592
 1147WN      WN 1627   2.249   1.150   5.951 -0.1897  0.1680 -0.4388
 1148WN      WN 1628   2.384   2.570   0.515  0.3273 -0.2558 -0.6422
 1149WN      WN 1629   2.198   3.382   1.853 -0.0754  0.2551  0.0323
 1150WN      WN 1630   1.705   4.405   3.358 -0.0373  0.1117  0.4317
 1151WN      WN 1631   4.733   4.554   5.327 -0.1277 -0.4078 -0.0727
 1152WN      WN 1632   4.505   2.119   5.103  0.3598  0.0387  0.0148
 1153WN      WN 1633   1.597   3.999   2.001  0.0070  0.0558  0.2722
 1154WN      WN 1634   2.843   0.020   3.917  0.3339  0.1321  0.2239
 1155WN      WN 1635   0.475   3.535   2.004  0.0554  0.1215  0.1216
 1156WN      WN 1636   1.875   4.387   2.851  0.2443  0.2442  0.4320
 1157WN      WN 1637   1.221   2.019   4.600 -0.0335 -0.2304 -0.3141
 1158WN      WN 1638   3.372   4.064   4.601 -0.1188  0.0672  0.0115
 1159WN      WN 1639   3.678   3.167   5.583  0.1239 -0.0588 -0.2218
 1160WN      WN 1640   6.263   3.216   4.977  0.1099 -0.0545  0.2755
 1161WN      WN 1641   6.229   5.714   4.504 -0.0572 -0.1721 -0.0050
 1162WN      WN 1642   4.902   1.351   0.568  0.1412  0.3006  0.0163
 1163WN      WN 1643   4.200   1.253   6.218  0.2902 -0.0716  0.4057
 1164WN      WN 1644   3.958   5.256   3.987  0.5073 -0.4782 -0.0651
 1165WN      WN 1645   5.687   5.503   2.788  0.1622  0.0651  0.0619
 1166WN      WN 1646   6.106   1.160   0.577  0.1711  0.0662 -0.2090
 1167WN      WN 1647   4.079   5.735   2.811 -0.0201 -0.0778  0.0338
 1168WN      WN 1648   6.331   6.304   0.468 -0.2926  0.0736  0.0273
 1169WN      WN 1649   6.026   3.561   4.094  0.0418  0.1838  0.0173
 1170WN      WN 1650   0.088   2.938   3.939  0.2171 -0.0922  0.1153
 1171WN      WN 1651   6.394   1.834   4.402  0.1134 -0.1889  0.2357
 1172WN      WN 1652   0.415   1.172   1.140  0.0751 -0.2310 -0.0568
 1173WN      WN 1653   3.615   0.548   2.433 -0.0096  0.0979  0.1148
 1174WN      WN 1654   4.022   5.316   4.736  0.0190  0.1820 -0.1060
 1175WN      WN 1655   3.173   0.352   4.553 -0.0958 -0.3798  0.2444
 1176WN      WN 1656   5.168   4.598   5.568 -0.0814  0.0130 -0.3423
 1177WN      WN 1657   6.333   5.698   2.196 -0.0210 -0.2507 -0.0459
 1178WN      WN 1658   2.939   5.875   2.846  0.0585  0.2793 -0.2912
 1179WN      WN 1659   2.317   0.547   0.016  0.4612 -0.1345 -0.0895
 1180WN      WN 1660   3.814   3.129   0.384  0.2843 -0.1217 -0.1005
 1181WN      WN 1661   6.475   1.529   0.166 -0.1201 -0.2323  0.2582
 1182WN      WN 1662   0.140   2.036   2.817 -0.0762 -0.0167  0.0218
 1183WN      WN 1663   1.143   6.325   3.556 -0.1898  0.0872 -0.1913
 1184WN      WN 1664   4.868   3.485   5.346 -0.0523  0.3601 -0.2794
 1185WN      WN 1665   5.965   5.766   1.628 -0.2141 -0.3891  0.1941
 1186WN      WN 1666   2.128   1.475   0.760  0.1870  0.0518  0.0100
 1187WN      WN 1667   5.807   4.179   1.455 -0.0851  0.0688  0.1291
 1188WN      WN 1668   1.415   1.215   5.241  0.2911  0.0823 -0.1147
 1189WN      WN 1669   3.153   5.541   5.202 -0.0261 -0.0600  0.0052
 1190WN      WN 1670   4.950   6.359   0.975  0.0506  0.1277  0.0471
 1191WN      WN 1671   3.739   5.734   3.940 -0.5285 -0.1335  0.1302
 1192WN      WN 1672   4.089   6.269   2.847  0.0984 -0.2578  0.2613
 1193WN      WN 1673   5.401   0.054   0.088  0.1392 -0.1149  0.0323
 1194WN      WN 1674   5.619   1.727   3.627 -0.0806  0.1308  0.2704
 1195WN      WN 1675   4.895   4.247   1.599  0.1107  0.1411 -0.1239
 1196WN      WN 1676   3.744   4.453   6.157 -0.1604  0.1085  0.0750
 1197WN      WN 1677   4.425   2.498   3.990 -0.0080 -0.0374 -0.2452
 1198WN      WN 1678   2.472   4.946   0.142  0.0558 -0.0545  0.0426
 1199WN      WN 1679   0.286   1.660   6.329  0.0255  0.0491  0.4056
 1200WN      WN 1680   3.999   1.053   5.739  0.1694 -0.0823  0.1353
 1201WN      WN 1681   0.306   6.211   4.065  0.2272 -0.3333 -0.0505
 1202WN      WN 1682   0.631   6.168   5.190  0.0001  0.0253  0.0132
 1203WN      WN 1683   0.022   4.536   0.491 -0.1464 -0.4976  0.0539
 1204WN      WN 1684   5.180   6.222   4.766  0.3817 -0.1040 -0.2046
 1205WN      WN 1685   6.212   2.230   2.961  0.0856  0.0983  0.2864
 1206WN      WN 1686   4.292   5.566   1.600 -0.2272  0.0878  0.0456
 1207WN      WN 1687   1.968   3.518   4.768  0.1920  0.1313  0.1144
 1208WN      WN 1688   1.570   4.016   6.067 -0.0566 -0.1060  0.0190
 1209WN      WN 1689   1.355   5.619   2.942 -0.2117 -0.1566 -0.0720
 1210WN      WN 1690   1.077   0.634   1.195  0.0472 -0.2856 -0.0359
 1211WN      WN 1691   3.824   2.597   4.659  0.0902 -0.0932  0.5071
 1212WN      WN 1692   2.222   0.422   2.169  0.0883  0.2820 -0.0333
 1213WN      WN 1693   5.393   6.116   0.255  0.0746  0.0879  0.2714
 1214WN      WN 1694   0.971   0.399   1.684  0.2678  0.1875  0.1393
 1215WN      WN 1695   3.537   2.199   3.199 -0.0152 -0.2247  0.1148
 1216WN      WN 1696   1.003   0.435   2.590 -0.2201 -0.2027  0.4684
 1217WN      WN 1697   0.754   1.716   3.412  0.2666  0.0332 -0.0911
 1218WN      WN 1698   4.469   5.483   0.769  0.2562  0.1075  0.0848
 1219WN      WN 1699   2.101   6.199   2.838 -0.1585  0.2025 -0.3276
 1220WN      WN 1700   5.284   1.923   5.294 -0.1162 -0.0518 -0.3272
 1221WN      WN 1701   6.146   2.152   4.773 -0.0039  0.1932 -0.1480
 1222WN      WN 1702   5.118   6.006   3.283  0.1338  0.1901 -0.2470
 1223WN      WN 1703   6.509   5.283   4.733 -0.0570  0.0347 -0.0736
 1224WN      WN 1704   5.817   3.408   2.519 -0.0794  0.0373 -0.1923
 1225WN      WN 1705   1.124   2.610   5.488  0.3061 -0.0195 -0.1408
 1226WN      WN 1706   5.121   3.666   4.946  0.1338 -0.0195 -0.2006
 1227WN      WN 1707   2.455   3.767   4.861 -0.0223  0.2515  0.1744
 1228WN      WN 1708   5.987   4.329   4.949  0.0840 -0.0797 -0.0057
 1229WN      WN 1709   2.104   1.381   2.092 -0.0537  0.0562 -0.2188
 1230WN      WN 1710   3.594   4.948   5.919 -0.1161 -0.2204  0.1251
 1231WN      WN 1711   1.636   0.698   5.280 -0.4136 -0.0931 -0.0298
 1232WN      WN 1712   3.273   3.786   6.335  0.1256  0.0607 -0.1820
 1233WN      WN 1713   2.550   5.221   0.857 -0.1179 -0.1027  0.0638
 1234WN      WN 1714   5.928   0.580   1.662 -0.6116  0.0700  0.3874
 1235WN      WN 1715   4.583   2.409   6.149  0.3080  0.2137 -0.2212
 1236WN      WN 1716   1.074   3.880   3.274  0.1355  0.3556  0.1486
 1237WN      WN 1717   4.386   2.551   4.434 -0.2039 -0.0363 -0.2102
 1238WN      WN 1718   0.013   1.465   4.006 -0.1281  0.0482  0.0132
 1239WN      WN 1719   0.488   4.660   6.320 -0.1694 -0.0947  0.2009
 1240WN      WN 1720   3.240   1.894   5.751  0.1513  0.0843  0.0966
 1241WN      WN 1721   0.769   1.076   2.320 -0.0909  0.3166 -0.3692
 1242WN      WN 1722   0.410   4.831   0.228  0.1836  0.3393 -0.0300
 1243WN      WN 1723   0.280   4.110   2.331  0.0531 -0.0590  0.1621
 1244WN      WN 1724   4.327   3.246   3.090  0.1246  0.3160  0.1735
 1245WN      WN 1725   4.804   3.550   3.180  0.1382  0.1789 -0.1868
 1246WN      WN 1726   6.031   0.486   3.255 -0.2891  0.4014 -0.4615
 1247WN      WN 1727   5.760   1.515   0.147  0.1493  0.0253  0.2872
 1248WN      WN 1728   0.940   3.236   2.037  0.0517 -0.0993 -0.1360
 1249WN      WN 1729   5.561   2.902   6.345  0.1222  0.0172 -0.1107
 1250WN      WN 1730   1.553   6.477   1.117  0.1339  0.1657  0.1404
 1251WN      WN 1731   6.565   4.076   0.395  0.0447  0.1167  0.0893
 1252WN      WN 1732   3.952   4.766   3.662 -0.1320 -0.0562  0.0256
 1253WN      WN 1733   6.561   1.298   5.035 -0.0657  0.0049  0.0246
 1254WN      WN 1734   6.405   2.281   6.406 -0.2514 -0.1422 -0.0822
 1255WN      WN 1735   3.599   0.466   2.928 -0.1587 -0.0837  0.1242
 1256WN      WN 1736   1.984   3.778   2.730  0.3989  0.1390 -0.1671
 1257WN      WN 1737   5.416   3.960   2.966 -0.2820 -0.0889 -0.0393
 1258WN      WN 1738   6.185   2.474   5.381 -0.3357 -0.0838 -0.2147
 1259WN      WN 1739   0.423   4.793   4.138 -0.1236  0.0344  0.1803
 1260WN      WN 1740   4.510   0.235   6.332  0.0348 -0.0812 -0.3087
 1261WN      WN 1741   2.391   1.778   3.917  0.0454  0.1118  0.0662
 1262WN      WN 1742   0.186   3.792   3.509 -0.3192  0.2743 -0.2094
 1263WN      WN 1743   2.324   2.595   4.562 -0.0961 -0.1706  0.3591
 1264WN      WN 1744   1.593   0.989   4.788  0.0085 -0.4295  0.2261
 1265WN      WN 1745   1.433   5.805   2.524 -0.4138 -0.2426  0.1157
 1266WN      WN 1746   0.872   1.097   3.389  0.1338  0.2200  0.3422
 1267WN      WN 1747   1.910   3.189   4.127  0.4624 -0.0622  0.1592
 1268WN      WN 1748   1.245   0.761   3.465 -0.0049 -0.0273 -0.0982
 1269WN      WN 1749   2.543   1.373   1.030 -0.1475 -0.1687  0.1359
 1270WN      WN 1750   6.278   4.684   0.832  0.0031 -0.1902 -0.1311
 1271WN      WN 1751   5.555   3.996   3.472  0.1092  0.1387 -0.0188
 1272WN      WN 1752   2.386   4.720   1.450 -0.3917 -0.3640 -0.1125
 1273WN      WN 1753   3.448   3.126   2.877  0.1126 -0.3607  0.0556
 1274WN      WN 1754   2.838   3.816   4.472  0.0217  0.3321 -0.0060
 1275WN      WN 1755   3.229   4.220   3.174 -0.0415  0.1829 -0.0316
 1276WN      WN 1756   3.884   2.570   4.049 -0.0114  0.1240  0.0164
 1277WN      WN 1757   1.098   1.055   0.384 -0.1602  0.1257 -0.2797
 1278WN      WN 1758   3.227   0.405   3.988 -0.0042 -0.1406  0.0423
 1279WN      WN 1759   3.800   5.784   4.533 -0.3132 -0.1585  0.1416
 1280WN      WN 1760   4.867   6.246   2.205  0.0145 -0.0498 -0.1509
 1281WN      WN 1761   3.701   3.626   0.019 -0.1153  0.1770  0.1471
 1282WN      WN 1762   1.973   5.022   0.128 -0.2273 -0.1898 -0.0060
 1283WN      WN 1763   6.393   4.560   3.201  0.3102  0.1423  0.0732
 1284WN      WN 1764   4.956   4.434   0.228  0.1367 -0.0923 -0.2374
 1285WN      WN 1765   1.913   0.158   3.711 -0.1634  0.0077 -0.1833
 1286WN      WN 1766   1.686   2.189   4.306  0.1131 -0.2316 -0.0304
 1287WN      WN 1767   4.470   2.887   0.552  0.1427  0.0226 -0.2903
 1288WN      WN 1768   5.431   6.194   0.822  0.1755 -0.0340 -0.0038
 1289WN      WN 1769   5.463   2.304   6.234 -0.1464  0.0172 -0.1705
 1290WN      WN 1770   6.358   1.079   2.396 -0.0468 -0.0015 -0.3118
 1291WN      WN 1771   2.945   2.480   4.472  0.3717  0.0613  0.4429
 1292WN      WN 1772   4.057   5.982   6.514  0.1134 -0.3291 -0.0647
 1293WN      WN 1773   2.410   2.953   4.207 -0.1475  0.2686 -0.2095
 1294WN      WN 1774   2.757   1.926   1.630 -0.0753  0.1535  0.0581
 1295WN      WN 1775   4.888   4.054   6.177  0.0484 -0.1124  0.3333
 1296WN      WN 1776   2.164   0.230   5.528 -0.0094  0.1754  0.0699
 1297WN      WN 1777   0.123   4.748   2.270  0.0082  0.1047 -0.0572
 1298WN      WN 1778   4.207   2.391   1.567  0.3760  0.0910 -0.0877
 1299WN      WN 1779   4.776   6.515   2.673 -0.0503  0.0201 -0.1540
 1300WN      WN 1780   5.178   1.659   2.809  0.1945  0.1333 -0.1712
 1301WN      WN 1781   1.423   6.154   0.218  0.1308  0.2308 -0.0670
 1302WN      WN 1782   3.199   3.493   3.446 -0.1558  0.1144 -0.1483
 1303WN      WN 1783   1.071   3.312   3.527  0.4231  0.0306  0.0556
 1304WN      WN 1784   1.437   3.251   4.984 -0.0834  0.1595  0.3170
 1305WN      WN 1785   1.366   0.623   6.123 -0.1211  0.0597  0.1797
 1306WN      WN 1786   3.529   2.277   4.193  0.0674 -0.4812  0.3971
 1307WN      WN 1787   2.012   6.156   4.773  0.0617  0.2288 -0.3502
 1308WN      WN 1788   2.037   0.655   4.035 -0.0497 -0.1184  0.5521
 1309WN      WN 1789   3.635   0.772   6.025 -0.1053 -0.0772 -0.0161
 1310WN      WN 1790   3.555   4.551   1.530 -0.2292 -0.1272  0.0211
 1311WN      WN 1791   5.947   3.974   5.519  0.0079  0.2457  0.0093
 1312WN      WN 1792   2.796   4.634   6.025  0.0032  0.0286  0.4539
 1313WN      WN 1793   0.640   4.029   1.263  0.0584  0.3159  0.0032
 1314WN      WN 1794   2.234   2.762   2.863 -0.2019 -0.1949 -0.3989
 1315WN      WN 1795   0.948   1.400   2.738 -0.1129 -0.2627  0.0697
 1316WN      WN 1796   0.396   4.991   5.015  0.0747  0.1447 -0.1892
 1317WN      WN 1797   2.533   0.940   6.360  0.0382 -0.1220  0.2020
 1318WN      WN 1798   3.468   4.172   6.502  0.1811 -0.2430  0.6377
 1319WN      WN 1799   3.663   3.879   2.665  0.1888  0.2546 -0.1096
 1320WN      WN 1800   0.213   4.872   3.133 -0.1919 -0.2262  0.2730
 1321WN      WN 1801   5.155   1.009   4.664 -0.0775 -0.3735 -0.0488
 1322WN      WN 1802   6.220   3.673   2.778  0.3145 -0.1688  0.0864
 1323WN      WN 1803   6.482   6.421   5.616  0.1398  0.1420 -0.0147
 1324WN      WN 1804   2.310   6.429   1.329  0.2464  0.4672 -0.2074
 1325WN      WN 1805   5.386   2.773   0.707 -0.2985 -0.1932  0.0900
 1326WN      WN 1806   4.267   1.032   0.169  0.1729  0.1364  0.1633
 1327WN      WN 1807   3.984   2.220   6.251 -0.0647 -0.2429  0.0170
 1328WN      WN 1808   0.292   6.246   1.222 -0.0602  0.2004  0.4190
 1329WN      WN 1809   6.214   5.034   3.193  0.1728 -0.3114 -0.1544
 1330WN      WN 1810   0.216   4.275   3.162  0.2440  0.1667 -0.1525
 1331WN      WN 1811   0.602   6.247   2.330 -0.1562  0.0332  0.0171
 1332WN      WN 1812   0.108   0.728   1.330 -0.3993 -0.1913 -0.1243
 1333WN      WN 1813   4.832   0.569   1.335  0.3030  0.1623  0.0515
 1334WN      WN 1814   1.653   0.825   1.255 -0.2895  0.0845  0.3280
 1335WN      WN 1815   2.993   2.894   4.147  0.0027  0.2891 -0.1422
 1336WN      WN 1816   4.797   2.701   2.470  0.0159 -0.1311 -0.1479
 1337WN      WN 1817   3.223   4.913   1.673 -0.1920 -0.1624 -0.3247
 1338WN      WN 1818   0.696   0.247   1.298  0.1439  0.0735 -0.0650
 1339WN      WN 1819   2.033   1.586   5.827  0.0428  0.2346 -0.0157
 1340WN      WN 1820   5.343   0.273   3.804  0.0730  0.1732  0.3883
 1341WN      WN 1821   2.574   0.568   3.120 -0.2069 -0.3342 -0.2356
 1342WN      WN 1822   6.388   2.480   4.203 -0.0886 -0.0868 -0.1777
 1343WN      WN 1823   2.294   0.074   4.951  0.1068  0.2463  0.2139
 1344WN      WN 1824   0.825   6.150   3.921 -0.0648 -0.1857 -0.0392
 1345WN      WN 1825   1.514   3.461   3.672  0.3491  0.1707 -0.1473
 1346WN      WN 1826   0.104   3.889   0.944 -0.0352  0.1140 -0.0628
 1347WN      WN 1827   4.305   4.823   4.556  0.1616 -0.1032  0.0304
 1348WN      WN 1828   5.599   0.049   1.062 -0.0793 -0.0588 -0.1037
 1349WN      WN 1829   3.325   6.047   6.548 -0.3635  0.0627 -0.1346
 1350WN      WN 1830   0.742   5.611   1.442  0.0587  0.0634  0.0787
 1351WN      WN 1831   5.564   2.252   3.524  0.0336 -0.1286  0.0086
 1352WN      WN 1832   6.259   0.180   0.280 -0.0939 -0.1868 -0.1962
 1353WN      WN 1833   0.206   0.222   5.802  0.3590 -0.1604  0.0310
 1354WN      WN 1834   3.723   6.027   2.475 -0.2869 -0.2252 -0.0540
 1355WN      WN 1835   2.119   5.551   4.757  0.0261 -0.0201 -0.2872
 1356WN      WN 1836   1.615   6.198   5.626 -0.0125  0.2375  0.2230
 1357WN      WN 1837   4.747   5.433   3.885 -0.2525 -0.0391 -0.3771
 1358WN      WN 1838   0.669   3.353   0.227 -0.3388 -0.2576 -0.1902
 1359WN      WN 1839   0.810   6.015   1.834  0.0908 -0.0985 -0.1654
 1360WN      WN 1840   5.501   5.640   4.964 -0.2154  0.1644 -0.3209
 1361WN      WN 1841   3.801   1.041   6.501  0.1563 -0.2027 -0.0070
 1362WN      WN 1842   6.326   3.200   6.079  0.1367 -0.1880  0.1174
 1363WN      WN 1843   0.950   2.225   3.054  0.1651  0.0869  0.0024
 1364WN      WN 1844   4.167   3.097   5.857 -0.2639  0.0957  0.0299
 1365WN      WN 1845   5.569   3.896   3.984  0.0784 -0.1030 -0.0205
 1366WN      WN 1846   3.604   1.518   5.522  0.2995  0.0005 -0.0558
 1367WN      WN 1847   1.228   4.361   0.303  0.1703  0.1336 -0.1457
 1368WN      WN 1848   5.380   5.769   1.586  0.1361 -0.0167  0.5401
 1369WN      WN 1849   4.576   5.148   3.090 -0.1247  0.1018  0.1327
 1370WN      WN 1850   4.268   3.478   5.476  0.0638 -0.0472 -0.2776
 1371WN      WN 1851   3.055   2.914   4.803  0.2502  0.4086 -0.5869
 1372WN      WN 1852   0.306   2.834   3.473 -0.1340 -0.0885 -0.2538
 1373WN      WN 1853   2.337   3.239   5.662  0.0210  0.0658 -0.1552
 1374WN      WN 1854   3.264   6.544   4.215 -0.4429 -0.0082  0.4238
 1375WN      WN 1855   5.521   3.770   1.620 -0.4257  0.3330 -0.2601
 1376WN      WN 1856   2.185   2.402   1.946 -0.0765  0.2575 -0.0429
 1377WN      WN 1857   0.143   0.487   0.437 -0.2393  0.0423  0.2156
 1378WN      WN 1858   0.642   2.243   4.113  0.1005  0.1785  0.1596
 1379WN      WN 1859   4.206   0.980   3.975 -0.0892 -0.0438  0.0001
 1380WN      WN 1860   0.874   5.291   4.995 -0.3613 -0.3964 -0.1424
 1381WN      WN 1861   1.373   5.556   1.518 -0.0023 -0.2532 -0.2757
 1382WN      WN 1862   4.479   3.961   3.403 -0.0363  0.2986 -0.1001
 1383WN      WN 1863   0.177   4.685   4.669  0.3126 -0.0781 -0.0971
 1384WN      WN 1864   3.205   5.597   0.326 -0.0130  0.0516 -0.2007
 1385WN      WN 1865   0.310   2.430   3.775  0.1473  0.2481  0.1378
 1386WN      WN 1866   4.163   4.857   3.190 -0.0972 -0.1880 -0.3588
 1387WN      WN 1867   6.521   0.443   6.554  0.3050  0.3615  0.1075
 1388WN      WN 1868   0.806   0.896   2.844  0.0771  0.0432  0.1843
 1389WN      WN 1869   4.389   4.933   5.027  0.1114 -0.1347 -0.2761
 1390WN      WN 1870   3.443   2.953   3.505 -0.1475  0.0345 -0.0640
 1391WN      WN 1871   1.120   2.123   0.193  0.0787  0.0879 -0.3412
 1392WN      WN 1872   0.407   5.163   4.523  0.1012 -0.1465 -0.0305
 1393WN      WN 1873   5.593   1.241   4.653 -0.4498 -0.1474 -0.0962
 1394WN      WN 1874   1.639   5.628   3.922  0.1132 -0.0440 -0.2484
 1395WN      WN 1875   3.046   1.119   0.692 -0.0110 -0.1085  0.4232
 1396WN      WN 1876   5.715   4.951   1.140  0.0595  0.1429  0.1884
 1397WN      WN 1877   2.894   1.783   2.647  0.1967  0.0001  0.0748
 1398WN      WN 1878   1.678   6.501   6.487  0.0872  0.1277  0.1279
 1399WN      WN 1879   1.604   2.274   3.196 -0.4311  0.0088  0.1232
 1400WN      WN 1880   0.817   5.669   3.066  0.3322  0.0005 -0.0013
 1401WN      WN 1881   3.593   0.021   5.564  0.1722  0.0336 -0.0471
 1402WN      WN 1882   5.044   4.409   1.112 -0.3573  0.1398 -0.0813
 1403WN      WN 1883   0.370   1.126   1.659 -0.1304  0.0447  0.1155
 1404WN      WN 1884   2.557   4.837   3.097  0.0693 -0.1187 -0.1416
 1405WN      WN 1885   0.727   5.261   6.022 -0.1248  0.2400  0.0953
 1406WN      WN 1886   0.539   4.172   2.753  0.3530  0.0372 -0.0936
 1407WN      WN 1887   5.930   3.872   1.863  0.2923 -0.0344  0.1522
 1408WN      WN 1888   2.953   2.055   4.733 -0.0781 -0.0884 -0.3500
 1409WN      WN 1889   1.684   6.020   3.012 -0.3514 -0.1635 -0.0783
 1410WN      WN 1890   3.523   5.159   3.335 -0.2261 -0.4192 -0.1469
 1411WN      WN 1891   6.545   4.562   1.424  0.2088  0.2167 -0.0192
 1412WN      WN 1892   1.004   6.001   0.018  0.2134 -0.2366  0.1340
 1413WN      WN 1893   0.339   0.825   0.817  0.2453 -0.2654  0.0427
 1414WN      WN 1894   0.183   5.154   6.209 -0.4065 -0.0809  0.0186
 1415WN      WN 1895   6.440   5.900   3.114 -0.1653  0.0360 -0.1252
 1416WN      WN 1896   3.385   2.660   4.474 -0.1739  0.0248 -0.2833
 1417WN      WN 1897   2.573   5.272   2.341  0.1775  0.0889 -0.0746
 1418WN      WN 1898   2.825   6.287   5.850  0.0313 -0.2965  0.0960
 1419WN      WN 1899   1.525   6.026   4.887  0.2004 -0.0104 -0.2672
 1420WN      WN 1900   3.584   1.039   2.335  0.1094  0.0857  0.0623
 1421WN      WN 1901   6.320   5.355   1.702 -0.2173  0.1434 -0.2413
 1422WN      WN 1902   4.281   5.079   1.034 -0.1908  0.1747 -0.4910
 1423WN      WN 1903   2.645   1.896   1.158 -0.0298 -0.0162 -0.2110
 1424WN      WN 1904   0.121   2.600   4.753 -0.0909  0.2570  0.3840
 1425WN      WN 1905   2.794   3.058   5.734 -0.2994 -0.1160 -0.0062
 1426WN      WN 1906   4.240   6.312   6.177  0.0847 -0.1385 -0.1159
 1427WN      WN 1907   1.322   3.822   3.890  0.2013 -0.0926  0.0219
 1428WN      WN 1908   1.010   4.003   2.737  0.0648 -0.1353 -0.0265
 1429WN      WN 1909   3.796   2.667   0.039 -0.0174 -0.3419  0.1160
 1430WN      WN 1910   6.362   1.670   0.700 -0.0415 -0.0754 -0.1085
 1431WN      WN 1911   1.199   3.267   0.300 -0.0472 -0.1472  0.2343
 1432WN      WN 1912   1.569   0.930   1.743  0.1511  0.1192 -0.0669
 1433WN      WN 1913   1.299   5.004   4.653  0.0430 -0.0119 -0.1443
 1434WN      WN 1914   0.909   6.190   0.526 -0.2631  0.1558 -0.1417
 1435WN      WN 1915   0.937   5.494   1.946 -0.2385 -0.0322  0.0920
 1436WN      WN 1916   1.836   4.202   5.136  0.3145 -0.1619 -0.0500
 1437WN      WN 1917   3.285   0.986   3.317 -0.2770  0.1557  0.2684
 1438WN      WN 1918   1.561   5.563   6.227  0.0301  0.0156 -0.1122
 1439WN      WN 1919   0.620   0.625   2.139 -0.1038 -0.1300 -0.2035
 1440WN      WN 1920   5.651   5.523   1.210 -0.2096  0.2479 -0.1853
 1441WN      WN 1921   2.631   0.783   2.131 -0.0186 -0.1512 -0.2034
 1442WN      WN 1922   0.892   3.676   1.794  0.0522  0.3840 -0.1748
 1443WN      WN 1923   1.429   6.016   1.632  0.4064 -0.1566 -0.0853
 1444WN      WN 1924   5.243   5.463   5.414 -0.5947  0.1804  0.2259
 1445WN      WN 1925   0.775   3.674   3.755  0.1806 -0.3803 -0.2195
 1446WN      WN 1926   2.009   0.618   0.438  0.1028  0.0964  0.0054
 1447WN      WN 1927   5.142   4.826   6.528  0.1222 -0.0660 -0.1060
 1448WN      WN 1928   6.529   5.861   0.268  0.0953 -0.0465  0.1056
 1449WN      WN 1929   5.660   5.392   4.569 -0.1063 -0.2904 -0.1459
 1450WN      WN 1930   0.340   0.229   3.507  0.3614 -0.2366 -0.2572
 1451WN      WN 1931   5.365   0.440   4.997 -0.1389 -0.1532 -0.1147
 1452WN      WN 1932   4.015   6.421   1.655 -0.0535  0.1668 -0.1586
 1453WN      WN 1933   2.598   6.065   3.191  0.3260 -0.0417 -0.1131
 1454WN      WN 1934   1.044   0.121   0.953  0.0294 -0.2786  0.1628
 1455WN      WN 1935   5.340   1.185   6.063 -0.3777  0.3201 -0.1734
 1456WN      WN 1936   6.034   5.563   0.868  0.0328 -0.0027 -0.0941
 1457WN      WN 1937   4.227   1.362   2.647  0.4580 -0.2660  0.2236
 1458WN      WN 1938   1.286   1.141   6.070  0.0582  0.1342 -0.0347
 1459WN      WN 1939   1.251   3.684   5.167 -0.1010  0.2035 -0.1045
 1460WN      WN 1940   1.952   2.877   0.500 -0.1474 -0.0210 -0.0653
 1461WN      WN 1941   4.470   2.841   5.405  0.2945  0.0201  0.0031
 1462WN      WN 1942   3.875   3.682   4.523 -0.0431 -0.2989 -0.0834
 1463WN      WN 1943   3.036   2.207   6.099  0.0080  0.4328 -0.0281
 1464WN      WN 1944   0.913   0.897   5.266 -0.3510 -0.3560  0.1070
 1465WN      WN 1945   3.737   0.407   3.958 -0.1657  0.0143 -0.0877
 1466WN      WN 1946   2.888   4.242   4.780  0.0403 -0.0636  0.2170
 1467WN      WN 1947   3.883   0.719   0.309  0.1545 -0.2042  0.2024
 1468WN      WN 1948   3.169   0.420   2.139  0.1185  0.0204 -0.3500
 1469WN      WN 1949   5.095   4.368   2.080 -0.0410 -0.1178 -0.1321
 1470WN      WN 1950   5.010   4.606   6.089 -0.0313 -0.1172  0.2310
 1471WN      WN 1951   0.229   5.515   2.479  0.3903  0.0643 -0.0011
 1472WN      WN 1952   0.468   5.151   5.489 -0.1222  0.1079 -0.1097
 1473WN      WN 1953   2.309   5.208   2.782  0.1089  0.0123  0.1032
 1474WN      WN 1954   6.087   1.159   0.026 -0.1964 -0.1540  0.0451
 1475WN      WN 1955   6.171   3.683   0.766 -0.5680 -0.0380 -0.0260
 1476WN      WN 1956   5.707   5.216   4.093 -0.2567  0.0029  0.2515
 1477WN      WN 1957   1.446   5.700   2.017 -0.0662  0.4156  0.1010
 1478WN      WN 1958   5.911   3.909   2.368  0.3155  0.0050  0.0857
 1479WN      WN 1959   4.689   2.878   3.356 -0.0413  0.1720 -0.0548
 1480WN      WN 1960   3.456   0.076   6.524  0.4086  0.0198  0.2099
 1481WN      WN 1961   4.615   0.247   3.092 -0.0920 -0.0394  0.1759
 1482WN      WN 1962   2.803   6.567   3.419 -0.3142 -0.0128  0.1385
 1483WN      WN 1963   2.054   4.791   3.062 -0.1497  0.4567 -0.1074
 1484WN      WN 1964   1.712   4.094   0.221 -0.0712  0.0676  0.2609
 1485WN      WN 1965   3.848   1.632   3.393 -0.1379 -0.1271  0.1386
 1486WN      WN 1966   3.767   0.622   1.095  0.2925 -0.1202 -0.0893
 1487WN      WN 1967   0.655   5.745   4.264 -0.2086 -0.1677 -0.1617
 1488WN      WN 1968   2.122   4.794   0.630 -0.3260 -0.0229 -0.4411
 1489WN      WN 1969   1.393   4.668   2.990 -0.1707  0.1824  0.1791
 1490WN      WN 1970   1.081   1.105   4.823  0.1298  0.3809  0.1248
 1491WN      WN 1971   3.889   3.151   4.634 -0.1086 -0.2358 -0.2266
 1492WN      WN 1972   0.715   2.991   5.810  0.3207  0.1601 -0.1802
 1493WN      WN 1973   3.942   5.831   1.866 -0.0112  0.2544 -0.0423
 1494WN      WN 1974   6.512   0.882   4.748  0.1335 -0.2406 -0.4990
 1495WN      WN 1975   1.212   4.763   1.096  0.2135 -0.2926  0.1384
 1496WN      WN 1976   1.933   0.656   5.713 -0.0325  0.3640  0.1789
 1497WN      WN 1977   4.782   5.361   4.435  0.1712  0.4063 -0.0918
 1498WN      WN 1978   1.923   5.573   2.752 -0.2194  0.1843  0.2018
 1499WN      WN 1979   0.951   5.077   3.010 -0.0858 -0.0313 -0.0994
 1500WN      WN 1980   2.627   5.539   6.421  0.1567 -0.0517  0.2145
 1501WN      WN 1981   1.476   2.850   4.193  0.4896 -0.3403 -0.0271
 1502WN      WN 1982   0.563   4.265   5.660  0.1435  0.1557 -0.1780
 1503WN      WN 1983   1.291   1.897   2.962 -0.2519  0.1740 -0.1769
 1504WN      WN 1984   0.484   5.653   4.842 -0.2144 -0.4341 -0.1296
 1505WN      WN 1985   6.030   5.095   2.702  0.0843  0.1173  0.1428
 1506WN      WN 1986   2.009   4.949   1.724  0.1218 -0.0838 -0.0940
 1507WN      WN 1987   3.652   3.924   4.999  0.3101 -0.0448  0.0992
 1508WN      WN 1988   3.108   5.653   0.815 -0.0323 -0.3881  0.0097
 1509WN      WN 1989   4.113   5.461   0.250 -0.1226 -0.3384  0.1433
 1510WN      WN 1990   3.138   6.342   1.841  0.0451  0.2309 -0.0183
 1511WN      WN 1991   4.750   5.217   1.497  0.0113  0.0148  0.3933
 1512WN      WN 1992   6.115   3.209   3.008  0.0883 -0.1488  0.3547
 1513WN      WN 1993   0.602   1.565   1.357 -0.2533  0.1577  0.0417
 1514WN      WN 1994   2.059   2.041   5.224  0.1224  0.0365  0.0475
 1515WN      WN 1995   0.780   5.867   3.516  0.2713  0.0679  0.2824
 1516WN      WN 1996   0.590   4.431   2.177 -0.0962 -0.0522 -0.4324
 1517WN      WN 1997   5.725   2.803   4.458 -0.2126 -0.1306 -0.1701
 1518WN      WN 1998   2.794   5.383   2.974  0.0955 -0.1268 -0.0246
 1519WN      WN 1999   2.902   4.442   1.333  0.0456  0.1502  0.0867
 1520WN      WN 2000   0.871   2.870   3.432  0.2527 -0.0323 -0.3754
 1521WN      WN 2001   4.809   6.442   6.080  0.2234  0.0547 -0.1773
 1522WN      WN 2002   4.634   0.017   5.437 -0.0558 -0.1987 -0.2947
 1523WN      WN 2003   3.896   4.064   1.346 -0.0487  0.1058  0.1118
 1524WN      WN 2004   3.598   6.159   5.223  0.1971  0.2064 -0.3028
 1525WN      WN 2005   0.744   4.277   6.179  0.1048  0.4880  0.2098
 1526WN      WN 2006   3.885   4.830   0.779  0.1145  0.1248  0.1789
 1527WN      WN 2007   6.371   2.852   0.958  0.2753 -0.2053  0.1647
 1528WN      WN 2008   6.363   0.035   2.319  0.3968 -0.0316 -0.3679
 1529WN      WN 2009   4.154   4.531   1.272  0.2109 -0.0206  0.4141
 1530WN      WN 2010   6.547   5.908   5.930  0.0346  0.1386 -0.2586
 1531WN      WN 2011   4.352   1.423   5.710 -0.1208  0.2056  0.0061
 1532WN      WN 2012   0.701   5.631   5.339  0.0068 -0.0252  0.1372
 1533WN      WN 2013   6.547   4.092   5.519 -0.1945  0.0194  0.0490
 1534WN      WN 2014   0.222   5.516   5.682 -0.1533  0.3674  0.3056
 1535WN      WN 2015   6.023   4.193   3.435 -0.0483 -0.1248  0.3174
 1536WN      WN 2016   1.398   5.175   1.879  0.0076 -0.3983 -0.0828
 1537WN      WN 2017   6.028   4.164   4.022 -0.1029 -0.4105  0.1912
 1538WN      WN 2018   5.831   3.668   3.092  0.1354  0.0013 -0.0551
 1539WN      WN 2019   1.523   4.562   1.956 -0.1909  0.0732  0.2141
 1540WN      WN 2020   6.376   5.436   0.425 -0.2848 -0.0223 -0.1104
 1541WN      WN 2021   1.393   4.159   4.465 -0.2106 -0.3255  0.0483
 1542WN      WN 2022   3.299   5.508   3.813 -0.1869 -0.0553  0.1353
 1543WN      WN 2023   2.352   3.094   3.353  0.1545  0.0872  0.2469
 1544WN      WN 2024   4.668   0.464   2.559  0.3613 -0.4626 -0.0414
 1545WN      WN 2025   5.285   2.941   0.153 -0.1902  0.0674 -0.1200
 1546WN      WN 2026   2.771   2.096   5.167  0.3415  0.0757 -0.2633
 1547WN      WN 2027   2.274   4.183   2.575 -0.2761  0.2172 -0.3743
 1548WN      WN 2028   1.010   5.986   2.279  0.0354 -0.2475  0.0062
 1549WN      WN 2029   6.438   5.590   3.641 -0.0575  0.0839  0.1474
 1550WN      WN 2030   6.075   0.096   6.428  0.2466  0.0123 -0.2865
 1551WN      WN 2031   4.790   5.073   6.155  0.0384 -0.0709  0.0528
 1552WN      WN 2032   1.423   0.909   5.655  0.0864  0.2892  0.1560
 1553WN      WN 2033   6.552   2.826   5.187 -0.1984 -0.1137 -0.4458
 1554WN      WN 2034   5.989   4.954   0.042  0.2380  0.0548 -0.0995
 1555WN      WN 2035   1.661   5.695   5.733 -0.1219 -0.0937  0.0452
 1556WN      WN 2036   6.428   3.815   3.897  0.0666 -0.2402  0.1716
 1557WN      WN 2037   0.376   4.156   4.557  0.0395  0.1376  0.1358
 1558WN      WN 2038   4.192   6.329   1.070 -0.0340 -0.1453  0.0835
 1559WN      WN 2039   1.586   0.495   4.687  0.4399  0.2979  0.1409
 1560WN      WN 2040   2.130   1.846   1.108 -0.3627  0.0744  0.2600
 1561WN      WN 2041   5.015   2.827   5.478  0.0311  0.0874 -0.1402
 1562WN      WN 2042   5.341   3.730   6.098  0.0146 -0.0229 -0.0502
 1563WN      WN 2043   2.781   0.378   2.497  0.1288 -0.0482 -0.0468
 1564WN      WN 2044   5.934   5.471   0.109 -0.0030 -0.1747  0.1737
 1565WN      WN 2045   1.091   0.583   0.596  0.1372  0.1209 -0.1026
 1566WN      WN 2046   2.150   4.564   0.127  0.3404  0.1299  0.3238
 1567WN      WN 2047   6.162   0.916   1.276 -0.0389 -0.0409 -0.0101
 1568WN      WN 2048   0.114   3.298   0.989 -0.0595 -0.0350  0.2107
 1569WN      WN 2049   5.413   0.480   0.889 -0.2474 -0.1873  0.2470
 1570WN      WN 2050   4.330   1.218   0.703 -0.0559  0.0719  0.2556
 1571WN      WN 2051   1.163   4.238   2.193  0.3297 -0.3412 -0.0466
 1572WN      WN 2052   1.611   0.270   0.262 -0.0487  0.0030  0.0013
 1573WN      WN 2053   3.964   4.136   4.658  0.5565 -0.3122  0.1070
 1574WN      WN 2054   2.325   5.478   1.891  0.0016 -0.2575 -0.1577
 1575WN      WN 2055   2.299   3.180   1.415 -0.1850  0.0749  0.1698
 1576WN      WN 2056   0.221   2.110   4.396  0.0787 -0.0589 -0.0093
 1577WN      WN 2057   1.220   5.804   4.255  0.4262 -0.1369 -0.3309
 1578WN      WN 2058   5.681   5.183   1.648  0.0020  0.3265  0.2737
 1579WN      WN 2059   5.118   2.966   2.767 -0.0677 -0.3927  0.3235
 1580WN      WN 2060   4.097   6.028   3.417 -0.1782  0.0768  0.4304
 1581WN      WN 2061   6.237   4.777   1.901  0.0373 -0.1153 -0.1895
 1582WN      WN 2062   2.161   3.558   1.045  0.5250 -0.0672  0.0538
 1583WN      WN 2063   1.007   4.378   1.269 -0.2291  0.1002 -0.1194
 1584WN      WN 2064   2.638   0.875   3.886 -0.0199 -0.0710  0.1516
 1585WN      WN 2065   5.220   2.716   2.156 -0.2071  0.0774 -0.2689
 1586WN      WN 2066   3.593   5.834   6.065 -0.2511 -0.0544  0.1181
 1587WN      WN 2067   4.798   0.584   5.487 -0.0049 -0.0888  0.0140
 1588WN      WN 2068   2.236   4.977   3.515  0.1700  0.3743 -0.2694
 1589WN      WN 2069   4.064   0.155   3.020 -0.1219  0.1783 -0.3553
 1590WN      WN 2070   4.192   4.934   5.514  0.0125  0.1133 -0.0766
 1591WN      WN 2071   2.545   2.605   5.842  0.0216 -0.1538  0.0915
 1592WN      WN 2072   5.112   3.906   1.980 -0.0064 -0.2584  0.0136
 1593WN      WN 2073   5.021   0.620   3.890 -0.3843  0.0977  0.2894
 1594WN      WN 2074   5.928   5.923   0.277  0.3178  0.1500  0.1005
 1595WN      WN 2075   4.210   0.623   6.455 -0.0653  0.1714 -0.1803
 1596WN      WN 2076   5.543   5.110   0.121 -0.0678 -0.0137  0.3134
 1597WN      WN 2077   2.826   5.920   0.223  0.0582 -0.1379 -0.1488
 1598WN      WN 2078   0.304   6.137   1.682 -0.0493 -0.2295 -0.4286
 1599WN      WN 2079   4.762   6.498   4.696 -0.0206 -0.1250 -0.0735
 1600WN      WN 2080   0.120   0.769   6.146 -0.0661  0.0648 -0.2653
 1601WN      WN 2081   1.836   4.042   1.498  0.2258  0.0685 -0.0258
 1602WN      WN 2082   0.328   4.321   0.121  0.1231 -0.2442  0.4978
 1603WN      WN 2083   3.906   5.481   3.523 -0.1579 -0.0906 -0.0771
 1604WN      WN 2084   6.482   5.835   1.714  0.0659 -0.0033  0.1483
 1605WN      WN 2085   0.855   0.359   6.434  0.0087 -0.2585 -0.0231
 1606WN      WN 2086   4.930   3.824   0.110  0.4101  0.0584  0.3411
 1607WN      WN 2087   4.884   4.019   4.713 -0.0056 -0.2311  0.1827
 1608WN      WN 2088   5.376   4.048   4.687  0.0279  0.0205 -0.2551
 1609WN      WN 2089   0.676   2.758   3.843  0.0444  0.1240  0.0938
 1610WN      WN 2090   6.545   4.769   6.505  0.2876  0.0857  0.1000
 1611WN      WN 2091   4.851   1.965   5.519 -0.0652 -0.4927 -0.1058
 1612WN      WN 2092   1.286   2.669   3.116  0.2245 -0.0546 -0.0371
 1613WN      WN 2093   4.023   3.633   3.201 -0.0227 -0.0066  0.2006
 1614WN      WN 2094   2.116   0.297   4.405  0.0140 -0.2785 -0.1142
 1615WN      WN 2095   6.264   6.164   6.477  0.3416 -0.1072  0.2178
 1616WN      WN 2096   2.391   3.812   3.020 -0.1139  0.0650 -0.0047
 1617WN      WN 2097   2.553   0.144   6.447  0.0054  0.0792  0.2718
 1618WN      WN 2098   4.450   6.541   2.084  0.1039 -0.0718 -0.3377
 1619WN      WN 2099   5.436   1.138   5.561  0.0339  0.0304  0.1361
 1620WN      WN 2100   3.534   5.097   4.615  0.1900  0.1844  0.1471
 1621WN      WN 2101   3.506   0.717   1.883  0.0972  0.0799 -0.0687
 1622WN      WN 2102   4.745   2.860   5.926 -0.3885  0.2537 -0.1574
 1623WN      WN 2103   5.250   3.668   4.383  0.0609  0.1386  0.1391
 1624WN      WN 2104   4.337   0.075   2.591 -0.0277  0.0019  0.3176
 1625WN      WN 2105   3.549   6.144   1.623 -0.3552  0.0043  0.1732
 1626WN      WN 2106   0.441   4.771   2.716  0.1122 -0.1002  0.0476
 1627WN      WN 2107   1.582   5.640   3.393  0.1351  0.1119 -0.0335
 1628WN      WN 2108   3.347   0.526   1.472  0.0643 -0.4545  0.4185
 1629WN      WN 2109   3.900   4.893   4.276 -0.1932 -0.1744 -0.1598
 1630WN      WN 2110   2.432   6.108   0.873  0.1331 -0.2815 -0.0823
 1631WN      WN 2111   1.416   3.433   4.204  0.2367  0.1389  0.1958
 1632WN      WN 2112   2.221   1.888   3.469  0.1625 -0.0361 -0.1177
 1633WN      WN 2113   4.588   4.704   1.308 -0.1213 -0.3505  0.2871
 1634WN      WN 2114   2.207   2.054   5.858  0.0849 -0.2399 -0.2919
 1635WN      WN 2115   3.295   1.164   5.646  0.3184  0.1682 -0.1807
 1636WN      WN 2116   1.813   3.131   5.664  0.2004  0.2582  0.1114
 1637WN      WN 2117   1.191   4.758   3.457 -0.0557 -0.1773  0.0950
 1638WN      WN 2118   5.621   3.548   4.779  0.1207 -0.1812  0.2865
 1639WN      WN 2119   2.000   0.844   6.254  0.1508 -0.2802 -0.1507
 1640WN      WN 2120   5.373   3.692   5.389  0.3146 -0.1814 -0.1066
 1641WN      WN 2121   2.522   0.397   3.944  0.0198 -0.1279  0.3251
 1642WN      WN 2122   2.027   0.937   0.875  0.2514  0.0296 -0.2264
 1643WN      WN 2123   1.935   1.256   1.633  0.0177 -0.2451  0.1306
 1644WN      WN 2124   4.298   1.479   3.815  0.0589  0.0435  0.2720
 1645WN      WN 2125   5.894   2.045   0.207 -0.0215 -0.0743 -0.1114
 1646WN      WN 2126   3.511   5.235   0.775  0.0919  0.0638 -0.2684
 1647WN      WN 2127   5.258   4.846   0.933  0.0325 -0.0157  0.1890
 1648WN      WN 2128   1.581   4.837   1.429 -0.0457 -0.1780  0.2418
 1649WN      WN 2129   6.375   2.694   6.072  0.0480  0.3027 -0.0762
 1650WN      WN 2130   4.266   4.751   2.728 -0.0090  0.2097  0.1283
 1651WN      WN 2131   3.987   3.943   0.292  0.0688  0.1151 -0.0818
 1652WN      WN 2132   2.776   6.534   2.851  0.0530 -0.3059 -0.4358
 1653WN      WN 2133   1.797   1.721   4.648 -0.1032 -0.4329 -0.3672
 1654WN      WN 2134   4.163   5.219   2.686 -0.0746 -0.3650  0.1268
 1655WN      WN 2135   6.548   1.250   6.348  0.0055  0.4699  0.0972
 1656WN      WN 2136   5.925   3.002   4.038 -0.3278  0.0604  0.1155
 1657WN      WN 2137   0.534   2.497   2.658  0.2713 -0.3244  0.2521
 1658WN      WN 2138   0.193   3.874   5.042  0.0301 -0.1105 -0.0995
 1659WN      WN 2139   1.505   2.401   6.261 -0.0229 -0.0725  0.1402
 1660WN      WN 2140   2.536   1.511   6.022  0.0651  0.2373 -0.3264
 1661WN      WN 2141   1.726   3.034   1.416 -0.1801  0.0499  0.1607
 1662WN      WN 2142   6.496   0.567   3.243 -0.0087 -0.1889  0.0085
 1663WN      WN 2143   0.895   0.864   6.270 -0.1989  0.0065 -0.2502
 1664WN      WN 2144   0.764   3.852   2.269  0.1350 -0.3389  0.2904
 1665WN      WN 2145   6.541   5.131   4.131  0.0331  0.0217 -0.1495
 1666WN      WN 2146   1.171   0.805   4.404 -0.2002  0.0616  0.0520
 1667WN      WN 2147   5.983   2.850   5.919  0.1872 -0.0734 -0.2204
 1668WN      WN 2148   2.240   4.623   4.315 -0.1176 -0.1956  0.3090
 1669WN      WN 2149   6.497   6.476   1.520 -0.3436 -0.2454  0.0102
 1670WN      WN 2150   6.261   0.234   5.288 -0.2756  0.0104  0.2509
 1671WN      WN 2151   1.403   0.195   2.426 -0.1332  0.2944 -0.0107
 1672WN      WN 2152   1.980   4.626   5.832  0.2527  0.0499 -0.0419
 1673WN      WN 2153   6.162   4.705   2.424 -0.1625 -0.0162  0.0848
 1674WN      WN 2154   3.148   6.028   3.793  0.1969 -0.0579  0.0101
 1675WN      WN 2155   3.589   2.059   3.713 -0.0239 -0.0246  0.1143
 1676WN      WN 2156   3.162   1.842   6.490  0.2808  0.3039  0.1235
 1677WN      WN 2157   4.956   5.018   5.111  0.5234 -0.0490  0.1459
 1678WN      WN 2158   1.652   4.976   6.229 -0.0331  0.4190  0.2622
 1679WN      WN 2159   1.337   4.102   6.493 -0.1803  0.4971  0.0469
 1680WN      WN 2160   5.365   4.274   1.686 -0.2319  0.1379  0.0975
 1681WN      WN 2161   3.015   5.143   0.720  0.1009 -0.2039  0.0190
 1682WN      WN 2162   1.456   3.267   1.936  0.0187  0.0206 -0.0967
 1683WN      WN 2163   2.929   3.002   5.245  0.0124 -0.0459  0.1093
 1684WN      WN 2164   4.522   6.336   3.223  0.1296  0.1055  0.1414
 1685WN      WN 2165   4.075   6.488   4.595 -0.1801 -0.1095 -0.2096
 1686WN      WN 2166   5.711   5.361   3.590 -0.0460 -0.1364 -0.0464
 1687WN      WN 2167   4.171   0.269   0.869  0.0893 -0.0379  0.3583
 1688WN      WN 2168   1.577   1.402   2.881 -0.1980 -0.0667  0.1485
 1689WN      WN 2169   6.053   4.472   0.341 -0.1435 -0.2978 -0.2673
 1690WN      WN 2170   3.959   5.363   0.706 -0.2454 -0.1013  0.0262
 1691WN      WN 2171   1.487   4.567   2.460  0.0742  0.5948 -0.1041
 1692WN      WN 2172   5.954   1.571   3.277  0.1672 -0.5135  0.2873
 1693WN      WN 2173   2.763   0.544   6.192 -0.0450  0.4902 -0.1205
 1694WN      WN 2174   2.489   3.334   5.125  0.0797  0.2204  0.1655
 1695WN      WN 2175   1.239   1.024   3.021 -0.0377 -0.0839  0.2335
 1696WN      WN 2176   3.496   3.066   4.999  0.3008  0.2529  0.2195
 1697WN      WN 2177   2.028   2.449   2.453 -0.1914 -0.0854 -0.1729
 1698WN      WN 2178   0.586   0.409   0.816 -0.3722  0.1854 -0.2612
 1699WN      WN 2179   4.510   3.657   3.842 -0.0390  0.3426  0.0450
 1700WN      WN 2180   5.922   6.353   2.266  0.0299 -0.1690 -0.2274
 1701WN      WN 2181   6.144   4.511   6.065 -0.2179 -0.1117 -0.0307
 1702WN      WN 2182   0.183   2.514   5.789  0.0198  0.3847  0.3367
 1703WN      WN 2183   2.636   2.607   4.976  0.0374  0.0508 -0.0161
 1704WN      WN 2184   5.452   5.338   2.351 -0.0492 -0.0560 -0.0676
 1705WN      WN 2185   5.984   4.650   2.892 -0.3504  0.0411 -0.2238
 1706WN      WN 2186   4.651   1.881   3.164  0.0201  0.4141  0.1613
 1707WN      WN 2187   5.749   5.883   2.064 -0.1148 -0.4380 -0.1624
 1708WN      WN 2188   0.678   4.759   3.241 -0.1068 -0.1757 -0.0378
 1709WN      WN 2189   5.974   1.215   5.514 -0.0884  0.1089 -0.0698
 1710WN      WN 2190   2.853   3.599   5.494 -0.2140  0.1459  0.6144
 1711WN      WN 2191   5.855   6.358   3.599 -0.0921 -0.1042 -0.1217
 1712WN      WN 2192   1.824   4.294   0.740  0.3375 -0.0316 -0.1149
 1713WN      WN 2193   0.980   1.233   5.662  0.0482  0.1499 -0.0060
 1714WN      WN 2194   4.650   3.671   0.530  0.2832  0.2047  0.1044
 1715WN      WN 2195   4.606   5.493   2.747  0.2879 -0.5706  0.0394
 1716WN      WN 2196   0.045   1.403   2.779  0.2820  0.1507  0.1381
 1717WN      WN 2197   3.269   4.568   6.070 -0.3500  0.2218 -0.3261
 1718WN      WN 2198   1.186   6.504   2.982 -0.0670  0.1307 -0.0246
 1719WN      WN 2199   0.999   3.198   4.004  0.1449  0.0624  0.1364
 1720WN      WN 2200   5.080   5.179   2.889  0.1039 -0.0421  0.0953
 1721WN      WN 2201   5.821   2.337   2.389  0.0419 -0.0573 -0.2656
 1722WN      WN 2202   2.882   0.575   3.601  0.1154 -0.0168 -0.0611
 1723WN      WN 2203   0.273   6.086   6.421  0.2407 -0.0792 -0.0120
 1724WN      WN 2204   1.876   2.687   4.995 -0.3781 -0.0569  0.1548
 1725WN      WN 2205   1.575   3.992   2.510  0.0755 -0.4095 -0.1244
 1726WN      WN 2206   5.628   0.582   4.160 -0.1448 -0.0590 -0.1816
 1727WN      WN 2207   5.376   3.136   4.727 -0.3781  0.1649  0.0366
 1728WN      WN 2208   6.284   0.891   4.162 -0.1325 -0.1591  0.0351
 1729WN      WN 2209   4.843   4.984   4.101  0.2181  0.1918  0.1658
 1730WN      WN 2210   5.583   2.303   0.563 -0.0927 -0.1371  0.1912
 1731WN      WN 2211   6.107   4.477   5.522 -0.0698  0.0011 -0.3870
 1732WN      WN 2212   1.408   6.291   2.123  0.2530 -0.1020 -0.1413
 1733WN      WN 2213   5.359   4.533   4.947 -0.3634  0.3987  0.0869
 1734WN      WN 2214   2.001   0.430   3.157  0.4014 -0.0723 -0.2501
 1735WN      WN 2215   5.873   2.784   0.678  0.2069  0.0884  0.3106
 1736WN      WN 2216   4.981   3.905   0.928  0.1982 -0.0931  0.1052
 1737WN      WN 2217   1.928   6.257   0.900  0.1051  0.1922 -0.1899
 1738WN      WN 2218   3.440   2.002   4.739 -0.0309 -0.0313 -0.0550
 1739WN      WN 2219   4.649   3.355   5.892  0.2740  0.0752  0.5306
 1740WN      WN 2220   4.136   3.628   5.943 -0.0574 -0.3887 -0.1361
 1741WN      WN 2221   3.650   0.293   0.346  0.3458 -0.0806 -0.2812
 1742WN      WN 2222   2.339   4.668   5.290  0.0460  0.1525 -0.2706
 1743WN      WN 2223   6.448   1.228   5.510 -0.0355 -0.0969  0.0420
 1744WN      WN 2224   1.189   3.114   5.984  0.1639 -0.3493  0.0743
 1745WN      WN 2225   2.529   6.281   0.382 -0.1186 -0.1568 -0.0854
 1746WN      WN 2226   6.519   1.321   1.331  0.1114  0.2417 -0.2312
 1747WN      WN 2227   2.613   1.246   4.521 -0.2245 -0.1068  0.5274
 1748WN      WN 2228   4.593   1.475   5.264 -0.0191  0.1310  0.0980
 1749WN      WN 2229   3.459   2.387   0.955 -0.1631  0.1047 -0.2026
 1750WN      WN 2230   5.213   2.054   4.438  0.3135  0.0819 -0.2662
 1751WN      WN 2231   5.696   3.943   5.087 -0.1751  0.1781  0.0869
 1752WN      WN 2232   6.358   5.270   6.537  0.3147 -0.0160  0.0280
 1753WN      WN 2233   5.859   3.518   5.296 -0.0941 -0.1891  0.0704
 1754WN      WN 2234   0.244   2.976   6.066  0.1279  0.0868  0.2179
 1755WN      WN 2235   4.422   6.143   2.521 -0.1437  0.0078  0.0168
 1756WN      WN 2236   6.515   6.480   4.987 -0.1873 -0.1202 -0.3661
 1757WN      WN 2237   3.993   5.357   2.028 -0.0935  0.0209  0.1426
 1758WN      WN 2238   0.376   0.778   5.049  0.0308 -0.0103 -0.1602
 1759WN      WN 2239   1.420   0.072   5.494 -0.0433 -0.0296 -0.0291
 1760WN      WN 2240   3.272   1.770   4.072 -0.0441  0.3333 -0.0593
 1761WN      WN 2241   1.324   3.716   1.600 -0.3144  0.2545 -0.0384
 1762WN      WN 2242   1.190   3.915   5.612 -0.3464 -0.1225 -0.1023
 1763WN      WN 2243   0.025   0.004   6.300 -0.2982  0.0281  0.0655
 1764WN      WN 2244   3.336   5.858   4.879 -0.3654  0.2914  0.2047
 1765WN      WN 2245   5.932   2.552   6.316 -0.2150  0.0644 -0.1365
 1766WN      WN 2246   1.218   1.978   3.467 -0.0711  0.0782  0.0416
 1767WN      WN 2247   5.678   3.184   5.712  0.1461  0.0410 -0.1845
 1768WN      WN 2248   5.906   2.413   3.844 -0.2482  0.1746 -0.1296
 1769WN      WN 2249   0.756   5.494   0.484 -0.1684 -0.1873  0.0662
 1770WN      WN 2250   5.187   1.497   3.824  0.0650  0.0701 -0.3475
 1771WN      WN 2251   0.590   1.681   5.044  0.2780 -0.0195 -0.2239
 1772WN      WN 2252   5.891   4.770   4.004 -0.1340 -0.3183  0.1093
 1773WN      WN 2253   2.341   5.916   4.485 -0.1223  0.0056 -0.0203
 1774WN      WN 2254   3.241   0.160   3.117  0.0506 -0.0327 -0.0617
 1775WN      WN 2255   3.651   0.939   3.835  0.1245 -0.0875 -0.0948
 1776WN      WN 2256   3.598   0.093   5.028  0.0342  0.2766  0.2512
 1777WN      WN 2257   1.725   5.169   0.545 -0.1682 -0.1776  0.1575
 1778WN      WN 2258   5.976   4.691   3.469 -0.0092  0.0569  0.1391
 1779WN      WN 2259   3.313   5.176   1.248  0.0516 -0.2642  0.0976
 1780WN      WN 2260   6.516   1.984   3.963  0.3052  0.2677  0.0018
 1781WN      WN 2261   2.173   2.102   4.195  0.0646  0.2399  0.3881
 1782WN      WN 2262   5.730   1.879   4.980 -0.1702 -0.2734 -0.0536
 1783WN      WN 2263   2.576   6.163   2.611  0.3622  0.0855 -0.2459
 1784WN      WN 2264   6.358   4.685   4.249 -0.1038 -0.0666 -0.0534
 1785WN      WN 2265   0.868   5.449   4.552 -0.0350  0.1068  0.1574
 1786WN      WN 2266   5.146   4.829   2.336  0.0938  0.1221  0.0826
 1787WN      WN 2267   5.634   1.485   5.823 -0.0082 -0.2891  0.1596
 1788WN      WN 2268   0.590   3.259   3.209  0.1066 -0.0587 -0.3777
 1789WN      WN 2269   0.432   6.512   4.788 -0.2571 -0.1600  0.1635
 1790WN      WN 2270   1.205   2.157   5.620 -0.0150  0.0273  0.1956
 1791WN      WN 2271   4.846   3.420   4.621 -0.1138  0.1029  0.0551
 1792WN      WN 2272   5.201   0.838   6.405  0.0027  0.0306 -0.3645
 1793WN      WN 2273   4.361   6.206   5.490 -0.2145 -0.1267  0.2619
 1794WN      WN 2274   2.815   1.068   5.916  0.2719 -0.1432 -0.2823
 1795WN      WN 2275   0.856   4.604   3.848  0.0062  0.3117 -0.1311
 1796WN      WN 2276   2.281   0.873   1.287  0.0879 -0.1976  0.1245
 1797WN      WN 2277   2.314   5.042   4.037  0.1315 -0.2470  0.1859
 1798WN      WN 2278   3.518   4.714   0.044  0.2900  0.0221 -0.0298
 1799WN      WN 2279   3.713   5.167   0.278  0.1037  0.1492  0.2532
 1800WN      WN 2280   6.251   5.618   5.498  0.0245 -0.0455  0.3364
 1801WN      WN 2281   0.865   5.063   3.714 -0.2054  0.0141 -0.1545
 1802WN      WN 2282   1.163   3.932   1.155 -0.0049 -0.0113  0.0672
 1803WN      WN 2283   0.577   2.826   4.705  0.1324  0.1564  0.1094
 1804WN      WN 2284   0.353   6.428   5.446  0.0033  0.4190 -0.0127
 1805WN      WN 2285   4.553   4.572   3.319  0.0617 -0.1088  0.0518
 1806WN      WN 2286   3.014   5.217   4.209  0.0237 -0.0013 -0.1530
 1807WN      WN 2287   1.272   1.720   4.249 -0.1778 -0.0390  0.0762
 1808WN      WN 2288   5.369   3.559   3.374 -0.0674  0.0905 -0.2583
 1809WN      WN 2289   6.440   5.853   0.804  0.1657 -0.3215  0.0318
 1810WN      WN 2290   3.456   2.307   0.136  0.2569 -0.0134  0.1691
 1811WN      WN 2291   6.004   1.862   3.939 -0.1396  0.0870  0.1629
 1812WN      WN 2292   3.844   3.935   4.105 -0.1428  0.2510 -0.0860
 1813WN      WN 2293   5.065   0.892   5.204 -0.2283 -0.0537  0.1675
 1814WN      WN 2294   0.769   4.511   0.415  0.2675 -0.1084  0.1380
 1815WN      WN 2295   6.280   0.451   1.121 -0.0797 -0.1176  0.1156
 1816WN      WN 2296   6.177   3.107   5.504  0.3054  0.0832  0.1300
 1817WN      WN 2297   3.711   2.628   2.995 -0.0441  0.2014 -0.2414
 1818WN      WN 2298   0.021   3.456   3.071 -0.0019 -0.2742  0.3784
 1819WN      WN 2299   2.651   0.826   2.669 -0.1305 -0.1388  0.0002
 1820WN      WN 2300   5.142   4.582   3.679  0.1082  0.2654  0.2774
 1821WN      WN 2301   6.227   4.985   6.093 -0.1722 -0.0649 -0.3630
 1822WN      WN 2302   4.010   2.216   4.362 -0.1216 -0.0372 -0.1430
 1823WN      WN 2303   1.993   3.729   2.181  0.2096  0.4628  0.0930
 1824WN      WN 2304   1.898   6.118   2.368  0.0984 -0.0147  0.0037
 1825WN      WN 2305   4.301   5.160   3.573  0.2780 -0.0845  0.1534
 1826WN      WN 2306   3.497   1.500   6.478  0.1850 -0.2624  0.2826
 1827WN      WN 2307   6.070   6.479   4.380  0.1032 -0.0979  0.0234
 1828WN      WN 2308   1.461   4.582   4.887 -0.0598  0.0167  0.0831
 1829WN      WN 2309   1.605   0.305   5.875  0.3666 -0.2095  0.0894
 1830WN      WN 2310   3.134   1.538   6.023  0.1830 -0.1317 -0.0980
 1831WN      WN 2311   0.659   0.693   0.299  0.1138 -0.3907  0.2154
 1832WN      WN 2312   1.137   4.319   5.896 -0.0014  0.0629 -0.1667
 1833WN      WN 2313   2.773   5.457   5.809 -0.3457 -0.0109 -0.4551
 1834WN      WN 2314   3.088   0.332   0.207 -0.1687 -0.3255  0.0327
 1835WN      WN 2315   0.797   4.007   5.267  0.0292 -0.0133 -0.1236
 1836WN      WN 2316   3.634   4.211   5.440  0.1078  0.1808  0.0797
 1837WN      WN 2317   5.921   6.042   4.079 -0.2514  0.2840 -0.0242
 1838WN      WN 2318   1.180   2.286   5.048  0.1125 -0.1076  0.0575
 1839WN      WN 2319   0.134   3.804   2.686 -0.1056 -0.0846 -0.3244
 1840WN      WN 2320   0.197   6.384   3.097 -0.2375 -0.0974  0.1411
 1841WN      WN 2321   1.719   0.661   3.559 -0.1455  0.0142  0.2532
 1842WN      WN 2322   0.761   5.575   6.499 -0.0075  0.1595 -0.0599
 1843WN      WN 2323   2.523   6.306   4.703  0.0815 -0.0723 -0.0796
 1844WN      WN 2324   0.084   4.334   1.929 -0.0159  0.0309  0.1357
 1845WN      WN 2325   2.866   0.629   4.283 -0.1736 -0.0729 -0.0341
 1846WN      WN 2326   0.733   4.869   4.721 -0.0312  0.1450 -0.0840
 1847WN      WN 2327   3.432   6.041   0.454  0.2867  0.1460 -0.3897
 1848WN      WN 2328   2.134   6.291   3.448  0.3389  0.5707  0.0108
 1849WN      WN 2329   4.729   1.477   2.684 -0.1239  0.2582  0.1224
 1850WN      WN 2330   5.340   2.580   3.118 -0.3420  0.1212 -0.1344
 1851WN      WN 2331   2.778   4.428   4.296 -0.1514 -0.1197 -0.0839
 1852WN      WN 2332   0.556   3.714   2.987 -0.1744  0.0068  0.1540
 1853WN      WN 2333   0.869   4.056   0.042  0.0403 -0.0794  0.3817
 1854WN      WN 2334   3.377   0.308   0.954  0.2829 -0.1616  0.0570
 1855WN      WN 2335   2.422   1.890   2.292 -0.4199  0.0673  0.0420
 1856WN      WN 2336   6.182   6.217   1.808 -0.0390  0.0084  0.0737
 1857WN      WN 2337   0.708   1.871   4.435 -0.1888 -0.0762 -0.1097
 1858WN      WN 2338   0.007   0.452   4.337 -0.1795 -0.0496  0.1023
 1859WN      WN 2339   0.612   0.758   1.304 -0.0172  0.0804 -0.0625
 1860WN      WN 2340   2.687   3.530   3.325 -0.3338  0.3313 -0.0132
 1861WN      WN 2341   1.551   5.266   1.117 -0.0760 -0.0936  0.0581
 1862WN      WN 2342   2.289   0.536   3.516 -0.0880 -0.0865  0.1354
 1863WN      WN 2343   4.753   3.902   4.250 -0.0923 -0.1198 -0.0932
 1864WN      WN 2344   4.421   6.365   3.689  0.2017  0.4213 -0.1564
 1865WN      WN 2345   3.502   0.687   0.605  0.2069 -0.2339  0.2921
 1866WN      WN 2346   4.445   4.053   0.203  0.1702  0.2553 -0.1501
 1867WN      WN 2347   0.262   2.617   6.374  0.1492 -0.1422  0.1076
 1868WN      WN 2348   0.305   0.021   1.961 -0.0487  0.2404 -0.0173
 1869WN      WN 2349   0.387   2.218   4.870 -0.0702  0.1715  0.1362
 1870WN      WN 2350   0.875   3.974   4.629  0.0675 -0.1755  0.2465
 1871WN      WN 2351   2.587   0.414   0.456 -0.1269 -0.0937  0.0238
 1872WN      WN 2352   0.433   4.142   0.617  0.1317 -0.5170 -0.3020
 1873WN      WN 2353   5.439   4.221   0.228 -0.0057 -0.0041 -0.2276
 1874WN      WN 2354   1.879   4.839   2.194 -0.1874  0.1876  0.2655
 1875WN      WN 2355   5.501   0.763   3.585 -0.4032  0.1517  0.0413
 1876WN      WN 2356   1.709   1.988   3.640 -0.0260  0.1698 -0.1422
 1877WN      WN 2357   4.714   2.196   2.640 -0.1719  0.1763  0.2300
 1878WN      WN 2358   4.334   6.355   0.168 -0.3546  0.3455 -0.0824
 1879WN      WN 2359   1.899   0.143   0.673  0.0434 -0.1359  0.3068
 1880WN      WN 2360   2.458   0.022   5.911  0.1416 -0.3270 -0.0956
 1881WN      WN 2361   5.836   6.437   0.336  0.1785  0.1187 -0.1096
 1882WN      WN 2362   3.324   5.272   2.882  0.0080 -0.4489  0.1430
 1883WN      WN 2363   1.189   6.165   0.990 -0.0486 -0.0317 -0.2270
 1884WN      WN 2364   2.002   5.438   3.634 -0.2481 -0.1073 -0.0085
 1885WN      WN 2365   3.993   1.185   3.536 -0.2310  0.2583  0.1515
 1886WN      WN 2366   4.531   4.457   4.362 -0.3529 -0.1792 -0.0606
 1887WN      WN 2367   1.575   1.124   3.908  0.1545  0.1158 -0.2460
 1888WN      WN 2368   6.071   0.730   4.581  0.1336  0.3758  0.0995
 1889WN      WN 2369   3.761   4.925   1.283  0.0003  0.2365 -0.1640
 1890WN      WN 2370   5.895   2.012   6.271  0.0949  0.1729 -0.2807
 1891WN      WN 2371   3.641   4.662   3.267  0.0374 -0.0830 -0.2153
 1892WN      WN 2372   3.232   3.592   0.755  0.1676 -0.3105  0.1396
 1893WN      WN 2373   1.418   1.837   5.288 -0.0201  0.4007 -0.0006
 1894WN      WN 2374   3.191   5.553   3.305  0.2463  0.0696  0.3332
 1895WN      WN 2375   0.330   5.795   3.828  0.3577  0.0958 -0.2138
 1896WN      WN 2376   6.127   1.087   5.064  0.1048 -0.0251  0.0246
 1897WN      WN 2377   5.750   5.271   6.208 -0.2633  0.2070  0.3165
 1898WN      WN 2378   4.470   0.912   5.726 -0.1685 -0.4894  0.0173
 1899WN      WN 2379   2.189   6.200   5.611 -0.4383 -0.0051 -0.3105
 1900WN      WN 2380   5.204   3.585   3.828 -0.2393 -0.0741  0.0393
 1901WN      WN 2381   0.393   1.221   5.364 -0.1318 -0.2224 -0.2600
 1902WN      WN 2382   3.574   4.350   2.893 -0.1880 -0.0423 -0.2163
 1903WN      WN 2383   4.991   5.819   3.803 -0.0668  0.0736  0.0799
 1904WN      WN 2384   3.934   5.932   0.466  0.1143  0.0969  0.0627
 1905WN      WN 2385   0.334   2.191   0.059  0.0608 -0.0211 -0.1299
 1906WN      WN 2386   4.300   3.926   4.339 -0.0888 -0.2283 -0.0704
 1907WN      WN 2387   2.633   1.373   0.563 -0.0330 -0.1098 -0.1474
 1908WN      WN 2388   0.786   1.271   4.332 -0.0935  0.1987 -0.0152
 1909WN      WN 2389   0.315   1.524   4.497 -0.0887 -0.2136 -0.0529
 1910WN      WN 2390   6.210   1.609   5.801  0.0722  0.3335  0.4306
 1911WN      WN 2391   0.946   4.903   2.159  0.1528  0.1451 -0.1749
 1912WN      WN 2392   3.432   1.032   0.221  0.4080  0.3243 -0.0548
 1913WN      WN 2393   2.433   2.114   4.687  0.1262  0.4059  0.1200
 1914WN      WN 2394   4.570   0.964   5.191 -0.2147  0.2853  0.0604
 1915WN      WN 2395   1.056   3.869   6.145  0.3151  0.2169 -0.2877
 1916WN      WN 2396   6.143   3.007   3.574 -0.1140  0.1150 -0.1698
 1917WN      WN 2397   1.195   4.994   2.586 -0.1962  0.1900 -0.0926
 1918WN      WN 2398   1.847   0.404   6.410 -0.3192  0.1478 -0.2458
 1919WN      WN 2399   0.558   4.203   3.967 -0.2327  0.0608 -0.0273
 1920WN      WN 2400   0.862   1.448   0.220  0.2515 -0.3487  0.0805
 1921WN      WN 2401   1.995   1.511   3.677  0.1165 -0.0522 -0.2188
 1922WN      WN 2402   3.946   0.242   2.059  0.1442 -0.1071  0.0614
 1923WN      WN 2403   6.280   3.849   1.292  0.2348 -0.1309  0.1348
 1924WN      WN 2404   1.619   6.348   4.477 -0.0185 -0.1414  0.0508
 1925WN      WN 2405   1.360   4.826   3.929 -0.0327  0.1561 -0.1544
 1926WN      WN 2406   0.134   6.092   4.558  0.2189 -0.1361 -0.0309
 1927WN      WN 2407   2.203   4.876   6.275 -0.0283 -0.2509 -0.1543
 1928WN      WN 2408   4.572   5.428   5.022 -0.0721 -0.3383 -0.1034
 1929WN      WN 2409   6.139   5.158   3.732 -0.1424 -0.1995  0.1050
 1930WN      WN 2410   6.436   1.335   3.221  0.0172 -0.1418  0.1677
 1931WN      WN 2411   1.483   4.115   3.014 -0.0046 -0.1168 -0.3052
 1932WN      WN 2412   2.773   6.087   2.124 -0.0041  0.0937 -0.0250
 1933WN      WN 2413   6.349   4.949   0.344  0.1094  0.2012  0.0105
 1934WN      WN 2414   3.518   2.623   0.507  0.0403 -0.2678  0.0248
 1935WN      WN 2415   3.304   0.489   4.994  0.0451  0.0421  0.2557
 1936WN      WN 2416   4.143   4.843   0.147  0.1174 -0.0314 -0.1113
 1937WN      WN 2417   5.518   2.680   3.707 -0.1841 -0.0362 -0.1394
 1938WN      WN 2418   1.593   1.602   2.050  0.1297  0.0579  0.0835
 1939WN      WN 2419   0.527   5.310   2.814  0.2187 -0.0856 -0.4270
 1940WN      WN 2420   1.494   2.620   2.332  0.1619  0.0343  0.0872
 1941WN      WN 2421   1.081   0.885   3.914  0.0350 -0.0528  0.3217
 1942WN      WN 2422   0.210   1.623   1.953  0.2717  0.1327  0.0894
 1943WN      WN 2423   6.327   4.162   2.374  0.2976 -0.2069  0.4814
 1944WN      WN 2424   5.332   6.324   1.353  0.0657  0.1758  0.3876
 1945WN      WN 2425   3.571   4.497   4.157  0.1975  0.1331  0.0632
 1946WN      WN 2426   5.990   4.323   2.049 -0.1250 -0.4872  0.1745
 1947WN      WN 2427   5.645   1.865   1.539  0.2387 -0.0161 -0.2019
 1948WN      WN 2428   2.320   1.396   6.466 -0.1149 -0.0013 -0.0793
 1949WN      WN 2429   0.009   4.514   2.713 -0.4418 -0.2015  0.0786
 1950WN      WN 2430   3.147   0.770   2.489 -0.3319 -0.0758  0.2146
 1951WN      WN 2431   1.786   0.983   2.219  0.0637 -0.1225 -0.0622
 1952WN      WN 2432   2.828   6.298   1.146  0.0880 -0.2295 -0.1408
 1953WN      WN 2433   6.486   1.052   3.662  0.3013 -0.0905 -0.2624
 1954WN      WN 2434   6.550   4.520   5.804  0.1215  0.0797  0.3297
 1955WN      WN 2435   0.359   3.783   4.150  0.1881  0.0283  0.0561
 1956WN      WN 2436   0.491   4.035   1.865 -0.4645  0.0840  0.3327
 1957WN      WN 2437   0.333   1.975   2.325 -0.3057  0.0573  0.0805
 1958WN      WN 2438   2.880   1.790   0.301 -0.1024  0.0892 -0.2888
 1959WN      WN 2439   3.105   0.012   5.459  0.2702 -0.1841  0.0745
 1960WN      WN 2440   1.829   6.555   2.113  0.3530 -0.2341  0.0237
 1961WN      WN 2441   6.156   3.283   4.463  0.1590 -0.0565 -0.0213
 1962WN      WN 2442   5.361   4.280   6.256 -0.0314  0.2520  0.1004
 1963WN      WN 2443   4.430   5.995   1.865 -0.3792  0.0818  0.0324
 1964WN      WN 2444   1.970   0.001   2.611  0.2331  0.1059 -0.0487
 1965WN      WN 2445   1.473   3.547   5.878  0.0539 -0.1710 -0.1176
 1966WN      WN 2446   4.198   5.787   2.302 -0.3368 -0.0737  0.0369
 1967WN      WN 2447   2.943   4.701   0.025  0.1392  0.3703  0.0463
 1968WN      WN 2448   0.120   0.284   2.905  0.2556 -0.1084  0.0532
 1969WN      WN 2449   1.414   1.257   4.429  0.0630 -0.2322  0.1264
 1970WN      WN 2450   2.368   2.300   5.441  0.0156 -0.4310  0.2260
 1971WN      WN 2451   0.011   3.539   0.546 -0.1819  0.1427 -0.0680
 1972WN      WN 2452   5.612   1.090   2.698  0.0570  0.1207  0.2598
 1973WN      WN 2453   2.345   3.742   0.062 -0.2069  0.2190  0.0530
 1974WN      WN 2454   2.152   3.997   6.179  0.1575  0.2689 -0.0248
 1975WN      WN 2455   0.619   6.514   2.819 -0.1832  0.0169  0.0435
 1976WN      WN 2456   4.546   0.025   0.659 -0.0092 -0.2121  0.4758
 1977WN      WN 2457   3.943   2.693   5.607  0.3611  0.0209 -0.3381
 1978WN      WN 2458   6.416   5.167   2.187 -0.0534 -0.1009  0.0987
 1979WN      WN 2459   4.543   5.938   6.393  0.1087  0.3409 -0.1536
 1980WN      WN 2460   6.047   3.559   5.788 -0.0192  0.1198 -0.0777
 1981WN      WN 2461   1.184   2.022   6.232 -0.3593  0.2313  0.1627
 1982WN      WN 2462   2.156   5.364   1.391  0.1041 -0.0605  0.1175
 1983WN      WN 2463   0.042   4.319   4.096  0.2746 -0.1924 -0.1408
 1984WN      WN 2464   1.864   2.853   3.162 -0.3163  0.1636 -0.1531
 1985WN      WN 2465   2.864   0.466   5.278 -0.4318  0.1159  0.0104
 1986WN      WN 2466   5.345   0.601   1.596  0.3312  0.2848  0.0427
 1987WN      WN 2467   5.324   1.687   4.819  0.1260  0.3551  0.0078
 1988WN      WN 2468   2.117   1.242   4.609  0.0930  0.0480  0.2079
 1989WN      WN 2469   5.519   2.416   4.679  0.1162 -0.1217  0.2527
 1990WN      WN 2470   5.627   1.555   5.302 -0.1021 -0.1947  0.1336
 1991WN      WN 2471   2.304   3.425   4.358  0.1596 -0.1994  0.1563
 1992WN      WN 2472   5.614   6.288   1.747  0.1121 -0.1864 -0.0269
 1993WN      WN 2473   4.697   0.968   6.197 -0.1603  0.4488 -0.0080
 1994WN      WN 2474   5.955   2.538   3.338  0.0732  0.0100 -0.0723
 1995WN      WN 2475   2.219   4.466   3.524 -0.0271 -0.1490  0.0480
 1996WN      WN 2476   5.311   4.370   0.665 -0.3297  0.4133 -0.4455
 1997WN      WN 2477   1.184   6.510   6.514  0.0334 -0.1882  0.4840
 1998WN      WN 2478   3.188   6.251   3.256  0.2211  0.1591  0.2443
 1999WN      WN 2479   4.202   2.961   4.180  0.1242 -0.1735  0.1754
 2000WN      WN 2480   4.637   5.385   0.241  0.0148 -0.3452  0.1025
 2001WN      WN 2481   5.450   1.374   2.337  0.1928  0.0114  0.0632
 2002WN      WN 2482   2.375   0.104   0.842 -0.1069  0.1208  0.1660
 2003WN      WN 2483   5.238   5.334   3.689  0.2038 -0.2370  0.1610
 2004WN      WN 2484   6.428   3.996   6.489 -0.2069  0.0676 -0.2601
 2005WN      WN 2485   1.914   2.825   1.959 -0.0773  0.1916 -0.2201
 2006WN      WN 2486   2.275   5.308   5.921 -0.1594  0.0263  0.2430
 2007WN      WN 2487   5.080   2.457   3.528  0.2971 -0.0553 -0.0361
 2008WN      WN 2488   6.232   4.209   0.700 -0.0134 -0.1594 -0.1449
 2009WN      WN 2489   6.161   2.315   0.718  0.0038  0.1068 -0.2484
 2010WN      WN 2490   4.325   4.957   2.178  0.2029 -0.2460 -0.1091
 2011WN      WN 2491   6.060   5.827   6.121  0.0253  0.0157 -0.0102
 2012WN      WN 2492   3.773   1.636   5.001  0.2221  0.0134 -0.1094
 2013WN      WN 2493   5.797   3.559   3.600 -0.2155  0.0380 -0.3096
 2014WN      WN 2494   2.610   2.941   6.166 -0.1395 -0.1278 -0.3791
 2015WN      WN 2495   6.181   4.752   4.701  0.2639  0.1954 -0.0925
 2016WN      WN 2496   1.291   4.122   5.001 -0.0231  0.1873 -0.0455
 2017WN      WN 2497   2.722   5.689   3.461  0.0269 -0.0427  0.0625
 2018WN      WN 2498   1.802   5.823   4.389 -0.0766  0.2500 -0.0083
 2019WN      WN 2499   6.069   6.534   1.307  0.1761  0.1776  0.1918
 2020WN      WN 2500   1.379   3.286   5.473 -0.4442  0.0106 -0.0841
 2021WN      WN 2501   1.108   4.338   0.799  0.1084 -0.0489  0.3082
 2022WN      WN 2502   4.789   1.320   4.061  0.1712  0.1738 -0.3074
 2023WN      WN 2503   6.030   1.018   3.285  0.0445 -0.0416  0.0082
 2024WN      WN 2504   0.338   5.872   3.289 -0.3197  0.3063  0.0745
 2025WN      WN 2505   0.746   1.837   6.515  0.0710 -0.1516  0.0151
 2026WN      WN 2506   4.349   1.482   3.099 -0.0014 -0.0595  0.1212
 2027WN      WN 2507   2.385   6.549   2.418  0.1563 -0.1432 -0.0965
 2028WN      WN 2508   5.677   0.181   5.313  0.3509 -0.0346 -0.0519
 2029WN      WN 2509   3.051   5.979   1.514 -0.1362  0.0282  0.0182
 2030WN      WN 2510   1.700   1.352   0.664  0.2930  0.2471 -0.2049
 2031WN      WN 2511   5.484   1.759   6.253 -0.1787 -0.2309  0.2254
 2032WN      WN 2512   1.011   5.838   4.930  0.0300 -0.3474  0.6284
 2033WN      WN 2513   4.531   5.826   0.388  0.0298 -0.0385  0.0245
 2034WN      WN 2514   4.373   5.131   6.389  0.2081 -0.0870  0.0177
 2035WN      WN 2515   6.402   4.990   5.156  0.1290 -0.0092  0.0784
 2036WN      WN 2516   3.076   4.893   5.625 -0.2224  0.0454 -0.0396
 2037WN      WN 2517   2.286   3.845   4.122 -0.2447 -0.0807  0.2468
 2038WN      WN 2518   5.431   3.387   2.860 -0.1049  0.1311 -0.2878
 2039WN      WN 2519   6.320   2.875   6.493 -0.3323 -0.0113 -0.0758
 2040WN      WN 2520   2.604   2.185   3.674  0.1409  0.2438  0.1719
   6.56840   6.56840   6.56840
