OST in water
 2540
    1OST    PA1    1   0.438   3.502   3.896 -0.3062  0.1432 -0.2959
    1OST    PA2    2   0.752   3.339   3.994  0.0672  0.2279 -0.1340
    1OST    PA3    3   0.824   3.487   4.239 -0.6563  0.1461 -0.3616
    1OST    PA4    4   0.913   3.221   3.970 -0.1454  0.3437 -0.0879
    1OST    PA5    5   0.791   2.946   3.840  0.4162 -0.0823 -0.4956
    1OST    PA6    6   0.573   3.043   3.834  0.0602 -0.2306  0.1155
    2OST    PA1    7   0.131   2.546   3.121  0.1313  0.3097  0.1731
    2OST    PA2    8   0.029   2.473   3.453  0.4009 -0.0985 -0.1671
    2OST    PA3    9   0.171   2.737   3.502 -0.3034 -0.1422  0.0668
    2OST    PA4   10   0.085   2.403   3.620  0.0518 -0.1201  0.5387
    2OST    PA5   11  -0.011   2.095   3.567 -0.1374 -0.0578  0.1043
    2OST    PA6   12  -0.069   2.145   3.334 -0.1197 -0.0726  0.5629
    3OST    PA1   13   0.450   3.435   3.281 -0.1561 -0.2326  0.2531
    3OST    PA2   14   0.494   3.124   3.127 -0.1528  0.0401  0.2205
    3OST    PA3   15   0.355   3.281   2.906 -0.2797  0.0105  0.2867
    3OST    PA4   16   0.437   2.968   3.042 -0.0933  0.2873 -0.0632
    3OST    PA5   17   0.458   2.762   3.290 -0.2841  0.1195  0.0769
    3OST    PA6   18   0.593   2.947   3.421 -0.1948 -0.0139  0.5765
    4OST    PA1   19   1.249   2.852   4.245  0.2118 -0.0904 -0.2788
    4OST    PA2   20   0.881   2.885   4.216  0.3821  0.3346  0.2822
    4OST    PA3   21   0.931   3.134   4.354  0.0263 -0.0228  0.0408
    4OST    PA4   22   0.661   2.828   4.299  0.2461  0.0547  0.2428
    4OST    PA5   23   0.658   2.549   4.162 -0.2998  0.2755  0.3255
    4OST    PA6   24   0.835   2.609   4.004 -0.4738  0.2977  0.2181
    5OST    PA1   25   0.952   3.501   3.521  0.1249 -0.3582 -0.5161
    5OST    PA2   26   1.154   3.215   3.416 -0.1482  0.0616  0.0863
    5OST    PA3   27   1.223   3.186   3.716  0.1453 -0.5676 -0.2530
    5OST    PA4   28   1.124   2.996   3.374  0.1761 -0.1379  0.0156
    5OST    PA5   29   0.886   3.008   3.165  0.1871  0.2447  0.0879
    5OST    PA6   30   0.881   3.228   3.184  0.2769  0.1021 -0.3930
    6OST    PA1   31   6.245   2.781   3.323  0.0515 -0.2548  0.2484
    6OST    PA2   32   6.246   3.032   3.076  0.3756  0.1007  0.0149
    6OST    PA3   33   5.946   3.021   3.167  0.2937 -0.3133  0.4275
    6OST    PA4   34   6.241   3.220   3.023  0.2114 -0.2805  0.3906
    6OST    PA5   35   6.528   3.203   2.975 -0.0488 -0.0333  0.1491
    6OST    PA6   36   6.589   3.017   3.075 -0.0501  0.2100  0.5015
    7OST    PA1   37   0.750   2.164   4.042 -0.1662  0.5401  0.2786
    7OST    PA2   38   0.423   2.297   3.977  0.1900 -0.0333 -0.0293
    7OST    PA3   39   0.268   2.084   4.146  0.0389  0.2321 -0.1217
    7OST    PA4   40   0.340   2.426   4.036  0.0691  0.2089 -0.3589
    7OST    PA5   41   0.394   2.611   3.765  0.5004  0.0068  0.0103
    7OST    PA6   42   0.501   2.446   3.666 -0.2287  0.0439 -0.1982
    8OST    PA1   43   1.283   2.384   4.012 -0.0134 -0.0991  0.2159
    8OST    PA2   44   1.529   2.641   3.871  0.2491  0.1440  0.0529
    8OST    PA3   45   1.710   2.604   4.092  0.2429  0.1041  0.2558
    8OST    PA4   46   1.667   2.738   3.741  0.2840 -0.0826 -0.0044
    8OST    PA5   47   1.407   2.848   3.591 -0.1736  0.2309  0.1778
    8OST    PA6   48   1.265   2.822   3.761  0.1832  0.0290  0.2251
    9OST    PA1   49   4.708   2.114   3.939 -0.0712 -0.2045 -0.0472
    9OST    PA2   50   4.917   1.832   4.071 -0.0979 -0.0828  0.4510
    9OST    PA3   51   4.697   1.624   4.086  0.0632 -0.1100 -0.0238
    9OST    PA4   52   5.040   1.734   3.977 -0.1921  0.2987 -0.1420
    9OST    PA5   53   5.266   1.937   4.082  0.2426  0.1281  0.5463
    9OST    PA6   54   5.114   2.100   4.150 -0.0742 -0.0975 -0.1040
   10OST    PA1   55   6.367   2.182   4.420 -0.0987 -0.2147  0.2200
   10OST    PA2   56   6.225   1.863   4.338 -0.1882  0.1734 -0.1908
   10OST    PA3   57   6.011   1.854   4.516  0.0707  0.0042  0.0384
   10OST    PA4   58   6.182   1.685   4.256 -0.1433 -0.1419  0.0376
   10OST    PA5   59   6.442   1.570   4.312 -0.2611 -0.1655  0.2516
   10OST    PA6   60   6.537   1.786   4.439 -0.0522  0.3595  0.0727
   11OST    PA1   61   5.605   2.503   4.282 -0.1795 -0.1846 -0.1593
   11OST    PA2   62   5.522   2.268   4.072 -0.0562  0.2537  0.1254
   11OST    PA3   63   5.512   2.511   3.889  0.1827 -0.3607  0.1328
   11OST    PA4   64   5.599   2.159   3.944 -0.0190 -0.4894  0.1782
   11OST    PA5   65   5.627   1.931   4.173 -0.3746 -0.4561  0.0047
   11OST    PA6   66   5.552   2.042   4.348 -0.0031  0.0714 -0.0458
   12OST    PA1   67   6.132   2.247   3.650  0.1223  0.2075  0.0339
   12OST    PA2   68   5.965   2.019   3.849 -0.2429  0.0558  0.3471
   12OST    PA3   69   6.092   1.843   3.639 -0.1614 -0.3212  0.3663
   12OST    PA4   70   5.996   1.919   3.995 -0.0503 -0.1459 -0.1635
   12OST    PA5   71   6.004   2.168   4.173  0.3191 -0.4329  0.3075
   12OST    PA6   72   5.931   2.330   4.045 -0.3198  0.0861 -0.1548
   13OST    PA1   73   6.314   3.898   2.981 -0.2055  0.0217 -0.4678
   13OST    PA2   74   6.672   3.842   2.986 -0.1660 -0.1810 -0.0381
   13OST    PA3   75   6.613   3.541   3.001 -0.4407 -0.2841 -0.2834
   13OST    PA4   76   6.844   3.823   2.830 -0.2904 -0.1382 -0.2285
   13OST    PA5   77   6.919   4.134   2.909 -0.3132 -0.0863 -0.5513
   13OST    PA6   78   6.747   4.191   3.043 -0.3192 -0.2184 -0.0733
   14OST    PA1   79   0.065   3.209   3.564  0.1699 -0.0633  0.0613
   14OST    PA2   80  -0.218   3.419   3.487 -0.1008 -0.0136  0.3286
   14OST    PA3   81   0.042   3.572   3.464  0.1962 -0.3741  0.1174
   14OST    PA4   82  -0.343   3.547   3.357 -0.0341 -0.0022  0.1027
   14OST    PA5   83  -0.582   3.373   3.369 -0.2197  0.4207 -0.2845
   14OST    PA6   84  -0.470   3.172   3.492 -0.1096  0.2088 -0.1152
   15OST    PA1   85   5.781   2.620   3.201  0.4125 -0.0562 -0.2235
   15OST    PA2   86   5.745   2.624   3.559 -0.0237 -0.1678 -0.4749
   15OST    PA3   87   5.735   2.340   3.577 -0.0732 -0.1197  0.2902
   15OST    PA4   88   5.840   2.651   3.755 -0.0923  0.2599  0.3536
   15OST    PA5   89   5.847   2.982   3.773 -0.3240  0.2807  0.1203
   15OST    PA6   90   5.766   2.986   3.537  0.1397  0.1437  0.1344
   16OST    PA1   91   0.205   1.332   4.254  0.1035 -0.0153 -0.4281
   16OST    PA2   92   0.414   1.615   4.324 -0.0721  0.0214  0.1979
   16OST    PA3   93   0.602   1.669   4.100 -0.1068  0.1457  0.3190
   16OST    PA4   94   0.405   1.802   4.360 -0.4397  0.1371 -0.0773
   16OST    PA5   95   0.399   1.783   4.675  0.2526  0.4426 -0.2750
   16OST    PA6   96   0.338   1.545   4.655  0.0339  0.4079  0.4786
   17OST    PA1   97   0.089   3.883   3.809 -0.1464  0.2413  0.1244
   17OST    PA2   98  -0.170   4.019   3.610 -0.0284  0.3276  0.3685
   17OST    PA3   99  -0.041   3.934   3.344  0.0888  0.1404 -0.4135
   17OST    PA4  100  -0.300   4.124   3.516  0.1525 -0.3748  0.4950
   17OST    PA5  101  -0.507   4.166   3.747 -0.0390 -0.1449 -0.5202
   17OST    PA6  102  -0.357   4.035   3.927  0.3410  0.0123 -0.0167
   18OST    PA1  103   0.373   1.903   3.747 -0.0852  0.1329  0.0501
   18OST    PA2  104   0.056   1.858   3.925  0.1713  0.0437 -0.2062
   18OST    PA3  105   0.177   1.602   3.982  0.3232 -0.1597 -0.2512
   18OST    PA4  106  -0.144   1.807   3.950 -0.4326  0.0031  0.3129
   18OST    PA5  107  -0.234   2.128   3.979  0.0019 -0.0909  0.1927
   18OST    PA6  108  -0.038   2.202   3.942 -0.1986 -0.1289 -0.1338
   19OST    PA1  109   0.162   3.036   4.071 -0.0839  0.1712 -0.0660
   19OST    PA2  110  -0.190   3.015   3.959  0.0731 -0.1337 -0.1012
   19OST    PA3  111  -0.160   2.861   3.719  0.2835 -0.0041  0.1200
   19OST    PA4  112  -0.388   3.055   3.933 -0.1532  0.0846 -0.3113
   19OST    PA5  113  -0.453   3.230   4.203  0.0542 -0.2165  0.1543
   19OST    PA6  114  -0.233   3.261   4.250  0.1663  0.1714  0.0415
   20OST    PA1  115   0.113   2.667   4.380 -0.2237 -0.0176  0.4116
   20OST    PA2  116  -0.123   2.655   4.130 -0.1273  0.0465  0.1652
   20OST    PA3  117   0.058   2.656   3.891 -0.0672  0.2240 -0.1717
   20OST    PA4  118  -0.277   2.542   4.028  0.1976 -0.2905 -0.2854
   20OST    PA5  119  -0.485   2.606   4.267 -0.3526  0.0977  0.2092
   20OST    PA6  120  -0.334   2.766   4.383  0.4977 -0.0783 -0.0899
   21bCD     C4  121   0.490   2.739   0.196 -0.3687  0.2462 -0.1197
   21bCD     O2  122   0.602   2.540   0.261 -0.2260  0.4717  0.2776
   21bCD     C6  123   0.255   2.812   0.053  0.4975  0.4487 -0.0292
   21bCD     C4  124   0.800   3.089   0.299 -0.1263 -0.2116  0.1358
   21bCD     O2  125   0.906   2.932   0.401 -0.1004  0.4371  0.2517
   21bCD     C6  126   0.533   3.198   0.290 -0.0444  0.2405  0.1108
   21bCD     C4  127   1.094   3.220  -0.067 -0.0383 -0.2416  0.1756
   21bCD     O2  128   1.225   3.060   0.054  0.0811  0.0330 -0.1198
   21bCD     C6  129   0.924   3.422   0.031  0.2539 -0.4343  0.3529
   21bCD     C4  130   1.029   3.064  -0.527 -0.0782  0.1967 -0.2988
   21bCD     O2  131   1.192   2.919  -0.491 -0.3284 -0.1296  0.1323
   21bCD     C6  132   0.997   3.350  -0.539 -0.2371 -0.2069  0.4452
   21bCD     C4  133   0.674   2.796  -0.741  0.0590  0.0176  0.1053
   21bCD     O2  134   0.854   2.669  -0.768  0.1939 -0.4371 -0.1173
   21bCD     C6  135   0.597   3.067  -0.656  0.1576 -0.1457  0.0200
   21bCD     C4  136   0.371   2.437  -0.556  0.0744  0.0054 -0.0982
   21bCD     O2  137   0.548   2.276  -0.593 -0.0858 -0.5053  0.3004
   21bCD     C6  138   0.232   2.631  -0.720  0.5679 -0.0976 -0.2022
   21bCD     C4  139   0.296   2.421  -0.085  0.0508  0.1392 -0.1049
   21bCD     O2  140   0.474   2.270  -0.114 -0.1835  0.0418  0.1457
   21bCD     C6  141   0.050   2.509  -0.225  0.3509 -0.2922 -0.2322
   22bCD     C4  142   1.087   4.599   6.276 -0.0046 -0.3155  0.0446
   22bCD     O2  143   1.244   4.716   6.148 -0.0656 -0.3615  0.1050
   22bCD     C6  144   0.898   4.367   6.245 -0.3713 -0.1018  0.1418
   22bCD     C4  145   0.957   4.930   6.620 -0.1566 -0.0224  0.0547
   22bCD     O2  146   1.117   5.033   6.496 -0.2716 -0.1739 -0.0601
   22bCD     C6  147   0.896   4.676   6.689  0.1944 -0.1683 -0.4687
   22bCD     C4  148   0.556   5.211   6.523 -0.0016 -0.1169 -0.2237
   22bCD     O2  149   0.725   5.344   6.461  0.0083  0.1240  0.0312
   22bCD     C6  150   0.587   5.052   6.776 -0.1107  0.0665  0.0710
   22bCD     C4  151   0.190   5.114   6.198 -0.1702  0.1221  0.3258
   22bCD     O2  152   0.294   5.294   6.097 -0.0648 -0.2639 -0.3706
   22bCD     C6  153   0.224   4.968   6.445  0.7844 -0.0716 -0.0726
   22bCD     C4  154   0.202   4.809   5.802 -0.0281 -0.3759  0.0961
   22bCD     O2  155   0.239   5.016   5.701 -0.2548  0.1309 -0.5462
   22bCD     C6  156   0.020   4.753   6.027 -0.3296  0.4137 -0.1083
   22bCD     C4  157   0.550   4.539   5.632 -0.0111  0.1472 -0.0250
   22bCD     O2  158   0.576   4.698   5.482 -0.1355 -1.1561  0.0866
   22bCD     C6  159   0.304   4.420   5.703 -0.0132  0.1574  0.0634
   22bCD     C4  160   0.992   4.455   5.831  0.2802 -0.1292  0.0175
   22bCD     O2  161   1.034   4.608   5.683  0.2379 -0.2654 -0.1830
   22bCD     C6  162   0.779   4.250   5.818  0.0141  0.1992  0.4841
   23bCD     C4  163   6.428   0.804   1.403 -0.3023 -0.2498  0.0169
   23bCD     O2  164   6.627   0.887   1.491 -0.6395 -0.3760  0.0536
   23bCD     C6  165   6.355   0.555   1.365 -0.1713  0.4000 -0.2639
   23bCD     C4  166   6.176   1.166   1.197 -0.1861  0.0872 -0.1139
   23bCD     O2  167   6.305   1.285   1.357  0.1932 -0.4476 -0.2078
   23bCD     C6  168   6.035   0.912   1.200  0.2968  0.1335  0.4780
   23bCD     C4  169   6.218   1.387   0.786  0.2796  0.2650 -0.0556
   23bCD     O2  170   6.289   1.558   0.935  0.1631  0.0618  0.0201
   23bCD     C6  171   5.985   1.219   0.770 -0.0327  0.2792  0.0043
   23bCD     C4  172   6.568   1.283   0.474  0.1351 -0.0025 -0.0969
   23bCD     O2  173   6.665   1.468   0.588 -0.5129  0.6924 -0.1886
   23bCD     C6  174   6.299   1.213   0.371  0.1011 -0.0810  0.1367
   23bCD     C4  175   6.892   0.931   0.466 -0.1277 -0.2771  0.1767
   23bCD     O2  176   7.019   1.103   0.553 -0.1726 -0.0696 -0.2590
   23bCD     C6  177   6.679   0.926   0.242 -0.1772  0.0882  0.3265
   23bCD     C4  178   6.972   0.558   0.785  0.0789  0.3366 -0.0374
   23bCD     O2  179   7.138   0.708   0.845 -0.1446  0.2149  0.3110
   23bCD     C6  180   6.819   0.512   0.556 -0.1891  0.0528 -0.0711
   23bCD     C4  181   6.755   0.482   1.218 -0.0727 -0.1450 -0.1688
   23bCD     O2  182   6.967   0.556   1.269  0.1426  0.2825  0.3191
   23bCD     C6  183   6.680   0.300   1.007  0.0997 -0.1008 -0.3145
   24bCD     C4  184   0.278   5.742   1.456  0.1912 -0.1143  0.5084
   24bCD     O2  185   0.244   5.916   1.328 -0.1792 -0.0757  0.2579
   24bCD     C6  186   0.509   5.679   1.614  0.2624  0.0104 -0.0935
   24bCD     C4  187  -0.124   5.476   1.472 -0.0746 -0.0974 -0.0325
   24bCD     O2  188  -0.171   5.667   1.363  0.2588 -0.0278  0.4208
   24bCD     C6  189   0.033   5.449   1.703 -0.4721  0.1558 -0.4056
   24bCD     C4  190  -0.164   5.074   1.197 -0.0903  0.5781 -0.1849
   24bCD     O2  191  -0.298   5.202   1.080 -0.0538 -0.0034 -0.2099
   24bCD     C6  192  -0.125   5.039   1.496 -0.1785  0.5425  0.0769
   24bCD     C4  193   0.181   4.884   0.916  0.0492 -0.1191 -0.0792
   24bCD     O2  194   0.011   4.941   0.759 -0.3156  0.0982  0.0574
   24bCD     C6  195   0.197   4.764   1.190  0.2465  0.1662  0.0100
   24bCD     C4  196   0.585   5.076   0.702  0.0511 -0.3287 -0.3075
   24bCD     O2  197   0.431   5.146   0.557  0.1736  0.3487  0.0008
   24bCD     C6  198   0.594   4.836   0.863 -0.0657 -0.0146 -0.0472
   24bCD     C4  199   0.808   5.484   0.860 -0.0113 -0.0594 -0.0931
   24bCD     O2  200   0.711   5.568   0.674 -0.0004  0.1953  0.0362
   24bCD     C6  201   0.939   5.256   0.898 -0.0581  0.6416  0.0519
   24bCD     C4  202   0.691   5.797   1.226 -0.0057  0.0029  0.0658
   24bCD     O2  203   0.646   5.914   1.018 -0.3988 -0.5687 -0.0957
   24bCD     C6  204   0.910   5.592   1.279  0.2068 -0.1907 -0.3222
   25bCD     C4  205   4.746   6.447   1.498  0.2746  0.1378 -0.0129
   25bCD     O2  206   4.662   6.351   1.284 -0.1668 -0.2510  0.0432
   25bCD     C6  207   4.920   6.654   1.633  0.2897  0.0430  0.2211
   25bCD     C4  208   4.598   6.092   1.813 -0.1788  0.1299  0.1961
   25bCD     O2  209   4.522   6.033   1.614 -0.4581  0.2699  0.0010
   25bCD     C6  210   4.668   6.322   1.940  0.2996 -0.2990 -0.7444
   25bCD     C4  211   4.877   5.715   1.961 -0.1371  0.2550  0.1198
   25bCD     O2  212   4.764   5.608   1.779 -0.2555 -0.1980 -0.0521
   25bCD     C6  213   4.856   5.904   2.193  0.2972  0.1104  0.3546
   25bCD     C4  214   5.333   5.632   1.803 -0.2044  0.1367  0.0876
   25bCD     O2  215   5.235   5.505   1.645 -0.1137  0.2141  0.1568
   25bCD     C6  216   5.276   5.720   2.095 -0.1012  0.0248  0.2779
   25bCD     C4  217   5.602   5.939   1.572 -0.0847 -0.0213 -0.2730
   25bCD     O2  218   5.596   5.758   1.427 -0.0693  0.1334  0.1641
   25bCD     C6  219   5.588   5.988   1.857 -0.3867 -0.3123 -0.0750
   25bCD     C4  220   5.566   6.346   1.303 -0.1093  0.1365 -0.0235
   25bCD     O2  221   5.589   6.174   1.139 -0.1096 -0.4687  0.5138
   25bCD     C6  222   5.719   6.386   1.562  0.5239  0.3367 -0.0357
   25bCD     C4  223   5.153   6.553   1.258 -0.0292 -0.1563  0.0639
   25bCD     O2  224   5.153   6.453   1.038 -0.5266 -0.0887 -0.2329
   25bCD     C6  225   5.345   6.747   1.377  0.6051  0.0828 -0.2205
   26bCD     C4  226   1.449   4.506   0.678  0.2700 -0.3407  0.2101
   26bCD     O2  227   1.561   4.525   0.480 -0.0697  0.1337  0.5200
   26bCD     C6  228   1.178   4.489   0.744  0.3257 -0.2466  0.0784
   26bCD     C4  229   1.753   4.412   1.020 -0.1012  0.2077 -0.3931
   26bCD     O2  230   1.871   4.386   0.828 -0.3383 -0.0245  0.1011
   26bCD     C6  231   1.501   4.357   1.075  0.4058  0.2081 -0.2776
   26bCD     C4  232   1.997   4.746   1.275 -0.2202 -0.0749 -0.2234
   26bCD     O2  233   2.161   4.688   1.106  0.0367 -0.1636  0.1863
   26bCD     C6  234   1.825   4.589   1.467 -0.3709 -0.5625  0.1738
   26bCD     C4  235   1.976   5.233   1.243  0.1599 -0.0671 -0.3823
   26bCD     O2  236   2.181   5.200   1.114  0.2838 -0.1130  0.0910
   26bCD     C6  237   1.840   5.131   1.484  0.3351  0.5516 -0.2026
   26bCD     C4  238   1.649   5.521   1.017 -0.1970 -0.0793  0.0308
   26bCD     O2  239   1.845   5.543   0.882  0.1462  0.0685 -0.5797
   26bCD     C6  240   1.615   5.518   1.305  0.4476  0.0455 -0.2749
   26bCD     C4  241   1.288   5.380   0.726 -0.0649  0.3330  0.1033
   26bCD     O2  242   1.425   5.477   0.565  0.2023  0.0808 -0.3060
   26bCD     C6  243   1.203   5.436   1.011  0.0766  0.1395 -0.4936
   26bCD     C4  244   1.225   4.925   0.530  0.0923  0.1235  0.0388
   26bCD     O2  245   1.389   5.008   0.378  0.8667  0.7210  0.1796
   26bCD     C6  246   0.996   4.998   0.677  0.0354 -0.0047 -0.1154
   27bCD     C4  247   0.583   2.599   0.876  0.2440 -0.4228 -0.1029
   27bCD     O2  248   0.742   2.602   0.719  0.0235 -0.1256  0.4917
   27bCD     C6  249   0.512   2.445   1.100 -0.1087  0.2228 -0.2505
   27bCD     C4  250   0.308   2.996   0.821 -0.0238 -0.1552  0.0790
   27bCD     O2  251   0.482   3.041   0.667 -0.2697 -0.1270  0.1115
   27bCD     C6  252   0.284   2.867   1.070 -0.1028  0.3135 -0.0584
   27bCD     C4  253  -0.072   2.994   0.539 -0.1302 -0.1504 -0.0268
   27bCD     O2  254   0.063   3.105   0.385  0.2849  0.1844 -0.6608
   27bCD     C6  255  -0.126   3.014   0.832 -0.1251 -0.0107 -0.1722
   27bCD     C4  256  -0.289   2.640   0.299  0.2854 -0.1869  0.0928
   27bCD     O2  257  -0.200   2.751   0.111 -0.0574 -0.4230  0.2606
   27bCD     C6  258  -0.424   2.748   0.513  0.3433 -0.4786 -0.2611
   27bCD     C4  259  -0.211   2.154   0.278 -0.1794 -0.0603  0.2852
   27bCD     O2  260  -0.118   2.218   0.065 -0.0832  0.5322  0.3326
   27bCD     C6  261  -0.448   2.228   0.428  0.5914  0.3939  0.2620
   27bCD     C4  262   0.159   1.921   0.495  0.2041  0.0584  0.0309
   27bCD     O2  263   0.220   1.903   0.273  0.5053 -0.0593  0.3149
   27bCD     C6  264  -0.082   1.873   0.669 -0.3527 -0.0509  0.4696
   27bCD     C4  265   0.545   2.124   0.733 -0.1754  0.2315  0.0606
   27bCD     O2  266   0.647   2.094   0.536 -0.0582  0.2827 -0.0271
   27bCD     C6  267   0.357   1.944   0.888  0.0918 -0.2514 -0.0552
   28bCD     C4  268   6.312   0.005   1.756  0.1054 -0.0039 -0.1919
   28bCD     O2  269   6.213  -0.112   1.932  0.2935  0.0403 -0.0975
   28bCD     C6  270   6.568   0.006   1.616  0.0631  0.1930 -0.1691
   28bCD     C4  271   5.968   0.309   1.601 -0.0060  0.0055 -0.0306
   28bCD     O2  272   5.831   0.193   1.761 -0.0907 -0.4954  0.0862
   28bCD     C6  273   6.196   0.240   1.439  0.0457 -0.0569 -0.3456
   28bCD     C4  274   5.963   0.763   1.751  0.2188 -0.1678 -0.1451
   28bCD     O2  275   5.792   0.682   1.885 -0.0818  0.0295 -0.4017
   28bCD     C6  276   6.010   0.758   1.461 -0.1116 -0.1499 -0.0090
   28bCD     C4  277   6.300   0.999   2.029  0.2413  0.1173 -0.1135
   28bCD     O2  278   6.144   0.967   2.199  0.0637  0.1857  0.4192
   28bCD     C6  279   6.314   1.068   1.745  0.0866 -0.2628  0.1978
   28bCD     C4  280   6.708   0.850   2.253  0.3300 -0.0689 -0.0114
   28bCD     O2  281   6.574   0.871   2.466 -0.5128  0.0172  0.3460
   28bCD     C6  282   6.755   0.994   1.994  0.0945 -0.0822  0.2093
   28bCD     C4  283   6.854   0.389   2.280  0.0185  0.0977 -0.2382
   28bCD     O2  284   6.749   0.404   2.478 -0.3003 -0.2028 -0.7447
   28bCD     C6  285   7.053   0.556   2.148  0.2383 -0.0927  0.1214
   28bCD     C4  286   6.693   0.008   2.044  0.0981  0.0418  0.2396
   28bCD     O2  287   6.611  -0.027   2.267 -0.0711  0.3003  0.2673
   28bCD     C6  288   6.953   0.128   1.957 -0.1383  0.0237  0.1242
   29bCD     C4  289   1.546   0.344   5.654 -0.1377  0.2565  0.3687
   29bCD     O2  290   1.588   0.153   5.802  0.1215  0.2429  0.4889
   29bCD     C6  291   1.560   0.448   5.378 -0.1679  0.0129 -0.0099
   29bCD     C4  292   1.548   0.703   5.975  0.1081 -0.0902 -0.1022
   29bCD     O2  293   1.521   0.539   6.095 -0.4080  0.7949 -0.1762
   29bCD     C6  294   1.453   0.771   5.711  0.1751  0.2458 -0.0718
   29bCD     C4  295   1.980   0.871   6.136  0.1920  0.1552  0.0436
   29bCD     O2  296   1.947   0.722   6.304  0.2627 -0.5088 -0.1725
   29bCD     C6  297   1.815   1.056   5.993 -0.2025 -0.0417 -0.4214
   29bCD     C4  298   2.415   0.730   5.947 -0.1010 -0.1857 -0.0560
   29bCD     O2  299   2.446   0.653   6.179 -0.1029 -0.1704  0.2227
   29bCD     C6  300   2.311   0.995   5.833 -0.0222 -0.0408  0.1061
   29bCD     C4  301   2.516   0.367   5.611  0.1095 -0.0037 -0.0189
   29bCD     O2  302   2.571   0.249   5.814 -0.3293  0.2425  0.2227
   29bCD     C6  303   2.504   0.658   5.508  0.0563  0.6303  0.1949
   29bCD     C4  304   2.256   0.027   5.333  0.2018 -0.1341  0.1417
   29bCD     O2  305   2.319  -0.098   5.547  0.4349 -0.3841  0.2165
   29bCD     C6  306   2.390   0.240   5.172 -0.1697  0.0787 -0.2701
   29bCD     C4  307   1.768   0.034   5.344 -0.0011  0.0403 -0.1210
   29bCD     O2  308   1.811  -0.173   5.456 -0.4710 -0.1150  0.1737
   29bCD     C6  309   1.868   0.120   5.063 -0.0988 -0.2364 -0.3411
   30bCD     C4  310   6.013   1.179   6.131 -0.2275  0.1428  0.1156
   30bCD     O2  311   5.836   1.316   6.149  0.0073 -0.0535 -0.5169
   30bCD     C6  312   6.295   1.260   6.096 -0.2337 -0.3526 -0.0755
   30bCD     C4  313   5.878   0.702   6.212 -0.0602  0.2036  0.0526
   30bCD     O2  314   5.682   0.805   6.249  0.3778  0.0600  0.0640
   30bCD     C6  315   6.140   0.767   6.309  0.4402 -0.0000  0.0514
   30bCD     C4  316   5.870   0.355   5.846  0.2753 -0.3198 -0.1141
   30bCD     O2  317   5.639   0.396   5.880  0.2724 -0.3615  0.2126
   30bCD     C6  318   6.104   0.319   6.016 -0.2583  0.0810 -0.1469
   30bCD     C4  319   5.961   0.485   5.386  0.0610  0.2822  0.0427
   30bCD     O2  320   5.748   0.431   5.385  0.0404  0.4533 -0.2403
   30bCD     C6  321   6.189   0.372   5.538 -0.0783  0.3310 -0.0210
   30bCD     C4  322   5.970   0.940   5.210 -0.1535  0.1806 -0.0464
   30bCD     O2  323   5.729   0.889   5.194  0.4047 -0.5982 -0.1865
   30bCD     C6  324   6.238   0.794   5.239 -0.0588  0.2037  0.0853
   30bCD     C4  325   6.028   1.405   5.311 -0.1113  0.1657  0.1248
   30bCD     O2  326   5.807   1.404   5.229 -0.2119 -0.1340 -0.1243
   30bCD     C6  327   6.261   1.272   5.170  0.0222 -0.2149 -0.3554
   30bCD     C4  328   6.073   1.517   5.776  0.1245  0.3842 -0.2257
   30bCD     O2  329   5.854   1.603   5.767 -0.0881 -0.1921  0.2922
   30bCD     C6  330   6.316   1.513   5.601 -0.1055 -0.2794 -0.3340
   31bCD     C4  331   0.299   6.011   2.016  0.2316  0.0819  0.2376
   31bCD     O2  332   0.260   5.806   1.891  0.0114  0.2958 -0.7635
   31bCD     C6  333   0.193   6.148   2.239  0.0696  0.0251  0.1789
   31bCD     C4  334   0.569   6.282   1.713 -0.1352 -0.1460  0.0721
   31bCD     O2  335   0.585   6.085   1.630  0.3766 -0.0457 -0.2451
   31bCD     C6  336   0.520   6.340   1.996  0.0913 -0.2014 -0.0234
   31bCD     C4  337   0.331   6.522   1.356 -0.0151  0.1651  0.2103
   31bCD     O2  338   0.473   6.375   1.227  0.4780  0.2999 -0.0562
   31bCD     C6  339   0.330   6.687   1.604  0.1467 -0.2677  0.0172
   31bCD     C4  340  -0.130   6.456   1.193 -0.1574  0.0755  0.2138
   31bCD     O2  341  -0.008   6.314   1.033 -0.0594 -0.3722  0.1876
   31bCD     C6  342  -0.039   6.706   1.311  0.0419  0.0275  0.5339
   31bCD     C4  343  -0.494   6.219   1.425 -0.2772  0.3129  0.2981
   31bCD     O2  344  -0.426   6.056   1.266  0.3313  0.0372 -0.1015
   31bCD     C6  345  -0.507   6.513   1.440  0.1214 -0.0836  0.0698
   31bCD     C4  346  -0.543   5.950   1.821 -0.2793  0.2967 -0.0883
   31bCD     O2  347  -0.509   5.774   1.685  0.1254 -0.3855 -0.0484
   31bCD     C6  348  -0.690   6.198   1.799 -0.2510 -0.4253  0.1819
   31bCD     C4  349  -0.147   5.895   2.130  0.4924 -0.0764  0.1373
   31bCD     O2  350  -0.195   5.678   2.042  0.1069  0.1939  0.0146
   31bCD     C6  351  -0.317   6.129   2.237 -0.3285 -0.0844  0.4556
   32bCD     C4  352   0.310   4.227   6.263  0.0933  0.1444  0.2480
   32bCD     O2  353   0.236   3.999   6.290 -0.2620 -0.5999  0.0493
   32bCD     C6  354   0.500   4.360   6.101 -0.3908  0.1666 -0.1651
   32bCD     C4  355   0.094   4.494   6.619  0.0832  0.1769 -0.0822
   32bCD     O2  356  -0.014   4.277   6.671 -0.3838  0.4335  0.6724
   32bCD     C6  357   0.111   4.639   6.372  0.3545 -0.2664 -0.0198
   32bCD     C4  358   0.371   4.682   6.971  0.0885  0.2094  0.2445
   32bCD     O2  359   0.252   4.522   7.090 -0.0108  0.1096  0.3845
   32bCD     C6  360   0.301   4.840   6.746 -0.3766 -0.4257 -0.1547
   32bCD     C4  361   0.837   4.565   7.086  0.1642  0.2789 -0.1538
   32bCD     O2  362   0.740   4.468   7.259 -0.3821 -0.2165  0.5318
   32bCD     C6  363   0.812   4.834   7.001 -0.1108 -0.0622 -0.0203
   32bCD     C4  364   1.185   4.301   6.862  0.1314 -0.1368 -0.1569
   32bCD     O2  365   1.135   4.176   7.069  0.6192  0.1288  0.6587
   32bCD     C6  366   1.199   4.585   6.835  0.4303  0.2380  0.0848
   32bCD     C4  367   1.101   4.032   6.478 -0.0710 -0.0115  0.1435
   32bCD     O2  368   1.107   3.855   6.640 -0.2131 -0.0012  0.2018
   32bCD     C6  369   1.223   4.277   6.429 -0.2570 -0.1281  0.0153
   32bCD     C4  370   0.723   3.949   6.198  0.1359 -0.0631 -0.3015
   32bCD     O2  371   0.697   3.732   6.292 -0.2680 -0.1137 -0.3137
   32bCD     C6  372   0.932   4.069   6.052 -0.4433  0.3339 -0.0316
   33bCD     C4  373   5.786   1.632   0.491  0.0237  0.0859  0.2379
   33bCD     O2  374   5.547   1.676   0.474  0.2483 -0.1671 -0.2030
   33bCD     C6  375   5.963   1.413   0.397  0.3848  0.1564 -0.6505
   33bCD     C4  376   5.964   1.960   0.753 -0.0141  0.0479 -0.0200
   33bCD     O2  377   5.759   2.070   0.690  0.0004 -0.0883 -0.2436
   33bCD     C6  378   6.163   1.770   0.629 -0.3958 -0.1344 -0.2682
   33bCD     C4  379   5.922   1.927   1.241  0.0672 -0.2729 -0.1771
   33bCD     O2  380   5.758   2.066   1.199  0.0189 -0.0980  0.0087
   33bCD     C6  381   6.190   1.908   1.147  0.0897  0.1391  0.2388
   33bCD     C4  382   5.743   1.563   1.516 -0.1380 -0.0413  0.0513
   33bCD     O2  383   5.557   1.717   1.513  0.3416 -0.0286  0.1340
   33bCD     C6  384   6.017   1.577   1.520 -0.3210 -0.3188 -0.3792
   33bCD     C4  385   5.587   1.116   1.405 -0.1652  0.1335 -0.3497
   33bCD     O2  386   5.370   1.212   1.461  0.5158  0.1872  0.1856
   33bCD     C6  387   5.864   1.133   1.513  0.1901  0.2899  0.0943
   33bCD     C4  388   5.523   0.965   0.937 -0.0240 -0.0570  0.0621
   33bCD     O2  389   5.289   1.008   1.008 -0.2080  0.1585 -0.0002
   33bCD     C6  390   5.751   0.822   1.040  0.2583  0.3224  0.0153
   33bCD     C4  391   5.580   1.196   0.512  0.1796 -0.0864 -0.1386
   33bCD     O2  392   5.347   1.222   0.569 -0.2472 -0.2799 -0.1299
   33bCD     C6  393   5.748   0.966   0.552  0.0120  0.0169 -0.2235
   34bCD     C4  394   1.462   1.413   0.155 -0.2323 -0.2527 -0.0818
   34bCD     O2  395   1.436   1.199   0.241 -0.3767  0.3186  0.0319
   34bCD     C6  396   1.457   1.671   0.282  0.0585  0.0252  0.0863
   34bCD     C4  397   1.576   1.364  -0.308  0.0221  0.0024  0.4554
   34bCD     O2  398   1.543   1.138  -0.242 -0.2801 -0.3347  0.1876
   34bCD     C6  399   1.695   1.599  -0.195  0.0170  0.3879 -0.1084
   34bCD     C4  400   1.233   1.483  -0.641 -0.0037 -0.3151 -0.0447
   34bCD     O2  401   1.242   1.255  -0.678 -0.2763 -0.2820 -0.3355
   34bCD     C6  402   1.445   1.676  -0.561 -0.2032  0.2436 -0.0356
   34bCD     C4  403   0.770   1.645  -0.600  0.1666 -0.3441 -0.0286
   34bCD     O2  404   0.718   1.435  -0.633  0.1327 -0.0227  0.4324
   34bCD     C6  405   0.966   1.861  -0.640 -0.4792  0.1894 -0.0398
   34bCD     C4  406   0.508   1.730  -0.190 -0.2398 -0.3167 -0.2585
   34bCD     O2  407   0.366   1.568  -0.249 -0.2447  0.2887  0.1290
   34bCD     C6  408   0.601   1.962  -0.357  0.2755  0.1948  0.2683
   34bCD     C4  409   0.650   1.642   0.265 -0.4202 -0.0129 -0.1547
   34bCD     O2  410   0.522   1.472   0.264 -0.1852  0.3941 -0.1909
   34bCD     C6  411   0.662   1.922   0.155  0.2026 -0.1769  0.0143
   34bCD     C4  412   1.088   1.502   0.444  0.2381 -0.0160 -0.1356
   34bCD     O2  413   0.983   1.302   0.485 -0.3688 -0.3805 -0.1238
   34bCD     C6  414   1.022   1.789   0.482 -0.1039  0.1404  0.2788
   35bCD     C4  415   0.516   0.891   5.973  0.0125 -0.0968 -0.1472
   35bCD     O2  416   0.317   0.762   5.933 -0.4729  0.3663  0.0212
   35bCD     C6  417   0.622   1.020   6.232  0.2099 -0.0651  0.2229
   35bCD     C4  418   0.551   1.161   5.567 -0.0581 -0.0540  0.0105
   35bCD     O2  419   0.419   0.979   5.465  0.1417 -0.1983 -0.4945
   35bCD     C6  420   0.807   1.087   5.723 -0.0658  0.1564 -0.0998
   35bCD     C4  421   0.333   1.603   5.551 -0.1269 -0.0488  0.1148
   35bCD     O2  422   0.172   1.476   5.418  0.5147  0.6280  0.0555
   35bCD     C6  423   0.637   1.603   5.530  0.1137  0.1651 -0.5879
   35bCD     C4  424   0.122   1.839   5.927 -0.1834 -0.0205 -0.2894
   35bCD     O2  425  -0.032   1.786   5.786  0.1263 -0.3966 -0.4943
   35bCD     C6  426   0.412   1.862   5.911  0.0377 -0.3517 -0.2696
   35bCD     C4  427  -0.095   1.697   6.340 -0.0313 -0.3217 -0.0264
   35bCD     O2  428  -0.287   1.659   6.210 -0.1030 -0.1623  0.3665
   35bCD     C6  429   0.113   1.908   6.372 -0.2756 -0.1955 -0.1964
   35bCD     C4  430  -0.041   1.288   6.587 -0.0447 -0.0216  0.4639
   35bCD     O2  431  -0.268   1.260   6.501 -0.0730 -0.0011 -0.7568
   35bCD     C6  432   0.126   1.497   6.685  0.1016  0.3229 -0.2162
   35bCD     C4  433   0.215   0.940   6.373 -0.0298  0.1965  0.0937
   35bCD     O2  434   0.016   0.845   6.294  0.4674 -0.0669 -0.2892
   35bCD     C6  435   0.326   1.108   6.590 -0.1241  0.1021  0.1006
   36bCD     C4  436   5.778   0.504   0.144 -0.0785  0.1905  0.0407
   36bCD     O2  437   5.968   0.417   0.032  0.6082  0.0619  0.1777
   36bCD     C6  438   5.687   0.751   0.298 -0.0312 -0.1828  0.0321
   36bCD     C4  439   5.493   0.133   0.288  0.1332  0.1378  0.1156
   36bCD     O2  440   5.630   0.034   0.110 -0.0343  0.0600 -0.2965
   36bCD     C6  441   5.386   0.405   0.304  0.1628  0.1532  0.1752
   36bCD     C4  442   5.561  -0.065   0.734 -0.3307 -0.1016  0.0364
   36bCD     O2  443   5.676  -0.211   0.593  0.9468 -0.0828 -0.1128
   36bCD     C6  444   5.307   0.114   0.721 -0.3668 -0.2571 -0.4721
   36bCD     C4  445   5.910   0.080   1.053  0.1854 -0.0548  0.1941
   36bCD     O2  446   6.006  -0.105   0.954  0.1512  0.1182  0.2142
   36bCD     C6  447   5.616   0.134   1.125 -0.0034 -0.1481 -0.1097
   36bCD     C4  448   6.167   0.496   0.974  0.1516 -0.2194 -0.0991
   36bCD     O2  449   6.287   0.312   0.971  0.0788 -0.1554  0.2662
   36bCD     C6  450   5.921   0.506   1.150 -0.4154 -0.0802  0.3442
   36bCD     C4  451   6.244   0.853   0.671 -0.1930 -0.2415  0.1028
   36bCD     O2  452   6.459   0.737   0.669 -0.3103  0.0704 -0.1225
   36bCD     C6  453   6.013   0.855   0.838  0.2328  0.0216  0.3117
   36bCD     C4  454   6.106   0.841   0.207  0.3349  0.0371  0.0675
   36bCD     O2  455   6.312   0.788   0.164 -0.5507  0.1751  0.0119
   36bCD     C6  456   5.992   1.083   0.301 -0.1072 -0.3043 -0.1805
   37bCD     C4  457   6.481   3.603   0.912 -0.1531 -0.1537 -0.1283
   37bCD     O2  458   6.446   3.444   0.762 -0.2018  0.5844  0.2172
   37bCD     C6  459   6.459   3.898   0.932 -0.0920  0.0976 -0.0796
   37bCD     C4  460   6.760   3.425   1.257  0.0223 -0.2307 -0.1412
   37bCD     O2  461   6.672   3.231   1.187 -0.0551 -0.1087  0.2969
   37bCD     C6  462   6.666   3.688   1.318 -0.0036 -0.2410  0.1533
   37bCD     C4  463   7.253   3.398   1.224  0.3175  0.0572  0.0434
   37bCD     O2  464   7.208   3.151   1.195 -0.1526 -0.4400  0.2929
   37bCD     C6  465   7.131   3.612   1.382 -0.0278 -0.0621  0.0196
   37bCD     C4  466   7.492   3.574   0.824 -0.2316  0.1225  0.0968
   37bCD     O2  467   7.500   3.339   0.764 -0.0235 -0.0613  0.0208
   37bCD     C6  468   7.573   3.675   1.083 -0.0426 -0.1007  0.1595
   37bCD     C4  469   7.335   3.845   0.463 -0.0107  0.2413  0.3938
   37bCD     O2  470   7.364   3.623   0.350 -0.0049 -0.5914 -0.1434
   37bCD     C6  471   7.427   3.972   0.700 -0.1882  0.3873 -0.4226
   37bCD     C4  472   6.911   4.000   0.321  0.2314 -0.1722  0.1416
   37bCD     O2  473   6.951   3.846   0.163 -0.1859 -0.0832 -0.1247
   37bCD     C6  474   7.075   4.211   0.491 -0.0173  0.2201 -0.1673
   37bCD     C4  475   6.466   3.868   0.508  0.0073  0.0591  0.0659
   37bCD     O2  476   6.498   3.730   0.342 -0.3847 -0.0778  0.6244
   37bCD     C6  477   6.532   4.162   0.558 -0.2940  0.1892 -0.4680
   38bCD     C4  478   6.232   2.326   5.687  0.2831  0.0553 -0.1506
   38bCD     O2  479   6.473   2.293   5.676  0.0286 -0.3571 -0.0612
   38bCD     C6  480   6.024   2.151   5.797  0.0957 -0.1065  0.6675
   38bCD     C4  481   6.106   2.770   5.564 -0.0001 -0.0926 -0.0651
   38bCD     O2  482   6.323   2.795   5.543  0.0457 -0.1643  0.2565
   38bCD     C6  483   5.947   2.682   5.811 -0.5573  0.0310 -0.1788
   38bCD     C4  484   5.869   2.927   5.172 -0.0460 -0.0393  0.0157
   38bCD     O2  485   6.070   3.016   5.105 -0.1738  0.6832  0.1379
   38bCD     C6  486   5.725   2.972   5.417 -0.0896  0.0261 -0.2252
   38bCD     C4  487   5.683   2.623   4.820 -0.0432 -0.1163  0.0939
   38bCD     O2  488   5.842   2.730   4.694  0.4095 -0.1702 -0.2456
   38bCD     C6  489   5.531   2.729   5.058  0.6253  0.2210 -0.0452
   38bCD     C4  490   5.776   2.147   4.744 -0.0473  0.0570  0.0467
   38bCD     O2  491   5.916   2.263   4.584 -0.3626  0.1643  0.0401
   38bCD     C6  492   5.490   2.174   4.789  0.0728  0.4239 -0.1231
   38bCD     C4  493   6.034   1.850   5.004 -0.5111  0.2392 -0.1479
   38bCD     O2  494   6.199   1.912   4.828 -0.4407 -0.0320 -0.6610
   38bCD     C6  495   5.757   1.779   4.964  0.1130  0.6284 -0.1092
   38bCD     C4  496   6.213   1.922   5.454 -0.0887  0.0051  0.3094
   38bCD     O2  497   6.423   1.898   5.322 -0.2395 -0.3398  0.3598
   38bCD     C6  498   5.942   1.823   5.409 -0.4166 -0.1645  0.0474
   39bCD     C4  499   6.165   2.146   1.788  0.1465 -0.2704 -0.1568
   39bCD     O2  500   6.013   1.984   1.728 -0.0072  0.1490  0.3028
   39bCD     C6  501   6.125   2.425   1.855 -0.2358 -0.4068 -0.0797
   39bCD     C4  502   6.556   2.028   1.537  0.1106  0.0510  0.1649
   39bCD     O2  503   6.435   1.820   1.497  0.3822 -0.0126 -0.3834
   39bCD     C6  504   6.592   2.163   1.811  0.3885 -0.2099  0.3362
   39bCD     C4  505   6.665   2.231   1.097 -0.2873  0.1956 -0.0322
   39bCD     O2  506   6.577   2.010   1.050 -0.0503  0.6917 -0.0943
   39bCD     C6  507   6.787   2.342   1.317 -0.4405 -0.2227 -0.3147
   39bCD     C4  508   6.364   2.527   0.852  0.1580  0.3256  0.0921
   39bCD     O2  509   6.318   2.302   0.753  0.2354 -0.0839 -0.1504
   39bCD     C6  510   6.629   2.622   0.955  0.0900 -0.1760 -0.1715
   39bCD     C4  511   5.928   2.705   0.944  0.2285 -0.1728  0.0588
   39bCD     O2  512   5.845   2.552   0.798  0.2906  0.2014  0.0439
   39bCD     C6  513   6.151   2.889   0.938  0.0745  0.0258 -0.2999
   39bCD     C4  514   5.666   2.678   1.352 -0.0629  0.0296  0.0448
   39bCD     O2  515   5.554   2.537   1.235  0.0872 -0.3255 -0.0166
   39bCD     C6  516   5.787   2.953   1.347  0.2249  0.2896 -0.0585
   39bCD     C4  517   5.745   2.398   1.761  0.0445 -0.0098  0.5232
   39bCD     O2  518   5.607   2.249   1.651 -0.1004 -0.0320 -0.3217
   39bCD     C6  519   5.727   2.669   1.834 -0.0839 -0.0178  0.4758
   40bCD     C4  520   0.540   4.686   1.472 -0.2283 -0.2370  0.1122
   40bCD     O2  521   0.581   4.470   1.531  0.2148 -0.1094  0.0093
   40bCD     C6  522   0.541   4.842   1.217  0.4577  0.0757 -0.4288
   40bCD     C4  523   0.352   4.926   1.861 -0.4778 -0.1547  0.1056
   40bCD     O2  524   0.420   4.718   1.959 -0.1961 -0.1025  0.0050
   40bCD     C6  525   0.184   4.945   1.627  0.2350  0.4651 -0.2653
   40bCD     C4  526   0.615   5.332   1.982 -0.2815  0.1272 -0.0584
   40bCD     O2  527   0.699   5.168   2.145  0.1617 -0.1906 -0.3012
   40bCD     C6  528   0.374   5.404   1.805 -0.2718  0.2403 -0.0639
   40bCD     C4  529   1.054   5.400   1.776  0.0430  0.1235  0.0206
   40bCD     O2  530   1.121   5.303   1.988  0.2694  0.0636  0.1536
   40bCD     C6  531   0.826   5.556   1.647  0.1402  0.3146 -0.2396
   40bCD     C4  532   1.338   5.210   1.436  0.2788 -0.1106  0.1554
   40bCD     O2  533   1.458   5.140   1.613  0.2247 -0.0454  0.0081
   40bCD     C6  534   1.221   5.466   1.338  0.0644 -0.2194  0.0740
   40bCD     C4  535   1.282   4.823   1.154 -0.1308  0.0567  0.3472
   40bCD     O2  536   1.475   4.740   1.292  0.0634  0.2138  0.1855
   40bCD     C6  537   1.265   5.073   1.011 -0.1104 -0.2449 -0.1377
   40bCD     C4  538   0.887   4.560   1.170 -0.0113 -0.1718 -0.0225
   40bCD     O2  539   1.006   4.398   1.310  0.0928 -0.5569 -0.1303
   40bCD     C6  540   0.928   4.735   0.929 -0.2303 -0.1275 -0.1284
   41WN      WN  541   5.292   0.883   1.896  0.0503  0.2604 -0.0635
   42WN      WN  542   6.123   4.106   0.816  0.1299 -0.0798 -0.1061
   43WN      WN  543   2.655   2.971   3.232 -0.0333 -0.2169 -0.0724
   44WN      WN  544   6.106   5.232   1.870 -0.1595 -0.4371 -0.0949
   45WN      WN  545   5.821   2.935   4.177  0.1008 -0.1190  0.1442
   46WN      WN  546   2.794   5.318   1.728  0.3646 -0.1962  0.0501
   47WN      WN  547   4.764   5.750   2.610 -0.1031  0.0209 -0.3073
   48WN      WN  548   1.245   5.848   1.117  0.0990  0.2130 -0.1419
   49WN      WN  549   4.179   4.966   1.217  0.0846  0.0645  0.0907
   50WN      WN  550   1.298   2.817   5.563  0.0745 -0.0317 -0.0462
   51WN      WN  551   3.497   2.106   5.365 -0.4362  0.3843 -0.2349
   52WN      WN  552   2.692   2.502   2.536 -0.2021 -0.0748  0.2129
   53WN      WN  553   4.572   1.786   0.617 -0.3542  0.2174 -0.0793
   54WN      WN  554   3.565   1.345   4.423  0.0023 -0.2158 -0.0258
   55WN      WN  555   4.675   4.900   2.149  0.3315  0.0325 -0.1734
   56WN      WN  556   0.989   6.383   1.410  0.0839  0.0355  0.0073
   57WN      WN  557   4.386   6.203   6.339 -0.3941  0.0476  0.1753
   58WN      WN  558   1.327   3.068   0.690 -0.1097  0.0660  0.2047
   59WN      WN  559   5.294   2.842   3.583  0.2876  0.1869  0.3420
   60WN      WN  560   1.732   0.859   4.345 -0.0506 -0.0637 -0.0430
   61WN      WN  561   2.038   5.558   6.533 -0.0017  0.1090  0.1312
   62WN      WN  562   4.405   1.313   6.358 -0.1568  0.1868 -0.0616
   63WN      WN  563   3.493   6.547   4.514 -0.0039  0.1015  0.1432
   64WN      WN  564   5.805   0.311   2.261  0.2420  0.0834 -0.1540
   65WN      WN  565   4.583   0.210   3.541 -0.0505 -0.1951 -0.2167
   66WN      WN  566   5.055   0.083   3.643  0.2617  0.3488  0.1656
   67WN      WN  567   1.880   5.318   0.407  0.0046  0.0638 -0.2179
   68WN      WN  568   6.464   3.922   4.661 -0.1012  0.0791 -0.1158
   69WN      WN  569   6.279   3.437   5.031  0.1564 -0.1656 -0.0110
   70WN      WN  570   2.234   4.618   0.493 -0.2307 -0.2083 -0.0420
   71WN      WN  571   5.053   2.638   2.635 -0.1886 -0.0999  0.1114
   72WN      WN  572   1.505   0.172   1.873 -0.2945 -0.0746  0.0155
   73WN      WN  573   4.073   1.713   6.221  0.1497  0.0278 -0.0519
   74WN      WN  574   3.189   2.876   2.378 -0.1948  0.3000 -0.0138
   75WN      WN  575   3.873   6.446   5.493  0.1745 -0.1360 -0.0222
   76WN      WN  576   5.961   6.130   2.799  0.1393  0.0566 -0.0480
   77WN      WN  577   1.614   3.031   6.318  0.1780 -0.0382 -0.1706
   78WN      WN  578   6.409   1.104   5.600  0.0925  0.1181  0.0461
   79WN      WN  579   6.426   6.497   0.152 -0.0156 -0.0860  0.1543
   80WN      WN  580   4.754   5.347   2.320 -0.2704  0.0464  0.1742
   81WN      WN  581   2.865   0.270   3.932 -0.1811  0.2406 -0.3164
   82WN      WN  582   0.724   5.141   3.937  0.0475 -0.0005 -0.0309
   83WN      WN  583   2.669   3.077   5.646 -0.0383 -0.0820 -0.3136
   84WN      WN  584   6.176   5.860   3.781 -0.0651 -0.0755  0.3896
   85WN      WN  585   2.250   2.077   2.589 -0.1688 -0.0730 -0.1213
   86WN      WN  586   5.002   0.433   0.049 -0.1482 -0.0063  0.6485
   87WN      WN  587   3.067   0.621   3.729  0.0469 -0.0984 -0.3006
   88WN      WN  588   1.537   6.301   0.026 -0.1152  0.1284  0.1696
   89WN      WN  589   5.594   1.380   3.445  0.0030 -0.1554 -0.0214
   90WN      WN  590   0.002   2.268   2.704 -0.3346 -0.0447  0.3283
   91WN      WN  591   1.333   5.276   3.714  0.0160  0.1110  0.1750
   92WN      WN  592   6.196   4.362   1.709 -0.2173  0.1694 -0.1273
   93WN      WN  593   0.984   6.276   0.084 -0.0855 -0.1192 -0.3260
   94WN      WN  594   5.947   3.565   2.925 -0.2320  0.1034  0.3066
   95WN      WN  595   5.179   2.178   1.467 -0.0327  0.0923  0.7325
   96WN      WN  596   5.822   6.340   3.229 -0.0173 -0.1272 -0.1956
   97WN      WN  597   5.677   0.841   2.356  0.3117 -0.1425  0.8409
   98WN      WN  598   4.145   2.704   3.492  0.0737  0.0662 -0.2504
   99WN      WN  599   1.591   1.492   4.164  0.0855  0.2036 -0.0005
  100WN      WN  600   3.734   5.424   4.539  0.0711  0.3486  0.0389
  101WN      WN  601   2.592   1.827   0.490 -0.0139  0.1790  0.1978
  102WN      WN  602   3.859   0.396   5.868 -0.1351  0.0142 -0.6057
  103WN      WN  603   4.334   1.561   2.418 -0.0080 -0.0340  0.0226
  104WN      WN  604   1.955   1.840   3.321 -0.1720  0.0574 -0.0167
  105WN      WN  605   6.035   0.123   0.505  0.1954 -0.0123  0.0071
  106WN      WN  606   2.074   6.375   4.444  0.4513  0.1528  0.1810
  107WN      WN  607   3.444   3.817   5.169  0.0093 -0.1017  0.3480
  108WN      WN  608   0.699   4.901   6.017 -0.2309 -0.0022  0.3859
  109WN      WN  609   2.199   6.351   4.953  0.1071 -0.0065  0.1443
  110WN      WN  610   1.936   0.823   5.637 -0.0480  0.0548 -0.2669
  111WN      WN  611   2.232   3.585   2.662  0.0151 -0.1197  0.0199
  112WN      WN  612   2.250   1.868   1.811  0.1036  0.2807 -0.1150
  113WN      WN  613   2.820   4.711   2.377  0.0290  0.1850  0.3201
  114WN      WN  614   3.990   3.583   3.193 -0.0617 -0.2762  0.1316
  115WN      WN  615   2.929   3.023   1.072 -0.1886 -0.3199 -0.5224
  116WN      WN  616   4.798   4.092   3.378  0.1174  0.0538  0.0119
  117WN      WN  617   5.402   2.303   3.251 -0.3510 -0.0566  0.3601
  118WN      WN  618   3.244   1.978   0.797  0.0297  0.1755  0.1753
  119WN      WN  619   2.859   1.858   5.787 -0.2607 -0.2925 -0.2017
  120WN      WN  620   6.032   2.361   5.202 -0.2444 -0.0582 -0.0262
  121WN      WN  621   1.134   5.042   5.769 -0.0029  0.0645 -0.0119
  122WN      WN  622   3.791   2.344   5.769 -0.0834 -0.1501 -0.0671
  123WN      WN  623   6.398   0.286   5.153  0.1816 -0.0814  0.0100
  124WN      WN  624   4.298   3.196   3.383  0.3918 -0.1420 -0.1455
  125WN      WN  625   2.641   2.075   0.016  0.0473 -0.0177  0.0733
  126WN      WN  626   4.167   4.792   2.778 -0.1863 -0.0103  0.2162
  127WN      WN  627   1.703   5.453   2.160 -0.0680  0.1135 -0.4760
  128WN      WN  628   4.998   0.274   6.113  0.0840  0.1977 -0.1829
  129WN      WN  629   1.245   5.857   2.673 -0.2237 -0.0148  0.2565
  130WN      WN  630   4.720   3.237   3.604 -0.0977 -0.0184  0.2049
  131WN      WN  631   5.419   3.445   2.659  0.0777  0.1708 -0.1815
  132WN      WN  632   1.689   3.054   1.491  0.1689  0.2794  0.0702
  133WN      WN  633   3.140   3.673   0.165  0.2862  0.0151 -0.2673
  134WN      WN  634   0.507   3.232   5.350 -0.3195 -0.0232 -0.0224
  135WN      WN  635   3.625   6.519   3.194  0.0424  0.1163 -0.1690
  136WN      WN  636   4.921   0.941   0.411 -0.2120  0.0191  0.2277
  137WN      WN  637   3.628   2.029   3.080  0.2162  0.2612  0.4871
  138WN      WN  638   1.551   4.587   6.528  0.4170  0.0710 -0.0144
  139WN      WN  639   0.750   5.544   2.887 -0.1049 -0.1548  0.0571
  140WN      WN  640   4.102   1.358   5.813  0.0676 -0.1672 -0.1879
  141WN      WN  641   3.222   2.982   5.501 -0.2015 -0.3597 -0.0059
  142WN      WN  642   4.737   4.702   1.182  0.1903 -0.2275 -0.0006
  143WN      WN  643   2.048   3.901   0.825 -0.1783  0.0541 -0.0771
  144WN      WN  644   2.727   5.848   2.375  0.2313  0.0503 -0.0548
  145WN      WN  645   0.497   0.179   3.899 -0.1257  0.0251  0.1023
  146WN      WN  646   0.475   2.719   1.435 -0.3490 -0.0691 -0.2239
  147WN      WN  647   0.947   2.294   5.527 -0.4648 -0.0505  0.1892
  148WN      WN  648   2.429   4.074   5.125 -0.0116 -0.2417  0.0088
  149WN      WN  649   4.449   5.220   5.239  0.1261 -0.2489 -0.0469
  150WN      WN  650   1.978   2.513   2.921  0.1960  0.0794  0.1701
  151WN      WN  651   0.017   0.585   4.833 -0.0938 -0.3457  0.1432
  152WN      WN  652   0.128   6.188   3.063 -0.4405  0.3005  0.0614
  153WN      WN  653   0.624   1.591   2.287 -0.2541  0.1212 -0.3042
  154WN      WN  654   4.690   6.102   0.706  0.1927  0.1292  0.0219
  155WN      WN  655   3.025   4.658   4.103  0.2842 -0.0787  0.1581
  156WN      WN  656   3.406   6.296   6.011 -0.3643 -0.4597  0.5891
  157WN      WN  657   2.331   2.590   5.920 -0.1180  0.1686 -0.2834
  158WN      WN  658   0.996   1.733   3.188 -0.0609 -0.2554 -0.3219
  159WN      WN  659   4.603   1.186   5.890  0.1112 -0.2840  0.0389
  160WN      WN  660   0.568   0.088   6.061  0.0336 -0.1237 -0.2534
  161WN      WN  661   2.852   1.212   1.496  0.1630  0.0313 -0.1872
  162WN      WN  662   3.723   1.523   4.935 -0.0047 -0.0978  0.1310
  163WN      WN  663   5.652   2.068   5.244 -0.2178  0.2637  0.0686
  164WN      WN  664   1.177   4.051   5.589  0.2275 -0.2487  0.2280
  165WN      WN  665   3.902   0.984   4.572 -0.3001 -0.2026 -0.2236
  166WN      WN  666   6.216   2.329   1.300 -0.1449  0.1709  0.1529
  167WN      WN  667   1.170   4.470   3.363  0.0691 -0.3913  0.1923
  168WN      WN  668   3.139   5.224   5.595 -0.4044 -0.0397 -0.1234
  169WN      WN  669   1.724   2.686   5.951 -0.0394 -0.0539  0.1051
  170WN      WN  670   3.000   1.407   5.986  0.2736 -0.0502  0.3146
  171WN      WN  671   5.592   3.057   1.745  0.0007 -0.1589 -0.2503
  172WN      WN  672   4.272   6.102   4.001 -0.0783  0.3769  0.5118
  173WN      WN  673   4.875   3.617   2.646 -0.1740 -0.0638 -0.2491
  174WN      WN  674   2.961   2.442   6.509  0.0683 -0.1540 -0.2292
  175WN      WN  675   6.309   2.674   6.073 -0.0063  0.0344  0.0143
  176WN      WN  676   4.996   1.529   5.244 -0.1356 -0.3469 -0.0202
  177WN      WN  677   2.694   5.404   4.899 -0.0584 -0.1231  0.0253
  178WN      WN  678   4.084   2.334   3.041 -0.0245 -0.0328  0.3417
  179WN      WN  679   4.141   1.170   1.570  0.2611 -0.0243  0.2342
  180WN      WN  680   3.074   1.011   0.714  0.3359 -0.0776 -0.4528
  181WN      WN  681   0.551   5.810   3.337  0.1316  0.0021 -0.0527
  182WN      WN  682   0.764   0.595   4.641 -0.2578 -0.1969  0.0896
  183WN      WN  683   1.460   1.038   1.807  0.0943  0.2661  0.1600
  184WN      WN  684   5.313   1.809   3.320 -0.1633 -0.2849  0.3795
  185WN      WN  685   2.248   1.331   1.969 -0.1345  0.0009  0.1014
  186WN      WN  686   5.390   1.596   6.102 -0.2461 -0.2007  0.2721
  187WN      WN  687   1.397   1.057   3.972 -0.1590 -0.1033 -0.0109
  188WN      WN  688   3.827   2.301   1.861 -0.0689  0.0173 -0.0070
  189WN      WN  689   5.350   3.826   5.036 -0.1119  0.0672 -0.3451
  190WN      WN  690   4.884   2.318   1.878  0.3356  0.0932 -0.2154
  191WN      WN  691   4.211   5.450   4.890  0.2244 -0.0840  0.0734
  192WN      WN  692   4.058   6.504   6.044  0.1256  0.0981 -0.3392
  193WN      WN  693   5.240   0.546   2.274 -0.1340 -0.4968 -0.3627
  194WN      WN  694   6.003   2.420   6.467 -0.1980  0.0273  0.1604
  195WN      WN  695   0.496   2.226   2.781  0.1511 -0.1536  0.0228
  196WN      WN  696   4.349   6.154   3.516  0.3869  0.0506 -0.0743
  197WN      WN  697   4.588   1.803   6.190 -0.1733 -0.0311 -0.0614
  198WN      WN  698   2.549   2.939   0.828  0.2397  0.1760  0.2026
  199WN      WN  699   3.313   0.499   6.199  0.0103 -0.0131  0.2195
  200WN      WN  700   1.664   3.205   3.664  0.2867 -0.2765  0.2609
  201WN      WN  701   4.658   2.027   1.496 -0.0242 -0.0572  0.1970
  202WN      WN  702   2.460   5.466   1.420  0.1286 -0.0240  0.1233
  203WN      WN  703   3.292   4.128   0.344  0.0668 -0.0280  0.2196
  204WN      WN  704   0.604   1.110   4.099  0.2154 -0.0214 -0.1841
  205WN      WN  705   3.172   2.457   2.686 -0.0221 -0.3096  0.0471
  206WN      WN  706   3.142   0.977   2.309  0.1500  0.0957 -0.1546
  207WN      WN  707   1.579   1.319   2.237 -0.1636  0.0096 -0.0562
  208WN      WN  708   4.829   4.568   5.619  0.0052  0.1200  0.3697
  209WN      WN  709   4.712   5.943   4.859 -0.1196 -0.1505  0.0801
  210WN      WN  710   3.767   1.761   2.621  0.0731 -0.1362 -0.0596
  211WN      WN  711   1.643   6.478   4.746 -0.2094  0.1840 -0.0812
  212WN      WN  712   3.649   5.025   4.884  0.1028  0.0493 -0.0066
  213WN      WN  713   4.453   2.516   4.155  0.0691  0.1243  0.1286
  214WN      WN  714   3.208   1.365   4.995 -0.0210  0.2826 -0.0779
  215WN      WN  715   1.638   4.232   2.171 -0.0410 -0.0086  0.3572
  216WN      WN  716   2.685   6.358   3.882 -0.0479  0.1399  0.1589
  217WN      WN  717   0.447   2.274   1.734  0.2025 -0.0525  0.1481
  218WN      WN  718   1.508   3.289   5.896  0.0352 -0.4094  0.2699
  219WN      WN  719   4.798   3.696   4.863  0.0227  0.2486  0.0022
  220WN      WN  720   5.383   3.100   3.983 -0.1344  0.1711 -0.1387
  221WN      WN  721   4.915   5.771   0.380 -0.0941  0.1313  0.0334
  222WN      WN  722   2.050   0.480   5.310  0.2107 -0.1713 -0.0518
  223WN      WN  723   4.973   4.216   3.877 -0.0335  0.0988 -0.0893
  224WN      WN  724   2.342   2.474   4.852 -0.0810 -0.0022 -0.0406
  225WN      WN  725   0.174   5.971   4.880  0.1488 -0.2029  0.0418
  226WN      WN  726   5.048   2.430   1.108  0.2013 -0.0278  0.1941
  227WN      WN  727   3.633   1.919   2.066  0.0472  0.2177 -0.1102
  228WN      WN  728   3.363   2.151   0.107  0.0180  0.0026  0.1863
  229WN      WN  729   3.209   6.550   1.970  0.1546  0.0305  0.2293
  230WN      WN  730   5.022   1.721   2.277 -0.0689  0.3242  0.1896
  231WN      WN  731   0.226   1.855   1.942 -0.1332 -0.0948  0.0586
  232WN      WN  732   6.557   0.629   5.479  0.2030  0.0820  0.3776
  233WN      WN  733   5.521   6.407   3.564 -0.1691 -0.0827 -0.4427
  234WN      WN  734   4.809   2.285   6.310  0.1406 -0.2013  0.1986
  235WN      WN  735   2.982   0.706   1.581  0.1978  0.2567  0.0601
  236WN      WN  736   4.148   6.478   2.084  0.0155  0.3275 -0.1755
  237WN      WN  737   3.504   5.926   3.173  0.1347  0.0089 -0.0052
  238WN      WN  738   3.492   6.069   4.511 -0.0982  0.0285  0.0862
  239WN      WN  739   1.572   4.953   2.329 -0.1073  0.1535 -0.0873
  240WN      WN  740   4.336   3.265   2.927  0.1365  0.2043  0.2184
  241WN      WN  741   2.376   5.315   2.008  0.1192  0.1960 -0.0375
  242WN      WN  742   4.865   0.803   0.918  0.4131 -0.1602 -0.1436
  243WN      WN  743   1.733   2.191   6.092 -0.0252  0.0041 -0.1177
  244WN      WN  744   4.525   5.099   4.173  0.1065  0.1442 -0.0513
  245WN      WN  745   1.222   6.310   0.504 -0.0652  0.0581  0.0199
  246WN      WN  746   3.957   4.883   4.035  0.0339 -0.0710 -0.1391
  247WN      WN  747   3.595   1.686   0.571  0.0178  0.0281  0.1671
  248WN      WN  748   0.843   2.834   1.776  0.0485 -0.0996  0.1275
  249WN      WN  749   1.009   6.383   4.003  0.0661  0.1838  0.2745
  250WN      WN  750   3.932   1.172   6.265  0.1538 -0.1083 -0.0168
  251WN      WN  751   0.663   3.442   2.654 -0.2488 -0.0228  0.0810
  252WN      WN  752   5.391   1.311   4.009  0.0995  0.2617 -0.2219
  253WN      WN  753   1.630   3.888   3.136 -0.0641  0.0365  0.0087
  254WN      WN  754   1.926   6.286   1.642 -0.1507 -0.0172  0.1646
  255WN      WN  755   0.578   4.181   4.972 -0.2273  0.1717 -0.0602
  256WN      WN  756   5.593   6.453   2.042 -0.0761 -0.2526  0.0146
  257WN      WN  757   2.191   0.674   4.042  0.2854 -0.1809 -0.0152
  258WN      WN  758   1.287   2.115   3.599 -0.0103 -0.2885 -0.0492
  259WN      WN  759   2.433   3.065   4.927  0.1490 -0.0124  0.2591
  260WN      WN  760   1.056   4.805   1.641  0.1858 -0.1260  0.0191
  261WN      WN  761   5.656   6.125   5.125 -0.1543 -0.0400 -0.0906
  262WN      WN  762   2.021   3.019   0.893  0.0851 -0.4385 -0.1938
  263WN      WN  763   5.556   0.576   4.905  0.1011  0.2082 -0.0049
  264WN      WN  764   1.940   3.653   0.186  0.0350 -0.1660 -0.0054
  265WN      WN  765   6.341   5.318   0.574 -0.1498 -0.0608 -0.0954
  266WN      WN  766   2.255   5.291   3.075 -0.0732  0.1375  0.1216
  267WN      WN  767   3.332   4.530   3.222 -0.0344 -0.2212  0.3828
  268WN      WN  768   3.457   3.846   2.425  0.0667 -0.1014  0.0710
  269WN      WN  769   4.584   0.954   4.922 -0.1617  0.1155  0.0411
  270WN      WN  770   2.053   4.946   6.016  0.1812 -0.3540 -0.2293
  271WN      WN  771   5.117   3.767   1.825 -0.0230 -0.0311  0.1064
  272WN      WN  772   6.187   4.466   0.503 -0.2554  0.0777 -0.0553
  273WN      WN  773   2.275   4.440   2.785  0.2041 -0.3889  0.0219
  274WN      WN  774   4.346   5.904   2.819 -0.2598 -0.0644 -0.1812
  275WN      WN  775   0.360   6.144   4.480 -0.0462 -0.1152 -0.0738
  276WN      WN  776   2.232   3.819   4.302  0.1974 -0.4652 -0.4286
  277WN      WN  777   5.143   6.181   1.982  0.1177 -0.1846  0.1172
  278WN      WN  778   3.900   5.762   0.522  0.1070  0.1326 -0.1187
  279WN      WN  779   2.100   4.346   4.458  0.1211 -0.1834 -0.0604
  280WN      WN  780   1.755   1.488   1.809 -0.4367 -0.2278  0.5203
  281WN      WN  781   0.812   4.835   3.526 -0.1033 -0.0750 -0.0707
  282WN      WN  782   1.957   3.362   5.629  0.1437 -0.3383  0.1331
  283WN      WN  783   6.503   6.116   1.690  0.4634 -0.4098 -0.0506
  284WN      WN  784   6.467   3.133   1.682 -0.0850  0.2326  0.1832
  285WN      WN  785   1.513   5.965   0.710 -0.3254  0.0999  0.1408
  286WN      WN  786   0.683   3.330   2.080  0.1379  0.0216 -0.4721
  287WN      WN  787   0.594   6.249   5.797  0.2720 -0.0151 -0.2529
  288WN      WN  788   4.757   4.685   4.056 -0.0025  0.5193 -0.0921
  289WN      WN  789   4.872   2.972   1.266  0.2775 -0.1521  0.2616
  290WN      WN  790   1.902   0.165   2.533  0.3361 -0.1593 -0.1598
  291WN      WN  791   0.020   0.072   3.658  0.1226  0.1236  0.0441
  292WN      WN  792   4.193   5.189   3.719 -0.1072 -0.1977 -0.0194
  293WN      WN  793   0.949   5.564   4.084  0.1486 -0.2494 -0.3507
  294WN      WN  794   5.101   2.771   4.929 -0.2324 -0.2744  0.0312
  295WN      WN  795   1.834   1.736   5.812  0.1365  0.2288 -0.1047
  296WN      WN  796   0.936   1.306   2.593 -0.0877  0.2010  0.0760
  297WN      WN  797   2.325   3.298   1.228  0.1454 -0.2483  0.0616
  298WN      WN  798   4.334   3.524   5.247  0.1512  0.0277 -0.0768
  299WN      WN  799   4.841   6.440   4.691 -0.0246 -0.1252  0.1198
  300WN      WN  800   0.226   2.851   2.117  0.0777  0.0898 -0.2421
  301WN      WN  801   6.567   4.588   3.270 -0.1644 -0.1958 -0.2336
  302WN      WN  802   1.049   6.303   1.926  0.0112  0.0709 -0.2314
  303WN      WN  803   3.924   5.881   6.055  0.3324  0.0439 -0.1283
  304WN      WN  804   4.531   5.285   6.344 -0.0881  0.2544  0.4036
  305WN      WN  805   3.933   2.347   0.945  0.0043 -0.0192 -0.1353
  306WN      WN  806   5.078   3.398   5.118 -0.3193 -0.0242 -0.0509
  307WN      WN  807   4.306   5.570   4.142  0.2462  0.1623 -0.1758
  308WN      WN  808   3.450   5.262   2.170  0.0491 -0.0075 -0.0794
  309WN      WN  809   0.305   3.455   6.093 -0.1725  0.1043 -0.3399
  310WN      WN  810   3.123   2.153   3.860 -0.2227  0.4218 -0.1979
  311WN      WN  811   4.442   5.761   6.018  0.1755  0.0771 -0.1448
  312WN      WN  812   4.234   6.052   5.684  0.1262  0.1062  0.0558
  313WN      WN  813   0.264   4.131   1.946  0.3460 -0.0866 -0.1421
  314WN      WN  814   2.200   4.653   3.587 -0.1656  0.0554  0.1488
  315WN      WN  815   1.359   6.477   3.164 -0.0022 -0.0487  0.1956
  316WN      WN  816   3.587   3.712   6.398  0.0315 -0.1952  0.1352
  317WN      WN  817   2.417   1.041   5.413  0.1623 -0.3760 -0.0519
  318WN      WN  818   5.525   4.518   2.410 -0.0592  0.1684 -0.0185
  319WN      WN  819   2.990   1.498   5.452  0.2162  0.4219  0.2404
  320WN      WN  820   4.410   5.817   2.148  0.2722  0.1688  0.1382
  321WN      WN  821   0.067   3.020   5.183  0.1808 -0.0923  0.1686
  322WN      WN  822   3.378   2.671   0.274  0.0252  0.3358  0.4093
  323WN      WN  823   1.899   6.158   0.986 -0.2084  0.0070  0.1075
  324WN      WN  824   2.922   6.142   2.018 -0.1542 -0.1595 -0.2828
  325WN      WN  825   2.901   5.644   4.265 -0.2422  0.2245 -0.1571
  326WN      WN  826   1.065   0.804   2.507  0.1530  0.0683  0.0925
  327WN      WN  827   4.152   1.878   1.964 -0.0054 -0.1170 -0.2394
  328WN      WN  828   4.166   1.479   3.537 -0.2811 -0.0231 -0.2322
  329WN      WN  829   4.007   3.437   3.775 -0.1172  0.2581  0.0700
  330WN      WN  830   3.935   5.745   6.546 -0.2465 -0.0055 -0.0463
  331WN      WN  831   4.957   5.465   4.218  0.0293  0.4306 -0.0039
  332WN      WN  832   5.137   5.684   3.052 -0.2185  0.0725 -0.4321
  333WN      WN  833   2.120   5.949   0.523 -0.2368 -0.0263  0.1369
  334WN      WN  834   0.440   4.062   4.150  0.1852 -0.4466  0.2813
  335WN      WN  835   2.011   4.824   5.527  0.2636  0.0749  0.2189
  336WN      WN  836   3.689   2.684   5.375 -0.0059 -0.1189 -0.1145
  337WN      WN  837   4.540   4.474   3.155 -0.0756 -0.2396 -0.0261
  338WN      WN  838   1.465   5.364   0.066 -0.0861  0.0700  0.1798
  339WN      WN  839   5.860   3.219   5.750 -0.2752 -0.0646  0.2054
  340WN      WN  840   2.737   2.559   5.661 -0.0547  0.1060 -0.2611
  341WN      WN  841   2.094   4.232   1.400  0.2531  0.0159 -0.0650
  342WN      WN  842   4.860   1.999   1.016  0.1225  0.0583  0.1188
  343WN      WN  843   1.279   0.656   1.131 -0.2343 -0.3679 -0.1641
  344WN      WN  844   4.596   3.408   1.740  0.0464 -0.0739  0.3067
  345WN      WN  845   1.394   0.062   3.657  0.0776  0.1381 -0.2343
  346WN      WN  846   0.690   0.912   2.176 -0.2109  0.0021 -0.1188
  347WN      WN  847   0.260   3.612   2.418 -0.2989 -0.1009  0.2062
  348WN      WN  848   6.408   5.721   0.878 -0.1848 -0.2843  0.0454
  349WN      WN  849   4.376   4.712   4.528  0.0548  0.1016  0.0780
  350WN      WN  850   3.583   3.861   1.858 -0.2382  0.2615  0.0794
  351WN      WN  851   5.658   4.941   3.714 -0.0992 -0.1805 -0.0885
  352WN      WN  852   6.049   4.731   5.123  0.0589 -0.0970 -0.3258
  353WN      WN  853   0.069   4.550   1.587 -0.1172  0.1623 -0.0820
  354WN      WN  854   3.172   5.655   1.997  0.1229 -0.2990  0.1255
  355WN      WN  855   0.898   3.437   1.634 -0.0355  0.0068 -0.2311
  356WN      WN  856   2.881   0.037   2.356 -0.1485 -0.3248 -0.0005
  357WN      WN  857   3.483   3.188   0.266 -0.0181  0.0097  0.3113
  358WN      WN  858   5.880   6.146   0.200  0.2205 -0.2418  0.0852
  359WN      WN  859   2.570   1.159   6.176  0.1966 -0.3182 -0.0833
  360WN      WN  860   6.165   3.760   5.413 -0.1688  0.0631  0.2653
  361WN      WN  861   0.662   0.047   2.264 -0.0698  0.1606 -0.2597
  362WN      WN  862   4.952   1.168   2.370  0.0956 -0.0033  0.0546
  363WN      WN  863   6.301   4.114   1.269  0.2435  0.1463  0.3792
  364WN      WN  864   3.395   1.899   5.840  0.0379  0.0691  0.0065
  365WN      WN  865   3.625   4.201   0.772 -0.0585  0.0318 -0.2754
  366WN      WN  866   4.879   3.993   0.410  0.1945 -0.0424 -0.2143
  367WN      WN  867   4.218   0.012   1.100 -0.4678 -0.0869 -0.0868
  368WN      WN  868   4.140   2.131   2.383  0.1600  0.2060  0.2695
  369WN      WN  869   3.241   4.587   2.720 -0.4055  0.0655 -0.0947
  370WN      WN  870   2.878   5.052   6.514  0.0715 -0.0134  0.1192
  371WN      WN  871   3.230   4.066   1.480 -0.2430  0.0688 -0.2260
  372WN      WN  872   3.502   0.251   5.020 -0.2385  0.4684 -0.0878
  373WN      WN  873   3.005   4.106   3.300  0.3557  0.0233  0.3518
  374WN      WN  874   5.529   1.493   4.677 -0.2106  0.0223  0.0278
  375WN      WN  875   3.606   4.518   0.310  0.3150 -0.0222  0.0228
  376WN      WN  876   4.698   5.852   3.363  0.1413  0.0372  0.3367
  377WN      WN  877   1.110   3.070   2.763  0.0239 -0.0778 -0.0841
  378WN      WN  878   3.912   5.490   2.056  0.2456  0.1870  0.1729
  379WN      WN  879   2.306   1.322   4.970  0.0661  0.1861 -0.3763
  380WN      WN  880   3.340   1.458   0.943  0.2191 -0.0449 -0.1137
  381WN      WN  881   3.424   2.227   4.508 -0.0794 -0.2131  0.1659
  382WN      WN  882   2.000   2.319   5.635  0.2932 -0.2223 -0.1123
  383WN      WN  883   3.001   0.452   0.541 -0.3470  0.2572 -0.2547
  384WN      WN  884   1.832   6.363   3.148  0.0496 -0.3875  0.4121
  385WN      WN  885   1.888   2.918   2.018 -0.2102 -0.1307 -0.0261
  386WN      WN  886   5.142   1.756   4.474  0.0904  0.1426 -0.0825
  387WN      WN  887   5.912   0.896   5.675 -0.0192  0.2376 -0.2454
  388WN      WN  888   2.086   2.853   3.398  0.2783  0.2635 -0.0456
  389WN      WN  889   2.870   3.236   4.569  0.0705  0.0121 -0.2286
  390WN      WN  890   1.589   2.169   2.826 -0.0295 -0.0319  0.0317
  391WN      WN  891   0.924   2.541   3.570 -0.1817 -0.2246 -0.2111
  392WN      WN  892   3.424   5.457   2.885  0.0309  0.0435  0.0462
  393WN      WN  893   4.242   3.112   2.296 -0.0991 -0.0481  0.0072
  394WN      WN  894   5.117   5.040   4.379  0.1847  0.0333 -0.3458
  395WN      WN  895   1.962   3.319   4.062  0.1590  0.0852 -0.2434
  396WN      WN  896   5.215   1.385   0.126 -0.1527  0.3810 -0.0088
  397WN      WN  897   5.312   0.708   0.579 -0.1332 -0.0722 -0.1097
  398WN      WN  898   3.038   0.476   5.746 -0.3985  0.1064  0.2094
  399WN      WN  899   1.281   0.130   6.379  0.0998  0.1275  0.1393
  400WN      WN  900   4.352   2.993   3.966 -0.0662  0.0721 -0.1994
  401WN      WN  901   0.116   0.771   3.991  0.0026 -0.1213 -0.0505
  402WN      WN  902   6.056   1.022   4.395  0.5200  0.1922 -0.0534
  403WN      WN  903   5.823   5.143   5.380 -0.0545  0.3404 -0.1852
  404WN      WN  904   6.203   4.869   3.476 -0.2692 -0.3283 -0.2652
  405WN      WN  905   3.230   1.911   3.404  0.2900  0.0896 -0.0868
  406WN      WN  906   5.728   0.499   0.709  0.2209  0.4516  0.1340
  407WN      WN  907   1.271   2.404   5.890 -0.0832 -0.0229 -0.0174
  408WN      WN  908   3.684   0.456   4.621  0.0375  0.0595 -0.0869
  409WN      WN  909   4.240   2.056   0.413 -0.0185 -0.0672 -0.2117
  410WN      WN  910   5.373   1.933   0.922 -0.0057 -0.0367  0.0844
  411WN      WN  911   2.155   1.390   1.510 -0.0305 -0.0288  0.4189
  412WN      WN  912   4.498   3.819   0.816 -0.0089  0.2397  0.1942
  413WN      WN  913   4.638   4.323   5.213 -0.0213  0.1512  0.1943
  414WN      WN  914   2.290   2.865   3.888 -0.2700  0.2709 -0.2111
  415WN      WN  915   2.355   3.411   0.729 -0.3470 -0.0129 -0.4388
  416WN      WN  916   5.736   6.069   6.305 -0.0120 -0.1471  0.1530
  417WN      WN  917   4.033   4.656   3.330 -0.1485 -0.3597  0.0909
  418WN      WN  918   3.452   6.048   6.410  0.0530 -0.5002  0.1876
  419WN      WN  919   6.452   0.115   4.618 -0.1331 -0.1315 -0.1863
  420WN      WN  920   2.766   2.675   3.940 -0.2651 -0.6180 -0.1166
  421WN      WN  921   3.292   5.044   2.563 -0.1803 -0.1730  0.0803
  422WN      WN  922   0.450   1.179   1.340  0.2346  0.2785 -0.2292
  423WN      WN  923   3.945   4.541   1.628 -0.0652  0.0436  0.1578
  424WN      WN  924   6.227   5.568   5.477 -0.0469  0.0388  0.3056
  425WN      WN  925   0.784   2.647   6.278  0.0290 -0.0355  0.1163
  426WN      WN  926   4.724   0.452   3.079 -0.2161  0.0152  0.1839
  427WN      WN  927   2.604   3.959   2.909 -0.1094  0.4445  0.2650
  428WN      WN  928   4.860   4.458   0.020  0.0159 -0.1858 -0.0942
  429WN      WN  929   0.338   5.016   3.259 -0.1526  0.1025 -0.1608
  430WN      WN  930   2.426   5.298   4.079 -0.0296  0.0969 -0.0556
  431WN      WN  931   3.311   4.147   2.909 -0.1355 -0.0976  0.1056
  432WN      WN  932   0.160   4.463   5.234  0.0424 -0.3930  0.0987
  433WN      WN  933   5.997   0.511   4.673  0.0850 -0.1229 -0.4513
  434WN      WN  934   5.043   1.298   4.790 -0.1030 -0.3208 -0.1428
  435WN      WN  935   0.406   4.424   1.061  0.3257 -0.2647  0.2759
  436WN      WN  936   2.475   3.625   5.443 -0.1281  0.2122  0.0051
  437WN      WN  937   1.309   6.317   5.367 -0.0533 -0.1280 -0.2359
  438WN      WN  938   4.553   0.774   1.467  0.0731 -0.1286 -0.4352
  439WN      WN  939   2.100   0.516   1.566  0.0388  0.2606 -0.1521
  440WN      WN  940   2.888   1.704   1.010 -0.2663 -0.1192  0.1334
  441WN      WN  941   3.239   0.390   0.112  0.3771  0.0217  0.1741
  442WN      WN  942   3.552   0.343   0.459 -0.0156 -0.1687 -0.3863
  443WN      WN  943   0.128   3.906   5.169 -0.0771 -0.1780  0.3233
  444WN      WN  944   4.078   2.313   3.746  0.0238 -0.0626  0.0419
  445WN      WN  945   2.817   2.430   0.795 -0.1221  0.3679  0.2280
  446WN      WN  946   3.812   4.422   3.785 -0.2524 -0.1329 -0.2083
  447WN      WN  947   4.736   0.284   5.594 -0.3621  0.0302 -0.0897
  448WN      WN  948   5.029   5.164   2.838 -0.0324  0.3184 -0.0270
  449WN      WN  949   5.159   0.449   4.071 -0.0788 -0.3837 -0.1804
  450WN      WN  950   5.268   4.638   4.007  0.2714 -0.2870  0.2424
  451WN      WN  951   1.259   4.470   4.262  0.0200  0.0087  0.0783
  452WN      WN  952   3.394   4.615   5.795 -0.0364  0.0425 -0.4010
  453WN      WN  953   0.349   0.273   4.599 -0.0533  0.1491 -0.1743
  454WN      WN  954   4.291   5.469   0.304  0.2041  0.1223  0.0487
  455WN      WN  955   1.348   3.739   3.774  0.0887  0.0609 -0.1380
  456WN      WN  956   0.890   6.057   5.335  0.1707 -0.1869 -0.0142
  457WN      WN  957   1.690   0.862   3.158  0.1385  0.0819 -0.1473
  458WN      WN  958   3.156   4.518   0.661 -0.2514  0.2172 -0.1367
  459WN      WN  959   1.884   1.681   2.896  0.1302 -0.0089  0.1157
  460WN      WN  960   1.955   6.410   5.980 -0.0728  0.1585  0.1438
  461WN      WN  961   0.776   1.900   5.328  0.0429 -0.1300 -0.1041
  462WN      WN  962   1.735   3.822   2.474  0.0303  0.3779  0.1545
  463WN      WN  963   1.521   3.487   5.379  0.2849 -0.0851  0.2212
  464WN      WN  964   2.360   0.989   0.175 -0.2096  0.3923  0.0218
  465WN      WN  965   2.145   5.354   2.495  0.0743  0.0718  0.0061
  466WN      WN  966   2.341   0.152   6.225 -0.1422  0.3579  0.0391
  467WN      WN  967   4.602   6.244   2.386 -0.2312 -0.2943  0.1253
  468WN      WN  968   1.712   5.171   3.034 -0.1462 -0.1123 -0.2449
  469WN      WN  969   0.378   5.664   2.395  0.1294 -0.1727  0.1592
  470WN      WN  970   3.237   0.350   4.249  0.4417 -0.1063 -0.1704
  471WN      WN  971   5.880   1.204   2.606 -0.3455  0.5534  0.1457
  472WN      WN  972   4.822   3.449   5.611 -0.0029  0.1981  0.3228
  473WN      WN  973   5.269   0.943   4.360  0.1257  0.1275  0.0662
  474WN      WN  974   0.409   3.122   1.681 -0.1581 -0.0375 -0.2459
  475WN      WN  975   3.073   1.109   2.884  0.1688 -0.0041  0.2865
  476WN      WN  976   0.210   1.562   1.111 -0.0456 -0.3898  0.0323
  477WN      WN  977   3.274   3.556   0.740 -0.1465 -0.0749 -0.0801
  478WN      WN  978   3.488   3.906   5.921 -0.3268 -0.0969 -0.2373
  479WN      WN  979   0.261   5.707   6.399  0.2793 -0.3917  0.1866
  480WN      WN  980   0.732   0.063   4.871 -0.0297  0.0647 -0.0851
  481WN      WN  981   2.974   2.792   6.128  0.0389  0.0288 -0.0177
  482WN      WN  982   3.715   4.706   2.474 -0.0518 -0.2352  0.1911
  483WN      WN  983   3.983   0.350   1.370  0.1730  0.0202  0.3343
  484WN      WN  984   0.821   1.958   3.631 -0.1438  0.2361 -0.1687
  485WN      WN  985   4.682   6.325   5.888  0.4619 -0.2457  0.1207
  486WN      WN  986   2.521   4.776   3.985 -0.2399 -0.1439 -0.0260
  487WN      WN  987   2.563   4.412   5.458  0.1840 -0.0388 -0.0095
  488WN      WN  988   1.460   0.948   5.291 -0.0419  0.0354 -0.1158
  489WN      WN  989   1.136   0.589   5.488 -0.0270 -0.1314  0.1870
  490WN      WN  990   3.521   0.621   5.452 -0.0378 -0.2322  0.2598
  491WN      WN  991   0.525   1.360   1.814 -0.1613 -0.0348 -0.0125
  492WN      WN  992   1.545   4.713   3.013  0.0888 -0.3519  0.3721
  493WN      WN  993   0.930   2.729   5.231 -0.1296 -0.0330 -0.2312
  494WN      WN  994   0.300   2.744   2.686  0.1915  0.1635  0.2153
  495WN      WN  995   2.394   4.549   5.902  0.0709 -0.2119  0.0149
  496WN      WN  996   5.630   1.493   2.965  0.0418  0.0374 -0.4465
  497WN      WN  997   6.293   0.719   5.892 -0.3093  0.2648  0.0448
  498WN      WN  998   1.955   0.441   2.032 -0.4356 -0.1511 -0.1115
  499WN      WN  999   0.387   6.429   2.657 -0.1103 -0.0247 -0.3285
  500WN      WN 1000   2.099   1.455   0.966  0.0912  0.1434  0.0588
  501WN      WN 1001   5.734   5.614   5.534  0.1991  0.2731 -0.3212
  502WN      WN 1002   0.846   3.853   2.226  0.2587 -0.1718  0.0190
  503WN      WN 1003   0.319   3.957   0.864  0.2454  0.1533  0.2263
  504WN      WN 1004   6.438   4.444   4.834 -0.0191 -0.1325  0.1819
  505WN      WN 1005   5.801   3.204   2.247 -0.2427 -0.4287  0.2055
  506WN      WN 1006   1.102   0.515   1.725  0.0458  0.0643  0.1304
  507WN      WN 1007   2.716   5.309   0.918  0.0529 -0.1991  0.1320
  508WN      WN 1008   5.938   4.217   5.713 -0.2872  0.2312  0.1583
  509WN      WN 1009   3.457   0.183   5.787  0.0745  0.1794  0.0419
  510WN      WN 1010   4.407   3.691   3.641  0.1497 -0.0256  0.1056
  511WN      WN 1011   1.441   0.147   2.324  0.1031  0.1855 -0.0407
  512WN      WN 1012   1.513   1.023   4.764  0.2672  0.2991 -0.1505
  513WN      WN 1013   0.279   4.679   4.713  0.1298  0.0072  0.0389
  514WN      WN 1014   0.369   2.107   5.504  0.2308  0.0227  0.1256
  515WN      WN 1015   2.859   4.773   5.835 -0.0352 -0.4130 -0.1372
  516WN      WN 1016   2.283   2.258   1.559 -0.0504 -0.1942  0.1555
  517WN      WN 1017   2.688   1.135   2.081  0.0523  0.0728 -0.1348
  518WN      WN 1018   0.982   1.010   1.695  0.2861  0.0926 -0.1821
  519WN      WN 1019   6.073   0.401   3.074 -0.2258  0.0037  0.4493
  520WN      WN 1020   4.251   3.764   1.593  0.1583 -0.0160 -0.1195
  521WN      WN 1021   0.545   0.737   2.666  0.0053 -0.1330 -0.0644
  522WN      WN 1022   5.200   0.240   5.713 -0.0299  0.0358  0.1261
  523WN      WN 1023   2.421   5.981   4.252  0.1796 -0.1127  0.0366
  524WN      WN 1024   3.004   2.585   1.434  0.1146  0.0604  0.0346
  525WN      WN 1025   2.202   6.240   3.838 -0.0487  0.3510  0.1328
  526WN      WN 1026   1.438   1.831   1.961  0.3926  0.0224 -0.0633
  527WN      WN 1027   4.996   4.286   1.345 -0.2491  0.3343  0.0918
  528WN      WN 1028   1.039   0.788   6.014 -0.1437  0.1907 -0.1680
  529WN      WN 1029   4.711   0.025   6.426  0.0273  0.3104  0.1864
  530WN      WN 1030   3.721   0.363   4.143  0.2842 -0.2170 -0.3216
  531WN      WN 1031   6.086   6.068   5.369  0.1244 -0.0226  0.0218
  532WN      WN 1032   3.657   2.974   2.203 -0.2304 -0.0293 -0.0458
  533WN      WN 1033   4.221   6.450   1.601 -0.1740 -0.3230  0.1289
  534WN      WN 1034   5.388   1.062   2.793  0.0861  0.2269  0.0320
  535WN      WN 1035   0.483   2.739   5.353 -0.0270  0.1457  0.0150
  536WN      WN 1036   6.505   1.140   2.867 -0.0391  0.1444 -0.1240
  537WN      WN 1037   1.389   3.018   4.683  0.1327  0.2947  0.2377
  538WN      WN 1038   2.831   4.107   0.075 -0.0062  0.2397 -0.5050
  539WN      WN 1039   1.094   3.612   5.195 -0.0458  0.3304 -0.4172
  540WN      WN 1040   2.873   0.163   5.349  0.2340 -0.1202 -0.2416
  541WN      WN 1041   5.327   2.904   5.388  0.2594 -0.1654 -0.0633
  542WN      WN 1042   3.134   5.012   5.046  0.0731  0.1838  0.0924
  543WN      WN 1043   5.752   4.125   1.110  0.0843 -0.2500 -0.3075
  544WN      WN 1044   2.701   4.410   0.460  0.0758  0.2404 -0.2158
  545WN      WN 1045   3.046   4.602   0.184  0.0038  0.0140  0.1890
  546WN      WN 1046   4.653   2.380   3.360 -0.2236 -0.0734  0.3147
  547WN      WN 1047   0.624   3.179   6.437  0.1416 -0.3219  0.1090
  548WN      WN 1048   5.077   3.464   4.140  0.0059  0.1149 -0.1387
  549WN      WN 1049   4.314   2.352   1.926  0.0224 -0.0656 -0.0140
  550WN      WN 1050   0.749   0.314   2.750  0.0084 -0.3121 -0.1158
  551WN      WN 1051   3.230   5.054   1.700  0.1557 -0.1736 -0.0924
  552WN      WN 1052   1.164   1.685   2.300 -0.1225  0.1158  0.1438
  553WN      WN 1053   2.865   3.832   5.685  0.0564  0.0992  0.0167
  554WN      WN 1054   6.044   1.379   4.755  0.1302  0.2563  0.0174
  555WN      WN 1055   3.890   4.528   5.079  0.2960  0.1815  0.1688
  556WN      WN 1056   5.516   3.345   0.268  0.0640 -0.2413 -0.0042
  557WN      WN 1057   4.670   3.450   6.167 -0.2822 -0.3347 -0.0638
  558WN      WN 1058   6.093   3.477   1.752  0.2078 -0.1958  0.0263
  559WN      WN 1059   2.378   5.370   6.130  0.1466  0.0157  0.0422
  560WN      WN 1060   3.850   5.956   3.732 -0.1767  0.0066 -0.1661
  561WN      WN 1061   5.154   5.472   0.692 -0.1602 -0.2996 -0.2445
  562WN      WN 1062   5.938   5.501   5.989 -0.0696  0.1712  0.1164
  563WN      WN 1063   4.693   3.447   2.201 -0.1788  0.0440 -0.0523
  564WN      WN 1064   1.979   2.647   6.351 -0.3594 -0.0236 -0.1905
  565WN      WN 1065   1.791   2.779   5.382  0.3696  0.2091 -0.3099
  566WN      WN 1066   4.415   4.310   1.465  0.0623 -0.0971 -0.0116
  567WN      WN 1067   3.278   4.756   2.164  0.0170  0.2251 -0.1040
  568WN      WN 1068   3.358   3.275   6.342  0.0132 -0.4938 -0.0198
  569WN      WN 1069   1.754   6.105   4.093  0.2518 -0.1364 -0.1853
  570WN      WN 1070   0.313   5.349   4.158  0.0392 -0.0058  0.0999
  571WN      WN 1071   2.187   0.269   4.827  0.0435 -0.0032  0.4183
  572WN      WN 1072   3.148   5.578   2.498  0.0844 -0.1484  0.1492
  573WN      WN 1073   1.698   2.424   3.362  0.3115  0.0199  0.0978
  574WN      WN 1074   0.004   2.526   5.199  0.0459  0.1746  0.1965
  575WN      WN 1075   5.041   2.064   5.403  0.1805 -0.0070 -0.1103
  576WN      WN 1076   3.248   6.313   3.586 -0.0443 -0.1871  0.3682
  577WN      WN 1077   2.620   4.762   0.925 -0.2955 -0.0302 -0.1619
  578WN      WN 1078   1.678   4.394   2.664  0.0217  0.0370  0.1998
  579WN      WN 1079   2.983   1.501   2.441 -0.1518  0.1760 -0.2303
  580WN      WN 1080   2.211   0.416   3.625 -0.0231 -0.1498  0.2485
  581WN      WN 1081   4.046   4.330   4.187  0.0802  0.0259 -0.0098
  582WN      WN 1082   4.821   4.613   4.718 -0.1677  0.1189 -0.2178
  583WN      WN 1083   3.789   5.196   2.623  0.1391 -0.1604  0.2046
  584WN      WN 1084   2.092   1.305   6.403 -0.2010 -0.0396  0.0712
  585WN      WN 1085   4.420   0.898   3.084  0.0641 -0.1028  0.1828
  586WN      WN 1086   6.250   2.555   4.795 -0.2058  0.2030 -0.2481
  587WN      WN 1087   3.300   5.225   3.834 -0.1154  0.0918  0.0401
  588WN      WN 1088   3.355   6.424   5.405 -0.2470 -0.2776 -0.2861
  589WN      WN 1089   0.522   2.327   4.521 -0.1667  0.0113  0.2940
  590WN      WN 1090   0.547   4.651   6.370  0.0207 -0.0994 -0.1246
  591WN      WN 1091   3.060   0.509   5.007  0.0864 -0.1794 -0.0256
  592WN      WN 1092   4.459   4.790   6.412  0.0862  0.3909  0.0553
  593WN      WN 1093   2.511   4.654   0.089  0.1627  0.2329  0.2582
  594WN      WN 1094   3.273   6.071   2.359 -0.1652 -0.0696 -0.3701
  595WN      WN 1095   3.658   6.338   5.008  0.1212 -0.1556  0.0369
  596WN      WN 1096   6.287   6.484   2.930 -0.3088  0.1405 -0.1586
  597WN      WN 1097   0.793   2.633   2.930  0.1897 -0.2018 -0.2033
  598WN      WN 1098   1.768   0.279   3.038  0.0510 -0.1637  0.0852
  599WN      WN 1099   5.382   2.414   0.710  0.2272  0.1366 -0.0589
  600WN      WN 1100   0.836   2.397   1.378  0.0803 -0.4163  0.1556
  601WN      WN 1101   2.010   5.305   4.635  0.3187  0.1105  0.0678
  602WN      WN 1102   5.199   2.717   1.521 -0.0060  0.1043  0.2236
  603WN      WN 1103   5.234   4.754   6.043 -0.0075  0.0150 -0.0459
  604WN      WN 1104   3.251   6.426   4.063  0.1067 -0.0500 -0.1255
  605WN      WN 1105   6.064   6.471   6.416  0.3386 -0.0135 -0.0835
  606WN      WN 1106   2.136   2.114   4.470 -0.0612  0.0364  0.2331
  607WN      WN 1107   0.309   5.294   3.657 -0.3341 -0.1237  0.0663
  608WN      WN 1108   4.335   1.080   1.066  0.1846 -0.2041 -0.4538
  609WN      WN 1109   5.467   5.348   1.193  0.1213  0.2113 -0.0045
  610WN      WN 1110   1.765   2.568   2.337  0.0400 -0.2156 -0.2089
  611WN      WN 1111   6.395   3.169   6.313  0.0465 -0.0179 -0.2574
  612WN      WN 1112   3.810   3.158   1.327 -0.0357  0.2797 -0.0209
  613WN      WN 1113   1.494   1.850   3.255 -0.2122  0.3728  0.0503
  614WN      WN 1114   3.948   3.928   2.403 -0.0398  0.1722 -0.0074
  615WN      WN 1115   5.079   2.724   6.228  0.0183  0.1187 -0.1632
  616WN      WN 1116   4.814   0.679   2.052  0.0965  0.1182  0.2928
  617WN      WN 1117   0.386   4.722   3.701  0.1707 -0.0140 -0.1369
  618WN      WN 1118   2.158   5.809   2.283 -0.0000  0.0612 -0.1471
  619WN      WN 1119   5.938   3.911   1.538  0.0811 -0.3401  0.0450
  620WN      WN 1120   4.607   1.396   3.290  0.2117  0.2196 -0.0292
  621WN      WN 1121   4.641   0.195   4.057 -0.0812  0.3882 -0.0717
  622WN      WN 1122   5.103   5.145   1.995 -0.3038 -0.1064 -0.2457
  623WN      WN 1123   4.771   5.806   5.609  0.1171  0.1983 -0.1517
  624WN      WN 1124   4.266   1.988   3.387  0.1169 -0.1726 -0.1052
  625WN      WN 1125   4.870   1.226   1.255  0.4627  0.3494  0.0802
  626WN      WN 1126   4.810   0.986   6.504  0.3079 -0.1919 -0.4144
  627WN      WN 1127   1.357   3.481   0.356 -0.2035  0.2187  0.0948
  628WN      WN 1128   5.757   1.418   1.052  0.0379 -0.1177 -0.0080
  629WN      WN 1129   2.619   2.999   4.232 -0.1948  0.0401  0.1641
  630WN      WN 1130   3.971   2.922   3.080  0.1737  0.2181 -0.3485
  631WN      WN 1131   2.083   2.865   4.398 -0.0612 -0.1864  0.1254
  632WN      WN 1132   5.021   3.489   0.113  0.1293  0.1888  0.0903
  633WN      WN 1133   0.942   0.634   6.516 -0.1715 -0.2207  0.2838
  634WN      WN 1134   2.298   3.640   2.055 -0.0361  0.1814  0.2195
  635WN      WN 1135   0.732   1.244   4.667  0.1574 -0.0008 -0.2423
  636WN      WN 1136   5.922   4.906   4.620  0.1504  0.0368  0.0532
  637WN      WN 1137   2.276   1.636   4.482 -0.2644 -0.4607 -0.0029
  638WN      WN 1138   3.719   4.304   2.698 -0.3531  0.1191 -0.0731
  639WN      WN 1139   5.234   3.745   4.579  0.2068  0.2991 -0.1743
  640WN      WN 1140   3.893   6.556   0.398  0.1964  0.0884 -0.2935
  641WN      WN 1141   0.629   3.796   4.552 -0.4253  0.1651 -0.0059
  642WN      WN 1142   3.787   3.494   2.135 -0.0414 -0.0775 -0.0303
  643WN      WN 1143   2.233   5.525   5.655 -0.0239  0.0942  0.0098
  644WN      WN 1144   1.282   0.183   5.158 -0.0689  0.1301 -0.0853
  645WN      WN 1145   5.163   5.913   4.009 -0.2309  0.2785 -0.0483
  646WN      WN 1146   5.295   0.825   0.062 -0.1383  0.1220  0.1038
  647WN      WN 1147   1.963   1.145   2.781 -0.1804 -0.0411  0.1973
  648WN      WN 1148   6.558   1.662   3.508 -0.0007  0.3424 -0.2895
  649WN      WN 1149   5.837   5.567   2.572  0.0109 -0.0426  0.1373
  650WN      WN 1150   4.987   0.215   5.104  0.2673  0.2037  0.0801
  651WN      WN 1151   5.723   3.801   0.162 -0.3300  0.3310 -0.0252
  652WN      WN 1152   3.343   0.663   2.843 -0.1458 -0.2472 -0.1202
  653WN      WN 1153   0.735   4.015   1.166  0.0702 -0.0105 -0.1174
  654WN      WN 1154   4.777   0.184   2.160  0.3661  0.0178  0.1476
  655WN      WN 1155   4.525   2.613   2.312 -0.0138  0.2572 -0.4282
  656WN      WN 1156   2.409   4.261   0.991  0.2908  0.3201  0.0122
  657WN      WN 1157   2.013   3.933   3.443 -0.0083 -0.1309  0.0831
  658WN      WN 1158   4.176   0.301   2.421 -0.0186  0.0834  0.0635
  659WN      WN 1159   1.270   1.167   1.312  0.4026  0.0510  0.0157
  660WN      WN 1160   3.593   3.272   1.755  0.1192  0.2357  0.0394
  661WN      WN 1161   2.937   5.818   1.553 -0.2010 -0.4631  0.0131
  662WN      WN 1162   1.131   0.295   0.256  0.1481  0.2453 -0.0083
  663WN      WN 1163   5.624   3.695   1.904  0.0311  0.0924  0.5036
  664WN      WN 1164   0.409   6.311   3.672  0.0982 -0.0438  0.3446
  665WN      WN 1165   3.973   4.499   1.019 -0.4272  0.0569 -0.2978
  666WN      WN 1166   2.208   0.096   1.716 -0.0777  0.0363 -0.3582
  667WN      WN 1167   1.513   2.802   1.092  0.1375  0.2513 -0.0321
  668WN      WN 1168   6.165   4.783   2.968 -0.1675  0.3840  0.1003
  669WN      WN 1169   2.436   2.319   5.312  0.0014  0.0656  0.0390
  670WN      WN 1170   5.234   2.016   0.325  0.0457 -0.0392 -0.3349
  671WN      WN 1171   5.568   5.843   3.727  0.2196 -0.0234  0.2198
  672WN      WN 1172   2.473   2.572   6.499 -0.1187 -0.0771  0.1346
  673WN      WN 1173   2.671   0.161   0.978  0.0372 -0.0768  0.3026
  674WN      WN 1174   2.857   0.979   5.817  0.1853 -0.0651  0.0079
  675WN      WN 1175   3.933   5.259   3.158 -0.0891  0.0082 -0.2202
  676WN      WN 1176   2.870   4.539   6.281  0.0121 -0.0562 -0.0927
  677WN      WN 1177   2.141   1.368   5.933  0.0642 -0.1611 -0.2798
  678WN      WN 1178   1.248   4.969   4.231 -0.1602 -0.1087  0.0363
  679WN      WN 1179   3.013   1.656   3.006  0.2229 -0.0761  0.2921
  680WN      WN 1180   3.275   4.170   6.404  0.0081 -0.0769 -0.0693
  681WN      WN 1181   0.796   5.382   5.911 -0.0621 -0.1439 -0.2200
  682WN      WN 1182   2.404   5.694   3.307  0.3489 -0.0029  0.0792
  683WN      WN 1183   3.811   0.884   5.092  0.2711  0.2107 -0.2426
  684WN      WN 1184   4.457   3.328   0.089  0.1702  0.0581  0.0730
  685WN      WN 1185   2.806   1.123   4.989 -0.0721 -0.2921  0.1890
  686WN      WN 1186   3.115   4.956   0.953 -0.2253 -0.1336  0.3234
  687WN      WN 1187   1.678   2.580   1.698 -0.2373  0.0349  0.1237
  688WN      WN 1188   1.480   3.402   2.826  0.0219  0.0768  0.0064
  689WN      WN 1189   1.956   5.663   2.896  0.0789 -0.2044  0.5247
  690WN      WN 1190   0.599   1.514   3.393  0.1479 -0.3388  0.1403
  691WN      WN 1191   2.453   4.425   2.186 -0.0794 -0.0178  0.1530
  692WN      WN 1192   2.890   6.430   0.605  0.2701  0.0214 -0.0486
  693WN      WN 1193   2.940   0.549   1.099 -0.3824  0.2341  0.0912
  694WN      WN 1194   3.963   2.665   6.112 -0.3091  0.0399 -0.0660
  695WN      WN 1195   4.839   4.571   0.702  0.0436  0.1675 -0.0512
  696WN      WN 1196   3.419   0.214   3.740 -0.1194 -0.1273  0.0502
  697WN      WN 1197   0.742   0.167   6.533 -0.0382 -0.1444 -0.0842
  698WN      WN 1198   2.146   0.556   2.697  0.0279 -0.1459  0.0031
  699WN      WN 1199   1.465   6.140   3.578 -0.4879 -0.3983 -0.2729
  700WN      WN 1200   4.748   4.044   1.780 -0.0499 -0.1123  0.0876
  701WN      WN 1201   4.798   1.097   5.362  0.0711 -0.2761 -0.2703
  702WN      WN 1202   2.235   5.101   0.663  0.1029 -0.0029  0.0347
  703WN      WN 1203   2.840   3.785   5.120  0.0108 -0.3115  0.0197
  704WN      WN 1204   4.903   0.944   3.971  0.1530 -0.3012  0.0746
  705WN      WN 1205   2.906   2.230   3.109  0.0852  0.0715  0.3472
  706WN      WN 1206   0.735   4.778   4.528  0.0694  0.0499 -0.1009
  707WN      WN 1207   5.473   3.138   4.930  0.0139 -0.0464  0.1424
  708WN      WN 1208   3.657   3.683   0.380  0.1391  0.0320 -0.1588
  709WN      WN 1209   3.111   4.241   5.946 -0.1654  0.0364 -0.5170
  710WN      WN 1210   1.777   2.358   0.249 -0.0343 -0.0102 -0.1780
  711WN      WN 1211   0.675   3.949   1.747  0.0915 -0.0268 -0.0390
  712WN      WN 1212   5.197   0.632   5.371  0.0480  0.0338 -0.2317
  713WN      WN 1213   3.530   2.911   4.965  0.3796  0.0591 -0.1634
  714WN      WN 1214   2.541   6.126   0.288 -0.0627  0.0028  0.1173
  715WN      WN 1215   4.297   1.649   1.536 -0.1921 -0.0156  0.0594
  716WN      WN 1216   6.244   3.820   6.341  0.0328 -0.1032  0.2323
  717WN      WN 1217   3.995   3.031   5.658 -0.0767 -0.2947  0.1436
  718WN      WN 1218   1.270   3.142   5.169 -0.1025 -0.0925 -0.0942
  719WN      WN 1219   5.118   3.696   3.139  0.2958  0.0213  0.1657
  720WN      WN 1220   2.870   4.561   3.373 -0.0070 -0.1128 -0.0648
  721WN      WN 1221   2.428   2.390   3.780 -0.2257  0.0525  0.2599
  722WN      WN 1222   3.867   0.872   3.938 -0.0552 -0.3101  0.0330
  723WN      WN 1223   1.525   5.601   4.810  0.1253  0.2437  0.0878
  724WN      WN 1224   0.499   0.725   1.731  0.0639 -0.0597 -0.0034
  725WN      WN 1225   2.420   4.820   3.152  0.3440  0.2985 -0.0931
  726WN      WN 1226   3.083   3.304   3.429 -0.1503  0.1385  0.2468
  727WN      WN 1227   3.830   2.636   4.354 -0.0180 -0.1629 -0.5240
  728WN      WN 1228   4.446   5.328   1.965  0.0998 -0.0286  0.1063
  729WN      WN 1229   5.701   4.173   0.559 -0.2219 -0.2630 -0.1372
  730WN      WN 1230   5.897   1.792   3.234  0.2268 -0.1370 -0.5266
  731WN      WN 1231   1.360   1.961   0.585 -0.2506 -0.1776 -0.0046
  732WN      WN 1232   2.673   5.342   5.441  0.1613 -0.0219  0.1549
  733WN      WN 1233   1.501   6.348   6.096  0.1495  0.0262 -0.1893
  734WN      WN 1234   0.238   1.034   5.017  0.0842  0.0165 -0.0700
  735WN      WN 1235   5.495   5.767   0.894  0.2337  0.0531 -0.0788
  736WN      WN 1236   3.563   3.356   3.151  0.2422  0.3144  0.0848
  737WN      WN 1237   3.041   3.701   4.594  0.0229 -0.0146  0.1624
  738WN      WN 1238   4.217   6.192   5.138 -0.1083  0.0998 -0.0736
  739WN      WN 1239   0.013   5.407   5.045  0.0986 -0.0160 -0.3595
  740WN      WN 1240   5.293   5.280   5.273  0.1925  0.1832  0.5662
  741WN      WN 1241   4.519   4.996   0.276  0.1195 -0.0074  0.0319
  742WN      WN 1242   2.738   6.179   3.335  0.0302  0.0070  0.0177
  743WN      WN 1243   1.241   4.129   2.466  0.2811  0.0279  0.1516
  744WN      WN 1244   2.379   0.199   4.074 -0.2068 -0.0899 -0.2177
  745WN      WN 1245   3.067   1.125   3.399  0.0467 -0.3068 -0.0287
  746WN      WN 1246   5.243   3.219   6.257  0.0384 -0.2551  0.4010
  747WN      WN 1247   2.825   4.393   2.932  0.1536 -0.1540  0.1933
  748WN      WN 1248   2.760   3.989   1.429 -0.0115  0.1198 -0.0626
  749WN      WN 1249   0.344   5.215   1.348 -0.3105 -0.2457 -0.0600
  750WN      WN 1250   6.236   0.140   4.122 -0.0887  0.2693  0.1005
  751WN      WN 1251   2.127   1.892   1.218 -0.2973 -0.1128  0.1772
  752WN      WN 1252   5.060   1.593   1.563 -0.0142  0.0622  0.3971
  753WN      WN 1253   3.389   1.448   0.194  0.1713  0.2815 -0.3196
  754WN      WN 1254   4.695   2.875   1.832  0.2524 -0.3698 -0.2691
  755WN      WN 1255   1.210   5.397   3.022 -0.1311  0.0652  0.1018
  756WN      WN 1256   3.833   5.257   1.566  0.2694 -0.0055  0.1450
  757WN      WN 1257   3.199   1.000   0.259 -0.0017 -0.0202  0.0327
  758WN      WN 1258   4.108   5.261   0.743  0.1789 -0.0943  0.0963
  759WN      WN 1259   2.084   3.972   2.928 -0.0276  0.4633 -0.1515
  760WN      WN 1260   6.478   6.149   2.620  0.0903 -0.0732  0.0257
  761WN      WN 1261   0.388   1.965   3.209 -0.0185  0.0077 -0.1060
  762WN      WN 1262   5.151   1.739   2.795  0.1302 -0.0735 -0.0948
  763WN      WN 1263   1.773   6.339   0.474 -0.0869 -0.0465  0.2326
  764WN      WN 1264   1.450   5.068   4.752 -0.4062  0.2739 -0.1445
  765WN      WN 1265   1.097   2.177   2.767 -0.3518  0.1126 -0.0635
  766WN      WN 1266   5.529   0.490   4.388  0.1139 -0.1089 -0.5483
  767WN      WN 1267   5.385   2.045   2.430  0.2029 -0.1352 -0.0003
  768WN      WN 1268   6.045   6.465   2.409 -0.0687 -0.1343 -0.1147
  769WN      WN 1269   5.783   0.651   3.392 -0.0928 -0.0106  0.1068
  770WN      WN 1270   4.153   0.120   3.914  0.1952 -0.2434 -0.0442
  771WN      WN 1271   5.617   4.306   3.832 -0.0260  0.1430 -0.0530
  772WN      WN 1272   4.606   2.391   2.795  0.7117 -0.2113  0.0023
  773WN      WN 1273   4.214   6.307   0.702 -0.5616  0.1056 -0.2483
  774WN      WN 1274   5.854   1.044   3.064  0.0916  0.3206 -0.0648
  775WN      WN 1275   3.405   4.484   1.695 -0.0023  0.0606 -0.0683
  776WN      WN 1276   4.042   0.711   2.830  0.1084  0.2332 -0.2938
  777WN      WN 1277   5.794   4.148   4.346  0.3003  0.1444  0.0589
  778WN      WN 1278   2.878   2.961   2.727  0.0305 -0.0290  0.1005
  779WN      WN 1279   2.401   1.513   2.776 -0.4201 -0.0370 -0.2467
  780WN      WN 1280   0.676   4.047   5.431 -0.0056  0.0200 -0.1263
  781WN      WN 1281   3.972   3.872   6.183  0.4252 -0.0292  0.1190
  782WN      WN 1282   3.717   1.496   1.796 -0.0834 -0.2179  0.1145
  783WN      WN 1283   3.149   5.395   1.246 -0.0871  0.4699 -0.0276
  784WN      WN 1284   5.309   2.001   1.952 -0.1218 -0.1359  0.3240
  785WN      WN 1285   2.943   5.183   4.200 -0.2464  0.0619 -0.1434
  786WN      WN 1286   3.653   4.853   2.947  0.1736 -0.1251  0.2379
  787WN      WN 1287   6.008   2.341   2.626  0.1619 -0.2390  0.0494
  788WN      WN 1288   2.683   3.013   1.621  0.1113  0.3817 -0.1035
  789WN      WN 1289   2.904   4.322   1.059 -0.2095 -0.0438 -0.1052
  790WN      WN 1290   5.198   4.255   5.399 -0.1067 -0.2905 -0.0207
  791WN      WN 1291   4.714   3.526   0.488  0.3979 -0.0232  0.2802
  792WN      WN 1292   3.648   5.688   2.435  0.0875 -0.0562  0.0756
  793WN      WN 1293   3.876   3.658   5.486  0.0368  0.0934 -0.0733
  794WN      WN 1294   4.898   4.644   1.701 -0.1187  0.4312  0.1046
  795WN      WN 1295   5.507   5.350   2.901 -0.4188  0.1072 -0.2617
  796WN      WN 1296   0.462   0.506   6.337 -0.0310  0.2744  0.0630
  797WN      WN 1297   0.977   2.176   0.237 -0.2398 -0.1702  0.0880
  798WN      WN 1298   4.038   2.682   1.339  0.1192  0.3785  0.0907
  799WN      WN 1299   0.012   0.221   3.167 -0.3564 -0.1042 -0.0508
  800WN      WN 1300   2.479   3.916   3.737 -0.1871  0.0739 -0.0313
  801WN      WN 1301   4.289   4.676   5.435 -0.0824 -0.0396  0.0513
  802WN      WN 1302   3.257   3.008   0.716  0.0934 -0.1593  0.2011
  803WN      WN 1303   1.258   0.277   2.798 -0.2337 -0.0535 -0.0207
  804WN      WN 1304   2.751   0.781   4.100  0.2890  0.0474 -0.3089
  805WN      WN 1305   3.810   0.487   3.183  0.0072 -0.0411 -0.3016
  806WN      WN 1306   5.129   2.582   4.122  0.1458 -0.3435  0.1408
  807WN      WN 1307   0.040   2.195   4.842 -0.0306  0.2236 -0.0042
  808WN      WN 1308   4.330   4.667   3.780  0.2020  0.5368 -0.0792
  809WN      WN 1309   5.625   0.591   2.797 -0.0896 -0.2028  0.0218
  810WN      WN 1310   6.283   0.996   4.846 -0.1356  0.1298 -0.2590
  811WN      WN 1311   3.383   1.599   1.437 -0.2582 -0.1670  0.0046
  812WN      WN 1312   2.357   3.097   2.611 -0.0948 -0.1256 -0.0670
  813WN      WN 1313   5.161   0.353   2.787 -0.0165  0.2151 -0.4963
  814WN      WN 1314   2.077   3.926   5.950  0.1426  0.0967 -0.3567
  815WN      WN 1315   4.893   4.427   2.168  0.3683  0.1499 -0.1329
  816WN      WN 1316   1.515   4.699   1.827  0.2665 -0.0706  0.2127
  817WN      WN 1317   2.988   0.861   6.270  0.0759  0.2469  0.0122
  818WN      WN 1318   5.342   0.360   1.813  0.2539 -0.0343  0.0179
  819WN      WN 1319   0.573   0.549   4.196 -0.1413 -0.1492 -0.0033
  820WN      WN 1320   0.685   6.137   2.388 -0.2519  0.0732 -0.0237
  821WN      WN 1321   2.591   0.851   3.535 -0.2212  0.1118  0.0910
  822WN      WN 1322   0.086   5.270   2.171  0.1022 -0.0876 -0.0246
  823WN      WN 1323   2.715   2.165   1.203 -0.0152 -0.2039 -0.0151
  824WN      WN 1324   6.120   3.846   2.112  0.0549 -0.1098 -0.1647
  825WN      WN 1325   2.563   0.656   5.087  0.0198 -0.3986  0.1758
  826WN      WN 1326   3.001   3.799   2.549  0.1748  0.1311 -0.1865
  827WN      WN 1327   5.447   5.703   0.326 -0.1487 -0.2824 -0.1020
  828WN      WN 1328   4.548   6.493   0.362 -0.0062  0.4561 -0.2066
  829WN      WN 1329   5.139   6.458   4.213 -0.0897 -0.2986  0.1528
  830WN      WN 1330   4.571   1.967   2.123  0.3278  0.0744 -0.3141
  831WN      WN 1331   3.311   2.963   3.759  0.0709  0.2952 -0.0302
  832WN      WN 1332   3.439   0.818   3.418 -0.1042  0.1827  0.0734
  833WN      WN 1333   2.480   0.355   0.524 -0.0457  0.3077  0.0609
  834WN      WN 1334   4.345   0.839   6.161  0.0465  0.1600 -0.1671
  835WN      WN 1335   0.764   0.249   1.169 -0.2491 -0.1574 -0.1645
  836WN      WN 1336   2.005   3.452   6.241 -0.0576 -0.0338  0.0548
  837WN      WN 1337   2.267   2.942   5.441 -0.0386 -0.1630  0.1710
  838WN      WN 1338   5.750   0.121   4.117 -0.1530  0.1173  0.0497
  839WN      WN 1339   6.272   5.835   3.034 -0.0655 -0.0486  0.0090
  840WN      WN 1340   3.311   5.980   1.196  0.2195  0.0471  0.0384
  841WN      WN 1341   1.524   6.243   2.094  0.3275 -0.1770 -0.0445
  842WN      WN 1342   3.035   6.129   0.133  0.2359 -0.0383  0.1658
  843WN      WN 1343   1.053   1.267   6.356 -0.1293 -0.1578  0.0212
  844WN      WN 1344   3.255   3.957   0.991 -0.1064  0.2297  0.3005
  845WN      WN 1345   2.732   5.804   1.100 -0.0956 -0.3021 -0.3319
  846WN      WN 1346   2.394   5.283   3.558 -0.0863  0.1070 -0.1167
  847WN      WN 1347   2.245   4.285   3.958 -0.0349 -0.1244  0.0264
  848WN      WN 1348   2.796   2.686   5.175  0.1267  0.3500  0.3191
  849WN      WN 1349   5.708   4.496   6.173 -0.1361 -0.4652  0.1118
  850WN      WN 1350   3.872   1.108   2.531 -0.0224 -0.0435  0.0387
  851WN      WN 1351   4.275   0.143   5.586  0.0122  0.0599 -0.1295
  852WN      WN 1352   2.392   6.202   1.903  0.1755 -0.1363 -0.1017
  853WN      WN 1353   4.555   3.450   4.031 -0.3810 -0.0045  0.2169
  854WN      WN 1354   0.187   1.282   5.918  0.1704 -0.2915  0.1392
  855WN      WN 1355   4.711   3.850   5.308 -0.1229 -0.1682  0.0833
  856WN      WN 1356   0.273   2.919   6.185 -0.2785 -0.0769 -0.2670
  857WN      WN 1357   3.978   2.583   2.242 -0.2456 -0.1042  0.1355
  858WN      WN 1358   5.556   2.550   2.736  0.1019 -0.1566 -0.0323
  859WN      WN 1359   2.996   2.582   3.496 -0.1753  0.2627  0.0469
  860WN      WN 1360   3.484   1.420   2.249 -0.0647 -0.3039 -0.0481
  861WN      WN 1361   1.730   0.417   3.532 -0.0823 -0.1229  0.2342
  862WN      WN 1362   1.055   3.586   3.012 -0.4261 -0.0596 -0.0912
  863WN      WN 1363   2.618   0.275   1.478  0.3594  0.0484  0.0243
  864WN      WN 1364   1.142   0.252   4.553 -0.2325 -0.0414  0.2405
  865WN      WN 1365   2.312   1.698   3.605 -0.2601  0.0175  0.1829
  866WN      WN 1366   1.205   0.627   4.935  0.0779 -0.1834 -0.1588
  867WN      WN 1367   0.213   5.461   0.967 -0.1923  0.2076 -0.0973
  868WN      WN 1368   0.634   1.658   2.861  0.1768 -0.3438  0.0520
  869WN      WN 1369   2.059   3.403   4.563  0.0662 -0.1837  0.1830
  870WN      WN 1370   1.460   3.567   1.518  0.0854  0.1492  0.1583
  871WN      WN 1371   4.630   1.474   4.970  0.0324  0.1930  0.1517
  872WN      WN 1372   2.413   2.300   0.382 -0.1866  0.3492  0.2083
  873WN      WN 1373   6.333   3.310   5.520 -0.0617  0.0528 -0.2848
  874WN      WN 1374   3.273   6.190   1.661  0.1099 -0.1678  0.2130
  875WN      WN 1375   3.677   4.141   1.316  0.0825  0.0669  0.0482
  876WN      WN 1376   6.398   3.843   2.525  0.3390  0.0093  0.0489
  877WN      WN 1377   0.377   6.556   0.719 -0.3559 -0.2521 -0.0935
  878WN      WN 1378   4.570   0.751   4.360  0.2878 -0.2210 -0.2273
  879WN      WN 1379   3.637   6.168   0.319  0.0136 -0.0905 -0.1440
  880WN      WN 1380   5.096   4.253   4.363 -0.1111 -0.4609 -0.1743
  881WN      WN 1381   4.020   4.208   4.724 -0.2205  0.0430 -0.3481
  882WN      WN 1382   0.549   5.652   5.101 -0.0490  0.0537  0.0094
  883WN      WN 1383   5.572   4.265   0.047 -0.0225  0.1079 -0.0026
  884WN      WN 1384   3.333   2.400   5.033  0.1835 -0.1448  0.1665
  885WN      WN 1385   0.728   0.511   3.635 -0.1061 -0.0234 -0.2001
  886WN      WN 1386   2.405   0.721   2.144  0.6520  0.1569 -0.3144
  887WN      WN 1387   1.888   1.762   4.875 -0.0740 -0.0092  0.0778
  888WN      WN 1388   6.207   2.930   2.119  0.0237 -0.0537  0.1680
  889WN      WN 1389   1.431   2.665   2.722 -0.0610  0.1348 -0.0336
  890WN      WN 1390   1.654   4.782   5.190 -0.2876  0.0501  0.1713
  891WN      WN 1391   0.629   6.173   0.433 -0.5345 -0.2281 -0.0120
  892WN      WN 1392   0.386   2.230   2.241  0.1246 -0.1728 -0.1691
  893WN      WN 1393   1.717   3.789   4.457 -0.0399  0.1160 -0.0521
  894WN      WN 1394   3.287   6.510   0.323 -0.3775 -0.0198 -0.3318
  895WN      WN 1395   5.533   2.863   5.885 -0.2154  0.1179  0.0798
  896WN      WN 1396   6.492   4.424   0.898 -0.2134 -0.1323  0.2690
  897WN      WN 1397   2.566   4.518   1.454 -0.1875 -0.1881  0.2028
  898WN      WN 1398   3.589   2.740   1.745  0.0815  0.0112  0.3417
  899WN      WN 1399   4.295   1.587   0.205 -0.0441 -0.1619 -0.1088
  900WN      WN 1400   1.454   4.452   5.516  0.1123  0.1679 -0.2979
  901WN      WN 1401   5.376   2.829   4.533  0.2400 -0.1604  0.3096
  902WN      WN 1402   1.334   2.356   1.328  0.2755  0.1983 -0.1829
  903WN      WN 1403   5.772   1.194   1.980 -0.0707 -0.1933 -0.0215
  904WN      WN 1404   1.733   5.906   2.498  0.0222 -0.1389  0.2202
  905WN      WN 1405   4.714   2.166   5.794 -0.4665 -0.3108  0.3946
  906WN      WN 1406   0.348   4.561   4.239  0.1030 -0.0760  0.0115
  907WN      WN 1407   2.974   2.209   0.404 -0.2046 -0.2920  0.1344
  908WN      WN 1408   0.633   5.650   0.195  0.2185  0.1034 -0.0348
  909WN      WN 1409   2.028   2.368   4.058  0.0066 -0.0550  0.0077
  910WN      WN 1410   0.672   4.282   0.112 -0.0924  0.4413  0.3940
  911WN      WN 1411   6.033   6.271   4.506 -0.1776  0.1214  0.1572
  912WN      WN 1412   4.173   3.513   1.098  0.2250 -0.0208  0.1802
  913WN      WN 1413   2.024   6.267   2.650 -0.0057  0.0814  0.0621
  914WN      WN 1414   2.805   1.997   2.590  0.1571  0.1743 -0.0405
  915WN      WN 1415   3.202   3.017   1.501 -0.2004 -0.0693 -0.0584
  916WN      WN 1416   4.279   0.575   0.992 -0.2408 -0.0473  0.0825
  917WN      WN 1417   1.754   4.057   6.287 -0.1361 -0.2564  0.1518
  918WN      WN 1418   3.741   1.991   3.544  0.0947 -0.1000  0.0376
  919WN      WN 1419   5.482   1.785   3.748  0.3328  0.0122 -0.4847
  920WN      WN 1420   2.492   0.854   1.658  0.0956  0.2126 -0.1662
  921WN      WN 1421   5.462   3.952   2.827 -0.1871 -0.1825  0.1204
  922WN      WN 1422   5.624   2.445   0.285  0.3690  0.0446  0.0260
  923WN      WN 1423   5.939   5.401   4.512  0.0361  0.2058 -0.1745
  924WN      WN 1424   5.713   3.175   1.003 -0.3941  0.0696  0.0025
  925WN      WN 1425   3.018   3.325   5.952  0.1170  0.0363 -0.0221
  926WN      WN 1426   1.985   6.356   2.186 -0.0728 -0.3599 -0.0457
  927WN      WN 1427   0.741   5.842   6.146 -0.2563  0.2898 -0.0536
  928WN      WN 1428   2.999   4.721   4.656 -0.3069 -0.2003 -0.3170
  929WN      WN 1429   0.948   2.070   1.052 -0.1955 -0.0915 -0.2794
  930WN      WN 1430   2.446   6.253   6.019 -0.2815 -0.5786 -0.0547
  931WN      WN 1431   0.214   1.743   2.606  0.1034  0.0704 -0.3648
  932WN      WN 1432   1.795   1.391   3.639 -0.0598 -0.0800 -0.4301
  933WN      WN 1433   3.355   0.874   5.858  0.0577  0.0616 -0.0489
  934WN      WN 1434   6.002   3.708   0.617  0.0952  0.1276 -0.2614
  935WN      WN 1435   1.888   1.760   0.240 -0.1628 -0.0357  0.0140
  936WN      WN 1436   1.704   2.088   0.945  0.1177 -0.1510  0.1786
  937WN      WN 1437   2.772   2.725   4.648 -0.3245  0.0639  0.2421
  938WN      WN 1438   2.680   6.298   5.122 -0.2668 -0.0611 -0.0970
  939WN      WN 1439   3.108   3.846   2.062  0.0674 -0.0759  0.1761
  940WN      WN 1440   0.701   4.743   5.042 -0.4100 -0.1441  0.3802
  941WN      WN 1441   3.749   6.376   4.049 -0.0004  0.0746 -0.0950
  942WN      WN 1442   2.053   4.750   4.880 -0.0962 -0.1323  0.6531
  943WN      WN 1443   6.414   4.828   4.339  0.0039  0.1726 -0.3655
  944WN      WN 1444   2.559   2.989   6.155  0.1508 -0.1951  0.0065
  945WN      WN 1445   4.052   1.353   2.120  0.3534  0.0973  0.1373
  946WN      WN 1446   3.380   2.416   0.839 -0.0620  0.0610 -0.0409
  947WN      WN 1447   3.457   0.694   0.847  0.2223 -0.0177  0.2883
  948WN      WN 1448   3.516   2.974   5.914 -0.7184  0.2726  0.0233
  949WN      WN 1449   4.340   1.859   4.846 -0.0047 -0.0011  0.2067
  950WN      WN 1450   3.628   1.953   1.106  0.1664 -0.0015 -0.1387
  951WN      WN 1451   5.983   1.057   3.528 -0.2226 -0.3228 -0.1137
  952WN      WN 1452   1.779   3.374   0.588  0.0693 -0.2400 -0.0159
  953WN      WN 1453   4.545   0.490   5.208 -0.2062 -0.2827 -0.0291
  954WN      WN 1454   2.920   3.925   0.596 -0.0181  0.0630  0.1299
  955WN      WN 1455   3.830   0.709   6.270  0.3203 -0.3549 -0.0216
  956WN      WN 1456   2.770   5.880   4.834  0.1502 -0.1667  0.2105
  957WN      WN 1457   5.150   2.528   5.752  0.1443  0.1717  0.2299
  958WN      WN 1458   1.724   1.991   3.733  0.1987  0.0873  0.1995
  959WN      WN 1459   1.912   1.052   5.081 -0.2800 -0.2959 -0.0820
  960WN      WN 1460   0.760   6.066   4.833 -0.0856 -0.1048 -0.2706
  961WN      WN 1461   6.183   3.213   1.255  0.1581 -0.0790  0.3390
  962WN      WN 1462   6.004   4.849   0.709 -0.0648  0.2348 -0.0262
  963WN      WN 1463   0.880   6.438   3.559  0.0491  0.3320  0.0965
  964WN      WN 1464   4.095   5.779   1.708  0.1590 -0.0117  0.0864
  965WN      WN 1465   1.880   3.422   2.113  0.1738 -0.0933 -0.0899
  966WN      WN 1466   3.134   5.785   3.817  0.0732  0.3862  0.1761
  967WN      WN 1467   0.185   3.021   5.675  0.1247  0.3311 -0.1387
  968WN      WN 1468   4.475   3.056   4.532 -0.1743  0.2891  0.1505
  969WN      WN 1469   5.822   4.988   3.236  0.1616 -0.0254 -0.1308
  970WN      WN 1470   3.700   5.274   0.415 -0.1751  0.1309 -0.2472
  971WN      WN 1471   5.811   6.551   5.585  0.0225  0.2108 -0.2461
  972WN      WN 1472   5.151   4.944   0.945 -0.2755 -0.0185 -0.0702
  973WN      WN 1473   2.743   1.524   4.761  0.0633 -0.1759 -0.1669
  974WN      WN 1474   5.090   3.203   0.600 -0.0623  0.4456  0.1427
  975WN      WN 1475   1.591   3.436   4.813  0.1919  0.0478 -0.1273
  976WN      WN 1476   5.814   3.681   2.471  0.0358  0.1030  0.0665
  977WN      WN 1477   3.226   3.587   1.646 -0.0200  0.0679 -0.0876
  978WN      WN 1478   4.815   5.746   1.001 -0.0595  0.2603  0.1934
  979WN      WN 1479   6.399   2.190   6.138 -0.0024  0.4273 -0.1293
  980WN      WN 1480   0.810   6.015   4.267  0.0667  0.0641 -0.2385
  981WN      WN 1481   0.979   4.402   5.256 -0.1232 -0.1635  0.0492
  982WN      WN 1482   5.307   3.309   5.658  0.1276 -0.2737 -0.2166
  983WN      WN 1483   0.800   2.228   3.179  0.3412  0.0046  0.1117
  984WN      WN 1484   2.805   0.305   6.251  0.2660  0.0604 -0.1800
  985WN      WN 1485   4.027   3.564   0.042  0.0329  0.3136  0.2158
  986WN      WN 1486   1.263   2.439   3.163  0.1414  0.1476 -0.0550
  987WN      WN 1487   2.484   4.544   4.825 -0.1077 -0.1171 -0.1741
  988WN      WN 1488   2.223   2.802   0.376 -0.3025  0.1262 -0.0333
  989WN      WN 1489   1.119   1.676   5.061 -0.1018 -0.1390 -0.3410
  990WN      WN 1490   3.994   1.777   5.323 -0.0368  0.0755  0.2506
  991WN      WN 1491   4.798   0.709   5.905  0.0414  0.2085 -0.1123
  992WN      WN 1492   4.659   5.331   3.648  0.0166  0.0470 -0.1799
  993WN      WN 1493   3.001   1.272   4.390 -0.0654 -0.0404  0.1380
  994WN      WN 1494   4.519   4.876   5.870  0.0100  0.0370 -0.4116
  995WN      WN 1495   3.862   2.462   4.829 -0.0410 -0.1004  0.0961
  996WN      WN 1496   5.224   1.462   1.020 -0.2376 -0.3196 -0.0052
  997WN      WN 1497   4.128   4.142   1.912  0.0314  0.3485  0.0864
  998WN      WN 1498   3.415   0.938   4.830  0.3380 -0.0678 -0.0591
  999WN      WN 1499   2.400   0.381   3.154 -0.1021 -0.1907 -0.2001
 1000WN      WN 1500   4.888   6.164   6.560 -0.1022 -0.1207 -0.0675
 1001WN      WN 1501   4.895   6.160   2.884  0.0763 -0.1594 -0.1543
 1002WN      WN 1502   1.847   0.128   6.385 -0.2383 -0.0456  0.1380
 1003WN      WN 1503   3.856   1.576   3.982  0.0744  0.0086  0.0924
 1004WN      WN 1504   2.217   0.340   1.091  0.0151  0.0493  0.1518
 1005WN      WN 1505   4.609   2.707   6.075 -0.0611 -0.0631 -0.1325
 1006WN      WN 1506   0.642   4.774   2.514 -0.3536  0.2902 -0.0002
 1007WN      WN 1507   4.404   5.626   1.326 -0.0757  0.0637 -0.1769
 1008WN      WN 1508   4.747   1.445   0.169  0.3752 -0.2353  0.0118
 1009WN      WN 1509   0.343   1.851   5.089  0.3064  0.0304 -0.1572
 1010WN      WN 1510   5.266   1.124   6.242 -0.1618 -0.0277  0.1895
 1011WN      WN 1511   3.768   5.206   6.507 -0.2781  0.0337  0.2752
 1012WN      WN 1512   4.157   2.801   1.849  0.0461 -0.1012  0.2352
 1013WN      WN 1513   3.820   3.341   2.617  0.1590 -0.0293 -0.0400
 1014WN      WN 1514   4.314   5.721   0.734 -0.1136  0.1812  0.0007
 1015WN      WN 1515   3.316   3.409   4.855 -0.0822  0.0012  0.0359
 1016WN      WN 1516   3.651   4.212   5.377  0.0415 -0.0558  0.0106
 1017WN      WN 1517   1.522   2.055   4.883  0.1681 -0.1580 -0.1602
 1018WN      WN 1518   0.843   1.157   0.939  0.1820 -0.1744  0.3582
 1019WN      WN 1519   0.671   4.322   2.182  0.1473  0.0774  0.4082
 1020WN      WN 1520   1.168   4.686   4.776  0.1970  0.2099 -0.0354
 1021WN      WN 1521   5.708   3.363   3.734  0.1942  0.1019 -0.0755
 1022WN      WN 1522   5.430   5.664   4.461 -0.3750 -0.1700  0.1613
 1023WN      WN 1523   6.314   4.905   6.334 -0.2213 -0.2921 -0.1772
 1024WN      WN 1524   4.056   5.093   5.620 -0.3945  0.0073  0.1739
 1025WN      WN 1525   3.721   5.008   3.598 -0.1634 -0.0870 -0.2393
 1026WN      WN 1526   2.042   0.949   0.814 -0.1338 -0.2146 -0.2548
 1027WN      WN 1527   1.032   5.155   2.515 -0.0252 -0.0010 -0.1481
 1028WN      WN 1528   0.665   3.682   5.049 -0.2203  0.0975 -0.1659
 1029WN      WN 1529   0.026   5.072   2.877 -0.0234  0.0301 -0.1069
 1030WN      WN 1530   1.774   5.677   5.272  0.1729  0.0756 -0.0408
 1031WN      WN 1531   5.250   6.072   4.651  0.1749 -0.2540 -0.1143
 1032WN      WN 1532   1.823   0.830   0.282 -0.2094 -0.0149 -0.1209
 1033WN      WN 1533   5.101   4.267   2.673 -0.1464 -0.0375 -0.2384
 1034WN      WN 1534   5.709   3.965   5.348  0.0922  0.2567 -0.3275
 1035WN      WN 1535   2.748   2.050   3.539  0.0690 -0.0552  0.0062
 1036WN      WN 1536   4.356   4.416   5.850  0.0647  0.0882  0.2449
 1037WN      WN 1537   4.148   1.227   4.179  0.1423  0.2492 -0.0691
 1038WN      WN 1538   5.587   5.203   4.800 -0.3212  0.0360 -0.0207
 1039WN      WN 1539   3.831   3.503   4.662 -0.1317 -0.1184 -0.2611
 1040WN      WN 1540   0.567   2.327   5.005 -0.0919 -0.0004  0.0999
 1041WN      WN 1541   5.060   6.472   0.356 -0.0859  0.0117 -0.1286
 1042WN      WN 1542   2.422   5.564   4.503  0.1997  0.1068  0.1592
 1043WN      WN 1543   4.235   2.103   4.337  0.1958 -0.0945  0.2023
 1044WN      WN 1544   3.297   2.840   4.490  0.0140 -0.0997  0.1349
 1045WN      WN 1545   1.019   2.189   6.299 -0.0168 -0.0620  0.2279
 1046WN      WN 1546   1.965   1.304   0.398 -0.1710  0.1791 -0.5986
 1047WN      WN 1547   4.936   0.392   0.525  0.0701 -0.0471  0.1916
 1048WN      WN 1548   5.387   2.502   2.192 -0.0482  0.1374 -0.0334
 1049WN      WN 1549   1.644   3.908   5.646 -0.0687 -0.3159 -0.1680
 1050WN      WN 1550   2.904   4.907   2.838 -0.0295  0.1870  0.2080
 1051WN      WN 1551   2.825   5.422   3.794 -0.1700 -0.0481 -0.0668
 1052WN      WN 1552   1.048   1.276   2.096 -0.2116  0.1418  0.0122
 1053WN      WN 1553   3.002   5.762   3.323  0.5167  0.0271 -0.1426
 1054WN      WN 1554   6.255   1.522   2.011  0.3516 -0.2070  0.0985
 1055WN      WN 1555   1.539   2.286   5.379 -0.1755 -0.0339 -0.0804
 1056WN      WN 1556   3.162   5.759   6.021  0.0413  0.0346 -0.0833
 1057WN      WN 1557   2.949   2.240   5.336  0.0909  0.1902 -0.4360
 1058WN      WN 1558   5.751   0.093   2.815  0.2356 -0.3959  0.1117
 1059WN      WN 1559   3.970   1.633   4.509  0.0006 -0.0086 -0.1244
 1060WN      WN 1560   1.125   0.254   0.817 -0.2207  0.2336 -0.0315
 1061WN      WN 1561   2.921   0.331   2.827 -0.1485 -0.1153 -0.0657
 1062WN      WN 1562   4.109   5.404   6.139  0.0006 -0.1311  0.3223
 1063WN      WN 1563   1.925   2.368   5.026 -0.1222 -0.0781 -0.4310
 1064WN      WN 1564   6.336   4.346   6.250  0.1353  0.0333  0.1024
 1065WN      WN 1565   2.843   5.374   6.018  0.0400 -0.1442 -0.2367
 1066WN      WN 1566   0.013   4.401   3.724  0.2221  0.0107 -0.3785
 1067WN      WN 1567   4.683   1.969   0.200 -0.0548  0.2652  0.0475
 1068WN      WN 1568   2.527   5.643   0.430  0.1429  0.4190  0.0821
 1069WN      WN 1569   3.803   1.068   3.097 -0.0801  0.1245 -0.2664
 1070WN      WN 1570   0.665   1.008   3.568 -0.2888 -0.1328 -0.1624
 1071WN      WN 1571   2.571   1.381   5.705 -0.0785 -0.3803  0.1177
 1072WN      WN 1572   2.155   4.946   4.311  0.1411 -0.1655  0.4803
 1073WN      WN 1573   5.145   2.462   0.142  0.0019 -0.2635 -0.2200
 1074WN      WN 1574   2.690   3.405   2.343 -0.0708  0.2097  0.0840
 1075WN      WN 1575   2.927   3.547   1.233 -0.0437  0.2497 -0.1004
 1076WN      WN 1576   0.320   3.996   5.730  0.0548 -0.0050 -0.3319
 1077WN      WN 1577   6.061   3.714   1.133 -0.1611  0.1916  0.1727
 1078WN      WN 1578   5.672   4.788   0.287 -0.0547  0.2388 -0.2478
 1079WN      WN 1579   3.706   5.060   5.968  0.2857  0.0604 -0.1753
 1080WN      WN 1580   0.434   6.158   5.312 -0.1098  0.0623 -0.0645
 1081WN      WN 1581   3.760   1.912   1.576  0.0569  0.0277  0.1912
 1082WN      WN 1582   1.001   2.807   1.065 -0.0611  0.2061 -0.0603
 1083WN      WN 1583   6.458   1.047   3.410  0.0965  0.3354 -0.0688
 1084WN      WN 1584   3.252   5.243   4.593  0.0046 -0.0632  0.1618
 1085WN      WN 1585   2.304   3.151   2.030  0.0950  0.0594  0.0858
 1086WN      WN 1586   1.614   4.127   4.166  0.0201 -0.0130 -0.0071
 1087WN      WN 1587   1.550   3.991   0.185 -0.1921 -0.1731 -0.4412
 1088WN      WN 1588   3.719   0.231   6.357 -0.0782  0.0810 -0.1375
 1089WN      WN 1589   1.297   1.860   5.523  0.0209  0.0746  0.0975
 1090WN      WN 1590   0.917   1.146   3.083 -0.3024 -0.0010  0.0738
 1091WN      WN 1591   5.207   0.437   1.029  0.2301 -0.0190  0.0705
 1092WN      WN 1592   4.886   3.077   3.016 -0.1596  0.0613 -0.0811
 1093WN      WN 1593   5.760   4.991   1.138 -0.0186 -0.1470 -0.0769
 1094WN      WN 1594   0.365   0.369   5.168 -0.4807 -0.0064  0.1847
 1095WN      WN 1595   4.488   4.029   4.780 -0.0950  0.1777  0.1869
 1096WN      WN 1596   2.088   1.754   4.027 -0.1716  0.0833  0.0338
 1097WN      WN 1597   5.973   0.592   4.046 -0.0146 -0.2101  0.2192
 1098WN      WN 1598   5.256   4.777   3.421 -0.1747 -0.0080  0.3287
 1099WN      WN 1599   0.518   0.247   3.298  0.1571 -0.4427 -0.1732
 1100WN      WN 1600   0.027   2.573   1.764 -0.2673 -0.0791  0.1760
 1101WN      WN 1601   2.400   4.085   1.781 -0.0652 -0.0847  0.1277
 1102WN      WN 1602   5.906   3.018   2.737  0.2713  0.0981  0.1517
 1103WN      WN 1603   3.581   2.927   2.706  0.0423  0.0697  0.0456
 1104WN      WN 1604   1.957   0.914   2.332 -0.1413  0.1734  0.1016
 1105WN      WN 1605   1.199   4.693   3.810  0.1066  0.1429 -0.0232
 1106WN      WN 1606   1.085   2.197   4.474  0.0656 -0.1094  0.3893
 1107WN      WN 1607   5.304   1.814   4.984 -0.0899 -0.1396  0.1052
 1108WN      WN 1608   3.401   5.883   5.610  0.1846 -0.0482 -0.0674
 1109WN      WN 1609   1.885   4.586   4.035  0.0296  0.0826  0.1380
 1110WN      WN 1610   5.359   2.148   6.345  0.2243 -0.5168  0.0784
 1111WN      WN 1611   3.729   2.808   0.615  0.0893  0.0003  0.1793
 1112WN      WN 1612   5.536   4.612   0.843  0.1080  0.1176  0.1416
 1113WN      WN 1613   1.444   0.561   0.543  0.0074  0.2216  0.3396
 1114WN      WN 1614   1.574   5.044   6.239 -0.2172 -0.1752 -0.0289
 1115WN      WN 1615   5.526   4.220   4.840  0.2043 -0.2260 -0.0190
 1116WN      WN 1616   5.494   5.419   3.967  0.0554 -0.2540  0.0350
 1117WN      WN 1617   2.954   2.243   2.127 -0.0080 -0.1146  0.1147
 1118WN      WN 1618   6.381   6.471   5.478 -0.0477 -0.2272  0.0498
 1119WN      WN 1619   3.583   2.789   1.122 -0.1329 -0.0358  0.0702
 1120WN      WN 1620   0.618   5.761   5.601 -0.1753 -0.1645  0.0065
 1121WN      WN 1621   1.945   5.683   4.289  0.1302  0.1683 -0.3631
 1122WN      WN 1622   0.807   4.624   4.062 -0.0534  0.2563  0.0793
 1123WN      WN 1623   0.623   0.588   0.323  0.2607 -0.1760 -0.3554
 1124WN      WN 1624   4.232   1.282   2.832 -0.1381  0.0688 -0.1126
 1125WN      WN 1625   1.437   2.599   5.026 -0.3718 -0.2081 -0.0409
 1126WN      WN 1626   5.265   5.809   5.469  0.2221  0.0182 -0.4021
 1127WN      WN 1627   2.464   2.170   2.122 -0.1278 -0.0247  0.0986
 1128WN      WN 1628   4.136   2.794   5.167  0.1125  0.0110 -0.1959
 1129WN      WN 1629   4.827   2.823   0.754  0.1442 -0.1383 -0.1121
 1130WN      WN 1630   3.002   0.746   4.612 -0.0203  0.0731  0.1779
 1131WN      WN 1631   2.316   3.297   3.130 -0.0235 -0.1239 -0.2397
 1132WN      WN 1632   4.726   0.042   0.849  0.1664  0.2363 -0.0382
 1133WN      WN 1633   3.870   5.760   2.873  0.1881 -0.3033  0.1174
 1134WN      WN 1634   5.005   4.133   4.898  0.2233 -0.1589  0.0132
 1135WN      WN 1635   4.267   3.074   6.209  0.0197  0.3703 -0.2323
 1136WN      WN 1636   5.029   2.625   3.185  0.1930  0.1504  0.0050
 1137WN      WN 1637   1.767   0.621   1.101 -0.2459 -0.1097 -0.4087
 1138WN      WN 1638   4.277   2.111   6.482 -0.1862 -0.0249  0.1948
 1139WN      WN 1639   2.951   6.318   1.094  0.1025  0.0202  0.1841
 1140WN      WN 1640   0.615   6.417   3.088  0.2173  0.3245  0.2433
 1141WN      WN 1641   4.553   1.191   0.637 -0.1475  0.2456 -0.0497
 1142WN      WN 1642   2.266   3.957   6.486 -0.1429  0.3077 -0.0498
 1143WN      WN 1643   1.577   0.560   1.551 -0.0011  0.0281 -0.1413
 1144WN      WN 1644   2.563   3.478   4.117 -0.0360 -0.4960 -0.0532
 1145WN      WN 1645   3.041   2.986   0.004 -0.1815  0.4953  0.0961
 1146WN      WN 1646   3.365   4.562   5.098  0.1031  0.2209  0.1629
 1147WN      WN 1647   4.818   4.107   5.781 -0.0177  0.3787 -0.1439
 1148WN      WN 1648   0.269   5.537   2.987  0.1680  0.0489 -0.0251
 1149WN      WN 1649   1.927   5.780   1.328  0.1029 -0.1077  0.2250
 1150WN      WN 1650   4.010   4.915   0.349 -0.0597 -0.1863  0.0175
 1151WN      WN 1651   3.990   0.174   4.996 -0.0590  0.0213  0.0485
 1152WN      WN 1652   3.541   4.915   5.439  0.0206 -0.1738 -0.2064
 1153WN      WN 1653   2.861   6.145   6.215 -0.0425 -0.1093 -0.0982
 1154WN      WN 1654   5.961   4.182   2.455  0.2662  0.1152 -0.1877
 1155WN      WN 1655   1.512   5.394   2.631  0.4072 -0.2903 -0.1085
 1156WN      WN 1656   1.497   3.578   6.409  0.1014 -0.0433 -0.2974
 1157WN      WN 1657   1.691   5.793   0.275 -0.1062  0.3263 -0.2426
 1158WN      WN 1658   3.868   1.570   3.094  0.1609 -0.1844 -0.0715
 1159WN      WN 1659   3.264   3.309   2.750  0.1258 -0.0090  0.0226
 1160WN      WN 1660   0.476   6.237   6.320 -0.2400 -0.1581 -0.1024
 1161WN      WN 1661   4.292   2.246   6.000 -0.1020  0.1769  0.2905
 1162WN      WN 1662   5.112   1.307   5.786  0.2021 -0.0054  0.2006
 1163WN      WN 1663   1.084   2.226   5.030  0.2047  0.0980  0.0321
 1164WN      WN 1664   3.519   1.072   1.571  0.0984 -0.1195  0.0008
 1165WN      WN 1665   4.216   5.411   2.549  0.4717  0.0279  0.2288
 1166WN      WN 1666   5.839   1.793   2.589  0.0258  0.2323  0.0203
 1167WN      WN 1667   4.266   1.010   0.170 -0.1850 -0.1135  0.2070
 1168WN      WN 1668   3.762   0.171   2.762  0.1173  0.0036  0.2987
 1169WN      WN 1669   6.203   3.465   5.995 -0.3327 -0.4873 -0.0162
 1170WN      WN 1670   1.507   0.528   3.961 -0.2394  0.2827  0.0054
 1171WN      WN 1671   5.776   5.037   6.248 -0.0269  0.0356 -0.1501
 1172WN      WN 1672   3.901   3.826   5.019 -0.3363 -0.4526 -0.0456
 1173WN      WN 1673   4.947   2.290   2.374  0.0893  0.1577 -0.2078
 1174WN      WN 1674   3.319   3.433   2.250 -0.2207  0.2319 -0.3771
 1175WN      WN 1675   2.165   5.355   5.171  0.3127  0.3509  0.1211
 1176WN      WN 1676   4.873   5.568   5.191  0.4125 -0.1208 -0.0956
 1177WN      WN 1677   4.645   3.353   0.968 -0.1007 -0.1613 -0.0576
 1178WN      WN 1678   0.443   3.316   4.482 -0.1195 -0.0671  0.1648
 1179WN      WN 1679   5.603   1.599   6.549  0.2271  0.1008 -0.2021
 1180WN      WN 1680   5.535   2.904   0.526  0.2094  0.2982 -0.0572
 1181WN      WN 1681   1.923   4.377   3.149 -0.1102  0.1426  0.1929
 1182WN      WN 1682   1.573   1.958   4.387  0.1830  0.3260  0.0257
 1183WN      WN 1683   2.907   0.599   3.238 -0.0996 -0.0258  0.0472
 1184WN      WN 1684   5.066   3.720   0.885 -0.4122 -0.2909  0.1603
 1185WN      WN 1685   1.230   4.052   1.016 -0.1263 -0.0093  0.0282
 1186WN      WN 1686   3.071   4.739   1.391 -0.1625  0.2296 -0.1744
 1187WN      WN 1687   1.284   4.971   3.298  0.1818 -0.1775  0.0738
 1188WN      WN 1688   3.899   0.353   1.983  0.1321  0.0373  0.2059
 1189WN      WN 1689   4.482   3.104   5.423  0.0821  0.1339 -0.1869
 1190WN      WN 1690   6.296   1.670   0.255  0.0516 -0.0288 -0.0583
 1191WN      WN 1691   5.634   1.014   4.736  0.2580 -0.0511  0.1430
 1192WN      WN 1692   2.052   3.836   5.336  0.0495  0.1493  0.2022
 1193WN      WN 1693   0.421   0.882   4.568 -0.0945 -0.1310  0.2795
 1194WN      WN 1694   4.541   1.911   5.314 -0.3760  0.0202  0.2191
 1195WN      WN 1695   1.388   3.573   0.890 -0.3288 -0.3363  0.2645
 1196WN      WN 1696   0.791   4.306   2.654 -0.0586  0.1729 -0.2137
 1197WN      WN 1697   3.885   6.258   6.446  0.0494  0.2925  0.2149
 1198WN      WN 1698   2.426   1.592   0.031  0.0709  0.1722  0.0794
 1199WN      WN 1699   3.433   4.527   1.095  0.4884 -0.2485  0.0829
 1200WN      WN 1700   0.153   6.560   4.244  0.1486 -0.3972 -0.2044
 1201WN      WN 1701   6.323   6.276   4.948 -0.3801  0.2156  0.0022
 1202WN      WN 1702   1.116   5.844   5.857 -0.0816 -0.0023  0.1036
 1203WN      WN 1703   5.554   3.374   4.350  0.2180  0.2660  0.2224
 1204WN      WN 1704   3.866   1.309   5.351  0.0254 -0.0412  0.0455
 1205WN      WN 1705   3.215   5.003   3.229 -0.4876  0.0519 -0.0817
 1206WN      WN 1706   0.039   5.971   3.531  0.0944  0.0984  0.0165
 1207WN      WN 1707   3.112   5.934   2.822 -0.1905  0.1067 -0.2713
 1208WN      WN 1708   3.527   1.614   6.238  0.2211 -0.1855 -0.0308
 1209WN      WN 1709   1.091   1.726   0.019 -0.0562 -0.1129 -0.0004
 1210WN      WN 1710   2.078   5.880   6.045  0.0699  0.1601  0.0673
 1211WN      WN 1711   4.713   2.712   3.761 -0.0307 -0.0043 -0.5221
 1212WN      WN 1712   1.303   5.964   4.120 -0.2188  0.1157  0.0040
 1213WN      WN 1713   1.229   3.252   1.243  0.2468  0.3900 -0.0068
 1214WN      WN 1714   2.128   2.216   6.520 -0.4921 -0.1033 -0.0199
 1215WN      WN 1715   0.200   4.860   2.423  0.3878  0.2980 -0.1012
 1216WN      WN 1716   1.637   1.796   2.461  0.1590 -0.0100  0.0353
 1217WN      WN 1717   3.139   5.444   0.684  0.0545  0.4131 -0.2781
 1218WN      WN 1718   1.881   1.355   4.638  0.0095  0.1651  0.0214
 1219WN      WN 1719   5.091   0.544   3.493 -0.2955 -0.0432  0.0820
 1220WN      WN 1720   5.823   5.843   4.726 -0.1515 -0.2018 -0.0198
 1221WN      WN 1721   0.813   0.139   1.775  0.1497  0.0275  0.0021
 1222WN      WN 1722   1.129   4.648   2.742 -0.0424  0.1459 -0.3914
 1223WN      WN 1723   1.673   1.267   5.647 -0.1783 -0.2400  0.0686
 1224WN      WN 1724   4.010   3.204   4.303 -0.2970  0.1054 -0.2471
 1225WN      WN 1725   2.760   3.473   2.826  0.0244  0.2538 -0.1265
 1226WN      WN 1726   2.469   3.587   4.863 -0.0841  0.0661  0.0535
 1227WN      WN 1727   3.480   5.612   1.599  0.0705  0.1686 -0.2190
 1228WN      WN 1728   5.358   4.682   4.613 -0.4539  0.2455 -0.1949
 1229WN      WN 1729   2.881   4.966   3.673  0.3318  0.1972  0.0288
 1230WN      WN 1730   0.276   4.607   2.866  0.0295 -0.1846 -0.3143
 1231WN      WN 1731   2.464   4.945   5.634 -0.0203 -0.3736 -0.3978
 1232WN      WN 1732   2.988   5.642   5.243  0.0342 -0.0755  0.0389
 1233WN      WN 1733   5.215   6.548   2.465  0.1130  0.1116  0.1894
 1234WN      WN 1734   6.440   3.447   2.074  0.0831 -0.0111  0.2690
 1235WN      WN 1735   5.995   5.381   3.603  0.0001 -0.5429 -0.2569
 1236WN      WN 1736   1.828   2.160   1.551 -0.0522  0.2826 -0.1078
 1237WN      WN 1737   4.276   4.050   3.285 -0.1285 -0.1039 -0.2356
 1238WN      WN 1738   4.526   0.668   0.513  0.0757  0.4145 -0.1678
 1239WN      WN 1739   2.981   5.189   2.155  0.1983  0.1205  0.1153
 1240WN      WN 1740   2.304   4.923   2.370  0.1779  0.0847  0.2112
 1241WN      WN 1741   2.674   0.188   4.888 -0.0679 -0.1959 -0.1488
 1242WN      WN 1742   2.552   0.509   4.498 -0.0851  0.0620 -0.0163
 1243WN      WN 1743   2.611   3.161   3.678  0.2751  0.2921 -0.0205
 1244WN      WN 1744   3.448   1.625   5.371 -0.0217 -0.1306  0.0820
 1245WN      WN 1745   3.732   3.242   0.856 -0.1770 -0.2448 -0.1023
 1246WN      WN 1746   4.992   3.955   2.288  0.2444  0.1786 -0.0474
 1247WN      WN 1747   5.266   1.060   5.137 -0.4068 -0.1589  0.1028
 1248WN      WN 1748   3.581   5.535   6.152 -0.0369 -0.0128 -0.2615
 1249WN      WN 1749   2.719   2.824   2.138 -0.0700  0.1797 -0.5592
 1250WN      WN 1750   3.605   6.496   1.178  0.0536 -0.0606  0.2303
 1251WN      WN 1751   2.330   2.386   0.847  0.1514  0.4503  0.1706
 1252WN      WN 1752   6.127   4.553   3.954  0.1908 -0.4457 -0.1193
 1253WN      WN 1753   5.902   6.005   0.805 -0.2133 -0.0012  0.4906
 1254WN      WN 1754   1.624   4.710   3.516 -0.4762 -0.1314 -0.4601
 1255WN      WN 1755   2.375   0.074   2.748 -0.1028 -0.1603  0.1346
 1256WN      WN 1756   4.136   4.969   1.773  0.0380  0.0920 -0.4673
 1257WN      WN 1757   0.689   2.986   2.441  0.0941  0.0524 -0.0170
 1258WN      WN 1758   2.478   2.204   6.092 -0.1382  0.2717 -0.1276
 1259WN      WN 1759   6.322   5.783   0.328  0.1332 -0.1294  0.1570
 1260WN      WN 1760   2.273   3.777   1.398 -0.0900  0.2115 -0.0407
 1261WN      WN 1761   0.310   0.044   5.555  0.2821 -0.2013  0.2234
 1262WN      WN 1762   5.793   4.317   1.999  0.1127  0.0007  0.0591
 1263WN      WN 1763   3.190   3.699   3.103  0.4212 -0.0292 -0.0261
 1264WN      WN 1764   5.943   5.463   5.058  0.2727 -0.4484 -0.1349
 1265WN      WN 1765   4.791   4.512   6.132  0.1082  0.0815 -0.1111
 1266WN      WN 1766   2.699   0.100   1.909  0.1876  0.1319  0.1465
 1267WN      WN 1767   4.728   3.745   4.420  0.2814  0.0568 -0.0784
 1268WN      WN 1768   2.914   1.314   6.521 -0.0992 -0.1463 -0.0300
 1269WN      WN 1769   3.968   3.943   3.728 -0.1330  0.0036 -0.1688
 1270WN      WN 1770   4.136   4.938   2.293  0.1248  0.2869 -0.3490
 1271WN      WN 1771   2.680   3.569   1.692 -0.0815 -0.0287  0.2231
 1272WN      WN 1772   1.927   3.944   1.786 -0.0180 -0.1166  0.1531
 1273WN      WN 1773   0.826   0.723   1.300  0.1161 -0.0604 -0.0301
 1274WN      WN 1774   5.465   5.219   0.132  0.1896 -0.1472 -0.2572
 1275WN      WN 1775   4.501   4.111   2.300 -0.0729  0.1492  0.1448
 1276WN      WN 1776   4.499   4.216   3.791  0.3495 -0.1256  0.0778
 1277WN      WN 1777   4.383   0.295   1.838  0.0247 -0.1415 -0.1919
 1278WN      WN 1778   1.232   1.845   1.493  0.0468  0.0142  0.0970
 1279WN      WN 1779   4.581   4.266   4.290  0.2029 -0.1783  0.0460
 1280WN      WN 1780   3.202   4.269   3.730 -0.2337  0.0685 -0.0478
 1281WN      WN 1781   3.983   0.720   1.646  0.3230  0.1580 -0.0963
 1282WN      WN 1782   3.153   1.792   1.966 -0.0762  0.0845  0.2076
 1283WN      WN 1783   1.314   1.586   3.798 -0.0989  0.0899 -0.2643
 1284WN      WN 1784   5.740   5.576   1.996 -0.0147 -0.1097  0.0332
 1285WN      WN 1785   4.726   2.636   5.329  0.0282 -0.0888 -0.0091
 1286WN      WN 1786   3.831   4.045   0.044 -0.2529 -0.0613 -0.0657
 1287WN      WN 1787   5.734   4.625   4.272 -0.4453 -0.2461  0.1687
 1288WN      WN 1788   6.034   3.632   4.417 -0.0997  0.2122  0.3107
 1289WN      WN 1789   5.390   4.809   2.915 -0.0137 -0.0415 -0.0674
 1290WN      WN 1790   2.601   1.236   3.186  0.1680  0.1212  0.1859
 1291WN      WN 1791   5.852   5.476   0.943 -0.0012  0.2684 -0.3470
 1292WN      WN 1792   3.366   1.123   5.393 -0.2256  0.0430 -0.2481
 1293WN      WN 1793   0.901   6.368   0.882  0.6134 -0.0168  0.0113
 1294WN      WN 1794   5.743   2.400   6.074 -0.0950 -0.2298 -0.1192
 1295WN      WN 1795   5.402   2.984   2.424  0.0425  0.0119  0.2089
 1296WN      WN 1796   4.690   4.481   2.671  0.0231  0.2124  0.0782
 1297WN      WN 1797   5.550   3.454   3.188  0.0729  0.1765  0.1105
 1298WN      WN 1798   6.390   4.867   0.254  0.1453  0.1893  0.1702
 1299WN      WN 1799   0.774   2.075   2.413  0.0358  0.1605  0.1395
 1300WN      WN 1800   5.729   5.714   3.239  0.3169  0.3751 -0.0512
 1301WN      WN 1801   3.325   1.805   4.198  0.1213  0.1182  0.5964
 1302WN      WN 1802   0.785   0.810   5.173  0.3791 -0.0376 -0.0618
 1303WN      WN 1803   0.807   6.554   5.372 -0.4478 -0.1127  0.2519
 1304WN      WN 1804   0.897   2.731   4.718  0.3647 -0.2364 -0.1093
 1305WN      WN 1805   5.878   3.829   3.393  0.1383 -0.3320  0.0915
 1306WN      WN 1806   3.434   2.515   4.048  0.0004 -0.0251 -0.0202
 1307WN      WN 1807   2.241   6.400   1.293  0.1068 -0.1900 -0.0329
 1308WN      WN 1808   0.786   3.834   3.845  0.1943  0.0180 -0.1456
 1309WN      WN 1809   6.032   4.805   1.553  0.0100  0.1517  0.0637
 1310WN      WN 1810   4.126   4.030   1.184  0.2224 -0.1467  0.0217
 1311WN      WN 1811   4.081   3.310   1.755 -0.2713 -0.3621  0.0864
 1312WN      WN 1812   2.478   6.191   0.869  0.3169 -0.1865 -0.1684
 1313WN      WN 1813   0.264   4.225   4.573 -0.1395 -0.0741  0.0681
 1314WN      WN 1814   0.704   0.010   4.396 -0.0616  0.0744  0.1452
 1315WN      WN 1815   0.226   6.498   4.947  0.1833  0.4892  0.1976
 1316WN      WN 1816   6.379   4.927   4.785 -0.1747 -0.1021  0.2266
 1317WN      WN 1817   3.878   4.707   4.552 -0.2812  0.2195  0.0833
 1318WN      WN 1818   2.345   6.501   3.359  0.2759 -0.0387  0.2697
 1319WN      WN 1819   2.591   0.822   0.650 -0.0159 -0.0416 -0.1931
 1320WN      WN 1820   1.806   4.319   5.051  0.2919  0.3450 -0.5002
 1321WN      WN 1821   2.511   0.867   2.913 -0.0533  0.1637  0.1025
 1322WN      WN 1822   5.765   3.421   5.295 -0.0072 -0.2271 -0.1106
 1323WN      WN 1823   1.619   5.995   5.670 -0.0242 -0.0182 -0.1800
 1324WN      WN 1824   5.856   5.715   4.128  0.0298  0.1244 -0.2638
 1325WN      WN 1825   0.210   1.514   3.056 -0.1641  0.0126 -0.0444
 1326WN      WN 1826   3.206   6.527   6.429  0.2025  0.1683 -0.1362
 1327WN      WN 1827   2.015   5.459   1.681  0.1789 -0.2276  0.0583
 1328WN      WN 1828   1.020   5.922   3.722 -0.1193  0.0815 -0.3965
 1329WN      WN 1829   4.226   6.104   0.242  0.1087  0.2668 -0.1385
 1330WN      WN 1830   6.540   3.064   4.664  0.0323  0.3919  0.0731
 1331WN      WN 1831   4.310   3.695   2.650 -0.1234 -0.2003  0.1250
 1332WN      WN 1832   5.358   4.714   6.517 -0.0153  0.0415  0.2035
 1333WN      WN 1833   3.697   2.134   0.532 -0.1713 -0.2255 -0.1806
 1334WN      WN 1834   0.065   5.692   5.922 -0.0634  0.0517  0.1794
 1335WN      WN 1835   4.280   3.830   4.224  0.2354 -0.2350  0.0226
 1336WN      WN 1836   6.154   3.475   0.121  0.1968  0.0464  0.0751
 1337WN      WN 1837   1.602   4.164   3.627 -0.0187  0.1570  0.3135
 1338WN      WN 1838   2.111   1.363   3.242 -0.0224 -0.1756  0.2061
 1339WN      WN 1839   5.052   5.698   6.402  0.1558  0.0944 -0.3407
 1340WN      WN 1840   1.932   4.916   2.678  0.2723 -0.1152  0.1548
 1341WN      WN 1841   5.397   4.737   1.901  0.1823 -0.2102  0.1588
 1342WN      WN 1842   4.769   1.962   3.129  0.1344  0.1357  0.2617
 1343WN      WN 1843   6.043   3.876   4.966  0.2008 -0.1511  0.0843
 1344WN      WN 1844   2.821   2.215   4.855 -0.0568 -0.0357 -0.1344
 1345WN      WN 1845   2.588   3.912   6.075  0.2184 -0.0646  0.0799
 1346WN      WN 1846   3.127   3.731   6.224 -0.0916 -0.2388  0.4005
 1347WN      WN 1847   2.625   4.964   4.497 -0.0111 -0.3243  0.1939
 1348WN      WN 1848   3.866   0.952   1.084  0.1054 -0.0472 -0.0864
 1349WN      WN 1849   1.475   2.521   6.377  0.1176 -0.1811  0.3764
 1350WN      WN 1850   4.458   0.708   3.856  0.1698  0.1750  0.0596
 1351WN      WN 1851   2.051   2.421   1.946 -0.0870 -0.1356 -0.2686
 1352WN      WN 1852   3.576   1.369   5.820  0.3611  0.2092  0.2454
 1353WN      WN 1853   1.965   2.499   1.237 -0.3411 -0.1956  0.2305
 1354WN      WN 1854   3.745   3.752   0.909  0.0979  0.4723 -0.3776
 1355WN      WN 1855   0.954   0.428   2.187 -0.1793  0.2938  0.0036
 1356WN      WN 1856   4.678   3.026   2.555  0.3447  0.0453  0.2522
 1357WN      WN 1857   2.698   3.615   3.319 -0.1724 -0.2561  0.3582
 1358WN      WN 1858   3.469   1.394   2.756 -0.1411 -0.2723 -0.0743
 1359WN      WN 1859   4.660   6.414   5.261 -0.0544 -0.1413 -0.1966
 1360WN      WN 1860   1.151   4.251   1.927  0.1180  0.2098  0.1159
 1361WN      WN 1861   1.806   5.525   3.380  0.1542 -0.0070  0.1795
 1362WN      WN 1862   5.073   2.236   2.875 -0.0890 -0.3669 -0.2275
 1363WN      WN 1863   1.873   5.894   1.902 -0.0185  0.1545 -0.1370
 1364WN      WN 1864   1.103   4.622   2.224 -0.2058 -0.0635  0.2599
 1365WN      WN 1865   3.397   1.148   6.356 -0.0360  0.0948  0.2183
 1366WN      WN 1866   3.408   4.726   6.441 -0.2153 -0.0793 -0.1237
 1367WN      WN 1867   3.011   3.316   4.004  0.0816  0.2727 -0.0865
 1368WN      WN 1868   1.080   5.782   6.513 -0.1294 -0.2180  0.0400
 1369WN      WN 1869   2.573   5.763   1.898 -0.1102 -0.0643  0.0020
 1370WN      WN 1870   5.579   6.114   5.779 -0.0403  0.0394  0.3687
 1371WN      WN 1871   4.373   3.000   1.402 -0.0459 -0.0811  0.0106
 1372WN      WN 1872   1.980   6.010   3.477 -0.3234  0.1147 -0.0085
 1373WN      WN 1873   0.818   4.273   4.414 -0.0357  0.2113 -0.1248
 1374WN      WN 1874   4.771   0.038   2.718  0.0468 -0.1960 -0.0418
 1375WN      WN 1875   2.132   1.928   0.718  0.2402 -0.1573  0.1370
 1376WN      WN 1876   3.672   3.805   2.885  0.0742  0.0245 -0.1516
 1377WN      WN 1877   3.274   3.860   4.161  0.1002  0.3472  0.3385
 1378WN      WN 1878   4.927   2.252   0.607 -0.1029  0.0525  0.0218
 1379WN      WN 1879   2.601   1.690   1.407  0.0072 -0.2609  0.1152
 1380WN      WN 1880   3.869   5.862   4.798  0.0237  0.3431 -0.1315
 1381WN      WN 1881   4.255   3.415   5.769  0.1425  0.2084  0.1085
 1382WN      WN 1882   6.398   0.598   4.383  0.0206  0.2074 -0.0368
 1383WN      WN 1883   3.070   4.310   2.332  0.2456 -0.0259  0.0354
 1384WN      WN 1884   2.835   3.325   0.577  0.0853 -0.0473  0.4201
 1385WN      WN 1885   5.059   6.548   3.139 -0.3708 -0.0836 -0.0425
 1386WN      WN 1886   0.008   0.180   0.555 -0.4509 -0.0467 -0.0577
 1387WN      WN 1887   4.350   1.804   5.762  0.0166 -0.3504  0.0057
 1388WN      WN 1888   2.187   3.473   3.600 -0.1768  0.0021 -0.0541
 1389WN      WN 1889   5.692   4.392   2.901 -0.0550  0.2833  0.1615
 1390WN      WN 1890   1.527   2.016   6.553  0.1357  0.1298 -0.0984
 1391WN      WN 1891   5.975   0.092   5.080  0.1144 -0.1280  0.2120
 1392WN      WN 1892   3.194   2.826   3.100 -0.0431 -0.0188 -0.1576
 1393WN      WN 1893   4.175   0.609   4.845 -0.2472 -0.1041 -0.1424
 1394WN      WN 1894   2.231   2.663   2.384  0.1818  0.0067 -0.1903
 1395WN      WN 1895   1.955   1.999   2.170  0.1285  0.2018 -0.0392
 1396WN      WN 1896   4.722   5.190   0.734 -0.1314  0.1827  0.0135
 1397WN      WN 1897   0.107   1.039   1.001  0.1785 -0.3430  0.0608
 1398WN      WN 1898   2.770   0.686   0.167  0.1909 -0.2857  0.0687
 1399WN      WN 1899   2.311   0.174   2.223 -0.0732  0.2424 -0.3583
 1400WN      WN 1900   4.935   3.247   4.569  0.2516  0.1352  0.1074
 1401WN      WN 1901   1.384   3.410   4.171 -0.0993 -0.3133 -0.3155
 1402WN      WN 1902   5.109   3.276   1.691  0.1330  0.2628 -0.3892
 1403WN      WN 1903   3.883   2.862   3.930 -0.0243  0.0359 -0.0639
 1404WN      WN 1904   3.800   4.825   0.764 -0.2375  0.1376  0.2663
 1405WN      WN 1905   3.707   4.345   6.116  0.1892 -0.3681  0.1020
 1406WN      WN 1906   6.384   5.918   4.365 -0.3004  0.1035 -0.1257
 1407WN      WN 1907   5.244   5.937   2.476 -0.1214 -0.1426  0.3167
 1408WN      WN 1908   2.171   6.535   0.744  0.0687  0.1384  0.4356
 1409WN      WN 1909   5.461   4.051   2.287 -0.1417  0.0448  0.1502
 1410WN      WN 1910   4.331   1.799   3.877 -0.2077 -0.1200  0.0195
 1411WN      WN 1911   4.958   4.966   6.456  0.3448 -0.1307 -0.0847
 1412WN      WN 1912   1.624   5.722   3.797 -0.1815  0.3120  0.0044
 1413WN      WN 1913   1.285   5.827   2.135 -0.3190 -0.1644  0.0781
 1414WN      WN 1914   2.361   1.086   2.507  0.2148 -0.2654 -0.2990
 1415WN      WN 1915   3.372   3.359   1.194 -0.1726 -0.1893 -0.0583
 1416WN      WN 1916   1.602   6.008   4.557  0.0584  0.0725 -0.2010
 1417WN      WN 1917   1.566   1.313   3.164  0.0528 -0.0707  0.1400
 1418WN      WN 1918   5.442   2.849   0.002 -0.0144  0.4420 -0.1942
 1419WN      WN 1919   4.743   4.843   5.203  0.1785 -0.0346  0.1209
 1420WN      WN 1920   3.121   6.394   4.798  0.3447  0.0585  0.1001
 1421WN      WN 1921   4.185   4.937   4.939  0.2368  0.0639  0.3718
 1422WN      WN 1922   1.603   2.888   3.182  0.0473  0.1689  0.3096
 1423WN      WN 1923   4.004   3.092   4.797  0.0494 -0.1595 -0.1782
 1424WN      WN 1924   4.677   0.329   1.295 -0.2006  0.3018 -0.2679
 1425WN      WN 1925   2.076   3.042   5.941  0.0607 -0.2424 -0.1864
 1426WN      WN 1926   4.177   4.208   5.265 -0.0765  0.1551  0.2449
 1427WN      WN 1927   6.478   5.357   3.322  0.0386  0.2390 -0.1787
 1428WN      WN 1928   1.415   6.351   1.041  0.1879  0.1925 -0.4259
 1429WN      WN 1929   3.409   0.616   1.816 -0.1154 -0.1042  0.0841
 1430WN      WN 1930   3.639   4.900   1.323  0.0028 -0.1436 -0.0131
 1431WN      WN 1931   3.616   5.416   5.605  0.1435 -0.1311 -0.1535
 1432WN      WN 1932   6.347   2.847   2.676 -0.0839  0.4319  0.1379
 1433WN      WN 1933   5.714   3.380   6.370 -0.2997 -0.1015 -0.5458
 1434WN      WN 1934   6.540   5.559   3.899 -0.0833 -0.1959  0.3175
 1435WN      WN 1935   0.062   3.593   4.260 -0.1174  0.2520 -0.0487
 1436WN      WN 1936   2.879   4.269   4.946  0.0292 -0.0862 -0.2635
 1437WN      WN 1937   5.900   4.392   3.395 -0.0344 -0.3737  0.3135
 1438WN      WN 1938   0.387   3.483   0.567  0.3187 -0.3541 -0.2340
 1439WN      WN 1939   1.828   3.377   3.230 -0.0582 -0.1590  0.0287
 1440WN      WN 1940   1.804   0.129   1.381 -0.0050 -0.2267  0.1297
 1441WN      WN 1941   1.521   6.360   2.680 -0.0126  0.2532  0.0790
 1442WN      WN 1942   0.744   0.689   3.128 -0.2007 -0.1693 -0.2118
 1443WN      WN 1943   6.318   1.936   2.981  0.1428  0.1390  0.1071
 1444WN      WN 1944   5.912   5.579   0.490  0.3837 -0.1437 -0.1260
 1445WN      WN 1945   0.988   6.431   2.670 -0.1212  0.3084 -0.1121
 1446WN      WN 1946   5.636   5.067   2.203  0.0221  0.1631 -0.2911
 1447WN      WN 1947   4.383   5.737   5.310 -0.0384 -0.1113  0.0005
 1448WN      WN 1948   4.749   1.283   4.361 -0.0078 -0.3919 -0.1532
 1449WN      WN 1949   5.572   1.194   5.736  0.2308  0.2683 -0.0216
 1450WN      WN 1950   2.515   6.306   2.375  0.1059 -0.1275  0.0841
 1451WN      WN 1951   1.261   2.270   1.855  0.1043 -0.3634  0.1930
 1452WN      WN 1952   1.199   0.748   4.351  0.1036 -0.1088  0.0811
 1453WN      WN 1953   1.108   1.170   5.035  0.4845 -0.5994  0.1179
 1454WN      WN 1954   1.718   0.554   4.972 -0.0280 -0.0224  0.1372
 1455WN      WN 1955   2.774   2.720   0.361  0.2837 -0.2526  0.4491
 1456WN      WN 1956   4.617   5.486   3.013 -0.1422 -0.0511 -0.3840
 1457WN      WN 1957   2.935   6.095   5.487  0.0866  0.1557 -0.0904
 1458WN      WN 1958   2.007   4.323   5.524 -0.0833  0.0949 -0.0126
 1459WN      WN 1959   3.432   0.445   1.301 -0.1360 -0.2282 -0.0719
 1460WN      WN 1960   1.964   4.591   2.225 -0.0103  0.2387  0.0228
 1461WN      WN 1961   4.172   2.592   0.482  0.0154  0.1391 -0.4658
 1462WN      WN 1962   4.546   0.512   6.562 -0.2835  0.1310  0.2003
 1463WN      WN 1963   5.185   3.361   3.544 -0.2293 -0.0888 -0.2781
 1464WN      WN 1964   2.809   3.188   5.148 -0.0809 -0.1935  0.2506
 1465WN      WN 1965   1.720   1.591   1.304  0.0483 -0.1062 -0.0724
 1466WN      WN 1966   5.034   1.830   6.470 -0.0837  0.2210 -0.0502
 1467WN      WN 1967   4.370   4.852   0.713  0.3100  0.0924  0.2416
 1468WN      WN 1968   3.835   1.475   1.114  0.0175  0.0264  0.3675
 1469WN      WN 1969   6.310   5.555   6.386 -0.0181  0.0234 -0.0669
 1470WN      WN 1970   2.811   4.807   1.863  0.1155 -0.1886 -0.0943
 1471WN      WN 1971   1.010   0.741   0.537  0.1500 -0.1727 -0.0505
 1472WN      WN 1972   1.782   6.108   5.054 -0.0505 -0.1206 -0.1143
 1473WN      WN 1973   1.467   3.988   5.185  0.2786 -0.0205  0.1478
 1474WN      WN 1974   2.645   5.235   2.557 -0.0058  0.0182  0.1936
 1475WN      WN 1975   1.481   3.783   1.973  0.4987 -0.0786  0.2212
 1476WN      WN 1976   4.544   1.610   1.091 -0.3103 -0.0224  0.2010
 1477WN      WN 1977   2.148   2.826   1.616  0.1655 -0.2961  0.0634
 1478WN      WN 1978   1.234   2.451   0.771 -0.0006  0.2211 -0.0668
 1479WN      WN 1979   1.277   2.777   1.577  0.0949  0.0520 -0.1571
 1480WN      WN 1980   4.146   2.907   0.930  0.0214  0.1384  0.2980
 1481WN      WN 1981   1.457   6.534   4.194  0.1933  0.1523 -0.1092
 1482WN      WN 1982   0.724   1.058   0.136  0.2066  0.1709  0.3976
 1483WN      WN 1983   1.522   4.249   1.488  0.1124 -0.1998 -0.1033
 1484WN      WN 1984   4.407   4.566   1.910  0.2821  0.2363 -0.1065
 1485WN      WN 1985   1.233   0.530   3.557  0.0682 -0.1243 -0.3237
 1486WN      WN 1986   5.920   3.005   0.120  0.1104 -0.0600  0.1027
 1487WN      WN 1987   5.835   1.880   6.179 -0.1329 -0.0521 -0.1601
 1488WN      WN 1988   3.659   6.243   2.703 -0.0640 -0.2923 -0.0849
 1489WN      WN 1989   0.508   5.997   2.823  0.0594  0.0929  0.5577
 1490WN      WN 1990   0.093   0.329   5.949 -0.2634 -0.0244  0.0843
 1491WN      WN 1991   1.057   5.892   1.591  0.0757 -0.1257  0.1419
 1492WN      WN 1992   2.028   3.334   5.077  0.0355 -0.0709 -0.3914
 1493WN      WN 1993   5.487   4.212   5.822  0.0550 -0.1827  0.2919
 1494WN      WN 1994   6.363   0.314   6.359 -0.4227 -0.1388 -0.0215
 1495WN      WN 1995   5.551   4.539   1.443 -0.0821 -0.3240  0.1663
 1496WN      WN 1996   1.331   0.191   1.334 -0.1043  0.0087 -0.0454
 1497WN      WN 1997   5.958   2.965   6.194  0.0859  0.0254 -0.2223
 1498WN      WN 1998   2.690   1.331   0.457 -0.1123 -0.0675 -0.1499
 1499WN      WN 1999   4.113   0.761   2.250 -0.0195  0.4151  0.0021
 1500WN      WN 2000   3.634   3.259   5.288 -0.1885 -0.1359 -0.0173
 1501WN      WN 2001   3.421   0.823   4.251  0.1124 -0.0564 -0.3022
 1502WN      WN 2002   6.116   5.309   3.006 -0.2638 -0.1085  0.0574
 1503WN      WN 2003   0.378   1.216   2.602  0.0153  0.1012  0.0507
 1504WN      WN 2004   0.949   3.270   5.582  0.0456 -0.3753  0.0164
 1505WN      WN 2005   5.045   0.318   4.499  0.2424  0.3564 -0.0311
 1506WN      WN 2006   5.214   4.350   0.382 -0.0642 -0.1235  0.1835
 1507WN      WN 2007   0.042   6.429   6.294  0.1924  0.0888 -0.1441
 1508WN      WN 2008   2.673   1.949   4.489 -0.0300 -0.1107  0.1745
 1509WN      WN 2009   3.607   2.600   3.161 -0.2177  0.0317  0.0789
 1510WN      WN 2010   5.114   3.712   5.993  0.1259  0.4053  0.1965
 1511WN      WN 2011   5.306   0.775   5.851  0.4469  0.1377  0.0166
 1512WN      WN 2012   0.499   5.655   4.530  0.2779 -0.0260  0.1221
 1513WN      WN 2013   3.894   0.454   3.681  0.2880  0.0272 -0.1382
 1514WN      WN 2014   6.341   1.988   2.285 -0.1904  0.0002 -0.0672
 1515WN      WN 2015   6.437   3.947   5.909 -0.0812  0.3494  0.1919
 1516WN      WN 2016   4.901   5.358   1.236  0.0041 -0.1557 -0.0214
 1517WN      WN 2017   4.701   2.223   4.460  0.2241 -0.0408  0.2582
 1518WN      WN 2018   1.712   4.741   4.448 -0.2188  0.0786 -0.0357
 1519WN      WN 2019   5.461   6.075   2.969 -0.0536 -0.0829 -0.0771
 1520WN      WN 2020   3.884   4.652   5.737 -0.1067  0.1979  0.2812
 1521WN      WN 2021   4.295   3.949   0.207 -0.0326 -0.0869 -0.2762
 1522WN      WN 2022   2.346   4.068   0.467 -0.0885  0.1760  0.2217
 1523WN      WN 2023   4.710   5.772   3.891  0.2063  0.0829 -0.0132
 1524WN      WN 2024   5.190   4.633   5.148 -0.2680 -0.2849 -0.4474
 1525WN      WN 2025   5.455   5.313   3.407 -0.0055  0.1768 -0.0467
 1526WN      WN 2026   4.268   0.987   5.279  0.0610 -0.1250  0.1309
 1527WN      WN 2027   0.509   4.247   3.647 -0.1595  0.2545  0.1760
 1528WN      WN 2028   5.991   4.578   1.111 -0.1912 -0.2194  0.0181
 1529WN      WN 2029   1.072   2.568   2.449  0.0841 -0.0616  0.0267
 1530WN      WN 2030   1.073   5.645   4.615  0.2691 -0.1523  0.0170
 1531WN      WN 2031   1.966   5.072   3.496 -0.1363  0.1742  0.1282
 1532WN      WN 2032   4.821   1.771   3.555 -0.2444 -0.2015 -0.0970
 1533WN      WN 2033   0.838   5.372   3.507 -0.1191 -0.2284  0.1229
 1534WN      WN 2034   4.956   5.104   5.624 -0.0412 -0.0530  0.1566
 1535WN      WN 2035   3.730   6.011   2.009 -0.0033 -0.0043 -0.0772
 1536WN      WN 2036   4.865   3.025   4.091 -0.0179 -0.2390  0.2779
 1537WN      WN 2037   6.021   3.185   4.606 -0.1282  0.6605 -0.0178
 1538WN      WN 2038   2.519   1.614   2.281  0.0577 -0.2562  0.1258
 1539WN      WN 2039   1.374   1.473   4.662 -0.1907 -0.1528  0.1582
 1540WN      WN 2040   5.836   5.628   6.538  0.0445  0.0049 -0.0309
 1541WN      WN 2041   3.053   1.682   0.482 -0.5247 -0.1827  0.2495
 1542WN      WN 2042   3.517   5.025   4.256  0.0706  0.0775  0.1959
 1543WN      WN 2043   5.117   5.641   3.595 -0.0816 -0.0856  0.1995
 1544WN      WN 2044   5.172   3.768   5.528  0.0127  0.1602 -0.3065
 1545WN      WN 2045   3.326   4.954   0.512  0.0993  0.2301  0.2487
 1546WN      WN 2046   1.592   0.589   2.595 -0.1310  0.0261  0.0077
 1547WN      WN 2047   4.844   0.906   2.883 -0.2194 -0.3885  0.1870
 1548WN      WN 2048   5.129   2.926   2.052  0.0006 -0.0952  0.1148
 1549WN      WN 2049   0.819   1.470   3.823  0.0190  0.0124 -0.1726
 1550WN      WN 2050   6.321   0.555   3.627 -0.2698 -0.1407 -0.2678
 1551WN      WN 2051   6.271   3.331   2.553  0.0938  0.3664 -0.0561
 1552WN      WN 2052   4.752   0.938   3.471 -0.3780 -0.1055 -0.0496
 1553WN      WN 2053   3.884   5.288   5.222  0.0529  0.2377 -0.0573
 1554WN      WN 2054   2.327   5.664   0.913 -0.2555 -0.1998  0.1123
 1555WN      WN 2055   1.075   4.106   4.786 -0.2807 -0.1976  0.2119
 1556WN      WN 2056   4.472   2.804   3.120  0.1546  0.0386 -0.0390
 1557WN      WN 2057   1.053   1.245   4.244  0.0205 -0.0685  0.1296
 1558WN      WN 2058   0.763   3.711   5.780 -0.0806  0.0514  0.3421
 1559WN      WN 2059   4.617   1.318   3.792  0.0155 -0.0308 -0.0457
 1560WN      WN 2060   2.951   2.370   4.302  0.2711 -0.0443 -0.0124
 1561WN      WN 2061   5.740   3.996   6.189  0.0686  0.0677  0.4360
 1562WN      WN 2062   0.059   5.272   0.089 -0.2336  0.1932 -0.1604
 1563WN      WN 2063   1.573   4.903   5.779 -0.1005  0.0860  0.0448
 1564WN      WN 2064   5.846   1.995   0.170  0.0170 -0.2297  0.1241
 1565WN      WN 2065   2.603   5.880   3.782 -0.0837  0.0993  0.1082
 1566WN      WN 2066   4.296   2.605   4.662 -0.2644  0.1953  0.0526
 1567WN      WN 2067   4.471   3.962   6.143 -0.1593  0.3079 -0.3446
 1568WN      WN 2068   2.806   0.117   3.485  0.2064 -0.1091  0.0742
 1569WN      WN 2069   2.130   4.058   2.415  0.1269  0.1348 -0.0529
 1570WN      WN 2070   3.050   0.472   2.110 -0.1722 -0.1007 -0.3876
 1571WN      WN 2071   4.578   1.735   4.470 -0.0821  0.3335  0.1462
 1572WN      WN 2072   6.047   5.133   4.114  0.0761  0.0111  0.1172
 1573WN      WN 2073   2.615   2.530   1.786 -0.3371 -0.0435  0.1426
 1574WN      WN 2074   2.514   5.820   5.272 -0.3244 -0.3823  0.1286
 1575WN      WN 2075   4.691   1.907   2.642  0.1603  0.1352 -0.0580
 1576WN      WN 2076   3.858   6.113   0.901 -0.2824  0.2352 -0.0230
 1577WN      WN 2077   1.402   1.112   2.714 -0.0147  0.1655  0.3502
 1578WN      WN 2078   5.078   0.746   1.422 -0.1135 -0.0181  0.0835
 1579WN      WN 2079   0.856   5.214   4.969  0.0792  0.0867 -0.1011
 1580WN      WN 2080   1.557   4.025   0.667 -0.0291  0.0249 -0.1749
 1581WN      WN 2081   3.818   1.998   4.795  0.5210  0.3551 -0.3839
 1582WN      WN 2082   3.737   6.068   1.428  0.2318  0.0049  0.2145
 1583WN      WN 2083   6.413   4.476   5.652  0.0015  0.0373  0.0229
 1584WN      WN 2084   3.996   4.151   5.772  0.2191  0.2013  0.2663
 1585WN      WN 2085   6.016   5.176   0.197 -0.2313  0.1554  0.1359
 1586WN      WN 2086   5.232   3.354   1.122  0.2161  0.1605  0.1049
 1587WN      WN 2087   2.730   6.294   1.536 -0.1274 -0.0063  0.1178
 1588WN      WN 2088   6.331   4.292   4.329 -0.1350  0.0294 -0.0018
 1589WN      WN 2089   4.583   5.028   2.673 -0.3246 -0.1096 -0.0197
 1590WN      WN 2090   5.322   5.388   2.417 -0.1711  0.3943 -0.1349
 1591WN      WN 2091   1.456   6.211   1.521 -0.1710 -0.1892  0.1468
 1592WN      WN 2092   4.097   4.140   0.654  0.2007  0.0201 -0.2116
 1593WN      WN 2093   4.298   5.860   4.603  0.0902  0.0469 -0.3391
 1594WN      WN 2094   3.509   5.543   3.500 -0.2019 -0.0426  0.0497
 1595WN      WN 2095   5.343   4.123   0.873  0.0293 -0.0782 -0.1455
 1596WN      WN 2096   3.243   1.324   3.884  0.0654 -0.3666  0.0446
 1597WN      WN 2097   4.877   1.423   6.226  0.0140  0.0679 -0.2281
 1598WN      WN 2098   3.913   5.877   4.275 -0.1487 -0.0789  0.0159
 1599WN      WN 2099   5.034   1.610   0.588 -0.0279  0.1777 -0.2159
 1600WN      WN 2100   0.830   2.361   2.004 -0.3138 -0.1994  0.1428
 1601WN      WN 2101   3.517   5.720   0.831  0.1868 -0.0718 -0.0031
 1602WN      WN 2102   0.565   0.477   5.588  0.1115 -0.0263 -0.0285
 1603WN      WN 2103   4.022   6.077   2.401  0.1565 -0.0744  0.0734
 1604WN      WN 2104   3.337   0.353   3.230  0.0176  0.2047  0.0845
 1605WN      WN 2105   6.258   0.461   2.061 -0.0649 -0.2254  0.3956
 1606WN      WN 2106   4.438   0.298   6.060 -0.0794 -0.2861  0.0607
 1607WN      WN 2107   5.694   0.022   4.634 -0.2243  0.1314 -0.2149
 1608WN      WN 2108   3.713   1.247   3.587 -0.0459  0.0215 -0.1856
 1609WN      WN 2109   5.186   6.086   0.654  0.0472 -0.2205  0.0616
 1610WN      WN 2110   1.674   1.569   0.787 -0.2370  0.3203  0.2572
 1611WN      WN 2111   6.279   6.522   5.943  0.3880 -0.0793 -0.0941
 1612WN      WN 2112   5.271   3.894   1.343 -0.2034  0.3030  0.0516
 1613WN      WN 2113   4.377   6.507   4.848  0.1373 -0.1420  0.3735
 1614WN      WN 2114   4.439   3.098   0.526  0.0986  0.0560  0.2487
 1615WN      WN 2115   4.159   4.426   2.317 -0.2689  0.0674  0.2625
 1616WN      WN 2116   2.779   4.983   0.483 -0.3021 -0.0544 -0.2103
 1617WN      WN 2117   2.497   3.443   5.931 -0.2270 -0.0833  0.1636
 1618WN      WN 2118   4.275   5.678   3.672 -0.1014 -0.2823  0.2562
 1619WN      WN 2119   0.158   3.555   5.609  0.0294 -0.0648  0.2304
 1620WN      WN 2120   4.228   2.773   2.682 -0.0043  0.0794 -0.2901
 1621WN      WN 2121   1.166   6.299   4.537  0.0265  0.0208  0.0030
 1622WN      WN 2122   5.212   4.237   6.234  0.1079 -0.3211 -0.2656
 1623WN      WN 2123   5.207   4.974   1.432 -0.1693  0.0047 -0.1355
 1624WN      WN 2124   2.317   1.910   5.697 -0.0383 -0.1161 -0.3119
 1625WN      WN 2125   4.158   2.215   1.448  0.3166  0.0024 -0.1805
 1626WN      WN 2126   1.751   4.533   6.070  0.1390  0.0010  0.0461
 1627WN      WN 2127   3.333   0.202   2.564 -0.2944  0.1311 -0.2595
 1628WN      WN 2128   3.400   2.494   6.148 -0.1717  0.0081 -0.0346
 1629WN      WN 2129   1.895   6.479   3.565  0.0910 -0.0748 -0.2142
 1630WN      WN 2130   3.388   4.718   3.712 -0.2638  0.0072  0.1238
 1631WN      WN 2131   2.770   3.462   6.408 -0.1632 -0.0417  0.0814
 1632WN      WN 2132   3.587   1.153   0.639 -0.3671  0.2115 -0.0476
 1633WN      WN 2133   0.183   5.467   5.498 -0.1944 -0.0190 -0.0921
 1634WN      WN 2134   2.823   0.112   0.164  0.0691 -0.1025  0.1404
 1635WN      WN 2135   3.402   6.225   0.765 -0.0605 -0.1309  0.0127
 1636WN      WN 2136   1.475   0.607   0.013 -0.0622  0.2480 -0.3506
 1637WN      WN 2137   2.979   4.210   4.479 -0.1603 -0.1948  0.3997
 1638WN      WN 2138   4.397   1.460   5.450 -0.3937  0.3421 -0.0649
 1639WN      WN 2139   1.722   3.896   1.220 -0.2235 -0.4023  0.0850
 1640WN      WN 2140   4.094   5.580   5.691  0.0903 -0.3577 -0.0743
 1641WN      WN 2141   2.964   6.152   4.404  0.2090  0.0794  0.0804
 1642WN      WN 2142   1.139   4.899   5.240 -0.0037 -0.0049 -0.3287
 1643WN      WN 2143   0.258   0.615   3.535  0.0126 -0.3057 -0.1353
 1644WN      WN 2144   3.755   3.063   3.485  0.1906 -0.1423 -0.1852
 1645WN      WN 2145   2.020   1.926   5.326  0.0962  0.0403  0.2064
 1646WN      WN 2146   1.451   0.604   2.115 -0.0255  0.3085 -0.1995
 1647WN      WN 2147   2.520   4.243   3.329 -0.1842  0.0846  0.1939
 1648WN      WN 2148   3.322   5.949   5.133 -0.0474 -0.2694  0.3695
 1649WN      WN 2149   4.811   4.008   6.483  0.1831  0.1430  0.0542
 1650WN      WN 2150   3.625   2.899   6.499  0.0290  0.0059  0.2019
 1651WN      WN 2151   4.010   2.285   5.314  0.1726 -0.2701 -0.3363
 1652WN      WN 2152   4.436   1.047   2.498  0.3432  0.0063  0.0181
 1653WN      WN 2153   2.325   4.962   1.619 -0.2100 -0.2032 -0.1272
 1654WN      WN 2154   6.046   6.292   3.970  0.3693  0.1885  0.2687
 1655WN      WN 2155   5.219   6.507   6.421 -0.1219 -0.1487  0.1351
 1656WN      WN 2156   4.930   3.715   3.737  0.5299 -0.1804  0.0022
 1657WN      WN 2157   3.350   2.181   1.752 -0.2251 -0.1844 -0.1357
 1658WN      WN 2158   2.577   1.649   6.114  0.1166  0.2813  0.0773
 1659WN      WN 2159   1.588   0.410   4.495  0.2326  0.4675 -0.1887
 1660WN      WN 2160   5.654   4.592   5.437 -0.0021  0.0996  0.1967
 1661WN      WN 2161   1.429   1.073   0.793  0.2668 -0.1925  0.0436
 1662WN      WN 2162   4.297   0.670   5.699  0.1933  0.0206  0.2128
 1663WN      WN 2163   2.319   3.215   6.537  0.0046 -0.0310 -0.1685
 1664WN      WN 2164   1.104   3.991   3.406  0.2647  0.0279  0.1309
 1665WN      WN 2165   3.838   2.405   0.054  0.0272 -0.0415 -0.2540
 1666WN      WN 2166   5.251   4.205   3.221  0.0924 -0.1504 -0.0287
 1667WN      WN 2167   2.104   1.247   4.137 -0.0451 -0.0255  0.1783
 1668WN      WN 2168   0.063   1.438   1.681  0.1140  0.0909 -0.0597
 1669WN      WN 2169   5.996   4.927   5.784 -0.0867 -0.0139 -0.0620
 1670WN      WN 2170   3.659   6.509   1.749  0.0062 -0.1268  0.0247
 1671WN      WN 2171   4.464   0.971   1.915 -0.1288  0.1701 -0.1548
 1672WN      WN 2172   6.206   5.976   5.949  0.1203  0.2482 -0.0059
 1673WN      WN 2173   0.831   5.127   1.363 -0.1243 -0.0119  0.1006
 1674WN      WN 2174   0.196   5.555   0.487 -0.1090 -0.1210  0.2467
 1675WN      WN 2175   3.966   6.177   3.189 -0.0004 -0.2324 -0.1435
 1676WN      WN 2176   1.041   5.557   5.347  0.2292  0.0142  0.2754
 1677WN      WN 2177   4.220   0.114   6.552 -0.1200  0.1041 -0.1586
 1678WN      WN 2178   3.675   0.984   2.055  0.0537  0.0220  0.1105
 1679WN      WN 2179   2.050   0.322   5.866  0.0870 -0.0360  0.3787
 1680WN      WN 2180   0.247   4.948   5.200  0.1360 -0.1956 -0.0337
 1681WN      WN 2181   0.254   6.009   0.779 -0.0451  0.0213 -0.2831
 1682WN      WN 2182   0.984   6.280   6.150 -0.1713  0.1885 -0.0549
 1683WN      WN 2183   3.149   1.290   1.906 -0.3371 -0.0750 -0.2931
 1684WN      WN 2184   0.187   3.425   6.555  0.1551 -0.3421  0.1220
 1685WN      WN 2185   6.492   2.754   1.304 -0.0225 -0.2820 -0.1987
 1686WN      WN 2186   3.789   3.635   1.417 -0.2145  0.1267 -0.0776
 1687WN      WN 2187   6.032   4.588   0.033 -0.0498 -0.1753  0.0038
 1688WN      WN 2188   5.354   0.935   3.295  0.4710  0.1574  0.0741
 1689WN      WN 2189   0.828   1.541   1.324  0.2077  0.1689  0.2020
 1690WN      WN 2190   4.548   0.333   4.670 -0.1119 -0.0623  0.1881
 1691WN      WN 2191   0.263   3.386   4.902  0.0002 -0.4219 -0.2054
 1692WN      WN 2192   6.317   1.527   2.601 -0.1937  0.0327 -0.1736
 1693WN      WN 2193   0.992   0.248   3.215 -0.0626  0.2463 -0.3102
 1694WN      WN 2194   2.159   0.843   4.730 -0.2323  0.0179  0.1747
 1695WN      WN 2195   6.375   4.979   5.454  0.1266  0.0609  0.0164
 1696WN      WN 2196   2.602   3.647   0.312  0.3830  0.3810 -0.1247
 1697WN      WN 2197   5.787   5.991   2.292 -0.2642 -0.2114 -0.0377
 1698WN      WN 2198   2.098   3.887   4.777  0.2917  0.0054 -0.1059
 1699WN      WN 2199   1.853   0.900   3.696 -0.1193 -0.3648  0.2166
 1700WN      WN 2200   1.279   3.308   1.929  0.2038  0.0712  0.0962
 1701WN      WN 2201   2.972   0.822   5.377 -0.0026  0.1160  0.1948
 1702WN      WN 2202   0.238   1.274   3.697 -0.0087  0.2970 -0.2085
 1703WN      WN 2203   4.193   1.884   2.895 -0.0055  0.1921  0.0300
 1704WN      WN 2204   5.367   5.598   5.979 -0.2567 -0.1257  0.0613
 1705WN      WN 2205   5.458   0.112   5.072 -0.1607 -0.1235  0.0763
 1706WN      WN 2206   1.225   0.750   3.015  0.2004 -0.1902 -0.2025
 1707WN      WN 2207   6.216   4.254   5.233  0.4793 -0.1157 -0.0813
 1708WN      WN 2208   4.197   6.412   2.689 -0.1698  0.1763  0.2950
 1709WN      WN 2209   0.348   0.002   0.209  0.0331 -0.1587  0.0525
 1710WN      WN 2210   1.049   5.833   0.492  0.0460  0.2162 -0.3624
 1711WN      WN 2211   4.706   1.421   2.791  0.0837  0.1386  0.0322
 1712WN      WN 2212   0.235   4.082   1.407 -0.2245  0.3068 -0.0999
 1713WN      WN 2213   1.216   5.370   6.143  0.3601 -0.1043 -0.3029
 1714WN      WN 2214   1.063   0.301   4.014 -0.0720 -0.1579 -0.0983
 1715WN      WN 2215   4.976   0.687   4.871 -0.3790 -0.4313  0.0511
 1716WN      WN 2216   6.371   6.192   0.553  0.0801  0.1320 -0.3164
 1717WN      WN 2217   5.460   1.462   2.478 -0.0790 -0.0142  0.3578
 1718WN      WN 2218   5.648   1.157   0.055  0.0257  0.2924 -0.0019
 1719WN      WN 2219   4.228   4.302   6.372  0.1584 -0.0001  0.1878
 1720WN      WN 2220   0.633   1.448   5.097  0.0428  0.1462 -0.1617
 1721WN      WN 2221   3.107   1.839   5.098  0.0287  0.1756  0.0839
 1722WN      WN 2222   4.472   6.402   4.294  0.0281  0.0257 -0.1463
 1723WN      WN 2223   4.955   5.173   3.318 -0.1465 -0.0492  0.0955
 1724WN      WN 2224   1.551   4.282   4.626 -0.2097 -0.2147 -0.1401
 1725WN      WN 2225   3.436   2.386   3.522 -0.0606  0.2576  0.1381
 1726WN      WN 2226   0.583   1.533   0.790 -0.2533  0.0484  0.0075
 1727WN      WN 2227   5.620   3.516   1.446  0.1265 -0.1961  0.3364
 1728WN      WN 2228   5.509   0.908   3.762 -0.0687  0.2355 -0.0751
 1729WN      WN 2229   1.301   6.065   4.965 -0.1044 -0.3669 -0.2459
 1730WN      WN 2230   2.673   1.248   0.971 -0.2194  0.0559 -0.2882
 1731WN      WN 2231   1.106   4.200   3.836 -0.1165 -0.0275 -0.3233
 1732WN      WN 2232   3.659   6.499   2.241  0.1674  0.1786  0.2001
 1733WN      WN 2233   0.330   2.714   4.787 -0.0375 -0.0062  0.0983
 1734WN      WN 2234   5.579   5.089   4.328 -0.2296  0.2252  0.0017
 1735WN      WN 2235   3.140   3.467   5.419 -0.1698  0.1679 -0.1208
 1736WN      WN 2236   5.084   6.149   5.129 -0.1483 -0.0365  0.0889
 1737WN      WN 2237   3.186   2.157   1.252  0.3383  0.0146 -0.0978
 1738WN      WN 2238   4.507   4.375   0.391 -0.0733  0.5549  0.0534
 1739WN      WN 2239   2.557   1.901   3.095 -0.2786 -0.2425  0.2807
 1740WN      WN 2240   3.835   3.395   6.152 -0.1637 -0.0185  0.0170
 1741WN      WN 2241   0.185   2.406   0.557  0.0339 -0.1345  0.0406
 1742WN      WN 2242   2.611   4.957   5.080  0.0919  0.3517  0.1400
 1743WN      WN 2243   1.584   5.971   2.998  0.1754  0.1176 -0.1771
 1744WN      WN 2244   5.037   5.922   1.457 -0.0474  0.0087 -0.0867
 1745WN      WN 2245   0.391   5.149   4.793 -0.0435  0.1046 -0.0084
 1746WN      WN 2246   2.628   3.955   2.266 -0.2216  0.0674 -0.0792
 1747WN      WN 2247   4.102   0.150   4.453 -0.0569  0.0746  0.1235
 1748WN      WN 2248   5.551   5.189   5.834  0.0940  0.1225 -0.0112
 1749WN      WN 2249   2.544   1.767   5.297  0.3492 -0.2880 -0.2762
 1750WN      WN 2250   2.000   6.047   0.012 -0.2332 -0.0209 -0.0230
 1751WN      WN 2251   2.338   1.970   4.902  0.0743  0.0738  0.1125
 1752WN      WN 2252   2.127   6.008   5.530 -0.1549  0.3900 -0.0432
 1753WN      WN 2253   5.359   3.875   4.110  0.2962  0.0477 -0.2048
 1754WN      WN 2254   5.943   0.205   3.657  0.2099 -0.0412  0.3504
 1755WN      WN 2255   3.136   4.168   5.445  0.1069  0.0153  0.1026
 1756WN      WN 2256   2.732   4.343   3.844 -0.1921  0.3935  0.1789
 1757WN      WN 2257   0.273   4.156   2.486  0.4356 -0.2064 -0.3036
 1758WN      WN 2258   2.164   4.534   6.344  0.0618 -0.2100 -0.1347
 1759WN      WN 2259   3.777   4.220   3.179 -0.3115 -0.1158 -0.4710
 1760WN      WN 2260   3.505   4.321   4.124  0.1969 -0.0869 -0.2591
 1761WN      WN 2261   3.376   5.737   0.302 -0.0608 -0.4329 -0.0610
 1762WN      WN 2262   3.835   1.857   5.732 -0.4413  0.2950 -0.1397
 1763WN      WN 2263   4.303   6.033   1.117 -0.1480 -0.2598  0.1579
 1764WN      WN 2264   4.037   3.037   0.180 -0.1798  0.0532 -0.0431
 1765WN      WN 2265   5.617   5.144   1.654  0.1399 -0.1309  0.1741
 1766WN      WN 2266   5.393   4.166   1.802  0.0897  0.2039  0.1369
 1767WN      WN 2267   5.290   1.373   1.991 -0.1588 -0.1261  0.0154
 1768WN      WN 2268   4.787   4.706   3.567 -0.1748 -0.0745 -0.0179
 1769WN      WN 2269   1.549   5.239   5.375 -0.2904  0.1483 -0.0934
 1770WN      WN 2270   3.539   3.984   4.689  0.0837  0.1168 -0.1892
 1771WN      WN 2271   2.083   4.568   1.762  0.0883 -0.0650 -0.2387
 1772WN      WN 2272   4.262   2.673   6.515  0.0428 -0.1708  0.4245
 1773WN      WN 2273   0.102   0.461   1.721 -0.1689  0.1719  0.1620
 1774WN      WN 2274   0.868   5.596   2.386 -0.0356  0.3017 -0.4219
 1775WN      WN 2275   1.965   0.482   0.629 -0.1646 -0.1300  0.1106
 1776WN      WN 2276   0.642   5.203   5.447 -0.1830  0.2863  0.2170
 1777WN      WN 2277   1.255   3.730   5.958 -0.2098  0.0329 -0.1939
 1778WN      WN 2278   6.216   0.285   2.568 -0.1690  0.1087  0.0517
 1779WN      WN 2279   0.746   1.957   4.748 -0.0694 -0.2697 -0.0480
 1780WN      WN 2280   3.426   4.455   4.565  0.0666 -0.0025 -0.0380
 1781WN      WN 2281   2.415   5.942   1.424  0.0663  0.2712 -0.0240
 1782WN      WN 2282   4.297   3.709   2.082  0.1076 -0.0211  0.0493
 1783WN      WN 2283   3.618   2.394   1.397 -0.1396  0.3652 -0.3101
 1784WN      WN 2284   5.532   3.643   0.898 -0.0057  0.0706  0.0616
 1785WN      WN 2285   1.081   0.170   5.855  0.1587  0.1904  0.0984
 1786WN      WN 2286   3.406   1.457   3.255 -0.0306 -0.0571  0.0151
 1787WN      WN 2287   3.313   1.901   2.459  0.1714 -0.2631 -0.0410
 1788WN      WN 2288   6.389   4.259   2.196 -0.1054 -0.1239 -0.1594
 1789WN      WN 2289   2.973   6.515   5.789  0.1148 -0.0847 -0.1186
 1790WN      WN 2290   2.716   5.789   5.774  0.0004  0.1872 -0.0235
 1791WN      WN 2291   1.706   2.473   4.563 -0.1476  0.0784 -0.2067
 1792WN      WN 2292   5.620   5.142   0.659 -0.0158  0.0583  0.0653
 1793WN      WN 2293   1.023   1.741   4.316 -0.2751  0.0612 -0.0127
 1794WN      WN 2294   2.717   1.600   1.837  0.0856  0.1488 -0.1986
 1795WN      WN 2295   5.682   1.720   2.055  0.0269  0.2573  0.3657
 1796WN      WN 2296   4.636   2.468   0.319  0.0893 -0.0738  0.2738
 1797WN      WN 2297   2.223   0.873   1.228 -0.2082  0.1103 -0.1396
 1798WN      WN 2298   3.206   0.118   0.912  0.2496  0.1463  0.1595
 1799WN      WN 2299   2.320   5.180   0.110  0.1089 -0.0770 -0.1147
 1800WN      WN 2300   3.308   5.329   6.561 -0.2800 -0.1157  0.0128
 1801WN      WN 2301   6.270   5.127   2.425  0.2151  0.1503  0.2378
 1802WN      WN 2302   0.479   5.219   2.660 -0.1076  0.0702 -0.0619
 1803WN      WN 2303   3.111   1.753   6.429 -0.1193 -0.1067 -0.2524
 1804WN      WN 2304   4.425   2.217   0.887 -0.0963 -0.1854 -0.1844
 1805WN      WN 2305   0.977   0.827   3.933  0.1750 -0.1752 -0.1660
 1806WN      WN 2306   5.233   6.331   5.537 -0.2786 -0.1620 -0.0102
 1807WN      WN 2307   1.166   3.966   4.288  0.0392 -0.0463  0.1724
 1808WN      WN 2308   4.760   5.924   4.364  0.2208  0.1810 -0.0587
 1809WN      WN 2309   4.576   3.628   3.158  0.1309 -0.0206 -0.2079
 1810WN      WN 2310   0.864   5.230   4.448  0.4020 -0.1076 -0.0796
 1811WN      WN 2311   5.315   5.225   6.244 -0.0049 -0.1727 -0.2968
 1812WN      WN 2312   2.931   5.900   0.665  0.1110 -0.2868 -0.0931
 1813WN      WN 2313   5.078   5.009   4.868  0.1520 -0.5601 -0.0661
 1814WN      WN 2314   4.685   1.478   2.009 -0.1065  0.0132 -0.0551
 1815WN      WN 2315   5.993   3.143   0.574 -0.1433 -0.0115 -0.5348
 1816WN      WN 2316   0.083   6.205   5.794  0.0523 -0.1430 -0.2683
 1817WN      WN 2317   4.960   4.727   3.039 -0.1837  0.2488  0.0250
 1818WN      WN 2318   4.817   2.679   4.523  0.1692 -0.0591 -0.0769
 1819WN      WN 2319   2.951   2.265   6.058 -0.0873 -0.0346  0.0942
 1820WN      WN 2320   4.070   0.838   0.640 -0.0287 -0.1779 -0.0810
 1821WN      WN 2321   5.103   2.263   3.659  0.2826  0.2940  0.2855
 1822WN      WN 2322   4.623   5.156   4.725 -0.1268 -0.0095 -0.4044
 1823WN      WN 2323   3.670   4.873   1.933 -0.1435  0.4221 -0.1074
 1824WN      WN 2324   3.503   3.420   5.769 -0.0015  0.1671  0.0366
 1825WN      WN 2325   4.780   6.307   3.871  0.0864  0.0479  0.3677
 1826WN      WN 2326   5.423   1.626   5.496  0.0037  0.2473  0.0104
 1827WN      WN 2327   2.060   1.508   2.369  0.0527  0.0403  0.0882
 1828WN      WN 2328   1.678   3.063   2.471 -0.2106 -0.3175 -0.1622
 1829WN      WN 2329   5.842   2.156   2.196 -0.1083  0.0239  0.2579
 1830WN      WN 2330   1.170   1.223   3.511  0.0427 -0.3066 -0.1770
 1831WN      WN 2331   0.014   5.886   5.329  0.1346 -0.2727 -0.1040
 1832WN      WN 2332   2.736   6.295   2.833  0.2964 -0.2664 -0.1091
 1833WN      WN 2333   4.888   2.013   4.923  0.1484  0.1191  0.3128
 1834WN      WN 2334   4.461   4.342   0.930  0.2926 -0.0234 -0.0306
 1835WN      WN 2335   5.267   3.407   2.206  0.0475  0.0025  0.1514
 1836WN      WN 2336   5.683   0.009   6.148  0.1049  0.2273 -0.2131
 1837WN      WN 2337   0.266   3.638   1.728 -0.1512 -0.0927 -0.1029
 1838WN      WN 2338   1.703   5.082   4.000  0.1504 -0.2361  0.0757
 1839WN      WN 2339   0.716   3.965   3.126  0.4176 -0.1825  0.2590
 1840WN      WN 2340   3.854   5.830   5.380 -0.0794 -0.0947  0.3015
 1841WN      WN 2341   6.436   4.803   1.974 -0.1204  0.1199  0.0916
 1842WN      WN 2342   4.537   2.371   4.981 -0.0494 -0.1889  0.0056
 1843WN      WN 2343   4.305   0.525   3.344  0.0019 -0.7054  0.0034
 1844WN      WN 2344   6.273   6.019   6.434 -0.0101  0.1156  0.1124
 1845WN      WN 2345   2.281   2.212   3.306  0.3710 -0.3532  0.2156
 1846WN      WN 2346   0.720   3.154   4.901  0.2105  0.2403  0.2346
 1847WN      WN 2347   5.482   0.258   3.253  0.0073  0.1689  0.0568
 1848WN      WN 2348   3.295   2.424   5.670  0.1760  0.1764  0.1706
 1849WN      WN 2349   1.403   2.203   2.352 -0.1352  0.6453 -0.2412
 1850WN      WN 2350   1.776   3.351   1.142  0.1649  0.0038  0.0456
 1851WN      WN 2351   4.010   0.464   5.348  0.3138  0.3004 -0.3186
 1852WN      WN 2352   2.133   5.733   3.846  0.1037 -0.1010 -0.3128
 1853WN      WN 2353   3.769   2.100   4.144  0.0531 -0.1496  0.0036
 1854WN      WN 2354   4.560   6.462   3.143  0.0425  0.2641  0.1572
 1855WN      WN 2355   6.513   1.541   4.854 -0.2138 -0.1949 -0.4186
 1856WN      WN 2356   1.854   4.850   0.222  0.2384  0.2098  0.2212
 1857WN      WN 2357   0.723   1.867   1.812  0.0770  0.1364 -0.1082
 1858WN      WN 2358   3.824   3.646   4.194 -0.1260 -0.0048 -0.3291
 1859WN      WN 2359   4.088   0.063   3.428 -0.3230  0.0609 -0.0307
 1860WN      WN 2360   3.209   5.704   4.726  0.0761  0.2104 -0.6314
 1861WN      WN 2361   4.267   0.237   0.603  0.0654 -0.2257 -0.0993
 1862WN      WN 2362   1.751   1.037   1.395  0.0047  0.2167  0.0487
 1863WN      WN 2363   2.306   1.188   3.688  0.2112 -0.0578  0.2257
 1864WN      WN 2364   6.455   5.572   2.567  0.1115 -0.4267 -0.1874
 1865WN      WN 2365   2.586   3.791   0.974 -0.0795 -0.0642 -0.2223
 1866WN      WN 2366   1.950   3.810   3.899  0.2121 -0.0176 -0.1156
 1867WN      WN 2367   1.328   5.721   3.410 -0.1882  0.0893  0.1072
 1868WN      WN 2368   3.035   3.129   1.944 -0.1310  0.2657  0.1198
 1869WN      WN 2369   0.810   5.022   3.037  0.3285 -0.1147 -0.1932
 1870WN      WN 2370   4.417   3.855   5.629  0.3055 -0.2617  0.1863
 1871WN      WN 2371   0.746   4.508   3.138 -0.0622  0.2606 -0.1841
 1872WN      WN 2372   4.016   0.461   0.295 -0.1151  0.0888  0.3703
 1873WN      WN 2373   5.957   4.385   4.773  0.0416 -0.3208 -0.0254
 1874WN      WN 2374   4.111   1.526   0.711 -0.0143 -0.0754  0.2510
 1875WN      WN 2375   5.380   6.132   0.119  0.1593  0.2051  0.3113
 1876WN      WN 2376   3.667   2.399   2.680 -0.0154  0.2113  0.0044
 1877WN      WN 2377   0.434   5.821   3.904  0.1545 -0.3397 -0.1150
 1878WN      WN 2378   1.962   4.312   0.240  0.2635  0.1723 -0.2495
 1879WN      WN 2379   3.430   3.333   4.343 -0.0451 -0.0194  0.0350
 1880WN      WN 2380   5.053   5.537   4.749 -0.3662 -0.3332 -0.0938
 1881WN      WN 2381   4.903   2.990   5.790 -0.0678 -0.2071  0.0861
 1882WN      WN 2382   1.970   0.961   1.845  0.0224 -0.0446  0.1278
 1883WN      WN 2383   3.475   3.443   3.762  0.4025 -0.2854  0.0915
 1884WN      WN 2384   5.595   0.598   1.394 -0.2557 -0.2147 -0.0452
 1885WN      WN 2385   4.687   3.998   2.867  0.0647 -0.0375  0.3114
 1886WN      WN 2386   4.094   3.496   0.576  0.0388 -0.1421  0.0547
 1887WN      WN 2387   3.002   3.759   3.689  0.0977  0.0325 -0.0821
 1888WN      WN 2388   5.389   3.812   3.599 -0.0625  0.1046 -0.3209
 1889WN      WN 2389   2.514   4.913   6.187 -0.0132 -0.3389 -0.2494
 1890WN      WN 2390   5.374   3.039   2.983 -0.0903  0.2938  0.0969
 1891WN      WN 2391   1.838   2.809   4.867 -0.0746 -0.2241  0.0285
 1892WN      WN 2392   5.834   3.787   3.972 -0.0138  0.0462 -0.0272
 1893WN      WN 2393   2.155   1.461   5.412  0.0832  0.0324  0.0598
 1894WN      WN 2394   1.152   1.574   0.950 -0.0480 -0.1469  0.3637
 1895WN      WN 2395   2.105   1.817   6.216 -0.2251  0.0398  0.2458
 1896WN      WN 2396   3.685   0.851   0.206 -0.2060  0.1760  0.4118
 1897WN      WN 2397   5.315   3.853   6.484 -0.1939  0.2937  0.1172
 1898WN      WN 2398   4.065   4.469   0.216  0.0655 -0.0045  0.3927
 1899WN      WN 2399   5.672   3.659   5.830  0.1295  0.1822 -0.1482
 1900WN      WN 2400   2.836   1.596   3.475 -0.1891 -0.2005 -0.0361
 1901WN      WN 2401   5.075   4.829   2.406 -0.3090 -0.2450  0.0922
 1902WN      WN 2402   1.619   5.486   5.785 -0.1243 -0.1667 -0.0432
 1903WN      WN 2403   1.595   1.508   5.247  0.1462  0.0830  0.3335
 1904WN      WN 2404   6.392   2.476   2.179 -0.0987  0.2189  0.1461
 1905WN      WN 2405   0.386   1.058   3.137  0.1367 -0.1735  0.0408
 1906WN      WN 2406   1.720   3.000   0.278  0.1161 -0.1092 -0.0475
 1907WN      WN 2407   3.130   2.640   1.889  0.1248  0.3939  0.3009
 1908WN      WN 2408   2.573   4.460   4.346 -0.2998  0.1142 -0.3545
 1909WN      WN 2409   6.437   5.363   4.445  0.1195 -0.0088  0.4280
 1910WN      WN 2410   0.971   6.049   3.191 -0.1563  0.2233 -0.0177
 1911WN      WN 2411   1.902   0.177   3.972  0.0662 -0.3376 -0.1641
 1912WN      WN 2412   0.188   0.629   3.031  0.1895  0.0211 -0.2965
 1913WN      WN 2413   6.344   1.221   3.999  0.1126  0.2058 -0.1209
 1914WN      WN 2414   3.818   1.855   0.133  0.0817  0.0996 -0.0095
 1915WN      WN 2415   1.409   1.624   2.845  0.1537  0.0224  0.2423
 1916WN      WN 2416   0.784   0.087   0.471 -0.2439  0.0422 -0.1197
 1917WN      WN 2417   6.126   4.648   2.348 -0.1248  0.1010  0.0785
 1918WN      WN 2418   4.653   0.510   2.477 -0.0653  0.1504 -0.2702
 1919WN      WN 2419   6.416   4.363   2.746  0.0517 -0.0572  0.3616
 1920WN      WN 2420   3.398   5.585   4.221  0.1195 -0.1051 -0.2855
 1921WN      WN 2421   5.656   2.474   5.570 -0.2626 -0.0375  0.2244
 1922WN      WN 2422   5.091   1.356   3.609 -0.0440  0.0108  0.1598
 1923WN      WN 2423   2.855   5.572   0.034 -0.1075  0.4045 -0.2329
 1924WN      WN 2424   5.071   5.091   3.872 -0.0370  0.2297  0.1898
 1925WN      WN 2425   4.147   1.265   4.879  0.1050  0.0059  0.0408
 1926WN      WN 2426   2.449   2.517   2.991  0.0604  0.1258  0.1281
 1927WN      WN 2427   3.965   6.255   4.571 -0.0431 -0.3141 -0.1122
 1928WN      WN 2428   2.755   0.653   2.483  0.2559 -0.0159  0.1194
 1929WN      WN 2429   3.621   0.647   2.374 -0.2416  0.0842  0.0362
 1930WN      WN 2430   1.261   3.490   2.360 -0.0649 -0.0672 -0.0998
 1931WN      WN 2431   2.538   6.289   4.617  0.2493 -0.1900  0.0416
 1932WN      WN 2432   3.745   2.102   6.221  0.1220 -0.0072  0.0812
 1933WN      WN 2433   4.328   2.663   5.640  0.1288 -0.1440 -0.0510
 1934WN      WN 2434   4.094   5.153   4.433  0.0824 -0.0708  0.2914
 1935WN      WN 2435   3.800   5.377   3.944  0.1129  0.1008 -0.3852
 1936WN      WN 2436   5.500   0.360   3.766 -0.0683  0.4671  0.2731
 1937WN      WN 2437   3.090   0.078   1.468  0.0205 -0.3590  0.0183
 1938WN      WN 2438   1.360   4.209   6.041 -0.0653  0.1028  0.0815
 1939WN      WN 2439   6.262   3.543   3.913  0.1325 -0.1629 -0.1734
 1940WN      WN 2440   3.921   4.733   6.412  0.0600  0.1551  0.1742
 1941WN      WN 2441   2.792   0.058   4.378  0.0531 -0.0359  0.0816
 1942WN      WN 2442   5.839   2.710   2.301 -0.2749  0.2001  0.2825
 1943WN      WN 2443   6.280   5.780   4.853  0.1623 -0.2957 -0.1109
 1944WN      WN 2444   0.465   1.889   1.351 -0.0512 -0.0529 -0.2809
 1945WN      WN 2445   5.179   2.322   4.639 -0.0275 -0.1685 -0.2125
 1946WN      WN 2446   2.450   2.496   4.295  0.1627  0.1856 -0.2770
 1947WN      WN 2447   1.922   5.034   1.944 -0.1027  0.3755 -0.3516
 1948WN      WN 2448   0.766   5.820   1.997 -0.0960 -0.0463 -0.0344
 1949WN      WN 2449   2.732   5.053   1.324  0.1956  0.0147  0.0802
 1950WN      WN 2450   2.988   4.693   5.398  0.4277 -0.1750  0.0703
 1951WN      WN 2451   6.431   3.908   1.729  0.1041  0.0446 -0.2064
 1952WN      WN 2452   3.429   5.447   5.076  0.1682  0.2777 -0.0824
 1953WN      WN 2453   3.212   6.445   2.987  0.1660  0.2974 -0.2180
 1954WN      WN 2454   4.924   5.331   0.208 -0.0479  0.2412 -0.1920
 1955WN      WN 2455   2.173   0.857   3.267 -0.0779  0.2158  0.0584
 1956WN      WN 2456   5.452   5.681   5.007 -0.1020 -0.1613  0.2522
 1957WN      WN 2457   1.557   5.812   6.238  0.0363  0.3286  0.5315
 1958WN      WN 2458   4.299   0.315   2.871 -0.1781  0.0834  0.0591
 1959WN      WN 2459   5.575   2.094   2.887 -0.1154  0.1651  0.4370
 1960WN      WN 2460   3.849   0.958   5.765 -0.1482 -0.1074  0.0577
 1961WN      WN 2461   0.126   0.495   0.138  0.2211  0.4604  0.0980
 1962WN      WN 2462   1.687   0.156   0.882 -0.2481 -0.0092  0.2211
 1963WN      WN 2463   2.550   1.074   4.509  0.0546 -0.1499 -0.1657
 1964WN      WN 2464   4.532   5.371   5.722  0.2105  0.2733  0.2456
 1965WN      WN 2465   2.290   6.533   0.185 -0.0554  0.1838 -0.0521
 1966WN      WN 2466   6.082   2.802   1.622  0.0794  0.4353  0.1588
 1967WN      WN 2467   0.979   5.362   0.316  0.0469  0.0391 -0.2126
 1968WN      WN 2468   1.966   3.437   1.619 -0.1044 -0.0168  0.0382
 1969WN      WN 2469   2.795   3.934   4.133  0.1707 -0.0323 -0.0437
 1970WN      WN 2470   2.212   5.837   4.906  0.0709  0.1407 -0.2661
 1971WN      WN 2471   6.108   0.760   2.702  0.0272  0.2587  0.0505
 1972WN      WN 2472   3.937   5.624   1.053  0.0754  0.4734  0.1277
 1973WN      WN 2473   4.185   4.268   2.799  0.0240 -0.0924  0.0316
 1974WN      WN 2474   5.132   6.115   3.450 -0.1179 -0.1677  0.1480
 1975WN      WN 2475   4.132   0.964   3.555  0.0224 -0.2737  0.0005
 1976WN      WN 2476   2.924   5.422   2.912  0.4076 -0.1221 -0.2005
 1977WN      WN 2477   5.825   4.996   2.685 -0.0237  0.1148  0.3992
 1978WN      WN 2478   5.963   5.356   1.425 -0.1731  0.0931 -0.0103
 1979WN      WN 2479   2.479   5.720   2.769 -0.0169 -0.1441  0.2034
 1980WN      WN 2480   4.133   1.885   1.093  0.0732 -0.0478 -0.3469
 1981WN      WN 2481   4.655   2.493   1.331 -0.3520  0.0372 -0.0290
 1982WN      WN 2482   5.275   2.889   0.963 -0.1521 -0.0573  0.1386
 1983WN      WN 2483   5.961   1.499   3.816  0.2648 -0.0079 -0.0343
 1984WN      WN 2484   6.262   6.275   3.480  0.2217 -0.2668 -0.0638
 1985WN      WN 2485   1.672   4.976   0.849  0.0915  0.0704  0.0989
 1986WN      WN 2486   6.200   1.403   3.212  0.4688 -0.0728 -0.0911
 1987WN      WN 2487   4.513   5.761   6.482 -0.1860  0.5055 -0.3513
 1988WN      WN 2488   5.454   0.417   6.354  0.1875 -0.2782  0.0209
 1989WN      WN 2489   4.670   5.057   1.616  0.2040  0.1087  0.2974
 1990WN      WN 2490   3.901   1.346   0.141  0.1086  0.2507 -0.3982
 1991WN      WN 2491   2.774   2.068   1.683 -0.1151  0.1498 -0.0705
 1992WN      WN 2492   5.061   6.016   6.012 -0.3427  0.3327 -0.5374
 1993WN      WN 2493   2.701   1.823   3.985 -0.2704 -0.3112 -0.1072
 1994WN      WN 2494   4.882   5.408   6.032 -0.3874  0.2331  0.1322
 1995WN      WN 2495   1.325   2.620   0.299 -0.2314 -0.1251 -0.3179
 1996WN      WN 2496   5.549   6.134   4.250 -0.2892  0.2278  0.1875
 1997WN      WN 2497   3.467   3.926   3.486 -0.0631 -0.1939 -0.1092
 1998WN      WN 2498   6.503   5.003   3.839 -0.2854 -0.2752 -0.3397
 1999WN      WN 2499   4.899   1.728   5.782 -0.2114 -0.3038  0.0594
 2000WN      WN 2500   3.834   0.362   0.902  0.0850  0.2627 -0.4153
 2001WN      WN 2501   2.551   2.648   1.283  0.2756 -0.4024 -0.1649
 2002WN      WN 2502   5.322   2.374   5.155  0.0531  0.0501 -0.0851
 2003WN      WN 2503   5.196   4.846   0.429  0.1798  0.0607 -0.2466
 2004WN      WN 2504   4.132   0.639   4.304  0.1990  0.1275 -0.3695
 2005WN      WN 2505   3.719   4.370   2.069 -0.1031  0.0459 -0.1522
 2006WN      WN 2506   1.119   3.513   4.641  0.0732  0.0546 -0.2297
 2007WN      WN 2507   1.634   0.201   0.278  0.3413  0.3482 -0.0273
 2008WN      WN 2508   6.130   4.034   0.185 -0.0188 -0.0256  0.2515
 2009WN      WN 2509   1.228   4.151   2.965  0.0361  0.3951  0.1489
 2010WN      WN 2510   1.017   1.411   5.478  0.2347  0.0219  0.1141
 2011WN      WN 2511   1.348   2.783   2.100 -0.0234  0.1583  0.0933
 2012WN      WN 2512   4.907   2.943   0.167  0.0523  0.1834 -0.1812
 2013WN      WN 2513   4.913   1.133   1.727  0.2014  0.1862 -0.0827
 2014WN      WN 2514   0.151   6.067   0.148  0.0459 -0.1527  0.2798
 2015WN      WN 2515   3.551   5.224   0.953  0.0783 -0.4133  0.2643
 2016WN      WN 2516   0.188   1.401   2.180  0.0325 -0.2045 -0.1103
 2017WN      WN 2517   1.113   3.932   1.493 -0.1322 -0.3371 -0.1188
 2018WN      WN 2518   5.785   1.475   4.291 -0.1385  0.0057  0.1000
 2019WN      WN 2519   3.476   2.417   2.155 -0.1052 -0.0969 -0.1607
 2020WN      WN 2520   3.338   1.717   4.671 -0.0404 -0.1314 -0.1006
 2021WN      WN 2521   1.463   5.458   4.248  0.1551 -0.2051 -0.0985
 2022WN      WN 2522   3.244   5.022   6.105  0.1283  0.2592  0.1604
 2023WN      WN 2523   4.335   3.510   4.693  0.0719 -0.0745 -0.2419
 2024WN      WN 2524   1.852   2.498   0.702  0.0099  0.0830 -0.2994
 2025WN      WN 2525   5.336   3.794   0.454 -0.1205 -0.1214  0.0123
 2026WN      WN 2526   1.486   5.669   1.735 -0.5542  0.0693 -0.1400
 2027WN      WN 2527   2.879   4.315   1.880 -0.1145  0.0787  0.0717
 2028WN      WN 2528   2.452   5.824   6.398 -0.2804  0.0294  0.1976
 2029WN      WN 2529   2.287   6.101   3.052 -0.0984  0.2860 -0.1712
 2030WN      WN 2530   2.192   0.457   0.166  0.1422 -0.1996  0.0932
 2031WN      WN 2531   4.404   4.975   3.257 -0.2969  0.0451 -0.2553
 2032WN      WN 2532   2.713   1.339   3.973 -0.3890 -0.4680  0.1881
 2033WN      WN 2533   5.664   3.559   4.801  0.0456  0.1179  0.1419
 2034WN      WN 2534   5.065   1.327   3.090 -0.0562 -0.2175 -0.0323
 2035WN      WN 2535   2.562   4.045   4.627 -0.1444 -0.1083 -0.0609
 2036WN      WN 2536   3.277   0.932   1.184 -0.1087 -0.1159 -0.1259
 2037WN      WN 2537   0.021   6.144   3.972  0.2025  0.0843 -0.0232
 2038WN      WN 2538   4.668   3.845   1.297 -0.1619  0.1527 -0.1364
 2039WN      WN 2539   6.394   5.273   5.843 -0.3277  0.2787 -0.1593
 2040WN      WN 2540   5.405   2.008   5.811  0.3284 -0.2266  0.3705
   6.56729   6.56729   6.56729
