[ moleculetype ]
; molname        nrexcl
MAG               1


[ atoms ]
; id type   resnr  residue  atom  cgnr    charge

1      C4     1      MAG     PA1   1      0.00000
2     TC5     1      MAG     PA2   2      0.00000
3     SP1     1      MAG     PA3   3      0.00000
4     TC5     1      MAG     PA4   4      0.00000
5     TC5     1      MAG     PA5   5      0.00000
6     SP1     1      MAG     PA6   6      0.00000
7     TC5     1      MAG     PA7   7      0.00000
8      C4     1      MAG     PA8   8      0.00000

[ bonds ]
;   i     j   funct      length       force

; bond group 1
    4     5       1        0           0  ; 

; bond group 2
    1     2       1        0           0  ; 

; bond group 3
    7     8       1        0           0  ; 

; bond group 4
    2     4       1        0            0 ; 

; bond group 5
    7     5       1        0            0 ; 
	
; bond group 6
    3     4       1        0            0 ; 

; bond group 7
    5     6       1        0            0 ; 
	
; bond group 8
    2     3       1        0            0 ; 
	
; bond group 9	
    7     6       1        0            0 ; 



[ angles ]
;   i     j     k       funct     angle   force.c.

; angle group 1
    1     2     3         2       0         0           ; 
	
; angle group 2
	8     7     6         2       0         0           ; 
	
; angle group 3
    1     2     4         2       0         0           ; 

; angle group 4
    8     7     5         2       0         0           ; 
	
; angle group 5
    2     4     5         2       0         0           ; 

; angle group 6
    7     5     4         2       0         0           ; 


[ dihedrals ]
;   i     j     k    l   funct     angle   force.c.

; dihedral group 1
    2     3    4    5     1       0         0     1           ; 
	
; dihedral group 2
    3     4     2    1     1       0         0      1     ; 
 ; dihedral group 3
    5     6     7    8     1       0         0      1     ; 
