[ moleculetype ]
; molname       nrexcl
GA3H                1

[ atoms ]
;id type resnr    residu  atom  cgnr   charge  mass
 1   SN0    1     GA3H     O1     1      0      92
 2   SC2    1     GA3H     R2     2      0       0
 3   SC2    1     GA3H     R3     3      0      72
 4   SC2    1     GA3H     R4     4      0       0
 5   SNa    1     GA3H     O5     5      0     134
 6   SC2    1     GA3H     R6     6      0       0
 7   SC2    1     GA3H     R7     7      0       0
 8   SC2    1     GA3H     R8     8      0      72
 9    P3    1     GA3H     O9     9      0      72
10    P1    1     GA3H     B1    10      0      44
11    P3    1     GA3H     B2    11      0      69
12    P4    1     GA3H     B3    12      0      58
13    P4    1     GA3H     B4    13      0      57
14    P3    1     GA3H     B5    14      0      73
15    P4    1     GA3H     B6    15      0      58



[ bonds ]
;   i     j   funct   length   force.c.

; bond type 1
    1       2       1     0          0         ; 1

; bond type 2
    2       3       1     0          0         ; 2

; bond type 3
    3       5       1     0          0         ; 3

; bond type 4
    5       7       1     0          0         ; 4

; bond type 5
    7       8       1     0          0         ; 5

; bond type 6
    8       9       1     0          0         ; 6

; bond type 7
    10     11       1     0          0         ; 7

; bond type 8
    12     11       1     0          0         ; 8

; bond type 9
    10     12       1     0          0         ; 9

; bond type 10
    10     13       1     0          0         ; 10

; bond type 11
    13     14       1     0          0         ; 11

; bond type 12
    13     15       1     0          0         ; 12

; bond type 13
    14     15       1     0          0         ; 13


[angles]
;  i     j     k     funct   angle    force.c.

; angle group 1
    7      8     9       2       0        0 

; angle group 2
   10      1     2       2       0        0 

; angle group 3
   11     10    13       2       0        0 

; angle group 4
   10     13    15       2       0        0 

; angle group 5
   12     10    13       2       0        0 

; angle group 6
   14     15    13       2       0        0 

[ virtual_sites3 ]
; OUT-OF-PLANE BEADS from the 1,4,5 frame (beads 2 and 3)
  2  3  1  5   4   0   0   0
  4  3  1  5   4   0   0   0
; OUT-OF-PLANE BEADS from the 8,4,5 frame (beads 6 and 7)
  6  5  8  4   4   0   0   0
  7  5  8  4   4   0   0   0


[dihedrals]
;  i     j     k     l   funct     angle   force.c.

; dihedral group 1
   6     7     8       9     2           0      0

; dihedral group 2
   1     4     5       8     2           0      0

; dihedral group 3
   11    10     13     14     2           0      0

; dihedral group 4
   12    10     13     15     2           0      0

; dihedral group 5
   11    12     10     13    2           0      0
