[ moleculetype ]
; molname        nrexcl
LIG              1


[ atoms ]
; id type resnr residue   atom  cgnr    charge     mass

1     SC4     1     LIG    PA1  1      0.00000     72.00
2     SNa     1     LIG    PA2  2      0.00000     72.00
3     SNa     1     LIG    PA3  3      0.00000     72.00
4     SC4     1     LIG    PA4  4      0.00000     72.00


[ constraints ]
;   i     j   funct   length

; constraint type 1
    1     4       1    0.436      ; 1

; constraint type 2
    2     3       1    0.344      ; 2


[ bonds ]
;   i     j   funct   length   force.c.

; bond type 1
    1     2       1    0.304  9377.69           ; 1
    3     4       1    0.304  9377.69           ; 1

; bond type 2
    1     3       1    0.249  8714.21           ; 2
    2     4       1    0.249  8714.21           ; 2


[ angles ]
;   i     j     k   funct     angle   force.c.

; angle type 1
    3     1     2       2     78.94    602.27           ; 1
    3     4     2       2     78.94    602.27           ; 1

; angle type 2
    1     2     4       2    104.16    606.54           ; 2
    1     3     4       2    104.16    606.54           ; 2


[ dihedrals ]
;   i     j     k     l   funct     dihedral   force.c.   mult.

; dihedral type 1
    1     3     4     2       2         0.21   20.12            ; 1

; dihedral type 2
    1     3     2     4       2         0.06   -8.55            ; 2
    1     2     3     4       2         0.06   -8.55            ; 2


