LIG
  504
    1LIG    PA1    1   4.398   2.920   2.370
    1LIG    PA2    2   4.510   3.041   2.113
    1LIG    PA3    3   4.320   2.784   2.177
    1LIG    PA4    4   4.576   2.824   2.014
    2W        W    5   3.295   3.303   2.679
    3W        W    6   1.296   1.446   1.188
    4W        W    7   0.811   1.294   1.352
    5W        W    8   1.802   2.109   0.786
    6W        W    9   0.126   0.762   3.104
    7W        W   10   2.582   0.430   1.793
    8W        W   11   2.231   1.301   0.363
    9W        W   12   1.788   2.536   0.332
   10W        W   13   0.220   1.319   2.025
   11W        W   14   3.572   1.069   1.761
   12W        W   15   3.336   2.112   2.620
   13W        W   16   1.644   1.445   1.647
   14W        W   17   2.190   2.784   2.016
   15W        W   18   0.690   2.218   2.248
   16W        W   19   0.049   1.746   1.819
   17W        W   20   1.085   1.718   3.011
   18W        W   21   3.356   1.501   3.265
   19W        W   22   1.313   1.274   2.069
   20W        W   23   2.602   2.831   3.560
   21W        W   24   1.681   2.151   3.570
   22W        W   25   1.662   1.867   3.048
   23W        W   26   0.071   1.258   3.570
   24W        W   27   2.903   2.793   3.169
   25W        W   28   0.484   0.375   1.167
   26W        W   29   1.011   2.633   2.166
   27W        W   30   3.172   0.769   0.118
   28W        W   31   3.637   1.570   2.424
   29W        W   32   3.378   2.743   0.615
   30W        W   33   0.900   3.575   1.045
   31W        W   34   0.697   0.329   2.471
   32W        W   35   2.305   3.018   2.565
   33W        W   36   2.078   0.467   1.003
   34W        W   37   2.892   1.267   1.759
   35W        W   38   0.106   3.018   2.172
   36W        W   39   0.897   2.590   2.652
   37W        W   40   1.292   0.355   2.364
   38W        W   41   3.521   0.117   1.661
   39W        W   42   0.395   1.022   0.308
   40W        W   43   2.920   3.320   3.064
   41W        W   44   1.846   0.962   0.748
   42W        W   45   3.229   3.360   1.520
   43W        W   46   2.906   1.213   3.118
   44W        W   47   2.246   2.161   2.736
   45W        W   48   0.012   1.712   0.942
   46W        W   49   1.123   2.127   2.515
   47W        W   50   2.193   0.775   0.454
   48W        W   51   3.376   3.168   3.208
   49W        W   52   3.362   2.550   3.369
   50W        W   53   2.985   1.789   3.639
   51W        W   54   0.952   0.366   3.275
   52W        W   55   3.371   1.332   0.901
   53W        W   56   1.114   3.549   3.372
   54W        W   57   2.335   0.658   0.019
   55W        W   58   3.469   2.990   1.739
   56W        W   59   2.145   3.302   1.338
   57W        W   60   3.339   0.899   2.210
   58W        W   61   1.976   3.246   2.977
   59W        W   62   1.754   1.788   1.243
   60W        W   63   3.606   0.299   2.984
   61W        W   64   1.755   2.134   2.578
   62W        W   65   2.824   1.318   0.861
   63W        W   66   3.111   1.051   0.503
   64W        W   67   2.650   1.773   0.666
   65W        W   68   2.964   1.771   1.719
   66W        W   69   0.339   0.786   2.143
   67W        W   70   1.398   2.900   1.518
   68W        W   71   2.405   3.433   2.842
   69W        W   72   2.399   0.763   2.606
   70W        W   73   1.606   3.471   2.667
   71W        W   74   3.303   0.425   1.133
   72W        W   75   3.094   1.744   2.434
   73W        W   76   2.233   2.710   1.485
   74W        W   77   0.604   0.481   0.356
   75W        W   78   1.764   2.350   3.078
   76W        W   79   2.670   3.587   1.824
   77W        W   80   2.082   3.235   2.164
   78W        W   81   1.478   2.272   2.125
   79W        W   82   1.464   2.795   1.980
   80W        W   83   2.596   0.201   2.309
   81W        W   84   0.016   2.044   2.194
   82W        W   85   1.720   1.862   0.352
   83W        W   86   0.988   0.177   0.122
   84W        W   87   2.696   0.234   2.872
   85W        W   88   2.088   2.028   3.198
   86W        W   89   1.955   2.155   2.101
   87W        W   90   2.097   0.550   1.561
   88W        W   91   0.070   3.417   2.860
   89W        W   92   0.487   2.643   2.392
   90W        W   93   0.054   3.489   0.624
   91W        W   94   1.953   0.759   2.430
   92W        W   95   1.316   2.782   0.279
   93W        W   96   2.196   1.817   0.479
   94W        W   97   1.871   0.918   0.048
   95W        W   98   2.808   0.389   0.843
   96W        W   99   0.138   0.237   0.291
   97W        W  100   1.424   2.556   2.581
   98W        W  101   0.710   1.735   3.281
   99W        W  102   1.414   0.295   3.467
  100W        W  103   1.318   0.205   1.104
  101W        W  104   0.370   1.177   1.556
  102W        W  105   1.854   1.004   2.836
  103W        W  106   0.788   2.083   2.875
  104W        W  107   2.146   1.481   2.054
  105W        W  108   2.013   3.560   0.350
  106W        W  109   0.894   2.478   3.173
  107W        W  110   2.897   3.551   0.331
  108W        W  111   2.074   1.541   3.473
  109W        W  112   0.404   2.508   3.513
  110W        W  113   3.610   0.430   3.465
  111W        W  114   3.328   1.358   2.086
  112W        W  115   1.636   3.488   3.563
  113W        W  116   1.491   0.117   0.290
  114W        W  117   3.030   2.716   0.233
  115W        W  118   0.799   0.809   3.119
  116W        W  119   1.233   2.803   2.981
  117W        W  120   2.570   3.453   0.747
  118W        W  121   2.809   2.072   2.114
  119W        W  122   1.059   0.488   2.781
  120W        W  123   1.031   2.736   0.732
  121W        W  124   0.554   0.860   2.720
  122W        W  125   3.633   1.482   1.365
  123W        W  126   2.635   2.820   2.163
  124W        W  127   0.167   2.858   3.141
  125W        W  128   0.910   0.850   2.379
  126W        W  129   0.880   0.198   1.489
  127W        W  130   1.299   2.211   0.381
  128W        W  131   3.297   2.153   1.880
  129W        W  132   0.624   2.911   3.303
  130W        W  133   0.879   2.106   1.635
  131W        W  134   2.418   1.801   2.350
  132W        W  135   3.401   3.257   0.962
  133W        W  136   3.083   2.902   1.442
  134W        W  137   3.112   1.458   1.347
  135W        W  138   1.474   1.393   2.887
  136W        W  139   2.585   2.546   2.750
  137W        W  140   0.531   3.425   3.112
  138W        W  141   2.381   1.705   2.971
  139W        W  142   0.832   1.705   2.544
  140W        W  143   3.042   3.593   2.373
  141W        W  144   0.836   1.400   2.007
  142W        W  145   0.008   2.973   2.674
  143W        W  146   1.593   1.682   2.117
  144W        W  147   0.322   3.375   2.440
  145W        W  148   2.648   2.726   1.197
  146W        W  149   2.732   2.589   0.681
  147W        W  150   1.634   1.647   0.766
  148W        W  151   2.821   0.451   0.289
  149W        W  152   1.675   0.589   1.992
  150W        W  153   3.555   0.487   2.064
  151W        W  154   0.518   0.121   3.529
  152W        W  155   2.041   3.640   2.513
  153W        W  156   2.898   2.362   3.550
  154W        W  157   1.713   0.072   0.830
  155W        W  158   2.426   0.941   1.689
  156W        W  159   2.163   0.955   1.225
  157W        W  160   2.368   2.365   2.347
  158W        W  161   0.522   2.970   2.782
  159W        W  162   2.439   3.000   3.081
  160W        W  163   0.779   3.290   2.545
  161W        W  164   3.524   3.407   0.146
  162W        W  165   2.382   2.341   1.830
  163W        W  166   0.818   1.990   1.072
  164W        W  167   1.189   2.997   2.467
  165W        W  168   0.178   2.400   0.438
  166W        W  169   1.697   1.351   0.308
  167W        W  170   3.305   0.251   0.218
  168W        W  171   3.616   2.224   0.954
  169W        W  172   1.171   0.197   1.888
  170W        W  173   0.402   2.001   0.729
  171W        W  174   0.287   0.544   1.728
  172W        W  175   0.087   0.363   0.805
  173W        W  176   2.751   1.569   2.732
  174W        W  177   2.628   0.955   0.304
  175W        W  178   1.806   3.111   1.783
  176W        W  179   1.218   3.215   0.694
  177W        W  180   0.300   3.378   1.865
  178W        W  181   2.497   1.136   3.500
  179W        W  182   0.480   0.666   3.499
  180W        W  183   0.211   1.266   0.832
  181W        W  184   1.008   1.863   2.083
  182W        W  185   2.482   0.149   1.203
  183W        W  186   3.573   0.024   1.141
  184W        W  187   3.427   0.996   1.294
  185W        W  188   2.119   2.166   0.171
  186W        W  189   3.055   2.366   2.919
  187W        W  190   1.324   0.742   3.292
  188W        W  191   3.236   2.821   2.810
  189W        W  192   2.336   0.771   3.187
  190W        W  193   0.180   1.242   2.964
  191W        W  194   2.761   2.060   2.587
  192W        W  195   2.533   3.440   3.398
  193W        W  196   2.429   1.179   2.951
  194W        W  197   1.708   2.953   2.679
  195W        W  198   2.048   2.551   3.504
  196W        W  199   0.653   2.504   1.843
  197W        W  200   2.999   2.263   1.488
  198W        W  201   2.640   3.329   2.239
  199W        W  202   0.618   3.058   2.109
  200W        W  203   1.213   3.294   3.849
  201W        W  204   2.231   1.301   4.007
  202W        W  205   1.788   2.536   3.976
  203W        W  206   3.172   0.769   3.762
  204W        W  207   3.378   2.743   4.259
  205W        W  208   2.725   1.769   4.849
  206W        W  209   2.078   0.467   4.647
  207W        W  210   0.735   3.161   4.330
  208W        W  211   3.083   1.260   3.652
  209W        W  212   1.270   1.950   4.915
  210W        W  213   0.740   1.989   3.773
  211W        W  214   0.457   2.978   4.746
  212W        W  215   1.846   0.962   4.392
  213W        W  216   0.012   1.712   4.586
  214W        W  217   2.327   1.391   4.537
  215W        W  218   2.193   0.775   4.098
  216W        W  219   3.371   1.332   4.545
  217W        W  220   1.040   0.085   4.251
  218W        W  221   3.511   2.868   3.731
  219W        W  222   2.046   2.735   4.390
  220W        W  223   3.319   2.305   3.826
  221W        W  224   2.824   1.318   4.505
  222W        W  225   2.650   1.773   4.310
  223W        W  226   1.489   3.301   4.742
  224W        W  227   0.604   0.481   4.000
  225W        W  228   0.736   3.255   3.658
  226W        W  229   1.594   0.708   4.712
  227W        W  230   1.720   1.862   3.996
  228W        W  231   0.988   0.177   3.766
  229W        W  232   1.726   1.258   4.817
  230W        W  233   0.423   3.482   4.707
  231W        W  234   0.790   2.297   4.191
  232W        W  235   2.425   2.529   3.877
  233W        W  236   0.054   3.489   4.268
  234W        W  237   2.196   1.817   4.123
  235W        W  238   1.871   0.918   3.692
  236W        W  239   2.808   0.389   4.487
  237W        W  240   0.138   0.237   3.935
  238W        W  241   0.481   0.783   4.420
  239W        W  242   3.448   1.674   3.721
  240W        W  243   0.002   0.694   3.958
  241W        W  244   2.013   3.560   3.994
  242W        W  245   3.560   1.919   4.181
  243W        W  246   2.897   3.551   3.975
  244W        W  247   3.030   2.716   3.877
  245W        W  248   2.157   2.966   3.943
  246W        W  249   3.401   3.257   4.606
  247W        W  250   3.238   0.581   4.225
  248W        W  251   0.643   2.786   3.886
  249W        W  252   3.160   2.544   4.696
  250W        W  253   1.205   1.214   3.773
  251W        W  254   0.551   1.523   4.647
  252W        W  255   3.117   1.601   4.192
  253W        W  256   2.648   2.726   4.841
  254W        W  257   3.212   0.114   4.314
  255W        W  258   0.603   2.504   4.620
  256W        W  259   1.365   0.490   4.306
  257W        W  260   2.481   0.892   4.488
  258W        W  261   0.178   2.400   4.082
  259W        W  262   1.913   0.103   5.001
  260W        W  263   2.050   2.383   4.798
  261W        W  264   0.087   0.363   4.449
  262W        W  265   2.628   0.955   3.948
  263W        W  266   0.211   1.266   4.476
  264W        W  267   1.892   0.396   4.063
  265W        W  268   3.573   0.024   4.785
  266W        W  269   1.261   1.659   3.948
  267W        W  270   0.297   2.477   4.991
  268W        W  271   1.524   2.769   4.489
  269W        W  272   0.745   1.509   3.748
  270W        W  273   0.126   4.406   3.104
  271W        W  274   2.801   4.379   3.454
  272W        W  275   1.113   4.854   3.262
  273W        W  276   0.484   4.019   1.167
  274W        W  277   2.887   4.460   2.023
  275W        W  278   3.172   4.413   0.118
  276W        W  279   0.697   3.973   2.471
  277W        W  280   1.292   3.999   2.364
  278W        W  281   3.521   3.761   1.661
  279W        W  282   1.846   4.606   0.748
  280W        W  283   2.190   4.085   2.113
  281W        W  284   2.193   4.419   0.454
  282W        W  285   2.343   3.893   3.247
  283W        W  286   3.361   4.263   1.642
  284W        W  287   3.508   3.828   2.489
  285W        W  288   3.339   4.543   2.210
  286W        W  289   3.606   3.943   2.984
  287W        W  290   1.972   4.664   2.023
  288W        W  291   3.303   4.069   1.133
  289W        W  292   0.077   4.709   2.472
  290W        W  293   2.937   4.504   1.490
  291W        W  294   3.348   4.655   3.267
  292W        W  295   1.708   3.779   2.166
  293W        W  296   1.594   4.352   1.068
  294W        W  297   0.942   4.142   1.020
  295W        W  298   0.947   4.370   0.045
  296W        W  299   2.696   3.878   2.872
  297W        W  300   1.211   4.458   1.989
  298W        W  301   0.637   4.414   1.387
  299W        W  302   3.576   4.472   0.829
  300W        W  303   1.953   4.403   2.430
  301W        W  304   1.871   4.562   0.048
  302W        W  305   2.808   4.033   0.843
  303W        W  306   0.138   3.881   0.291
  304W        W  307   1.414   3.939   3.467
  305W        W  308   2.123   4.081   2.823
  306W        W  309   3.059   3.929   1.962
  307W        W  310   1.854   4.648   2.836
  308W        W  311   3.174   3.753   2.860
  309W        W  312   3.610   4.074   3.465
  310W        W  313   1.491   3.761   0.290
  311W        W  314   0.799   4.453   3.119
  312W        W  315   3.359   4.438   2.779
  313W        W  316   0.554   4.504   2.720
  314W        W  317   1.855   3.759   3.084
  315W        W  318   0.880   3.842   1.489
  316W        W  319   1.110   4.257   1.545
  317W        W  320   3.238   4.225   0.581
  318W        W  321   3.537   4.910   0.419
  319W        W  322   2.833   3.871   3.367
  320W        W  323   0.497   4.021   2.954
  321W        W  324   1.416   4.351   0.222
  322W        W  325   3.212   4.161   3.234
  323W        W  326   3.555   4.131   2.064
  324W        W  327   0.518   3.765   3.529
  325W        W  328   1.713   3.716   0.830
  326W        W  329   2.426   4.585   1.689
  327W        W  330   0.964   4.394   0.519
  328W        W  331   2.481   4.536   0.844
  329W        W  332   3.305   3.895   0.218
  330W        W  333   1.913   3.747   1.357
  331W        W  334   1.471   4.472   2.419
  332W        W  335   0.287   4.188   1.728
  333W        W  336   0.087   4.007   0.805
  334W        W  337   2.500   3.762   0.124
  335W        W  338   2.497   4.780   3.500
  336W        W  339   2.482   3.793   1.203
  337W        W  340   1.892   4.040   0.419
  338W        W  341   3.427   4.640   1.294
  339W        W  342   2.336   4.415   3.187
  340W        W  343   0.180   4.886   2.964
  341W        W  344   2.429   4.823   2.951
  342W        W  345   3.083   4.904   3.652
  343W        W  346   0.395   4.666   3.952
  344W        W  347   1.846   4.606   4.392
  345W        W  348   2.193   4.419   4.098
  346W        W  349   3.004   4.494   4.600
  347W        W  350   1.040   3.729   4.251
  348W        W  351   2.335   4.302   3.663
  349W        W  352   3.111   4.695   4.147
  350W        W  353   3.303   4.069   4.777
  351W        W  354   1.594   4.352   4.712
  352W        W  355   0.942   4.142   4.664
  353W        W  356   1.039   4.652   4.640
  354W        W  357   1.871   4.562   3.692
  355W        W  358   2.808   4.033   4.487
  356W        W  359   1.318   3.849   4.748
  357W        W  360   2.377   3.926   4.253
  358W        W  361   0.481   4.427   4.420
  359W        W  362   0.002   4.338   3.958
  360W        W  363   1.491   3.761   3.934
  361W        W  364   1.229   4.775   5.207
  362W        W  365   1.416   4.351   3.866
  363W        W  366   2.821   4.095   3.933
  364W        W  367   1.365   4.134   4.306
  365W        W  368   0.964   4.394   4.163
  366W        W  369   3.305   3.895   3.862
  367W        W  370   2.628   4.599   3.948
  368W        W  371   2.500   3.762   3.768
  369W        W  372   0.211   4.910   4.476
  370W        W  373   3.728   3.595   3.359
  371W        W  374   4.104   2.488   2.882
  372W        W  375   4.532   0.042   2.906
  373W        W  376   3.864   1.319   2.025
  374W        W  377   4.616   2.945   1.710
  375W        W  378   4.128   0.375   1.167
  376W        W  379   4.151   3.529   0.369
  377W        W  380   4.544   3.575   1.045
  378W        W  381   4.379   3.161   0.686
  379W        W  382   3.994   2.884   1.674
  380W        W  383   3.750   3.018   2.172
  381W        W  384   4.384   1.989   0.129
  382W        W  385   4.101   2.978   1.102
  383W        W  386   3.656   1.712   0.942
  384W        W  387   4.191   1.301   2.471
  385W        W  388   4.066   0.094   1.552
  386W        W  389   4.369   3.365   1.625
  387W        W  390   4.062   2.071   1.789
  388W        W  391   3.983   0.786   2.143
  389W        W  392   4.248   0.481   0.356
  390W        W  393   4.380   3.255   0.014
  391W        W  394   4.586   0.498   1.020
  392W        W  395   3.660   2.044   2.194
  393W        W  396   4.928   2.246   2.981
  394W        W  397   4.855   0.814   1.989
  395W        W  398   4.281   0.770   1.387
  396W        W  399   4.434   2.297   0.547
  397W        W  400   4.131   2.643   2.392
  398W        W  401   3.782   0.237   0.291
  399W        W  402   4.609   2.424   0.071
  400W        W  403   3.850   2.665   0.839
  401W        W  404   4.354   1.735   3.281
  402W        W  405   4.014   1.177   1.556
  403W        W  406   4.125   0.783   0.776
  404W        W  407   4.384   0.432   1.896
  405W        W  408   3.646   0.694   0.314
  406W        W  409   3.803   2.067   0.047
  407W        W  410   4.538   2.478   3.173
  408W        W  411   4.048   2.508   3.513
  409W        W  412   4.443   0.809   3.119
  410W        W  413   4.703   0.488   2.781
  411W        W  414   4.198   0.860   2.720
  412W        W  415   3.811   2.858   3.141
  413W        W  416   4.524   0.198   1.489
  414W        W  417   4.754   0.613   1.545
  415W        W  418   3.911   1.599   0.265
  416W        W  419   4.873   1.131   1.563
  417W        W  420   4.175   3.425   3.112
  418W        W  421   4.408   1.336   2.938
  419W        W  422   4.476   1.705   2.544
  420W        W  423   4.141   0.377   2.954
  421W        W  424   4.849   1.214   0.129
  422W        W  425   3.652   2.973   2.674
  423W        W  426   4.195   1.523   1.003
  424W        W  427   3.890   1.650   3.374
  425W        W  428   4.533   2.590   1.331
  426W        W  429   3.738   3.317   1.440
  427W        W  430   3.756   2.528   2.021
  428W        W  431   4.757   2.953   3.505
  429W        W  432   4.608   0.750   0.519
  430W        W  433   4.423   3.290   2.545
  431W        W  434   4.031   2.079   3.142
  432W        W  435   4.462   1.990   1.072
  433W        W  436   3.987   1.900   1.327
  434W        W  437   4.401   3.602   2.080
  435W        W  438   4.616   3.087   1.194
  436W        W  439   3.878   3.019   0.436
  437W        W  440   4.046   2.001   0.729
  438W        W  441   3.931   0.544   1.728
  439W        W  442   3.731   0.363   0.805
  440W        W  443   3.855   1.266   0.832
  441W        W  444   4.652   1.863   2.083
  442W        W  445   3.824   1.242   2.964
  443W        W  446   4.297   2.504   1.843
  444W        W  447   4.389   1.509   0.104
  445W        W  448   4.857   3.294   3.849
  446W        W  449   4.128   0.375   4.811
  447W        W  450   4.544   3.575   4.689
  448W        W  451   4.039   1.022   3.952
  449W        W  452   3.656   1.712   4.586
  450W        W  453   4.684   0.085   4.251
  451W        W  454   4.248   0.481   4.000
  452W        W  455   4.380   3.255   3.658
  453W        W  456   4.586   0.498   4.664
  454W        W  457   4.591   0.726   3.689
  455W        W  458   4.067   3.482   4.707
  456W        W  459   4.434   2.297   4.191
  457W        W  460   3.698   3.489   4.268
  458W        W  461   3.850   2.665   4.483
  459W        W  462   4.125   0.783   4.420
  460W        W  463   3.646   0.694   3.958
  461W        W  464   3.911   1.599   3.909
  462W        W  465   4.287   2.786   3.886
  463W        W  466   4.247   2.504   4.620
  464W        W  467   4.608   0.750   4.163
  465W        W  468   4.462   1.990   4.716
  466W        W  469   3.731   0.363   4.449
  467W        W  470   4.546   1.255   4.201
  468W        W  471   4.389   1.509   3.748
  469W        W  472   3.770   4.406   3.104
  470W        W  473   4.532   3.686   2.906
  471W        W  474   3.811   4.171   2.579
  472W        W  475   4.757   4.854   3.262
  473W        W  476   3.750   4.304   1.285
  474W        W  477   4.039   4.666   0.308
  475W        W  478   4.066   3.738   1.552
  476W        W  479   4.596   4.010   3.275
  477W        W  480   3.983   4.430   2.143
  478W        W  481   3.721   4.709   2.472
  479W        W  482   4.591   4.370   0.045
  480W        W  483   3.782   3.881   0.291
  481W        W  484   3.646   4.338   0.314
  482W        W  485   4.443   4.453   3.119
  483W        W  486   4.703   4.132   2.781
  484W        W  487   4.524   3.842   1.489
  485W        W  488   4.162   3.765   3.529
  486W        W  489   3.931   4.188   1.728
  487W        W  490   3.731   4.007   0.805
  488W        W  491   4.124   4.310   3.499
  489W        W  492   3.824   4.886   2.964
  490W        W  493   4.940   5.090   4.832
  491W        W  494   4.128   4.019   4.811
  492W        W  495   4.039   4.666   3.952
  493W        W  496   4.248   4.125   4.000
  494W        W  497   4.586   4.142   4.664
  495W        W  498   4.591   4.370   3.689
  496W        W  499   4.632   3.821   3.766
  497W        W  500   3.782   3.881   3.935
  498W        W  501   4.125   4.427   4.420
  499W        W  502   3.646   4.338   3.958
  500W        W  503   4.873   4.775   5.207
  501W        W  504   3.855   4.910   4.476
   5.00000   5.00000   5.00000
