FER in water
 2520
    1FER    PA1    1   2.693   4.739   5.192 -0.1914  0.2622 -0.0926
    1FER    PA2    2   2.813   4.572   4.976 -0.1195  0.2109 -0.0138
    1FER    PA3    3   2.944   4.811   5.003 -0.0337  0.1548  0.0723
    1FER    PA4    4   3.023   5.048   4.947  0.0310 -0.2045  0.0832
    1FER    PA5    5   2.839   5.226   5.044 -0.2164  0.0124  0.0430
    1FER    PA1    6   3.759   0.353   1.913 -0.0514  0.2502  0.0226
    1FER    PA2    7   3.827   0.338   2.203  0.0845 -0.1196 -0.0223
    1FER    PA3    8   4.049   0.381   2.051 -0.0118  0.2665 -0.0634
    1FER    PA4    9   4.319   0.375   1.998  0.5696 -0.2475 -0.0075
    1FER    PA5   10   4.459   0.556   1.988 -0.1175  0.0013  0.1862
    1FER    PA1   11   5.998   0.542   2.770 -0.2354  0.1871 -0.1122
    1FER    PA2   12   5.996   0.327   2.565  0.0941  0.0934 -0.0234
    1FER    PA3   13   5.780   0.309   2.730  0.0304 -0.0660 -0.1217
    1FER    PA4   14   5.614   0.186   2.893 -0.3278  0.0838 -0.3099
    1FER    PA5   15   5.479   0.028   2.760  0.3084 -0.2624  0.0181
    1FER    PA1   16   2.923   5.989   4.845 -0.2116 -0.2112  0.4179
    1FER    PA2   17   3.025   6.125   4.600 -0.1043 -0.3314  0.3949
    1FER    PA3   18   3.148   6.218   4.825 -0.3101 -0.1134  0.4209
    1FER    PA4   19   3.254   6.252   5.047  0.0269 -0.0492  0.1274
    1FER    PA5   20   3.334   6.460   5.102 -0.3933 -0.0616 -0.2030
    1FER    PA1   21   2.471   0.276   4.962  0.0626 -0.0016  0.1408
    1FER    PA2   22   2.421   0.562   4.898 -0.0239  0.0218  0.3075
    1FER    PA3   23   2.409   0.406   4.675 -0.0280  0.1408  0.2238
    1FER    PA4   24   2.420   0.340   4.431 -0.0211 -0.4711  0.0269
    1FER    PA5   25   2.396   0.277   4.189  0.1535  0.2029  0.0217
    1FER    PA1   26   5.224   3.750   2.893  0.1413 -0.4365  0.2839
    1FER    PA2   27   5.419   3.618   2.711 -0.2143 -0.1205 -0.3592
    1FER    PA3   28   5.465   3.887   2.728 -0.0896 -0.1657  0.1618
    1FER    PA4   29   5.538   4.110   2.785  0.0416  0.0893  0.3390
    1FER    PA5   30   5.707   4.124   2.938 -0.2386 -0.1166 -0.0186
    1FER    PA1   31   2.599   5.241   0.052  0.1024  0.0076  0.1218
    1FER    PA2   32   2.334   5.105   0.068  0.2603 -0.3494 -0.1572
    1FER    PA3   33   2.350   5.265  -0.152  0.1831 -0.1078  0.0085
    1FER    PA4   34   2.336   5.459  -0.293  0.2407  0.1266 -0.0696
    1FER    PA5   35   2.127   5.442  -0.455 -0.2617  0.0670  0.5575
    1FER    PA1   36   2.777   4.685   3.608  0.1206  0.0558 -0.0312
    1FER    PA2   37   2.867   4.916   3.772 -0.1434  0.0706  0.0976
    1FER    PA3   38   2.602   4.936   3.707 -0.1291 -0.1167 -0.0253
    1FER    PA4   39   2.407   5.028   3.606  0.3714 -0.0309 -0.4591
    1FER    PA5   40   2.431   5.049   3.357  0.0345 -0.3078  0.0028
    1FER    PA1   41   0.596   2.921   4.212  0.3636  0.1444 -0.0238
    1FER    PA2   42   0.568   2.791   3.946  0.1176  0.1896 -0.0225
    1FER    PA3   43   0.614   3.059   3.922  0.0400  0.2034 -0.0197
    1FER    PA4   44   0.644   3.277   3.840 -0.2045 -0.1042 -0.1217
    1FER    PA5   45   0.430   3.409   3.856  0.1189 -0.2155  0.4113
    1FER    PA1   46   2.125   3.637   4.930 -0.0001  0.2547  0.1901
    1FER    PA2   47   2.085   3.505   5.194  0.0820  0.1012  0.1274
    1FER    PA3   48   1.910   3.712   5.158 -0.1504 -0.0840  0.1659
    1FER    PA4   49   1.732   3.861   5.204  0.2216  0.1453 -0.1504
    1FER    PA5   50   1.686   3.965   5.448  0.0200  0.0710 -0.1160
    1FER    PA1   51   3.146   1.333   4.816 -0.1617 -0.1056 -0.0821
    1FER    PA2   52   2.867   1.437   4.824 -0.1506 -0.0603 -0.2459
    1FER    PA3   53   3.049   1.637   4.863 -0.1455 -0.1385  0.1773
    1FER    PA4   54   3.198   1.849   4.901 -0.0032  0.0209  0.2369
    1FER    PA5   55   3.154   2.084   4.862  0.1745  0.1567 -0.3632
    1FER    PA1   56   6.357   2.517   6.052 -0.1485  0.4021 -0.0740
    1FER    PA2   57   6.558   2.383   5.876 -0.0755  0.1882  0.1658
    1FER    PA3   58   6.678   2.518   6.081 -0.1760 -0.0469  0.3847
    1FER    PA4   59   6.743   2.729   6.222 -0.1901  0.6886 -0.0092
    1FER    PA5   60   6.809   2.956   6.273 -0.1404  0.0425 -0.2417
    1FER    PA1   61   1.286   4.357   4.318 -0.4115 -0.1139  0.0829
    1FER    PA2   62   1.277   4.062   4.359  0.1898 -0.1637 -0.0540
    1FER    PA3   63   1.313   4.125   4.096 -0.2589  0.0508 -0.0734
    1FER    PA4   64   1.249   4.218   3.850 -0.5364 -0.0420  0.2747
    1FER    PA5   65   1.099   4.332   3.711  0.4615 -0.1953 -0.0376
    1FER    PA1   66   4.228   3.854   5.716 -0.1634 -0.4727  0.2512
    1FER    PA2   67   4.204   3.809   5.423 -0.0376 -0.1667  0.1898
    1FER    PA3   68   4.326   3.598   5.547  0.1768 -0.1727 -0.0228
    1FER    PA4   69   4.359   3.385   5.602  0.4004 -0.4048  0.0005
    1FER    PA5   70   4.492   3.210   5.692  0.0936  0.3070 -0.3784
    1FER    PA1   71   2.211   0.494   3.652  0.1940  0.0522 -0.1270
    1FER    PA2   72   2.055   0.548   3.404 -0.0707 -0.1396 -0.0069
    1FER    PA3   73   2.163   0.777   3.506 -0.2855 -0.0003 -0.0854
    1FER    PA4   74   2.306   0.963   3.502 -0.1379 -0.2848 -0.1206
    1FER    PA5   75   2.403   1.113   3.673 -0.6127  0.0828  0.2829
    1FER    PA1   76   0.032   6.300   6.531 -0.2881  0.1653 -0.1314
    1FER    PA2   77   0.221   6.501   6.643 -0.1161 -0.0031 -0.1134
    1FER    PA3   78  -0.009   6.618   6.554  0.0270  0.2144 -0.2039
    1FER    PA4   79  -0.241   6.697   6.505  0.0193  0.1034 -0.1855
    1FER    PA5   80  -0.466   6.710   6.605 -0.2236 -0.4164 -0.2068
    1FER    PA1   81   3.144   3.377   0.225  0.1393 -0.1203 -0.0005
    1FER    PA2   82   2.938   3.551   0.352  0.0862 -0.0426 -0.1899
    1FER    PA3   83   3.092   3.426   0.539  0.1337  0.2174 -0.0497
    1FER    PA4   84   3.139   3.286   0.722 -0.4149 -0.1093  0.1710
    1FER    PA5   85   3.252   3.367   0.945  0.2240  0.0709  0.0585
    1FER    PA1   86   6.558   0.886   2.746  0.1865 -0.0239  0.0244
    1FER    PA2   87   6.451   0.796   2.483 -0.0588 -0.0937  0.1456
    1FER    PA3   88   6.637   0.622   2.581  0.4815  0.2294 -0.2536
    1FER    PA4   89   6.807   0.475   2.647  0.1374  0.0190 -0.0799
    1FER    PA5   90   6.927   0.261   2.712  0.3113 -0.2171 -0.2157
    1FER    PA1   91   2.499   4.803   6.464 -0.0372 -0.0968  0.2192
    1FER    PA2   92   2.271   4.668   6.328  0.1120 -0.1215 -0.0132
    1FER    PA3   93   2.370   4.873   6.177  0.1133  0.0227  0.1795
    1FER    PA4   94   2.378   5.092   6.048 -0.2454 -0.2080 -0.0913
    1FER    PA5   95   2.254   5.094   5.829 -0.4799 -0.0497 -0.3753
    1FER    PA1   96   4.532   3.767   3.864  0.1533 -0.1347 -0.1284
    1FER    PA2   97   4.626   3.699   3.590 -0.3676 -0.3315 -0.2706
    1FER    PA3   98   4.478   3.929   3.591 -0.0750 -0.1361 -0.0861
    1FER    PA4   99   4.414   4.150   3.588 -0.4328 -0.4719  0.3378
    1FER    PA5  100   4.613   4.301   3.521  0.0368 -0.0394  0.0216
    1bCD     C4  101   2.673   5.427   3.914  0.5318  0.0223  0.4004
    1bCD     O2  102   2.656   5.411   3.679  0.3856  0.0215  0.4099
    1bCD     C6  103   2.520   5.358   4.172 -0.0833  0.0048  0.2784
    1bCD     C4  104   3.119   5.546   3.957 -0.1179 -0.2605  0.0678
    1bCD     O2  105   3.149   5.495   3.739 -0.0291 -0.0270 -0.0075
    1bCD     C6  106   2.994   5.431   4.187  0.0445  0.3621 -0.2149
    1bCD     C4  107   3.296   5.999   4.024 -0.1378  0.1334 -0.0456
    1bCD     O2  108   3.370   5.936   3.809 -0.3861 -0.0750  0.5790
    1bCD     C6  109   3.253   5.851   4.273 -0.4883  0.2802 -0.0786
    1bCD     C4  110   3.101   6.436   4.018  0.0181 -0.0744 -0.1492
    1bCD     O2  111   3.217   6.461   3.832  0.3069 -0.0133  0.2035
    1bCD     C6  112   3.146   6.368   4.293 -0.4273 -0.1110 -0.1866
    1bCD     C4  113   2.648   6.530   3.890 -0.1766  0.0165 -0.0633
    1bCD     O2  114   2.737   6.531   3.668  0.1087  0.6777 -0.3708
    1bCD     C6  115   2.756   6.643   4.143 -0.1329  0.0564  0.0608
    1bCD     C4  116   2.281   6.208   3.921  0.0442  0.4327  0.2567
    1bCD     O2  117   2.326   6.232   3.687  0.2312  0.1651 -0.1225
    1bCD     C6  118   2.311   6.355   4.171  0.3012  0.3087  0.0729
    1bCD     C4  119   2.280   5.711   3.950  0.2394  0.0028  0.2591
    1bCD     O2  120   2.230   5.742   3.723 -0.5394  0.3614 -0.1214
    1bCD     C6  121   2.193   5.795   4.220 -0.0670  0.0460 -0.5263
    1bCD     C4  122   1.699   5.891   3.825  0.1089  0.3057 -0.0117
    1bCD     O2  123   1.488   5.948   3.739  0.4157  0.0268  0.0371
    1bCD     C6  124   1.871   6.009   4.040  0.0308  0.0485  0.1558
    1bCD     C4  125   1.835   5.446   3.659  0.0569 -0.0678  0.0238
    1bCD     O2  126   1.617   5.471   3.563  0.2129  0.1533 -0.1668
    1bCD     C6  127   1.930   5.460   3.944 -0.1491  0.1137  0.4608
    1bCD     C4  128   2.186   5.457   3.312  0.0328 -0.2255 -0.1328
    1bCD     O2  129   1.982   5.433   3.177 -0.4519 -0.0099  0.2929
    1bCD     C6  130   2.257   5.340   3.566 -0.1170 -0.0578  0.0849
    1bCD     C4  131   2.403   5.888   3.177 -0.1292  0.0580  0.0821
    1bCD     O2  132   2.286   5.822   2.995 -0.0113  0.0768  0.2215
    1bCD     C6  133   2.556   5.743   3.383  0.4203  0.0452 -0.0055
    1bCD     C4  134   2.379   6.384   3.257 -0.0849  0.1379  0.2234
    1bCD     O2  135   2.297   6.354   3.047 -0.0120 -0.3565  0.0168
    1bCD     C6  136   2.601   6.231   3.400  0.3842 -0.1896  0.3342
    1bCD     C4  137   2.049   6.613   3.518 -0.0277 -0.4227 -0.3283
    1bCD     O2  138   1.945   6.650   3.295 -0.2031  0.0040 -0.0359
    1bCD     C6  139   2.312   6.640   3.612  0.0447  0.1537  0.2730
    1bCD     C4  140   1.756   6.388   3.828  0.0715 -0.0595  0.0409
    1bCD     O2  141   1.607   6.479   3.669 -0.1401  0.0035 -0.0393
    1bCD     C6  142   1.996   6.512   3.927 -0.2637 -0.0970 -0.1683
    1bCD     C4  143   3.542   0.015   3.097 -0.1040  0.1096 -0.1907
    1bCD     O2  144   3.311  -0.036   3.095  0.1792 -0.2231 -0.1329
    1bCD     C6  145   3.718  -0.076   2.894  0.7856 -0.0438  0.0066
    1bCD     C4  146   3.733   0.171   3.516  0.1711  0.1576  0.0930
    1bCD     O2  147   3.498   0.185   3.553 -0.1640 -0.2679  0.0202
    1bCD     C6  148   3.888   0.228   3.278  0.3017 -0.0907  0.0103
    1bCD     C4  149   3.913  -0.138   3.850  0.1642  0.2186  0.0305
    1bCD     O2  150   3.711  -0.075   3.929 -0.1997  0.1597  0.3294
    1bCD     C6  151   4.127   0.035   3.737  0.1910 -0.1583  0.3266
    1bCD     C4  152   3.954  -0.610   3.867 -0.0845  0.1755  0.1038
    1bCD     O2  153   3.796  -0.567   4.030  0.4646  0.6151  0.5912
    1bCD     C6  154   4.191  -0.455   3.811  0.0201 -0.2743 -0.1705
    1bCD     C4  155   3.824  -0.950   3.539  0.1233 -0.0256 -0.0363
    1bCD     O2  156   3.641  -0.976   3.692 -0.4674 -0.3493 -0.2334
    1bCD     C6  157   4.113  -0.956   3.577  0.0099 -0.0494  0.2991
    1bCD     C4  158   3.641  -0.880   3.087  0.2049  0.0081 -0.3005
    1bCD     O2  159   3.451  -0.968   3.226 -0.4381 -0.2938  0.1539
    1bCD     C6  160   3.894  -0.952   3.109 -0.4036 -0.0407 -0.2958
    1bCD     C4  161   3.513  -0.449   2.895  0.0882  0.1332  0.4086
    1bCD     O2  162   3.309  -0.519   2.933  0.0414  0.0303  0.4532
    1bCD     C6  163   3.738  -0.561   2.748  0.2890 -0.1503 -0.6762
    1bCD     C4  164   3.385   3.151   3.951  0.1331 -0.0539 -0.2587
    1bCD     O2  165   3.276   3.000   4.103 -0.0348 -0.1517  0.3756
    1bCD     C6  166   3.371   3.203   3.663 -0.6795 -0.1277 -0.5917
    1bCD     C4  167   3.683   3.442   4.206  0.0432 -0.0933  0.2609
    1bCD     O2  168   3.557   3.339   4.373  0.4637 -0.2405  0.2596
    1bCD     C6  169   3.588   3.544   3.942  0.0512  0.1186 -0.2921
    1bCD     C4  170   4.129   3.268   4.209 -0.3492 -0.2038  0.2731
    1bCD     O2  171   4.090   3.175   4.422  0.3299  0.0453 -0.0592
    1bCD     C6  172   4.089   3.559   4.092  0.2804  0.0668 -0.0614
    1bCD     C4  173   4.250   2.897   3.899 -0.0456 -0.2969  0.0519
    1bCD     O2  174   4.282   2.787   4.119  0.1558  0.3471  0.1615
    1bCD     C6  175   4.338   3.141   3.803 -0.1013 -0.0437  0.2865
    1bCD     C4  176   4.043   2.592   3.596  0.0097 -0.0665  0.4319
    1bCD     O2  177   4.111   2.437   3.779  0.1325 -0.0829  0.1252
    1bCD     C6  178   4.183   2.819   3.461 -0.1178 -0.1674 -0.2112
    1bCD     C4  179   3.584   2.532   3.487 -0.0312 -0.1798 -0.0221
    1bCD     O2  180   3.631   2.366   3.641  0.5000  0.1050  0.4433
    1bCD     C6  181   3.741   2.603   3.243  0.2093 -0.0516  0.1473
    1bCD     C4  182   3.221   2.812   3.633 -0.0155 -0.1670  0.1525
    1bCD     O2  183   3.171   2.615   3.746  0.6216  0.3358 -0.4212
    1bCD     C6  184   3.336   2.838   3.344  0.2633  0.2109 -0.6734
    1bCD     C4  185   2.562   5.083   4.661  0.0393 -0.0773 -0.2134
    1bCD     O2  186   2.585   4.861   4.700 -0.0461  0.1632 -0.2372
    1bCD     C6  187   2.685   5.278   4.465 -0.4910 -0.1147  0.0808
    1bCD     C4  188   2.302   5.264   5.014  0.2134 -0.2189  0.1496
    1bCD     O2  189   2.293   5.050   5.052 -0.1033  0.2065 -0.5959
    1bCD     C6  190   2.279   5.401   4.757 -0.1194  0.0271  0.1680
    1bCD     C4  191   2.576   5.486   5.345  0.3599 -0.0645 -0.0559
    1bCD     O2  192   2.528   5.264   5.450  0.0313  0.3427  0.5814
    1bCD     C6  193   2.454   5.690   5.154 -0.3735  0.0147  0.0710
    1bCD     C4  194   3.069   5.496   5.353  0.1310  0.0755 -0.0765
    1bCD     O2  195   3.003   5.345   5.506 -0.2174 -0.1876 -0.1562
    1bCD     C6  196   2.934   5.731   5.221  0.0852 -0.0850  0.3757
    1bCD     C4  197   3.447   5.303   5.141 -0.2853 -0.0265 -0.1012
    1bCD     O2  198   3.416   5.134   5.310 -0.4142 -0.0225  0.2632
    1bCD     C6  199   3.431   5.581   5.145 -0.1977  0.1509  0.0360
    1bCD     C4  200   3.399   5.076   4.724 -0.2183 -0.0052  0.1104
    1bCD     O2  201   3.441   4.884   4.886  0.1344  0.2406  0.3624
    1bCD     C6  202   3.511   5.339   4.697  0.0838 -0.2505 -0.3218
    1bCD     C4  203   3.000   4.963   4.477  0.1152  0.0311 -0.0782
    1bCD     O2  204   3.042   4.768   4.562 -0.0412  0.4677  0.1404
    1bCD     C6  205   3.157   5.185   4.359  0.3658  0.5460  0.1309
    1bCD     C4  206   2.208   3.880   4.010 -0.0172  0.1946  0.1534
    1bCD     O2  207   2.169   3.685   4.090  0.1666 -0.1725 -0.1394
    1bCD     C6  208   2.263   3.997   3.743  0.0417 -0.2456 -0.0857
    1bCD     C4  209   2.309   4.168   4.396 -0.5628  0.1610  0.0674
    1bCD     O2  210   2.189   4.012   4.495  0.0463 -0.5823  0.0644
    1bCD     C6  211   2.333   4.315   4.138  0.2190 -0.0327 -0.1880
    1bCD     C4  212   2.705   4.198   4.680 -0.1293  0.0011 -0.2368
    1bCD     O2  213   2.596   4.026   4.817 -0.1473  0.1585 -0.0108
    1bCD     C6  214   2.624   4.473   4.570 -0.0239  0.4029 -0.3299
    1bCD     C4  215   3.129   4.049   4.467  0.0813 -0.1575 -0.0219
    1bCD     O2  216   3.087   3.852   4.587  0.2394 -0.2592 -0.0708
    1bCD     C6  217   3.084   4.348   4.484  0.0555 -0.1064  0.1728
    1bCD     C4  218   3.186   3.864   4.026  0.0498 -0.0864 -0.3721
    1bCD     O2  219   3.255   3.677   4.162  0.3693  0.3844  0.4990
    1bCD     C6  220   3.203   4.160   4.057 -0.3072  0.2278 -0.3660
    1bCD     C4  221   2.923   3.633   3.682  0.1134  0.0907 -0.0707
    1bCD     O2  222   3.010   3.440   3.816  0.2688  0.0032  0.2826
    1bCD     C6  223   3.024   3.882   3.603 -0.5310 -0.4424  0.1262
    1bCD     C4  224   2.437   3.616   3.699  0.0198 -0.0682  0.0504
    1bCD     O2  225   2.463   3.406   3.784 -0.1175  0.2444 -0.3481
    1bCD     C6  226   2.544   3.760   3.464 -0.0777 -0.2618  0.0142
    1bCD     C4  227   4.038   5.966   2.189  0.0732  0.2339  0.1396
    1bCD     O2  228   4.033   6.056   2.385 -0.2390  0.1393  0.0078
    1bCD     C6  229   3.800   5.842   2.070 -0.5162 -0.2981 -0.2340
    1bCD     C4  230   4.453   5.982   1.952 -0.0411  0.2625  0.3365
    1bCD     O2  231   4.502   6.080   2.146 -0.3918  0.4687  0.0925
    1bCD     C6  232   4.216   5.986   1.769  0.1762 -0.2798 -0.1342
    1bCD     C4  233   4.745   5.607   1.849 -0.2551  0.2462 -0.2160
    1bCD     O2  234   4.861   5.725   2.031  0.4484  0.1524 -0.0536
    1bCD     C6  235   4.527   5.648   1.685 -0.0603 -0.0816  0.3893
    1bCD     C4  236   4.735   5.142   2.009 -0.3305 -0.3103 -0.2156
    1bCD     O2  237   4.939   5.234   2.097 -0.2829 -0.2947  0.0017
    1bCD     C6  238   4.602   5.210   1.759  0.1303 -0.1943 -0.5772
    1bCD     C4  239   4.425   4.984   2.367  0.2233  0.1627  0.0796
    1bCD     O2  240   4.607   5.003   2.485 -0.0248  0.1886 -0.2095
    1bCD     C6  241   4.383   4.860   2.101 -0.6172  0.2395  0.6794
    1bCD     C4  242   4.041   5.176   2.577  0.1551 -0.1347 -0.0568
    1bCD     O2  243   4.170   5.182   2.769  0.4939 -0.0007  0.0086
    1bCD     C6  244   4.023   4.979   2.375 -0.1133 -0.2509  0.0705
    1bCD     C4  245   3.840   5.594   2.461  0.1984  0.1136  0.0240
    1bCD     O2  246   3.916   5.637   2.684 -0.0540 -0.0095  0.1748
    1bCD     C6  247   3.734   5.349   2.300 -0.1375  0.2015  0.3810
    1bCD     C4  248   4.044   4.112   4.037  0.0022 -0.1474 -0.0497
    1bCD     O2  249   4.161   3.977   4.149  0.0975  0.5084  0.2370
    1bCD     C6  250   4.121   4.301   3.815  0.1164  0.6345 -0.1371
    1bCD     C4  251   3.583   4.098   4.194 -0.1712 -0.1842 -0.1402
    1bCD     O2  252   3.699   3.922   4.294 -0.0170 -0.0524 -0.1681
    1bCD     C6  253   3.614   4.195   3.921  0.1234 -0.2518  0.2796
    1bCD     C4  254   3.493   4.422   4.545 -0.2503  0.1860  0.0042
    1bCD     O2  255   3.508   4.225   4.682 -0.2192 -0.1979 -0.0217
    1bCD     C6  256   3.394   4.462   4.283  0.4546 -0.3073 -0.2140
    1bCD     C4  257   3.885   4.687   4.684 -0.4455 -0.1680 -0.0390
    1bCD     O2  258   3.913   4.563   4.851 -0.4794 -0.1006  0.2088
    1bCD     C6  259   3.688   4.809   4.515  0.1939  0.4835 -0.2047
    1bCD     C4  260   4.347   4.863   4.615 -0.0179 -0.0920 -0.1099
    1bCD     O2  261   4.381   4.746   4.826  0.3488  0.1434 -0.1465
    1bCD     C6  262   4.128   5.009   4.501  0.1552  0.3046 -0.0654
    1bCD     C4  263   4.647   4.666   4.268 -0.1146  0.1568 -0.5117
    1bCD     O2  264   4.728   4.577   4.449  0.2430  0.2267 -0.0976
    1bCD     C6  265   4.547   4.939   4.217  0.1285  0.0451 -0.1519
    1bCD     C4  266   4.503   4.282   4.005  0.1257  0.2831 -0.3192
    1bCD     O2  267   4.639   4.169   4.161  0.0483  0.0463 -0.3659
    1bCD     C6  268   4.553   4.535   3.878 -0.0020  0.3329  0.2929
    1bCD     C4  269   0.151   2.979   4.275 -0.0230 -0.0580  0.2637
    1bCD     O2  270   0.155   2.835   4.445  0.1078 -0.0159 -0.2008
    1bCD     C6  271   0.004   3.008   4.016 -0.0661 -0.1203 -0.0351
    1bCD     C4  272   0.457   3.344   4.347 -0.2295 -0.2419 -0.0774
    1bCD     O2  273   0.466   3.233   4.560  0.2459  0.1498 -0.0214
    1bCD     C6  274   0.236   3.404   4.167  0.1574 -0.3914 -0.4229
    1bCD     C4  275   0.910   3.377   4.146  0.2028 -0.0018 -0.3505
    1bCD     O2  276   0.942   3.260   4.343  0.0714 -0.6963  0.3059
    1bCD     C6  277   0.752   3.619   4.078 -0.4591 -0.4489  0.0270
    1bCD     C4  278   1.070   3.087   3.797 -0.0590 -0.0990 -0.1606
    1bCD     O2  279   1.185   3.003   3.972 -0.5174 -0.1246  0.1333
    1bCD     C6  280   0.979   3.331   3.709 -0.2024  0.0960  0.0118
    1bCD     C4  281   0.843   2.689   3.586 -0.0096  0.3121  0.1556
    1bCD     O2  282   1.002   2.584   3.711 -0.6705 -0.1221  0.2738
    1bCD     C6  283   0.832   2.951   3.457 -0.3553 -0.0931 -0.0583
    1bCD     C4  284   0.413   2.473   3.664  0.1754  0.0743 -0.1565
    1bCD     O2  285   0.549   2.309   3.750  0.2729 -0.3954 -0.1041
    1bCD     C6  286   0.440   2.636   3.443 -0.0272  0.2652 -0.1488
    1bCD     C4  287   0.092   2.602   3.980 -0.2075  0.0120 -0.2336
    1bCD     O2  288   0.145   2.397   4.092 -0.1330 -0.2581  0.1478
    1bCD     C6  289  -0.005   2.616   3.708 -0.0209  0.1153  0.0162
    1bCD     C4  290   3.868   4.627   3.525  0.1691 -0.0415 -0.0707
    1bCD     O2  291   3.758   4.741   3.360 -0.0641  0.4964  0.0475
    1bCD     C6  292   3.823   4.403   3.696 -0.1379  0.1289 -0.1977
    1bCD     C4  293   4.311   4.770   3.510 -0.0284  0.0021  0.0697
    1bCD     O2  294   4.247   4.870   3.316 -0.2410  0.2055 -0.0110
    1bCD     C6  295   4.269   4.516   3.629 -0.0657  0.0696 -0.3825
    1bCD     C4  296   4.406   5.139   3.805 -0.1417 -0.0246 -0.1056
    1bCD     O2  297   4.400   5.286   3.617  0.4407 -0.2832 -0.2515
    1bCD     C6  298   4.569   4.892   3.883 -0.3426  0.1829 -0.0365
    1bCD     C4  299   4.080   5.316   4.116  0.3909 -0.2007 -0.3471
    1bCD     O2  300   4.088   5.481   3.989  0.1459 -0.3164  0.1345
    1bCD     C6  301   4.282   5.151   4.239  0.0727  0.4536 -0.2397
    1bCD     C4  302   3.624   5.226   4.251  0.0749 -0.0793 -0.1861
    1bCD     O2  303   3.600   5.434   4.141  0.2483  0.2701 -0.4403
    1bCD     C6  304   3.837   5.111   4.413  0.1561 -0.1573 -0.2696
    1bCD     C4  305   3.342   4.880   4.056 -0.1246  0.0757 -0.1704
    1bCD     O2  306   3.235   5.054   3.968  0.1591  0.1935 -0.0624
    1bCD     C6  307   3.436   4.805   4.312 -0.3079  0.2333  0.0994
    1bCD     C4  308   3.425   4.584   3.703 -0.1508 -0.0749  0.3655
    1bCD     O2  309   3.274   4.721   3.592 -0.0254  0.3249 -0.0742
    1bCD     C6  310   3.408   4.436   3.962 -0.2905  0.3981 -0.1885
    1bCD     C4  311   3.630   6.526   2.404  0.2265 -0.0433 -0.1444
    1bCD     O2  312   3.540   6.533   2.184 -0.2642 -0.1453 -0.0607
    1bCD     C6  313   3.787   6.340   2.568  0.2358  0.4090  0.3985
    1bCD     C4  314   3.457   6.911   2.659  0.0745  0.2085 -0.0683
    1bCD     O2  315   3.416   6.946   2.444  0.2001  0.5374  0.4523
    1bCD     C6  316   3.702   6.772   2.777  0.0347 -0.3179  0.2028
    1bCD     C4  317   3.034   6.905   2.911  0.2330  0.1551 -0.2828
    1bCD     O2  318   2.975   7.018   2.728  0.0153 -0.0834 -0.1537
    1bCD     C6  319   3.273   6.931   3.096 -0.2507 -0.4395 -0.0057
    1bCD     C4  320   2.758   6.497   2.955  0.1068 -0.3375 -0.0546
    1bCD     O2  321   2.637   6.601   2.790 -0.0367 -0.0536 -0.3213
    1bCD     C6  322   2.891   6.553   3.200  0.1239  0.1928 -0.1947
    1bCD     C4  323   2.768   6.052   2.769 -0.1007 -0.0493  0.0052
    1bCD     O2  324   2.616   6.141   2.622  0.4816 -0.1121  0.1808
    1bCD     C6  325   2.846   6.062   3.044 -0.0351  0.6559 -0.1593
    1bCD     C4  326   3.082   5.855   2.453 -0.0485  0.0020 -0.0076
    1bCD     O2  327   2.906   5.897   2.321 -0.0914 -0.2515  0.0123
    1bCD     C6  328   3.065   5.717   2.719 -0.0274  0.1208 -0.1308
    1bCD     C4  329   3.509   6.064   2.310  0.0207 -0.0224  0.2361
    1bCD     O2  330   3.376   6.094   2.097 -0.5483  0.0694 -0.0332
    1bCD     C6  331   3.507   5.873   2.514 -0.5946 -0.0664 -0.0377
    1bCD     C4  332   3.159   3.505   3.006 -0.3055 -0.0813 -0.1132
    1bCD     O2  333   3.295   3.613   2.863 -0.2454 -0.2327  0.0523
    1bCD     C6  334   3.001   3.580   3.228  0.1124 -0.2323 -0.0106
    1bCD     C4  335   3.462   3.117   3.067 -0.2049  0.0733 -0.1692
    1bCD     O2  336   3.550   3.186   2.847  0.2448 -0.2329 -0.1571
    1bCD     C6  337   3.187   3.050   3.127  0.0448  0.2659  0.4443
    1bCD     C4  338   3.822   3.134   3.395  0.1555  0.0791 -0.2731
    1bCD     O2  339   3.963   3.132   3.222  0.0053 -0.0209 -0.3106
    1bCD     C6  340   3.602   2.974   3.492 -0.4384 -0.0725  0.0582
    1bCD     C4  341   3.958   3.503   3.707 -0.0868  0.1500  0.1552
    1bCD     O2  342   4.140   3.501   3.541 -0.3161 -0.1866 -0.0359
    1bCD     C6  343   3.783   3.297   3.826 -0.0909  0.2747  0.4237
    1bCD     C4  344   3.809   3.959   3.652  0.0299  0.0426 -0.1513
    1bCD     O2  345   4.003   3.984   3.532 -0.1982  0.4804  0.4580
    1bCD     C6  346   3.742   3.806   3.896 -0.0695 -0.1030 -0.7133
    1bCD     C4  347   3.420   4.151   3.434 -0.2862  0.0276 -0.2098
    1bCD     O2  348   3.593   4.251   3.320 -0.0863  0.3155  0.1952
    1bCD     C6  349   3.343   4.052   3.713  0.0341  0.1650  0.0936
    1bCD     C4  350   3.121   3.983   3.088 -0.1911  0.0230  0.3653
    1bCD     O2  351   3.253   4.096   2.961 -0.4332  0.0574  0.4975
    1bCD     C6  352   3.012   4.071   3.329 -0.0243  0.1579 -0.0419
    1bCD     C4  353   2.605   0.498   3.257 -0.1362  0.0209 -0.1508
    1bCD     O2  354   2.548   0.278   3.359  0.0703 -0.5172 -0.3558
    1bCD     C6  355   2.778   0.724   3.321 -0.0968  0.1248 -0.2509
    1bCD     C4  356   2.255   0.526   2.922  0.2826  0.1374  0.0393
    1bCD     O2  357   2.213   0.307   2.958  0.0785  0.3383 -0.2733
    1bCD     C6  358   2.459   0.706   2.826  0.4269  0.0849  0.0893
    1bCD     C4  359   1.852   0.762   2.990  0.2067  0.2958  0.3504
    1bCD     O2  360   1.776   0.556   3.023 -0.1193 -0.2868 -0.0697
    1bCD     C6  361   2.023   0.861   2.765  0.3548  0.3455  0.1239
    1bCD     C4  362   1.747   1.006   3.398 -0.1503  0.3375 -0.0389
    1bCD     O2  363   1.620   0.816   3.412 -0.3242 -0.1977  0.3033
    1bCD     C6  364   1.881   1.141   3.163 -0.0727  0.1279 -0.1803
    1bCD     C4  365   1.970   1.043   3.840  0.4274 -0.2029  0.5336
    1bCD     O2  366   1.764   0.918   3.905  0.0276 -0.3051 -0.1887
    1bCD     C6  367   2.027   1.258   3.634 -0.5429  0.3026 -0.3811
    1bCD     C4  368   2.342   0.799   4.011  0.2088  0.0387 -0.1375
    1bCD     O2  369   2.172   0.658   4.115 -0.1735  0.3792 -0.0112
    1bCD     C6  370   2.343   1.096   4.085  0.0088  0.0025  0.0967
    1bCD     C4  371   2.673   0.611   3.735 -0.3723  0.0853  0.0457
    1bCD     O2  372   2.572   0.428   3.828  0.0321  0.0044 -0.0578
    1bCD     C6  373   2.749   0.894   3.789 -0.1523 -0.1541 -0.3600
    1bCD     C4  374   2.693   5.388   6.038  0.1458 -0.2709  0.0397
    1bCD     O2  375   2.736   5.454   6.275 -0.0687  0.2385  0.5112
    1bCD     C6  376   2.762   5.207   5.826  0.3040 -0.0803  0.0278
    1bCD     C4  377   2.419   5.759   5.897  0.3029  0.1190 -0.3105
    1bCD     O2  378   2.440   5.824   6.122  0.0277  0.0847  0.0894
    1bCD     C6  379   2.333   5.506   5.818 -0.2432 -0.2173  0.5920
    1bCD     C4  380   2.563   6.110   5.607 -0.0377  0.2496  0.0975
    1bCD     O2  381   2.609   6.220   5.793  0.2370 -0.3213 -0.3348
    1bCD     C6  382   2.354   5.917   5.511 -0.1928 -0.2435 -0.0908
    1bCD     C4  383   2.940   6.197   5.326  0.2213 -0.0010  0.1775
    1bCD     O2  384   2.956   6.382   5.463  0.0200 -0.3244  0.0857
    1bCD     C6  385   2.715   6.028   5.232  0.2443 -0.0624  0.1144
    1bCD     C4  386   3.369   5.966   5.403  0.2435 -0.0033 -0.0018
    1bCD     O2  387   3.398   6.191   5.472 -0.1225  0.3242 -0.4113
    1bCD     C6  388   3.268   5.881   5.166  0.6281 -0.2387  0.1804
    1bCD     C4  389   3.467   5.644   5.741  0.0908 -0.0057 -0.1644
    1bCD     O2  390   3.516   5.824   5.876  0.2065 -0.0902  0.0462
    1bCD     C6  391   3.531   5.572   5.487 -0.1406  0.0440  0.0375
    1bCD     C4  392   3.179   5.342   6.026  0.1667 -0.0694 -0.0822
    1bCD     O2  393   3.282   5.466   6.204  0.3360  0.3148 -0.2931
    1bCD     C6  394   3.271   5.246   5.787  0.0159 -0.3667  0.1735
    1bCD     C4  395   2.789   6.557   4.642  0.0325 -0.0620 -0.2410
    1bCD     O2  396   2.790   6.532   4.885 -0.0136 -0.3105  0.1796
    1bCD     C6  397   2.624   6.454   4.416  0.0216 -0.5277  0.0460
    1bCD     C4  398   3.263   6.628   4.532 -0.3644 -0.2694 -0.3037
    1bCD     O2  399   3.273   6.728   4.740  0.3412  0.1244 -0.2346
    1bCD     C6  400   3.106   6.707   4.302  0.0326 -0.0643  0.3290
    1bCD     C4  401   3.561   6.247   4.500  0.0314  0.0061  0.1907
    1bCD     O2  402   3.617   6.337   4.724  0.0694 -0.2064 -0.0789
    1bCD     C6  403   3.477   6.324   4.231  0.1062 -0.1758  0.1217
    1bCD     C4  404   3.486   5.780   4.616  0.1198  0.2768 -0.0646
    1bCD     O2  405   3.554   5.827   4.834  0.5596 -0.4273 -0.1017
    1bCD     C6  406   3.595   5.819   4.346  0.0850 -0.4929  0.2405
    1bCD     C4  407   3.077   5.520   4.622  0.0902  0.3900  0.4329
    1bCD     O2  408   3.131   5.546   4.852  0.3300  0.1738  0.3972
    1bCD     C6  409   3.265   5.472   4.396 -0.3277 -0.2641 -0.1385
    1bCD     C4  410   2.616   5.680   4.566 -0.4407  0.2519  0.2799
    1bCD     O2  411   2.628   5.597   4.785  0.2372 -0.2797 -0.0352
    1bCD     C6  412   2.731   5.636   4.288  0.1806 -0.0725 -0.2065
    1bCD     C4  413   2.515   6.156   4.681  0.2854 -0.0411  0.3701
    1bCD     O2  414   2.483   6.084   4.897  0.1138  0.5441 -0.0118
    1bCD     C6  415   2.382   6.053   4.439  0.2250 -0.1004  0.1103
    1bCD     C4  416   2.392   4.818   4.224 -0.2966 -0.1249 -0.1220
    1bCD     O2  417   2.575   4.941   4.201 -0.2641 -0.2387  0.3256
    1bCD     C6  418   2.328   4.604   4.424  0.0103 -0.1504  0.6193
    1bCD     C4  419   2.051   5.018   3.961 -0.1497  0.1949  0.1091
    1bCD     O2  420   2.216   5.152   3.906 -0.5059 -0.0630  0.0169
    1bCD     C6  421   1.948   4.910   4.215 -0.0892 -0.4173  0.3124
    1bCD     C4  422   1.878   4.810   3.527  0.0087 -0.1787 -0.0071
    1bCD     O2  423   1.970   5.021   3.449  0.1876  0.1207  0.1456
    1bCD     C6  424   1.697   4.741   3.754 -0.3488  0.5152 -0.2972
    1bCD     C4  425   2.159   4.475   3.285 -0.1620 -0.1014  0.1382
    1bCD     O2  426   2.217   4.683   3.158 -0.2685 -0.1459  0.1145
    1bCD     C6  427   1.901   4.391   3.388 -0.2304  0.0558 -0.0852
    1bCD     C4  428   2.541   4.182   3.419  0.0856  0.1124 -0.0826
    1bCD     O2  429   2.623   4.356   3.309  0.0871  0.0483  0.5333
    1bCD     C6  430   2.282   4.034   3.412  0.1820 -0.2912  0.2653
    1bCD     C4  431   2.815   4.178   3.835  0.0119 -0.0721  0.0384
    1bCD     O2  432   2.967   4.293   3.693 -0.1750 -0.6626 -0.1074
    1bCD     C6  433   2.658   3.949   3.804  0.1972 -0.0330 -0.5163
    1bCD     C4  434   2.756   4.491   4.200  0.0502  0.0470 -0.0899
    1bCD     O2  435   2.940   4.579   4.107  0.1488 -0.4013  0.6760
    1bCD     C6  436   2.683   4.202   4.257 -0.6006 -0.1122  0.0679
    1bCD     C4  437   3.306   5.439   2.348  0.0356 -0.2615  0.2370
    1bCD     O2  438   3.130   5.319   2.264 -0.1112 -0.0767  0.3492
    1bCD     C6  439   3.517   5.614   2.232  0.1721 -0.3675 -0.1305
    1bCD     C4  440   3.298   5.373   2.838 -0.1768  0.0432  0.0014
    1bCD     O2  441   3.091   5.288   2.797  0.0708  0.1473  0.0675
    1bCD     C6  442   3.409   5.632   2.719  0.0527  0.0355 -0.0029
    1bCD     C4  443   3.577   5.031   3.025 -0.0408  0.3773  0.0950
    1bCD     O2  444   3.354   4.960   3.063 -0.2128  0.5216 -0.8021
    1bCD     C6  445   3.736   5.278   2.976  0.2307  0.3050  0.0007
    1bCD     C4  446   3.779   4.634   2.825  0.0005 -0.0792  0.1304
    1bCD     O2  447   3.571   4.565   2.869  0.2688  0.1699  0.1592
    1bCD     C6  448   3.963   4.796   2.996  0.4759  0.0235 -0.0858
    1bCD     C4  449   3.881   4.582   2.344 -0.0302  0.0072  0.2296
    1bCD     O2  450   3.703   4.445   2.393 -0.3763 -0.4767 -0.6040
    1bCD     C6  451   4.099   4.688   2.509  0.1625  0.1491  0.0451
    1bCD     C4  452   3.746   4.830   1.941  0.0162  0.1527  0.0845
    1bCD     O2  453   3.599   4.666   1.926  0.0391  0.9571  0.4662
    1bCD     C6  454   4.048   4.816   1.978  0.7999  0.1133  0.2367
    1bCD     C4  455   3.497   5.250   1.939  0.0435  0.1398 -0.1893
    1bCD     O2  456   3.336   5.087   1.877  0.3429 -0.0725 -0.2749
    1bCD     C6  457   3.782   5.300   1.911 -0.5742 -0.6667 -0.3580
    1bCD     C4  458   1.859   5.773   5.019  0.1994  0.1402  0.1089
    1bCD     O2  459   2.069   5.757   5.110 -0.4298  0.2840 -0.0410
    1bCD     C6  460   1.577   5.781   5.109 -0.0003 -0.1256  0.0689
    1bCD     C4  461   1.934   5.776   4.541 -0.1346  0.0723 -0.2042
    1bCD     O2  462   2.131   5.779   4.637 -0.2726  0.3042  0.0688
    1bCD     C6  463   1.674   5.864   4.622 -0.1917  0.1596  0.2566
    1bCD     C4  464   1.953   5.314   4.345 -0.0144  0.0097 -0.2437
    1bCD     O2  465   2.165   5.357   4.377 -0.1401  0.4556 -0.0474
    1bCD     C6  466   1.725   5.438   4.231  0.0772  0.0853  0.0159
    1bCD     C4  467   1.852   4.924   4.623  0.0111  0.2769  0.2229
    1bCD     O2  468   2.073   4.873   4.624  0.0981  0.0822  0.2478
    1bCD     C6  469   1.645   4.962   4.434  0.0199 -0.3416  0.0958
    1bCD     C4  470   1.725   4.806   5.068 -0.0968  0.1152  0.0064
    1bCD     O2  471   1.945   4.738   5.062 -0.2535  0.1790 -0.1924
    1bCD     C6  472   1.508   4.812   4.885 -0.1683  0.2374 -0.3487
    1bCD     C4  473   1.725   5.096   5.461 -0.2699  0.3029 -0.5123
    1bCD     O2  474   1.930   4.982   5.507 -0.0033 -0.4852  0.2640
    1bCD     C6  475   1.497   4.948   5.391  0.1030 -0.1871 -0.1313
    1bCD     C4  476   1.773   5.567   5.451 -0.1039 -0.0033 -0.3938
    1bCD     O2  477   1.979   5.489   5.539 -0.3591  0.1620  0.2159
    1bCD     C6  478   1.526   5.467   5.516  0.0492  0.5120 -0.2873
    1bCD     C4  479   1.700   4.270   3.762  0.0361 -0.0226 -0.0636
    1bCD     O2  480   1.918   4.255   3.785 -0.6093 -0.5545 -0.5218
    1bCD     C6  481   1.482   4.452   3.845  0.0153  0.2149  0.1548
    1bCD     C4  482   1.552   3.805   3.711  0.1623 -0.1885 -0.0948
    1bCD     O2  483   1.791   3.775   3.670  0.0589  0.1545 -0.3421
    1bCD     C6  484   1.344   3.989   3.607 -0.0196 -0.1668 -0.3078
    1bCD     C4  485   1.406   3.518   4.093  0.0165 -0.1648  0.2102
    1bCD     O2  486   1.622   3.409   4.029 -0.3542  0.2717  0.0529
    1bCD     C6  487   1.167   3.586   3.918  0.0706  0.2963 -0.0194
    1bCD     C4  488   1.398   3.603   4.580 -0.0488  0.1665 -0.0861
    1bCD     O2  489   1.578   3.460   4.541 -0.0431 -0.1348  0.7203
    1bCD     C6  490   1.138   3.595   4.441  0.0676  0.2244  0.0895
    1bCD     C4  491   1.570   4.015   4.762 -0.1679 -0.3374  0.4731
    1bCD     O2  492   1.776   3.903   4.748 -0.3069  0.1239 -0.4130
    1bCD     C6  493   1.286   3.960   4.786  0.0152 -0.1537  0.0155
    1bCD     C4  494   1.682   4.468   4.593 -0.1927  0.2196  0.0979
    1bCD     O2  495   1.894   4.396   4.675 -0.3067 -0.2786 -0.0576
    1bCD     C6  496   1.402   4.459   4.683 -0.0600  0.3958  0.5040
    1bCD     C4  497   1.776   4.567   4.127  0.1118  0.0743  0.1524
    1bCD     O2  498   1.991   4.532   4.211  0.4596  0.0045 -0.3758
    1bCD     C6  499   1.519   4.669   4.235 -0.2272  0.0166  0.0497
    1bCD     C4  500   3.598   0.338   4.174 -0.0800 -0.2283  0.1646
    1bCD     O2  501   3.656   0.545   4.095 -0.5477 -0.3287  0.2457
    1bCD     C6  502   3.430   0.125   4.091 -0.1338  0.0238 -0.3844
    1bCD     C4  503   3.837   0.294   4.595 -0.0976 -0.0829  0.1408
    1bCD     O2  504   3.952   0.453   4.507 -0.0975 -0.1737 -0.0766
    1bCD     C6  505   3.775   0.047   4.454 -0.4800 -0.1454 -0.1200
    1bCD     C4  506   3.657   0.387   5.043 -0.0281 -0.2620 -0.1763
    1bCD     O2  507   3.777   0.573   5.010 -0.2017  0.1697  0.3444
    1bCD     C6  508   3.685   0.118   4.977 -0.5502 -0.4504  0.1538
    1bCD     C4  509   3.210   0.563   5.074 -0.0044  0.1282 -0.0701
    1bCD     O2  510   3.291   0.775   5.130  0.0657 -0.0774  0.0648
    1bCD     C6  511   3.248   0.279   5.193  0.0029 -0.2133 -0.2045
    1bCD     C4  512   2.865   0.621   4.723 -0.2993 -0.0204 -0.1256
    1bCD     O2  513   2.928   0.848   4.735 -0.4838  0.0911  0.3018
    1bCD     C6  514   2.863   0.389   4.894  0.4944 -0.2345 -0.1415
    1bCD     C4  515   2.844   0.536   4.240 -0.0749  0.2452  0.0860
    1bCD     O2  516   2.790   0.767   4.214 -0.5600 -0.0537  0.1195
    1bCD     C6  517   2.728   0.325   4.409 -0.3143  0.2958 -0.3557
    1bCD     C4  518   3.202   0.429   3.924  0.0660  0.2115 -0.1038
    1bCD     O2  519   3.139   0.651   3.886 -0.0685 -0.2434 -0.2886
    1bCD     C6  520   2.971   0.237   3.941 -0.4006  0.2165  0.0663
    1WN      WN  521   2.100   3.083   5.536  0.1247 -0.0212 -0.0090
    1WN      WN  522   6.153   5.572   5.642 -0.1225  0.0322 -0.2721
    1WN      WN  523   6.134   5.704   1.533 -0.0390 -0.2220 -0.0751
    1WN      WN  524   5.628   4.536   5.805  0.1517 -0.0970  0.0477
    1WN      WN  525   3.299   2.518   4.894 -0.0662 -0.0057  0.1379
    1WN      WN  526   0.378   4.228   0.816  0.0494 -0.0365  0.0642
    1WN      WN  527   4.570   5.897   4.782  0.0308 -0.2441 -0.0733
    1WN      WN  528   5.268   4.284   2.420 -0.0674  0.2302  0.0072
    1WN      WN  529   4.093   0.638   1.691 -0.1639 -0.1034  0.1022
    1WN      WN  530   4.864   4.004   5.812  0.2910  0.2713  0.1843
    1WN      WN  531   1.576   3.206   2.200  0.0284 -0.0266  0.1641
    1WN      WN  532   1.875   3.381   0.288 -0.1695  0.2228 -0.3717
    1WN      WN  533   1.945   3.270   3.620 -0.5322 -0.0440 -0.2908
    1WN      WN  534   6.172   3.965   6.307  0.0568  0.2263 -0.0060
    1WN      WN  535   5.812   3.717   3.117 -0.0165 -0.1260  0.1476
    1WN      WN  536   6.091   2.228   5.223  0.0994  0.4847  0.1636
    1WN      WN  537   1.893   2.498   0.778 -0.0230  0.0485 -0.4407
    1WN      WN  538   4.423   4.747   2.901  0.1908  0.1307  0.2317
    1WN      WN  539   0.282   1.925   4.122 -0.4426  0.0656  0.1996
    1WN      WN  540   2.500   2.408   2.543  0.0026 -0.1762  0.1275
    1WN      WN  541   0.989   0.190   2.146 -0.1207  0.2379  0.2778
    1WN      WN  542   6.109   1.774   3.988 -0.3268 -0.0719  0.1586
    1WN      WN  543   5.287   2.035   5.882  0.2403  0.0010 -0.2042
    1WN      WN  544   3.537   4.807   5.725 -0.0873  0.1154  0.1464
    1WN      WN  545   3.951   3.551   6.354  0.2368  0.4786  0.0058
    1WN      WN  546   6.029   2.354   4.744 -0.0851 -0.1215 -0.2403
    1WN      WN  547   4.651   3.992   4.615  0.0669 -0.0689 -0.0660
    1WN      WN  548   3.939   1.868   5.348  0.1811 -0.0962 -0.0008
    1WN      WN  549   1.204   4.218   5.421  0.4608 -0.0335 -0.1941
    1WN      WN  550   4.933   0.201   0.985  0.0079  0.0640  0.0168
    1WN      WN  551   6.106   4.955   0.125  0.4073  0.1582 -0.1658
    1WN      WN  552   1.775   2.704   1.289  0.0172  0.1446  0.0492
    1WN      WN  553   4.983   2.438   0.588  0.1513 -0.0190  0.0453
    1WN      WN  554   3.547   4.619   0.719  0.2403  0.0907  0.2177
    1WN      WN  555   0.172   4.320   3.930 -0.3069 -0.1911 -0.2009
    1WN      WN  556   1.184   2.143   5.144  0.3239  0.1711  0.0649
    1WN      WN  557   0.006   4.466   2.867 -0.1668 -0.1756  0.1641
    1WN      WN  558   0.842   0.094   1.698 -0.2627 -0.1424  0.0745
    1WN      WN  559   0.144   1.167   3.634  0.2100 -0.0193  0.0327
    1WN      WN  560   2.706   5.505   2.966 -0.1482  0.1311 -0.1706
    1WN      WN  561   3.586   2.905   1.028 -0.1759 -0.3377  0.0484
    1WN      WN  562   1.923   0.544   4.637 -0.2091 -0.1111  0.0446
    1WN      WN  563   1.307   0.372   1.800 -0.0629 -0.1374  0.4756
    1WN      WN  564   5.677   1.831   5.143  0.2636 -0.2182  0.0410
    1WN      WN  565   4.728   2.941   3.701  0.3039 -0.3270  0.2411
    1WN      WN  566   4.265   4.415   2.108 -0.1136  0.1569 -0.1277
    1WN      WN  567   2.863   0.894   2.988 -0.2718  0.1547 -0.3304
    1WN      WN  568   2.776   5.889   3.812 -0.0756 -0.0514  0.0798
    1WN      WN  569   4.883   5.612   6.346  0.1678 -0.1473 -0.2121
    1WN      WN  570   5.095   2.629   5.180  0.3874 -0.0187  0.0171
    1WN      WN  571   5.573   0.774   3.396 -0.1286  0.1632 -0.1674
    1WN      WN  572   4.173   5.951   3.322 -0.0546 -0.1042  0.1029
    1WN      WN  573   2.137   2.034   2.535  0.1875  0.3308  0.0847
    1WN      WN  574   0.780   4.121   0.482  0.1290  0.0802 -0.1626
    1WN      WN  575   2.960   1.831   5.338  0.0107 -0.2740  0.2564
    1WN      WN  576   5.966   5.726   1.053 -0.0481  0.3060 -0.3162
    1WN      WN  577   1.516   2.955   1.668  0.2812  0.0508 -0.0872
    1WN      WN  578   2.915   1.713   3.678 -0.0285  0.0038  0.1222
    1WN      WN  579   6.158   4.240   5.865  0.2300 -0.1142 -0.1997
    1WN      WN  580   2.307   4.044   2.911  0.1454 -0.1926  0.2724
    1WN      WN  581   6.124   1.764   1.131 -0.1350  0.0730  0.0977
    1WN      WN  582   0.609   1.842   1.892 -0.0620 -0.0854 -0.4279
    1WN      WN  583   0.609   5.612   5.710  0.3077 -0.1009  0.1990
    1WN      WN  584   1.212   6.330   3.915  0.1547 -0.0457  0.3647
    1WN      WN  585   1.120   0.821   4.681 -0.3525 -0.1357  0.0563
    1WN      WN  586   5.269   3.763   2.311  0.0941 -0.0175 -0.0232
    1WN      WN  587   3.435   0.757   0.593 -0.0841 -0.1006 -0.1565
    1WN      WN  588   4.986   1.053   0.669  0.1287  0.3021 -0.2100
    1WN      WN  589   4.482   0.358   2.947 -0.0047  0.0352 -0.0399
    1WN      WN  590   2.974   5.762   3.364  0.2047 -0.5142 -0.0092
    1WN      WN  591   5.822   3.153   5.672  0.0068 -0.0763 -0.2068
    1WN      WN  592   0.227   2.160   3.107 -0.2515  0.3696  0.1741
    1WN      WN  593   2.763   1.168   5.866  0.2453 -0.1391  0.1953
    1WN      WN  594   6.348   5.739   0.720  0.2928 -0.1158 -0.2307
    1WN      WN  595   2.005   0.316   6.550  0.0803 -0.2389  0.0691
    1WN      WN  596   2.740   2.239   3.591  0.4493  0.0316 -0.4738
    1WN      WN  597   0.147   5.844   6.485 -0.0296  0.0011  0.1363
    1WN      WN  598   3.098   6.239   3.417 -0.0888 -0.2341 -0.1290
    1WN      WN  599   5.192   5.657   1.023  0.1667  0.0193  0.1794
    1WN      WN  600   3.932   2.073   2.246 -0.0362  0.1717 -0.0650
    1WN      WN  601   1.617   6.256   2.489 -0.1158 -0.1399 -0.0310
    1WN      WN  602   5.870   3.542   3.779  0.1140  0.2611 -0.1335
    1WN      WN  603   3.316   4.171   6.277 -0.0082  0.1524  0.0498
    1WN      WN  604   5.637   4.654   5.339 -0.0152  0.0733  0.1949
    1WN      WN  605   5.834   0.553   4.512 -0.0966 -0.1169  0.1203
    1WN      WN  606   0.122   3.719   5.696  0.0541 -0.0570  0.2616
    1WN      WN  607   0.552   5.128   2.920 -0.0073  0.1364 -0.0192
    1WN      WN  608   2.926   3.610   1.239  0.1726  0.0497  0.0687
    1WN      WN  609   3.957   5.090   1.514 -0.1769 -0.0476  0.0906
    1WN      WN  610   6.043   0.976   3.687  0.2460 -0.2667  0.2575
    1WN      WN  611   4.968   0.014   2.928  0.1487  0.0845 -0.2709
    1WN      WN  612   5.307   1.608   3.959  0.0574  0.2743  0.2920
    1WN      WN  613   1.126   0.325   4.555 -0.0400  0.2347  0.2119
    1WN      WN  614   1.139   3.018   2.008  0.1767  0.2078  0.1028
    1WN      WN  615   3.414   4.258   1.049  0.0233 -0.1854 -0.0177
    1WN      WN  616   3.797   2.326   6.318  0.2489 -0.2374 -0.2623
    1WN      WN  617   5.373   4.265   5.087 -0.0244  0.2611 -0.4303
    1WN      WN  618   4.817   1.939   5.453 -0.1006 -0.3366  0.0509
    1WN      WN  619   0.122   3.516   5.250  0.2293  0.0647 -0.0669
    1WN      WN  620   5.736   3.808   5.139  0.0230 -0.0940  0.1702
    1WN      WN  621   6.082   5.323   0.654  0.0342 -0.1049 -0.2097
    1WN      WN  622   5.666   6.419   5.055 -0.1813 -0.0932 -0.2392
    1WN      WN  623   6.252   0.410   0.978  0.1042 -0.2192 -0.0956
    1WN      WN  624   3.623   2.907   6.277  0.0101  0.0185 -0.1940
    1WN      WN  625   0.540   3.291   6.339  0.0418 -0.4112 -0.0825
    1WN      WN  626   4.848   5.316   5.373  0.2630 -0.4471 -0.0342
    1WN      WN  627   6.135   1.292   4.033 -0.3066 -0.3185  0.0838
    1WN      WN  628   6.269   3.503   4.955  0.0787 -0.0155  0.1029
    1WN      WN  629   5.185   3.382   5.111  0.0085  0.1471 -0.2213
    1WN      WN  630   1.008   2.453   2.642 -0.0325 -0.2848 -0.2494
    1WN      WN  631   3.758   2.836   3.896 -0.0345  0.1638 -0.0513
    1WN      WN  632   0.048   0.376   1.358  0.0532  0.3188 -0.1584
    1WN      WN  633   1.714   6.424   0.127 -0.2725  0.0467  0.3362
    1WN      WN  634   0.430   0.004   5.009  0.4712  0.3359 -0.1077
    1WN      WN  635   3.054   2.921   0.567 -0.0235 -0.0246 -0.2210
    1WN      WN  636   0.829   5.188   2.012 -0.0067  0.0096 -0.0780
    1WN      WN  637   4.549   3.738   0.624 -0.1174  0.1643  0.3393
    1WN      WN  638   0.841   0.777   5.562  0.0618 -0.0656  0.1494
    1WN      WN  639   5.456   1.692   2.437 -0.1071 -0.0934  0.3707
    1WN      WN  640   5.111   5.454   2.476  0.2501 -0.1109  0.0196
    1WN      WN  641   0.010   0.505   3.032  0.0016  0.2119  0.0600
    1WN      WN  642   5.095   4.192   1.389 -0.1527  0.4276 -0.3523
    1WN      WN  643   2.172   2.001   4.874 -0.0220 -0.5513  0.2317
    1WN      WN  644   0.556   2.970   1.905  0.1343 -0.2506  0.2975
    1WN      WN  645   2.232   1.028   2.442 -0.0675  0.5210  0.0443
    1WN      WN  646   3.122   1.135   4.365  0.1695  0.0234  0.3289
    1WN      WN  647   5.201   0.337   0.042  0.0641  0.0035  0.2242
    1WN      WN  648   0.584   1.418   2.816 -0.1255 -0.2152  0.0524
    1WN      WN  649   6.284   3.289   5.494  0.0493 -0.0608 -0.2342
    1WN      WN  650   4.693   1.387   5.085 -0.0626 -0.1770  0.0521
    1WN      WN  651   5.949   2.453   5.787  0.1640  0.1445  0.0936
    1WN      WN  652   4.440   5.221   6.132  0.3323 -0.0683 -0.1436
    1WN      WN  653   4.862   1.167   6.398  0.3710 -0.1586 -0.2060
    1WN      WN  654   4.517   5.039   5.620 -0.1470  0.0235 -0.0980
    1WN      WN  655   0.606   6.440   0.979  0.2649  0.3789  0.2392
    1WN      WN  656   5.593   2.484   4.968  0.3404 -0.6577  0.1060
    1WN      WN  657   0.646   4.462   3.898  0.2503 -0.1622 -0.2296
    1WN      WN  658   2.659   1.857   2.801  0.0574  0.0539 -0.1331
    1WN      WN  659   3.059   2.045   2.331  0.0346  0.3272 -0.0605
    1WN      WN  660   0.561   1.914   5.383 -0.0126  0.0260 -0.0659
    1WN      WN  661   0.023   1.613   3.720 -0.1666 -0.0876 -0.1330
    1WN      WN  662   2.663   4.522   1.960  0.1184 -0.0676  0.0194
    1WN      WN  663   4.799   4.094   6.306 -0.1226  0.0250 -0.1074
    1WN      WN  664   5.256   4.299   6.194 -0.1840  0.2018 -0.0025
    1WN      WN  665   5.061   1.070   5.975 -0.0989  0.2314 -0.0477
    1WN      WN  666   3.980   5.649   5.089  0.0526 -0.0097 -0.1093
    1WN      WN  667   5.913   0.959   5.354  0.0849 -0.0573  0.1444
    1WN      WN  668   0.179   1.984   6.035 -0.0808  0.1109 -0.0142
    1WN      WN  669   5.137   3.237   6.120 -0.3973 -0.0767 -0.1477
    1WN      WN  670   2.841   2.409   5.324 -0.1791  0.3396  0.3142
    1WN      WN  671   4.094   5.350   0.937 -0.0814  0.2241  0.0474
    1WN      WN  672   1.443   1.068   3.008  0.1092 -0.1672 -0.2609
    1WN      WN  673   1.896   1.670   5.157  0.0892 -0.1319  0.4632
    1WN      WN  674   5.508   1.946   0.010  0.0502  0.1527  0.3069
    1WN      WN  675   1.952   2.852   5.982 -0.0628  0.0786  0.0146
    1WN      WN  676   5.415   1.221   0.196  0.0508 -0.0487  0.2975
    1WN      WN  677   3.901   5.559   4.597  0.1546 -0.0803 -0.3817
    1WN      WN  678   1.139   1.143   0.793  0.1864  0.0873 -0.1204
    1WN      WN  679   4.822   5.949   2.508  0.0040  0.0555 -0.3050
    1WN      WN  680   1.289   3.587   0.846  0.2808  0.1008  0.4155
    1WN      WN  681   5.014   5.297   1.592 -0.1050  0.0723  0.1086
    1WN      WN  682   0.750   0.085   3.384  0.1030 -0.0522  0.0441
    1WN      WN  683   2.179   6.095   0.971  0.1202  0.0153  0.0268
    1WN      WN  684   6.432   0.139   2.764  0.1785 -0.1038  0.0495
    1WN      WN  685   2.928   0.352   0.290 -0.2508  0.2329 -0.2279
    1WN      WN  686   1.880   2.138   3.695 -0.1316 -0.0596 -0.1104
    1WN      WN  687   4.502   1.146   1.263 -0.0257  0.0868 -0.0361
    1WN      WN  688   3.476   3.990   5.203 -0.4224  0.1494 -0.1822
    1WN      WN  689   3.357   5.954   0.570 -0.0056 -0.0258 -0.0428
    1WN      WN  690   1.365   0.764   0.505 -0.0605 -0.0973 -0.1598
    1WN      WN  691   2.642   4.490   5.805  0.0369 -0.2758  0.0508
    1WN      WN  692   0.870   3.906   5.177 -0.1115  0.2609  0.5900
    1WN      WN  693   3.901   1.084   1.516  0.0337  0.0439  0.1570
    1WN      WN  694   0.231   3.173   1.625 -0.1421  0.0925  0.5938
    1WN      WN  695   4.262   4.304   2.648  0.3110 -0.3515  0.3284
    1WN      WN  696   6.440   4.306   5.458  0.3078  0.0462 -0.1173
    1WN      WN  697   0.711   4.991   1.190  0.0146 -0.0801  0.0105
    1WN      WN  698   2.779   0.250   1.644  0.0412 -0.0501 -0.0035
    1WN      WN  699   1.227   2.335   1.330 -0.0242 -0.2507 -0.4922
    1WN      WN  700   4.816   6.546   0.278  0.1724  0.3155  0.1279
    1WN      WN  701   4.917   3.998   2.627 -0.4439  0.0028  0.3090
    1WN      WN  702   4.118   0.435   0.735  0.0561 -0.4680 -0.0142
    1WN      WN  703   0.461   2.452   2.645 -0.2933 -0.3319 -0.0620
    1WN      WN  704   1.571   3.037   0.820 -0.2469  0.0732 -0.2223
    1WN      WN  705   3.789   4.534   4.165 -0.4395 -0.0141  0.0035
    1WN      WN  706   5.543   1.880   1.857  0.0756  0.2711  0.1962
    1WN      WN  707   4.563   0.086   2.322 -0.3086 -0.1367 -0.0424
    1WN      WN  708   5.769   1.184   3.262 -0.2234  0.0628 -0.2298
    1WN      WN  709   4.131   6.083   0.143  0.3174  0.1691 -0.1241
    1WN      WN  710   5.675   5.103   5.833 -0.0793  0.0143  0.1026
    1WN      WN  711   6.475   5.834   4.704  0.3086 -0.1282  0.1111
    1WN      WN  712   5.317   1.174   4.421 -0.2808  0.1444  0.0773
    1WN      WN  713   3.315   1.573   4.337 -0.0285  0.0546  0.2689
    1WN      WN  714   1.947   6.122   3.441 -0.1861  0.1991  0.0463
    1WN      WN  715   0.035   3.161   4.799  0.1744 -0.4544 -0.0195
    1WN      WN  716   0.902   0.832   1.450 -0.0244 -0.1390 -0.3495
    1WN      WN  717   1.230   6.055   1.127  0.0136  0.1091 -0.1786
    1WN      WN  718   1.203   6.491   2.550  0.1209 -0.0493 -0.0560
    1WN      WN  719   2.486   4.286   2.380  0.2827 -0.2035  0.2478
    1WN      WN  720   0.370   4.672   4.334  0.2447  0.1169 -0.3636
    1WN      WN  721   3.765   0.544   0.259  0.0907 -0.0606 -0.3496
    1WN      WN  722   1.851   2.404   4.738 -0.1953 -0.0799 -0.1306
    1WN      WN  723   1.229   2.454   3.152 -0.0587 -0.0565  0.1218
    1WN      WN  724   5.572   3.330   0.071  0.1737  0.0182  0.2778
    1WN      WN  725   0.153   3.308   0.661 -0.0242  0.1226 -0.0733
    1WN      WN  726   4.151   4.823   5.878 -0.1813  0.1956  0.1136
    1WN      WN  727   1.319   3.607   2.290  0.0720 -0.3012 -0.0535
    1WN      WN  728   4.448   1.319   2.744  0.1900 -0.2239  0.0115
    1WN      WN  729   2.039   1.357   2.787 -0.1666  0.1925  0.2861
    1WN      WN  730   2.255   1.742   1.937 -0.2001 -0.1325 -0.0617
    1WN      WN  731   1.516   5.548   3.067  0.0267 -0.2280 -0.3335
    1WN      WN  732   3.912   1.809   4.230  0.0497 -0.0351 -0.5155
    1WN      WN  733   1.305   6.543   6.245  0.0983 -0.2281 -0.2070
    1WN      WN  734   6.281   2.694   4.302 -0.2069 -0.2458  0.0302
    1WN      WN  735   0.136   1.205   1.589  0.1777 -0.0759 -0.0132
    1WN      WN  736   4.471   4.217   5.500  0.0216  0.3710  0.2553
    1WN      WN  737   6.416   5.316   5.028 -0.1537 -0.4650 -0.0163
    1WN      WN  738   6.120   0.631   3.237 -0.3077  0.0083  0.0674
    1WN      WN  739   0.703   6.177   4.161  0.0954 -0.2339 -0.0013
    1WN      WN  740   5.199   1.554   2.025  0.1683  0.2392 -0.0834
    1WN      WN  741   1.961   1.947   0.783  0.1370 -0.2470 -0.2000
    1WN      WN  742   2.364   0.545   6.160 -0.1037  0.0947 -0.3444
    1WN      WN  743   2.833   5.991   0.695 -0.2456  0.0992 -0.1786
    1WN      WN  744   5.832   0.874   1.750  0.0979  0.0950 -0.1511
    1WN      WN  745   2.420   1.433   6.227 -0.2635  0.0894 -0.0945
    1WN      WN  746   3.330   1.572   0.012  0.0206 -0.0822  0.1477
    1WN      WN  747   3.228   1.572   2.189 -0.1416 -0.2295  0.0498
    1WN      WN  748   1.096   3.414   5.394  0.2725 -0.2968 -0.0742
    1WN      WN  749   2.310   2.245   4.439 -0.1347 -0.0196 -0.1301
    1WN      WN  750   4.566   0.310   1.524  0.1755 -0.1180  0.2758
    1WN      WN  751   0.481   3.786   3.643 -0.1020 -0.0956 -0.1552
    1WN      WN  752   4.574   5.103   1.290 -0.0487 -0.2543 -0.0462
    1WN      WN  753   5.053   0.776   3.553 -0.1609 -0.0377  0.0061
    1WN      WN  754   1.089   5.248   3.758  0.0849  0.2507  0.0392
    1WN      WN  755   6.221   3.358   2.359 -0.1581 -0.0705 -0.1916
    1WN      WN  756   3.680   3.485   5.888  0.2342  0.0054 -0.2885
    1WN      WN  757   4.878   1.200   3.064 -0.0098  0.0658  0.1148
    1WN      WN  758   1.612   4.589   0.831  0.2924 -0.1185 -0.4004
    1WN      WN  759   0.317   2.487   0.896  0.1294  0.0642  0.3567
    1WN      WN  760   3.607   1.324   0.462 -0.0835  0.0096 -0.0801
    1WN      WN  761   1.668   3.915   3.232 -0.2150  0.2364 -0.1283
    1WN      WN  762   0.705   5.865   0.703  0.3588  0.2473 -0.0754
    1WN      WN  763   1.951   4.489   1.908  0.0168  0.0235 -0.0467
    1WN      WN  764   2.136   0.985   1.164  0.0504 -0.0977 -0.1139
    1WN      WN  765   3.835   4.854   5.303  0.0309  0.1270 -0.0726
    1WN      WN  766   0.189   0.781   4.480 -0.1658  0.2461 -0.1786
    1WN      WN  767   5.850   1.309   0.503  0.4856  0.0031 -0.1313
    1WN      WN  768   0.991   5.493   0.615 -0.1332 -0.3548 -0.0558
    1WN      WN  769   2.945   5.115   3.321 -0.3120  0.0021 -0.0391
    1WN      WN  770   4.237   1.062   3.785  0.0999 -0.3735  0.0477
    1WN      WN  771   1.993   5.208   0.496 -0.2533  0.1449  0.2541
    1WN      WN  772   1.567   5.825   1.898 -0.1809 -0.1019  0.1711
    1WN      WN  773   0.640   6.443   2.752  0.0247 -0.0883 -0.1187
    1WN      WN  774   5.260   3.480   4.604 -0.0527 -0.3905  0.0518
    1WN      WN  775   1.490   1.983   1.723 -0.1380  0.3109 -0.1842
    1WN      WN  776   2.131   6.150   2.578 -0.1038 -0.1030  0.0214
    1WN      WN  777   5.075   6.030   6.178 -0.1278  0.6259  0.1565
    1WN      WN  778   0.035   2.584   3.253  0.3060  0.1296 -0.0237
    1WN      WN  779   3.531   2.076   0.700  0.1259 -0.1215  0.0729
    1WN      WN  780   5.952   3.229   3.202  0.2949 -0.1697 -0.3184
    1WN      WN  781   0.097   0.866   2.087 -0.2215 -0.2634  0.0705
    1WN      WN  782   6.100   0.461   1.517  0.2420  0.0204  0.0595
    1WN      WN  783   3.811   0.394   1.152 -0.1484  0.3259  0.0084
    1WN      WN  784   6.470   1.281   5.915 -0.1132  0.2622 -0.3190
    1WN      WN  785   4.148   3.905   0.271 -0.1708 -0.2728 -0.1504
    1WN      WN  786   4.160   3.661   1.952  0.0590  0.4074 -0.0763
    1WN      WN  787   3.134   4.490   5.899 -0.3289 -0.0532 -0.2294
    1WN      WN  788   5.378   5.972   5.114 -0.0394 -0.1554  0.0015
    1WN      WN  789   1.082   3.352   1.233  0.2059  0.2766 -0.3175
    1WN      WN  790   4.308   2.340   5.001  0.0678  0.2432  0.2558
    1WN      WN  791   5.599   5.919   0.845  0.0296 -0.0407 -0.0428
    1WN      WN  792   0.462   4.526   1.266  0.3723 -0.0542 -0.3262
    1WN      WN  793   6.204   3.253   4.430 -0.0334 -0.0297  0.0338
    1WN      WN  794   0.506   0.085   2.098 -0.1182  0.0019 -0.1360
    1WN      WN  795   3.369   0.107   6.232 -0.1061  0.1654 -0.4727
    1WN      WN  796   3.560   2.038   0.164 -0.2229  0.0946 -0.2235
    1WN      WN  797   1.378   2.751   0.416 -0.0802 -0.2077  0.1885
    1WN      WN  798   1.126   1.305   2.609 -0.1586 -0.0842 -0.2055
    1WN      WN  799   5.963   4.270   5.044 -0.0683 -0.0028  0.3741
    1WN      WN  800   2.941   0.756   2.048 -0.0651  0.0843 -0.1767
    1WN      WN  801   2.114   5.648   0.747  0.2458 -0.0728  0.0210
    1WN      WN  802   1.727   3.835   1.702  0.0571  0.0334  0.0585
    1WN      WN  803   4.651   0.176   6.460  0.2137 -0.1063 -0.0056
    1WN      WN  804   0.683   4.997   4.145 -0.1822  0.2033 -0.0632
    1WN      WN  805   0.782   4.637   0.273 -0.4303 -0.2804  0.1358
    1WN      WN  806   5.210   2.565   4.647 -0.2270  0.3400 -0.1438
    1WN      WN  807   0.703   2.771   6.212 -0.1043 -0.0117 -0.0174
    1WN      WN  808   5.782   2.296   3.213 -0.0667  0.2846 -0.0280
    1WN      WN  809   4.717   1.491   1.753  0.0721  0.1153 -0.1177
    1WN      WN  810   0.783   1.060   4.310 -0.1225 -0.1468 -0.2620
    1WN      WN  811   5.967   1.365   5.981  0.2304  0.0239  0.0599
    1WN      WN  812   3.782   3.151   4.884 -0.0115 -0.1619  0.4037
    1WN      WN  813   4.073   0.876   4.312 -0.0239 -0.1309  0.3076
    1WN      WN  814   4.920   5.571   4.906 -0.0789 -0.1481  0.0056
    1WN      WN  815   4.449   1.706   6.021 -0.1085 -0.0011  0.1220
    1WN      WN  816   4.261   0.555   0.303 -0.1323 -0.1786  0.3343
    1WN      WN  817   1.789   5.362   2.148  0.0590 -0.1505 -0.1494
    1WN      WN  818   4.985   3.041   0.032  0.1416  0.1608 -0.2964
    1WN      WN  819   1.070   1.138   0.068 -0.2226  0.2063 -0.3572
    1WN      WN  820   1.711   3.269   3.099 -0.0580 -0.0292  0.1251
    1WN      WN  821   3.431   3.343   2.411  0.0955  0.0853  0.0066
    1WN      WN  822   4.585   2.214   2.853  0.1024  0.3969  0.0391
    1WN      WN  823   5.906   3.829   2.542 -0.2798  0.0081 -0.0894
    1WN      WN  824   5.492   6.519   1.515 -0.3569  0.2249 -0.0843
    1WN      WN  825   6.152   4.234   0.705 -0.4088 -0.1618  0.0055
    1WN      WN  826   1.764   3.299   4.943 -0.1245  0.3297  0.1064
    1WN      WN  827   6.128   3.657   0.779 -0.0721 -0.0371 -0.0729
    1WN      WN  828   0.649   5.682   3.546  0.3454 -0.1542 -0.2999
    1WN      WN  829   6.335   1.994   0.315  0.2929  0.0299  0.2070
    1WN      WN  830   1.373   0.562   2.217  0.1608  0.0218 -0.4626
    1WN      WN  831   2.005   4.093   2.482 -0.5342  0.0023 -0.3122
    1WN      WN  832   2.806   0.757   0.611  0.0430  0.0719 -0.0292
    1WN      WN  833   5.351   4.764   0.781 -0.2487 -0.1355 -0.1903
    1WN      WN  834   3.626   1.083   4.246  0.0649 -0.3372 -0.0126
    1WN      WN  835   0.702   6.221   1.667 -0.2542 -0.0074 -0.0961
    1WN      WN  836   0.397   4.891   1.912  0.3090  0.1514  0.4154
    1WN      WN  837   3.047   0.365   3.431 -0.1551 -0.2073  0.1305
    1WN      WN  838   4.702   3.523   5.921 -0.3925  0.1253  0.0036
    1WN      WN  839   5.106   6.538   4.893 -0.1531  0.2816  0.1134
    1WN      WN  840   0.765   5.466   4.066  0.0473 -0.0100 -0.1153
    1WN      WN  841   0.274   5.387   4.769  0.1037  0.1743  0.0300
    1WN      WN  842   5.700   3.903   0.613  0.1691 -0.1259 -0.1648
    1WN      WN  843   3.144   0.201   1.226 -0.1755  0.4640 -0.3012
    1WN      WN  844   6.552   2.489   2.698 -0.1196  0.3406 -0.1062
    1WN      WN  845   0.199   6.261   1.943  0.3120  0.0202  0.0467
    1WN      WN  846   0.962   6.200   6.382  0.2832 -0.1759  0.0826
    1WN      WN  847   2.719   2.615   1.652  0.1001 -0.0978  0.1440
    1WN      WN  848   3.134   2.069   4.402  0.2483 -0.1059  0.0183
    1WN      WN  849   4.621   0.274   0.609  0.1112 -0.1431 -0.2158
    1WN      WN  850   1.592   4.327   5.122  0.2150 -0.0582  0.0077
    1WN      WN  851   4.240   2.570   2.749 -0.1209  0.2013 -0.0171
    1WN      WN  852   2.531   5.585   0.959  0.0972 -0.1913 -0.1663
    1WN      WN  853   2.047   3.707   5.680  0.5187  0.1478  0.1435
    1WN      WN  854   1.116   3.056   0.760 -0.3758 -0.1086 -0.0645
    1WN      WN  855   0.064   1.297   2.693 -0.2933 -0.6070 -0.2530
    1WN      WN  856   5.683   5.404   3.342  0.1818 -0.1720  0.1367
    1WN      WN  857   4.600   2.088   6.436 -0.1599  0.1192  0.2494
    1WN      WN  858   1.949   2.815   3.362  0.1146 -0.0192  0.1033
    1WN      WN  859   5.476   5.077   2.018 -0.0655  0.1107 -0.0344
    1WN      WN  860   6.423   3.059   3.171  0.4122  0.0592 -0.0691
    1WN      WN  861   1.660   1.023   2.573  0.0911 -0.1732  0.2037
    1WN      WN  862   1.110   2.437   1.829  0.1955 -0.0343  0.2728
    1WN      WN  863   0.425   4.373   1.939  0.1398 -0.1718 -0.0462
    1WN      WN  864   1.864   2.473   4.171 -0.1999 -0.1565 -0.0736
    1WN      WN  865   4.705   2.689   4.846 -0.2181 -0.3028  0.1123
    1WN      WN  866   5.287   4.629   1.262  0.2694 -0.0826  0.1562
    1WN      WN  867   1.349   6.143   4.827 -0.0228 -0.2195  0.1666
    1WN      WN  868   2.292   0.948   5.928 -0.1606  0.1957  0.0088
    1WN      WN  869   1.533   0.484   5.519 -0.6086 -0.0675 -0.0098
    1WN      WN  870   1.737   3.926   4.176 -0.3037 -0.1382  0.0900
    1WN      WN  871   0.531   0.159   4.142  0.0414 -0.1481 -0.1781
    1WN      WN  872   3.060   3.777   6.336 -0.0508 -0.2523 -0.1894
    1WN      WN  873   0.140   5.294   3.483 -0.0971  0.0440  0.0787
    1WN      WN  874   2.869   2.863   4.410  0.1034 -0.1099 -0.1411
    1WN      WN  875   4.389   4.353   1.366  0.2954  0.1490  0.0671
    1WN      WN  876   6.221   1.349   3.366  0.0173 -0.0995 -0.1990
    1WN      WN  877   4.749   4.640   2.173  0.3233  0.2673  0.1868
    1WN      WN  878   5.097   4.309   4.105 -0.1523 -0.3198 -0.0394
    1WN      WN  879   1.376   3.017   4.449 -0.1283  0.0020  0.0160
    1WN      WN  880   2.231   2.509   3.805  0.0158 -0.0799  0.2010
    1WN      WN  881   4.573   1.641   3.098 -0.2076  0.1763  0.0775
    1WN      WN  882   5.217   0.136   5.842 -0.0837  0.4522  0.2021
    1WN      WN  883   4.753   0.641   1.134  0.1181  0.0777 -0.0194
    1WN      WN  884   6.348   3.912   1.573 -0.0739 -0.2396  0.1581
    1WN      WN  885   3.833   4.120   2.861  0.3725  0.0227  0.1425
    1WN      WN  886   4.880   6.015   5.102  0.0621  0.0483 -0.0952
    1WN      WN  887   0.945   5.756   4.434  0.2361  0.2282 -0.1106
    1WN      WN  888   2.444   2.014   5.302 -0.2300  0.0602  0.0240
    1WN      WN  889   1.747   2.200   1.183 -0.0977  0.4924 -0.4236
    1WN      WN  890   5.083   2.563   5.725 -0.2321  0.1130 -0.0515
    1WN      WN  891   2.298   2.352   3.318  0.4056 -0.0053 -0.0118
    1WN      WN  892   2.637   6.351   0.357 -0.1790  0.4795 -0.1344
    1WN      WN  893   2.933   3.138   3.440 -0.0436 -0.0043  0.1596
    1WN      WN  894   5.639   3.222   1.817 -0.1149 -0.1301 -0.0829
    1WN      WN  895   1.550   4.968   2.444 -0.0369 -0.0528 -0.0111
    1WN      WN  896   3.897   2.413   0.584  0.3498 -0.1353 -0.2101
    1WN      WN  897   5.027   3.844   0.738  0.0970 -0.3112 -0.3032
    1WN      WN  898   1.762   2.069   2.205 -0.0126 -0.0108  0.0198
    1WN      WN  899   1.523   4.755   5.830 -0.4865  0.1296  0.0675
    1WN      WN  900   5.651   2.352   3.790 -0.1090  0.0338 -0.0323
    1WN      WN  901   4.867   0.244   3.331  0.0006  0.3233  0.0427
    1WN      WN  902   1.175   2.702   6.454  0.0863 -0.0054 -0.4551
    1WN      WN  903   6.121   6.176   5.121 -0.0742 -0.0172  0.1829
    1WN      WN  904   6.330   4.186   2.414  0.1377 -0.1603 -0.0566
    1WN      WN  905   1.246   3.782   5.668 -0.0001  0.0413  0.2127
    1WN      WN  906   1.010   1.996   3.060  0.0206 -0.0763  0.2334
    1WN      WN  907   4.667   0.464   5.260 -0.0674 -0.0241  0.2117
    1WN      WN  908   4.825   4.507   2.653  0.2269 -0.3186  0.0764
    1WN      WN  909   0.692   4.215   3.487 -0.2547 -0.0242 -0.1897
    1WN      WN  910   5.336   6.111   1.276  0.0193 -0.0539 -0.1372
    1WN      WN  911   3.757   4.522   6.129 -0.1699 -0.3794 -0.0468
    1WN      WN  912   4.643   3.199   4.150  0.2512 -0.1301 -0.3325
    1WN      WN  913   5.679   0.944   4.902 -0.2732  0.1447  0.2086
    1WN      WN  914   0.089   2.079   3.598 -0.1029 -0.0804  0.3989
    1WN      WN  915   2.632   3.107   0.250  0.3672 -0.1695 -0.1226
    1WN      WN  916   1.300   2.799   1.207  0.1907  0.0146  0.4037
    1WN      WN  917   0.657   2.709   0.194  0.0930 -0.1036  0.1343
    1WN      WN  918   3.914   1.669   3.377  0.0015  0.1875  0.0698
    1WN      WN  919   3.167   6.242   5.940  0.1089 -0.5183  0.4761
    1WN      WN  920   4.434   1.112   4.585 -0.2553 -0.1152  0.0228
    1WN      WN  921   5.246   3.044   3.806  0.1324  0.4696  0.0582
    1WN      WN  922   5.148   2.013   1.179  0.1638 -0.1769  0.3930
    1WN      WN  923   0.482   5.636   6.242 -0.0963 -0.1227  0.1205
    1WN      WN  924   4.823   5.088   3.489 -0.0953 -0.4287 -0.1823
    1WN      WN  925   2.105   4.637   5.911  0.0275 -0.0188  0.0462
    1WN      WN  926   0.824   0.389   2.580 -0.2685  0.1612 -0.1978
    1WN      WN  927   1.870   1.648   3.746 -0.1897 -0.1202  0.0066
    1WN      WN  928   3.916   2.559   2.319  0.1213 -0.1467  0.3254
    1WN      WN  929   6.305   1.242   5.338 -0.0002 -0.3007  0.0935
    1WN      WN  930   3.445   0.655   1.984 -0.1899 -0.0443 -0.0719
    1WN      WN  931   0.248   1.899   0.299 -0.0075  0.2681 -0.0179
    1WN      WN  932   5.863   6.147   1.341 -0.2975 -0.0155  0.1142
    1WN      WN  933   3.318   0.124   5.705 -0.3095  0.1501 -0.3171
    1WN      WN  934   5.749   3.395   0.552 -0.1356  0.0608 -0.1486
    1WN      WN  935   3.742   3.970   6.103 -0.0026 -0.0474 -0.0243
    1WN      WN  936   1.367   3.301   2.741 -0.1721  0.3417 -0.1541
    1WN      WN  937   5.738   0.910   2.799  0.1965 -0.0531  0.1346
    1WN      WN  938   2.141   1.466   3.265  0.2579 -0.1341  0.2079
    1WN      WN  939   1.975   2.148   5.436  0.2185 -0.2365  0.1967
    1WN      WN  940   2.259   2.503   5.538 -0.0606  0.1138  0.1753
    1WN      WN  941   4.540   6.060   0.416  0.3125  0.0209  0.0795
    1WN      WN  942   4.982   1.440   0.302 -0.2586 -0.0865  0.2427
    1WN      WN  943   2.049   4.776   0.793  0.0072 -0.2415 -0.1580
    1WN      WN  944   4.904   4.501   0.311  0.1306  0.0607  0.0062
    1WN      WN  945   3.190   2.054   3.868  0.0088  0.0252  0.0369
    1WN      WN  946   4.191   2.300   3.202  0.0452  0.0272 -0.2031
    1WN      WN  947   1.102   5.857   1.542  0.0723  0.1216  0.2337
    1WN      WN  948   5.979   0.114   4.748 -0.4400 -0.0281  0.4454
    1WN      WN  949   1.646   3.710   1.195 -0.1623  0.2274  0.1997
    1WN      WN  950   0.143   2.161   5.495  0.1855  0.3264 -0.0955
    1WN      WN  951   5.202   4.706   5.055  0.1017 -0.4573  0.1060
    1WN      WN  952   3.551   4.985   2.417  0.2651 -0.2631 -0.1373
    1WN      WN  953   0.286   4.866   3.869 -0.3046 -0.0507 -0.1093
    1WN      WN  954   1.494   0.421   0.076 -0.0533 -0.1567  0.0346
    1WN      WN  955   0.762   3.498   0.324  0.0201 -0.0758 -0.1832
    1WN      WN  956   5.480   4.262   3.637  0.1461 -0.2077 -0.1205
    1WN      WN  957   5.590   5.691   1.410 -0.0276  0.1228 -0.0704
    1WN      WN  958   6.278   2.472   2.005 -0.1184 -0.0399  0.0784
    1WN      WN  959   5.381   4.784   6.139 -0.2093  0.3827 -0.0792
    1WN      WN  960   5.053   1.672   3.230 -0.0566  0.0300  0.0323
    1WN      WN  961   4.471   0.842   0.734  0.3876  0.1033 -0.3860
    1WN      WN  962   5.251   0.308   3.700  0.3301 -0.1055 -0.0515
    1WN      WN  963   1.506   0.486   4.937 -0.1070  0.1151 -0.1219
    1WN      WN  964   6.312   1.375   0.811  0.0383  0.0162 -0.2419
    1WN      WN  965   5.184   0.224   0.505  0.1472  0.1976  0.0837
    1WN      WN  966   2.133   1.404   1.556 -0.0749 -0.0172  0.1893
    1WN      WN  967   4.510   3.181   0.356  0.3214  0.0789  0.0737
    1WN      WN  968   4.866   2.707   1.975 -0.0244 -0.0849  0.1029
    1WN      WN  969   5.587   6.458   1.004 -0.1405 -0.3022  0.2167
    1WN      WN  970   1.620   2.155   2.691  0.0485 -0.0943 -0.2996
    1WN      WN  971   4.641   0.248   5.827  0.0733  0.2286  0.2254
    1WN      WN  972   5.714   0.546   3.878 -0.0968  0.0640 -0.0766
    1WN      WN  973   1.014   1.081   6.069  0.3983 -0.0364  0.2347
    1WN      WN  974   3.152   2.085   2.933  0.1155  0.0496  0.2448
    1WN      WN  975   1.823   4.493   5.524  0.0414  0.4333 -0.1774
    1WN      WN  976   6.243   4.655   2.429 -0.2352 -0.2971  0.0435
    1WN      WN  977   1.740   5.960   0.486 -0.3014  0.0952 -0.1185
    1WN      WN  978   4.703   1.163   3.605 -0.0969 -0.3393  0.1202
    1WN      WN  979   1.309   1.865   1.176  0.2465  0.0611  0.1000
    1WN      WN  980   5.842   3.296   5.188  0.0417 -0.1487 -0.1045
    1WN      WN  981   5.255   5.275   5.680 -0.0154 -0.0684  0.1772
    1WN      WN  982   3.025   6.457   0.005  0.1847 -0.1028 -0.2439
    1WN      WN  983   3.267   2.489   1.388  0.0126  0.1210  0.2667
    1WN      WN  984   0.114   0.132   3.713  0.1924  0.1613 -0.1706
    1WN      WN  985   4.326   2.728   0.405 -0.0409 -0.0595  0.0353
    1WN      WN  986   2.245   6.553   4.615  0.0136 -0.2548  0.0942
    1WN      WN  987   5.655   0.420   2.218  0.0751 -0.2022 -0.1912
    1WN      WN  988   0.508   3.218   5.030 -0.0463  0.1113 -0.3716
    1WN      WN  989   1.384   1.213   3.686 -0.0063 -0.0433 -0.0361
    1WN      WN  990   4.823   0.700   3.150  0.1209 -0.0718  0.2179
    1WN      WN  991   5.784   3.760   1.559  0.0163 -0.3282  0.0196
    1WN      WN  992   4.972   1.003   2.102  0.0406 -0.0599  0.3538
    1WN      WN  993   4.981   0.711   5.633  0.0451  0.4433  0.0741
    1WN      WN  994   5.949   6.459   0.391  0.0149 -0.2277  0.1598
    1WN      WN  995   0.334   6.000   4.987 -0.1660 -0.1947 -0.0196
    1WN      WN  996   3.049   4.565   3.139  0.0836 -0.0680  0.0051
    1WN      WN  997   0.432   0.913   2.696 -0.0553 -0.1885  0.0552
    1WN      WN  998   0.243   6.066   0.795 -0.2506 -0.1816 -0.2819
    1WN      WN  999   1.766   5.290   2.733 -0.1775  0.1127  0.0264
    1WN      WN 1000   3.550   0.081   1.495  0.3005  0.4123 -0.1600
    1WN      WN 1001   0.762   2.174   2.315 -0.2738 -0.2257  0.0374
    1WN      WN 1002   1.065   1.460   4.134  0.1373  0.2031  0.1784
    1WN      WN 1003   3.737   1.623   0.955 -0.0106 -0.0311  0.1390
    1WN      WN 1004   1.054   1.107   3.350  0.1429 -0.3072  0.1295
    1WN      WN 1005   2.737   6.108   4.216 -0.3665 -0.1689 -0.1438
    1WN      WN 1006   5.501   3.434   4.074 -0.2003 -0.0777 -0.1261
    1WN      WN 1007   5.392   5.370   5.176 -0.1352  0.1987 -0.0005
    1WN      WN 1008   4.823   5.294   4.399  0.0849 -0.2171  0.4205
    1WN      WN 1009   1.098   0.385   5.362  0.2144  0.1584 -0.0652
    1WN      WN 1010   1.971   4.073   6.026 -0.1331  0.0660 -0.3966
    1WN      WN 1011   1.528   2.604   6.022  0.0067  0.0594  0.0104
    1WN      WN 1012   6.318   3.910   4.251 -0.0299 -0.1536 -0.0638
    1WN      WN 1013   5.837   4.031   4.011  0.4769  0.3763  0.0060
    1WN      WN 1014   5.267   0.685   4.100 -0.0418  0.1197  0.0064
    1WN      WN 1015   5.157   3.169   1.985  0.0984 -0.1098  0.2658
    1WN      WN 1016   3.197   5.703   1.873 -0.0012  0.2592 -0.0529
    1WN      WN 1017   0.265   4.419   3.454 -0.0141  0.0788 -0.1752
    1WN      WN 1018   2.021   0.221   5.146  0.1730  0.1632 -0.0263
    1WN      WN 1019   6.073   5.004   2.102  0.3589  0.2414 -0.4060
    1WN      WN 1020   3.013   0.893   0.042 -0.0960 -0.0597  0.1711
    1WN      WN 1021   0.533   1.762   3.735  0.1290 -0.0078  0.3509
    1WN      WN 1022   4.687   2.244   1.131  0.0446  0.1262  0.0383
    1WN      WN 1023   3.483   1.624   2.981 -0.2708  0.1946 -0.1373
    1WN      WN 1024   4.049   1.205   1.081  0.2098  0.3662 -0.2574
    1WN      WN 1025   5.392   3.184   2.442  0.0976 -0.0634 -0.1559
    1WN      WN 1026   0.064   6.463   1.083 -0.0227 -0.1202 -0.1014
    1WN      WN 1027   5.609   0.360   0.708  0.0403  0.1113  0.0143
    1WN      WN 1028   2.510   3.292   5.014  0.3523  0.0706 -0.1561
    1WN      WN 1029   6.253   4.302   3.852 -0.1430  0.1704 -0.4044
    1WN      WN 1030   5.944   4.808   6.166 -0.0271 -0.0187  0.0710
    1WN      WN 1031   6.426   1.511   0.332 -0.1831  0.3450  0.1022
    1WN      WN 1032   3.627   0.543   5.505 -0.2013  0.2386  0.0611
    1WN      WN 1033   0.050   3.714   2.386 -0.0895 -0.2514 -0.1338
    1WN      WN 1034   3.337   4.882   6.172  0.0395  0.3117 -0.0202
    1WN      WN 1035   2.102   1.849   6.068  0.0773 -0.0590 -0.0960
    1WN      WN 1036   5.522   4.560   2.724  0.0131 -0.1684 -0.2533
    1WN      WN 1037   3.616   1.090   4.855  0.1355  0.3611 -0.3888
    1WN      WN 1038   3.308   2.039   3.414 -0.2346 -0.3595  0.0010
    1WN      WN 1039   2.822   2.381   4.072  0.2820  0.4007 -0.5068
    1WN      WN 1040   3.446   6.065   6.313 -0.0457 -0.2929 -0.0404
    1WN      WN 1041   5.008   4.318   0.837  0.1155 -0.0472 -0.0707
    1WN      WN 1042   2.446   3.708   6.103 -0.0940 -0.0264  0.1469
    1WN      WN 1043   5.169   6.476   6.344  0.3590 -0.1410 -0.1468
    1WN      WN 1044   6.083   5.564   2.999  0.2461 -0.1276  0.5841
    1WN      WN 1045   1.309   0.669   3.798 -0.1345  0.2203 -0.2101
    1WN      WN 1046   0.493   0.920   1.776  0.0373 -0.0653  0.1286
    1WN      WN 1047   0.558   5.029   5.712  0.2352 -0.2090  0.0706
    1WN      WN 1048   5.363   2.506   1.159  0.4575  0.0409  0.2075
    1WN      WN 1049   5.974   6.110   4.094  0.0791  0.0670 -0.1948
    1WN      WN 1050   2.294   1.163   5.457  0.3410 -0.1915  0.0514
    1WN      WN 1051   3.386   4.507   5.177 -0.1672  0.1838 -0.1009
    1WN      WN 1052   5.934   5.710   5.132 -0.0394  0.0943  0.0992
    1WN      WN 1053   5.028   3.436   3.907 -0.0626 -0.3779 -0.2497
    1WN      WN 1054   5.342   1.308   2.882 -0.3800 -0.0727  0.2655
    1WN      WN 1055   5.661   5.850   3.151 -0.1367 -0.0764  0.1422
    1WN      WN 1056   1.149   4.021   0.124  0.2541 -0.0759 -0.2940
    1WN      WN 1057   6.326   0.443   4.499  0.4067  0.3058  0.1875
    1WN      WN 1058   5.442   6.385   0.352  0.1168  0.2440  0.0191
    1WN      WN 1059   4.223   2.251   0.146  0.1688  0.1326 -0.3420
    1WN      WN 1060   3.196   3.790   2.071  0.1120  0.1519 -0.1709
    1WN      WN 1061   4.366   1.410   6.390 -0.0347  0.1528 -0.3338
    1WN      WN 1062   4.452   1.906   5.102 -0.1152  0.0799 -0.0954
    1WN      WN 1063   2.865   1.674   4.178 -0.4464  0.0113  0.2301
    1WN      WN 1064   6.014   4.820   4.468 -0.3332  0.0512 -0.1782
    1WN      WN 1065   4.405   6.181   1.428  0.1800  0.3443  0.2399
    1WN      WN 1066   4.333   3.267   2.375  0.0066  0.2560  0.1962
    1WN      WN 1067   4.174   4.340   6.341  0.1188 -0.1300 -0.0521
    1WN      WN 1068   4.404   4.261   5.004  0.4772 -0.0741 -0.2072
    1WN      WN 1069   2.373   2.738   4.237 -0.1422 -0.0268 -0.0162
    1WN      WN 1070   2.359   2.972   3.590 -0.2140  0.1978 -0.1603
    1WN      WN 1071   4.534   4.464   6.050  0.0253  0.0375  0.1319
    1WN      WN 1072   2.847   3.371   2.593  0.2312  0.0529  0.1298
    1WN      WN 1073   4.265   4.403   4.462 -0.1593 -0.2387 -0.5655
    1WN      WN 1074   4.457   1.494   5.556  0.0261 -0.0399 -0.0104
    1WN      WN 1075   3.515   2.007   2.010  0.1037 -0.1483 -0.2058
    1WN      WN 1076   0.025   1.538   4.282 -0.0426  0.3630 -0.0007
    1WN      WN 1077   2.218   6.307   0.088  0.2727  0.0705  0.0480
    1WN      WN 1078   5.448   3.324   1.321 -0.1263 -0.1410  0.3775
    1WN      WN 1079   1.354   2.359   0.882  0.0771  0.0893 -0.1424
    1WN      WN 1080   2.940   4.862   5.695  0.1627 -0.2890 -0.0400
    1WN      WN 1081   3.449   4.992   1.422  0.1387  0.2202 -0.0383
    1WN      WN 1082   4.034   6.036   4.756  0.2432  0.2088 -0.0624
    1WN      WN 1083   1.386   0.009   5.657  0.0135 -0.1397  0.1425
    1WN      WN 1084   5.803   1.022   4.366 -0.1858  0.1608 -0.0829
    1WN      WN 1085   6.540   4.703   5.803 -0.0563 -0.0045 -0.1158
    1WN      WN 1086   6.495   4.985   4.690  0.0932 -0.0130  0.1723
    1WN      WN 1087   2.199   4.358   1.083 -0.0792  0.1918 -0.2903
    1WN      WN 1088   3.953   3.470   1.482 -0.1995  0.0389 -0.0173
    1WN      WN 1089   0.891   2.070   4.048 -0.0802 -0.1900 -0.0374
    1WN      WN 1090   5.492   2.435   1.659  0.0096  0.1834 -0.2161
    1WN      WN 1091   1.608   6.515   5.113 -0.0062 -0.0576 -0.1808
    1WN      WN 1092   0.094   1.607   3.108 -0.0263 -0.1199  0.1679
    1WN      WN 1093   1.037   2.356   0.352  0.0311 -0.0977 -0.0553
    1WN      WN 1094   0.213   1.177   5.325 -0.0014  0.1342  0.4916
    1WN      WN 1095   5.297   5.544   1.907 -0.0058 -0.0593 -0.1521
    1WN      WN 1096   0.800   5.653   2.406 -0.0686 -0.2196 -0.0055
    1WN      WN 1097   5.240   3.791   5.411  0.1630  0.1771  0.1608
    1WN      WN 1098   3.852   5.302   5.482 -0.0005  0.2403  0.0127
    1WN      WN 1099   3.265   3.198   5.031 -0.2866 -0.3499 -0.3045
    1WN      WN 1100   1.324   5.635   5.882  0.0106  0.1597  0.1460
    1WN      WN 1101   4.803   5.386   3.898 -0.1722  0.0154  0.0592
    1WN      WN 1102   0.097   1.730   5.203 -0.1049 -0.0420 -0.0812
    1WN      WN 1103   5.412   2.080   4.746 -0.2777  0.2398 -0.2342
    1WN      WN 1104   3.511   0.966   0.163  0.2865  0.2901  0.0362
    1WN      WN 1105   3.822   5.657   6.316 -0.0931  0.2595 -0.3436
    1WN      WN 1106   2.724   1.796   6.289 -0.3313 -0.0066  0.1086
    1WN      WN 1107   0.232   2.368   2.215 -0.1056 -0.3200 -0.1469
    1WN      WN 1108   3.598   0.618   1.487 -0.1375 -0.1652  0.1991
    1WN      WN 1109   5.371   5.614   3.661 -0.0670  0.1269 -0.0026
    1WN      WN 1110   3.786   4.279   0.025  0.1258 -0.1094 -0.0228
    1WN      WN 1111   5.115   6.275   0.879 -0.0460 -0.2648 -0.3407
    1WN      WN 1112   5.672   1.245   1.322 -0.2483  0.1184  0.1143
    1WN      WN 1113   4.808   4.631   5.348 -0.0608  0.5427 -0.4978
    1WN      WN 1114   0.438   5.593   3.102  0.5151  0.1275 -0.0577
    1WN      WN 1115   1.588   1.495   3.318 -0.0351  0.3866 -0.0305
    1WN      WN 1116   5.193   4.511   1.809 -0.1077 -0.1221  0.0111
    1WN      WN 1117   0.294   2.857   2.346 -0.1895  0.1114  0.0267
    1WN      WN 1118   5.089   1.718   4.971 -0.4317  0.1918 -0.1209
    1WN      WN 1119   0.873   4.757   3.068 -0.3083 -0.2254 -0.3831
    1WN      WN 1120   2.206   3.996   1.891 -0.0902 -0.0505 -0.1542
    1WN      WN 1121   6.311   3.439   3.468 -0.0764 -0.2312  0.1600
    1WN      WN 1122   5.572   6.054   6.040  0.1405  0.1362 -0.0373
    1WN      WN 1123   2.034   0.490   5.642  0.1171 -0.0252 -0.2548
    1WN      WN 1124   4.420   5.619   4.288  0.2626 -0.4682  0.0583
    1WN      WN 1125   1.588   2.997   5.361  0.0206 -0.0503  0.3563
    1WN      WN 1126   5.742   2.083   0.999 -0.1194  0.2702 -0.1841
    1WN      WN 1127   3.154   0.626   0.998 -0.3281  0.0285 -0.3326
    1WN      WN 1128   4.180   5.600   1.431  0.0948 -0.1955  0.3612
    1WN      WN 1129   4.031   1.858   6.333 -0.0273  0.0431  0.1283
    1WN      WN 1130   4.126   1.427   5.119  0.2314  0.0729  0.1713
    1WN      WN 1131   0.583   6.127   3.189 -0.1421 -0.0021  0.0195
    1WN      WN 1132   0.952   4.742   3.606 -0.0492 -0.1948 -0.0401
    1WN      WN 1133   4.279   3.295   5.091 -0.1069 -0.0457 -0.1084
    1WN      WN 1134   1.624   6.048   1.464  0.0437 -0.2284 -0.3698
    1WN      WN 1135   2.469   2.736   2.128 -0.1949 -0.0082  0.1349
    1WN      WN 1136   2.159   1.106   6.436 -0.2870  0.2115  0.0906
    1WN      WN 1137   3.308   3.614   5.403  0.1981  0.1532  0.1099
    1WN      WN 1138   0.230   1.037   3.163 -0.1863 -0.0577 -0.0069
    1WN      WN 1139   1.329   3.329   0.419 -0.0240 -0.0430 -0.1245
    1WN      WN 1140   3.873   1.531   0.058 -0.4652  0.1457  0.0797
    1WN      WN 1141   4.238   5.643   0.496 -0.2352  0.1576  0.1960
    1WN      WN 1142   4.534   0.751   6.410  0.0235  0.0860  0.1269
    1WN      WN 1143   1.889   3.453   0.770  0.2213 -0.1340 -0.0137
    1WN      WN 1144   2.133   5.639   1.757 -0.1124 -0.2438 -0.1437
    1WN      WN 1145   5.000   1.105   1.246 -0.2316  0.0385 -0.2362
    1WN      WN 1146   2.781   1.291   3.909 -0.0287  0.1787 -0.0997
    1WN      WN 1147   1.483   4.058   2.105 -0.2436  0.0145  0.0088
    1WN      WN 1148   6.401   5.446   2.482 -0.3249  0.1450 -0.0290
    1WN      WN 1149   4.397   1.783   0.893 -0.0550  0.3212  0.0036
    1WN      WN 1150   0.517   0.353   1.225 -0.0791 -0.0952  0.2220
    1WN      WN 1151   0.952   2.113   0.948  0.2534  0.0418  0.0784
    1WN      WN 1152   0.868   6.328   0.552 -0.1451 -0.1052  0.1772
    1WN      WN 1153   0.608   1.903   2.743 -0.0522  0.2406 -0.1497
    1WN      WN 1154   4.288   1.578   1.381  0.0505 -0.1664 -0.2787
    1WN      WN 1155   6.539   3.910   3.693  0.0347  0.0036  0.3871
    1WN      WN 1156   0.323   1.483   6.162  0.2281 -0.0104  0.1896
    1WN      WN 1157   0.213   3.413   3.222 -0.0460 -0.1149 -0.2533
    1WN      WN 1158   4.550   6.453   1.815 -0.1057  0.0318 -0.1928
    1WN      WN 1159   0.899   0.660   1.990 -0.0158  0.0757  0.2780
    1WN      WN 1160   2.742   2.518   6.288 -0.2398 -0.1319 -0.2795
    1WN      WN 1161   0.125   3.095   1.066 -0.0862  0.0921  0.1196
    1WN      WN 1162   3.499   3.815   0.015  0.2523  0.0343  0.2420
    1WN      WN 1163   0.962   3.542   4.830  0.0976 -0.2507 -0.0574
    1WN      WN 1164   4.022   4.322   5.796 -0.0514 -0.1745  0.3877
    1WN      WN 1165   5.452   4.166   1.040 -0.0692 -0.1228  0.0135
    1WN      WN 1166   3.612   3.293   0.089 -0.0387 -0.2601 -0.1482
    1WN      WN 1167   6.466   4.824   4.186 -0.0806 -0.0175  0.0656
    1WN      WN 1168   5.633   1.452   6.371 -0.0218 -0.0393 -0.2109
    1WN      WN 1169   2.985   2.960   2.165 -0.2333  0.0533 -0.2640
    1WN      WN 1170   0.893   5.872   0.236 -0.0069  0.1494 -0.2987
    1WN      WN 1171   0.807   1.240   5.290  0.1489 -0.1463 -0.0567
    1WN      WN 1172   2.794   0.609   5.927  0.2136 -0.2851 -0.2014
    1WN      WN 1173   4.641   6.496   4.988  0.0368  0.2671  0.3285
    1WN      WN 1174   0.877   6.457   5.941 -0.0423  0.2674  0.1648
    1WN      WN 1175   0.859   4.007   3.907 -0.0261 -0.0191  0.0664
    1WN      WN 1176   6.348   5.528   6.200  0.0334  0.1043 -0.0847
    1WN      WN 1177   3.208   2.449   1.973 -0.2183 -0.0469  0.1664
    1WN      WN 1178   4.521   5.609   5.205 -0.3119  0.0044  0.2213
    1WN      WN 1179   6.060   3.269   6.477  0.0857  0.0959  0.1521
    1WN      WN 1180   0.288   2.722   4.893 -0.1173 -0.1519  0.1849
    1WN      WN 1181   0.570   1.381   3.348 -0.1332 -0.0954  0.3090
    1WN      WN 1182   2.129   2.414   2.863 -0.0783  0.0606 -0.0674
    1WN      WN 1183   6.350   2.833   2.377 -0.4374 -0.1187 -0.0140
    1WN      WN 1184   4.980   1.975   0.155  0.0216  0.0909  0.0346
    1WN      WN 1185   3.183   0.862   3.417  0.0650 -0.1635 -0.3164
    1WN      WN 1186   0.258   3.674   1.789  0.0282  0.1059 -0.1818
    1WN      WN 1187   4.258   3.408   2.883  0.2588  0.0089  0.4002
    1WN      WN 1188   4.391   1.114   3.263  0.0957  0.2410 -0.1507
    1WN      WN 1189   0.572   1.107   6.390  0.0533  0.1195  0.1443
    1WN      WN 1190   1.623   3.231   1.300 -0.0834 -0.1035 -0.1051
    1WN      WN 1191   6.092   1.083   2.360  0.1654 -0.1942 -0.1301
    1WN      WN 1192   5.378   3.636   0.364 -0.0096  0.1182  0.0456
    1WN      WN 1193   5.179   2.667   2.371 -0.0811 -0.0752  0.7419
    1WN      WN 1194   0.032   2.349   4.645 -0.3279 -0.1111  0.2263
    1WN      WN 1195   5.877   4.009   3.522  0.2251  0.2679  0.1216
    1WN      WN 1196   1.343   0.722   6.218 -0.0788 -0.1363 -0.1081
    1WN      WN 1197   2.903   1.201   1.775  0.2013  0.3671 -0.0192
    1WN      WN 1198   5.679   0.341   0.184  0.0284  0.1601 -0.0379
    1WN      WN 1199   4.179   2.715   4.680 -0.1011  0.2427 -0.0645
    1WN      WN 1200   2.545   4.700   1.047  0.0525  0.0697  0.2052
    1WN      WN 1201   5.898   1.904   4.676 -0.1902  0.0507 -0.0485
    1WN      WN 1202   0.059   1.963   2.718 -0.1376 -0.0049 -0.0166
    1WN      WN 1203   4.867   4.922   0.886 -0.0157 -0.0779  0.0052
    1WN      WN 1204   0.858   3.332   2.894 -0.0048 -0.2181  0.0428
    1WN      WN 1205   2.360   1.594   2.403 -0.2823 -0.0533  0.0230
    1WN      WN 1206   4.132   1.128   5.645 -0.1895 -0.1672  0.1504
    1WN      WN 1207   6.495   4.937   6.310  0.2283 -0.2194 -0.0678
    1WN      WN 1208   5.236   1.450   0.941 -0.2387 -0.1597 -0.0963
    1WN      WN 1209   4.483   0.501   4.258  0.0074 -0.0978 -0.1087
    1WN      WN 1210   0.450   1.398   2.005  0.0802  0.0470 -0.0742
    1WN      WN 1211   3.696   6.132   3.448  0.1227 -0.0609 -0.1290
    1WN      WN 1212   3.149   5.208   0.010  0.0551 -0.0786 -0.0833
    1WN      WN 1213   2.739   3.468   2.105 -0.2952 -0.0596 -0.1213
    1WN      WN 1214   3.870   6.124   0.644 -0.2605  0.3337 -0.0781
    1WN      WN 1215   0.073   4.768   1.455 -0.1329  0.0457 -0.0650
    1WN      WN 1216   2.357   4.733   5.477  0.1878  0.2482 -0.2640
    1WN      WN 1217   3.916   5.188   3.367  0.0834 -0.2149 -0.4405
    1WN      WN 1218   2.051   6.472   0.560  0.0511 -0.1490  0.2037
    1WN      WN 1219   3.966   1.967   1.743  0.1569 -0.5331  0.0321
    1WN      WN 1220   5.771   0.911   0.284 -0.2224  0.1807  0.2637
    1WN      WN 1221   4.007   4.952   6.388  0.1586  0.1817 -0.0629
    1WN      WN 1222   4.766   3.492   2.961  0.4906 -0.0344  0.0966
    1WN      WN 1223   6.267   1.113   1.901 -0.0753 -0.0070 -0.2538
    1WN      WN 1224   4.591   6.506   3.946  0.0457  0.0659  0.1450
    1WN      WN 1225   2.410   1.631   3.741  0.0698 -0.1234  0.2007
    1WN      WN 1226   1.602   6.424   1.117 -0.0468 -0.2539  0.0318
    1WN      WN 1227   6.101   1.184   4.903  0.4209  0.0912  0.1344
    1WN      WN 1228   5.706   4.643   2.050  0.1523 -0.0188  0.0624
    1WN      WN 1229   2.069   2.913   0.430  0.1198 -0.1516 -0.0202
    1WN      WN 1230   1.373   3.635   6.103 -0.0362  0.1225 -0.2283
    1WN      WN 1231   2.292   6.548   6.151 -0.2242  0.0644 -0.2323
    1WN      WN 1232   1.488   2.403   4.406  0.1121 -0.0187  0.1953
    1WN      WN 1233   1.217   5.632   4.891  0.0775 -0.0159  0.2076
    1WN      WN 1234   1.198   0.130   0.314 -0.1796  0.2900 -0.0665
    1WN      WN 1235   3.702   5.680   1.715  0.2635 -0.2834  0.0775
    1WN      WN 1236   3.491   3.875   2.499 -0.0873 -0.0479  0.0953
    1WN      WN 1237   1.499   2.217   5.741  0.1239  0.1272  0.0519
    1WN      WN 1238   1.513   4.232   5.836 -0.4556 -0.1424 -0.3082
    1WN      WN 1239   5.552   2.589   0.641  0.2614 -0.1174 -0.0823
    1WN      WN 1240   3.658   2.423   1.716 -0.0949  0.2542  0.1117
    1WN      WN 1241   6.315   6.059   3.111  0.3968 -0.2743  0.1110
    1WN      WN 1242   6.218   3.862   5.298  0.0357 -0.1249  0.1488
    1WN      WN 1243   0.746   1.880   0.407 -0.0656 -0.2347 -0.1269
    1WN      WN 1244   6.478   4.987   5.352  0.0578  0.0074 -0.0549
    1WN      WN 1245   1.102   5.162   0.140 -0.0581 -0.1560 -0.2041
    1WN      WN 1246   1.312   1.140   2.113 -0.0137 -0.3261 -0.3248
    1WN      WN 1247   5.515   1.670   0.427 -0.1881  0.0849 -0.1856
    1WN      WN 1248   0.715   5.294   4.560 -0.0002  0.2390 -0.1223
    1WN      WN 1249   5.457   2.897   6.359  0.1905  0.1008  0.1153
    1WN      WN 1250   0.950   0.640   6.485  0.0903  0.1290 -0.4610
    1WN      WN 1251   2.852   4.962   6.234 -0.0452 -0.2479 -0.1872
    1WN      WN 1252   1.278   4.730   0.083 -0.0658  0.0613  0.2512
    1WN      WN 1253   0.472   0.191   6.134 -0.0819  0.1722 -0.0824
    1WN      WN 1254   0.695   3.925   1.829  0.3409  0.1226 -0.1537
    1WN      WN 1255   0.677   6.522   0.075  0.1453  0.1724 -0.0170
    1WN      WN 1256   2.570   0.683   0.148 -0.2720  0.1137  0.0656
    1WN      WN 1257   5.365   1.025   1.670  0.1226  0.0405 -0.0825
    1WN      WN 1258   4.377   1.584   3.649  0.0780 -0.1943 -0.0007
    1WN      WN 1259   4.701   1.422   2.244  0.2030  0.0037 -0.0617
    1WN      WN 1260   4.889   3.291   1.304 -0.0174 -0.2112  0.0895
    1WN      WN 1261   4.249   4.608   5.318 -0.2749  0.1662 -0.1579
    1WN      WN 1262   5.535   6.129   3.709  0.0081 -0.0345  0.0439
    1WN      WN 1263   0.647   5.736   1.778  0.1271  0.0014 -0.0994
    1WN      WN 1264   4.803   5.065   4.925 -0.2863  0.2070 -0.1791
    1WN      WN 1265   5.964   5.977   4.585  0.2511  0.0785 -0.1100
    1WN      WN 1266   5.507   1.059   5.625 -0.0907  0.1189  0.2545
    1WN      WN 1267   1.422   3.390   1.762  0.1094  0.1659  0.0969
    1WN      WN 1268   1.604   4.360   0.235  0.1368 -0.0135  0.3178
    1WN      WN 1269   5.540   3.474   3.417  0.0505  0.1202  0.0671
    1WN      WN 1270   5.304   6.129   4.643  0.0101  0.0081  0.0977
    1WN      WN 1271   4.872   3.690   4.307  0.3832 -0.1416 -0.0682
    1WN      WN 1272   1.776   3.101   2.616 -0.1166  0.2939 -0.0683
    1WN      WN 1273   4.351   5.478   3.139  0.3498  0.2666  0.0243
    1WN      WN 1274   3.393   3.140   5.655 -0.1552  0.1758  0.1038
    1WN      WN 1275   2.962   4.328   1.325 -0.2391 -0.1680 -0.0380
    1WN      WN 1276   4.028   0.988   0.078  0.2547 -0.1572  0.0522
    1WN      WN 1277   1.093   5.679   5.421  0.0604  0.2391 -0.0080
    1WN      WN 1278   2.735   1.999   4.882 -0.0503 -0.0444 -0.0418
    1WN      WN 1279   6.228   3.476   1.766 -0.1893 -0.1035  0.1685
    1WN      WN 1280   5.139   2.271   6.321  0.2049  0.0898  0.0169
    1WN      WN 1281   1.112   6.291   1.996 -0.0134  0.0042  0.1959
    1WN      WN 1282   4.345   3.815   1.501 -0.0167  0.1012  0.0385
    1WN      WN 1283   5.692   0.324   1.200 -0.2358 -0.2780  0.0092
    1WN      WN 1284   5.682   1.784   1.365  0.0708  0.0282 -0.2062
    1WN      WN 1285   1.783   0.378   0.521  0.1683  0.2372 -0.0332
    1WN      WN 1286   5.142   2.552   0.143 -0.0860 -0.0977 -0.1221
    1WN      WN 1287   4.976   2.968   3.293 -0.0711 -0.0623 -0.1723
    1WN      WN 1288   6.273   1.168   1.300  0.2960 -0.0198  0.1709
    1WN      WN 1289   4.729   2.626   2.587 -0.0574  0.3261 -0.3332
    1WN      WN 1290   1.283   5.938   2.348  0.0093  0.3661 -0.0866
    1WN      WN 1291   5.405   5.779   0.451  0.2263  0.1639  0.5244
    1WN      WN 1292   4.605   0.973   4.079 -0.2229 -0.1394 -0.3320
    1WN      WN 1293   3.007   0.415   6.362  0.2800  0.0271  0.2870
    1WN      WN 1294   4.757   6.461   5.493 -0.1322  0.3167  0.2962
    1WN      WN 1295   0.355   4.454   5.576  0.0641  0.2813  0.1846
    1WN      WN 1296   1.859   1.121   0.723  0.4774 -0.2532  0.2489
    1WN      WN 1297   4.904   4.602   6.363 -0.1297  0.0642  0.0662
    1WN      WN 1298   6.406   5.439   1.116 -0.3005 -0.0385 -0.3459
    1WN      WN 1299   6.119   0.650   0.017  0.3587 -0.1274  0.4009
    1WN      WN 1300   2.043   4.953   2.386 -0.1720  0.1333  0.2358
    1WN      WN 1301   0.886   3.797   1.093  0.1554  0.1812 -0.4601
    1WN      WN 1302   5.977   0.223   4.179 -0.1108 -0.1477  0.0755
    1WN      WN 1303   5.209   4.822   5.534 -0.2650 -0.1755  0.0201
    1WN      WN 1304   1.335   5.585   4.084  0.0042  0.0001  0.0590
    1WN      WN 1305   1.270   2.606   5.339 -0.0828 -0.2500 -0.0420
    1WN      WN 1306   0.179   2.997   3.610 -0.1288 -0.0934  0.2040
    1WN      WN 1307   3.163   1.995   1.669  0.1676 -0.0609 -0.5216
    1WN      WN 1308   4.100   1.993   1.220 -0.0748 -0.3049  0.1972
    1WN      WN 1309   0.645   4.533   6.044 -0.1895  0.3245  0.3233
    1WN      WN 1310   4.632   0.599   3.729 -0.2124 -0.0296  0.2129
    1WN      WN 1311   4.832   4.425   4.926  0.2515 -0.1716 -0.2198
    1WN      WN 1312   4.054   4.048   2.332  0.0498  0.0485 -0.0757
    1WN      WN 1313   6.436   5.999   1.141 -0.1031  0.2374 -0.1713
    1WN      WN 1314   3.328   3.866   5.887  0.0678 -0.1258  0.2227
    1WN      WN 1315   3.605   5.270   0.064 -0.0529 -0.0326 -0.1348
    1WN      WN 1316   2.567   0.151   0.034  0.2124 -0.4381 -0.0175
    1WN      WN 1317   3.797   2.042   5.870  0.0406  0.1643  0.3826
    1WN      WN 1318   6.077   5.115   4.051 -0.1351 -0.0170 -0.2779
    1WN      WN 1319   2.312   1.643   4.237 -0.0606 -0.1771  0.2685
    1WN      WN 1320   1.306   6.407   3.086 -0.2211 -0.1223  0.0344
    1WN      WN 1321   2.431   0.184   5.731  0.1391 -0.0924 -0.0410
    1WN      WN 1322   4.320   6.155   4.258  0.1387  0.1516 -0.1868
    1WN      WN 1323   6.363   2.076   2.363  0.0884 -0.1576 -0.0555
    1WN      WN 1324   5.621   4.543   4.761  0.1255  0.0857  0.0746
    1WN      WN 1325   6.419   5.775   5.215  0.2701  0.3908 -0.0038
    1WN      WN 1326   4.964   4.962   4.094 -0.1422 -0.0710  0.3240
    1WN      WN 1327   4.165   0.149   5.734  0.0339 -0.3855 -0.1661
    1WN      WN 1328   4.873   0.280   1.976 -0.0060  0.0947 -0.0038
    1WN      WN 1329   4.510   2.018   1.546 -0.2298  0.1884 -0.1749
    1WN      WN 1330   0.487   2.892   3.122 -0.1346 -0.1650  0.0717
    1WN      WN 1331   4.314   6.103   5.160  0.0618 -0.3959  0.1000
    1WN      WN 1332   4.502   3.201   3.301 -0.0997 -0.1354  0.2323
    1WN      WN 1333   3.043   4.752   1.568 -0.1961 -0.4520  0.1911
    1WN      WN 1334   4.379   3.942   6.149  0.0994 -0.2089 -0.0237
    1WN      WN 1335   4.880   3.966   0.296  0.3279 -0.1313 -0.1249
    1WN      WN 1336   1.878   1.411   5.865 -0.0266 -0.1242  0.2674
    1WN      WN 1337   2.561   3.246   4.237  0.0732 -0.0585 -0.2081
    1WN      WN 1338   5.605   2.838   2.844 -0.1524 -0.0572  0.0182
    1WN      WN 1339   3.228   4.303   2.483  0.0328  0.0943  0.2362
    1WN      WN 1340   1.065   0.044   1.090 -0.0135 -0.2409 -0.1482
    1WN      WN 1341   5.683   6.352   4.388  0.1478  0.0914  0.3445
    1WN      WN 1342   1.927   6.271   4.392 -0.2395 -0.0188  0.1292
    1WN      WN 1343   1.558   1.052   0.015 -0.0276 -0.0538  0.5210
    1WN      WN 1344   2.214   2.685   1.581 -0.3245 -0.2247  0.4472
    1WN      WN 1345   3.470   1.769   5.521  0.0790 -0.0593 -0.2181
    1WN      WN 1346   5.280   3.714   5.958  0.0150 -0.1396  0.0472
    1WN      WN 1347   4.566   1.161   0.260 -0.0431  0.2100 -0.5316
    1WN      WN 1348   4.916   3.028   5.638  0.0322 -0.2435  0.1302
    1WN      WN 1349   2.753   1.743   2.053 -0.1503  0.1166 -0.3813
    1WN      WN 1350   0.996   6.006   5.738  0.0439  0.2622 -0.1248
    1WN      WN 1351   4.855   3.743   1.631 -0.1224 -0.1930 -0.1010
    1WN      WN 1352   4.359   4.894   0.658 -0.2688  0.2820  0.2502
    1WN      WN 1353   2.492   2.714   0.783  0.1417 -0.1792  0.0223
    1WN      WN 1354   3.243   1.149   3.897 -0.1196  0.3840 -0.1488
    1WN      WN 1355   4.935   0.320   4.232  0.3214 -0.0805 -0.0059
    1WN      WN 1356   3.590   1.714   2.496 -0.0433 -0.0741 -0.2475
    1WN      WN 1357   0.759   1.027   2.339 -0.1337 -0.3112  0.2019
    1WN      WN 1358   2.599   1.297   4.407 -0.3831 -0.1004 -0.2193
    1WN      WN 1359   0.959   0.628   3.417 -0.0634  0.3186 -0.2474
    1WN      WN 1360   3.507   3.014   0.467  0.1504  0.0924 -0.1661
    1WN      WN 1361   4.906   3.481   0.345 -0.0893  0.3713 -0.1193
    1WN      WN 1362   4.111   0.597   5.381 -0.1414  0.0074  0.0288
    1WN      WN 1363   4.937   2.237   4.896 -0.0362  0.3014  0.1486
    1WN      WN 1364   5.787   3.347   2.729 -0.0457 -0.1588  0.2482
    1WN      WN 1365   0.883   0.707   0.957  0.0754  0.1350  0.3633
    1WN      WN 1366   5.572   3.017   0.867  0.2536  0.0765 -0.1995
    1WN      WN 1367   6.527   2.854   0.611  0.2148 -0.0966 -0.1085
    1WN      WN 1368   3.263   1.167   2.922  0.0925 -0.0217 -0.0545
    1WN      WN 1369   2.066   3.620   3.285 -0.1083  0.2031  0.2374
    1WN      WN 1370   2.315   1.013   3.090  0.1802  0.2975 -0.2877
    1WN      WN 1371   1.259   3.571   3.131 -0.5767  0.1551 -0.1581
    1WN      WN 1372   5.522   6.466   3.293  0.1797 -0.1739  0.2179
    1WN      WN 1373   0.997   3.766   2.722 -0.1337 -0.3184  0.2120
    1WN      WN 1374   1.569   2.721   2.242  0.0876  0.1242  0.1320
    1WN      WN 1375   5.928   1.991   2.678 -0.3294  0.1206 -0.4769
    1WN      WN 1376   4.072   6.011   6.062  0.2872 -0.1595  0.2764
    1WN      WN 1377   6.409   0.481   6.207  0.3272  0.0300  0.0272
    1WN      WN 1378   6.476   3.988   1.038  0.0704  0.1224  0.3911
    1WN      WN 1379   5.695   1.660   3.232  0.2131  0.2182  0.3099
    1WN      WN 1380   5.306   0.690   4.696  0.2802 -0.0026 -0.1108
    1WN      WN 1381   4.579   2.353   4.036 -0.2663 -0.0316  0.1716
    1WN      WN 1382   0.012   6.257   3.458  0.1533  0.0231 -0.0517
    1WN      WN 1383   6.007   4.199   1.835  0.0629 -0.0195 -0.2061
    1WN      WN 1384   4.631   2.904   1.471  0.3607 -0.1676 -0.0260
    1WN      WN 1385   0.561   5.260   1.590 -0.3063  0.1766 -0.0547
    1WN      WN 1386   4.847   2.878   0.519 -0.0218  0.2225 -0.0410
    1WN      WN 1387   0.166   6.451   2.454 -0.2239 -0.0966 -0.1381
    1WN      WN 1388   6.192   3.791   2.107  0.1364 -0.2635  0.0130
    1WN      WN 1389   0.846   2.927   5.198 -0.1947  0.1579  0.0610
    1WN      WN 1390   3.167   3.887   0.882 -0.0068 -0.0821 -0.0435
    1WN      WN 1391   6.551   5.316   1.609 -0.1264 -0.0966 -0.1554
    1WN      WN 1392   0.824   5.187   5.194 -0.0618  0.0946 -0.1380
    1WN      WN 1393   3.746   1.172   2.658  0.1372  0.1845  0.2353
    1WN      WN 1394   2.799   3.065   2.994 -0.3405 -0.0529 -0.0071
    1WN      WN 1395   1.069   4.022   6.172  0.0456 -0.1194 -0.1149
    1WN      WN 1396   2.420   4.802   0.461 -0.0385 -0.1124 -0.2502
    1WN      WN 1397   1.524   1.471   0.917  0.1134  0.1766 -0.1538
    1WN      WN 1398   5.564   5.677   4.733 -0.0486  0.3038  0.0539
    1WN      WN 1399   5.523   1.310   5.202  0.0965  0.2717 -0.0117
    1WN      WN 1400   6.170   6.488   2.367 -0.2754  0.3857 -0.2726
    1WN      WN 1401   5.550   2.399   2.598 -0.1555  0.0353  0.0473
    1WN      WN 1402   0.235   6.174   4.512  0.3008  0.0388  0.1657
    1WN      WN 1403   6.104   1.490   4.485 -0.2706 -0.0453 -0.0849
    1WN      WN 1404   2.706   5.543   2.083  0.0507  0.0398  0.1767
    1WN      WN 1405   6.036   1.757   0.649  0.1376  0.1213 -0.1966
    1WN      WN 1406   6.388   1.612   6.360  0.2246  0.0190 -0.0091
    1WN      WN 1407   3.929   3.231   2.105 -0.0528 -0.0152 -0.0139
    1WN      WN 1408   0.031   5.245   0.599  0.1146  0.1316 -0.1290
    1WN      WN 1409   1.780   1.858   0.297  0.0396 -0.1172  0.0358
    1WN      WN 1410   2.974   2.898   6.012  0.1909  0.1929 -0.3419
    1WN      WN 1411   1.167   1.909   2.607 -0.4608  0.3222  0.0254
    1WN      WN 1412   4.970   0.763   1.645  0.0015 -0.1373  0.3159
    1WN      WN 1413   6.268   0.034   3.257  0.1769 -0.1670  0.1455
    1WN      WN 1414   5.620   3.615   0.979 -0.2011 -0.3625 -0.0399
    1WN      WN 1415   3.136   1.462   5.931 -0.1898 -0.0264  0.0746
    1WN      WN 1416   0.941   3.589   6.444 -0.1039 -0.0883 -0.0398
    1WN      WN 1417   5.445   1.120   2.269 -0.2254 -0.0111  0.2223
    1WN      WN 1418   0.452   1.968   1.292 -0.0805 -0.1027 -0.2779
    1WN      WN 1419   0.683   1.286   1.029 -0.4788 -0.0050 -0.3428
    1WN      WN 1420   2.226   3.224   2.357 -0.0160  0.1016 -0.4158
    1WN      WN 1421   1.650   5.240   0.129 -0.0637  0.2111 -0.1883
    1WN      WN 1422   6.331   6.203   1.548  0.2130  0.2670  0.1330
    1WN      WN 1423   5.690   1.565   0.942 -0.0972  0.1040 -0.1153
    1WN      WN 1424   2.142   2.606   6.400 -0.0771  0.0312  0.0845
    1WN      WN 1425   2.718   3.739   2.914 -0.1633 -0.2516 -0.1685
    1WN      WN 1426   2.466   4.979   2.081  0.2170 -0.0243  0.3275
    1WN      WN 1427   3.598   3.796   1.142 -0.3201  0.2992  0.5128
    1WN      WN 1428   1.142   2.946   2.452 -0.0500  0.1048  0.3398
    1WN      WN 1429   1.509   6.048   4.264 -0.1902 -0.1458  0.0231
    1WN      WN 1430   0.468   4.648   2.735  0.2059 -0.2495 -0.0129
    1WN      WN 1431   3.381   0.629   4.523  0.1494  0.1283 -0.1817
    1WN      WN 1432   0.641   3.158   0.655  0.1232  0.2789 -0.3568
    1WN      WN 1433   0.295   2.625   5.430 -0.0185  0.1510  0.1482
    1WN      WN 1434   3.811   3.344   0.856  0.1286 -0.3589 -0.0246
    1WN      WN 1435   5.908   4.639   4.017  0.2530  0.0205  0.0718
    1WN      WN 1436   0.138   4.892   3.128 -0.0160  0.2420 -0.2374
    1WN      WN 1437   5.716   2.045   5.559 -0.0329 -0.0269 -0.0585
    1WN      WN 1438   1.974   2.663   5.115 -0.1987  0.0718  0.0109
    1WN      WN 1439   3.960   2.951   0.659 -0.0631  0.2116  0.1450
    1WN      WN 1440   2.577   2.982   6.332 -0.3530  0.0275 -0.1537
    1WN      WN 1441   0.576   2.213   4.585  0.1040 -0.0665  0.1416
    1WN      WN 1442   3.604   1.876   4.602 -0.0325 -0.5896 -0.1606
    1WN      WN 1443   2.872   5.181   1.752 -0.2205 -0.0705  0.2708
    1WN      WN 1444   1.134   1.987   4.529 -0.0112  0.0829 -0.2476
    1WN      WN 1445   3.065   1.926   0.226 -0.0582 -0.0892 -0.2764
    1WN      WN 1446   0.595   0.350   5.664 -0.1833  0.3275 -0.2413
    1WN      WN 1447   0.490   6.216   6.298 -0.2149  0.4428  0.1123
    1WN      WN 1448   6.092   2.790   2.897 -0.1714  0.2002  0.0393
    1WN      WN 1449   0.856   6.122   4.807  0.1519 -0.1056 -0.2277
    1WN      WN 1450   2.811   2.385   4.607 -0.0423 -0.2167 -0.0894
    1WN      WN 1451   2.326   0.994   0.684  0.3445  0.2803 -0.0471
    1WN      WN 1452   1.480   0.865   1.071  0.2043 -0.2329  0.3022
    1WN      WN 1453   1.537   5.519   0.646 -0.0893 -0.1201  0.1699
    1WN      WN 1454   1.341   5.254   5.171  0.0204  0.1440 -0.3283
    1WN      WN 1455   1.451   4.971   0.536 -0.1694 -0.1859 -0.0124
    1WN      WN 1456   0.016   0.328   2.261 -0.3593  0.1101  0.0674
    1WN      WN 1457   4.250   4.790   1.111  0.2799 -0.2118  0.0599
    1WN      WN 1458   4.377   5.559   2.336  0.2039 -0.3895  0.2920
    1WN      WN 1459   0.195   1.501   1.156 -0.2354 -0.0110  0.0156
    1WN      WN 1460   4.374   1.921   4.284  0.1881  0.1622 -0.0417
    1WN      WN 1461   4.012   0.565   2.941  0.5935  0.3674 -0.0103
    1WN      WN 1462   2.199   3.552   2.789  0.1859 -0.1380 -0.1762
    1WN      WN 1463   1.144   4.313   1.771 -0.1291  0.0550  0.2814
    1WN      WN 1464   4.266   0.532   2.438 -0.1005  0.0230  0.1657
    1WN      WN 1465   1.904   0.546   2.507  0.0719 -0.0630  0.1234
    1WN      WN 1466   4.302   0.183   1.090 -0.3649 -0.1167  0.0946
    1WN      WN 1467   3.959   4.160   1.138  0.2791 -0.1012 -0.3306
    1WN      WN 1468   5.056   1.151   5.437  0.0070  0.2088 -0.1649
    1WN      WN 1469   0.452   6.174   3.661 -0.0677 -0.0935 -0.3216
    1WN      WN 1470   6.484   6.105   0.419  0.0379 -0.0110  0.0256
    1WN      WN 1471   4.674   1.372   0.826 -0.4174 -0.3642  0.1186
    1WN      WN 1472   2.688   0.763   2.473  0.1015  0.1065 -0.1464
    1WN      WN 1473   2.989   5.888   6.217 -0.0086 -0.0602 -0.0786
    1WN      WN 1474   4.165   0.586   3.885  0.1832  0.0252  0.1007
    1WN      WN 1475   0.600   1.809   6.495 -0.2191 -0.1502  0.0926
    1WN      WN 1476   3.223   2.530   3.112  0.2500  0.3831 -0.1586
    1WN      WN 1477   1.998   3.189   1.653 -0.0226  0.0541  0.1487
    1WN      WN 1478   0.935   2.960   1.558 -0.0288 -0.0372  0.1492
    1WN      WN 1479   1.316   4.120   2.588 -0.2559 -0.0230 -0.2117
    1WN      WN 1480   6.548   3.915   4.879  0.1711 -0.6035 -0.1968
    1WN      WN 1481   6.242   0.238   5.789 -0.2178 -0.0681  0.1485
    1WN      WN 1482   6.289   4.783   3.688  0.0656 -0.2562 -0.0576
    1WN      WN 1483   2.948   1.191   2.353 -0.0516  0.6331 -0.1849
    1WN      WN 1484   2.901   2.926   4.914 -0.3375  0.1132  0.3340
    1WN      WN 1485   2.590   1.059   5.023  0.0445 -0.2460  0.2738
    1WN      WN 1486   0.003   2.341   0.560 -0.0383 -0.1347 -0.3420
    1WN      WN 1487   0.420   3.528   2.731 -0.0313 -0.0708 -0.1226
    1WN      WN 1488   6.507   5.804   1.860  0.2015  0.0164 -0.0608
    1WN      WN 1489   5.691   1.489   4.252 -0.0228 -0.0487 -0.0493
    1WN      WN 1490   3.491   4.279   5.652  0.0963 -0.0280  0.1547
    1WN      WN 1491   0.216   6.265   2.918  0.1679 -0.0025 -0.3745
    1WN      WN 1492   0.843   1.023   3.804 -0.4851 -0.1147  0.1934
    1WN      WN 1493   3.407   2.385   5.462  0.2566 -0.2035 -0.1083
    1WN      WN 1494   3.616   4.179   0.519 -0.0618  0.0875  0.0468
    1WN      WN 1495   1.795   1.924   4.248 -0.1761  0.1448  0.1808
    1WN      WN 1496   3.188   0.239   1.934 -0.0037 -0.0559 -0.1332
    1WN      WN 1497   2.494   2.433   4.986  0.1680  0.1107 -0.2476
    1WN      WN 1498   2.533   5.462   1.538  0.4163  0.1402 -0.0852
    1WN      WN 1499   4.837   0.690   0.359 -0.0695  0.0640  0.1677
    1WN      WN 1500   4.567   3.949   2.158  0.1281  0.1968 -0.1246
    1WN      WN 1501   1.286   5.126   2.026  0.0827  0.2968 -0.1092
    1WN      WN 1502   4.456   4.810   6.397 -0.0019 -0.0045 -0.0992
    1WN      WN 1503   4.520   2.317   4.524 -0.3658  0.2783  0.0818
    1WN      WN 1504   0.022   1.438   4.792  0.0262  0.1209  0.2801
    1WN      WN 1505   1.060   0.316   3.013  0.2181 -0.0324  0.2363
    1WN      WN 1506   6.036   4.479   2.981 -0.2164 -0.0477 -0.0364
    1WN      WN 1507   0.529   4.911   3.435 -0.2670  0.0150  0.0954
    1WN      WN 1508   4.248   6.403   6.312 -0.1150  0.0286  0.0444
    1WN      WN 1509   2.193   5.101   2.841 -0.0794  0.1628 -0.0509
    1WN      WN 1510   0.476   0.383   0.279  0.0460  0.0069 -0.2139
    1WN      WN 1511   5.281   1.750   5.482 -0.0960  0.0457 -0.0059
    1WN      WN 1512   3.120   2.957   1.084  0.0327  0.0233 -0.4617
    1WN      WN 1513   2.655   2.155   1.447  0.0327 -0.0103  0.0379
    1WN      WN 1514   3.026   3.916   1.586 -0.0441  0.2841  0.0647
    1WN      WN 1515   3.443   5.176   3.518 -0.1998 -0.2510 -0.0728
    1WN      WN 1516   5.923   0.821   1.236 -0.0741 -0.1188 -0.1639
    1WN      WN 1517   3.392   0.177   0.243  0.1159 -0.2085 -0.2805
    1WN      WN 1518   0.345   4.342   0.313  0.2188 -0.0975  0.3124
    1WN      WN 1519   1.475   1.981   3.449 -0.1146  0.0921  0.1990
    1WN      WN 1520   3.781   1.129   3.204 -0.0387  0.2084  0.0132
    1WN      WN 1521   3.816   5.688   0.273  0.0289 -0.1686 -0.2004
    1WN      WN 1522   4.377   3.620   4.394  0.2032  0.0036 -0.0866
    1WN      WN 1523   3.873   5.877   5.548  0.4394  0.0065 -0.0931
    1WN      WN 1524   3.296   2.539   4.326  0.0526  0.2906  0.0528
    1WN      WN 1525   2.855   5.064   0.694 -0.1155 -0.0467  0.2545
    1WN      WN 1526   5.338   4.688   3.347  0.5539  0.0069 -0.2957
    1WN      WN 1527   3.159   1.001   6.162  0.0149  0.0653 -0.1325
    1WN      WN 1528   5.505   5.097   0.035  0.0893  0.4864  0.1721
    1WN      WN 1529   1.857   3.580   2.326 -0.2831 -0.0221 -0.0113
    1WN      WN 1530   2.678   3.204   0.796  0.1122  0.2372  0.0298
    1WN      WN 1531   1.931   0.205   4.253  0.1875 -0.1968  0.2817
    1WN      WN 1532   6.234   4.170   0.218 -0.0005  0.0934  0.1739
    1WN      WN 1533   5.528   2.911   3.409 -0.0606 -0.5550 -0.0259
    1WN      WN 1534   4.829   0.870   4.973 -0.0313  0.2084  0.0555
    1WN      WN 1535   2.077   4.344   0.554  0.0222  0.1447 -0.0525
    1WN      WN 1536   4.295   2.461   1.404 -0.0203 -0.4002  0.1798
    1WN      WN 1537   6.553   1.821   0.814 -0.0610 -0.4325 -0.2151
    1WN      WN 1538   4.325   5.868   2.835 -0.1755 -0.4044  0.1979
    1WN      WN 1539   6.056   1.226   6.548 -0.0672  0.1741 -0.0342
    1WN      WN 1540   5.054   6.385   3.502 -0.3216  0.2719 -0.3854
    1WN      WN 1541   2.773   0.993   1.094 -0.2078 -0.2598 -0.1809
    1WN      WN 1542   2.624   0.797   1.520 -0.1132 -0.0823  0.1071
    1WN      WN 1543   3.745   1.524   2.026  0.1099 -0.1779  0.2873
    1WN      WN 1544   1.381   4.976   3.441 -0.2120 -0.2690  0.0760
    1WN      WN 1545   0.627   0.501   4.525 -0.0244  0.1227 -0.0744
    1WN      WN 1546   4.022   2.110   2.738 -0.1386  0.0384  0.1078
    1WN      WN 1547   4.725   6.339   6.018 -0.4538 -0.0515  0.0442
    1WN      WN 1548   6.156   2.376   3.861  0.1247  0.0557  0.2891
    1WN      WN 1549   2.050   1.865   3.009  0.0663 -0.4106 -0.2440
    1WN      WN 1550   4.704   5.615   1.242  0.0904 -0.3361  0.2978
    1WN      WN 1551   2.419   0.673   2.074  0.1434 -0.4187  0.0052
    1WN      WN 1552   0.805   1.891   4.900 -0.1812 -0.0697  0.1239
    1WN      WN 1553   0.104   4.274   1.569 -0.1953 -0.1086 -0.0968
    1WN      WN 1554   5.304   0.680   2.522  0.0835  0.2896 -0.1441
    1WN      WN 1555   6.390   4.521   1.961 -0.1116 -0.1237 -0.0627
    1WN      WN 1556   3.863   2.744   0.120  0.4092 -0.2357 -0.2832
    1WN      WN 1557   0.881   2.640   0.762  0.1315 -0.0047  0.0210
    1WN      WN 1558   4.589   1.133   5.898  0.0437 -0.0126  0.2479
    1WN      WN 1559   5.096   1.159   3.942  0.0585 -0.2560 -0.2402
    1WN      WN 1560   1.103   1.635   5.857  0.0381 -0.0666  0.0075
    1WN      WN 1561   1.985   1.061   4.318 -0.3065 -0.0528 -0.0546
    1WN      WN 1562   0.234   5.766   1.458  0.2335 -0.0707 -0.0902
    1WN      WN 1563   4.334   1.013   2.371 -0.1756 -0.0198 -0.0192
    1WN      WN 1564   1.382   2.314   3.948 -0.1381  0.0065  0.0370
    1WN      WN 1565   4.534   2.600   5.782 -0.0231  0.2462 -0.0710
    1WN      WN 1566   2.530   1.407   1.189 -0.1086  0.4766 -0.0504
    1WN      WN 1567   0.318   5.485   2.544 -0.0096  0.0080  0.1298
    1WN      WN 1568   3.024   4.013   0.233  0.1151 -0.0288 -0.1094
    1WN      WN 1569   4.283   3.520   0.981  0.0234 -0.3534 -0.0112
    1WN      WN 1570   5.809   2.920   2.379 -0.2182  0.1631  0.0031
    1WN      WN 1571   2.095   1.462   0.979  0.3089  0.1484  0.0366
    1WN      WN 1572   0.938   2.058   3.565 -0.2041 -0.1588  0.1384
    1WN      WN 1573   1.786   2.173   6.368  0.3316 -0.0613 -0.0815
    1WN      WN 1574   0.236   5.194   4.272  0.0354 -0.0371  0.1441
    1WN      WN 1575   0.322   4.883   0.310 -0.4998  0.2303  0.1173
    1WN      WN 1576   5.172   1.749   6.324 -0.2031 -0.2077  0.0985
    1WN      WN 1577   5.933   3.762   0.150  0.0766 -0.0089 -0.1002
    1WN      WN 1578   0.386   2.826   5.867  0.1602  0.1683  0.0896
    1WN      WN 1579   4.606   4.220   3.006  0.2020 -0.2446 -0.1672
    1WN      WN 1580   1.682   2.464   1.798 -0.2471 -0.3138  0.0032
    1WN      WN 1581   3.915   3.775   5.078 -0.0292  0.3122 -0.0389
    1WN      WN 1582   0.440   6.137   0.270  0.0688 -0.0434  0.0372
    1WN      WN 1583   2.597   3.846   0.021  0.0595 -0.1235  0.0619
    1WN      WN 1584   4.109   2.923   1.279 -0.3483  0.2449 -0.1054
    1WN      WN 1585   4.451   3.806   2.629  0.1589 -0.1741  0.0181
    1WN      WN 1586   1.473   5.350   4.527  0.0721 -0.0644 -0.1685
    1WN      WN 1587   1.053   4.325   4.906 -0.1629  0.0704 -0.0175
    1WN      WN 1588   3.491   6.235   0.962 -0.5395 -0.0127  0.1374
    1WN      WN 1589   2.944   1.682   3.193  0.2284 -0.0702  0.0701
    1WN      WN 1590   2.393   0.372   2.496  0.0431 -0.0790 -0.0318
    1WN      WN 1591   3.109   2.510   2.425  0.1363  0.0432 -0.2914
    1WN      WN 1592   5.093   2.067   3.852 -0.0205  0.2725 -0.2103
    1WN      WN 1593   5.756   3.244   4.682 -0.0264 -0.1046 -0.1443
    1WN      WN 1594   2.630   0.943   6.307  0.2483 -0.0734 -0.2760
    1WN      WN 1595   5.943   2.722   5.219 -0.0519 -0.0532 -0.1295
    1WN      WN 1596   3.201   4.268   1.934  0.1032 -0.2288  0.2800
    1WN      WN 1597   4.181   1.485   2.299 -0.2818  0.1368  0.0293
    1WN      WN 1598   0.531   0.411   3.703 -0.1285 -0.1479  0.2379
    1WN      WN 1599   0.652   0.633   6.045 -0.0178 -0.0986 -0.2754
    1WN      WN 1600   2.189   0.148   1.946  0.1059 -0.2817 -0.4142
    1WN      WN 1601   4.494   2.302   0.640  0.0212  0.0175  0.1233
    1WN      WN 1602   3.135   4.796   2.630 -0.1627  0.2569  0.0018
    1WN      WN 1603   5.373   2.068   3.456 -0.3251 -0.0927 -0.6311
    1WN      WN 1604   1.250   0.961   4.223  0.1535  0.2843  0.0749
    1WN      WN 1605   4.131   1.990   3.781 -0.3027  0.0206 -0.2228
    1WN      WN 1606   5.166   0.286   5.339 -0.2281 -0.0440  0.2675
    1WN      WN 1607   5.816   0.386   6.209 -0.1295 -0.0255 -0.1538
    1WN      WN 1608   4.189   4.712   4.053  0.0102  0.1581 -0.1678
    1WN      WN 1609   1.275   4.569   2.854 -0.2508  0.2625  0.1448
    1WN      WN 1610   5.968   6.220   0.840 -0.0935 -0.2868  0.1189
    1WN      WN 1611   1.653   0.412   1.359 -0.1413 -0.0249 -0.2354
    1WN      WN 1612   3.131   2.796   5.421  0.2363  0.0181  0.1253
    1WN      WN 1613   2.809   5.173   1.248  0.2153 -0.0139  0.0655
    1WN      WN 1614   3.892   2.381   5.466 -0.1279 -0.0303  0.1076
    1WN      WN 1615   6.066   4.787   5.003  0.0970  0.3275 -0.1932
    1WN      WN 1616   5.468   0.236   4.160  0.0041 -0.0191  0.2424
    1WN      WN 1617   6.096   3.944   4.693  0.4847 -0.0391  0.1277
    1WN      WN 1618   6.223   2.206   0.932  0.3400  0.0941 -0.0462
    1WN      WN 1619   3.587   2.890   5.262 -0.1691  0.2533  0.2755
    1WN      WN 1620   5.180   3.745   1.178 -0.1012 -0.1164  0.0303
    1WN      WN 1621   4.341   4.741   1.696  0.0864 -0.1747  0.0246
    1WN      WN 1622   5.331   2.992   0.439  0.3008  0.1317  0.0930
    1WN      WN 1623   3.781   6.200   1.803  0.4568  0.0302 -0.0233
    1WN      WN 1624   0.697   4.749   4.743 -0.1770 -0.0231 -0.1998
    1WN      WN 1625   1.042   1.540   3.633  0.0200  0.3822 -0.2056
    1WN      WN 1626   2.088   6.194   5.862  0.1108  0.0034  0.0324
    1WN      WN 1627   0.482   3.462   1.070 -0.0066 -0.1066  0.0664
    1WN      WN 1628   0.993   4.690   5.637 -0.1578 -0.1341  0.0020
    1WN      WN 1629   0.180   2.613   0.162 -0.2399 -0.2504 -0.3790
    1WN      WN 1630   2.703   5.176   2.519  0.0075 -0.4279  0.2236
    1WN      WN 1631   4.791   1.627   1.247  0.3965 -0.0361 -0.2228
    1WN      WN 1632   2.419   2.716   5.903 -0.3825 -0.1829 -0.0573
    1WN      WN 1633   4.612   2.311   1.939 -0.4657 -0.0317 -0.0014
    1WN      WN 1634   2.566   4.392   0.134  0.1539  0.0449  0.2498
    1WN      WN 1635   3.702   6.317   5.862 -0.1311 -0.3168 -0.1847
    1WN      WN 1636   2.281   4.115   5.673 -0.0757 -0.0718 -0.0055
    1WN      WN 1637   1.909   2.927   4.516  0.2698  0.2693  0.0790
    1WN      WN 1638   2.780   2.698   3.441 -0.1476  0.0648  0.2161
    1WN      WN 1639   2.002   2.314   5.951  0.0137 -0.3266  0.0655
    1WN      WN 1640   5.248   6.019   3.271 -0.3275  0.1086  0.3128
    1WN      WN 1641   1.685   2.899   4.057 -0.0722 -0.0196  0.0744
    1WN      WN 1642   3.596   4.724   0.025 -0.2215 -0.4214  0.1689
    1WN      WN 1643   2.393   3.506   0.494  0.2851  0.0750  0.1863
    1WN      WN 1644   5.785   1.555   5.531  0.2578 -0.0611  0.0033
    1WN      WN 1645   3.182   2.099   1.139  0.2648 -0.1412  0.3660
    1WN      WN 1646   2.821   0.346   5.397 -0.2363 -0.0626  0.2152
    1WN      WN 1647   4.946   4.572   3.716  0.2769  0.0000 -0.5693
    1WN      WN 1648   0.170   4.180   4.480 -0.0063 -0.0224 -0.2563
    1WN      WN 1649   3.238   0.842   2.555 -0.2213  0.1249  0.1612
    1WN      WN 1650   0.274   0.894   5.768  0.1473 -0.1259 -0.0462
    1WN      WN 1651   4.096   2.857   1.748  0.0131  0.0546  0.0644
    1WN      WN 1652   0.729   3.060   5.655  0.2241  0.0712 -0.1860
    1WN      WN 1653   0.238   5.972   2.373  0.4565  0.2241 -0.3411
    1WN      WN 1654   2.229   3.092   2.962  0.0072  0.1312  0.1872
    1WN      WN 1655   2.602   1.693   1.599 -0.2791  0.2020 -0.3405
    1WN      WN 1656   1.468   1.786   5.423  0.0031 -0.0157  0.0578
    1WN      WN 1657   0.947   2.014   1.535 -0.2820  0.2319 -0.4016
    1WN      WN 1658   1.126   5.148   4.258 -0.2683 -0.1628  0.2746
    1WN      WN 1659   4.891   1.541   5.938  0.0149  0.2559  0.0113
    1WN      WN 1660   2.535   3.667   5.461  0.0713  0.1526 -0.1609
    1WN      WN 1661   1.194   0.814   5.192  0.1370 -0.2714 -0.1022
    1WN      WN 1662   4.705   3.332   0.814 -0.1090 -0.3180  0.0488
    1WN      WN 1663   3.618   1.278   5.785 -0.1249 -0.1728 -0.0770
    1WN      WN 1664   0.897   4.860   2.629 -0.1140  0.2264 -0.0537
    1WN      WN 1665   4.807   2.109   5.959  0.3138  0.1344 -0.0019
    1WN      WN 1666   5.965   2.798   6.176  0.1017  0.0947  0.1075
    1WN      WN 1667   4.628   2.671   3.085 -0.1276  0.0938 -0.2434
    1WN      WN 1668   3.099   1.241   0.364  0.0719 -0.1218 -0.0205
    1WN      WN 1669   3.055   3.298   4.575 -0.1935 -0.1266 -0.0672
    1WN      WN 1670   4.887   0.410   2.622  0.1102  0.1761 -0.2948
    1WN      WN 1671   5.270   5.205   4.638  0.2250  0.1685  0.3328
    1WN      WN 1672   1.544   4.696   1.964 -0.1899 -0.3445  0.5115
    1WN      WN 1673   5.288   5.128   1.182  0.1091 -0.0211  0.0590
    1WN      WN 1674   3.666   0.916   1.055  0.0067 -0.0115  0.1047
    1WN      WN 1675   2.197   2.306   2.012 -0.0476 -0.0413  0.1206
    1WN      WN 1676   0.780   2.679   2.242  0.0568 -0.1079  0.0448
    1WN      WN 1677   0.048   3.984   0.484  0.2336  0.0448  0.2295
    1WN      WN 1678   4.373   2.075   5.638  0.2948 -0.1209  0.0408
    1WN      WN 1679   4.898   4.889   5.959  0.4422  0.1252 -0.3178
    1WN      WN 1680   0.694   2.870   2.693 -0.2992 -0.1329  0.0661
    1WN      WN 1681   1.097   3.216   6.107 -0.3794 -0.0125 -0.0643
    1WN      WN 1682   1.165   1.240   1.281 -0.1675 -0.0326 -0.1743
    1WN      WN 1683   0.316   2.183   5.048 -0.0864  0.0520 -0.2621
    1WN      WN 1684   3.388   3.158   1.943  0.1528 -0.1088  0.1509
    1WN      WN 1685   6.351   6.221   5.529 -0.0992 -0.1081 -0.1847
    1WN      WN 1686   5.202   5.259   3.202 -0.0880 -0.2578  0.2871
    1WN      WN 1687   6.238   5.707   0.142 -0.3470  0.2096 -0.1465
    1WN      WN 1688   5.412   4.667   3.911  0.2942 -0.0153  0.0559
    1WN      WN 1689   6.548   5.073   2.144 -0.1459  0.0617 -0.1088
    1WN      WN 1690   6.414   0.093   1.745  0.0574  0.0567  0.1568
    1WN      WN 1691   6.386   2.001   4.931  0.0408 -0.0416 -0.1295
    1WN      WN 1692   3.531   1.706   6.116  0.0525  0.1185  0.1680
    1WN      WN 1693   2.174   4.503   2.700 -0.1897 -0.2320  0.0660
    1WN      WN 1694   0.929   3.473   1.940  0.1677 -0.4384  0.1710
    1WN      WN 1695   1.086   1.554   6.313 -0.4621 -0.2316 -0.0179
    1WN      WN 1696   5.120   0.329   1.504 -0.0483 -0.3223 -0.2195
    1WN      WN 1697   6.224   6.060   2.645 -0.2383  0.0586  0.0146
    1WN      WN 1698   1.269   3.784   1.468  0.3799  0.0579  0.1395
    1WN      WN 1699   6.009   0.491   0.461 -0.0452 -0.0708  0.0929
    1WN      WN 1700   5.874   3.633   4.375  0.1060 -0.2379 -0.3410
    1WN      WN 1701   0.675   1.675   4.360  0.1932  0.1729  0.2574
    1WN      WN 1702   1.957   6.226   1.954  0.0075  0.2264  0.0451
    1WN      WN 1703   2.733   1.875   1.062  0.3324 -0.2197 -0.1313
    1WN      WN 1704   6.434   3.006   0.053  0.0655 -0.0229 -0.1763
    1WN      WN 1705   4.283   5.825   0.989 -0.4082  0.1545  0.0250
    1WN      WN 1706   4.069   0.097   2.641 -0.1105 -0.0917 -0.2508
    1WN      WN 1707   6.554   0.941   4.914  0.0318 -0.2557 -0.1303
    1WN      WN 1708   6.468   4.629   0.255 -0.0462  0.1097  0.0547
    1WN      WN 1709   4.297   5.173   5.195  0.4059  0.1561 -0.2350
    1WN      WN 1710   0.012   1.108   0.002 -0.0495  0.1794  0.4657
    1WN      WN 1711   2.051   5.624   1.258  0.1160 -0.1383  0.3185
    1WN      WN 1712   1.034   1.700   5.338  0.1615 -0.2642  0.0593
    1WN      WN 1713   2.282   0.357   1.547 -0.0559 -0.0861 -0.1279
    1WN      WN 1714   5.053   6.475   2.417 -0.0575 -0.1679  0.0336
    1WN      WN 1715   2.525   1.337   0.205  0.3119 -0.0813  0.0457
    1WN      WN 1716   1.619   0.011   4.593  0.0392 -0.0743 -0.1274
    1WN      WN 1717   5.280   0.574   1.982 -0.2698 -0.1572  0.1966
    1WN      WN 1718   4.492   3.095   4.710  0.1104  0.0268  0.0182
    1WN      WN 1719   4.486   5.738   3.806 -0.4164  0.3076  0.0971
    1WN      WN 1720   4.057   0.136   1.612  0.2499 -0.2928  0.2296
    1WN      WN 1721   0.002   4.674   0.787  0.1978 -0.0590  0.0357
    1WN      WN 1722   6.492   6.092   6.140  0.0693 -0.0333  0.1071
    1WN      WN 1723   0.090   1.696   1.695 -0.1769  0.1469  0.1052
    1WN      WN 1724   0.725   5.647   4.875  0.0294  0.0240  0.1929
    1WN      WN 1725   4.991   2.741   6.201  0.3820 -0.2690 -0.2357
    1WN      WN 1726   4.787   4.561   1.176  0.1371  0.1946  0.2547
    1WN      WN 1727   1.624   3.739   2.762  0.1313  0.2009  0.2211
    1WN      WN 1728   5.360   3.848   4.250 -0.0737 -0.2794  0.1439
    1WN      WN 1729   5.754   1.509   3.733  0.0517  0.0440 -0.0242
    1WN      WN 1730   2.532   4.322   0.687  0.0138  0.0459 -0.1163
    1WN      WN 1731   0.214   6.537   0.571 -0.0089  0.3260  0.2071
    1WN      WN 1732   5.253   2.398   3.091 -0.5196 -0.3920  0.0803
    1WN      WN 1733   4.101   6.491   4.859 -0.1455  0.0900  0.0572
    1WN      WN 1734   6.383   3.101   6.101  0.0686  0.2005 -0.1880
    1WN      WN 1735   5.976   6.449   6.093  0.0252 -0.2446  0.0746
    1WN      WN 1736   4.900   1.918   2.252 -0.0387  0.0255  0.1032
    1WN      WN 1737   0.323   5.614   0.901  0.1277  0.1482 -0.1228
    1WN      WN 1738   2.235   2.464   1.131  0.3577  0.0775 -0.0460
    1WN      WN 1739   0.632   1.294   5.771  0.0994  0.2848  0.0577
    1WN      WN 1740   2.649   5.975   1.285 -0.0166 -0.1293 -0.1578
    1WN      WN 1741   5.792   4.512   0.924 -0.0910 -0.0365  0.2843
    1WN      WN 1742   5.440   0.703   1.342  0.0355 -0.2180 -0.0381
    1WN      WN 1743   5.091   2.852   0.913  0.1061  0.0231  0.0323
    1WN      WN 1744   6.215   4.394   4.360 -0.0803  0.3693 -0.2450
    1WN      WN 1745   1.275   4.123   1.063 -0.1039 -0.0607 -0.0481
    1WN      WN 1746   0.859   1.341   4.730 -0.0073 -0.1457 -0.0195
    1WN      WN 1747   2.766   4.327   2.789  0.3983 -0.1629 -0.3130
    1WN      WN 1748   0.082   0.681   3.587  0.0322  0.1863 -0.3034
    1WN      WN 1749   3.784   0.705   2.484  0.1277 -0.1355  0.5393
    1WN      WN 1750   2.562   2.877   5.293 -0.2449 -0.2076  0.1727
    1WN      WN 1751   6.509   1.538   2.203  0.0579  0.1234  0.1477
    1WN      WN 1752   1.905   0.608   0.919  0.0389 -0.0596 -0.0804
    1WN      WN 1753   4.801   3.555   5.389 -0.0563 -0.0893 -0.0953
    1WN      WN 1754   1.532   4.058   6.366  0.2781 -0.2656 -0.0756
    1WN      WN 1755   3.635   1.175   6.301  0.1068  0.1295 -0.2233
    1WN      WN 1756   2.579   4.224   1.575  0.1563 -0.1881  0.6815
    1WN      WN 1757   6.540   1.006   4.050 -0.2210 -0.0261  0.0616
    1WN      WN 1758   2.645   3.556   4.647 -0.1761 -0.2561 -0.0475
    1WN      WN 1759   2.456   5.714   0.035  0.0107  0.3205  0.1716
    1WN      WN 1760   4.099   6.433   3.361  0.0642  0.1153  0.4165
    1WN      WN 1761   4.441   4.336   0.711 -0.0892 -0.1889 -0.4219
    1WN      WN 1762   3.760   1.048   5.367 -0.2682  0.0571  0.0325
    1WN      WN 1763   1.504   0.340   3.370  0.2062  0.0695  0.0221
    1WN      WN 1764   6.073   4.758   5.596 -0.1069  0.0650  0.1626
    1WN      WN 1765   3.104   2.899   6.551 -0.1318 -0.0270 -0.4039
    1WN      WN 1766   1.087   0.380   5.890 -0.2098 -0.3665  0.3692
    1WN      WN 1767   5.748   0.031   5.677 -0.2011  0.0820 -0.1728
    1WN      WN 1768   0.221   5.114   1.102  0.0623  0.2309  0.1535
    1WN      WN 1769   6.088   1.525   1.562  0.2756  0.1870  0.1486
    1WN      WN 1770   0.175   6.281   4.036 -0.1979  0.0328 -0.3774
    1WN      WN 1771   4.698   1.837   4.697  0.0784  0.2028 -0.0951
    1WN      WN 1772   3.382   6.065   1.447 -0.0370  0.1935  0.1418
    1WN      WN 1773   0.932   4.944   0.624  0.1583 -0.0994 -0.0342
    1WN      WN 1774   2.325   4.503   4.877  0.1906  0.0722  0.2378
    1WN      WN 1775   1.027   6.156   3.498  0.2818  0.2112 -0.0531
    1WN      WN 1776   2.889   3.632   5.080  0.0043 -0.1839  0.1246
    1WN      WN 1777   2.330   2.066   3.991 -0.0725 -0.1002 -0.0529
    1WN      WN 1778   5.057   3.850   4.943 -0.1149 -0.1377  0.0912
    1WN      WN 1779   5.075   4.198   4.575 -0.2981  0.0962  0.3434
    1WN      WN 1780   6.241   6.493   3.787 -0.0480  0.0981 -0.1085
    1WN      WN 1781   1.407   5.090   6.282 -0.0503  0.1266  0.2305
    1WN      WN 1782   6.309   2.065   4.331 -0.0952 -0.1653 -0.0145
    1WN      WN 1783   0.384   4.025   5.259 -0.2732 -0.1446  0.3696
    1WN      WN 1784   3.802   6.558   6.443 -0.0870  0.2750 -0.0659
    1WN      WN 1785   2.477   2.582   0.323  0.1023 -0.3393  0.1676
    1WN      WN 1786   5.704   3.518   2.176 -0.3021 -0.0877  0.0979
    1WN      WN 1787   0.049   2.183   1.761 -0.0671 -0.2061  0.2898
    1WN      WN 1788   5.226   1.531   1.520  0.0718  0.2607  0.1267
    1WN      WN 1789   3.349   3.361   6.267 -0.2719  0.0859 -0.1887
    1WN      WN 1790   2.414   6.478   2.318 -0.2679 -0.0230  0.3044
    1WN      WN 1791   2.416   0.870   4.477  0.0892  0.0182  0.1519
    1WN      WN 1792   5.642   4.406   1.520 -0.0837  0.1755  0.0614
    1WN      WN 1793   1.364   5.122   2.913  0.1954  0.2100  0.2872
    1WN      WN 1794   6.077   3.064   1.958 -0.0702  0.1946 -0.0422
    1WN      WN 1795   4.926   0.804   4.415 -0.0156  0.0647 -0.3159
    1WN      WN 1796   6.139   1.651   5.068 -0.1280 -0.0794 -0.2529
    1WN      WN 1797   5.838   5.520   3.839  0.2110 -0.1529  0.0026
    1WN      WN 1798   3.758   2.369   1.121  0.4228 -0.1321  0.1166
    1WN      WN 1799   6.491   1.994   1.343  0.0029  0.0387  0.5237
    1WN      WN 1800   6.373   5.425   4.441  0.1088  0.1187  0.2240
    1WN      WN 1801   2.380   1.243   1.994  0.3894 -0.2231  0.4736
    1WN      WN 1802   6.200   0.390   3.688 -0.0401  0.1107 -0.0220
    1WN      WN 1803   1.679   4.558   6.235 -0.0866 -0.4048  0.0435
    1WN      WN 1804   1.379   1.408   4.514 -0.0902  0.3091  0.3433
    1WN      WN 1805   1.704   1.159   1.464 -0.2860 -0.0179  0.1932
    1WN      WN 1806   5.062   1.987   1.725  0.0862 -0.3509  0.1140
    1WN      WN 1807   0.332   4.153   2.558  0.1030 -0.0643  0.2004
    1WN      WN 1808   4.880   6.261   4.468  0.0247  0.3812 -0.3300
    1WN      WN 1809   0.315   3.830   4.219 -0.2186  0.1717  0.0355
    1WN      WN 1810   2.017   2.045   1.637  0.0773 -0.0336  0.0878
    1WN      WN 1811   1.212   1.580   1.646 -0.0082 -0.0786  0.0301
    1WN      WN 1812   5.238   4.720   4.489  0.0802  0.0409 -0.1858
    1WN      WN 1813   6.161   0.613   2.079  0.2053 -0.2576 -0.0064
    1WN      WN 1814   2.973   4.436   5.419  0.1182 -0.3220  0.1770
    1WN      WN 1815   4.864   4.968   0.358 -0.0381  0.2519  0.0281
    1WN      WN 1816   5.318   3.264   2.975 -0.0709 -0.4745 -0.3038
    1WN      WN 1817   4.512   3.775   5.091 -0.2188  0.4351  0.0910
    1WN      WN 1818   6.195   1.100   2.952 -0.0144 -0.0553 -0.1888
    1WN      WN 1819   6.305   0.077   0.690  0.2007 -0.1875  0.1274
    1WN      WN 1820   4.538   0.995   1.783  0.3502  0.0579  0.2110
    1WN      WN 1821   5.428   2.881   5.897  0.1233  0.1657 -0.2244
    1WN      WN 1822   3.812   2.559   5.004  0.1919 -0.1163  0.0409
    1WN      WN 1823   4.912   5.586   3.323 -0.1913 -0.3952 -0.0924
    1WN      WN 1824   3.145   2.119   6.334 -0.0448  0.0469  0.1614
    1WN      WN 1825   2.974   6.325   2.157 -0.0979  0.0729 -0.2657
    1WN      WN 1826   0.562   3.766   2.288 -0.0813  0.0094 -0.1399
    1WN      WN 1827   0.405   3.956   1.312  0.2324  0.0648  0.0820
    1WN      WN 1828   4.841   2.167   3.311  0.5522 -0.1399  0.1473
    1WN      WN 1829   5.020   5.877   3.784  0.0454 -0.1110  0.0674
    1WN      WN 1830   1.708   1.030   4.771 -0.1630  0.0594  0.0725
    1WN      WN 1831   5.474   0.999   0.691 -0.1279 -0.0337 -0.1033
    1WN      WN 1832   2.776   1.227   3.372  0.2594  0.1332 -0.2317
    1WN      WN 1833   0.333   0.431   1.792  0.2868 -0.0926  0.1382
    1WN      WN 1834   0.797   4.707   2.141  0.0187 -0.0200 -0.1226
    1WN      WN 1835   1.127   2.503   4.816  0.3501  0.2006 -0.4030
    1WN      WN 1836   2.090   5.161   1.821 -0.1594  0.3116 -0.1698
    1WN      WN 1837   0.970   4.093   2.203 -0.1895  0.3731  0.1211
    1WN      WN 1838   3.442   1.048   1.680  0.0287  0.0767  0.0039
    1WN      WN 1839   5.198   5.723   2.912  0.1323 -0.1006 -0.0966
    1WN      WN 1840   1.497   3.080   5.817 -0.0631 -0.0422 -0.2571
    1WN      WN 1841   2.339   5.980   0.483 -0.0588  0.0780 -0.1562
    1WN      WN 1842   0.085   2.754   1.863  0.1097 -0.0257 -0.1631
    1WN      WN 1843   4.595   5.358   0.710 -0.0451 -0.0271 -0.1591
    1WN      WN 1844   2.769   2.465   1.075 -0.1472 -0.1123  0.1180
    1WN      WN 1845   0.389   1.448   0.192 -0.0927 -0.2769  0.1839
    1WN      WN 1846   5.281   6.185   2.748 -0.0636  0.1986 -0.1025
    1WN      WN 1847   1.586   0.610   4.301  0.5061  0.2317 -0.0800
    1WN      WN 1848   1.356   0.591   2.732 -0.0033 -0.0576 -0.1587
    1WN      WN 1849   0.512   0.554   3.072  0.0745 -0.0146 -0.3188
    1WN      WN 1850   4.652   2.601   0.021  0.1259  0.1591 -0.0821
    1WN      WN 1851   6.016   2.138   1.501 -0.0860 -0.1216 -0.3281
    1WN      WN 1852   4.681   2.440   5.342  0.0918 -0.0766  0.1964
    1WN      WN 1853   2.781   1.322   5.422  0.1792  0.1765  0.1332
    1WN      WN 1854   0.082   3.960   6.505  0.0152  0.2117  0.0462
    1WN      WN 1855   1.409   0.130   4.165 -0.3273  0.1112 -0.2393
    1WN      WN 1856   4.380   3.782   3.197  0.5881 -0.2349  0.4339
    1WN      WN 1857   3.547   1.589   5.053  0.0920 -0.2010  0.3111
    1WN      WN 1858   6.533   0.769   1.590 -0.1898 -0.4784 -0.2066
    1WN      WN 1859   3.058   6.396   1.637  0.0470  0.0307 -0.1676
    1WN      WN 1860   0.270   1.283   0.707 -0.0306 -0.2503 -0.2098
    1WN      WN 1861   0.543   0.898   4.853 -0.1730  0.1024 -0.4336
    1WN      WN 1862   3.056   4.148   5.000 -0.0608 -0.1470  0.0564
    1WN      WN 1863   6.172   6.088   2.127 -0.1431  0.0353 -0.1784
    1WN      WN 1864   0.821   4.365   6.453 -0.4017 -0.1252 -0.0498
    1WN      WN 1865   6.063   0.881   0.764 -0.1440 -0.0090 -0.3682
    1WN      WN 1866   1.186   0.447   1.334 -0.0315 -0.2674  0.2064
    1WN      WN 1867   4.406   2.254   2.373  0.0711  0.0419 -0.0354
    1WN      WN 1868   3.961   2.175   4.697 -0.0147  0.2711  0.1690
    1WN      WN 1869   1.100   2.780   5.835  0.0334  0.1038 -0.0364
    1WN      WN 1870   3.854   3.553   4.683  0.3336  0.0361 -0.1062
    1WN      WN 1871   4.342   0.380   4.796  0.0148  0.1652 -0.0064
    1WN      WN 1872   4.146   0.749   1.161 -0.1081 -0.2557  0.1141
    1WN      WN 1873   5.337   4.575   0.076  0.2541  0.0014 -0.0823
    1WN      WN 1874   1.555   5.059   4.034  0.1054 -0.0257  0.3462
    1WN      WN 1875   3.323   5.064   0.452 -0.1569 -0.2688  0.0787
    1WN      WN 1876   4.016   4.260   1.706 -0.1362  0.2362  0.1729
    1WN      WN 1877   0.290   5.720   3.904 -0.0854  0.0557 -0.1584
    1WN      WN 1878   5.742   0.939   6.318  0.4337 -0.0187  0.0045
    1WN      WN 1879   4.062   4.642   0.197  0.0183 -0.0351 -0.1746
    1WN      WN 1880   6.235   0.936   4.517  0.2441 -0.0785  0.2073
    1WN      WN 1881   5.793   5.469   0.250  0.0687 -0.1909 -0.0803
    1WN      WN 1882   2.675   2.384   3.017 -0.0821 -0.2249  0.1686
    1WN      WN 1883   5.367   0.678   0.383  0.1432  0.1392 -0.1062
    1WN      WN 1884   4.617   2.701   0.953 -0.0142 -0.1411  0.1715
    1WN      WN 1885   3.648   3.632   2.078  0.1853 -0.1221  0.0286
    1WN      WN 1886   5.707   3.413   6.109  0.3860 -0.1810 -0.1326
    1WN      WN 1887   3.518   6.259   0.234 -0.2007 -0.1631 -0.0190
    1WN      WN 1888   1.852   3.673   6.415  0.0215 -0.0572  0.1495
    1WN      WN 1889   0.773   4.654   1.624  0.1145 -0.1697  0.3453
    1WN      WN 1890   6.203   4.878   3.239  0.0855  0.2238  0.1258
    1WN      WN 1891   4.088   2.358   4.252 -0.2697 -0.0237  0.1065
    1WN      WN 1892   5.109   2.559   3.729 -0.0172 -0.1557 -0.2372
    1WN      WN 1893   1.292   6.233   0.230 -0.0512  0.2717 -0.1833
    1WN      WN 1894   3.159   2.950   2.684 -0.3028 -0.1228  0.0570
    1WN      WN 1895   0.450   3.705   4.824 -0.1126  0.1540  0.0393
    1WN      WN 1896   6.055   5.953   5.966 -0.1148  0.5041 -0.2396
    1WN      WN 1897   4.214   1.396   1.831  0.0473  0.0371  0.4350
    1WN      WN 1898   0.358   2.667   1.340  0.1480  0.4283 -0.1830
    1WN      WN 1899   4.081   6.471   2.108  0.3439 -0.2610  0.0032
    1WN      WN 1900   3.646   0.919   3.647  0.2042  0.0760  0.1703
    1WN      WN 1901   0.048   5.814   2.821  0.0529  0.2572  0.0548
    1WN      WN 1902   0.845   4.358   2.604 -0.0099 -0.1130  0.2642
    1WN      WN 1903   4.485   6.287   2.632 -0.1556 -0.1515 -0.0531
    1WN      WN 1904   1.232   3.131   4.902 -0.2154  0.1765 -0.1181
    1WN      WN 1905   2.986   4.402   0.799 -0.1258 -0.1468  0.1505
    1WN      WN 1906   0.037   0.441   4.958  0.1498 -0.2383  0.2879
    1WN      WN 1907   6.377   5.470   3.925 -0.6298  0.3906 -0.0839
    1WN      WN 1908   1.166   4.630   1.318  0.0034  0.3006  0.0509
    1WN      WN 1909   6.163   0.907   6.040  0.1556  0.1352  0.0923
    1WN      WN 1910   2.419   2.181   6.342 -0.0724  0.0134 -0.1852
    1WN      WN 1911   6.134   0.026   1.228  0.4613  0.2568 -0.0307
    1WN      WN 1912   1.612   2.675   2.874  0.2731  0.2432 -0.1185
    1WN      WN 1913   1.701   1.416   4.166 -0.0893 -0.0678  0.3328
    1WN      WN 1914   4.297   0.123   5.238  0.1244 -0.1118  0.1374
    1WN      WN 1915   5.662   2.502   0.017 -0.1745 -0.0936  0.4015
    1WN      WN 1916   0.510   1.819   0.835  0.3338 -0.0567  0.3526
    1WN      WN 1917   5.179   2.880   1.565  0.2044  0.1774  0.0164
    1WN      WN 1918   0.718   0.302   0.700 -0.0406 -0.0517  0.1250
    1WN      WN 1919   3.100   5.670   0.939  0.0672  0.0590 -0.2545
    1WN      WN 1920   5.558   4.306   4.326  0.1079 -0.0948  0.2672
    1WN      WN 1921   0.780   1.564   2.294 -0.2162  0.2930 -0.1251
    1WN      WN 1922   4.930   6.006   1.535  0.1242 -0.4607 -0.0982
    1WN      WN 1923   0.339   5.667   4.370  0.2866  0.1035 -0.1757
    1WN      WN 1924   0.277   5.643   0.406  0.1491  0.1647  0.1173
    1WN      WN 1925   0.994   5.845   3.029  0.2197  0.2676  0.0048
    1WN      WN 1926   1.811   5.798   2.771  0.2127  0.0558  0.1112
    1WN      WN 1927   4.259   2.251   6.081  0.1406  0.1268 -0.1999
    1WN      WN 1928   3.495   0.546   6.396 -0.0632  0.1289 -0.2343
    1WN      WN 1929   2.142   6.103   1.496 -0.0195  0.1440 -0.1209
    1WN      WN 1930   0.276   0.654   6.471  0.1606  0.1382 -0.0823
    1WN      WN 1931   3.593   2.144   5.091  0.1391  0.0029 -0.1025
    1WN      WN 1932   4.363   6.170   5.664  0.3154  0.0669 -0.0428
    1WN      WN 1933   3.454   3.294   1.353  0.0455  0.0365 -0.3453
    1WN      WN 1934   1.494   1.260   6.107 -0.0233  0.1972  0.1493
    1WN      WN 1935   2.483   3.741   2.444 -0.0103 -0.3819  0.4727
    1WN      WN 1936   2.788   2.964   3.904  0.0865  0.0552 -0.1523
    1WN      WN 1937   2.761   1.314   0.721 -0.2524 -0.1155 -0.0153
    1WN      WN 1938   5.884   0.542   5.623 -0.0714 -0.1320  0.1398
    1WN      WN 1939   1.013   5.901   3.916  0.2078 -0.2629 -0.0899
    1WN      WN 1940   2.591   3.125   1.794 -0.0358 -0.0397  0.0718
    1WN      WN 1941   5.758   5.742   2.008 -0.1038 -0.1037 -0.2279
    1WN      WN 1942   6.011   2.711   3.399 -0.2788  0.2728  0.1025
    1WN      WN 1943   0.809   4.149   5.767 -0.0167  0.1328  0.4783
    1WN      WN 1944   0.851   4.502   0.938  0.0712  0.0018  0.1505
    1WN      WN 1945   4.348   6.304   0.819 -0.0448  0.0113  0.1895
    1WN      WN 1946   1.389   1.600   2.241  0.1377  0.1149  0.0419
    1WN      WN 1947   0.664   5.391   0.079 -0.2457 -0.4138 -0.0993
    1WN      WN 1948   4.538   2.497   3.517 -0.2604 -0.0541  0.0649
    1WN      WN 1949   0.575   5.262   0.609  0.0123  0.0706  0.1043
    1WN      WN 1950   1.107   1.522   3.103 -0.0234  0.2014 -0.1638
    1WN      WN 1951   0.301   0.142   3.258  0.0212 -0.0707  0.1609
    1WN      WN 1952   3.972   3.013   2.695  0.1726 -0.0156 -0.0508
    1WN      WN 1953   6.438   0.758   5.390 -0.0369  0.0484 -0.1297
    1WN      WN 1954   1.440   6.376   0.673  0.0316  0.1537  0.2948
    1WN      WN 1955   3.699   5.227   6.015  0.1237  0.0162 -0.1085
    1WN      WN 1956   5.582   2.378   6.086  0.3432  0.0403 -0.0129
    1WN      WN 1957   1.228   4.582   2.334 -0.0073  0.0101  0.0860
    1WN      WN 1958   5.573   4.893   1.581  0.1944  0.0412  0.1273
    1WN      WN 1959   4.780   3.505   4.790 -0.0096 -0.1580 -0.0522
    1WN      WN 1960   6.517   5.340   3.019  0.0322 -0.3610  0.3564
    1WN      WN 1961   5.175   6.397   4.003  0.0836  0.1204 -0.0058
    1WN      WN 1962   0.516   3.961   6.118 -0.1531 -0.0663  0.1356
    1WN      WN 1963   4.499   3.603   0.023 -0.2584 -0.1850  0.2259
    1WN      WN 1964   4.994   6.199   2.002 -0.1065 -0.1193  0.0939
    1WN      WN 1965   0.451   0.834   4.007  0.4003  0.1159  0.0132
    1WN      WN 1966   4.733   3.142   5.130 -0.0640  0.2379  0.3726
    1WN      WN 1967   1.941   6.115   5.425  0.0801  0.2041  0.0589
    1WN      WN 1968   3.686   2.742   5.775 -0.2416  0.1228 -0.4427
    1WN      WN 1969   3.190   2.476   5.932  0.0930 -0.0381 -0.1597
    1WN      WN 1970   2.119   3.146   4.070 -0.3342  0.0497  0.1991
    1WN      WN 1971   5.728   4.924   3.114  0.0304  0.1770  0.2663
    1WN      WN 1972   0.759   0.432   5.001 -0.0331 -0.4492 -0.2834
    1WN      WN 1973   5.284   4.206   5.644 -0.2045  0.0693  0.0323
    1WN      WN 1974   0.543   2.343   0.525  0.1596  0.2522  0.2173
    1WN      WN 1975   0.823   5.516   1.155 -0.1274  0.1288 -0.2004
    1WN      WN 1976   1.758   2.599   5.599 -0.0237 -0.2700 -0.3787
    1WN      WN 1977   2.720   3.780   4.217 -0.3042  0.2615  0.2592
    1WN      WN 1978   2.835   4.917   0.219 -0.0250  0.0495 -0.2759
    1WN      WN 1979   0.530   6.099   5.811 -0.1241  0.0077 -0.0592
    1WN      WN 1980   3.815   0.027   0.535 -0.0312  0.0038 -0.3609
    1WN      WN 1981   5.084   2.258   2.630  0.1686  0.1426 -0.0525
    1WN      WN 1982   0.345   0.609   5.360 -0.2062  0.0295  0.2841
    1WN      WN 1983   0.917   2.508   4.235  0.3357 -0.0819 -0.0549
    1WN      WN 1984   4.729   6.078   1.084  0.3171  0.0548 -0.1006
    1WN      WN 1985   0.085   4.097   2.032  0.2102  0.4299 -0.1279
    1WN      WN 1986   1.387   1.286   5.538 -0.0145  0.2453  0.3636
    1WN      WN 1987   1.556   1.771   6.113  0.0299  0.0055 -0.0765
    1WN      WN 1988   3.735   4.989   1.026 -0.0950  0.0524  0.1458
    1WN      WN 1989   0.393   5.399   2.036  0.1266  0.0208  0.1180
    1WN      WN 1990   2.098   2.231   0.197  0.1853 -0.3794 -0.1365
    1WN      WN 1991   0.337   3.057   0.231 -0.1403  0.1833 -0.0683
    1WN      WN 1992   5.749   4.177   5.476 -0.6067  0.2427  0.0365
    1WN      WN 1993   4.511   5.828   6.004 -0.1277 -0.1047  0.0424
    1WN      WN 1994   2.223   1.903   1.239  0.2842  0.0994 -0.3073
    1WN      WN 1995   4.447   1.687   0.250  0.5003  0.0450  0.1139
    1WN      WN 1996   4.913   3.973   3.308 -0.0427 -0.0420  0.2198
    1WN      WN 1997   2.325   2.872   4.724  0.0407 -0.2687  0.0617
    1WN      WN 1998   5.755   3.678   5.644 -0.1071  0.2974 -0.1588
    1WN      WN 1999   3.470   4.230   1.526  0.2051  0.1081  0.0359
    1WN      WN 2000   4.839   4.820   1.659  0.1694  0.0836 -0.2796
    1WN      WN 2001   0.682   6.517   4.570  0.0098  0.4228 -0.3594
    1WN      WN 2002   1.090   5.332   1.531 -0.0013 -0.2560 -0.0360
    1WN      WN 2003   3.705   3.385   5.302  0.0888  0.0134 -0.0523
    1WN      WN 2004   5.248   0.828   3.018 -0.0315 -0.0921 -0.1279
    1WN      WN 2005   5.368   3.820   3.725  0.7181  0.2870 -0.3035
    1WN      WN 2006   5.152   4.276   2.996  0.3817 -0.0730 -0.0398
    1WN      WN 2007   0.796   2.537   1.285 -0.1346 -0.4381  0.2880
    1WN      WN 2008   3.498   1.692   3.859  0.0782 -0.1195 -0.5069
    1WN      WN 2009   6.425   0.961   0.449 -0.1264 -0.2128 -0.2518
    1WN      WN 2010   1.095   2.075   6.117  0.2634 -0.0428 -0.2438
    1WN      WN 2011   4.098   1.086   6.138 -0.3400 -0.0036  0.1035
    1WN      WN 2012   5.866   2.299   4.238 -0.0474 -0.1152  0.1947
    1WN      WN 2013   5.559   3.967   4.681  0.3020 -0.3939  0.3183
    1WN      WN 2014   1.809   6.324   2.947 -0.3553  0.1737 -0.2243
    1WN      WN 2015   4.004   1.597   5.812 -0.0446 -0.0521  0.1393
    1WN      WN 2016   5.490   1.985   4.267  0.2368  0.0520  0.1736
    1WN      WN 2017   6.182   5.511   2.091 -0.0381 -0.0054  0.2461
    1WN      WN 2018   5.581   5.394   2.806 -0.0983  0.0898 -0.0652
    1WN      WN 2019   1.692   5.218   5.933 -0.2084  0.0000  0.0475
    1WN      WN 2020   1.968   0.751   5.217  0.1007  0.0287 -0.0394
    1WN      WN 2021   3.314   2.557   0.861 -0.1941  0.1862  0.2024
    1WN      WN 2022   1.659   3.468   5.460  0.0708 -0.1864  0.3177
    1WN      WN 2023   2.412   3.455   1.137  0.3676 -0.1904  0.1853
    1WN      WN 2024   1.970   0.063   2.432  0.1290  0.2628  0.0571
    1WN      WN 2025   6.202   4.861   1.654  0.0785  0.0964 -0.2478
    1WN      WN 2026   1.876   0.036   5.615 -0.2353 -0.0385 -0.0805
    1WN      WN 2027   1.796   4.509   2.349  0.0484 -0.0377 -0.1756
    1WN      WN 2028   1.130   4.672   4.051  0.0511 -0.1191  0.0447
    1WN      WN 2029   3.901   5.005   3.826  0.3032 -0.3845  0.1811
    1WN      WN 2030   3.793   0.232   6.022  0.2224 -0.1627  0.2122
    1WN      WN 2031   5.675   5.011   0.483 -0.0288 -0.0155  0.0760
    1WN      WN 2032   0.250   3.325   5.938 -0.1755 -0.2728  0.0046
    1WN      WN 2033   1.865   1.461   2.314 -0.2344  0.0820 -0.0161
    1WN      WN 2034   3.650   2.867   1.523  0.1106  0.2101 -0.3257
    1WN      WN 2035   3.852   3.603   2.619  0.2421 -0.1390 -0.0382
    1WN      WN 2036   4.877   5.857   5.663 -0.2459 -0.2399  0.2376
    1WN      WN 2037   6.173   0.098   5.270 -0.0462 -0.1626  0.3023
    1WN      WN 2038   5.746   0.018   3.804 -0.2333 -0.0078  0.1982
    1WN      WN 2039   3.294   0.561   5.978 -0.0349 -0.0835 -0.2206
    1WN      WN 2040   5.848   6.121   5.486  0.2946 -0.1017  0.1624
    1WN      WN 2041   2.506   4.812   1.585  0.0439  0.1779 -0.0241
    1WN      WN 2042   5.441   2.987   4.301  0.2537 -0.4781 -0.1687
    1WN      WN 2043   5.961   5.183   5.347  0.5917 -0.3847  0.0581
    1WN      WN 2044   6.392   2.742   5.542 -0.1741  0.0791  0.1685
    1WN      WN 2045   0.938   0.916   2.922  0.1978 -0.5350 -0.0619
    1WN      WN 2046   5.248   1.249   3.423 -0.2170 -0.1611 -0.3004
    1WN      WN 2047   1.599   2.306   0.400 -0.2806  0.0150 -0.1639
    1WN      WN 2048   1.060   2.978   3.081 -0.1716 -0.1396 -0.1972
    1WN      WN 2049   0.560   3.917   0.098 -0.0498  0.1363 -0.2354
    1WN      WN 2050   5.437   6.077   1.790  0.2132 -0.0334 -0.1831
    1WN      WN 2051   1.726   4.236   2.881  0.0198  0.0543 -0.2993
    1WN      WN 2052   0.181   0.352   0.864 -0.0352 -0.4216 -0.0845
    1WN      WN 2053   4.720   5.561   2.792 -0.2889 -0.0580  0.2083
    1WN      WN 2054   6.201   5.135   5.892 -0.3424  0.0584  0.0939
    1WN      WN 2055   3.943   6.378   1.121  0.1494  0.0444  0.5952
    1WN      WN 2056   1.372   0.369   0.879 -0.0449  0.1784  0.1616
    1WN      WN 2057   2.195   3.938   0.829 -0.1358 -0.1011 -0.0548
    1WN      WN 2058   3.204   6.404   2.629 -0.0212 -0.2134 -0.0957
    1WN      WN 2059   4.493   4.286   0.181  0.0577  0.0749 -0.0958
    1WN      WN 2060   0.616   4.171   4.790 -0.1263 -0.1544 -0.1967
    1WN      WN 2061   1.992   2.859   2.008 -0.0151 -0.3556 -0.0866
    1WN      WN 2062   3.122   4.744   1.068  0.1895 -0.2401  0.4676
    1WN      WN 2063   2.345   2.235   0.696  0.0680  0.0702 -0.0513
    1WN      WN 2064   4.062   0.744   3.374 -0.0464 -0.0737 -0.0459
    1WN      WN 2065   1.562   2.788   4.858  0.1373  0.1745 -0.3751
    1WN      WN 2066   3.631   2.160   3.058  0.1693  0.2325  0.0222
    1WN      WN 2067   3.430   1.117   2.195 -0.1109  0.3547  0.1038
    1WN      WN 2068   2.639   4.896   2.954 -0.1500 -0.1291  0.1589
    1WN      WN 2069   2.460   6.446   0.814 -0.1926 -0.1992  0.0927
    1WN      WN 2070   0.104   4.280   5.994 -0.0836  0.1080 -0.0363
    1WN      WN 2071   3.902   5.062   0.539  0.1011 -0.0460 -0.0999
    1WN      WN 2072   5.423   0.174   4.636  0.2849 -0.1545 -0.0335
    1WN      WN 2073   2.542   3.181   5.751  0.1846  0.0431  0.1235
    1WN      WN 2074   0.688   6.197   2.283 -0.0024 -0.1274  0.3400
    1WN      WN 2075   0.208   1.891   4.581  0.1094  0.2391 -0.1922
    1WN      WN 2076   1.417   5.707   0.153  0.0677 -0.0364 -0.4019
    1WN      WN 2077   0.236   3.587   0.255 -0.0003 -0.0965  0.0981
    1WN      WN 2078   0.443   0.592   2.290  0.1745  0.2359  0.0639
    1WN      WN 2079   1.129   5.584   1.990 -0.1953 -0.0095  0.2359
    1WN      WN 2080   1.797   2.288   3.235  0.0694 -0.0856 -0.0295
    1WN      WN 2081   2.102   3.349   6.002 -0.1992  0.3161 -0.0275
    1WN      WN 2082   3.468   2.829   2.300 -0.0180 -0.0406 -0.1944
    1WN      WN 2083   6.163   1.856   1.906 -0.0005  0.1088  0.2217
    1WN      WN 2084   1.857   0.750   6.218 -0.0176  0.2994  0.0370
    1WN      WN 2085   0.014   4.967   2.689  0.0288  0.1211  0.2350
    1WN      WN 2086   5.733   1.824   6.057  0.1674  0.4417 -0.0813
    1WN      WN 2087   2.794   5.998   1.774 -0.0120  0.1772  0.0945
    1WN      WN 2088   1.178   5.165   5.679 -0.0315  0.0999  0.1913
    1WN      WN 2089   2.440   1.561   4.894  0.1900 -0.4687 -0.4146
    1WN      WN 2090   0.804   3.545   5.913 -0.2793 -0.3843  0.1333
    1WN      WN 2091   4.554   6.395   3.153 -0.0046 -0.1010  0.2228
    1WN      WN 2092   1.356   5.557   1.116  0.2062 -0.1860 -0.2315
    1WN      WN 2093   5.118   2.829   2.846  0.2583 -0.2768  0.2703
    1WN      WN 2094   1.247   5.911   0.667  0.2674 -0.0010 -0.1085
    1WN      WN 2095   0.019   3.484   6.345  0.0301 -0.3874  0.0442
    1WN      WN 2096   1.730   1.575   1.847 -0.0573  0.0766  0.1880
    1WN      WN 2097   4.110   1.364   0.589 -0.2613 -0.0856  0.1577
    1WN      WN 2098   1.035   1.638   0.767 -0.2286  0.0296 -0.0838
    1WN      WN 2099   0.746   4.481   5.234  0.0492 -0.0962  0.2056
    1WN      WN 2100   1.105   1.590   0.277  0.0571  0.1842  0.3139
    1WN      WN 2101   0.720   6.005   5.314 -0.0152 -0.1645 -0.0287
    1WN      WN 2102   2.558   4.218   5.247  0.4590 -0.0021  0.0101
    1WN      WN 2103   4.399   1.852   1.982 -0.1188 -0.0898  0.3510
    1WN      WN 2104   2.479   0.514   1.040 -0.1129  0.0947 -0.1964
    1WN      WN 2105   2.339   6.410   5.246  0.1864 -0.0583  0.4702
    1WN      WN 2106   1.945   4.873   1.376  0.2795  0.2274  0.1268
    1WN      WN 2107   2.145   1.224   4.936  0.1196 -0.0982 -0.1101
    1WN      WN 2108   4.814   5.466   0.278  0.2610 -0.1255  0.2408
    1WN      WN 2109   0.525   4.294   3.037 -0.1845 -0.2658  0.1851
    1WN      WN 2110   5.477   2.964   5.043  0.2569 -0.1567  0.2153
    1WN      WN 2111   0.489   4.774   0.774 -0.0621  0.0824 -0.1556
    1WN      WN 2112   4.285   2.736   5.401  0.0560 -0.1476 -0.1702
    1WN      WN 2113   6.337   3.393   3.975 -0.0154 -0.1413  0.0534
    1WN      WN 2114   3.443   3.588   3.484 -0.0041 -0.1498 -0.0712
    1WN      WN 2115   2.400   1.703   0.678  0.0996  0.0233 -0.0984
    1WN      WN 2116   3.363   5.713   0.097 -0.1957  0.3157  0.0757
    1WN      WN 2117   6.350   1.809   5.609 -0.1952  0.0547  0.3340
    1WN      WN 2118   4.969   1.742   2.716 -0.0603  0.0673 -0.2882
    1WN      WN 2119   1.908   6.520   1.545  0.4003 -0.0718  0.1007
    1WN      WN 2120   4.161   3.259   5.984 -0.2687 -0.0830 -0.3343
    1WN      WN 2121   1.954   3.116   6.426  0.1329 -0.0027  0.0955
    1WN      WN 2122   5.444   0.627   5.843  0.2087 -0.1585 -0.2429
    1WN      WN 2123   1.475   1.307   0.424  0.3847 -0.0811 -0.1375
    1WN      WN 2124   3.270   1.204   0.888 -0.3469 -0.2177  0.1270
    1WN      WN 2125   5.700   5.008   2.513  0.0602  0.0022 -0.0951
    1WN      WN 2126   4.879   2.754   4.241  0.1203 -0.0142 -0.0808
    1WN      WN 2127   1.993   6.247   4.919  0.1268 -0.0173 -0.2749
    1WN      WN 2128   6.273   4.927   1.159  0.0017 -0.2326  0.0418
    1WN      WN 2129   5.416   1.458   5.930 -0.2292 -0.2031  0.0649
    1WN      WN 2130   4.052   3.121   5.542  0.1515 -0.1516 -0.1867
    1WN      WN 2131   0.963   5.411   2.808  0.2906 -0.3421  0.2161
    1WN      WN 2132   3.883   4.278   5.242  0.1764 -0.1113 -0.0065
    1WN      WN 2133   2.055   2.715   2.464  0.1693  0.0955  0.2062
    1WN      WN 2134   5.791   1.432   2.738 -0.0993  0.0739  0.0885
    1WN      WN 2135   2.148   3.334   4.573 -0.3157  0.3610  0.0033
    1WN      WN 2136   1.386   1.802   3.960 -0.2412  0.0853 -0.0918
    1WN      WN 2137   1.759   5.251   4.940  0.1268 -0.0952 -0.3806
    1WN      WN 2138   5.952   6.278   3.440 -0.0010  0.1314  0.1728
    1WN      WN 2139   2.436   6.019   2.161  0.0972  0.0364 -0.3697
    1WN      WN 2140   5.112   3.018   4.754  0.0162 -0.0258  0.4122
    1WN      WN 2141   0.149   0.410   5.815 -0.0092  0.3269  0.2561
    1WN      WN 2142   0.901   4.860   6.360  0.2161  0.1012 -0.1375
    1WN      WN 2143   5.787   0.285   3.412 -0.2415 -0.0730 -0.1346
    1WN      WN 2144   3.462   0.236   0.816  0.2840  0.0348  0.2798
    1WN      WN 2145   0.697   2.386   3.188  0.2200 -0.0352  0.0269
    1WN      WN 2146   0.264   6.265   5.368  0.1001 -0.0136 -0.1049
    1WN      WN 2147   1.934   5.042   6.282 -0.0423 -0.0895 -0.0366
    1WN      WN 2148   1.682   4.130   0.752  0.0771  0.0487  0.1319
    1WN      WN 2149   6.353   6.462   4.310  0.1252  0.1214  0.2368
    1WN      WN 2150   1.052   5.634   6.363  0.2702  0.1796  0.0268
    1WN      WN 2151   0.148   3.097   2.760 -0.2050 -0.0602  0.2003
    1WN      WN 2152   0.634   3.314   3.441  0.0301  0.2851  0.0990
    1WN      WN 2153   5.339   3.286   5.642 -0.0950  0.3372 -0.1166
    1WN      WN 2154   4.617   6.160   6.461  0.0355  0.3117 -0.2515
    1WN      WN 2155   1.427   1.394   5.056  0.2174  0.1043  0.3522
    1WN      WN 2156   5.392   3.921   3.266  0.1247 -0.0695 -0.2280
    1WN      WN 2157   6.529   6.391   4.977 -0.3816  0.2395  0.3553
    1WN      WN 2158   6.359   4.243   3.340 -0.0346  0.0060 -0.2043
    1WN      WN 2159   1.142   5.691   3.490  0.1728 -0.5335 -0.0904
    1WN      WN 2160   1.777   1.691   1.297 -0.2216 -0.0301 -0.3987
    1WN      WN 2161   2.902   1.312   6.432  0.1868 -0.5890  0.0462
    1WN      WN 2162   4.894   3.515   2.472 -0.2843 -0.1229  0.0006
    1WN      WN 2163   3.630   2.226   4.098 -0.0072  0.0311 -0.0547
    1WN      WN 2164   2.672   1.751   5.795  0.3742  0.2662  0.0224
    1WN      WN 2165   4.946   0.618   6.127  0.2180 -0.0465  0.1163
    1WN      WN 2166   0.590   5.891   2.754  0.3336  0.1162  0.0497
    1WN      WN 2167   5.312   0.804   5.232 -0.3561  0.0875  0.0170
    1WN      WN 2168   3.777   6.181   5.139 -0.1246  0.2234 -0.0066
    1WN      WN 2169   4.167   0.126   4.161 -0.1130 -0.2484 -0.2575
    1WN      WN 2170   1.625   4.251   1.531  0.0837 -0.1470  0.1275
    1WN      WN 2171   6.272   2.556   0.233  0.1449 -0.0508  0.0417
    1WN      WN 2172   3.585   5.511   0.717 -0.1940  0.1739  0.1683
    1WN      WN 2173   1.768   6.434   6.155  0.1644 -0.0242 -0.3321
    1WN      WN 2174   0.908   3.127   0.035  0.1501  0.3830 -0.0361
    1WN      WN 2175   5.411   6.528   2.033 -0.1422 -0.2770 -0.0191
    1WN      WN 2176   1.616   1.939   4.813  0.0310  0.2253 -0.1019
    1WN      WN 2177   3.390   3.579   4.782 -0.3151 -0.0403 -0.1683
    1WN      WN 2178   3.306   1.511   1.697 -0.0768  0.2139  0.1224
    1WN      WN 2179   2.060   4.135   5.052  0.1564 -0.3233 -0.2796
    1WN      WN 2180   2.563   2.943   2.548 -0.1293 -0.1422  0.1017
    1WN      WN 2181   1.541   3.800   0.289  0.2594  0.2913  0.4393
    1WN      WN 2182   0.631   1.813   5.870  0.0708  0.1117 -0.0547
    1WN      WN 2183   4.920   2.436   1.515  0.0127 -0.1557  0.0743
    1WN      WN 2184   3.578   0.756   3.007 -0.2225 -0.0609  0.0101
    1WN      WN 2185   0.028   3.578   4.540 -0.3124 -0.0514 -0.3141
    1WN      WN 2186   5.714   2.942   1.423 -0.0205 -0.0483 -0.1788
    1WN      WN 2187   0.801   4.420   4.389 -0.2619  0.0027  0.2608
    1WN      WN 2188   1.520   1.557   2.791 -0.3285  0.3329 -0.2314
    1WN      WN 2189   4.181   5.490   1.886 -0.2570 -0.2576  0.1905
    1WN      WN 2190   5.815   5.349   1.768  0.2101  0.3444  0.5571
    1WN      WN 2191   3.880   5.154   4.852 -0.3069  0.3119  0.0535
    1WN      WN 2192   4.743   1.405   4.346 -0.1503 -0.1643  0.2135
    1WN      WN 2193   5.808   2.747   4.546  0.1740 -0.3569 -0.0062
    1WN      WN 2194   0.038   5.780   3.433 -0.2510  0.3023  0.2288
    1WN      WN 2195   4.423   5.356   4.773  0.0738 -0.1893  0.0275
    1WN      WN 2196   0.571   3.557   5.444  0.0518  0.2232 -0.0227
    1WN      WN 2197   0.785   6.510   5.370  0.0806 -0.3065 -0.2638
    1WN      WN 2198   0.529   0.864   3.502 -0.1312 -0.1690 -0.0164
    1WN      WN 2199   5.295   2.515   4.151 -0.3467 -0.0881  0.1186
    1WN      WN 2200   2.549   6.405   1.854 -0.0600  0.0028  0.2523
    1WN      WN 2201   4.877   4.656   3.165  0.1068 -0.0758  0.2104
    1WN      WN 2202   1.604   0.049   2.075 -0.0393 -0.0485  0.2407
    1WN      WN 2203   0.197   4.621   2.319  0.0595 -0.0492 -0.0286
    1WN      WN 2204   1.108   0.031   4.953  0.1114  0.0909  0.3355
    1WN      WN 2205   2.424   4.239   6.212  0.1442  0.2131 -0.3446
    1WN      WN 2206   3.059   5.467   0.397  0.0663 -0.1945  0.0095
    1WN      WN 2207   0.746   2.424   5.158 -0.0063  0.3168 -0.0020
    1WN      WN 2208   2.046   4.213   0.006  0.0219  0.0119  0.1371
    1WN      WN 2209   2.507   3.399   3.238 -0.0321 -0.0852 -0.1508
    1WN      WN 2210   5.687   6.398   6.476 -0.0492  0.3507 -0.0811
    1WN      WN 2211   0.924   5.216   3.285  0.2308  0.0052 -0.1888
    1WN      WN 2212   5.338   0.366   3.131  0.1728  0.0855  0.0648
    1WN      WN 2213   6.497   0.814   0.994  0.0865  0.2254 -0.0084
    1WN      WN 2214   3.533   5.544   1.259  0.1302 -0.1591  0.2453
    1WN      WN 2215   5.866   4.531   3.473  0.1276  0.1113  0.1473
    1WN      WN 2216   5.838   2.250   2.033  0.3072  0.0272 -0.2427
    1WN      WN 2217   5.614   5.017   4.202 -0.2377 -0.1008  0.1306
    1WN      WN 2218   2.082   0.121   1.054 -0.0767  0.3423 -0.0921
    1WN      WN 2219   1.740   4.726   2.929  0.0610  0.2574 -0.0968
    1WN      WN 2220   5.155   5.341   0.668 -0.3349  0.1746 -0.0252
    1WN      WN 2221   4.688   4.009   1.160  0.3650 -0.2245 -0.1307
    1WN      WN 2222   5.777   4.318   6.260 -0.0310  0.2450 -0.0517
    1WN      WN 2223   6.045   2.657   1.632 -0.2120 -0.0358  0.1202
    1WN      WN 2224   0.146   5.348   5.725  0.2388  0.2017 -0.1547
    1WN      WN 2225   4.525   0.041   4.513  0.0825 -0.3419 -0.0889
    1WN      WN 2226   5.373   5.155   3.755 -0.1037 -0.0838  0.2095
    1WN      WN 2227   1.413   3.620   5.076 -0.2268 -0.0720 -0.3468
    1WN      WN 2228   6.262   2.233   2.982  0.1440  0.0638  0.0876
    1WN      WN 2229   0.626   3.465   1.549  0.2526  0.1316 -0.1756
    1WN      WN 2230   1.768   0.381   3.816  0.0504  0.1117  0.2892
    1WN      WN 2231   5.684   0.333   1.721 -0.1274 -0.2363  0.1446
    1WN      WN 2232   2.228   3.528   1.953  0.2961  0.0151 -0.1351
    1WN      WN 2233   0.730   1.538   1.429 -0.3011 -0.3156 -0.0624
    1WN      WN 2234   5.401   1.914   2.864 -0.1609 -0.0972 -0.2433
    1WN      WN 2235   2.312   5.162   1.153 -0.0426  0.0331 -0.2426
    1WN      WN 2236   3.837   5.864   1.120 -0.3187  0.1210 -0.1682
    1WN      WN 2237   0.293   6.530   1.548  0.1029 -0.2236  0.0563
    1WN      WN 2238   1.751   5.115   0.949 -0.4050  0.0323  0.1938
    1WN      WN 2239   3.960   1.001   2.094 -0.0733  0.2889  0.1130
    1WN      WN 2240   5.851   5.956   0.359 -0.1166  0.1852  0.0013
    1WN      WN 2241   4.076   6.256   2.893  0.0136  0.1490 -0.1663
    1WN      WN 2242   5.357   5.957   4.203 -0.3427  0.3407 -0.3147
    1WN      WN 2243   1.825   1.056   2.058  0.0480 -0.0011  0.1519
    1WN      WN 2244   3.779   0.755   5.990 -0.2692  0.0875 -0.1498
    1WN      WN 2245   1.844   5.853   2.275 -0.1236 -0.0739 -0.0396
    1WN      WN 2246   3.007   3.882   2.509  0.1009 -0.2785  0.0100
    1WN      WN 2247   0.408   5.566   5.283 -0.0001  0.2234  0.1761
    1WN      WN 2248   0.539   2.415   1.779  0.0477 -0.0093  0.0556
    1WN      WN 2249   5.353   2.135   2.215 -0.0251  0.1362 -0.1333
    1WN      WN 2250   2.969   3.964   5.503  0.0434  0.3079  0.3399
    1WN      WN 2251   1.951   4.758   0.212  0.0900 -0.0426 -0.3281
    1WN      WN 2252   5.927   2.529   1.158  0.2698 -0.1559  0.2132
    1WN      WN 2253   6.149   0.697   4.111  0.0876 -0.1622  0.3353
    1WN      WN 2254   6.222   4.388   1.384  0.1482  0.1549  0.0713
    1WN      WN 2255   5.807   2.820   3.973  0.2245  0.0224  0.0997
    1WN      WN 2256   6.033   2.269   6.379 -0.4610 -0.1067 -0.0234
    1WN      WN 2257   1.304   0.816   5.750 -0.0764  0.1134 -0.2383
    1WN      WN 2258   5.322   5.343   6.195  0.1874 -0.1152  0.1220
    1WN      WN 2259   2.583   1.240   2.698  0.0614 -0.1772  0.2629
    1WN      WN 2260   0.518   3.752   0.682 -0.0110  0.0394  0.1301
    1WN      WN 2261   4.857   4.051   5.299  0.0101  0.1592  0.0771
    1WN      WN 2262   6.549   4.396   4.957 -0.0757  0.0600  0.2999
    1WN      WN 2263   5.717   6.265   2.346  0.1556 -0.1279  0.1087
    1WN      WN 2264   0.366   0.937   0.320  0.1594 -0.0667  0.1784
    1WN      WN 2265   2.658   0.799   5.463  0.1541  0.1701 -0.2563
    1WN      WN 2266   5.286   5.418   4.173 -0.0505  0.1101  0.1498
    1WN      WN 2267   1.488   6.089   6.334 -0.0309 -0.0128  0.0493
    1WN      WN 2268   1.644   0.340   6.007 -0.2595  0.0295  0.2589
    1WN      WN 2269   0.455   1.555   4.957 -0.1380 -0.0797 -0.0871
    1WN      WN 2270   0.342   1.897   2.294 -0.0333 -0.0656  0.6391
    1WN      WN 2271   0.089   3.231   2.091 -0.0821  0.2793 -0.0684
    1WN      WN 2272   5.950   6.436   1.825  0.1440  0.0294  0.0232
    1WN      WN 2273   1.162   4.756   5.098  0.0131 -0.0816 -0.1619
    1WN      WN 2274   4.816   5.999   3.064 -0.0969 -0.0293  0.0399
    1WN      WN 2275   5.928   6.389   2.888  0.0015 -0.0591 -0.0909
    1WN      WN 2276   4.981   6.469   1.367 -0.1924 -0.0084  0.0462
    1WN      WN 2277   3.561   2.612   2.799 -0.3836 -0.0116 -0.0934
    1WN      WN 2278   1.693   5.534   6.327 -0.0909 -0.1300 -0.0205
    1WN      WN 2279   2.331   3.410   6.473  0.2066  0.3568 -0.3546
    1WN      WN 2280   5.664   3.862   6.290  0.1622 -0.0715 -0.2604
    1WN      WN 2281   5.852   5.009   3.622 -0.0898 -0.0456  0.1369
    1WN      WN 2282   1.401   4.347   3.348 -0.3933  0.3062  0.3411
    1WN      WN 2283   2.130   0.910   1.719 -0.1707 -0.1533  0.0063
    1WN      WN 2284   3.898   4.620   1.453 -0.0977  0.0026 -0.1275
    1WN      WN 2285   3.528   3.560   0.551 -0.4468 -0.1995  0.0407
    1WN      WN 2286   0.549   1.856   3.267  0.2527  0.0447 -0.0073
    1WN      WN 2287   3.049   3.400   1.668  0.3621 -0.1572 -0.3029
    1WN      WN 2288   4.176   3.122   6.500 -0.1034  0.2233 -0.4871
    1WN      WN 2289   2.958   5.794   5.739  0.0751  0.0200 -0.1292
    1WN      WN 2290   6.096   5.122   2.808 -0.2446 -0.0127  0.2018
    1WN      WN 2291   1.197   4.479   6.120  0.0515  0.1400 -0.0298
    1WN      WN 2292   0.905   0.488   4.075 -0.1848  0.1017 -0.0673
    1WN      WN 2293   3.355   2.505   0.324  0.5540 -0.2129 -0.0231
    1WN      WN 2294   5.179   3.341   0.727 -0.1075  0.0760 -0.3782
    1WN      WN 2295   4.950   2.068   4.380 -0.0277  0.1383 -0.1855
    1WN      WN 2296   5.843   5.359   6.292  0.0089 -0.1344 -0.0398
    1WN      WN 2297   2.771   3.160   1.328  0.0054  0.1539 -0.1975
    1WN      WN 2298   3.219   4.500   0.312 -0.2628 -0.0589  0.0322
    1WN      WN 2299   6.527   2.287   6.445  0.0178  0.0637  0.4804
    1WN      WN 2300   0.031   6.524   5.957  0.0492 -0.1990  0.1018
    1WN      WN 2301   6.301   3.398   0.373  0.0099 -0.1989  0.0540
    1WN      WN 2302   5.939   1.721   0.071 -0.1443  0.2111 -0.1614
    1WN      WN 2303   0.839   4.201   1.393 -0.0844  0.0583  0.0627
    1WN      WN 2304   4.991   5.766   4.457  0.1711 -0.0210 -0.4312
    1WN      WN 2305   4.253   2.738   6.182 -0.1783  0.2145  0.0916
    1WN      WN 2306   3.995   4.517   0.657  0.1879 -0.0759 -0.3465
    1WN      WN 2307   5.202   0.659   0.908  0.0163  0.0450  0.1278
    1WN      WN 2308   0.889   1.184   1.811 -0.0166  0.2269  0.1451
    1WN      WN 2309   0.850   3.893   4.438 -0.0462 -0.2668 -0.0794
    1WN      WN 2310   5.958   3.388   1.244 -0.2896  0.1274  0.3288
    1WN      WN 2311   2.906   4.467   6.353 -0.0869  0.1622  0.0620
    1WN      WN 2312   6.073   2.455   2.507 -0.4107 -0.1267  0.3952
    1WN      WN 2313   5.343   2.086   0.631 -0.0338 -0.4739  0.3121
    1WN      WN 2314   1.113   6.397   4.417  0.0935  0.1638  0.5153
    1WN      WN 2315   6.102   3.153   0.798 -0.3825 -0.0491 -0.2787
    1WN      WN 2316   6.202   1.659   2.904 -0.1035  0.3888 -0.2766
    1WN      WN 2317   1.189   4.767   4.545  0.0682  0.2610  0.1299
    1WN      WN 2318   4.825   0.968   2.578 -0.0202  0.1596 -0.1639
    1WN      WN 2319   0.621   3.780   3.117  0.0675 -0.0410 -0.2281
    1WN      WN 2320   1.427   3.363   3.611 -0.1743 -0.1191  0.0239
    1WN      WN 2321   2.520   5.383   0.474 -0.1476 -0.0722  0.0562
    1WN      WN 2322   3.098   6.457   0.579  0.0884 -0.0672  0.0210
    1WN      WN 2323   5.078   4.082   1.904 -0.0096  0.0423  0.0938
    1WN      WN 2324   3.062   5.587   1.412  0.0714 -0.2408  0.1797
    1WN      WN 2325   5.050   6.111   0.230  0.1037  0.4617  0.1499
    1WN      WN 2326   2.586   3.615   1.597 -0.0840  0.0107  0.0750
    1WN      WN 2327   5.400   4.302   0.553 -0.0365  0.0453  0.2112
    1WN      WN 2328   2.135   2.960   0.976  0.4652  0.0451 -0.0770
    1WN      WN 2329   3.039   1.615   2.678 -0.1694  0.2694  0.2474
    1WN      WN 2330   6.231   2.968   3.739  0.0729  0.1158  0.2590
    1WN      WN 2331   1.036   2.249   5.616  0.1135 -0.1196 -0.0192
    1WN      WN 2332   2.168   3.890   1.374  0.0309 -0.2093  0.0773
    1WN      WN 2333   5.799   1.340   1.925 -0.0005 -0.2045 -0.2818
    1WN      WN 2334   5.323   2.166   5.241  0.0854  0.0713  0.0996
    1WN      WN 2335   0.347   0.894   1.234 -0.0149 -0.1129  0.0391
    1WN      WN 2336   2.545   1.956   0.273 -0.0740 -0.0558 -0.2591
    1WN      WN 2337   6.005   5.282   4.792 -0.0381  0.3623  0.2611
    1WN      WN 2338   2.922   3.287   5.471  0.0001 -0.0968  0.0763
    1WN      WN 2339   5.474   2.565   5.448 -0.0467 -0.2587  0.1521
    1WN      WN 2340   2.446   1.887   3.314 -0.0841  0.0176 -0.3297
    1WN      WN 2341   0.433   5.083   6.221  0.0420 -0.1237  0.1893
    1WN      WN 2342   4.141   4.372   3.218 -0.0121  0.0164 -0.0144
    1WN      WN 2343   5.674   0.349   5.031  0.0681  0.3456 -0.0374
    1WN      WN 2344   4.813   5.408   5.870 -0.0514  0.0185 -0.3212
    1WN      WN 2345   1.321   5.482   2.533 -0.2947  0.1459  0.1394
    1WN      WN 2346   2.854   0.052   6.065 -0.0486  0.1082 -0.1862
    1WN      WN 2347   0.759   1.325   0.481  0.1697 -0.1321 -0.1715
    1WN      WN 2348   1.452   2.701   3.555  0.1006  0.3405  0.0010
    1WN      WN 2349   4.884   3.014   2.361  0.4605 -0.1229 -0.2121
    1WN      WN 2350   2.839   3.364   6.399 -0.0198 -0.0280 -0.0990
    1WN      WN 2351   0.424   1.369   3.985  0.2539  0.2558 -0.2906
    1WN      WN 2352   2.738   4.035   2.036  0.1589 -0.0670 -0.1182
    1WN      WN 2353   1.452   3.148   6.445 -0.3346 -0.1556  0.2411
    1WN      WN 2354   5.614   5.599   5.629  0.0739  0.0530  0.1448
    1WN      WN 2355   2.140   1.709   6.550  0.1243 -0.1477  0.2808
    1WN      WN 2356   2.719   4.706   2.436  0.2823 -0.0848 -0.3172
    1WN      WN 2357   4.171   1.709   4.743 -0.3504  0.1524  0.2241
    1WN      WN 2358   4.228   0.020   0.244 -0.1038  0.1198 -0.1374
    1WN      WN 2359   2.631   6.235   6.382 -0.3005 -0.1783 -0.1352
    1WN      WN 2360   3.095   0.694   1.559  0.3270  0.0649 -0.1347
    1WN      WN 2361   3.961   1.550   2.774  0.4881 -0.0972 -0.1381
    1WN      WN 2362   0.125   0.406   4.112 -0.3661 -0.0693  0.1255
    1WN      WN 2363   4.414   5.215   0.148  0.0288  0.2072 -0.1490
    1WN      WN 2364   0.001   0.408   0.322 -0.0197  0.2475 -0.4670
    1WN      WN 2365   4.872   0.427   4.694 -0.1430 -0.0831 -0.2080
    1WN      WN 2366   6.433   5.903   4.246  0.0223  0.1623  0.2637
    1WN      WN 2367   1.168   5.124   0.989  0.2915 -0.2374  0.0319
    1WN      WN 2368   3.422   2.944   4.594  0.0836  0.0036  0.1191
    1WN      WN 2369   4.149   0.864   4.845 -0.1074  0.1463  0.2869
    1WN      WN 2370   4.742   1.727   3.966  0.0886  0.0891 -0.6336
    1WN      WN 2371   0.185   5.323   0.007 -0.0718 -0.1497 -0.1990
    1WN      WN 2372   0.742   2.871   4.625 -0.5351 -0.0249  0.4551
    1WN      WN 2373   3.143   2.892   1.645 -0.0474 -0.3632 -0.1751
    1WN      WN 2374   0.170   5.808   5.629  0.0637 -0.3801  0.0195
    1WN      WN 2375   1.962   5.628   0.198  0.2669  0.4080  0.0054
    1WN      WN 2376   1.137   1.945   2.042 -0.1064 -0.3632  0.0336
    1WN      WN 2377   1.999   1.346   0.312 -0.2117  0.0799  0.2190
    1WN      WN 2378   4.008   1.814   0.483 -0.0378  0.2841 -0.0641
    1WN      WN 2379   5.322   3.611   1.749  0.3591 -0.1782 -0.0467
    1WN      WN 2380   5.233   0.866   6.475 -0.2460  0.1744 -0.0431
    1WN      WN 2381   0.182   0.124   4.561  0.1376  0.1577  0.0912
    1WN      WN 2382   5.597   5.359   0.843  0.1606  0.2576  0.1959
    1WN      WN 2383   0.067   0.136   5.422  0.0412 -0.0822  0.0002
    1WN      WN 2384   3.889   1.403   3.819  0.0508  0.0748  0.0569
    1WN      WN 2385   5.102   1.236   4.844 -0.3733  0.0225 -0.0333
    1WN      WN 2386   2.615   2.273   5.840 -0.1892  0.1363 -0.1562
    1WN      WN 2387   3.428   1.410   3.468  0.2240 -0.1774  0.3182
    1WN      WN 2388   5.933   4.041   1.107  0.0766  0.2797 -0.1099
    1WN      WN 2389   4.422   0.843   2.840 -0.1733  0.0806  0.2768
    1WN      WN 2390   0.342   4.477   6.409  0.1507 -0.1429  0.1055
    1WN      WN 2391   3.625   4.152   2.030  0.1584 -0.0457 -0.0795
    1WN      WN 2392   1.217   6.162   5.306  0.0352 -0.1725 -0.2587
    1WN      WN 2393   2.730   3.840   0.608  0.2752  0.0812 -0.2738
    1WN      WN 2394   5.398   4.046   0.094 -0.1432  0.1389 -0.2652
    1WN      WN 2395   3.944   1.305   4.563 -0.0181 -0.0496  0.1192
    1WN      WN 2396   4.297   0.308   3.421  0.6081 -0.0047 -0.0185
    1WN      WN 2397   2.364   0.407   0.515 -0.0523 -0.1750 -0.3531
    1WN      WN 2398   4.166   2.554   0.938 -0.3275  0.1376 -0.0654
    1WN      WN 2399   5.894   5.228   1.266  0.1186 -0.0985 -0.0263
    1WN      WN 2400   3.492   3.743   1.619  0.4173 -0.1339 -0.5332
    1WN      WN 2401   4.888   5.788   0.660 -0.0358  0.2234  0.1888
    1WN      WN 2402   1.201   4.460   0.571  0.1525  0.2765  0.1698
    1WN      WN 2403   6.166   0.629   4.963  0.3281  0.2244  0.1925
    1WN      WN 2404   1.323   2.312   2.278 -0.1768  0.0958  0.2344
    1WN      WN 2405   3.750   2.596   4.464  0.0952  0.1206  0.1846
    1WN      WN 2406   1.853   5.770   5.933 -0.0404  0.1156  0.1160
    1WN      WN 2407   4.585   3.038   2.778  0.4441  0.0311 -0.1175
    1WN      WN 2408   1.298   6.418   1.563  0.0574 -0.0568  0.2963
    1WN      WN 2409   0.451   4.911   5.265  0.1665 -0.0112  0.2719
    1WN      WN 2410   1.912   1.500   4.623  0.1404 -0.0539 -0.0373
    1WN      WN 2411   6.184   5.514   3.464 -0.1224 -0.2704  0.2442
    1WN      WN 2412   6.337   5.966   3.784  0.1332  0.5325  0.0055
    1WN      WN 2413   0.671   2.307   6.388  0.1045  0.0794  0.0319
    1WN      WN 2414   0.672   3.026   1.123  0.0405  0.1274  0.1970
    1WN      WN 2415   1.752   0.557   1.909  0.0293 -0.1639 -0.1419
    1WN      WN 2416   2.883   3.523   5.896 -0.0579  0.1239  0.2848
    1WN      WN 2417   1.694   2.698   0.092 -0.1200 -0.0219  0.1235
    1WN      WN 2418   5.965   1.660   2.324  0.1877  0.0489 -0.1371
    1WN      WN 2419   0.223   1.602   5.670 -0.0106  0.1668 -0.3113
    1WN      WN 2420   3.245   1.275   5.347  0.0562  0.2095 -0.2623
    1WN      WN 2421   6.126   6.138   6.488 -0.2328 -0.0229 -0.1745
    1WN      WN 2422   5.336   5.935   2.319 -0.0561  0.0400  0.4172
    1WN      WN 2423   6.273   3.554   5.915 -0.2109 -0.4537 -0.1312
    1WN      WN 2424   0.996   3.721   3.553 -0.0114 -0.2495  0.3251
    1WN      WN 2425   1.327   0.905   1.715 -0.0346  0.1787  0.0603
    1WN      WN 2426   0.623   3.222   2.337 -0.3105 -0.1034 -0.1562
    1WN      WN 2427   3.726   3.703   3.138  0.3078  0.0666 -0.2700
    1WN      WN 2428   0.457   5.040   2.411  0.1674  0.2626  0.2607
    1WN      WN 2429   6.243   3.990   2.863  0.1654  0.1908  0.0651
    1WN      WN 2430   5.860   5.508   4.300 -0.0665 -0.0248 -0.1311
    1WN      WN 2431   5.034   3.666   6.393  0.0155  0.2178 -0.0459
    1WN      WN 2432   0.506   2.360   5.808 -0.1184 -0.0105 -0.2006
    1WN      WN 2433   1.823   0.927   5.622 -0.2938 -0.2081 -0.1433
    1WN      WN 2434   3.119   0.859   5.600 -0.0909 -0.1701 -0.0155
    1WN      WN 2435   2.796   0.291   0.758  0.1622  0.2761  0.0324
    1WN      WN 2436   2.664   3.997   1.088 -0.3020 -0.2285 -0.2420
    1WN      WN 2437   3.268   5.207   0.974  0.0110 -0.3841  0.1248
    1WN      WN 2438   3.985   3.827   0.712  0.3082  0.3178 -0.2683
    1WN      WN 2439   5.862   4.485   0.295  0.1035  0.0787 -0.2229
    1WN      WN 2440   4.577   6.178   3.557  0.0252 -0.0105 -0.3215
    1WN      WN 2441   4.369   3.286   1.699  0.2774  0.2469  0.0930
    1WN      WN 2442   3.157   1.984   5.826  0.1644 -0.0700  0.0089
    1WN      WN 2443   6.141   2.999   4.860 -0.1308  0.0706 -0.0729
    1WN      WN 2444   2.871   2.206   0.690 -0.2199 -0.1119  0.2123
    1WN      WN 2445   1.702   5.908   0.958 -0.1063 -0.2604  0.0357
    1WN      WN 2446   5.217   4.757   2.268 -0.1472  0.0470  0.2113
    1WN      WN 2447   4.359   2.756   2.197 -0.2796  0.0491 -0.2730
    1WN      WN 2448   5.301   6.249   5.551 -0.0307 -0.1047  0.0703
    1WN      WN 2449   1.648   5.494   1.545  0.2893 -0.3367 -0.0619
    1WN      WN 2450   4.504   1.799   2.607 -0.0999 -0.0443  0.0065
    1WN      WN 2451   6.171   2.045   5.976 -0.2950 -0.1395 -0.1081
    1WN      WN 2452   3.069   1.734   0.741 -0.1079 -0.0172  0.0265
    1WN      WN 2453   4.535   0.987   5.408 -0.1445 -0.0521 -0.2577
    1WN      WN 2454   2.284   4.612   3.778  0.1273 -0.1622  0.0656
    1WN      WN 2455   0.870   5.212   6.047  0.0200 -0.2534  0.0495
    1WN      WN 2456   1.485   6.098   5.847  0.2954 -0.2380 -0.1836
    1WN      WN 2457   3.744   1.547   1.478 -0.0104  0.1234  0.1316
    1WN      WN 2458   3.752   3.833   5.574  0.1952  0.0048 -0.0783
    1WN      WN 2459   0.872   0.864   0.518  0.4885  0.0419  0.1816
    1WN      WN 2460   1.142   0.213   3.689 -0.0399  0.0165 -0.0871
    1WN      WN 2461   0.711   6.002   1.221 -0.1253  0.2186  0.1508
    1WN      WN 2462   4.927   4.022   3.788 -0.0214 -0.0529  0.1044
    1WN      WN 2463   0.180   3.951   3.272  0.2948 -0.2213 -0.0354
    1WN      WN 2464   4.733   5.131   3.007  0.1375 -0.0528 -0.2387
    1WN      WN 2465   4.369   5.676   6.522  0.0360 -0.2363 -0.0846
    1WN      WN 2466   2.251   1.625   5.608 -0.2715  0.0667  0.1888
    1WN      WN 2467   2.457   6.497   1.340  0.1597  0.2165  0.2514
    1WN      WN 2468   4.903   1.857   0.710 -0.0118 -0.0112 -0.0918
    1WN      WN 2469   3.091   4.720   2.122 -0.1481  0.2394  0.0790
    1WN      WN 2470   0.382   1.301   4.469  0.1521  0.1077 -0.0414
    1WN      WN 2471   1.992   5.980   6.366 -0.0098  0.1915  0.0703
    1WN      WN 2472   5.173   4.946   2.769 -0.1170 -0.1296  0.2873
    1WN      WN 2473   5.547   4.069   2.094 -0.3422 -0.0999 -0.0803
    1WN      WN 2474   6.378   2.542   5.044 -0.1124 -0.1130  0.1418
    1WN      WN 2475   4.267   1.421   4.147 -0.3730 -0.2337  0.0258
    1WN      WN 2476   4.200   0.378   6.305  0.0833 -0.0448 -0.0170
    1WN      WN 2477   4.263   5.496   5.595 -0.1566  0.0169 -0.0506
    1WN      WN 2478   4.144   2.405   1.932  0.0698  0.2491  0.0769
    1WN      WN 2479   6.485   3.540   1.296  0.2166  0.1900  0.1929
    1WN      WN 2480   2.947   6.283   1.049 -0.0242 -0.1443  0.1042
    1WN      WN 2481   2.417   5.672   2.488 -0.0592 -0.2453 -0.1019
    1WN      WN 2482   4.740   3.458   2.015  0.2006 -0.2721  0.0629
    1WN      WN 2483   6.101   2.652   0.726 -0.0542 -0.0415  0.2809
    1WN      WN 2484   2.925   5.940   0.182 -0.1163  0.0640  0.0456
    1WN      WN 2485   3.936   0.869   0.605 -0.1969  0.3865 -0.1012
    1WN      WN 2486   4.624   3.146   6.296  0.1472 -0.1112  0.1090
    1WN      WN 2487   2.713   2.284   2.074  0.0066 -0.0517 -0.0608
    1WN      WN 2488   4.991   3.433   3.396 -0.1723  0.1152 -0.2517
    1WN      WN 2489   5.623   2.758   1.985 -0.0658  0.0491  0.2760
    1WN      WN 2490   6.338   3.046   1.528  0.2662 -0.0430 -0.1422
    1WN      WN 2491   3.078   1.560   1.234  0.0222  0.1220  0.0416
    1WN      WN 2492   4.302   0.661   5.870  0.3736  0.3072 -0.0568
    1WN      WN 2493   5.865   2.950   0.340 -0.1898 -0.3332 -0.2182
    1WN      WN 2494   5.843   2.185   0.404 -0.0698 -0.1038 -0.1998
    1WN      WN 2495   5.621   4.996   4.896 -0.2115 -0.3080 -0.1236
    1WN      WN 2496   1.443   6.002   3.253  0.2260 -0.2805  0.0635
    1WN      WN 2497   1.020   4.134   3.110  0.2043 -0.0392  0.1723
    1WN      WN 2498   3.493   2.179   2.534  0.3075  0.1693  0.0389
    1WN      WN 2499   3.828   0.072   5.423  0.0786 -0.3608 -0.0284
    1WN      WN 2500   5.583   1.045   3.894 -0.1763  0.2386  0.0492
    1WN      WN 2501   4.014   3.382   0.380  0.0281  0.1084 -0.1155
    1WN      WN 2502   1.314   1.932   0.004 -0.0331  0.0593  0.2680
    1WN      WN 2503   5.178   1.650   4.483 -0.1213 -0.0551 -0.3247
    1WN      WN 2504   4.648   4.243   1.776  0.1069 -0.1061  0.2610
    1WN      WN 2505   5.561   1.475   4.745  0.0325 -0.0348 -0.3631
    1WN      WN 2506   6.305   4.481   6.300  0.0222  0.1835 -0.0509
    1WN      WN 2507   2.012   0.810   0.293  0.2186 -0.1377 -0.1034
    1WN      WN 2508   1.451   1.874   0.644  0.0748 -0.2129 -0.3837
    1WN      WN 2509   6.398   2.595   1.267  0.0866  0.1286 -0.2810
    1WN      WN 2510   4.934   5.093   6.406 -0.1625  0.1829  0.3418
    1WN      WN 2511   6.195   1.909   3.431 -0.2655  0.0328 -0.3114
    1WN      WN 2512   3.622   1.972   1.400 -0.1863 -0.1768 -0.0552
    1WN      WN 2513   5.470   5.824   6.513  0.2204  0.1235 -0.0524
    1WN      WN 2514   0.369   0.782   0.747  0.0317  0.0751 -0.1706
    1WN      WN 2515   5.849   5.787   2.532  0.1717  0.5724  0.1603
    1WN      WN 2516   2.731   0.255   2.120 -0.1908  0.2881  0.0130
    1WN      WN 2517   5.854   4.303   2.377 -0.1832  0.2776 -0.1074
    1WN      WN 2518   2.855   4.062   6.009 -0.0559  0.1527  0.3598
    1WN      WN 2519   0.210   3.120   5.521  0.2474 -0.0710 -0.1214
    1WN      WN 2520   4.111   4.006   4.670 -0.0601  0.3401 -0.0036
   6.55892   6.55892   6.55892
