[ moleculetype ]
; molname        nrexcl
CIN               1


[ atoms ] 
; id type   CINnr   CINidue  atom   cgnr    charge

 1    TN3a     1      CIN     PA1    1      0.00000
 2     TC5     1      CIN     PA2    2      0.00000
 3     TC5     1      CIN     PA3    3      0.00000
 4     TC5     1      CIN     PA4    4      0.00000
 5     TC5     1      CIN     PA5    5      0.00000


[ bonds ]
;   i     j   funct   length   force.c.

; bond group 1
    1     2       1        0         0           ; 

; bond group 2
    2     3       1        0         0 	;

	
[ constraints ]

; constraint group 1
    3     4       1        0         0           ; 

; constraint group 2
    4     5       1        0         0           ; 
    
; constraint group 3
    3     5       1        0         0           ; 


    
[ angles ]
;   i     j     k    funct     angle   force.c.

; angle group 1
    2     3     4      2       0         0           ;
                                                               
; angle group 2                                         
    2     3     5      2       0         0           ;  
                                                        











                                                                                  