frame t= 0.000
  946
    1CIN    PA1    1   4.245   3.026   1.717
    1CIN    PA2    2   4.111   3.084   1.518
    1CIN    PA3    3   3.995   3.178   1.315
    1CIN    PA4    4   3.830   3.190   1.175
    1CIN    PA5    5   3.827   3.037   1.335
    2WN      WN    6   0.084   3.595   3.359
    3WN      WN    7   0.460   2.488   2.882
    4WN      WN    8   3.165   2.218   0.652
    5WN      WN    9   3.295   3.303   2.679
    6WN      WN   10   1.213   3.294   0.205
    7WN      WN   11   1.296   1.446   1.188
    8WN      WN   12   0.811   1.294   1.352
    9WN      WN   13   1.802   2.109   0.786
   10WN      WN   14   1.477   3.201   3.141
   11WN      WN   15   0.126   0.762   3.104
   12WN      WN   16   0.888   0.042   2.906
   13WN      WN   17   2.582   0.430   1.793
   14WN      WN   18   2.231   1.301   0.363
   15WN      WN   19   2.801   0.735   3.454
   16WN      WN   20   0.167   0.527   2.579
   17WN      WN   21   0.266   3.146   3.600
   18WN      WN   22   1.788   2.536   0.332
   19WN      WN   23   0.220   1.319   2.025
   20WN      WN   24   1.113   1.210   3.262
   21WN      WN   25   3.572   1.069   1.761
   22WN      WN   26   3.336   2.112   2.620
   23WN      WN   27   1.644   1.445   1.647
   24WN      WN   28   2.190   2.784   2.016
   25WN      WN   29   0.690   2.218   2.248
   26WN      WN   30   0.049   1.746   1.819
   27WN      WN   31   1.085   1.718   3.011
   28WN      WN   32   3.356   1.501   3.265
   29WN      WN   33   0.972   2.945   1.710
   30WN      WN   34   2.093   2.634   2.844
   31WN      WN   35   1.313   1.274   2.069
   32WN      WN   36   1.605   2.058   1.712
   33WN      WN   37   2.602   2.831   3.560
   34WN      WN   38   1.681   2.151   3.570
   35WN      WN   39   1.662   1.867   3.048
   36WN      WN   40   0.071   1.258   3.570
   37WN      WN   41   2.903   2.793   3.169
   38WN      WN   42   0.484   0.375   1.167
   39WN      WN   43   1.011   2.633   2.166
   40WN      WN   44   3.474   2.416   1.456
   41WN      WN   45   2.887   0.816   2.023
   42WN      WN   46   3.172   0.769   0.118
   43WN      WN   47   3.637   1.570   2.424
   44WN      WN   48   1.604   3.277   2.177
   45WN      WN   49   3.378   2.743   0.615
   46WN      WN   50   0.507   3.529   0.369
   47WN      WN   51   0.900   3.575   1.045
   48WN      WN   52   0.697   0.329   2.471
   49WN      WN   53   3.320   1.347   2.746
   50WN      WN   54   2.725   1.769   1.205
   51WN      WN   55   2.691   1.457   0.232
   52WN      WN   56   1.899   2.601   2.372
   53WN      WN   57   1.705   0.931   1.571
   54WN      WN   58   2.305   3.018   2.565
   55WN      WN   59   3.176   1.809   0.987
   56WN      WN   60   2.078   0.467   1.003
   57WN      WN   61   0.735   3.161   0.686
   58WN      WN   62   0.106   0.660   1.285
   59WN      WN   63   2.892   1.267   1.759
   60WN      WN   64   0.350   2.884   1.674
   61WN      WN   65   1.691   3.234   0.544
   62WN      WN   66   3.083   1.260   0.008
   63WN      WN   67   0.106   3.018   2.172
   64WN      WN   68   0.897   2.590   2.652
   65WN      WN   69   1.270   1.950   1.271
   66WN      WN   70   1.292   0.355   2.364
   67WN      WN   71   3.521   0.117   1.661
   68WN      WN   72   0.740   1.989   0.129
   69WN      WN   73   0.395   1.022   0.308
   70WN      WN   74   0.457   2.978   1.102
   71WN      WN   75   1.588   2.461   1.350
   72WN      WN   76   2.920   3.320   3.064
   73WN      WN   77   1.846   0.962   0.748
   74WN      WN   78   3.229   3.360   1.520
   75WN      WN   79   2.906   1.213   3.118
   76WN      WN   80   2.246   2.161   2.736
   77WN      WN   81   0.012   1.712   0.942
   78WN      WN   82   1.123   2.127   2.515
   79WN      WN   83   2.327   1.391   0.893
   80WN      WN   84   2.204   1.881   0.997
   81WN      WN   85   0.547   1.301   2.471
   82WN      WN   86   0.532   1.177   3.393
   83WN      WN   87   0.422   0.094   1.552
   84WN      WN   88   2.190   0.441   2.113
   85WN      WN   89   1.838   0.626   3.276
   86WN      WN   90   2.193   0.775   0.454
   87WN      WN   91   3.376   3.168   3.208
   88WN      WN   92   2.343   0.249   3.247
   89WN      WN   93   3.362   2.550   3.369
   90WN      WN   94   2.792   0.717   2.965
   91WN      WN   95   2.592   0.655   1.235
   92WN      WN   96   2.985   1.789   3.639
   93WN      WN   97   0.725   3.365   1.625
   94WN      WN   98   1.383   1.082   0.611
   95WN      WN   99   0.952   0.366   3.275
   96WN      WN  100   3.004   0.850   0.956
   97WN      WN  101   3.371   1.332   0.901
   98WN      WN  102   1.114   3.549   3.372
   99WN      WN  103   1.040   0.085   0.607
  100WN      WN  104   3.361   0.619   1.642
  101WN      WN  105   3.511   2.868   0.087
  102WN      WN  106   0.418   2.071   1.789
  103WN      WN  107   2.335   0.658   0.019
  104WN      WN  108   3.469   2.990   1.739
  105WN      WN  109   3.508   0.184   2.489
  106WN      WN  110   1.953   1.396   3.043
  107WN      WN  111   2.046   2.735   0.746
  108WN      WN  112   2.446   2.029   3.486
  109WN      WN  113   2.120   0.006   1.795
  110WN      WN  114   0.732   0.909   1.858
  111WN      WN  115   0.286   2.109   2.632
  112WN      WN  116   2.145   3.302   1.338
  113WN      WN  117   3.339   0.899   2.210
  114WN      WN  118   1.976   3.246   2.977
  115WN      WN  119   3.319   2.305   0.182
  116WN      WN  120   1.754   1.788   1.243
  117WN      WN  121   3.606   0.299   2.984
  118WN      WN  122   1.755   2.134   2.578
  119WN      WN  123   1.972   1.020   2.023
  120WN      WN  124   2.824   1.318   0.861
  121WN      WN  125   3.111   1.051   0.503
  122WN      WN  126   2.920   3.091   0.892
  123WN      WN  127   2.754   2.694   1.688
  124WN      WN  128   2.650   1.773   0.666
  125WN      WN  129   2.083   1.983   1.652
  126WN      WN  130   2.964   1.771   1.719
  127WN      WN  131   0.339   0.786   2.143
  128WN      WN  132   3.117   1.838   2.970
  129WN      WN  133   3.468   3.456   2.116
  130WN      WN  134   1.398   2.900   1.518
  131WN      WN  135   2.405   3.433   2.842
  132WN      WN  136   2.399   0.763   2.606
  133WN      WN  137   1.606   3.471   2.667
  134WN      WN  138   3.303   0.425   1.133
  135WN      WN  139   3.094   1.744   2.434
  136WN      WN  140   0.077   1.065   2.472
  137WN      WN  141   2.937   0.860   1.490
  138WN      WN  142   3.348   1.011   3.267
  139WN      WN  143   2.233   2.710   1.485
  140WN      WN  144   1.489   3.301   1.098
  141WN      WN  145   0.604   0.481   0.356
  142WN      WN  146   1.708   0.135   2.166
  143WN      WN  147   0.736   3.255   0.014
  144WN      WN  148   1.110   1.721   0.765
  145WN      WN  149   1.764   2.350   3.078
  146WN      WN  150   1.594   0.708   1.068
  147WN      WN  151   2.950   0.305   1.496
  148WN      WN  152   2.670   3.587   1.824
  149WN      WN  153   2.082   3.235   2.164
  150WN      WN  154   1.478   2.272   2.125
  151WN      WN  155   3.248   2.995   2.251
  152WN      WN  156   0.942   0.498   1.020
  153WN      WN  157   1.464   2.795   1.980
  154WN      WN  158   0.947   0.726   0.045
  155WN      WN  159   1.748   1.335   2.439
  156WN      WN  160   2.596   0.201   2.309
  157WN      WN  161   0.016   2.044   2.194
  158WN      WN  162   1.720   1.862   0.352
  159WN      WN  163   0.988   0.177   0.122
  160WN      WN  164   1.726   1.258   1.173
  161WN      WN  165   2.696   0.234   2.872
  162WN      WN  166   1.284   2.246   2.981
  163WN      WN  167   2.088   2.028   3.198
  164WN      WN  168   2.705   2.058   3.091
  165WN      WN  169   1.989   0.198   3.596
  166WN      WN  170   1.211   0.814   1.989
  167WN      WN  171   0.637   0.770   1.387
  168WN      WN  172   0.423   3.482   1.063
  169WN      WN  173   1.755   2.812   3.188
  170WN      WN  174   0.790   2.297   0.547
  171WN      WN  175   2.470   1.682   1.768
  172WN      WN  176   2.750   1.481   2.167
  173WN      WN  177   1.955   2.155   2.101
  174WN      WN  178   2.425   2.529   0.233
  175WN      WN  179   2.097   0.550   1.561
  176WN      WN  180   3.576   0.828   0.829
  177WN      WN  181   0.070   3.417   2.860
  178WN      WN  182   0.487   2.643   2.392
  179WN      WN  183   0.054   3.489   0.624
  180WN      WN  184   1.953   0.759   2.430
  181WN      WN  185   1.316   2.782   0.279
  182WN      WN  186   3.221   3.164   0.465
  183WN      WN  187   2.196   1.817   0.479
  184WN      WN  188   1.039   1.008   0.996
  185WN      WN  189   1.871   0.918   0.048
  186WN      WN  190   2.455   2.483   3.226
  187WN      WN  191   2.808   0.389   0.843
  188WN      WN  192   0.138   0.237   0.291
  189WN      WN  193   1.424   2.556   2.581
  190WN      WN  194   1.223   2.472   1.673
  191WN      WN  195   0.965   2.424   0.071
  192WN      WN  196   0.206   2.665   0.839
  193WN      WN  197   0.710   1.735   3.281
  194WN      WN  198   1.414   0.295   3.467
  195WN      WN  199   2.123   0.437   2.823
  196WN      WN  200   1.318   0.205   1.104
  197WN      WN  201   2.377   0.282   0.609
  198WN      WN  202   0.322   0.214   2.186
  199WN      WN  203   0.370   1.177   1.556
  200WN      WN  204   3.059   0.285   1.962
  201WN      WN  205   0.481   0.783   0.776
  202WN      WN  206   3.052   0.471   2.392
  203WN      WN  207   3.448   1.674   0.077
  204WN      WN  208   0.740   0.432   1.896
  205WN      WN  209   1.854   1.004   2.836
  206WN      WN  210   0.002   0.694   0.314
  207WN      WN  211   0.788   2.083   2.875
  208WN      WN  212   2.146   1.481   2.054
  209WN      WN  213   2.013   3.560   0.350
  210WN      WN  214   0.159   2.067   0.047
  211WN      WN  215   0.894   2.478   3.173
  212WN      WN  216   0.415   1.645   2.804
  213WN      WN  217   1.406   1.750   2.598
  214WN      WN  218   3.174   0.109   2.860
  215WN      WN  219   3.572   1.719   2.851
  216WN      WN  220   3.560   1.919   0.537
  217WN      WN  221   2.423   2.251   0.636
  218WN      WN  222   2.897   3.551   0.331
  219WN      WN  223   2.074   1.541   3.473
  220WN      WN  224   0.404   2.508   3.513
  221WN      WN  225   3.610   0.430   3.465
  222WN      WN  226   3.328   1.358   2.086
  223WN      WN  227   1.636   3.488   3.563
  224WN      WN  228   1.491   0.117   0.290
  225WN      WN  229   3.030   2.716   0.233
  226WN      WN  230   0.799   0.809   3.119
  227WN      WN  231   1.233   2.803   2.981
  228WN      WN  232   3.359   0.794   2.779
  229WN      WN  233   2.570   3.453   0.747
  230WN      WN  234   2.809   2.072   2.114
  231WN      WN  235   1.059   0.488   2.781
  232WN      WN  236   1.528   1.557   3.538
  233WN      WN  237   1.031   2.736   0.732
  234WN      WN  238   2.786   2.234   0.996
  235WN      WN  239   0.554   0.860   2.720
  236WN      WN  240   1.883   2.922   1.184
  237WN      WN  241   3.633   1.482   1.365
  238WN      WN  242   1.855   0.115   3.084
  239WN      WN  243   2.635   2.820   2.163
  240WN      WN  244   2.938   3.164   1.871
  241WN      WN  245   2.157   2.966   0.299
  242WN      WN  246   0.167   2.858   3.141
  243WN      WN  247   0.910   0.850   2.379
  244WN      WN  248   0.880   0.198   1.489
  245WN      WN  249   2.501   1.040   2.181
  246WN      WN  250   1.299   2.211   0.381
  247WN      WN  251   3.297   2.153   1.880
  248WN      WN  252   0.624   2.911   3.303
  249WN      WN  253   3.011   3.593   1.100
  250WN      WN  254   1.110   0.613   1.545
  251WN      WN  255   0.879   2.106   1.635
  252WN      WN  256   1.192   3.517   2.385
  253WN      WN  257   3.259   3.613   3.417
  254WN      WN  258   2.418   1.801   2.350
  255WN      WN  259   0.267   1.599   0.265
  256WN      WN  260   3.401   3.257   0.962
  257WN      WN  261   3.238   0.581   0.581
  258WN      WN  262   1.377   0.100   2.984
  259WN      WN  263   3.083   2.902   1.442
  260WN      WN  264   3.112   1.458   1.347
  261WN      WN  265   1.229   1.131   1.563
  262WN      WN  266   1.474   1.393   2.887
  263WN      WN  267   2.585   2.546   2.750
  264WN      WN  268   1.235   1.000   2.862
  265WN      WN  269   1.214   3.466   1.478
  266WN      WN  270   0.531   3.425   3.112
  267WN      WN  271   0.643   2.786   0.242
  268WN      WN  272   3.160   2.544   1.052
  269WN      WN  273   0.764   1.336   2.938
  270WN      WN  274   3.537   1.266   0.419
  271WN      WN  275   1.282   2.323   0.890
  272WN      WN  276   2.381   1.705   2.971
  273WN      WN  277   2.272   1.333   2.515
  274WN      WN  278   0.832   1.705   2.544
  275WN      WN  279   3.042   3.593   2.373
  276WN      WN  280   2.833   0.227   3.367
  277WN      WN  281   0.497   0.377   2.954
  278WN      WN  282   0.836   1.400   2.007
  279WN      WN  283   1.205   1.214   0.129
  280WN      WN  284   0.008   2.973   2.674
  281WN      WN  285   1.593   1.682   2.117
  282WN      WN  286   1.416   0.707   0.222
  283WN      WN  287   0.551   1.523   1.003
  284WN      WN  288   0.322   3.375   2.440
  285WN      WN  289   3.117   1.601   0.548
  286WN      WN  290   3.212   0.517   3.234
  287WN      WN  291   2.648   2.726   1.197
  288WN      WN  292   0.246   1.650   3.374
  289WN      WN  293   3.212   0.114   0.670
  290WN      WN  294   2.732   2.589   0.681
  291WN      WN  295   1.634   1.647   0.766
  292WN      WN  296   2.821   0.451   0.289
  293WN      WN  297   2.886   1.058   2.475
  294WN      WN  298   0.595   1.651   1.682
  295WN      WN  299   0.889   2.590   1.331
  296WN      WN  300   2.652   1.210   1.296
  297WN      WN  301   1.675   0.589   1.992
  298WN      WN  302   3.637   2.500   2.503
  299WN      WN  303   3.555   0.487   2.064
  300WN      WN  304   0.094   3.317   1.440
  301WN      WN  305   0.603   2.504   0.976
  302WN      WN  306   0.518   0.121   3.529
  303WN      WN  307   1.637   2.974   3.631
  304WN      WN  308   3.392   1.942   1.421
  305WN      WN  309   2.746   2.119   0.301
  306WN      WN  310   2.041   3.640   2.513
  307WN      WN  311   2.898   2.362   3.550
  308WN      WN  312   1.713   0.072   0.830
  309WN      WN  313   2.426   0.941   1.689
  310WN      WN  314   0.112   2.528   2.021
  311WN      WN  315   1.365   0.490   0.662
  312WN      WN  316   1.169   1.974   3.511
  313WN      WN  317   2.163   0.955   1.225
  314WN      WN  318   2.368   2.365   2.347
  315WN      WN  319   0.522   2.970   2.782
  316WN      WN  320   1.113   2.953   3.505
  317WN      WN  321   0.964   0.750   0.519
  318WN      WN  322   2.481   0.892   0.844
  319WN      WN  323   2.439   3.000   3.081
  320WN      WN  324   1.124   1.592   1.680
  321WN      WN  325   0.779   3.290   2.545
  322WN      WN  326   3.524   3.407   0.146
  323WN      WN  327   0.387   2.079   3.142
  324WN      WN  328   2.382   2.341   1.830
  325WN      WN  329   0.818   1.990   1.072
  326WN      WN  330   1.189   2.997   2.467
  327WN      WN  331   1.567   0.416   1.508
  328WN      WN  332   0.178   2.400   0.438
  329WN      WN  333   1.697   1.351   0.308
  330WN      WN  334   0.343   1.900   1.327
  331WN      WN  335   1.633   0.542   2.791
  332WN      WN  336   3.305   0.251   0.218
  333WN      WN  337   3.398   1.997   3.317
  334WN      WN  338   2.052   3.254   3.469
  335WN      WN  339   3.610   2.348   2.991
  336WN      WN  340   3.018   3.146   3.602
  337WN      WN  341   0.757   3.602   2.080
  338WN      WN  342   3.616   2.224   0.954
  339WN      WN  343   2.146   1.491   1.467
  340WN      WN  344   1.913   0.103   1.357
  341WN      WN  345   0.972   3.087   1.194
  342WN      WN  346   1.471   0.828   2.419
  343WN      WN  347   1.171   0.197   1.888
  344WN      WN  348   0.234   3.019   0.436
  345WN      WN  349   2.050   2.383   1.154
  346WN      WN  350   0.925   3.178   3.033
  347WN      WN  351   0.402   2.001   0.729
  348WN      WN  352   0.287   0.544   1.728
  349WN      WN  353   1.835   2.509   1.785
  350WN      WN  354   0.087   0.363   0.805
  351WN      WN  355   2.751   1.569   2.732
  352WN      WN  356   2.628   0.955   0.304
  353WN      WN  357   3.145   2.627   1.952
  354WN      WN  358   1.806   3.111   1.783
  355WN      WN  359   1.218   3.215   0.694
  356WN      WN  360   2.500   0.118   0.124
  357WN      WN  361   0.300   3.378   1.865
  358WN      WN  362   2.497   1.136   3.500
  359WN      WN  363   0.480   0.666   3.499
  360WN      WN  364   0.211   1.266   0.832
  361WN      WN  365   0.902   1.255   0.557
  362WN      WN  366   2.665   1.582   3.374
  363WN      WN  367   1.008   1.863   2.083
  364WN      WN  368   2.482   0.149   1.203
  365WN      WN  369   1.613   3.580   1.706
  366WN      WN  370   2.827   3.042   2.643
  367WN      WN  371   2.411   3.191   1.754
  368WN      WN  372   2.430   2.171   1.348
  369WN      WN  373   1.892   0.396   0.419
  370WN      WN  374   3.573   0.024   1.141
  371WN      WN  375   1.261   1.659   0.304
  372WN      WN  376   3.427   0.996   1.294
  373WN      WN  377   2.119   2.166   0.171
  374WN      WN  378   3.055   2.366   2.919
  375WN      WN  379   2.709   3.067   0.386
  376WN      WN  380   1.324   0.742   3.292
  377WN      WN  381   1.144   1.326   2.533
  378WN      WN  382   3.236   2.821   2.810
  379WN      WN  383   2.336   0.771   3.187
  380WN      WN  384   0.180   1.242   2.964
  381WN      WN  385   1.940   1.719   2.690
  382WN      WN  386   0.297   2.477   1.347
  383WN      WN  387   0.444   1.774   2.237
  384WN      WN  388   2.761   2.060   2.587
  385WN      WN  389   2.533   3.440   3.398
  386WN      WN  390   2.429   1.179   2.951
  387WN      WN  391   2.706   3.233   1.356
  388WN      WN  392   1.708   2.953   2.679
  389WN      WN  393   1.193   3.308   1.948
  390WN      WN  394   2.998   2.479   2.367
  391WN      WN  395   2.048   2.551   3.504
  392WN      WN  396   0.653   2.504   1.843
  393WN      WN  397   2.999   2.263   1.488
  394WN      WN  398   2.640   3.329   2.239
  395WN      WN  399   0.618   3.058   2.109
  396WN      WN  400   1.639   1.110   3.319
  397WN      WN  401   2.090   3.276   0.830
  398WN      WN  402   1.398   2.531   3.468
  399WN      WN  403   1.524   2.769   0.845
  400WN      WN  404   0.745   1.509   0.104
  401WN      WN  405   3.165   2.218   4.296
  402WN      WN  406   1.213   3.294   3.849
  403WN      WN  407   1.802   2.109   4.430
  404WN      WN  408   2.231   1.301   4.007
  405WN      WN  409   1.788   2.536   3.976
  406WN      WN  410   0.484   0.375   4.811
  407WN      WN  411   3.172   0.769   3.762
  408WN      WN  412   3.378   2.743   4.259
  409WN      WN  413   0.507   3.529   4.013
  410WN      WN  414   0.900   3.575   4.689
  411WN      WN  415   2.725   1.769   4.849
  412WN      WN  416   2.691   1.457   3.876
  413WN      WN  417   3.176   1.809   4.631
  414WN      WN  418   2.078   0.467   4.647
  415WN      WN  419   0.735   3.161   4.330
  416WN      WN  420   1.691   3.234   4.188
  417WN      WN  421   3.083   1.260   3.652
  418WN      WN  422   1.270   1.950   4.915
  419WN      WN  423   0.740   1.989   3.773
  420WN      WN  424   0.395   1.022   3.952
  421WN      WN  425   0.457   2.978   4.746
  422WN      WN  426   1.846   0.962   4.392
  423WN      WN  427   0.012   1.712   4.586
  424WN      WN  428   2.327   1.391   4.537
  425WN      WN  429   2.204   1.881   4.641
  426WN      WN  430   2.193   0.775   4.098
  427WN      WN  431   1.383   1.082   4.255
  428WN      WN  432   3.004   0.850   4.600
  429WN      WN  433   3.371   1.332   4.545
  430WN      WN  434   1.040   0.085   4.251
  431WN      WN  435   3.511   2.868   3.731
  432WN      WN  436   2.335   0.658   3.663
  433WN      WN  437   2.046   2.735   4.390
  434WN      WN  438   2.145   3.302   4.982
  435WN      WN  439   3.319   2.305   3.826
  436WN      WN  440   1.754   1.788   4.887
  437WN      WN  441   2.824   1.318   4.505
  438WN      WN  442   3.111   1.051   4.147
  439WN      WN  443   2.920   3.091   4.536
  440WN      WN  444   2.650   1.773   4.310
  441WN      WN  445   3.303   0.425   4.777
  442WN      WN  446   1.489   3.301   4.742
  443WN      WN  447   0.604   0.481   4.000
  444WN      WN  448   0.736   3.255   3.658
  445WN      WN  449   1.110   1.721   4.409
  446WN      WN  450   1.594   0.708   4.712
  447WN      WN  451   0.942   0.498   4.664
  448WN      WN  452   0.947   0.726   3.689
  449WN      WN  453   1.720   1.862   3.996
  450WN      WN  454   0.988   0.177   3.766
  451WN      WN  455   1.726   1.258   4.817
  452WN      WN  456   0.423   3.482   4.707
  453WN      WN  457   0.790   2.297   4.191
  454WN      WN  458   2.425   2.529   3.877
  455WN      WN  459   3.576   0.828   4.473
  456WN      WN  460   0.054   3.489   4.268
  457WN      WN  461   1.316   2.782   3.923
  458WN      WN  462   3.221   3.164   4.109
  459WN      WN  463   2.196   1.817   4.123
  460WN      WN  464   1.039   1.008   4.640
  461WN      WN  465   1.871   0.918   3.692
  462WN      WN  466   2.808   0.389   4.487
  463WN      WN  467   0.138   0.237   3.935
  464WN      WN  468   0.965   2.424   3.715
  465WN      WN  469   0.206   2.665   4.483
  466WN      WN  470   1.318   0.205   4.748
  467WN      WN  471   2.377   0.282   4.253
  468WN      WN  472   0.481   0.783   4.420
  469WN      WN  473   3.448   1.674   3.721
  470WN      WN  474   0.002   0.694   3.958
  471WN      WN  475   2.013   3.560   3.994
  472WN      WN  476   0.159   2.067   3.691
  473WN      WN  477   3.560   1.919   4.181
  474WN      WN  478   2.423   2.251   4.280
  475WN      WN  479   2.897   3.551   3.975
  476WN      WN  480   1.491   0.117   3.934
  477WN      WN  481   3.030   2.716   3.877
  478WN      WN  482   2.570   3.453   4.391
  479WN      WN  483   1.031   2.736   4.376
  480WN      WN  484   2.786   2.234   4.640
  481WN      WN  485   1.883   2.922   4.828
  482WN      WN  486   2.157   2.966   3.943
  483WN      WN  487   1.299   2.211   4.025
  484WN      WN  488   3.011   3.593   4.744
  485WN      WN  489   0.267   1.599   3.909
  486WN      WN  490   3.401   3.257   4.606
  487WN      WN  491   3.238   0.581   4.225
  488WN      WN  492   0.643   2.786   3.886
  489WN      WN  493   3.160   2.544   4.696
  490WN      WN  494   3.537   1.266   4.063
  491WN      WN  495   1.282   2.323   4.534
  492WN      WN  496   1.205   1.214   3.773
  493WN      WN  497   1.416   0.707   3.866
  494WN      WN  498   0.551   1.523   4.647
  495WN      WN  499   3.117   1.601   4.192
  496WN      WN  500   2.648   2.726   4.841
  497WN      WN  501   3.212   0.114   4.314
  498WN      WN  502   2.732   2.589   4.325
  499WN      WN  503   1.634   1.647   4.410
  500WN      WN  504   2.821   0.451   3.933
  501WN      WN  505   0.094   3.317   5.084
  502WN      WN  506   0.603   2.504   4.620
  503WN      WN  507   2.746   2.119   3.945
  504WN      WN  508   1.713   0.072   4.474
  505WN      WN  509   1.365   0.490   4.306
  506WN      WN  510   0.964   0.750   4.163
  507WN      WN  511   2.481   0.892   4.488
  508WN      WN  512   3.524   3.407   3.790
  509WN      WN  513   0.818   1.990   4.716
  510WN      WN  514   0.178   2.400   4.082
  511WN      WN  515   1.697   1.351   3.952
  512WN      WN  516   3.305   0.251   3.862
  513WN      WN  517   3.616   2.224   4.598
  514WN      WN  518   1.913   0.103   5.001
  515WN      WN  519   0.234   3.019   4.080
  516WN      WN  520   2.050   2.383   4.798
  517WN      WN  521   0.402   2.001   4.373
  518WN      WN  522   0.087   0.363   4.449
  519WN      WN  523   2.628   0.955   3.948
  520WN      WN  524   1.218   3.215   4.338
  521WN      WN  525   2.500   0.118   3.768
  522WN      WN  526   0.211   1.266   4.476
  523WN      WN  527   0.902   1.255   4.201
  524WN      WN  528   1.892   0.396   4.063
  525WN      WN  529   3.573   0.024   4.785
  526WN      WN  530   1.261   1.659   3.948
  527WN      WN  531   2.119   2.166   3.815
  528WN      WN  532   2.709   3.067   4.030
  529WN      WN  533   0.297   2.477   4.991
  530WN      WN  534   2.090   3.276   4.474
  531WN      WN  535   1.524   2.769   4.489
  532WN      WN  536   0.745   1.509   3.748
  533WN      WN  537   0.126   4.406   3.104
  534WN      WN  538   0.888   3.686   2.906
  535WN      WN  539   2.582   4.074   1.793
  536WN      WN  540   2.801   4.379   3.454
  537WN      WN  541   0.167   4.171   2.579
  538WN      WN  542   1.113   4.854   3.262
  539WN      WN  543   0.071   4.902   3.570
  540WN      WN  544   0.484   4.019   1.167
  541WN      WN  545   2.887   4.460   2.023
  542WN      WN  546   3.172   4.413   0.118
  543WN      WN  547   0.697   3.973   2.471
  544WN      WN  548   1.705   4.575   1.571
  545WN      WN  549   2.078   4.111   1.003
  546WN      WN  550   0.106   4.304   1.285
  547WN      WN  551   2.892   4.911   1.759
  548WN      WN  552   3.083   4.904   0.008
  549WN      WN  553   1.292   3.999   2.364
  550WN      WN  554   3.521   3.761   1.661
  551WN      WN  555   0.395   4.666   0.308
  552WN      WN  556   1.846   4.606   0.748
  553WN      WN  557   2.906   4.857   3.118
  554WN      WN  558   0.422   3.738   1.552
  555WN      WN  559   2.190   4.085   2.113
  556WN      WN  560   1.838   4.270   3.276
  557WN      WN  561   2.193   4.419   0.454
  558WN      WN  562   2.343   3.893   3.247
  559WN      WN  563   2.792   4.361   2.965
  560WN      WN  564   2.592   4.299   1.235
  561WN      WN  565   1.383   4.726   0.611
  562WN      WN  566   0.952   4.010   3.275
  563WN      WN  567   3.004   4.494   0.956
  564WN      WN  568   1.040   3.729   0.607
  565WN      WN  569   3.361   4.263   1.642
  566WN      WN  570   2.335   4.302   0.019
  567WN      WN  571   3.508   3.828   2.489
  568WN      WN  572   2.120   3.650   1.795
  569WN      WN  573   0.732   4.553   1.858
  570WN      WN  574   3.339   4.543   2.210
  571WN      WN  575   3.606   3.943   2.984
  572WN      WN  576   1.972   4.664   2.023
  573WN      WN  577   2.824   4.962   0.861
  574WN      WN  578   3.111   4.695   0.503
  575WN      WN  579   0.339   4.430   2.143
  576WN      WN  580   2.399   4.407   2.606
  577WN      WN  581   3.303   4.069   1.133
  578WN      WN  582   0.077   4.709   2.472
  579WN      WN  583   2.937   4.504   1.490
  580WN      WN  584   3.348   4.655   3.267
  581WN      WN  585   0.604   4.125   0.356
  582WN      WN  586   1.708   3.779   2.166
  583WN      WN  587   1.594   4.352   1.068
  584WN      WN  588   2.950   3.949   1.496
  585WN      WN  589   0.942   4.142   1.020
  586WN      WN  590   0.947   4.370   0.045
  587WN      WN  591   2.596   3.845   2.309
  588WN      WN  592   0.988   3.821   0.122
  589WN      WN  593   2.696   3.878   2.872
  590WN      WN  594   1.989   3.842   3.596
  591WN      WN  595   1.211   4.458   1.989
  592WN      WN  596   0.637   4.414   1.387
  593WN      WN  597   2.097   4.194   1.561
  594WN      WN  598   3.576   4.472   0.829
  595WN      WN  599   1.953   4.403   2.430
  596WN      WN  600   1.039   4.652   0.996
  597WN      WN  601   1.871   4.562   0.048
  598WN      WN  602   2.808   4.033   0.843
  599WN      WN  603   0.138   3.881   0.291
  600WN      WN  604   1.414   3.939   3.467
  601WN      WN  605   2.123   4.081   2.823
  602WN      WN  606   1.318   3.849   1.104
  603WN      WN  607   2.377   3.926   0.609
  604WN      WN  608   0.322   3.858   2.186
  605WN      WN  609   3.059   3.929   1.962
  606WN      WN  610   0.481   4.427   0.776
  607WN      WN  611   3.052   4.115   2.392
  608WN      WN  612   0.740   4.076   1.896
  609WN      WN  613   1.854   4.648   2.836
  610WN      WN  614   0.002   4.338   0.314
  611WN      WN  615   3.174   3.753   2.860
  612WN      WN  616   3.610   4.074   3.465
  613WN      WN  617   1.491   3.761   0.290
  614WN      WN  618   0.799   4.453   3.119
  615WN      WN  619   3.359   4.438   2.779
  616WN      WN  620   1.059   4.132   2.781
  617WN      WN  621   0.554   4.504   2.720
  618WN      WN  622   1.855   3.759   3.084
  619WN      WN  623   0.910   4.494   2.379
  620WN      WN  624   0.880   3.842   1.489
  621WN      WN  625   2.501   4.684   2.181
  622WN      WN  626   1.110   4.257   1.545
  623WN      WN  627   3.238   4.225   0.581
  624WN      WN  628   1.377   3.744   2.984
  625WN      WN  629   1.229   4.775   1.563
  626WN      WN  630   1.235   4.644   2.862
  627WN      WN  631   3.537   4.910   0.419
  628WN      WN  632   2.272   4.977   2.515
  629WN      WN  633   2.833   3.871   3.367
  630WN      WN  634   0.497   4.021   2.954
  631WN      WN  635   1.416   4.351   0.222
  632WN      WN  636   3.212   4.161   3.234
  633WN      WN  637   3.212   3.758   0.670
  634WN      WN  638   2.821   4.095   0.289
  635WN      WN  639   2.886   4.702   2.475
  636WN      WN  640   1.675   4.233   1.992
  637WN      WN  641   3.555   4.131   2.064
  638WN      WN  642   0.518   3.765   3.529
  639WN      WN  643   1.713   3.716   0.830
  640WN      WN  644   2.426   4.585   1.689
  641WN      WN  645   1.365   4.134   0.662
  642WN      WN  646   2.163   4.599   1.225
  643WN      WN  647   0.964   4.394   0.519
  644WN      WN  648   2.481   4.536   0.844
  645WN      WN  649   1.567   4.060   1.508
  646WN      WN  650   1.633   4.186   2.791
  647WN      WN  651   3.305   3.895   0.218
  648WN      WN  652   1.913   3.747   1.357
  649WN      WN  653   1.471   4.472   2.419
  650WN      WN  654   1.171   3.841   1.888
  651WN      WN  655   0.287   4.188   1.728
  652WN      WN  656   0.087   4.007   0.805
  653WN      WN  657   2.628   4.599   0.304
  654WN      WN  658   2.500   3.762   0.124
  655WN      WN  659   2.497   4.780   3.500
  656WN      WN  660   0.480   4.310   3.499
  657WN      WN  661   0.211   4.910   0.832
  658WN      WN  662   2.482   3.793   1.203
  659WN      WN  663   1.892   4.040   0.419
  660WN      WN  664   3.573   3.668   1.141
  661WN      WN  665   3.427   4.640   1.294
  662WN      WN  666   1.324   4.386   3.292
  663WN      WN  667   1.144   4.970   2.533
  664WN      WN  668   2.336   4.415   3.187
  665WN      WN  669   0.180   4.886   2.964
  666WN      WN  670   2.429   4.823   2.951
  667WN      WN  671   1.639   4.754   3.319
  668WN      WN  672   0.484   4.019   4.811
  669WN      WN  673   3.172   4.413   3.762
  670WN      WN  674   2.078   4.111   4.647
  671WN      WN  675   3.083   4.904   3.652
  672WN      WN  676   0.395   4.666   3.952
  673WN      WN  677   1.846   4.606   4.392
  674WN      WN  678   2.193   4.419   4.098
  675WN      WN  679   1.383   4.726   4.255
  676WN      WN  680   3.004   4.494   4.600
  677WN      WN  681   1.040   3.729   4.251
  678WN      WN  682   2.335   4.302   3.663
  679WN      WN  683   2.824   4.962   4.505
  680WN      WN  684   3.111   4.695   4.147
  681WN      WN  685   3.303   4.069   4.777
  682WN      WN  686   0.604   4.125   4.000
  683WN      WN  687   1.594   4.352   4.712
  684WN      WN  688   0.942   4.142   4.664
  685WN      WN  689   0.947   4.370   3.689
  686WN      WN  690   0.988   3.821   3.766
  687WN      WN  691   3.576   4.472   4.473
  688WN      WN  692   1.039   4.652   4.640
  689WN      WN  693   1.871   4.562   3.692
  690WN      WN  694   2.808   4.033   4.487
  691WN      WN  695   0.138   3.881   3.935
  692WN      WN  696   1.318   3.849   4.748
  693WN      WN  697   2.377   3.926   4.253
  694WN      WN  698   0.481   4.427   4.420
  695WN      WN  699   0.002   4.338   3.958
  696WN      WN  700   1.491   3.761   3.934
  697WN      WN  701   3.238   4.225   4.225
  698WN      WN  702   1.229   4.775   5.207
  699WN      WN  703   3.537   4.910   4.063
  700WN      WN  704   1.416   4.351   3.866
  701WN      WN  705   3.212   3.758   4.314
  702WN      WN  706   2.821   4.095   3.933
  703WN      WN  707   1.713   3.716   4.474
  704WN      WN  708   1.365   4.134   4.306
  705WN      WN  709   0.964   4.394   4.163
  706WN      WN  710   2.481   4.536   4.488
  707WN      WN  711   3.305   3.895   3.862
  708WN      WN  712   0.087   4.007   4.449
  709WN      WN  713   2.628   4.599   3.948
  710WN      WN  714   2.500   3.762   3.768
  711WN      WN  715   0.211   4.910   4.476
  712WN      WN  716   1.892   4.040   4.063
  713WN      WN  717   3.573   3.668   4.785
  714WN      WN  718   3.728   3.595   3.359
  715WN      WN  719   4.104   2.488   2.882
  716WN      WN  720   4.455   1.294   1.352
  717WN      WN  721   3.770   0.762   3.104
  718WN      WN  722   4.532   0.042   2.906
  719WN      WN  723   3.811   0.527   2.579
  720WN      WN  724   3.910   3.146   3.600
  721WN      WN  725   3.864   1.319   2.025
  722WN      WN  726   4.757   1.210   3.262
  723WN      WN  727   4.334   2.218   2.248
  724WN      WN  728   3.693   1.746   1.819
  725WN      WN  729   4.729   1.718   3.011
  726WN      WN  730   4.616   2.945   1.710
  727WN      WN  731   3.715   1.258   3.570
  728WN      WN  732   4.128   0.375   1.167
  729WN      WN  733   4.655   2.633   2.166
  730WN      WN  734   4.151   3.529   0.369
  731WN      WN  735   4.544   3.575   1.045
  732WN      WN  736   4.341   0.329   2.471
  733WN      WN  737   4.379   3.161   0.686
  734WN      WN  738   3.750   0.660   1.285
  735WN      WN  739   3.750   3.018   2.172
  736WN      WN  740   4.541   2.590   2.652
  737WN      WN  741   4.384   1.989   0.129
  738WN      WN  742   4.039   1.022   0.308
  739WN      WN  743   3.656   1.712   0.942
  740WN      WN  744   4.191   1.301   2.471
  741WN      WN  745   4.176   1.177   3.393
  742WN      WN  746   4.066   0.094   1.552
  743WN      WN  747   4.369   3.365   1.625
  744WN      WN  748   4.596   0.366   3.275
  745WN      WN  749   4.684   0.085   0.607
  746WN      WN  750   4.062   2.071   1.789
  747WN      WN  751   4.376   0.909   1.858
  748WN      WN  752   3.930   2.109   2.632
  749WN      WN  753   3.983   0.786   2.143
  750WN      WN  754   3.721   1.065   2.472
  751WN      WN  755   4.248   0.481   0.356
  752WN      WN  756   4.380   3.255   0.014
  753WN      WN  757   4.586   0.498   1.020
  754WN      WN  758   4.591   0.726   0.045
  755WN      WN  759   3.660   2.044   2.194
  756WN      WN  760   4.632   0.177   0.122
  757WN      WN  761   4.928   2.246   2.981
  758WN      WN  762   4.855   0.814   1.989
  759WN      WN  763   4.281   0.770   1.387
  760WN      WN  764   4.067   3.482   1.063
  761WN      WN  765   4.434   2.297   0.547
  762WN      WN  766   3.714   3.417   2.860
  763WN      WN  767   4.131   2.643   2.392
  764WN      WN  768   3.698   3.489   0.624
  765WN      WN  769   4.683   1.008   0.996
  766WN      WN  770   3.782   0.237   0.291
  767WN      WN  771   5.068   2.556   2.581
  768WN      WN  772   4.867   2.472   1.673
  769WN      WN  773   4.609   2.424   0.071
  770WN      WN  774   3.850   2.665   0.839
  771WN      WN  775   4.354   1.735   3.281
  772WN      WN  776   3.966   0.214   2.186
  773WN      WN  777   4.014   1.177   1.556
  774WN      WN  778   4.125   0.783   0.776
  775WN      WN  779   4.384   0.432   1.896
  776WN      WN  780   3.646   0.694   0.314
  777WN      WN  781   4.432   2.083   2.875
  778WN      WN  782   3.803   2.067   0.047
  779WN      WN  783   4.538   2.478   3.173
  780WN      WN  784   4.059   1.645   2.804
  781WN      WN  785   5.050   1.750   2.598
  782WN      WN  786   4.048   2.508   3.513
  783WN      WN  787   4.443   0.809   3.119
  784WN      WN  788   4.703   0.488   2.781
  785WN      WN  789   4.675   2.736   0.732
  786WN      WN  790   4.198   0.860   2.720
  787WN      WN  791   3.811   2.858   3.141
  788WN      WN  792   4.554   0.850   2.379
  789WN      WN  793   4.524   0.198   1.489
  790WN      WN  794   4.268   2.911   3.303
  791WN      WN  795   4.754   0.613   1.545
  792WN      WN  796   4.523   2.106   1.635
  793WN      WN  797   4.836   3.517   2.385
  794WN      WN  798   3.911   1.599   0.265
  795WN      WN  799   4.873   1.131   1.563
  796WN      WN  800   4.175   3.425   3.112
  797WN      WN  801   4.287   2.786   0.242
  798WN      WN  802   4.408   1.336   2.938
  799WN      WN  803   4.926   2.323   0.890
  800WN      WN  804   4.476   1.705   2.544
  801WN      WN  805   4.141   0.377   2.954
  802WN      WN  806   4.480   1.400   2.007
  803WN      WN  807   4.849   1.214   0.129
  804WN      WN  808   3.652   2.973   2.674
  805WN      WN  809   4.195   1.523   1.003
  806WN      WN  810   3.966   3.375   2.440
  807WN      WN  811   3.890   1.650   3.374
  808WN      WN  812   4.239   1.651   1.682
  809WN      WN  813   4.533   2.590   1.331
  810WN      WN  814   4.247   2.504   0.976
  811WN      WN  815   4.162   0.121   3.529
  812WN      WN  816   3.756   2.528   2.021
  813WN      WN  817   4.166   2.970   2.782
  814WN      WN  818   4.757   2.953   3.505
  815WN      WN  819   4.608   0.750   0.519
  816WN      WN  820   4.423   3.290   2.545
  817WN      WN  821   4.031   2.079   3.142
  818WN      WN  822   4.462   1.990   1.072
  819WN      WN  823   3.822   2.400   0.438
  820WN      WN  824   3.987   1.900   1.327
  821WN      WN  825   4.401   3.602   2.080
  822WN      WN  826   4.616   3.087   1.194
  823WN      WN  827   4.815   0.197   1.888
  824WN      WN  828   3.878   3.019   0.436
  825WN      WN  829   4.569   3.178   3.033
  826WN      WN  830   4.046   2.001   0.729
  827WN      WN  831   3.931   0.544   1.728
  828WN      WN  832   3.731   0.363   0.805
  829WN      WN  833   3.944   3.378   1.865
  830WN      WN  834   4.124   0.666   3.499
  831WN      WN  835   3.855   1.266   0.832
  832WN      WN  836   4.546   1.255   0.557
  833WN      WN  837   4.652   1.863   2.083
  834WN      WN  838   3.824   1.242   2.964
  835WN      WN  839   3.941   2.477   1.347
  836WN      WN  840   4.088   1.774   2.237
  837WN      WN  841   4.837   3.308   1.948
  838WN      WN  842   4.297   2.504   1.843
  839WN      WN  843   4.262   3.058   2.109
  840WN      WN  844   4.389   1.509   0.104
  841WN      WN  845   4.857   3.294   3.849
  842WN      WN  846   4.128   0.375   4.811
  843WN      WN  847   4.151   3.529   4.013
  844WN      WN  848   4.544   3.575   4.689
  845WN      WN  849   4.379   3.161   4.330
  846WN      WN  850   4.384   1.989   3.773
  847WN      WN  851   4.039   1.022   3.952
  848WN      WN  852   4.101   2.978   4.746
  849WN      WN  853   3.656   1.712   4.586
  850WN      WN  854   4.684   0.085   4.251
  851WN      WN  855   4.248   0.481   4.000
  852WN      WN  856   4.380   3.255   3.658
  853WN      WN  857   4.586   0.498   4.664
  854WN      WN  858   4.591   0.726   3.689
  855WN      WN  859   4.632   0.177   3.766
  856WN      WN  860   4.067   3.482   4.707
  857WN      WN  861   4.434   2.297   4.191
  858WN      WN  862   3.698   3.489   4.268
  859WN      WN  863   4.683   1.008   4.640
  860WN      WN  864   3.782   0.237   3.935
  861WN      WN  865   4.609   2.424   3.715
  862WN      WN  866   3.850   2.665   4.483
  863WN      WN  867   4.125   0.783   4.420
  864WN      WN  868   3.646   0.694   3.958
  865WN      WN  869   3.803   2.067   3.691
  866WN      WN  870   4.675   2.736   4.376
  867WN      WN  871   3.911   1.599   3.909
  868WN      WN  872   4.287   2.786   3.886
  869WN      WN  873   4.926   2.323   4.534
  870WN      WN  874   4.195   1.523   4.647
  871WN      WN  875   4.247   2.504   4.620
  872WN      WN  876   4.608   0.750   4.163
  873WN      WN  877   4.768   1.592   5.324
  874WN      WN  878   4.462   1.990   4.716
  875WN      WN  879   3.822   2.400   4.082
  876WN      WN  880   3.878   3.019   4.080
  877WN      WN  881   4.046   2.001   4.373
  878WN      WN  882   3.731   0.363   4.449
  879WN      WN  883   3.855   1.266   4.476
  880WN      WN  884   4.546   1.255   4.201
  881WN      WN  885   3.941   2.477   4.991
  882WN      WN  886   4.389   1.509   3.748
  883WN      WN  887   4.940   5.090   1.188
  884WN      WN  888   3.770   4.406   3.104
  885WN      WN  889   4.532   3.686   2.906
  886WN      WN  890   3.811   4.171   2.579
  887WN      WN  891   4.757   4.854   3.262
  888WN      WN  892   3.715   4.902   3.570
  889WN      WN  893   4.128   4.019   1.167
  890WN      WN  894   4.341   3.973   2.471
  891WN      WN  895   3.750   4.304   1.285
  892WN      WN  896   4.039   4.666   0.308
  893WN      WN  897   4.066   3.738   1.552
  894WN      WN  898   4.596   4.010   3.275
  895WN      WN  899   4.684   3.729   0.607
  896WN      WN  900   4.376   4.553   1.858
  897WN      WN  901   3.983   4.430   2.143
  898WN      WN  902   3.721   4.709   2.472
  899WN      WN  903   4.248   4.125   0.356
  900WN      WN  904   4.586   4.142   1.020
  901WN      WN  905   4.591   4.370   0.045
  902WN      WN  906   4.632   3.821   0.122
  903WN      WN  907   4.855   4.458   1.989
  904WN      WN  908   4.281   4.414   1.387
  905WN      WN  909   4.683   4.652   0.996
  906WN      WN  910   3.782   3.881   0.291
  907WN      WN  911   3.966   3.858   2.186
  908WN      WN  912   4.125   4.427   0.776
  909WN      WN  913   4.384   4.076   1.896
  910WN      WN  914   3.646   4.338   0.314
  911WN      WN  915   4.443   4.453   3.119
  912WN      WN  916   4.703   4.132   2.781
  913WN      WN  917   4.198   4.504   2.720
  914WN      WN  918   4.554   4.494   2.379
  915WN      WN  919   4.524   3.842   1.489
  916WN      WN  920   4.754   4.257   1.545
  917WN      WN  921   4.873   4.775   1.563
  918WN      WN  922   4.141   4.021   2.954
  919WN      WN  923   4.162   3.765   3.529
  920WN      WN  924   4.608   4.394   0.519
  921WN      WN  925   4.815   3.841   1.888
  922WN      WN  926   3.931   4.188   1.728
  923WN      WN  927   3.731   4.007   0.805
  924WN      WN  928   4.124   4.310   3.499
  925WN      WN  929   3.855   4.910   0.832
  926WN      WN  930   3.824   4.886   2.964
  927WN      WN  931   4.940   5.090   4.832
  928WN      WN  932   4.128   4.019   4.811
  929WN      WN  933   4.039   4.666   3.952
  930WN      WN  934   4.684   3.729   4.251
  931WN      WN  935   4.248   4.125   4.000
  932WN      WN  936   4.586   4.142   4.664
  933WN      WN  937   4.591   4.370   3.689
  934WN      WN  938   4.632   3.821   3.766
  935WN      WN  939   4.683   4.652   4.640
  936WN      WN  940   3.782   3.881   3.935
  937WN      WN  941   4.125   4.427   4.420
  938WN      WN  942   3.646   4.338   3.958
  939WN      WN  943   4.873   4.775   5.207
  940WN      WN  944   4.608   4.394   4.163
  941WN      WN  945   3.731   4.007   4.449
  942WN      WN  946   3.855   4.910   4.476
   5.00000   5.00000   5.00000
