[ moleculetype ]
; molname        nrexcl
RES              1


[ atoms ]
; id type resnr residue   atom  cgnr    charge     mass

1     SP1     1     RES    PA1  1      0.00000     54.00
2     SP1     1     RES    PA2  2      0.00000     54.00
3     TC5     1     RES    PA3  3      0.00000     36.00
4     TC5     1     RES    PA4  4      0.00000     36.00
5     TC5     1     RES    PA5  5      0.00000     36.00
6     TC5     1     RES    PA6  6      0.00000     36.00
7     SP1     1     RES    PA7  7      0.00000     54.00


[ bonds ]
;   i     j   funct   length   force.c.

; bond type 1
    1     2       1    0.280  7586.70           ; 1

; bond type 2
    1     3       1    0.308  11616.19           ; 2

; bond type 3
    2     3       1    0.228  11142.63           ; 3

; bond type 4
    2     4       1    0.237  10034.72           ; 4

; bond type 5
    4     5       1    0.239  9619.59           ; 5

; bond type 6
    5     7       1    0.279  8371.12           ; 6

; bond type 7
    5     6       1    0.208  7269.87           ; 7

; bond type 8
    6     7       1    0.231  10709.54           ; 8


[ angles ]
;   i     j     k   funct     angle   force.c.

; angle type 1
    2     1     3       2     45.89    957.60           ; 1

; angle type 2
    2     4     5       2    161.41    731.65           ; 2

; angle type 3
    7     5     4       2    158.86    491.00           ; 3

; angle type 4
    7     6     5       2     78.22    979.12           ; 4


[ dihedrals ]
;   i     j     k     l   funct     dihedral   force.c.   mult.

; dihedral type 1
    3     1     2     4       1         5.29    7.74       1     ; 1

; dihedral type 2
    7     6     5     4       1        -3.30    1.72       1     ; 2


