; Include forcefield paraCATers
#include "martini_v3.0.b.3.2.itp"
#include "martini_v3.0_solvents.itp"
#include "martini_v3.0_phospholipids.itp"
#include "cg_model.itp"


[ system ]
; Name
RES in water

[ molecules ]
; Compound        #mols
RES                1
WN                 940
               