OST in water
 2540
    1OST    PA1    1   1.848   1.942   6.273 -0.1750 -0.1541 -0.1681
    1OST    PA2    2   2.158   1.789   6.307 -0.2116  0.0045  0.1323
    1OST    PA3    3   2.090   1.754   6.046 -0.3303  0.0528 -0.1672
    1OST    PA4    4   2.329   1.713   6.316  0.0550  0.1888 -0.1290
    1OST    PA5    5   2.435   1.817   6.589  0.5567 -0.2214 -0.1017
    1OST    PA6    6   2.219   1.954   6.614 -0.4491  0.0505 -0.3805
    1OST    PA1    7   2.767   1.123   5.752  0.0685  0.2364  0.0386
    1OST    PA2    8   2.577   1.411   5.649 -0.0015  0.1047  0.1316
    1OST    PA3    9   2.344   1.529   5.809 -0.1227 -0.4769 -0.0434
    1OST    PA4   10   2.454   1.373   5.474  0.0990 -0.2165  0.3773
    1OST    PA5   11   2.728   1.480   5.317 -0.3588  0.1350 -0.1962
    1OST    PA6   12   2.896   1.537   5.511 -0.1775  0.0112 -0.3796
    1OST    PA1   13   2.816   2.685   0.094 -0.0783 -0.0370 -0.1595
    1OST    PA2   14   3.082   2.525  -0.068 -0.2378 -0.4393  0.0142
    1OST    PA3   15   3.114   2.365   0.198 -0.0399  0.1969 -0.2310
    1OST    PA4   16   3.261   2.544  -0.112  0.1498  0.3659 -0.0370
    1OST    PA5   17   3.260   2.700  -0.387  0.2907  0.3118 -0.3981
    1OST    PA6   18   3.037   2.724  -0.362  0.4664 -0.3109 -0.0688
    1OST    PA1   19   3.479   1.361   0.145  0.1947 -0.0847 -0.0040
    1OST    PA2   20   3.619   1.072  -0.005 -0.0327 -0.1687  0.0192
    1OST    PA3   21   3.897   1.133   0.070 -0.1612 -0.1817  0.0684
    1OST    PA4   22   3.652   0.940  -0.150  0.1483  0.2452  0.0309
    1OST    PA5   23   3.359   0.782  -0.116 -0.4157 -0.1741  0.0355
    1OST    PA6   24   3.326   0.959   0.082 -0.0158 -0.3260  0.3761
    1OST    PA1   25   4.160   0.788   6.546  0.0297 -0.2047 -0.1633
    1OST    PA2   26   3.997   0.608   6.789 -0.4468  0.2090 -0.0338
    1OST    PA3   27   3.796   0.825   6.717 -0.0235 -0.5393 -0.3384
    1OST    PA4   28   3.899   0.487   6.887  0.4832  0.1088 -0.2421
    1OST    PA5   29   4.148   0.406   7.067  0.1071  0.3574 -0.0775
    1OST    PA6   30   4.317   0.498   6.900  0.2952 -0.2306  0.0343
    1OST    PA1   31   3.331   2.187   6.176 -0.1057  0.3519 -0.1722
    1OST    PA2   32   3.101   1.955   6.310 -0.3890  0.0351  0.1670
    1OST    PA3   33   3.344   1.794   6.361  0.0078 -0.1207 -0.0311
    1OST    PA4   34   2.999   1.907   6.477 -0.2747 -0.2450 -0.0914
    1OST    PA5   35   2.837   2.178   6.435  0.3929 -0.6412 -0.2942
    1OST    PA6   36   2.878   2.223   6.235  0.3286  0.0838  0.0205
    1OST    PA1   37   4.441   2.095   6.059 -0.1301 -0.3782  0.0193
    1OST    PA2   38   4.205   1.886   5.912 -0.0792 -0.5781 -0.1186
    1OST    PA3   39   4.002   2.099   6.008 -0.0139 -0.2821 -0.0176
    1OST    PA4   40   4.074   1.740   5.900 -0.2169  0.0063  0.0454
    1OST    PA5   41   4.281   1.517   5.948 -0.0077  0.0062 -0.0038
    1OST    PA6   42   4.466   1.655   5.956 -0.0478  0.2149  0.1866
    1OST    PA1   43   6.226   5.058   0.589  0.1179  0.4742 -0.1943
    1OST    PA2   44   6.485   5.296   0.556  0.4405 -0.0117 -0.3865
    1OST    PA3   45   6.706   5.158   0.464 -0.1712 -0.1123  0.4455
    1OST    PA4   46   6.582   5.501   0.568  0.2309 -0.0291 -0.1330
    1OST    PA5   47   6.376   5.649   0.693  0.2000 -0.3898  0.1068
    1OST    PA6   48   6.239   5.483   0.751  0.2362  0.2200  0.2557
    1OST    PA1   49   3.446   1.947   0.219  0.2370  0.3974  0.2652
    1OST    PA2   50   3.740   1.949   0.001  0.2499 -0.0527  0.6085
    1OST    PA3   51   3.734   1.647   0.012  0.1576  0.5902 -0.3353
    1OST    PA4   52   3.777   1.948  -0.216 -0.0548  0.1747 -0.0279
    1OST    PA5   53   3.818   2.239  -0.238 -0.0619 -0.0957  0.0608
    1OST    PA6   54   3.826   2.301  -0.017  0.1228 -0.0113  0.2918
    1OST    PA1   55   3.682   1.466   6.138  0.5376 -0.3640  0.1936
    1OST    PA2   56   3.438   1.194   6.108 -0.0014 -0.2482 -0.4361
    1OST    PA3   57   3.620   1.015   5.964 -0.0492  0.0486  0.1469
    1OST    PA4   58   3.324   1.058   6.164  0.0097 -0.5856 -0.2318
    1OST    PA5   59   3.155   1.215   6.364 -0.0568  0.0659  0.0446
    1OST    PA6   60   3.250   1.412   6.320  0.0826  0.0499 -0.1736
    1OST    PA1   61   4.152   1.105   6.086  0.1488  0.2728  0.1079
    1OST    PA2   62   4.447   0.996   6.256 -0.0330  0.3304 -0.0300
    1OST    PA3   63   4.491   1.294   6.210 -0.3675  0.2942 -0.2209
    1OST    PA4   64   4.567   0.962   6.423 -0.2556 -0.1635 -0.1690
    1OST    PA5   65   4.678   0.687   6.320  0.0007 -0.1140  0.0563
    1OST    PA6   66   4.542   0.685   6.112 -0.1973 -0.0545  0.0869
    1OST    PA1   67   4.663   1.862   6.411  0.3659 -0.1014  0.0393
    1OST    PA2   68   4.305   1.766   6.448 -0.0609 -0.1455 -0.1103
    1OST    PA3   69   4.155   2.019   6.444  0.1568  0.2458  0.2342
    1OST    PA4   70   4.150   1.654   6.392 -0.1455  0.4670  0.0671
    1OST    PA5   71   4.184   1.418   6.575 -0.1521 -0.2451  0.0170
    1OST    PA6   72   4.415   1.524   6.664  0.1725 -0.0040 -0.0861
    1OST    PA1   73   2.762   1.556   6.520 -0.0840  0.0409 -0.1161
    1OST    PA2   74   2.616   1.340   6.273 -0.0167 -0.0172  0.2937
    1OST    PA3   75   2.889   1.285   6.127 -0.3017 -0.3562 -0.1098
    1OST    PA4   76   2.501   1.200   6.126 -0.1108  0.3026 -0.0146
    1OST    PA5   77   2.281   1.197   6.380  0.0816 -0.1772  0.0085
    1OST    PA6   78   2.377   1.301   6.537 -0.4111 -0.0870 -0.0113
    1OST    PA1   79   0.645   4.191   2.640 -0.0227 -0.0770  0.3268
    1OST    PA2   80   0.822   4.065   2.341 -0.2009  0.0132 -0.4532
    1OST    PA3   81   0.796   3.813   2.526 -0.1087 -0.4448  0.2617
    1OST    PA4   82   0.817   3.960   2.176  0.2415  0.0196 -0.5825
    1OST    PA5   83   0.804   4.230   2.007  0.3310  0.1611 -0.1334
    1OST    PA6   84   0.857   4.398   2.168  0.1011  0.2466 -0.0884
    1OST    PA1   85   2.255   2.147   5.998  0.1747 -0.0826  0.3806
    1OST    PA2   86   2.555   1.974   6.058  0.0609  0.1635 -0.2502
    1OST    PA3   87   2.473   2.085   6.321 -0.3748  0.5518 -0.4093
    1OST    PA4   88   2.680   1.846   6.114 -0.3626 -0.4506 -0.1157
    1OST    PA5   89   2.726   1.778   5.803 -0.6304 -0.4126 -0.0873
    1OST    PA6   90   2.640   1.965   5.704 -0.1121  0.1134 -0.1491
    1OST    PA1   91   3.572   1.874   5.930 -0.3234  0.1609 -0.0295
    1OST    PA2   92   3.213   1.780   5.885  0.0478 -0.3255 -0.4185
    1OST    PA3   93   3.044   2.023   5.821 -0.1622  0.0834 -0.4906
    1OST    PA4   94   3.072   1.681   6.003 -0.1062  0.0138  0.2564
    1OST    PA5   95   3.200   1.416   5.943 -0.0739  0.3967 -0.2667
    1OST    PA6   96   3.372   1.495   5.783 -0.2763 -0.3066  0.3472
    1OST    PA1   97   2.551   2.517   6.234  0.0188 -0.0029  0.1901
    1OST    PA2   98   2.267   2.410   6.422  0.5127 -0.2878  0.2115
    1OST    PA3   99   2.079   2.501   6.203  0.7932 -0.4108 -0.1924
    1OST    PA4  100   2.133   2.374   6.556  0.0704 -0.1536  0.0448
    1OST    PA5  101   2.324   2.298   6.796 -0.3427  0.2048  0.2748
    1OST    PA6  102   2.510   2.327   6.660 -0.0571  0.2777 -0.3288
    1OST    PA1  103   4.436   0.795   0.733 -0.1778 -0.0736  0.2995
    1OST    PA2  104   4.212   0.907   0.464  0.1431 -0.0664 -0.1163
    1OST    PA3  105   3.985   0.780   0.611  0.2065  0.2855 -0.1343
    1OST    PA4  106   4.091   1.052   0.385  0.0586 -0.3509 -0.1456
    1OST    PA5  107   4.354   1.107   0.246 -0.4773 -0.8253  0.3897
    1OST    PA6  108   4.517   0.957   0.296 -0.2318  0.2577  0.1364
    1OST    PA1  109   2.776   2.359   0.479  0.3277  0.0356 -0.2407
    1OST    PA2  110   2.542   2.676   0.442 -0.2038 -0.0817 -0.4781
    1OST    PA3  111   2.628   2.987   0.438  0.0819  0.0836  0.2442
    1OST    PA4  112   2.402   2.710   0.341  0.0378  0.2085  0.0201
    1OST    PA5  113   2.185   2.489   0.462  0.4988  0.2721  0.2166
    1OST    PA6  114   2.344   2.431   0.626 -0.1917  0.1886 -0.2048
    1OST    PA1  115   2.689   0.777   6.221 -0.2683 -0.1147 -0.0193
    1OST    PA2  116   3.026   0.698   6.159 -0.0439 -0.2152  0.0352
    1OST    PA3  117   3.006   0.763   5.869  0.0775 -0.3075  0.0175
    1OST    PA4  118   3.212   0.634   6.133 -0.2132  0.2866 -0.1032
    1OST    PA5  119   3.238   0.441   6.425 -0.4009 -0.7518 -0.1756
    1OST    PA6  120   2.986   0.549   6.504 -0.0312  0.0226  0.4517
    1bCD     C4  121   1.083   5.772   5.038  0.0272 -0.0026  0.0143
    1bCD     O2  122   0.987   5.679   4.836  0.1538  0.6126 -1.0473
    1bCD     C6  123   1.012   5.936   5.267 -0.4952 -0.2023 -0.0873
    1bCD     C4  124   1.539   5.654   4.975 -0.0656  0.1372  0.0400
    1bCD     O2  125   1.448   5.515   4.827 -0.2637  0.6141  0.3499
    1bCD     C6  126   1.501   5.723   5.253 -0.2576 -0.0351 -0.2115
    1bCD     C4  127   1.868   5.944   4.737 -0.2942 -0.0276  0.0843
    1bCD     O2  128   1.763   5.835   4.568 -0.4271 -0.0322  0.4443
    1bCD     C6  129   1.923   5.902   5.027  0.1046 -0.3327  0.4018
    1bCD     C4  130   1.760   6.422   4.611  0.1799  0.1885 -0.1333
    1bCD     O2  131   1.733   6.293   4.424  0.3569 -0.2483  0.1823
    1bCD     C6  132   1.937   6.365   4.846  0.0436 -0.3538 -0.4438
    1bCD     C4  133   1.321   6.635   4.675 -0.1107 -0.2791 -0.3306
    1bCD     O2  134   1.316   6.563   4.455  0.3040  0.2281  0.2224
    1bCD     C6  135   1.515   6.681   4.880 -0.3202 -0.4140 -0.0097
    1bCD     C4  136   0.860   6.526   4.797  0.1976 -0.0271  0.2871
    1bCD     O2  137   0.867   6.477   4.578 -0.4695  0.1775 -0.0074
    1bCD     C6  138   1.006   6.671   4.987 -0.6951  0.0070 -0.0415
    1bCD     C4  139   0.724   6.090   4.991  0.0961  0.0308  0.3427
    1bCD     O2  140   0.648   6.056   4.757 -0.4530  0.5135  0.2525
    1bCD     C6  141   0.727   6.297   5.168  0.4796 -0.6014  0.1497
    1bCD     C4  142   0.415   5.548   4.561  0.1070  0.1377  0.0508
    1bCD     O2  143   0.228   5.508   4.439  0.5887  0.1681 -0.1250
    1bCD     C6  144   0.505   5.693   4.801  0.0788  0.0649 -0.0999
    1bCD     C4  145   0.758   5.458   4.230 -0.0348 -0.0329  0.0843
    1bCD     O2  146   0.573   5.337   4.136  0.0494  0.0794 -0.5600
    1bCD     C6  147   0.849   5.507   4.504 -0.5374  0.2365  0.0150
    1bCD     C4  148   0.921   5.748   3.893  0.1184 -0.3488  0.2814
    1bCD     O2  149   0.786   5.609   3.750  0.4980 -0.0301  0.0599
    1bCD     C6  150   1.117   5.647   4.074 -0.3660  0.2020 -0.0108
    1bCD     C4  151   0.818   6.205   3.851 -0.0611 -0.0652  0.0294
    1bCD     O2  152   0.720   6.116   3.673  0.4578 -0.0838 -0.0424
    1bCD     C6  153   1.090   6.151   3.982  0.2309 -0.0129 -0.3293
    1bCD     C4  154   0.521   6.498   4.111  0.0718  0.0736 -0.2680
    1bCD     O2  155   0.420   6.472   3.891 -0.0540  0.1393 -0.1406
    1bCD     C6  156   0.789   6.509   4.210 -0.2593  0.4642  0.2564
    1bCD     C4  157   0.205   6.350   4.449 -0.2132 -0.0995 -0.1811
    1bCD     O2  158   0.084   6.337   4.261 -0.1527 -0.1252  0.1442
    1bCD     C6  159   0.432   6.518   4.519  0.1379  0.2653 -0.1812
    1bCD     C4  160   0.132   5.933   4.677 -0.1367  0.1419 -0.2508
    1bCD     O2  161  -0.055   5.949   4.545 -0.1221  0.3829  0.0251
    1bCD     C6  162   0.273   6.146   4.839  0.1443  0.2611 -0.1666
    1bCD     C4  163   1.789   5.779   0.139  0.0159  0.0899  0.1294
    1bCD     O2  164   1.767   5.995   0.045 -0.1910 -0.0800 -0.5471
    1bCD     C6  165   1.972   5.593   0.255  0.1205 -0.0354 -0.2357
    1bCD     C4  166   1.365   5.573   0.026 -0.2408 -0.0522  0.0234
    1bCD     O2  167   1.317   5.807  -0.026  0.0551 -0.1359 -0.0001
    1bCD     C6  168   1.511   5.430   0.240 -0.1502 -0.1872  0.0621
    1bCD     C4  169   1.398   5.360  -0.409 -0.0609  0.3076  0.3107
    1bCD     O2  170   1.275   5.552  -0.490 -0.1227  0.6673  0.1855
    1bCD     C6  171   1.398   5.193  -0.176  0.5527 -0.0709 -0.2354
    1bCD     C4  172   1.813   5.349  -0.677  0.1452  0.1284  0.0637
    1bCD     O2  173   1.683   5.487  -0.826 -0.2150  0.5079 -0.2856
    1bCD     C6  174   1.753   5.101  -0.548  0.1671  0.0413  0.2342
    1bCD     C4  175   2.262   5.498  -0.633 -0.0959 -0.1144 -0.0531
    1bCD     O2  176   2.174   5.642  -0.809 -0.0431 -0.0116 -0.2660
    1bCD     C6  177   2.216   5.235  -0.539 -0.2969  0.7009 -0.1816
    1bCD     C4  178   2.481   5.773  -0.321 -0.3040 -0.0988  0.0201
    1bCD     O2  179   2.447   5.914  -0.485 -0.2176  0.0556  0.3011
    1bCD     C6  180   2.561   5.495  -0.318 -0.0577 -0.2932 -0.2810
    1bCD     C4  181   2.241   5.939   0.075  0.0929  0.3131 -0.1676
    1bCD     O2  182   2.236   6.127  -0.058 -0.0832  0.1673 -0.4639
    1bCD     C6  183   2.450   5.763   0.145 -0.2434  0.0817 -0.0908
    1bCD     C4  184   2.430   5.702   5.178 -0.0419  0.1048 -0.0768
    1bCD     O2  185   2.265   5.818   5.313  0.1628  0.6591  0.1623
    1bCD     C6  186   2.488   5.601   4.905 -0.0664 -0.1481 -0.1299
    1bCD     C4  187   2.803   5.673   5.506  0.5229  0.1113  0.0722
    1bCD     O2  188   2.659   5.799   5.654 -0.1508  0.2082  0.1659
    1bCD     C6  189   2.858   5.688   5.235 -0.3623  0.2187  0.1021
    1bCD     C4  190   2.892   5.269   5.736  0.1304  0.6586 -0.0166
    1bCD     O2  191   2.832   5.387   5.902 -0.0709  0.1688 -0.1187
    1bCD     C6  192   3.034   5.328   5.485  0.1777  0.6381 -0.1398
    1bCD     C4  193   2.606   4.876   5.798  0.0305  0.1588  0.1543
    1bCD     O2  194   2.541   4.990   6.011 -0.2528  0.0518  0.3367
    1bCD     C6  195   2.865   4.827   5.660  0.0017  0.0878  0.0976
    1bCD     C4  196   2.198   4.735   5.573 -0.0396 -0.1775 -0.1497
    1bCD     O2  197   2.123   4.783   5.794 -0.2652  0.0517  0.1001
    1bCD     C6  198   2.434   4.604   5.474 -0.1424 -0.0001 -0.2790
    1bCD     C4  199   1.959   5.017   5.275 -0.1335 -0.1874 -0.0165
    1bCD     O2  200   1.834   5.047   5.472 -0.2671 -0.1561  0.2272
    1bCD     C6  201   2.080   4.789   5.144 -0.3145  0.4744 -0.1642
    1bCD     C4  202   2.053   5.446   5.066 -0.0057 -0.0758  0.0735
    1bCD     O2  203   1.903   5.497   5.236 -0.1520  0.2089  0.0090
    1bCD     C6  204   2.087   5.253   4.866  0.2354  0.2521 -0.0655
    1bCD     C4  205   0.231   5.844   5.776 -0.0651 -0.2893  0.1204
    1bCD     O2  206   0.232   6.051   5.863  0.2964  0.1950 -0.2975
    1bCD     C6  207   0.370   5.687   5.568  0.0817 -0.0910  0.2274
    1bCD     C4  208  -0.106   5.599   6.027  0.2138  0.0127  0.1605
    1bCD     O2  209  -0.078   5.782   6.178 -0.3285  0.2894  0.1964
    1bCD     C6  210   0.098   5.455   5.868  0.1871  0.1202  0.0269
    1bCD     C4  211  -0.573   5.621   5.884 -0.1199  0.1172  0.0210
    1bCD     O2  212  -0.588   5.730   6.089 -0.2109  0.3104  0.1900
    1bCD     C6  213  -0.466   5.343   5.833  0.1477 -0.0351  0.1024
    1bCD     C4  214  -0.747   5.881   5.514 -0.2695  0.1990 -0.2066
    1bCD     O2  215  -0.808   6.020   5.692 -0.5244 -0.4311 -0.0672
    1bCD     C6  216  -0.757   5.598   5.468  0.1307 -0.0233  0.0822
    1bCD     C4  217  -0.559   6.144   5.167 -0.4501 -0.0414  0.1747
    1bCD     O2  218  -0.611   6.326   5.307  0.0570  0.2817 -0.1844
    1bCD     C6  219  -0.677   5.899   5.109  0.0709  0.0826  0.1128
    1bCD     C4  220  -0.091   6.216   5.074 -0.0969  0.1401 -0.2559
    1bCD     O2  221  -0.141   6.419   5.144  0.1619 -0.2201  0.3197
    1bCD     C6  222  -0.218   6.003   4.923  0.5035 -0.1690 -0.2397
    1bCD     C4  223   0.284   6.064   5.357  0.1304 -0.0041  0.2039
    1bCD     O2  224   0.280   6.292   5.393  0.1699  0.1042  0.3391
    1bCD     C6  225   0.275   5.913   5.107  0.1440  0.1606 -0.0762
    1bCD     C4  226   1.104   0.232   5.908  0.0704  0.0695  0.0552
    1bCD     O2  227   1.044   0.227   5.687 -0.1669 -0.4520  0.3230
    1bCD     C6  228   1.154   0.440   6.105 -0.1470  0.1935  0.4136
    1bCD     C4  229   1.136  -0.202   6.085  0.5953  0.0271 -0.2227
    1bCD     O2  230   1.048  -0.264   5.893 -0.1536 -0.2279  0.0002
    1bCD     C6  231   1.023   0.006   6.270 -0.0058  0.0015 -0.3620
    1bCD     C4  232   1.545  -0.425   6.203 -0.2559 -0.2968 -0.0314
    1bCD     O2  233   1.489  -0.565   6.007  0.3067  0.0345  0.4721
    1bCD     C6  234   1.370  -0.315   6.420  0.0737 -0.1782  0.2152
    1bCD     C4  235   1.979  -0.215   6.149  0.2767 -0.2565 -0.3382
    1bCD     O2  236   1.953  -0.325   5.969  0.3459 -0.4156  0.1071
    1bCD     C6  237   1.865  -0.205   6.420  0.1287  0.2291 -0.3828
    1bCD     C4  238   2.126   0.214   5.971 -0.2038 -0.3612  0.1691
    1bCD     O2  239   2.164   0.085   5.790  0.0689  0.4077  0.2191
    1bCD     C6  240   2.173   0.202   6.247  0.3307  0.5863  0.0056
    1bCD     C4  241   1.852   0.608   5.801 -0.0217 -0.0961 -0.0811
    1bCD     O2  242   1.902   0.478   5.614  0.4418 -0.2451  0.3251
    1bCD     C6  243   2.001   0.677   6.055  0.0141 -0.1817  0.6477
    1bCD     C4  244   1.373   0.626   5.820  0.0289 -0.1323 -0.1141
    1bCD     O2  245   1.421   0.602   5.606 -0.1294 -0.0820 -0.2826
    1bCD     C6  246   1.511   0.737   6.077  0.3974 -0.6072  0.2190
    1bCD     C4  247   2.528   1.122   2.805  0.0944  0.0283  0.3437
    1bCD     O2  248   2.333   1.112   2.645  0.0597 -0.2242 -0.5418
    1bCD     C6  249   2.620   0.937   3.007  0.0694 -0.0209 -0.2721
    1bCD     C4  250   2.788   1.484   2.664 -0.0599  0.1637  0.3116
    1bCD     O2  251   2.615   1.475   2.496 -0.0825  0.2662 -0.3055
    1bCD     C6  252   2.950   1.310   2.846  0.1304 -0.0845  0.4946
    1bCD     C4  253   2.772   1.924   2.868 -0.0455 -0.1109  0.1748
    1bCD     O2  254   2.637   1.974   2.673  0.0694  0.4956 -0.4220
    1bCD     C6  255   3.002   1.755   2.946  0.2700  0.2801  0.2993
    1bCD     C4  256   2.469   2.033   3.229  0.1668  0.2009  0.0143
    1bCD     O2  257   2.363   2.133   3.066  0.4404  0.4064  0.5528
    1bCD     C6  258   2.754   1.985   3.323 -0.0331 -0.1682 -0.0794
    1bCD     C4  259   2.104   1.776   3.451 -0.0490  0.1021  0.2021
    1bCD     O2  260   1.975   1.868   3.259 -0.4165 -0.1291 -0.1654
    1bCD     C6  261   2.356   1.831   3.590 -0.2115 -0.1446  0.3139
    1bCD     C4  262   2.003   1.294   3.441 -0.1729  0.1441  0.0821
    1bCD     O2  263   1.834   1.369   3.303 -0.1963  0.0937 -0.1894
    1bCD     C6  264   2.151   1.378   3.691  0.1957 -0.2612 -0.1295
    1bCD     C4  265   2.221   0.962   3.128  0.2611  0.3515 -0.1634
    1bCD     O2  266   2.027   0.938   3.012 -0.3491  0.6744 -0.1081
    1bCD     C6  267   2.314   0.951   3.412 -0.0814  0.0825  0.0358
    1bCD     C4  268   0.940   1.286   2.368 -0.2406  0.4230 -0.1518
    1bCD     O2  269   1.046   1.214   2.179  0.4050  0.1892  0.1021
    1bCD     C6  270   1.019   1.459   2.569 -0.2559 -0.0787 -0.1395
    1bCD     C4  271   0.561   0.977   2.457  0.0101 -0.0321  0.0680
    1bCD     O2  272   0.638   0.912   2.253  0.4744  0.0992  0.3376
    1bCD     C6  273   0.555   1.224   2.588  0.1018  0.1899  0.2934
    1bCD     C4  274   0.674   0.577   2.710  0.0879 -0.2720  0.1048
    1bCD     O2  275   0.656   0.492   2.498 -0.1181  0.4084 -0.4154
    1bCD     C6  276   0.507   0.781   2.843 -0.0146 -0.0108  0.5365
    1bCD     C4  277   1.139   0.496   2.880  0.0517 -0.1925  0.0650
    1bCD     O2  278   1.149   0.345   2.711  0.1378 -0.0849  0.7226
    1bCD     C6  279   0.977   0.553   3.076  0.0934 -0.0548 -0.3629
    1bCD     C4  280   1.567   0.755   2.899 -0.0215  0.2513  0.1026
    1bCD     O2  281   1.629   0.595   2.747  0.0000  0.1465  0.3559
    1bCD     C6  282   1.358   0.791   3.095 -0.0523 -0.0839 -0.0498
    1bCD     C4  283   1.709   1.169   2.678  0.0343  0.1010 -0.2490
    1bCD     O2  284   1.831   1.037   2.542 -0.3277 -0.0666 -0.3114
    1bCD     C6  285   1.698   1.200   2.960  0.2602 -0.0895  0.2305
    1bCD     C4  286   1.403   1.427   2.402  0.1439 -0.2480 -0.0018
    1bCD     O2  287   1.526   1.314   2.227  0.3777  0.2127  0.4249
    1bCD     C6  288   1.508   1.580   2.656  0.2751  0.3096 -0.1720
    1bCD     C4  289   2.168   1.531   2.350  0.2992 -0.0512 -0.0061
    1bCD     O2  290   2.266   1.704   2.247 -0.0159  0.1203  0.4471
    1bCD     C6  291   2.149   1.231   2.306  0.2231 -0.1854 -0.0028
    1bCD     C4  292   2.029   1.723   2.774 -0.2582 -0.0663 -0.2389
    1bCD     O2  293   2.145   1.894   2.680  0.4818 -0.0092 -0.1640
    1bCD     C6  294   2.002   1.425   2.782 -0.2034  0.2352  0.4313
    1bCD     C4  295   1.616   1.922   2.849  0.1983  0.0865 -0.2231
    1bCD     O2  296   1.739   2.119   2.861  0.3016  0.4247 -0.2688
    1bCD     C6  297   1.679   1.648   2.972  0.0149 -0.1090 -0.0429
    1bCD     C4  298   1.261   1.980   2.548  0.0798 -0.0036 -0.2821
    1bCD     O2  299   1.327   2.192   2.564 -0.2447 -0.1380 -0.0288
    1bCD     C6  300   1.198   1.762   2.759  0.0474  0.2582  0.5109
    1bCD     C4  301   1.243   1.849   2.078 -0.1050  0.0035 -0.0029
    1bCD     O2  302   1.299   2.073   2.043 -0.3181 -0.0563  0.2296
    1bCD     C6  303   1.064   1.703   2.289  0.4908 -0.0019  0.2481
    1bCD     C4  304   1.529   1.565   1.783 -0.0099  0.0306  0.0354
    1bCD     O2  305   1.534   1.785   1.663  0.0030  0.6072  0.0407
    1bCD     C6  306   1.298   1.443   1.896 -0.0041  0.0848 -0.0955
    1bCD     C4  307   1.984   1.427   1.918  0.1395  0.2732 -0.2189
    1bCD     O2  308   2.036   1.613   1.783 -0.0996  0.2300 -0.1994
    1bCD     C6  309   1.776   1.200   1.915 -0.1082  0.1413 -0.2994
    1bCD     C4  310   1.445   5.921   4.062  0.3564  0.1885  0.0951
    1bCD     O2  311   1.451   5.873   3.830  0.2202 -0.2637  0.1549
    1bCD     C6  312   1.367   6.138   4.254 -0.2709 -0.1120  0.2151
    1bCD     C4  313   1.524   5.493   4.280 -0.2660  0.0048 -0.0349
    1bCD     O2  314   1.516   5.408   4.068 -0.6632  0.0658  0.1964
    1bCD     C6  315   1.339   5.672   4.443 -0.1811  0.2226 -0.5224
    1bCD     C4  316   1.990   5.411   4.441 -0.1181 -0.2012  0.0594
    1bCD     O2  317   1.982   5.309   4.225  0.3378 -0.0632 -0.1750
    1bCD     C6  318   1.811   5.402   4.660  0.1143 -0.0835 -0.2517
    1bCD     C4  319   2.318   5.780   4.480 -0.2236  0.0204 -0.0611
    1bCD     O2  320   2.449   5.657   4.296  0.2326  0.1285 -0.2986
    1bCD     C6  321   2.182   5.698   4.734 -0.1612  0.2958 -0.3047
    1bCD     C4  322   2.311   6.247   4.355  0.0936 -0.2324  0.1780
    1bCD     O2  323   2.483   6.184   4.222 -0.2980 -0.0966 -0.2999
    1bCD     C6  324   2.186   6.190   4.592 -0.0153 -0.0844 -0.0939
    1bCD     C4  325   2.039   6.513   4.049  0.1595 -0.1359 -0.2183
    1bCD     O2  326   2.210   6.483   3.920 -0.0792 -0.0851  0.1011
    1bCD     C6  327   2.061   6.635   4.304 -0.1231 -0.3475  0.4098
    1bCD     C4  328   1.604   6.353   3.930  0.0707 -0.0231  0.2024
    1bCD     O2  329   1.686   6.327   3.715  0.0922  0.1447 -0.1203
    1bCD     C6  330   1.580   6.560   4.110 -0.0095 -0.2432 -0.0862
    1bCD     C4  331   1.462   4.515   5.693  0.0572 -0.0665 -0.0146
    1bCD     O2  332   1.656   4.562   5.819 -0.5378 -0.1282 -0.2219
    1bCD     C6  333   1.348   4.285   5.582 -0.0916  0.2565 -0.0085
    1bCD     C4  334   1.226   4.931   5.616  0.0268  0.2815 -0.0960
    1bCD     O2  335   1.408   5.011   5.756  0.2488 -0.5242 -0.0866
    1bCD     C6  336   1.050   4.708   5.644 -0.2339  0.0888  0.0474
    1bCD     C4  337   1.279   5.129   5.157 -0.1565  0.1253  0.0864
    1bCD     O2  338   1.428   5.247   5.282  0.1189  0.1779 -0.6765
    1bCD     C6  339   1.026   5.014   5.229 -0.0574 -0.0394  0.1531
    1bCD     C4  340   1.553   4.929   4.817  0.3824  0.3028  0.1598
    1bCD     O2  341   1.711   5.083   4.864  0.0774 -0.0356 -0.4812
    1bCD     C6  342   1.258   4.870   4.774  0.5483  0.0018  0.1376
    1bCD     C4  343   1.830   4.518   4.779 -0.1906  0.0398 -0.0145
    1bCD     O2  344   1.999   4.684   4.762  0.1440  0.1777 -0.3705
    1bCD     C6  345   1.558   4.507   4.694 -0.0482 -0.0633 -0.0456
    1bCD     C4  346   1.999   4.178   5.094  0.1008 -0.4201  0.1355
    1bCD     O2  347   2.179   4.343   5.081 -0.0132  0.0481 -0.0783
    1bCD     C6  348   1.872   4.094   4.864  0.1246 -0.0557 -0.3417
    1bCD     C4  349   1.766   4.173   5.531 -0.1366  0.1176  0.2723
    1bCD     O2  350   1.976   4.244   5.579  0.0858 -0.1736  0.2274
    1bCD     C6  351   1.662   3.984   5.337 -0.2300  0.1180 -0.0718
    1bCD     C4  352   0.620   4.606   5.028 -0.0803 -0.0700  0.0293
    1bCD     O2  353   0.746   4.782   4.958  0.5093 -0.3097  0.3307
    1bCD     C6  354   0.555   4.518   5.302  0.2426 -0.0687 -0.0834
    1bCD     C4  355   0.402   4.391   4.662  0.0337  0.6112 -0.1322
    1bCD     O2  356   0.456   4.585   4.559 -0.0302  0.0270 -0.1154
    1bCD     C6  357   0.321   4.307   4.948 -0.3487 -0.2065  0.1899
    1bCD     C4  358   0.522   4.017   4.400 -0.2352 -0.1668 -0.3123
    1bCD     O2  359   0.601   4.203   4.265  0.4096  0.0348 -0.0673
    1bCD     C6  360   0.274   3.930   4.554  0.3864 -0.0180  0.2994
    1bCD     C4  361   0.937   3.743   4.450  0.0577 -0.0484  0.0881
    1bCD     O2  362   1.002   3.873   4.269 -0.4889  0.4978 -0.2778
    1bCD     C6  363   0.699   3.610   4.488  0.1534 -0.2225  0.5465
    1bCD     C4  364   1.242   3.765   4.833  0.0217  0.1220  0.0716
    1bCD     O2  365   1.371   3.816   4.657 -0.1657 -0.2704 -0.1644
    1bCD     C6  366   1.015   3.591   4.871 -0.2249 -0.4123  0.0510
    1bCD     C4  367   1.322   4.129   5.152 -0.0079  0.1116  0.1500
    1bCD     O2  368   1.477   4.185   4.975 -0.1587 -0.1888 -0.4810
    1bCD     C6  369   1.264   3.873   5.262 -0.0101  0.2265  0.1268
    1bCD     C4  370   1.028   4.508   5.278 -0.1411 -0.1769  0.0924
    1bCD     O2  371   1.194   4.593   5.123 -0.3003 -0.4393  0.1405
    1bCD     C6  372   1.030   4.306   5.507  0.0485  0.2742  0.1528
    1bCD     C4  373   2.610   4.676   4.462 -0.1145  0.2909  0.0240
    1bCD     O2  374   2.662   4.869   4.333 -0.1053  0.6306  0.2924
    1bCD     C6  375   2.385   4.609   4.632  0.1989 -0.1606 -0.2380
    1bCD     C4  376   2.927   4.320   4.399 -0.2719  0.0801 -0.1036
    1bCD     O2  377   2.973   4.477   4.223 -0.3689  0.1720  0.0120
    1bCD     C6  378   2.688   4.202   4.542 -0.1891  0.2284  0.2154
    1bCD     C4  379   3.323   4.333   4.692 -0.0592 -0.0144  0.1847
    1bCD     O2  380   3.393   4.468   4.500  0.0138 -0.0446  0.2344
    1bCD     C6  381   3.144   4.086   4.677 -0.1941  0.1479 -0.1295
    1bCD     C4  382   3.370   4.634   5.074  0.0860  0.0831 -0.1786
    1bCD     O2  383   3.517   4.743   4.917  0.1174  0.2467 -0.8198
    1bCD     C6  384   3.322   4.359   5.145  0.1080  0.0854 -0.4330
    1bCD     C4  385   3.049   4.947   5.269  0.1222  0.0967  0.0660
    1bCD     O2  386   3.233   5.090   5.186  0.0777  0.0226 -0.2793
    1bCD     C6  387   3.026   4.651   5.362 -0.5481  0.0811 -0.5015
    1bCD     C4  388   2.639   5.162   5.119  0.0353 -0.1347  0.1122
    1bCD     O2  389   2.772   5.328   5.075 -0.0981  0.4193 -0.1869
    1bCD     C6  390   2.601   4.995   5.352 -0.1303 -0.3161  0.2653
    1bCD     C4  391   2.425   5.049   4.702  0.1697  0.1256 -0.1246
    1bCD     O2  392   2.525   5.262   4.643  0.2335  0.3540 -0.4828
    1bCD     C6  393   2.249   4.984   4.942 -0.2019 -0.5887  0.3172
    1bCD     C4  394   5.881   5.244   5.240 -0.0735 -0.2381 -0.1342
    1bCD     O2  395   5.875   5.403   5.069  0.1070 -0.3571 -0.4266
    1bCD     C6  396   5.969   5.231   5.505  0.1823  0.0845  0.0153
    1bCD     C4  397   5.780   4.808   5.101  0.3986 -0.0297  0.1078
    1bCD     O2  398   5.693   4.929   4.914 -0.4546  0.2031  0.0943
    1bCD     C6  399   5.719   4.870   5.387 -0.2859 -0.0396  0.0315
    1bCD     C4  400   6.124   4.503   4.984 -0.2459  0.3276 -0.2071
    1bCD     O2  401   6.049   4.564   4.774 -0.8475 -0.0163 -0.1649
    1bCD     C6  402   6.033   4.427   5.257 -0.4707 -0.2165 -0.0135
    1bCD     C4  403   6.604   4.624   4.964  0.3510  0.0963 -0.2387
    1bCD     O2  404   6.527   4.633   4.751 -0.2003  0.4057  0.1219
    1bCD     C6  405   6.571   4.404   5.184  0.2546 -0.0919  0.4239
    1bCD     C4  406   6.833   5.040   5.068  0.0247 -0.1002 -0.2360
    1bCD     O2  407   6.789   5.028   4.846 -0.1100 -0.2658  0.0264
    1bCD     C6  408   6.864   4.826   5.262  0.0935 -0.2490 -0.0973
    1bCD     C4  409   6.703   5.474   5.255  0.0760  0.0713 -0.0917
    1bCD     O2  410   6.733   5.510   5.028 -0.3855 -0.1582  0.2044
    1bCD     C6  411   6.858   5.280   5.448 -0.1059 -0.2533 -0.1194
    1bCD     C4  412   6.239   5.560   5.368  0.0927  0.2510 -0.1235
    1bCD     O2  413   6.256   5.673   5.169 -0.1464 -0.3557  0.0546
    1bCD     C6  414   6.378   5.532   5.628  0.1396  0.2309 -0.6275
    1bCD     C4  415   6.037   4.723   5.626  0.0900  0.3809  0.1709
    1bCD     O2  416   5.930   4.884   5.746 -0.1596  0.2923  0.3575
    1bCD     C6  417   5.982   4.438   5.570  0.5082  0.1321  0.2742
    1bCD     C4  418   6.474   4.876   5.494 -0.0712 -0.0395  0.1615
    1bCD     O2  419   6.394   5.086   5.562  0.0341 -0.2346 -0.3593
    1bCD     C6  420   6.365   4.679   5.326  0.3348 -0.4360  0.0344
    1bCD     C4  421   6.846   4.734   5.768  0.3681  0.3169 -0.0080
    1bCD     O2  422   6.855   4.953   5.811  0.2749 -0.2231 -0.1996
    1bCD     C6  423   6.819   4.579   5.512  0.4308 -0.2358 -0.2980
    1bCD     C4  424   6.760   4.491   6.183 -0.1799  0.6019 -0.0583
    1bCD     O2  425   6.764   4.722   6.251  0.5986 -0.2111  0.1658
    1bCD     C6  426   6.864   4.332   5.956 -0.1040 -0.3260  0.1500
    1bCD     C4  427   6.372   4.286   6.406 -0.1054 -0.0192 -0.0689
    1bCD     O2  428   6.418   4.446   6.576  0.1392  0.1373 -0.0995
    1bCD     C6  429   6.545   4.110   6.266 -0.2721  0.0837 -0.2729
    1bCD     C4  430   5.894   4.279   6.335  0.1582 -0.3551  0.2103
    1bCD     O2  431   5.880   4.446   6.502  0.0174  0.1745 -0.3455
    1bCD     C6  432   6.024   4.020   6.308  0.3426  0.3400  0.3790
    1bCD     C4  433   5.723   4.497   5.928  0.1158 -0.0107 -0.1214
    1bCD     O2  434   5.617   4.634   6.077  0.4238 -0.2776  0.1528
    1bCD     C6  435   5.689   4.195   5.899 -0.1448 -0.3503  0.1232
    1bCD     C4  436   1.855   1.208   3.931  0.0075  0.1970  0.2234
    1bCD     O2  437   1.852   1.332   4.129 -0.1108 -0.2942  0.4302
    1bCD     C6  438   1.678   1.159   3.681  0.0627 -0.2173  0.0508
    1bCD     C4  439   2.225   0.887   4.002 -0.0210 -0.1802  0.0503
    1bCD     O2  440   2.258   1.051   4.158 -0.3847 -0.0967  0.2440
    1bCD     C6  441   2.130   0.927   3.732 -0.1064 -0.1745  0.0384
    1bCD     C4  442   2.125   0.488   4.231  0.3483  0.0545  0.2986
    1bCD     O2  443   2.218   0.584   4.413  0.1686  0.0154  0.2766
    1bCD     C6  444   2.233   0.454   3.973 -0.1439 -0.2578  0.4651
    1bCD     C4  445   1.679   0.337   4.307  0.1222  0.0780  0.0931
    1bCD     O2  446   1.776   0.349   4.522 -0.4583  0.4239 -0.4033
    1bCD     C6  447   1.754   0.257   4.037  0.2360  0.2256  0.2539
    1bCD     C4  448   1.271   0.607   4.332  0.0383 -0.0107 -0.2141
    1bCD     O2  449   1.324   0.631   4.556  0.0345 -0.2663  0.1814
    1bCD     C6  450   1.293   0.412   4.107 -0.3773  0.0820 -0.0379
    1bCD     C4  451   1.127   1.057   4.194 -0.0240  0.0489 -0.0003
    1bCD     O2  452   1.174   1.095   4.413  0.8184 -0.0187  0.0103
    1bCD     C6  453   0.999   0.841   4.032  0.0479  0.1764 -0.0959
    1bCD     C4  454   1.392   1.366   3.960 -0.0239 -0.1207 -0.1132
    1bCD     O2  455   1.348   1.471   4.169 -0.1589 -0.0496 -0.1418
    1bCD     C6  456   1.187   1.229   3.758 -0.2372 -0.2611  0.0337
    1bCD     C4  457   0.243   6.367   3.227  0.1114  0.0023 -0.0845
    1bCD     O2  458   0.424   6.373   3.357  0.0802 -0.1413  0.2663
    1bCD     C6  459   0.143   6.514   2.990  0.2014  0.4496  0.1961
    1bCD     C4  460  -0.113   6.203   3.537 -0.1381 -0.0498 -0.2704
    1bCD     O2  461   0.083   6.187   3.653 -0.3612 -0.1096 -0.1022
    1bCD     C6  462  -0.150   6.164   3.265 -0.5424  0.2965  0.0066
    1bCD     C4  463  -0.408   6.498   3.743 -0.1921 -0.2544 -0.0196
    1bCD     O2  464  -0.283   6.444   3.941  0.1012 -0.0287  0.1495
    1bCD     C6  465  -0.476   6.329   3.530  0.4445 -0.4053  0.1009
    1bCD     C4  466  -0.376   6.989   3.650 -0.1119  0.1672  0.1397
    1bCD     O2  467  -0.345   6.961   3.886 -0.0096 -0.0040  0.1488
    1bCD     C6  468  -0.531   6.854   3.463 -0.0202 -0.3499 -0.0410
    1bCD     C4  469  -0.012   7.267   3.491  0.0594  0.1067 -0.0988
    1bCD     O2  470   0.043   7.214   3.728 -0.0839 -0.3547  0.3429
    1bCD     C6  471  -0.265   7.322   3.370  0.0257 -0.1819  0.4163
    1bCD     C4  472   0.379   7.188   3.198 -0.0852 -0.1810 -0.1982
    1bCD     O2  473   0.460   7.169   3.415  0.1271 -0.5058 -0.2835
    1bCD     C6  474   0.184   7.339   3.056 -0.0384  0.0244  0.2156
    1bCD     C4  475   0.498   6.737   3.053  0.4577  0.2951  0.0407
    1bCD     O2  476   0.665   6.763   3.198  0.4500 -0.2075 -0.2206
    1bCD     C6  477   0.348   6.914   2.864 -0.2386  0.5653  0.1851
    1bCD     C4  478   0.953   1.819   3.618 -0.1297 -0.0513  0.0444
    1bCD     O2  479   0.994   1.983   3.454 -0.2946 -0.3053 -0.0713
    1bCD     C6  480   1.123   1.648   3.794  0.1068  0.0642  0.2658
    1bCD     C4  481   0.483   1.760   3.671 -0.4035  0.1322  0.0489
    1bCD     O2  482   0.485   1.958   3.542 -0.4681  0.2538 -0.3492
    1bCD     C6  483   0.693   1.658   3.863 -0.0207  0.1565 -0.0516
    1bCD     C4  484   0.264   1.408   3.427  0.0340 -0.2090 -0.3388
    1bCD     O2  485   0.189   1.567   3.307 -0.0429 -0.2770  0.4261
    1bCD     C6  486   0.363   1.364   3.686 -0.2024  0.0243  0.1202
    1bCD     C4  487   0.444   1.102   3.095  0.0425 -0.1517 -0.3158
    1bCD     O2  488   0.355   1.266   2.946  0.0512  0.6803  0.1861
    1bCD     C6  489   0.341   1.016   3.359  0.1554 -0.3991 -0.1169
    1bCD     C4  490   0.924   0.979   3.025 -0.0889 -0.1235  0.0875
    1bCD     O2  491   0.872   1.082   2.819  0.6294  0.3312  0.1520
    1bCD     C6  492   0.777   0.837   3.217  0.2642  0.4181 -0.0681
    1bCD     C4  493   1.332   1.220   3.170  0.0401  0.0340  0.0076
    1bCD     O2  494   1.307   1.271   2.931 -0.6247  0.0998 -0.2694
    1bCD     C6  495   1.256   1.011   3.363  0.1708 -0.3767  0.2365
    1bCD     C4  496   1.356   1.650   3.373  0.1905  0.1465  0.0886
    1bCD     O2  497   1.348   1.713   3.157 -0.1933  0.0964 -0.0794
    1bCD     C6  498   1.487   1.406   3.501 -0.1847  0.3445 -0.0350
    1bCD     C4  499   1.662   4.856   4.361  0.0747 -0.1190  0.1304
    1bCD     O2  500   1.598   4.669   4.249  0.0131 -0.3616 -0.0632
    1bCD     C6  501   1.523   5.104   4.434 -0.0830 -0.1911 -0.3062
    1bCD     C4  502   2.145   4.889   4.327  0.1979  0.3616  0.4542
    1bCD     O2  503   2.093   4.682   4.249  0.2303  0.2526  0.4683
    1bCD     C6  504   2.021   5.017   4.537 -0.2873 -0.3585  0.0462
    1bCD     C4  505   2.372   5.154   3.961  0.0737  0.2959 -0.3954
    1bCD     O2  506   2.370   4.933   3.883 -0.0834 -0.1863 -0.3456
    1bCD     C6  507   2.390   5.256   4.246  0.3482  0.1922 -0.0432
    1bCD     C4  508   2.087   5.383   3.646 -0.1240  0.2605  0.3198
    1bCD     O2  509   2.157   5.214   3.520 -0.3564 -0.2680 -0.0284
    1bCD     C6  510   2.192   5.556   3.875 -0.0337  0.3273  0.0702
    1bCD     C4  511   1.613   5.424   3.551  0.0168 -0.0613 -0.0063
    1bCD     O2  512   1.673   5.300   3.372  0.1407  0.2938  0.1110
    1bCD     C6  513   1.758   5.600   3.723  0.3074 -0.2379 -0.1498
    1bCD     C4  514   1.222   5.199   3.729  0.0499  0.0694  0.0804
    1bCD     O2  515   1.249   5.049   3.560  0.3106  0.1596 -0.4807
    1bCD     C6  516   1.232   5.487   3.745  0.3077  0.2267  0.2074
    1bCD     C4  517   1.240   4.957   4.133 -0.1017  0.4665  0.0563
    1bCD     O2  518   1.175   4.770   3.990 -0.1502 -0.2815 -0.1013
    1bCD     C6  519   1.149   5.233   4.148 -0.0327  0.1887  0.1454
    1bCD     C4  520   0.753   0.342   4.277  0.0948  0.0004  0.2105
    1bCD     O2  521   0.533   0.314   4.379 -0.1225  0.1662  0.6470
    1bCD     C6  522   1.017   0.294   4.372 -0.4849  0.0112 -0.3847
    1bCD     C4  523   0.717   0.549   3.849 -0.2352 -0.0434 -0.1872
    1bCD     O2  524   0.487   0.450   3.872 -0.0050 -0.1117 -0.4101
    1bCD     C6  525   0.979   0.458   3.917 -0.1006  0.5182 -0.4272
    1bCD     C4  526   0.696   1.040   3.798 -0.0862 -0.2371 -0.5042
    1bCD     O2  527   0.480   0.974   3.778 -0.1784  0.0689 -0.0023
    1bCD     C6  528   0.975   0.967   3.712  0.1033 -0.3484  0.0482
    1bCD     C4  529   0.672   1.387   4.182 -0.0591  0.0907  0.1086
    1bCD     O2  530   0.445   1.379   4.169 -0.2046  0.0923  0.1331
    1bCD     C6  531   0.887   1.398   3.973 -0.1067  0.2449 -0.1780
    1bCD     C4  532   0.804   1.338   4.648 -0.0352  0.2006  0.0767
    1bCD     O2  533   0.591   1.390   4.722  0.2976  0.0800 -0.2444
    1bCD     C6  534   1.032   1.468   4.485  0.5408 -0.4265 -0.3824
    1bCD     C4  535   0.898   0.910   4.903  0.0239  0.0651 -0.0015
    1bCD     O2  536   0.694   0.980   4.970  0.3804 -0.2895  0.5892
    1bCD     C6  537   1.145   1.066   4.869 -0.1138  0.4853  0.1451
    1bCD     C4  538   0.854   0.464   4.740  0.0264  0.2921 -0.0710
    1bCD     O2  539   0.654   0.444   4.848 -0.1434 -0.1204  0.1182
    1bCD     C6  540   1.112   0.480   4.849  0.6204  0.0821  0.1557
    1WN      WN  541   2.796   5.385   3.726  0.1566 -0.0173 -0.1721
    1WN      WN  542   4.879   1.834   1.950  0.2041 -0.2191  0.3863
    1WN      WN  543   0.010   2.314   1.147  0.0386  0.0149  0.1868
    1WN      WN  544   0.735   0.136   0.632  0.0003  0.1476 -0.0186
    1WN      WN  545   4.866   0.567   1.636  0.0520  0.0064 -0.4137
    1WN      WN  546   3.938   0.395   3.347 -0.2648  0.3085 -0.1942
    1WN      WN  547   4.351   0.608   1.862  0.2789  0.1692  0.0175
    1WN      WN  548   2.110   2.666   3.731  0.0206 -0.0529 -0.1551
    1WN      WN  549   5.750   4.295   4.424  0.0579 -0.3873 -0.1201
    1WN      WN  550   5.007   5.586   4.498 -0.0551  0.4232  0.1294
    1WN      WN  551   3.869   1.245   4.749  0.1307 -0.0173 -0.1046
    1WN      WN  552   6.317   4.314   4.466  0.1734 -0.3282  0.1087
    1WN      WN  553   3.157   5.428   0.262 -0.0936  0.1411  0.0900
    1WN      WN  554   0.685   5.151   2.307 -0.0455 -0.1107  0.2079
    1WN      WN  555   6.466   3.811   2.856 -0.2320 -0.0583 -0.0922
    1WN      WN  556   6.367   2.287   5.447  0.1161  0.1686  0.0506
    1WN      WN  557   2.160   4.622   2.287  0.0174  0.1088  0.1523
    1WN      WN  558   3.385   6.453   1.410 -0.0605  0.2539  0.0082
    1WN      WN  559   3.622   5.220   4.845 -0.1127  0.1075 -0.0619
    1WN      WN  560   3.807   0.902   4.333  0.2540 -0.1829  0.0507
    1WN      WN  561   1.019   1.209   0.865 -0.3779 -0.0245  0.0754
    1WN      WN  562   3.557   0.988   2.893  0.4339 -0.1162 -0.0071
    1WN      WN  563   6.228   4.161   0.684 -0.0861 -0.6204 -0.3337
    1WN      WN  564   3.515   2.185   5.533  0.0605  0.1881  0.1851
    1WN      WN  565   3.760   6.108   1.486 -0.0757 -0.0237  0.1701
    1WN      WN  566   5.490   1.793   1.327 -0.0424 -0.1326  0.0054
    1WN      WN  567   3.504   3.018   4.262  0.1386 -0.0665  0.5267
    1WN      WN  568   2.025   1.242   0.960  0.0637 -0.0583 -0.4854
    1WN      WN  569   2.538   5.189   0.416  0.2149  0.1534 -0.0878
    1WN      WN  570   5.907   4.267   1.822 -0.1836 -0.0346 -0.1371
    1WN      WN  571   6.251   1.853   1.933 -0.3692  0.1261  0.0374
    1WN      WN  572   2.705   0.928   3.674 -0.1958  0.1126 -0.3742
    1WN      WN  573   1.337   2.041   4.419 -0.0087 -0.1936 -0.1875
    1WN      WN  574   3.010   2.777   4.825 -0.3182  0.2372 -0.4828
    1WN      WN  575   1.270   1.473   4.996  0.4307 -0.2058 -0.2980
    1WN      WN  576   0.643   2.198   4.813  0.0550  0.0898 -0.2381
    1WN      WN  577   3.360   4.299   1.732  0.1514 -0.1251  0.1859
    1WN      WN  578   6.068   4.598   0.354 -0.0958  0.1366  0.2194
    1WN      WN  579   2.451   1.301   1.989  0.0276  0.0779 -0.2499
    1WN      WN  580   6.366   3.683   2.392 -0.0760 -0.1622 -0.0609
    1WN      WN  581   3.088   0.548   0.902  0.0114 -0.0778  0.4028
    1WN      WN  582   3.966   6.420   4.184 -0.1601  0.2942  0.0068
    1WN      WN  583   6.539   2.234   1.851 -0.1218  0.1172  0.0854
    1WN      WN  584   4.817   3.379   2.297  0.0823 -0.1344 -0.2551
    1WN      WN  585   1.420   2.099   6.167 -0.3206  0.2966 -0.0972
    1WN      WN  586   0.287   4.973   3.893  0.0176  0.1744  0.0374
    1WN      WN  587   0.492   2.242   5.824 -0.0573  0.0801  0.0016
    1WN      WN  588   4.657   5.028   0.833  0.2484 -0.2582  0.2619
    1WN      WN  589   0.006   3.627   5.312  0.0770  0.0629 -0.0063
    1WN      WN  590   2.308   3.125   3.840  0.0710 -0.1996  0.0971
    1WN      WN  591   2.460   4.139   3.078  0.0485  0.1010 -0.0407
    1WN      WN  592   4.628   0.970   3.799  0.2757 -0.2209 -0.0726
    1WN      WN  593   2.265   0.118   2.660  0.1980 -0.0817 -0.1327
    1WN      WN  594   2.876   4.742   1.221 -0.1782 -0.3054 -0.0262
    1WN      WN  595   1.149   0.677   0.377  0.2698 -0.4873  0.0568
    1WN      WN  596   5.842   3.698   6.051  0.2669 -0.1410  0.0672
    1WN      WN  597   4.515   1.712   4.182  0.0427  0.1479 -0.0900
    1WN      WN  598   1.924   1.857   1.404 -0.2229  0.0981  0.0383
    1WN      WN  599   2.586   1.275   3.366 -0.2343 -0.1544  0.0703
    1WN      WN  600   5.779   3.943   2.230 -0.0785 -0.0728 -0.0705
    1WN      WN  601   5.322   6.241   4.611  0.0358  0.0060 -0.3810
    1WN      WN  602   0.141   5.831   3.311 -0.0770  0.0341 -0.0386
    1WN      WN  603   2.658   6.489   5.629 -0.0591 -0.1061  0.3051
    1WN      WN  604   5.499   1.542   5.038  0.3058  0.0205 -0.0502
    1WN      WN  605   0.768   1.004   0.496 -0.2683 -0.1171  0.1509
    1WN      WN  606   0.790   4.001   1.634  0.0124 -0.3107  0.2829
    1WN      WN  607   2.530   4.092   5.428 -0.3540  0.0486 -0.2983
    1WN      WN  608   2.041   3.461   6.310 -0.0013 -0.2222 -0.2139
    1WN      WN  609   4.317   6.111   3.618  0.0326  0.1976  0.2960
    1WN      WN  610   1.921   4.318   3.219  0.2699 -0.1243 -0.0301
    1WN      WN  611   2.964   3.547   0.297  0.2538  0.0416  0.0866
    1WN      WN  612   3.390   6.417   5.560 -0.0442  0.2979  0.0899
    1WN      WN  613   3.880   4.589   5.320 -0.1453 -0.1994 -0.2643
    1WN      WN  614   5.005   5.007   4.706 -0.4029 -0.1869 -0.1164
    1WN      WN  615   2.792   3.818   4.355 -0.2757  0.0052  0.1805
    1WN      WN  616   3.343   3.086   2.088 -0.1855  0.0940  0.0423
    1WN      WN  617   1.496   2.468   5.335 -0.2454 -0.1558 -0.1575
    1WN      WN  618   2.693   0.222   3.752  0.0150 -0.2418  0.0955
    1WN      WN  619   3.994   4.437   3.054 -0.1446  0.1062  0.2861
    1WN      WN  620   4.423   3.856   6.164  0.0101  0.3767 -0.2086
    1WN      WN  621   3.630   2.241   3.122 -0.1368  0.2531 -0.0484
    1WN      WN  622   1.106   3.203   6.367  0.2213  0.0735 -0.1069
    1WN      WN  623   4.302   1.834   0.770  0.1002 -0.3102 -0.1565
    1WN      WN  624   5.590   5.351   5.733 -0.0700  0.1820 -0.1956
    1WN      WN  625   0.336   3.063   4.651 -0.1140  0.0570  0.3478
    1WN      WN  626   3.581   6.143   4.415  0.0784 -0.0293 -0.0597
    1WN      WN  627   2.378   1.572   3.027  0.2894  0.1404 -0.1300
    1WN      WN  628   4.057   5.045   5.073 -0.0031 -0.0864 -0.0633
    1WN      WN  629   3.468   3.054   5.324  0.2967 -0.3881  0.0732
    1WN      WN  630   0.342   1.796   4.953 -0.2952  0.2202 -0.0147
    1WN      WN  631   2.472   5.639   1.691  0.1113 -0.3337  0.0078
    1WN      WN  632   5.660   1.552   4.511  0.0908 -0.1446 -0.1980
    1WN      WN  633   1.223   4.610   2.516  0.1408 -0.0567  0.2260
    1WN      WN  634   5.201   0.904   3.789 -0.1393 -0.0481  0.1516
    1WN      WN  635   4.947   4.844   1.296  0.0759 -0.0645  0.1737
    1WN      WN  636   0.089   2.851   1.983 -0.1443  0.0036 -0.1484
    1WN      WN  637   4.330   1.984   3.724 -0.3970 -0.2158 -0.0939
    1WN      WN  638   5.213   4.306   3.139 -0.0508 -0.4115  0.0890
    1WN      WN  639   5.578   0.365   3.340 -0.2061 -0.5325  0.2061
    1WN      WN  640   4.820   2.077   4.555 -0.1585 -0.0070 -0.1495
    1WN      WN  641   2.723   2.212   0.970  0.0798 -0.2123 -0.1234
    1WN      WN  642   6.113   0.382   0.220 -0.0364  0.1922  0.0147
    1WN      WN  643   3.873   3.104   2.373  0.1949  0.1207  0.1333
    1WN      WN  644   4.917   5.259   5.481  0.1250  0.0771 -0.0173
    1WN      WN  645   2.985   1.581   0.958 -0.1513  0.2336  0.0113
    1WN      WN  646   1.485   3.870   3.955  0.1668 -0.0862  0.2127
    1WN      WN  647   6.530   3.502   0.339  0.0938  0.2410 -0.0526
    1WN      WN  648   2.350   3.274   5.285  0.1884  0.2105  0.0723
    1WN      WN  649   3.254   6.377   3.555  0.0139  0.0934  0.0686
    1WN      WN  650   4.586   3.669   0.355 -0.4734 -0.1110 -0.1233
    1WN      WN  651   3.110   0.464   2.159  0.1034  0.0193  0.1771
    1WN      WN  652   4.581   3.143   4.328 -0.2754  0.3110 -0.2949
    1WN      WN  653   5.619   3.572   3.856 -0.0699 -0.2404 -0.0586
    1WN      WN  654   6.099   4.680   2.159  0.2899  0.3843 -0.1091
    1WN      WN  655   3.773   0.655   3.906 -0.0305  0.3360  0.1177
    1WN      WN  656   6.498   0.413   2.947 -0.1523  0.0224  0.0289
    1WN      WN  657   6.283   1.470   3.616 -0.1049 -0.4171  0.0481
    1WN      WN  658   4.755   5.796   6.285  0.1607 -0.3102 -0.2120
    1WN      WN  659   6.405   5.201   3.283 -0.1279  0.0749  0.0209
    1WN      WN  660   5.014   1.251   5.120 -0.3459 -0.0097  0.2426
    1WN      WN  661   1.172   4.868   6.187 -0.3028 -0.1700 -0.2699
    1WN      WN  662   4.666   5.702   2.182  0.0281 -0.2616  0.1155
    1WN      WN  663   3.852   4.749   4.519  0.1043  0.1358 -0.0601
    1WN      WN  664   4.699   6.195   1.868  0.1625  0.0118  0.0830
    1WN      WN  665   3.618   1.645   1.514  0.4660 -0.1737 -0.2867
    1WN      WN  666   0.649   5.668   5.264  0.3971 -0.0882  0.0331
    1WN      WN  667   4.679   4.257   3.140 -0.2258 -0.0804 -0.1761
    1WN      WN  668   3.744   3.942   0.912 -0.0867 -0.1485  0.2465
    1WN      WN  669   0.215   0.883   0.053  0.3631  0.2254 -0.2468
    1WN      WN  670   4.587   1.080   5.804 -0.3434 -0.0712 -0.2193
    1WN      WN  671   1.558   5.605   2.950 -0.0438 -0.4025 -0.0182
    1WN      WN  672   2.648   4.555   3.769  0.1105 -0.2794 -0.3424
    1WN      WN  673   6.115   3.235   0.428  0.1000 -0.0140  0.1190
    1WN      WN  674   0.252   2.438   2.797 -0.2830  0.2854 -0.3547
    1WN      WN  675   3.543   3.569   3.274  0.1413 -0.0381 -0.1231
    1WN      WN  676   0.231   3.287   1.748 -0.1351 -0.3003  0.0229
    1WN      WN  677   0.853   6.324   3.126  0.0140  0.0631  0.0073
    1WN      WN  678   5.937   5.890   1.551 -0.1704 -0.0070 -0.1645
    1WN      WN  679   5.761   1.696   1.752 -0.1516  0.1477  0.0241
    1WN      WN  680   4.506   4.290   1.735  0.4017 -0.4780  0.1528
    1WN      WN  681   1.894   3.681   4.990 -0.2712 -0.2547 -0.2760
    1WN      WN  682   1.581   6.511   0.977 -0.2711 -0.2763  0.3661
    1WN      WN  683   6.125   4.591   1.418 -0.2374  0.1531  0.1935
    1WN      WN  684   6.242   5.908   1.114  0.0683  0.0021 -0.2340
    1WN      WN  685   1.424   4.499   1.319  0.0422 -0.0469  0.2601
    1WN      WN  686   5.263   4.268   5.833 -0.5241  0.1101  0.0373
    1WN      WN  687   0.649   2.019   1.652 -0.1810  0.0130  0.0695
    1WN      WN  688   4.237   2.665   2.641  0.0776 -0.1664  0.2475
    1WN      WN  689   6.524   1.285   6.439 -0.2800 -0.5189 -0.1617
    1WN      WN  690   0.727   5.445   3.253 -0.0117  0.1527  0.1838
    1WN      WN  691   4.221   0.337   2.917 -0.2622  0.3533  0.3602
    1WN      WN  692   0.286   0.882   1.764 -0.1217 -0.2022 -0.0727
    1WN      WN  693   3.444   0.029   0.009  0.0070  0.0077 -0.0418
    1WN      WN  694   6.486   1.037   2.014 -0.1493  0.0305 -0.2093
    1WN      WN  695   0.725   2.332   2.620 -0.0486  0.2028 -0.2656
    1WN      WN  696   0.325   5.216   1.470 -0.0701  0.1954  0.1722
    1WN      WN  697   3.854   1.545   5.112 -0.0922 -0.1257  0.2953
    1WN      WN  698   6.276   5.228   3.752 -0.3822 -0.3875 -0.2921
    1WN      WN  699   5.288   3.019   0.799 -0.1493 -0.0486  0.1858
    1WN      WN  700   4.510   4.656   2.909  0.0432  0.2079 -0.3573
    1WN      WN  701   3.400   1.468   2.014  0.3122  0.2235  0.0694
    1WN      WN  702   1.537   2.853   4.429 -0.0805  0.1246  0.0695
    1WN      WN  703   5.210   4.465   4.598 -0.1771  0.0142 -0.1356
    1WN      WN  704   6.338   0.828   0.394 -0.1065  0.0350  0.2230
    1WN      WN  705   1.558   2.105   3.346  0.4933 -0.0564 -0.3859
    1WN      WN  706   5.158   1.918   5.436  0.6307 -0.0347  0.3409
    1WN      WN  707   5.842   2.665   2.932  0.0987 -0.0887 -0.0239
    1WN      WN  708   5.977   1.014   5.967  0.0239  0.1102  0.0155
    1WN      WN  709   2.338   4.380   1.716  0.2162 -0.2011 -0.1748
    1WN      WN  710   4.646   5.270   3.277 -0.0930 -0.2274 -0.2280
    1WN      WN  711   5.065   2.391   1.382 -0.0718 -0.2316 -0.0343
    1WN      WN  712   6.296   1.790   3.196 -0.1804  0.2737 -0.0586
    1WN      WN  713   3.954   5.659   1.483 -0.0542 -0.0509  0.0553
    1WN      WN  714   3.833   2.612   0.699 -0.1349  0.0116 -0.1484
    1WN      WN  715   5.314   2.053   1.765  0.0088 -0.3835  0.2348
    1WN      WN  716   5.031   2.207   3.275  0.2410 -0.0053 -0.2745
    1WN      WN  717   3.987   3.826   4.852  0.1166  0.1853 -0.2314
    1WN      WN  718   4.890   4.271   3.620  0.1173  0.2344 -0.3309
    1WN      WN  719   2.442   3.870   4.867 -0.1414 -0.2291  0.0620
    1WN      WN  720   5.391   6.383   2.811  0.1545  0.1678  0.0029
    1WN      WN  721   4.461   1.705   2.890 -0.1262 -0.0444  0.2952
    1WN      WN  722   0.155   0.074   2.475 -0.0607  0.0452 -0.0356
    1WN      WN  723   3.334   5.523   4.499  0.1212  0.2167 -0.0647
    1WN      WN  724   0.747   5.107   3.651  0.1334 -0.1618 -0.0065
    1WN      WN  725   4.672   4.293   6.375  0.3495  0.1320 -0.0327
    1WN      WN  726   1.122   0.912   6.310  0.3793  0.1559  0.1046
    1WN      WN  727   2.813   3.547   2.302  0.1400  0.2422 -0.3880
    1WN      WN  728   0.385   4.958   3.238  0.0417  0.1996 -0.1160
    1WN      WN  729   0.464   5.771   6.247  0.0057 -0.3375 -0.0275
    1WN      WN  730   2.030   1.747   5.132 -0.3052  0.1983  0.1714
    1WN      WN  731   5.805   3.909   5.582 -0.5254 -0.1946  0.0247
    1WN      WN  732   3.216   3.944   3.412 -0.2059 -0.0046 -0.0787
    1WN      WN  733   4.448   1.392   2.214  0.2004  0.1514  0.0857
    1WN      WN  734   0.792   5.375   1.114 -0.1386 -0.0056 -0.1580
    1WN      WN  735   4.256   6.529   0.530 -0.2856 -0.3177  0.1959
    1WN      WN  736   5.649   1.897   0.841 -0.2665 -0.2049  0.0016
    1WN      WN  737   2.353   2.193   4.208 -0.0129 -0.0530  0.0943
    1WN      WN  738   5.112   3.050   4.433 -0.1340 -0.0970 -0.1320
    1WN      WN  739   0.875   4.226   4.790 -0.0701 -0.1205 -0.3855
    1WN      WN  740   2.886   6.074   1.578 -0.1247 -0.0040 -0.0099
    1WN      WN  741   3.131   6.555   5.057  0.0852 -0.0673 -0.0926
    1WN      WN  742   0.771   1.598   1.959  0.1473 -0.0252 -0.1371
    1WN      WN  743   4.399   1.207   3.328 -0.0219  0.0065 -0.0419
    1WN      WN  744   1.412   1.784   0.137 -0.2247 -0.1613 -0.1038
    1WN      WN  745   3.737   3.918   1.830 -0.3207  0.2398 -0.2770
    1WN      WN  746   6.421   4.949   0.093  0.0597 -0.1685  0.0902
    1WN      WN  747   4.353   6.029   5.421  0.0795 -0.3923 -0.0139
    1WN      WN  748   5.713   3.015   4.274  0.0360  0.0960  0.3845
    1WN      WN  749   3.972   3.013   4.538 -0.0217 -0.1898  0.2197
    1WN      WN  750   2.554   0.507   1.982 -0.1313  0.0680  0.1055
    1WN      WN  751   0.821   2.050   2.220 -0.0669  0.0078  0.0241
    1WN      WN  752   2.701   0.401   4.586  0.1708 -0.1016  0.0017
    1WN      WN  753   1.291   4.127   1.643 -0.2215  0.0428  0.2923
    1WN      WN  754   6.509   1.238   0.730 -0.0966 -0.2389  0.1619
    1WN      WN  755   0.465   2.966   3.446  0.0598  0.2188 -0.1013
    1WN      WN  756   0.017   3.734   1.886 -0.2385  0.1743 -0.1091
    1WN      WN  757   1.430   1.083   1.709 -0.0939 -0.1098  0.2615
    1WN      WN  758   6.512   1.587   1.113 -0.6066 -0.1040 -0.1194
    1WN      WN  759   1.780   0.844   4.353 -0.2729 -0.3454  0.0234
    1WN      WN  760   0.456   1.397   6.463 -0.4783 -0.0430 -0.2895
    1WN      WN  761   5.834   1.093   4.456  0.2327 -0.1244  0.0295
    1WN      WN  762   4.228   4.054   3.734 -0.1356 -0.1187 -0.0042
    1WN      WN  763   5.545   0.932   0.686 -0.3728  0.0042 -0.2729
    1WN      WN  764   1.466   3.437   2.751 -0.0300  0.0712 -0.1114
    1WN      WN  765   6.556   1.744   4.525  0.2684 -0.1671  0.2521
    1WN      WN  766   0.787   1.108   1.745  0.3321  0.2400  0.0076
    1WN      WN  767   5.767   1.178   2.636 -0.2178 -0.0682  0.0170
    1WN      WN  768   4.759   1.720   0.859  0.0905  0.2748 -0.2704
    1WN      WN  769   6.320   2.725   1.536  0.1188 -0.0233  0.1070
    1WN      WN  770   3.237   5.348   6.282  0.0450  0.0925 -0.1700
    1WN      WN  771   2.342   0.953   5.316 -0.2808 -0.0562  0.1733
    1WN      WN  772   3.904   4.090   2.610 -0.1695  0.0092 -0.2353
    1WN      WN  773   4.496   2.634   6.070 -0.3812  0.2486  0.2841
    1WN      WN  774   3.896   2.156   0.476  0.3419 -0.1846  0.2550
    1WN      WN  775   0.923   4.589   1.213  0.1803  0.0896 -0.0659
    1WN      WN  776   1.577   5.005   1.563 -0.1082 -0.3205  0.0002
    1WN      WN  777   3.862   0.170   1.450  0.0267 -0.0738 -0.1612
    1WN      WN  778   0.734   5.296   4.979 -0.2849 -0.0883  0.0896
    1WN      WN  779   5.508   5.163   6.168  0.1750  0.0584 -0.1429
    1WN      WN  780   5.103   5.043   3.193 -0.2625 -0.0775  0.1138
    1WN      WN  781   4.440   5.543   4.287 -0.1147  0.0316 -0.2043
    1WN      WN  782   4.831   1.662   4.911  0.1765  0.0716 -0.0247
    1WN      WN  783   3.051   0.175   4.156 -0.4041 -0.2205  0.2582
    1WN      WN  784   4.913   1.694   3.849  0.1484 -0.0690 -0.1222
    1WN      WN  785   0.187   0.780   1.284 -0.1303 -0.1246  0.1337
    1WN      WN  786   5.625   6.436   3.404  0.0226  0.0086  0.1279
    1WN      WN  787   2.140   0.644   2.566 -0.0097 -0.1255 -0.3260
    1WN      WN  788   0.251   0.560   2.153 -0.1757  0.1866 -0.2232
    1WN      WN  789   5.829   2.008   2.151 -0.1654 -0.0511  0.0057
    1WN      WN  790   4.580   4.356   2.230  0.1245 -0.3955  0.3798
    1WN      WN  791   0.289   2.586   4.924 -0.4394  0.0652  0.1158
    1WN      WN  792   5.580   3.160   1.309  0.0632 -0.1250  0.1191
    1WN      WN  793   4.797   4.689   1.885  0.3837 -0.2421 -0.1340
    1WN      WN  794   6.207   4.002   5.233  0.0234 -0.2503 -0.1573
    1WN      WN  795   4.407   5.706   3.282 -0.2275  0.1661  0.2315
    1WN      WN  796   6.179   6.019   0.605  0.1636 -0.1572 -0.0332
    1WN      WN  797   3.264   5.227   3.534 -0.1561  0.0627 -0.1735
    1WN      WN  798   0.241   1.389   0.345 -0.0145  0.2077 -0.2958
    1WN      WN  799   5.399   2.602   1.075 -0.2809 -0.1964 -0.0745
    1WN      WN  800   3.271   3.820   1.254  0.1511 -0.1857 -0.0603
    1WN      WN  801   0.105   0.268   4.581  0.0795 -0.0881  0.0182
    1WN      WN  802   5.118   3.193   2.642 -0.1420  0.0048 -0.0281
    1WN      WN  803   0.332   3.417   0.715  0.2991  0.0698 -0.1932
    1WN      WN  804   0.060   2.685   5.853  0.2388  0.1182  0.0927
    1WN      WN  805   2.171   5.755   0.691 -0.0087  0.0719  0.2499
    1WN      WN  806   1.312   2.917   1.589 -0.0863 -0.2462 -0.1814
    1WN      WN  807   6.343   2.503   3.859  0.3349  0.0801  0.1215
    1WN      WN  808   0.953   1.841   4.751  0.1894  0.0929  0.2131
    1WN      WN  809   0.403   6.505   4.962  0.1685 -0.1244  0.0475
    1WN      WN  810   6.218   4.669   6.120  0.1908  0.1760 -0.1411
    1WN      WN  811   4.912   6.550   4.832  0.2922 -0.1425  0.2214
    1WN      WN  812   0.763   5.740   1.506 -0.2362  0.0658 -0.1588
    1WN      WN  813   4.077   2.429   3.899  0.3596  0.1259  0.0754
    1WN      WN  814   2.706   2.741   3.976 -0.0457  0.0712 -0.4634
    1WN      WN  815   3.027   2.991   5.770  0.1636  0.2490  0.0118
    1WN      WN  816   5.001   0.218   0.639  0.1771 -0.0547 -0.0856
    1WN      WN  817   5.507   4.781   3.933  0.1419 -0.1490  0.0782
    1WN      WN  818   4.521   2.115   3.288 -0.1318 -0.0889  0.0638
    1WN      WN  819   0.754   2.723   4.843  0.1259  0.1889 -0.1555
    1WN      WN  820   0.339   0.068   1.397  0.0742 -0.3580 -0.0882
    1WN      WN  821   4.855   0.992   3.340 -0.2732 -0.4109  0.0092
    1WN      WN  822   1.599   4.736   0.551 -0.0703  0.0486 -0.1521
    1WN      WN  823   5.351   1.019   1.198 -0.1129  0.0639 -0.3753
    1WN      WN  824   2.779   5.915   2.489 -0.3509 -0.1391  0.3442
    1WN      WN  825   5.587   0.065   0.658  0.0445  0.1025  0.5711
    1WN      WN  826   3.559   2.972   6.230 -0.1332  0.0165  0.3431
    1WN      WN  827   4.234   2.253   1.235 -0.2757  0.0627 -0.1303
    1WN      WN  828   5.724   5.787   0.734  0.0548  0.1452  0.5093
    1WN      WN  829   2.829   4.229   4.995  0.1441  0.1110  0.1087
    1WN      WN  830   4.724   0.759   1.203  0.0056 -0.2009  0.0587
    1WN      WN  831   2.747   6.443   2.556  0.0690 -0.0752 -0.0208
    1WN      WN  832   3.310   1.243   4.310  0.1346 -0.3483 -0.1157
    1WN      WN  833   0.146   2.818   1.180 -0.3652 -0.0938  0.0622
    1WN      WN  834   4.915   2.158   2.599  0.0061  0.2629 -0.2885
    1WN      WN  835   4.287   4.712   1.972 -0.0257  0.2212  0.0117
    1WN      WN  836   3.203   1.925   4.599 -0.1164 -0.1186  0.2408
    1WN      WN  837   6.324   1.470   0.312  0.0158  0.2636 -0.0618
    1WN      WN  838   0.574   0.009   2.211  0.1262 -0.0856  0.0378
    1WN      WN  839   3.659   0.851   5.447 -0.1725  0.2199  0.0063
    1WN      WN  840   0.484   5.352   0.263  0.2525  0.0817 -0.1313
    1WN      WN  841   2.927   3.717   4.792  0.0482 -0.1343  0.3247
    1WN      WN  842   2.197   4.506   2.799  0.2579 -0.3946  0.1120
    1WN      WN  843   4.266   6.182   0.927 -0.0077 -0.4958  0.1601
    1WN      WN  844   5.485   0.197   6.184 -0.0361  0.1597  0.0574
    1WN      WN  845   5.592   3.980   4.105 -0.0822  0.4472  0.0320
    1WN      WN  846   5.969   4.043   4.741  0.0829  0.4777 -0.0208
    1WN      WN  847   0.349   2.640   0.235 -0.1112 -0.2240 -0.1453
    1WN      WN  848   3.745   0.759   4.923  0.0206  0.0127 -0.0069
    1WN      WN  849   4.053   6.197   5.881  0.1249  0.3130  0.1038
    1WN      WN  850   4.052   0.359   4.380 -0.0218  0.1522 -0.3604
    1WN      WN  851   4.473   1.723   1.255 -0.0280 -0.2039 -0.3873
    1WN      WN  852   3.453   2.042   5.011 -0.0772  0.0508  0.1786
    1WN      WN  853   4.970   4.666   2.846  0.0237 -0.2923  0.2063
    1WN      WN  854   5.009   2.485   5.890 -0.1050  0.0021 -0.2237
    1WN      WN  855   5.611   2.591   2.498  0.1913 -0.1678 -0.1355
    1WN      WN  856   4.395   4.298   4.687  0.3789  0.3666  0.3730
    1WN      WN  857   2.947   2.324   3.777 -0.0070  0.1116 -0.4313
    1WN      WN  858   1.693   1.729   3.740 -0.3774 -0.2623 -0.2598
    1WN      WN  859   5.280   4.134   1.043  0.0391 -0.2415  0.1941
    1WN      WN  860   1.069   5.489   2.833 -0.0016  0.1441 -0.2490
    1WN      WN  861   0.026   1.693   4.017  0.0346 -0.3337 -0.1796
    1WN      WN  862   3.766   3.906   3.553  0.2062  0.0988 -0.1873
    1WN      WN  863   4.785   6.527   2.784 -0.2384 -0.0655 -0.1925
    1WN      WN  864   5.427   2.852   6.243  0.1247 -0.1155 -0.0714
    1WN      WN  865   0.176   0.432   6.268 -0.3173 -0.0277  0.1602
    1WN      WN  866   4.266   2.424   6.462  0.2967  0.3683  0.1369
    1WN      WN  867   5.149   1.551   1.087 -0.3656 -0.4200  0.2439
    1WN      WN  868   1.805   6.091   2.370  0.1442  0.0108  0.3013
    1WN      WN  869   5.360   3.300   1.813  0.0424 -0.0164  0.2740
    1WN      WN  870   0.751   0.163   1.120 -0.1375  0.2699 -0.1111
    1WN      WN  871   0.997   5.390   5.480 -0.1336  0.0652  0.1864
    1WN      WN  872   3.067   4.941   6.097  0.1984 -0.0267  0.1107
    1WN      WN  873   3.802   5.566   6.240  0.0500 -0.2258 -0.1700
    1WN      WN  874   5.082   3.930   4.126  0.1688 -0.1187  0.0007
    1WN      WN  875   4.206   3.523   2.060 -0.1408 -0.1179 -0.0593
    1WN      WN  876   4.985   2.172   4.019  0.0950 -0.3011  0.1154
    1WN      WN  877   4.133   3.340   1.578 -0.0930  0.2025 -0.0345
    1WN      WN  878   4.602   5.231   6.295 -0.0560 -0.0153 -0.2593
    1WN      WN  879   1.044   3.721   3.776  0.1079  0.2157  0.0486
    1WN      WN  880   5.723   1.252   1.468  0.1415 -0.0710  0.1804
    1WN      WN  881   0.407   1.522   5.499  0.0407 -0.2332 -0.0815
    1WN      WN  882   0.117   3.462   1.250  0.2833 -0.1533  0.1042
    1WN      WN  883   1.589   2.132   0.706  0.0782 -0.0807 -0.2088
    1WN      WN  884   5.128   2.490   5.338 -0.3848 -0.0736  0.0500
    1WN      WN  885   3.307   2.562   2.767  0.0603  0.2217 -0.0446
    1WN      WN  886   0.222   4.277   2.365  0.0159  0.0352 -0.2053
    1WN      WN  887   0.498   4.343   0.228 -0.2178  0.0113 -0.1892
    1WN      WN  888   1.980   5.303   0.597  0.1179 -0.0785  0.0822
    1WN      WN  889   5.401   2.843   5.682 -0.1108 -0.2009  0.0379
    1WN      WN  890   4.496   3.094   1.045 -0.0286 -0.1322 -0.0042
    1WN      WN  891   2.547   1.926   0.575  0.2146  0.2791 -0.0437
    1WN      WN  892   1.119   5.717   3.385 -0.0091  0.1069 -0.0175
    1WN      WN  893   5.165   1.844   2.944  0.0567  0.3871  0.1333
    1WN      WN  894   0.249   1.813   1.979 -0.2913 -0.0301 -0.1092
    1WN      WN  895   3.865   4.470   0.527 -0.1573 -0.1094 -0.2263
    1WN      WN  896   2.755   1.363   1.342  0.2333 -0.2206  0.2262
    1WN      WN  897   1.960   4.618   1.366 -0.0671 -0.3748  0.2090
    1WN      WN  898   4.964   4.354   0.704  0.0190  0.1467 -0.0606
    1WN      WN  899   5.885   1.519   2.311  0.2064  0.0332  0.2572
    1WN      WN  900   4.514   5.077   4.077  0.0231 -0.1692  0.1195
    1WN      WN  901   2.848   3.850   3.045  0.0392  0.3993  0.0356
    1WN      WN  902   6.183   6.024   2.782 -0.0836  0.2606  0.0865
    1WN      WN  903   0.601   4.886   0.947  0.2782  0.2044 -0.1105
    1WN      WN  904   3.985   3.530   0.130 -0.0527  0.1251 -0.1813
    1WN      WN  905   4.641   4.216   5.130  0.1086 -0.1548 -0.1180
    1WN      WN  906   5.315   5.685   0.895 -0.2456 -0.0715 -0.0280
    1WN      WN  907   2.550   2.816   5.525 -0.1763  0.0418  0.1303
    1WN      WN  908   4.334   0.103   3.554 -0.0120  0.5563  0.1853
    1WN      WN  909   0.948   6.017   4.347  0.0307 -0.2058 -0.0815
    1WN      WN  910   2.674   1.918   3.850  0.0077  0.3632 -0.0219
    1WN      WN  911   0.688   4.862   4.092 -0.1752  0.2279 -0.1791
    1WN      WN  912   2.860   0.856   1.229  0.1640  0.8901  0.0464
    1WN      WN  913   5.720   4.939   0.425  0.3424 -0.0698 -0.1013
    1WN      WN  914   0.324   1.322   2.103  0.2667 -0.0067 -0.1874
    1WN      WN  915   3.099   2.731   4.313  0.1760  0.1470 -0.1025
    1WN      WN  916   5.212   3.815   3.668 -0.0209 -0.0424 -0.4111
    1WN      WN  917   6.480   0.049   6.449  0.0134  0.0900 -0.1933
    1WN      WN  918   5.753   6.556   1.243  0.3314 -0.0058  0.4069
    1WN      WN  919   2.270   5.629   2.282  0.0865  0.1852  0.2667
    1WN      WN  920   2.108   2.220   2.269  0.2645  0.2183 -0.2418
    1WN      WN  921   2.258   3.700   3.969 -0.1545 -0.0822  0.0641
    1WN      WN  922   5.222   2.112   0.911  0.1541 -0.0500  0.2929
    1WN      WN  923   5.061   6.051   2.220  0.4315  0.3154  0.2989
    1WN      WN  924   4.274   2.383   0.749  0.2236  0.0105 -0.1313
    1WN      WN  925   6.167   1.397   4.688 -0.1567 -0.0474 -0.0439
    1WN      WN  926   0.589   2.678   4.129 -0.1717 -0.0451 -0.1588
    1WN      WN  927   0.260   0.855   0.767 -0.1263  0.0043  0.2460
    1WN      WN  928   4.764   2.343   6.342 -0.1846 -0.0302  0.4215
    1WN      WN  929   6.317   0.572   2.388 -0.1689  0.0718 -0.0421
    1WN      WN  930   4.352   1.420   5.481  0.1244  0.0385  0.3331
    1WN      WN  931   2.444   2.500   2.735  0.0780 -0.2515  0.0173
    1WN      WN  932   3.486   3.547   0.403  0.1313 -0.2749  0.2489
    1WN      WN  933   4.884   5.047   3.693 -0.2120  0.2226  0.0238
    1WN      WN  934   0.371   2.913   0.728 -0.1289  0.0313  0.0984
    1WN      WN  935   1.434   1.682   1.092 -0.1337  0.0085 -0.0841
    1WN      WN  936   0.090   2.641   4.304 -0.2827 -0.0920 -0.2501
    1WN      WN  937   4.699   6.537   0.298 -0.1034  0.2217 -0.2472
    1WN      WN  938   1.393   4.218   4.321  0.1815  0.3244 -0.1065
    1WN      WN  939   2.724   5.008   2.956  0.1412 -0.1048 -0.0194
    1WN      WN  940   3.042   5.035   2.353 -0.1264  0.2526  0.0220
    1WN      WN  941   4.298   4.660   5.011 -0.2048 -0.2014 -0.1061
    1WN      WN  942   1.796   0.818   1.259 -0.2326  0.1401 -0.0611
    1WN      WN  943   6.363   0.998   1.552 -0.4116 -0.2163 -0.0935
    1WN      WN  944   2.942   0.626   1.692  0.2332 -0.0425 -0.0462
    1WN      WN  945   2.333   2.578   1.076  0.0793 -0.0842 -0.0922
    1WN      WN  946   2.303   0.855   1.193  0.1814 -0.5096 -0.2390
    1WN      WN  947   5.090   0.600   6.479  0.1648  0.1136 -0.0308
    1WN      WN  948   3.307   3.976   0.789  0.0582  0.0099 -0.1054
    1WN      WN  949   1.113   6.344   5.399 -0.1120  0.4561 -0.1113
    1WN      WN  950   5.920   2.570   0.833  0.1737  0.0930  0.1774
    1WN      WN  951   1.211   3.863   0.586  0.0400  0.1999 -0.2037
    1WN      WN  952   4.990   2.928   6.158 -0.2109 -0.1048  0.3346
    1WN      WN  953   3.860   0.787   2.255 -0.0069 -0.2072 -0.0942
    1WN      WN  954   3.212   3.578   4.294 -0.1832 -0.4591 -0.0369
    1WN      WN  955   6.013   3.422   2.574  0.2897 -0.1483  0.2198
    1WN      WN  956   2.498   2.578   2.235  0.0111 -0.0100 -0.2661
    1WN      WN  957   5.333   5.857   0.342  0.6234  0.0256  0.0238
    1WN      WN  958   3.649   2.107   4.510 -0.0860  0.1439 -0.0413
    1WN      WN  959   1.285   2.507   4.057  0.1465  0.2052 -0.1823
    1WN      WN  960   0.331   5.381   3.525  0.2245 -0.1730  0.0730
    1WN      WN  961   5.857   5.268   2.452  0.1209  0.1721  0.0042
    1WN      WN  962   6.537   3.344   2.709 -0.2950  0.0632 -0.1482
    1WN      WN  963   1.769   3.862   6.415 -0.2556 -0.0153  0.2735
    1WN      WN  964   3.353   0.431   4.886  0.3912  0.2628  0.2120
    1WN      WN  965   3.232   2.510   3.304  0.1533  0.0101  0.3700
    1WN      WN  966   3.914   1.827   5.500  0.2016 -0.1443 -0.1697
    1WN      WN  967   3.266   3.761   1.765  0.4191  0.7456  0.0483
    1WN      WN  968   3.110   1.828   2.434  0.1747  0.4117  0.1141
    1WN      WN  969   2.748   1.018   0.123  0.1161  0.0147 -0.2415
    1WN      WN  970   6.468   0.402   0.717 -0.0911  0.1982  0.1274
    1WN      WN  971   4.025   3.258   5.561  0.1103  0.0851  0.2924
    1WN      WN  972   3.240   6.051   1.219  0.1005  0.1951  0.3036
    1WN      WN  973   6.026   3.914   2.670  0.0068  0.0917 -0.1660
    1WN      WN  974   2.098   3.705   5.467 -0.1074  0.4155  0.0982
    1WN      WN  975   1.865   3.301   5.372  0.3140 -0.1609 -0.1274
    1WN      WN  976   0.945   5.882   6.256 -0.2833 -0.0332 -0.1395
    1WN      WN  977   0.989   5.584   2.281 -0.4457  0.2499 -0.0292
    1WN      WN  978   2.472   0.171   4.232 -0.0945  0.0605 -0.0937
    1WN      WN  979   0.042   5.006   4.330  0.4221  0.2198  0.0528
    1WN      WN  980   5.831   6.335   2.502  0.1734  0.0977 -0.0602
    1WN      WN  981   3.221   1.026   0.871  0.2336 -0.3617 -0.2093
    1WN      WN  982   1.549   3.380   3.666 -0.3551 -0.2797  0.0411
    1WN      WN  983   4.839   2.196   0.584 -0.1845 -0.4357  0.0018
    1WN      WN  984   4.859   2.913   5.597  0.2197  0.0087 -0.1193
    1WN      WN  985   5.444   2.953   2.910  0.0307 -0.0290  0.1296
    1WN      WN  986   3.066   5.836   2.873 -0.3729  0.2953 -0.0286
    1WN      WN  987   3.567   1.647   4.245 -0.1831 -0.0711 -0.1119
    1WN      WN  988   1.904   2.596   0.771 -0.0057 -0.0441 -0.0983
    1WN      WN  989   3.344   4.085   6.039 -0.2206 -0.1960 -0.1373
    1WN      WN  990   4.935   3.380   0.836 -0.3154 -0.2055  0.1157
    1WN      WN  991   1.448   3.469   6.023  0.0339 -0.2344  0.1747
    1WN      WN  992   2.626   0.646   4.108  0.0989  0.0184  0.0151
    1WN      WN  993   2.504   3.697   3.413 -0.1501  0.4537  0.0681
    1WN      WN  994   2.413   3.502   1.214 -0.0453 -0.0520 -0.0414
    1WN      WN  995   3.419   3.120   3.056 -0.3268  0.0019 -0.3508
    1WN      WN  996   5.446   0.212   4.957 -0.1009  0.1669  0.4012
    1WN      WN  997   0.637   1.052   1.200 -0.1422  0.0916  0.1150
    1WN      WN  998   4.159   4.901   3.100 -0.1558 -0.2149  0.0511
    1WN      WN  999   3.905   4.352   6.377 -0.4031  0.1239  0.1824
    1WN      WN 1000   4.248   2.716   3.175 -0.3722 -0.2835  0.0484
    1WN      WN 1001   3.169   4.219   2.927  0.3218 -0.1086  0.0426
    1WN      WN 1002   4.143   3.092   2.896  0.1163  0.2019 -0.0107
    1WN      WN 1003   1.298   3.245   0.731 -0.3093  0.1905 -0.2831
    1WN      WN 1004   0.930   2.905   5.436  0.0232 -0.0953  0.2382
    1WN      WN 1005   5.684   0.836   1.697 -0.0492 -0.1519 -0.0962
    1WN      WN 1006   2.290   6.082   1.483  0.0133 -0.1283  0.0131
    1WN      WN 1007   1.174   0.027   3.992  0.2670  0.0487 -0.2079
    1WN      WN 1008   3.828   4.968   6.267 -0.0169 -0.1084 -0.2698
    1WN      WN 1009   3.934   5.713   5.804  0.3143 -0.1115 -0.2964
    1WN      WN 1010   4.998   5.005   6.029 -0.0289 -0.0251 -0.3920
    1WN      WN 1011   0.225   3.416   3.254  0.1293  0.0466 -0.0805
    1WN      WN 1012   3.688   0.458   2.850  0.1131  0.0711  0.1631
    1WN      WN 1013   0.861   3.525   0.936  0.1143  0.0089  0.1813
    1WN      WN 1014   4.989   3.457   5.604  0.3027  0.0618  0.0664
    1WN      WN 1015   2.748   2.873   1.394  0.0040  0.0802 -0.1589
    1WN      WN 1016   2.396   0.061   2.086 -0.0718  0.2575  0.0539
    1WN      WN 1017   1.505   3.961   3.170 -0.0125  0.2016 -0.0618
    1WN      WN 1018   0.842   1.570   3.045  0.1976 -0.0211  0.1691
    1WN      WN 1019   3.120   4.395   3.710  0.1851  0.0618 -0.1661
    1WN      WN 1020   2.950   3.332   1.874  0.1385  0.2943  0.1589
    1WN      WN 1021   1.711   0.782   2.141  0.3929  0.2969  0.1416
    1WN      WN 1022   4.148   5.548   5.010  0.3385 -0.5058 -0.0060
    1WN      WN 1023   4.859   2.785   5.015  0.0293 -0.0411  0.1902
    1WN      WN 1024   5.105   0.425   4.582  0.2889  0.1749 -0.2153
    1WN      WN 1025   2.233   0.031   3.217 -0.2117 -0.1020  0.0512
    1WN      WN 1026   3.188   3.453   5.521 -0.2170  0.1971 -0.0017
    1WN      WN 1027   0.064   5.924   0.322  0.2152  0.5305  0.1258
    1WN      WN 1028   5.615   4.351   4.971 -0.1738 -0.0560 -0.2367
    1WN      WN 1029   6.161   1.526   2.727  0.3765 -0.0443 -0.0502
    1WN      WN 1030   2.672   0.531   0.336  0.0733 -0.2793 -0.0601
    1WN      WN 1031   5.837   2.134   3.019  0.2475  0.0704  0.4840
    1WN      WN 1032   0.694   4.933   1.436 -0.1069  0.4710  0.3283
    1WN      WN 1033   1.158   1.081   5.822 -0.0241 -0.0387 -0.2295
    1WN      WN 1034   2.039   2.733   5.670  0.1159  0.4122 -0.4132
    1WN      WN 1035   3.343   5.158   1.310 -0.2319  0.0817  0.0751
    1WN      WN 1036   5.849   0.748   0.370 -0.2417  0.0682  0.0136
    1WN      WN 1037   4.481   3.787   4.854 -0.1100 -0.0960 -0.1517
    1WN      WN 1038   5.425   0.599   5.261 -0.0545 -0.2119 -0.0056
    1WN      WN 1039   3.874   3.146   3.277  0.0428 -0.1707 -0.1750
    1WN      WN 1040   6.199   5.178   2.819  0.0023  0.2122  0.3344
    1WN      WN 1041   5.379   2.431   2.969  0.0238 -0.0892  0.1434
    1WN      WN 1042   2.109   4.990   6.344 -0.1111 -0.1676  0.0601
    1WN      WN 1043   3.339   4.908   0.005  0.2021  0.0078 -0.1283
    1WN      WN 1044   3.393   5.646   1.633  0.0315  0.0848 -0.2257
    1WN      WN 1045   5.568   2.544   5.173  0.0095 -0.2299  0.1408
    1WN      WN 1046   0.584   3.839   4.883 -0.0845 -0.1975 -0.0404
    1WN      WN 1047   4.871   6.380   1.391  0.2956  0.0370 -0.0671
    1WN      WN 1048   3.757   4.350   5.741  0.0437  0.0025  0.1444
    1WN      WN 1049   5.306   2.352   6.337  0.4062  0.0259  0.1573
    1WN      WN 1050   1.089   2.681   4.495  0.1277  0.0004 -0.1141
    1WN      WN 1051   1.825   3.027   2.892 -0.5610  0.1972 -0.6440
    1WN      WN 1052   0.401   0.514   5.828 -0.3284  0.1906  0.1164
    1WN      WN 1053   3.697   0.314   5.503  0.2217  0.1300 -0.1317
    1WN      WN 1054   4.140   4.422   4.282  0.2217 -0.1896  0.1938
    1WN      WN 1055   1.513   2.580   2.933  0.0363 -0.0894 -0.0446
    1WN      WN 1056   3.911   6.140   0.589  0.1387  0.3394  0.0782
    1WN      WN 1057   0.345   5.543   2.469  0.0743  0.0247  0.5623
    1WN      WN 1058   2.894   0.054   1.990  0.0168 -0.0368  0.1104
    1WN      WN 1059   5.562   2.288   0.479  0.0883 -0.0626 -0.3803
    1WN      WN 1060   4.239   4.026   3.213 -0.1543  0.4323 -0.0667
    1WN      WN 1061   1.257   6.521   1.305 -0.0583 -0.0262  0.1300
    1WN      WN 1062   5.969   1.954   4.423 -0.2497  0.1012  0.1428
    1WN      WN 1063   4.766   6.030   3.438  0.2233 -0.1036 -0.2773
    1WN      WN 1064   6.069   1.310   1.858  0.2394 -0.0551  0.1430
    1WN      WN 1065   4.654   3.860   1.908  0.2669  0.2044  0.1016
    1WN      WN 1066   1.261   0.916   2.597 -0.1340  0.3714 -0.2349
    1WN      WN 1067   5.524   3.880   5.159 -0.1968 -0.0558  0.3217
    1WN      WN 1068   6.036   5.613   0.356 -0.1778  0.1763  0.0122
    1WN      WN 1069   0.291   2.485   3.608 -0.0109 -0.3487  0.0888
    1WN      WN 1070   2.487   0.519   2.994 -0.2016 -0.1946 -0.1152
    1WN      WN 1071   3.091   3.762   6.340  0.2880  0.2314  0.0549
    1WN      WN 1072   1.105   3.896   5.729 -0.3570 -0.0130 -0.1120
    1WN      WN 1073   5.569   4.377   5.458  0.2369  0.0276  0.0102
    1WN      WN 1074   2.261   1.435   1.365 -0.4262 -0.0570  0.0241
    1WN      WN 1075   3.354   0.181   1.824  0.1779 -0.2183 -0.1098
    1WN      WN 1076   3.699   0.994   1.046 -0.3350 -0.4378 -0.0051
    1WN      WN 1077   4.128   3.014   0.732  0.1234 -0.0626  0.0950
    1WN      WN 1078   2.264   0.539   3.554 -0.0372  0.2986  0.0446
    1WN      WN 1079   3.676   5.663   3.698 -0.1956  0.0584  0.2435
    1WN      WN 1080   0.810   0.702   0.913  0.0492 -0.2833  0.1305
    1WN      WN 1081   2.226   0.873   2.107  0.1789  0.0726 -0.0610
    1WN      WN 1082   5.477   2.357   3.467 -0.2118  0.3699  0.2182
    1WN      WN 1083   5.216   1.476   1.698  0.4834  0.0328  0.1864
    1WN      WN 1084   2.201   3.067   1.169  0.2459  0.1023  0.3030
    1WN      WN 1085   0.984   6.264   0.064 -0.0480  0.1236 -0.2590
    1WN      WN 1086   2.789   0.967   2.272  0.1872 -0.0083 -0.0103
    1WN      WN 1087   3.732   0.554   1.765  0.1564  0.1499  0.0497
    1WN      WN 1088   3.480   4.718   2.355  0.1211  0.2929  0.0202
    1WN      WN 1089   1.680   3.128   6.406 -0.0421  0.0804  0.3138
    1WN      WN 1090   2.899   2.015   1.404  0.2544 -0.1130  0.3031
    1WN      WN 1091   0.109   5.435   3.998  0.3441 -0.0802  0.0715
    1WN      WN 1092   3.687   6.388   2.894 -0.1201  0.0253  0.0947
    1WN      WN 1093   5.069   2.604   3.658  0.1398 -0.1338  0.0454
    1WN      WN 1094   0.352   1.384   0.950 -0.1926 -0.2607 -0.1423
    1WN      WN 1095   1.047   3.183   3.469 -0.2522 -0.1833  0.1671
    1WN      WN 1096   2.783   4.105   6.127  0.1238 -0.1996 -0.0546
    1WN      WN 1097   1.611   0.568   0.442  0.0950  0.1052 -0.1270
    1WN      WN 1098   4.956   0.854   6.078 -0.1119 -0.1990 -0.1312
    1WN      WN 1099   5.268   6.375   1.017 -0.0066 -0.1849  0.1205
    1WN      WN 1100   4.185   5.278   6.549  0.3129 -0.1583  0.0031
    1WN      WN 1101   5.608   3.115   2.468  0.3457  0.4515  0.0370
    1WN      WN 1102   3.510   3.415   6.375 -0.4491  0.1821  0.0518
    1WN      WN 1103   5.707   3.015   5.215  0.0563 -0.3915 -0.0507
    1WN      WN 1104   0.348   5.793   3.849 -0.0985 -0.1787 -0.2692
    1WN      WN 1105   0.511   0.633   5.332  0.1155 -0.2901 -0.0042
    1WN      WN 1106   6.209   3.106   5.364 -0.0977 -0.2732  0.1209
    1WN      WN 1107   4.561   6.115   5.955 -0.0462 -0.1648  0.0331
    1WN      WN 1108   5.019   5.355   2.142  0.2687  0.2790  0.0121
    1WN      WN 1109   6.261   6.216   6.065 -0.0069  0.4104 -0.1619
    1WN      WN 1110   0.585   3.752   2.872 -0.3152  0.2688 -0.0768
    1WN      WN 1111   1.328   2.058   3.882  0.0017 -0.1126  0.1931
    1WN      WN 1112   2.741   3.696   1.692 -0.0591  0.0114  0.0537
    1WN      WN 1113   1.639   2.382   1.177 -0.0692  0.1726  0.1394
    1WN      WN 1114   2.012   1.426   5.591  0.1235 -0.0716  0.0091
    1WN      WN 1115   4.256   4.777   6.037  0.2520  0.0379  0.1387
    1WN      WN 1116   2.524   2.462   3.528 -0.0990 -0.0641 -0.2374
    1WN      WN 1117   0.489   6.288   0.868 -0.0611  0.0549 -0.0399
    1WN      WN 1118   5.926   6.506   5.790  0.5212 -0.1250  0.1264
    1WN      WN 1119   1.757   1.505   6.016  0.2404  0.0459  0.1128
    1WN      WN 1120   0.008   1.195   3.922  0.0529 -0.1483  0.0857
    1WN      WN 1121   1.491   0.317   3.209  0.4462 -0.1122  0.1211
    1WN      WN 1122   5.730   6.153   0.369 -0.0430 -0.3058 -0.0431
    1WN      WN 1123   3.746   2.183   2.589 -0.2399  0.0054 -0.2758
    1WN      WN 1124   1.936   6.135   0.466  0.0430  0.2270 -0.0557
    1WN      WN 1125   0.224   0.728   4.224 -0.0404 -0.0111  0.3914
    1WN      WN 1126   1.331   2.634   0.553 -0.1211  0.1638 -0.0549
    1WN      WN 1127   5.567   0.078   5.425 -0.0281  0.1316 -0.2100
    1WN      WN 1128   6.498   2.335   0.197 -0.0522 -0.2221  0.1547
    1WN      WN 1129   2.485   3.390   0.351 -0.2554 -0.1825  0.1445
    1WN      WN 1130   5.016   0.941   5.571 -0.1633  0.4103  0.0905
    1WN      WN 1131   0.794   1.680   1.108  0.2048  0.0991  0.3180
    1WN      WN 1132   2.317   0.173   5.324 -0.1957  0.2797 -0.0400
    1WN      WN 1133   0.577   2.488   2.120 -0.0708  0.0848 -0.3572
    1WN      WN 1134   3.472   3.837   4.735 -0.0903 -0.2582  0.4164
    1WN      WN 1135   2.020   4.538   3.718 -0.0233 -0.3274 -0.1311
    1WN      WN 1136   3.912   1.336   3.079 -0.1152  0.0790 -0.0627
    1WN      WN 1137   2.215   1.523   0.341 -0.0455 -0.0174 -0.1078
    1WN      WN 1138   2.338   5.333   3.102  0.0733 -0.1710  0.1155
    1WN      WN 1139   5.470   5.936   2.664  0.1798  0.1990  0.2354
    1WN      WN 1140   0.632   4.298   5.666 -0.3378  0.3519  0.0806
    1WN      WN 1141   2.606   2.624   4.500 -0.0621 -0.1556  0.2279
    1WN      WN 1142   1.343   1.376   6.302 -0.1791 -0.0241 -0.1771
    1WN      WN 1143   1.405   2.965   2.540  0.0278 -0.1729  0.1589
    1WN      WN 1144   5.869   4.976   3.559  0.1740 -0.1987  0.0767
    1WN      WN 1145   1.371   2.562   5.778 -0.0655  0.3587  0.1060
    1WN      WN 1146   4.594   3.781   2.937 -0.1589  0.0713  0.0515
    1WN      WN 1147   3.560   4.644   6.051 -0.0937  0.3136 -0.0068
    1WN      WN 1148   0.883   4.077   3.236  0.1585 -0.2519 -0.2381
    1WN      WN 1149   1.582   6.216   5.112  0.1881 -0.2714 -0.2752
    1WN      WN 1150   6.338   2.831   4.666  0.1324 -0.2279  0.0737
    1WN      WN 1151   1.566   6.113   1.905  0.0806 -0.0340  0.1282
    1WN      WN 1152   1.895   4.350   6.216 -0.0764  0.3203  0.0759
    1WN      WN 1153   1.475   3.013   3.236  0.0333  0.2205 -0.3222
    1WN      WN 1154   5.133   4.455   4.097 -0.0497 -0.1230  0.0543
    1WN      WN 1155   0.675   1.015   6.076 -0.1054  0.2271  0.2949
    1WN      WN 1156   6.318   3.808   5.659 -0.0261 -0.1032 -0.2145
    1WN      WN 1157   5.735   6.335   1.633  0.3107 -0.0654  0.1291
    1WN      WN 1158   3.145   6.196   2.077  0.1311  0.2229 -0.1918
    1WN      WN 1159   2.353   2.074   1.910 -0.1855 -0.2020 -0.0659
    1WN      WN 1160   5.144   4.700   0.444 -0.3616 -0.0065 -0.4150
    1WN      WN 1161   6.141   0.681   1.951  0.2553 -0.3361  0.3307
    1WN      WN 1162   1.474   0.020   1.742 -0.0381 -0.1746 -0.0310
    1WN      WN 1163   3.686   3.983   3.034  0.2358  0.0535  0.1600
    1WN      WN 1164   4.979   6.083   2.750  0.0335 -0.0970  0.2775
    1WN      WN 1165   3.890   3.277   1.098  0.0164 -0.0472  0.1507
    1WN      WN 1166   1.953   2.545   2.626  0.0010 -0.1734  0.0938
    1WN      WN 1167   2.706   4.115   0.153 -0.1421 -0.2863 -0.0510
    1WN      WN 1168   5.814   0.275   2.569 -0.0795  0.0393 -0.1043
    1WN      WN 1169   1.922   2.760   5.202 -0.2434 -0.2111 -0.1548
    1WN      WN 1170   6.158   4.170   5.927 -0.1515 -0.0396  0.0146
    1WN      WN 1171   0.982   3.031   0.321  0.1839  0.1874  0.0161
    1WN      WN 1172   4.447   5.451   3.735  0.1213  0.0967  0.0272
    1WN      WN 1173   1.058   4.313   6.011  0.4151  0.0114  0.2550
    1WN      WN 1174   0.687   0.591   1.419  0.2626 -0.3156  0.1222
    1WN      WN 1175   4.098   1.082   3.755  0.1644 -0.2730  0.0525
    1WN      WN 1176   4.636   0.558   5.692  0.0754  0.0065  0.1857
    1WN      WN 1177   0.082   0.407   1.657  0.1230  0.1254  0.1575
    1WN      WN 1178   5.395   5.173   3.585 -0.0192  0.0589  0.0135
    1WN      WN 1179   2.017   2.060   0.425 -0.0598 -0.1121 -0.0483
    1WN      WN 1180   5.495   1.274   3.039  0.5080 -0.2314 -0.0117
    1WN      WN 1181   0.407   5.750   1.131 -0.0739  0.1969 -0.0061
    1WN      WN 1182   4.381   1.221   2.840  0.1843  0.2749  0.6354
    1WN      WN 1183   0.724   0.859   4.410 -0.3553 -0.3897  0.1248
    1WN      WN 1184   3.509   4.728   3.980  0.1750  0.2120  0.1379
    1WN      WN 1185   6.536   0.356   1.183  0.1168  0.2366  0.1605
    1WN      WN 1186   6.072   4.754   2.651  0.0209 -0.1896  0.0393
    1WN      WN 1187   4.266   2.781   4.175 -0.0123  0.1690 -0.0426
    1WN      WN 1188   2.552   2.440   1.589  0.2978  0.2022  0.0288
    1WN      WN 1189   5.455   3.488   6.436 -0.3378 -0.0069 -0.2716
    1WN      WN 1190   3.410   2.684   0.317 -0.0085  0.1136  0.1571
    1WN      WN 1191   6.186   5.973   0.017 -0.0473 -0.1063  0.0366
    1WN      WN 1192   3.022   5.183   4.698 -0.1639 -0.1776  0.1003
    1WN      WN 1193   4.948   3.385   0.070 -0.2656 -0.2982  0.1070
    1WN      WN 1194   2.738   0.272   5.985 -0.0583  0.0032 -0.0606
    1WN      WN 1195   4.475   2.579   3.580  0.1689  0.1307 -0.0597
    1WN      WN 1196   6.054   2.451   0.327  0.1327 -0.2155  0.2001
    1WN      WN 1197   6.015   2.526   4.286 -0.1015 -0.0327  0.0932
    1WN      WN 1198   2.414   1.366   4.944  0.0501 -0.0077 -0.0804
    1WN      WN 1199   6.516   0.912   5.998 -0.4195  0.1515  0.2931
    1WN      WN 1200   1.433   3.443   5.135 -0.1858  0.0635  0.0089
    1WN      WN 1201   3.931   5.801   3.301 -0.0953 -0.2008 -0.0482
    1WN      WN 1202   6.086   5.812   2.030 -0.3088  0.0171 -0.0747
    1WN      WN 1203   2.630   6.480   1.167 -0.1512 -0.1356  0.1428
    1WN      WN 1204   4.967   0.697   0.776 -0.2103 -0.0015 -0.1644
    1WN      WN 1205   2.368   2.030   1.413  0.2404  0.0373  0.2596
    1WN      WN 1206   3.983   2.875   5.962  0.1312 -0.0446  0.0348
    1WN      WN 1207   0.540   3.136   1.141  0.2846 -0.3940 -0.1618
    1WN      WN 1208   6.285   4.741   4.057  0.0969  0.1775  0.1697
    1WN      WN 1209   5.433   5.704   4.953  0.4062 -0.0809 -0.1916
    1WN      WN 1210   4.537   6.292   5.055  0.2473  0.0493  0.2208
    1WN      WN 1211   1.000   4.264   3.987  0.1477  0.1514  0.2008
    1WN      WN 1212   5.969   1.636   6.422  0.0167 -0.1166 -0.0966
    1WN      WN 1213   1.911   3.085   3.551 -0.0351 -0.2400  0.0090
    1WN      WN 1214   5.692   5.745   4.197 -0.0253  0.1207 -0.0810
    1WN      WN 1215   1.634   5.732   0.582  0.2488 -0.0345  0.3874
    1WN      WN 1216   0.687   5.771   2.677  0.0408 -0.0632  0.1129
    1WN      WN 1217   1.700   2.207   5.797 -0.2032 -0.2107  0.0141
    1WN      WN 1218   5.449   3.554   5.456 -0.0455  0.1357 -0.2010
    1WN      WN 1219   5.175   2.547   0.666 -0.1274  0.0615  0.3312
    1WN      WN 1220   4.868   1.757   0.334  0.0578  0.1719 -0.1507
    1WN      WN 1221   1.882   4.043   3.665 -0.1091 -0.0755  0.0139
    1WN      WN 1222   2.368   5.767   2.807  0.3558 -0.1723  0.2447
    1WN      WN 1223   2.992   6.355   5.977  0.2761  0.2276 -0.2207
    1WN      WN 1224   2.061   2.589   1.963  0.3424 -0.1961  0.0880
    1WN      WN 1225   5.897   5.886   4.643  0.4409  0.0684  0.0197
    1WN      WN 1226   4.488   0.093   1.719  0.0919  0.0138  0.0837
    1WN      WN 1227   1.104   5.982   2.880  0.0129  0.1300  0.3156
    1WN      WN 1228   5.693   1.582   0.450 -0.1117  0.0960  0.0654
    1WN      WN 1229   0.199   0.019   5.942 -0.1306 -0.0009  0.2953
    1WN      WN 1230   0.725   5.798   0.167 -0.0388 -0.2389 -0.1332
    1WN      WN 1231   3.410   0.679   2.540  0.1550 -0.1804 -0.1123
    1WN      WN 1232   5.291   0.505   4.099  0.2044 -0.0690 -0.0574
    1WN      WN 1233   3.156   2.012   3.412 -0.2264 -0.4756  0.0783
    1WN      WN 1234   4.566   3.579   1.447  0.0344 -0.0192  0.1200
    1WN      WN 1235   5.944   2.232   3.890 -0.0461 -0.1154  0.1197
    1WN      WN 1236   0.447   1.789   6.060 -0.0707  0.2501 -0.5599
    1WN      WN 1237   6.186   1.224   1.180 -0.1590 -0.1499 -0.1472
    1WN      WN 1238   5.371   5.164   5.262  0.0845  0.0831 -0.0463
    1WN      WN 1239   0.836   1.872   5.614  0.0300 -0.3057  0.0019
    1WN      WN 1240   2.917   5.403   3.167  0.1977  0.0288 -0.2732
    1WN      WN 1241   0.572   3.211   5.624  0.5803  0.3816 -0.0985
    1WN      WN 1242   3.218   3.370   4.989  0.1782 -0.0182  0.4192
    1WN      WN 1243   6.133   1.655   1.421  0.2123 -0.0025 -0.1768
    1WN      WN 1244   5.502   1.012   0.113 -0.1105  0.1451 -0.1867
    1WN      WN 1245   2.501   6.361   3.532  0.1543  0.0053  0.0574
    1WN      WN 1246   5.727   0.605   2.172 -0.0780  0.0538 -0.3664
    1WN      WN 1247   1.243   4.138   3.574  0.2611  0.2438  0.2959
    1WN      WN 1248   5.269   5.728   5.516  0.2085  0.1429 -0.0074
    1WN      WN 1249   1.787   2.181   4.584  0.1784  0.0402 -0.1116
    1WN      WN 1250   3.493   4.463   0.191 -0.2492 -0.4029 -0.1169
    1WN      WN 1251   5.989   1.846   4.883 -0.1072  0.4752 -0.2045
    1WN      WN 1252   3.570   0.642   0.748  0.1066 -0.0934  0.2569
    1WN      WN 1253   4.765   0.514   2.083 -0.3038  0.3425 -0.2918
    1WN      WN 1254   5.153   4.540   6.237 -0.1885 -0.3787 -0.1540
    1WN      WN 1255   1.473   0.585   1.696  0.2906  0.0861 -0.0965
    1WN      WN 1256   6.124   4.064   0.180  0.1485  0.0769 -0.0405
    1WN      WN 1257   1.781   1.312   1.419 -0.0882 -0.0367 -0.0774
    1WN      WN 1258   4.001   3.484   0.613 -0.2450 -0.0273  0.4983
    1WN      WN 1259   4.836   2.139   5.062  0.1476 -0.1081  0.1645
    1WN      WN 1260   5.150   0.975   1.678  0.0394  0.2146 -0.0421
    1WN      WN 1261   0.007   5.852   2.001  0.0730 -0.0895 -0.0991
    1WN      WN 1262   0.587   3.631   1.315 -0.2432 -0.1637  0.0283
    1WN      WN 1263   2.846   5.671   0.001 -0.3476  0.4736 -0.0135
    1WN      WN 1264   4.370   4.877   4.532  0.0848 -0.1581 -0.0438
    1WN      WN 1265   1.943   2.501   4.264  0.0466  0.2274 -0.2153
    1WN      WN 1266   4.956   0.046   1.852  0.3366  0.1594 -0.2443
    1WN      WN 1267   5.845   3.218   3.091  0.0988  0.4009 -0.1706
    1WN      WN 1268   4.332   0.454   1.404 -0.0408 -0.0597 -0.3537
    1WN      WN 1269   0.179   4.050   1.507  0.0624 -0.1518 -0.1766
    1WN      WN 1270   4.064   2.260   3.392  0.1512  0.1586 -0.3497
    1WN      WN 1271   4.417   4.096   1.295  0.0522  0.0805 -0.0659
    1WN      WN 1272   5.176   1.386   3.478  0.2207 -0.5390 -0.1556
    1WN      WN 1273   0.803   4.511   1.672  0.4112  0.3222 -0.0459
    1WN      WN 1274   4.467   3.372   6.332 -0.3689  0.4423  0.0304
    1WN      WN 1275   1.519   2.875   1.045 -0.1472  0.0252 -0.1525
    1WN      WN 1276   2.168   4.838   0.476 -0.1053  0.1868  0.1123
    1WN      WN 1277   2.684   5.627   0.491  0.1218 -0.4778  0.1003
    1WN      WN 1278   5.697   3.549   0.434  0.3377 -0.4519  0.1151
    1WN      WN 1279   2.333   6.186   2.424 -0.4130 -0.0296 -0.4751
    1WN      WN 1280   1.078   2.181   3.036 -0.0488 -0.1143 -0.1754
    1WN      WN 1281   3.587   1.682   2.445  0.1477 -0.0047  0.0954
    1WN      WN 1282   2.573   1.393   3.940  0.1374  0.0274 -0.3373
    1WN      WN 1283   6.359   4.351   3.187 -0.6272 -0.0032  0.0177
    1WN      WN 1284   2.814   2.570   5.230  0.0674  0.2140  0.0940
    1WN      WN 1285   0.078   1.176   2.579  0.0355  0.1760  0.2793
    1WN      WN 1286   4.867   1.546   5.482  0.2500  0.0995 -0.2729
    1WN      WN 1287   2.135   2.917   6.290  0.0477 -0.1140  0.1360
    1WN      WN 1288   5.444   4.438   1.951 -0.1932  0.0129 -0.2667
    1WN      WN 1289   3.950   1.865   2.926  0.0485  0.2611 -0.2816
    1WN      WN 1290   2.104   6.365   1.074  0.0338  0.2606  0.0348
    1WN      WN 1291   0.819   1.475   5.855 -0.2047 -0.0125  0.0893
    1WN      WN 1292   5.192   4.679   3.553 -0.0095  0.0270 -0.2754
    1WN      WN 1293   2.599   5.327   0.965 -0.1328  0.2828  0.1331
    1WN      WN 1294   3.559   1.161   2.375 -0.3634  0.1241 -0.2834
    1WN      WN 1295   1.984   0.903   1.708 -0.0757  0.0538  0.3078
    1WN      WN 1296   0.833   0.018   2.677  0.2025  0.0990  0.3597
    1WN      WN 1297   6.346   2.234   0.733  0.1506 -0.0432 -0.0711
    1WN      WN 1298   6.350   6.145   1.615 -0.0613  0.0561  0.2373
    1WN      WN 1299   5.701   2.413   1.880  0.0423  0.0946  0.4105
    1WN      WN 1300   5.239   4.809   1.679  0.3128  0.0549  0.1337
    1WN      WN 1301   1.335   0.446   0.004 -0.2387  0.0526 -0.1077
    1WN      WN 1302   5.285   4.140   2.325  0.0798 -0.0805  0.1181
    1WN      WN 1303   2.308   4.599   0.035  0.0146  0.1048 -0.1428
    1WN      WN 1304   5.549   3.944   2.672 -0.0704  0.0277  0.2159
    1WN      WN 1305   6.393   3.766   6.440 -0.1805 -0.3450 -0.1876
    1WN      WN 1306   5.465   5.745   6.031  0.2164 -0.0123  0.1889
    1WN      WN 1307   4.416   1.942   4.780  0.0709 -0.0412  0.0576
    1WN      WN 1308   0.433   3.039   5.110  0.0314 -0.0407 -0.0192
    1WN      WN 1309   5.812   1.625   3.946 -0.1222  0.3183  0.1856
    1WN      WN 1310   4.699   6.066   4.458  0.1252  0.0173 -0.0458
    1WN      WN 1311   6.183   1.914   6.005  0.2440  0.0132  0.1214
    1WN      WN 1312   3.065   5.967   0.384 -0.1138 -0.0617 -0.0876
    1WN      WN 1313   1.835   3.892   4.504 -0.0609  0.0782  0.0385
    1WN      WN 1314   0.161   0.236   5.432  0.0518 -0.0645 -0.1587
    1WN      WN 1315   3.470   4.878   3.198 -0.5873  0.1192  0.0439
    1WN      WN 1316   3.094   0.719   4.348  0.0095 -0.4128 -0.2573
    1WN      WN 1317   3.939   6.424   0.160  0.0687 -0.0626 -0.0634
    1WN      WN 1318   0.910   4.890   3.146 -0.2072 -0.0326  0.1166
    1WN      WN 1319   3.872   5.363   2.474  0.1464 -0.3034 -0.2013
    1WN      WN 1320   3.665   0.452   6.380  0.3140 -0.2027  0.0042
    1WN      WN 1321   6.540   4.790   2.949 -0.2252  0.0064 -0.2977
    1WN      WN 1322   4.548   2.332   4.163  0.0092 -0.1785  0.0100
    1WN      WN 1323   3.871   4.730   3.543 -0.1605  0.1748 -0.0060
    1WN      WN 1324   5.571   5.558   3.238  0.0431 -0.2018 -0.3303
    1WN      WN 1325   6.434   1.293   5.493 -0.0703  0.0754 -0.1629
    1WN      WN 1326   2.589   3.091   6.508 -0.1659 -0.2238  0.3925
    1WN      WN 1327   3.399   0.715   3.437  0.1059  0.0411 -0.1363
    1WN      WN 1328   1.145   0.663   2.186 -0.2156 -0.2858  0.3050
    1WN      WN 1329   4.513   3.591   5.709 -0.2218  0.1094 -0.0873
    1WN      WN 1330   0.506   1.466   1.538 -0.0552  0.0154 -0.3273
    1WN      WN 1331   5.460   5.458   2.782 -0.0290  0.1620  0.0424
    1WN      WN 1332   1.646   4.812   6.272  0.2299 -0.0439  0.1177
    1WN      WN 1333   3.918   5.994   5.212 -0.0498  0.0413  0.0183
    1WN      WN 1334   0.496   5.987   4.301  0.0618 -0.0836  0.2906
    1WN      WN 1335   5.306   0.548   0.435 -0.1752  0.1475  0.0941
    1WN      WN 1336   0.017   4.649   0.554  0.0964  0.2048 -0.0599
    1WN      WN 1337   3.279   3.632   3.769  0.0633 -0.1888  0.3112
    1WN      WN 1338   4.093   2.269   5.440 -0.3428 -0.2230  0.0178
    1WN      WN 1339   1.382   3.513   4.265 -0.1309  0.2480 -0.0847
    1WN      WN 1340   5.813   6.387   4.784 -0.0212 -0.1926 -0.5281
    1WN      WN 1341   4.778   6.254   0.845 -0.0988 -0.2945  0.0755
    1WN      WN 1342   6.310   0.907   2.849  0.0541  0.2081  0.4333
    1WN      WN 1343   2.143   2.142   3.753  0.3658 -0.2561  0.0669
    1WN      WN 1344   1.184   1.802   0.653 -0.1238  0.1839  0.0196
    1WN      WN 1345   4.181   6.003   2.840 -0.0672 -0.1299  0.2992
    1WN      WN 1346   0.895   2.353   5.312  0.3547  0.0297 -0.1351
    1WN      WN 1347   1.201   4.803   0.838 -0.1594  0.1446  0.1013
    1WN      WN 1348   3.137   0.368   5.606  0.0364 -0.1061 -0.2094
    1WN      WN 1349   2.274   3.584   4.491 -0.1405 -0.0661  0.1439
    1WN      WN 1350   4.656   2.531   0.272 -0.0698  0.0073 -0.1103
    1WN      WN 1351   1.386   5.299   0.739 -0.3793  0.2753  0.2642
    1WN      WN 1352   5.327   3.294   5.944  0.0702  0.2711  0.4146
    1WN      WN 1353   5.436   5.553   2.287  0.1013 -0.0611  0.1805
    1WN      WN 1354   3.398   3.323   1.355 -0.4177 -0.0434  0.1763
    1WN      WN 1355   3.884   2.485   4.964  0.2420  0.1512  0.0687
    1WN      WN 1356   3.216   4.907   4.375  0.0570 -0.0578 -0.1699
    1WN      WN 1357   2.144   0.484   0.369 -0.2137 -0.0576 -0.2469
    1WN      WN 1358   0.652   6.523   5.708 -0.1155 -0.3437 -0.3216
    1WN      WN 1359   3.033   5.728   0.885 -0.0930 -0.0987 -0.3688
    1WN      WN 1360   5.702   0.680   3.706  0.1432 -0.1377  0.4471
    1WN      WN 1361   3.208   2.479   0.794 -0.1848  0.2113  0.2947
    1WN      WN 1362   1.217   5.086   0.216 -0.0646  0.1785  0.1631
    1WN      WN 1363   6.324   6.450   4.656 -0.2091 -0.1212  0.2880
    1WN      WN 1364   4.230   3.584   5.243  0.1248 -0.1091 -0.1371
    1WN      WN 1365   0.922   2.751   3.791  0.1520 -0.1073 -0.0812
    1WN      WN 1366   5.083   6.542   4.247  0.2285  0.0150 -0.0716
    1WN      WN 1367   2.875   3.950   2.572 -0.0085 -0.2151  0.2670
    1WN      WN 1368   6.128   5.527   4.192  0.0729 -0.1388  0.0842
    1WN      WN 1369   3.408   1.513   4.744  0.0024  0.0762 -0.0362
    1WN      WN 1370   0.459   5.780   0.583 -0.2413  0.2032  0.0483
    1WN      WN 1371   1.624   0.019   0.199  0.0665 -0.0308 -0.0958
    1WN      WN 1372   1.505   5.383   2.513 -0.4184 -0.0102 -0.2449
    1WN      WN 1373   0.918   3.364   2.971 -0.2995 -0.0490  0.0610
    1WN      WN 1374   5.876   0.818   5.235 -0.2464 -0.1759 -0.0125
    1WN      WN 1375   5.269   0.258   3.690 -0.2512 -0.0017  0.0292
    1WN      WN 1376   1.103   3.152   5.823 -0.2275  0.1566  0.2550
    1WN      WN 1377   3.375   1.231   5.152  0.3403 -0.1039 -0.0791
    1WN      WN 1378   4.999   5.515   2.971  0.0608  0.0258 -0.3379
    1WN      WN 1379   5.414   6.312   0.047  0.1666  0.3678 -0.0921
    1WN      WN 1380   5.057   4.278   1.733  0.1405  0.1137 -0.1823
    1WN      WN 1381   4.725   5.902   3.920  0.1885  0.1818 -0.0316
    1WN      WN 1382   3.671   5.294   0.057 -0.1545  0.0275 -0.1451
    1WN      WN 1383   0.185   2.176   2.313 -0.0264  0.3177 -0.0797
    1WN      WN 1384   6.050   0.089   2.122 -0.0840 -0.0101  0.0708
    1WN      WN 1385   4.015   1.542   1.970  0.1867 -0.0716 -0.0949
    1WN      WN 1386   3.102   5.789   3.732 -0.0805  0.1520  0.1812
    1WN      WN 1387   1.900   4.783   1.858 -0.2026  0.1500 -0.0479
    1WN      WN 1388   0.990   1.792   4.147  0.1134  0.2330 -0.0535
    1WN      WN 1389   5.467   0.499   0.868  0.1021  0.3365 -0.0774
    1WN      WN 1390   5.445   0.864   3.327  0.1165  0.0678  0.3033
    1WN      WN 1391   0.372   4.332   0.708 -0.1661  0.0552 -0.0473
    1WN      WN 1392   3.192   5.591   2.357 -0.0771 -0.1145 -0.4536
    1WN      WN 1393   1.461   3.039   5.421 -0.1490 -0.2137 -0.0010
    1WN      WN 1394   3.456   1.452   1.098 -0.0807  0.3276  0.0103
    1WN      WN 1395   5.392   3.781   5.895 -0.0135 -0.2875 -0.2036
    1WN      WN 1396   4.306   2.122   2.641 -0.1622 -0.0288  0.3258
    1WN      WN 1397   4.569   5.233   1.900  0.1890  0.2652  0.1482
    1WN      WN 1398   5.641   2.607   3.829 -0.2548 -0.2267  0.1939
    1WN      WN 1399   6.206   0.123   1.549  0.1100 -0.3044 -0.2210
    1WN      WN 1400   6.159   3.022   2.722 -0.0738 -0.0905  0.0607
    1WN      WN 1401   5.987   0.442   3.008  0.0348  0.0243 -0.0662
    1WN      WN 1402   1.784   5.027   0.191  0.2720  0.0582  0.1186
    1WN      WN 1403   4.702   2.655   0.793  0.1256  0.0712 -0.0352
    1WN      WN 1404   3.723   6.366   1.921  0.0376 -0.3321 -0.1370
    1WN      WN 1405   3.478   6.132   0.797  0.4191  0.5034  0.3399
    1WN      WN 1406   4.253   5.283   1.062 -0.0594  0.0022  0.0306
    1WN      WN 1407   1.930   3.464   0.898 -0.0299  0.2376  0.0457
    1WN      WN 1408   5.506   1.747   3.257 -0.0939 -0.1428 -0.0567
    1WN      WN 1409   2.992   4.492   5.889  0.1636 -0.0071  0.0922
    1WN      WN 1410   4.989   1.835   1.440  0.1709  0.5009  0.0010
    1WN      WN 1411   1.145   5.090   2.463 -0.0535  0.0367  0.1760
    1WN      WN 1412   1.270   4.170   2.179 -0.1135 -0.1700 -0.2270
    1WN      WN 1413   2.258   3.044   0.622  0.1781 -0.2606  0.1789
    1WN      WN 1414   4.565   5.185   1.398 -0.0907  0.1556 -0.0825
    1WN      WN 1415   5.559   6.249   3.943 -0.0683  0.0971  0.0639
    1WN      WN 1416   0.049   2.176   6.033  0.2351  0.3468  0.0682
    1WN      WN 1417   1.411   3.774   1.071 -0.1118  0.1193  0.0205
    1WN      WN 1418   1.345   5.675   1.139 -0.2644  0.0513  0.0803
    1WN      WN 1419   1.516   3.652   5.549  0.0335 -0.4083  0.0596
    1WN      WN 1420   5.928   5.076   4.067 -0.2920 -0.2034 -0.3058
    1WN      WN 1421   4.936   0.304   6.041 -0.0555 -0.1761 -0.0765
    1WN      WN 1422   5.151   0.154   0.103  0.0085  0.2092 -0.0843
    1WN      WN 1423   5.602   4.617   3.293 -0.0798  0.2926 -0.1621
    1WN      WN 1424   1.709   2.953   3.971 -0.1436  0.3648 -0.0216
    1WN      WN 1425   4.433   0.596   3.424 -0.0643 -0.0085 -0.3153
    1WN      WN 1426   3.580   2.564   1.856  0.0665 -0.3456  0.1788
    1WN      WN 1427   3.704   3.381   1.823 -0.1003 -0.1466  0.2617
    1WN      WN 1428   2.349   4.194   3.607  0.0386  0.2664  0.0797
    1WN      WN 1429   5.116   5.121   6.545  0.3507  0.0381 -0.2771
    1WN      WN 1430   1.661   3.065   4.919  0.1400 -0.1993 -0.3258
    1WN      WN 1431   4.685   4.642   3.853 -0.3048 -0.1779 -0.0308
    1WN      WN 1432   0.321   3.804   2.373  0.0648 -0.0368  0.1730
    1WN      WN 1433   5.809   3.110   6.133 -0.0710  0.1161 -0.2029
    1WN      WN 1434   2.107   5.960   3.583 -0.1854  0.2888  0.0354
    1WN      WN 1435   3.096   3.064   0.597 -0.1554  0.0446  0.1309
    1WN      WN 1436   1.255   0.180   0.544  0.1220 -0.1738  0.2502
    1WN      WN 1437   0.578   5.252   2.771 -0.0311  0.3418  0.0188
    1WN      WN 1438   5.902   6.423   6.500  0.1752  0.2041  0.1290
    1WN      WN 1439   2.684   1.888   4.478 -0.1079 -0.2699  0.1340
    1WN      WN 1440   2.532   0.348   6.475 -0.3031 -0.0950 -0.3635
    1WN      WN 1441   6.506   0.351   5.026 -0.0869 -0.3293  0.0249
    1WN      WN 1442   0.321   2.845   2.442  0.0576 -0.2078  0.0231
    1WN      WN 1443   4.980   4.966   4.160  0.1008 -0.0635 -0.2507
    1WN      WN 1444   5.912   2.223   5.607  0.0980 -0.1572  0.0330
    1WN      WN 1445   6.553   5.468   1.153 -0.1853  0.1815  0.2296
    1WN      WN 1446   3.684   1.927   1.927  0.0526 -0.3125  0.1468
    1WN      WN 1447   6.529   4.069   4.812  0.0469 -0.0738  0.0433
    1WN      WN 1448   6.267   0.011   2.680 -0.1822  0.0788 -0.1193
    1WN      WN 1449   4.049   3.600   3.045  0.1004 -0.1366 -0.2328
    1WN      WN 1450   1.939   3.349   1.853  0.1724  0.0659  0.0984
    1WN      WN 1451   2.897   3.866   5.717  0.1252  0.1372 -0.2230
    1WN      WN 1452   4.226   6.265   2.002  0.0248  0.1853 -0.0350
    1WN      WN 1453   4.195   3.942   0.528  0.2423 -0.2202 -0.0012
    1WN      WN 1454   5.608   1.772   5.664 -0.1520 -0.1177 -0.1982
    1WN      WN 1455   1.695   0.830   3.377 -0.1827 -0.1275 -0.0538
    1WN      WN 1456   6.166   3.477   3.867  0.2375  0.1988 -0.2021
    1WN      WN 1457   4.621   4.160   5.616  0.1504  0.0414 -0.2302
    1WN      WN 1458   0.004   4.398   1.084 -0.0782 -0.0729  0.0568
    1WN      WN 1459   4.158   3.057   5.108  0.3386 -0.2530 -0.0605
    1WN      WN 1460   0.673   6.215   1.342 -0.0565 -0.2569 -0.1431
    1WN      WN 1461   3.432   5.241   2.135 -0.0953 -0.1285 -0.1570
    1WN      WN 1462   3.714   5.167   3.660  0.1182  0.0251  0.1696
    1WN      WN 1463   5.458   3.548   2.350  0.0044 -0.0975  0.3288
    1WN      WN 1464   2.953   0.060   6.441  0.2435  0.1156 -0.1096
    1WN      WN 1465   3.155   6.481   0.383 -0.0319 -0.2494  0.1342
    1WN      WN 1466   0.815   2.247   3.857  0.1383  0.1511  0.2797
    1WN      WN 1467   4.411   2.038   0.294 -0.0358 -0.1629 -0.1130
    1WN      WN 1468   4.903   1.250   4.082  0.0630 -0.0603  0.2034
    1WN      WN 1469   1.380   0.859   3.824 -0.3489 -0.2543  0.0412
    1WN      WN 1470   2.135   1.837   4.544  0.0560  0.0482 -0.1156
    1WN      WN 1471   4.959   5.387   1.073 -0.2618  0.1103  0.0022
    1WN      WN 1472   3.837   4.821   0.176 -0.1654  0.2449  0.2192
    1WN      WN 1473   5.287   0.436   1.882  0.1248  0.2853 -0.2060
    1WN      WN 1474   4.705   1.633   3.389 -0.0053 -0.1096 -0.3890
    1WN      WN 1475   6.481   3.745   4.352 -0.2286  0.1432 -0.2211
    1WN      WN 1476   2.671   4.612   6.248 -0.0123  0.1085 -0.0668
    1WN      WN 1477   0.739   0.090   1.682 -0.0220  0.4067  0.1701
    1WN      WN 1478   2.046   6.134   3.005 -0.1045 -0.0214  0.1752
    1WN      WN 1479   6.094   0.993   3.760  0.3125  0.0432  0.0500
    1WN      WN 1480   1.713   0.022   2.717 -0.0832  0.0227  0.3304
    1WN      WN 1481   1.631   2.405   2.202  0.0642  0.1042  0.0250
    1WN      WN 1482   1.100   0.869   1.349  0.1320  0.0041  0.1795
    1WN      WN 1483   5.229   5.093   2.552  0.2052  0.0794  0.0220
    1WN      WN 1484   5.035   1.684   4.378  0.3465  0.0366  0.1435
    1WN      WN 1485   1.219   2.774   5.022 -0.1301 -0.1003  0.2404
    1WN      WN 1486   2.763   2.874   2.529  0.2506 -0.1772  0.1132
    1WN      WN 1487   1.336   2.541   3.421  0.1708  0.3659 -0.0344
    1WN      WN 1488   0.587   6.380   6.186  0.0736  0.0691  0.0632
    1WN      WN 1489   1.390   5.104   2.987 -0.0399  0.0168 -0.2059
    1WN      WN 1490   4.654   4.535   4.331  0.0039  0.2065  0.0948
    1WN      WN 1491   0.059   0.449   0.257  0.0558  0.2451  0.1606
    1WN      WN 1492   3.077   1.064   3.177  0.2392 -0.0739  0.2567
    1WN      WN 1493   5.014   3.586   4.567 -0.0204 -0.2952 -0.1169
    1WN      WN 1494   3.679   4.120   5.159  0.0635  0.3913 -0.0506
    1WN      WN 1495   5.100   3.715   2.056 -0.2576 -0.2123 -0.0854
    1WN      WN 1496   1.616   2.577   4.858  0.2324  0.2313  0.3661
    1WN      WN 1497   2.842   4.003   3.902 -0.0157  0.1508  0.0152
    1WN      WN 1498   0.562   2.926   1.986 -0.2356 -0.3341  0.3017
    1WN      WN 1499   3.762   4.868   2.793 -0.2793 -0.4178  0.0954
    1WN      WN 1500   0.019   1.469   1.656  0.1969 -0.1307 -0.3640
    1WN      WN 1501   1.705   1.107   0.628 -0.1733  0.0043  0.0038
    1WN      WN 1502   6.141   1.711   0.794  0.1434 -0.1414  0.1315
    1WN      WN 1503   0.376   0.397   0.906  0.1769 -0.1212 -0.1317
    1WN      WN 1504   3.869   4.886   5.745  0.2703 -0.1263 -0.4493
    1WN      WN 1505   4.062   5.117   1.513 -0.4062  0.0023  0.0677
    1WN      WN 1506   5.870   4.947   6.530  0.2231  0.4086  0.1556
    1WN      WN 1507   2.362   2.853   1.682  0.0775 -0.1426 -0.0837
    1WN      WN 1508   1.730   1.423   0.221 -0.0888 -0.3142  0.0556
    1WN      WN 1509   1.717   1.876   2.348 -0.2124  0.1009 -0.1041
    1WN      WN 1510   6.306   0.812   0.944 -0.0259  0.2501  0.1167
    1WN      WN 1511   3.467   5.581   1.126  0.0528 -0.3265  0.1607
    1WN      WN 1512   0.293   1.342   6.007 -0.2964 -0.0853  0.1228
    1WN      WN 1513   3.992   1.283   0.821 -0.0150 -0.1672  0.3056
    1WN      WN 1514   3.219   3.543   2.927  0.0115 -0.0328  0.2334
    1WN      WN 1515   3.764   2.706   3.451 -0.2299 -0.0844 -0.0006
    1WN      WN 1516   6.284   4.118   2.181  0.3749  0.0645  0.0150
    1WN      WN 1517   4.879   1.209   0.861 -0.0974 -0.2364  0.2379
    1WN      WN 1518   2.839   4.222   1.514 -0.0283  0.2684 -0.1497
    1WN      WN 1519   0.078   2.977   2.995 -0.3022 -0.0982 -0.1529
    1WN      WN 1520   0.122   3.103   6.103  0.4066 -0.1408 -0.1005
    1WN      WN 1521   4.483   6.322   4.089  0.0647  0.4666 -0.0982
    1WN      WN 1522   2.557   3.552   6.326 -0.1157 -0.1852 -0.0610
    1WN      WN 1523   6.061   0.584   1.385 -0.0784  0.1307 -0.3121
    1WN      WN 1524   2.345   2.374   5.348  0.3020  0.4303  0.0373
    1WN      WN 1525   3.877   6.442   2.424  0.0379 -0.1412  0.1785
    1WN      WN 1526   4.977   5.699   2.514 -0.0401 -0.0636 -0.3895
    1WN      WN 1527   3.305   1.827   3.813  0.3467  0.0373 -0.0128
    1WN      WN 1528   2.624   6.081   1.996  0.0782  0.2334  0.2235
    1WN      WN 1529   3.002   2.391   1.767 -0.3030  0.3993 -0.2426
    1WN      WN 1530   3.464   0.012   3.994 -0.3076 -0.1549 -0.2127
    1WN      WN 1531   6.470   1.132   3.229  0.2180  0.3030  0.1335
    1WN      WN 1532   0.054   6.498   0.552 -0.0539 -0.4938  0.3464
    1WN      WN 1533   4.158   3.854   1.640 -0.1170 -0.2357 -0.0074
    1WN      WN 1534   0.241   1.187   5.026 -0.3338  0.0396 -0.1619
    1WN      WN 1535   1.215   3.603   3.358 -0.1083 -0.0962  0.3298
    1WN      WN 1536   0.102   3.318   2.245  0.2289  0.0141  0.1989
    1WN      WN 1537   3.046   2.485   1.278  0.1230  0.0775  0.1219
    1WN      WN 1538   1.559   0.925   0.113  0.0049 -0.1261  0.0263
    1WN      WN 1539   1.866   5.673   2.600  0.0165  0.2921 -0.1852
    1WN      WN 1540   5.093   6.525   5.281  0.0437 -0.1201  0.1423
    1WN      WN 1541   4.831   1.350   2.995 -0.3302 -0.0757  0.0479
    1WN      WN 1542   4.227   5.678   0.631 -0.1757  0.0087 -0.1677
    1WN      WN 1543   5.290   3.041   3.866 -0.3102  0.3897  0.0083
    1WN      WN 1544   4.027   1.650   0.379 -0.1086  0.3312 -0.2918
    1WN      WN 1545   3.579   4.384   0.993  0.0179  0.1673  0.1078
    1WN      WN 1546   4.795   2.864   3.990 -0.1390 -0.0274  0.1819
    1WN      WN 1547   6.210   2.451   5.948 -0.3350  0.1886  0.0298
    1WN      WN 1548   4.356   6.178   1.433 -0.1809 -0.0354 -0.0630
    1WN      WN 1549   1.969   3.540   2.655 -0.0397 -0.0437 -0.0023
    1WN      WN 1550   4.049   2.358   4.456 -0.0987 -0.3096  0.1957
    1WN      WN 1551   0.792   1.594   5.175 -0.0530  0.3257 -0.0283
    1WN      WN 1552   6.297   0.686   4.662 -0.1173  0.0545 -0.0765
    1WN      WN 1553   2.190   0.819   6.520  0.2053 -0.3353 -0.0960
    1WN      WN 1554   2.413   4.355   0.995 -0.1876 -0.0297  0.0801
    1WN      WN 1555   3.584   0.591   5.894 -0.1079 -0.2274  0.4403
    1WN      WN 1556   4.689   5.012   5.093  0.0298 -0.0118  0.0078
    1WN      WN 1557   4.284   0.044   1.145  0.0053 -0.2063 -0.0646
    1WN      WN 1558   6.183   5.269   2.034  0.0849  0.0855 -0.0370
    1WN      WN 1559   2.570   2.969   5.993 -0.4280  0.0817  0.0830
    1WN      WN 1560   4.198   4.875   2.496 -0.1122 -0.1174  0.0469
    1WN      WN 1561   2.862   2.861   3.472  0.1224 -0.1400 -0.1635
    1WN      WN 1562   5.698   1.308   3.539  0.0841  0.2070 -0.0462
    1WN      WN 1563   0.824   2.861   1.474 -0.2098  0.3100 -0.4816
    1WN      WN 1564   1.203   2.321   4.860  0.2425 -0.0700  0.2655
    1WN      WN 1565   5.897   3.548   1.120 -0.0189 -0.0086  0.2245
    1WN      WN 1566   4.571   5.698   2.755 -0.1410  0.1568 -0.4452
    1WN      WN 1567   4.912   4.201   2.717  0.0529 -0.2001  0.3088
    1WN      WN 1568   3.472   1.702   5.360  0.0296 -0.0924  0.3669
    1WN      WN 1569   6.359   0.655   6.409  0.0344 -0.1497  0.3852
    1WN      WN 1570   0.054   1.650   2.845 -0.0777  0.0161 -0.2526
    1WN      WN 1571   0.515   4.499   3.846 -0.0919 -0.1802  0.3435
    1WN      WN 1572   1.964   2.497   3.131  0.0383  0.0474  0.0395
    1WN      WN 1573   5.611   4.002   0.134 -0.3820  0.1705  0.0522
    1WN      WN 1574   4.026   3.846   5.600 -0.0266  0.2151 -0.1024
    1WN      WN 1575   5.948   6.159   4.201 -0.4160 -0.1384  0.3978
    1WN      WN 1576   6.161   2.582   2.032  0.2990  0.2512 -0.0489
    1WN      WN 1577   1.026   3.551   5.402 -0.2301  0.0705  0.0429
    1WN      WN 1578   5.093   3.822   3.167 -0.0361  0.0569 -0.0981
    1WN      WN 1579   4.010   0.210   4.971  0.0929  0.0850 -0.1644
    1WN      WN 1580   3.764   3.664   2.303 -0.1152 -0.1824  0.2536
    1WN      WN 1581   2.469   6.126   0.466  0.2967  0.1223  0.1212
    1WN      WN 1582   4.600   3.209   2.788 -0.0380 -0.1026  0.0301
    1WN      WN 1583   5.587   2.803   0.428  0.0828 -0.0953  0.0720
    1WN      WN 1584   6.038   2.124   1.090  0.0733  0.2806 -0.1794
    1WN      WN 1585   1.036   2.359   6.462  0.2368  0.2946 -0.1322
    1WN      WN 1586   5.018   1.395   2.171  0.2756  0.1264 -0.3572
    1WN      WN 1587   4.947   1.102   0.275  0.0328 -0.1626  0.5850
    1WN      WN 1588   0.304   1.920   0.918 -0.2475  0.0706  0.0454
    1WN      WN 1589   5.776   4.408   2.471  0.0960  0.0463  0.1624
    1WN      WN 1590   5.652   4.005   0.697 -0.0508 -0.0143  0.2918
    1WN      WN 1591   5.999   3.667   3.179  0.0609  0.2848  0.0372
    1WN      WN 1592   0.525   3.697   1.921 -0.1242  0.0910 -0.3634
    1WN      WN 1593   1.887   0.325   5.136  0.1064 -0.3470  0.0034
    1WN      WN 1594   4.450   2.482   5.044 -0.1127  0.0158 -0.2737
    1WN      WN 1595   3.817   5.265   0.828  0.0900 -0.1341  0.0539
    1WN      WN 1596   1.173   5.170   1.282 -0.3929  0.1533 -0.2436
    1WN      WN 1597   3.879   0.914   3.323 -0.3193  0.0497 -0.2129
    1WN      WN 1598   1.975   0.696   0.829 -0.0729 -0.1156 -0.0609
    1WN      WN 1599   1.591   6.119   2.831 -0.0757  0.1367  0.0616
    1WN      WN 1600   3.118   0.865   0.449  0.2629 -0.3173  0.0809
    1WN      WN 1601   5.751   0.162   3.873  0.2370 -0.0355  0.0421
    1WN      WN 1602   0.381   5.330   0.810 -0.3417 -0.0550 -0.1401
    1WN      WN 1603   1.523   3.454   0.290 -0.1511  0.0171 -0.0187
    1WN      WN 1604   5.898   3.525   5.170 -0.1046  0.1019  0.0435
    1WN      WN 1605   5.920   2.799   3.409 -0.3368 -0.1295 -0.5460
    1WN      WN 1606   5.470   5.189   1.930  0.0305  0.2044 -0.1682
    1WN      WN 1607   3.070   4.479   2.432 -0.3619  0.2210 -0.2375
    1WN      WN 1608   4.084   1.823   1.588  0.1193 -0.2046  0.0173
    1WN      WN 1609   3.199   3.468   0.904 -0.0604 -0.0010 -0.0272
    1WN      WN 1610   5.118   2.711   2.572 -0.0220  0.3327 -0.0010
    1WN      WN 1611   0.176   6.216   1.226  0.0306  0.2712 -0.2185
    1WN      WN 1612   0.065   0.251   4.091  0.0511  0.1177  0.0764
    1WN      WN 1613   1.246   5.387   1.743  0.1824  0.1081  0.0776
    1WN      WN 1614   3.307   1.043   5.657  0.1079 -0.0098  0.1296
    1WN      WN 1615   0.001   4.740   2.224  0.0567  0.1447 -0.0638
    1WN      WN 1616   0.675   0.512   1.911  0.1641 -0.0927 -0.2198
    1WN      WN 1617   0.915   1.754   6.339 -0.1332 -0.2088 -0.3420
    1WN      WN 1618   3.307   2.692   3.798  0.1240 -0.1383  0.0757
    1WN      WN 1619   1.675   4.523   2.232  0.1940 -0.0592  0.1305
    1WN      WN 1620   5.301   0.276   2.924  0.0397 -0.1390  0.2469
    1WN      WN 1621   0.534   3.527   5.265  0.1176  0.1240 -0.2841
    1WN      WN 1622   2.542   6.417   6.219 -0.4740 -0.3844 -0.0841
    1WN      WN 1623   4.586   3.849   2.374 -0.2943 -0.0904  0.1889
    1WN      WN 1624   5.329   1.516   0.066 -0.2362 -0.2265 -0.0626
    1WN      WN 1625   4.133   4.772   3.987 -0.2625 -0.0479 -0.1157
    1WN      WN 1626   4.053   5.353   4.540 -0.0362 -0.4354  0.1729
    1WN      WN 1627   4.921   5.527   5.947 -0.0207  0.1617 -0.0604
    1WN      WN 1628   1.248   3.832   6.538  0.0739  0.3276 -0.0853
    1WN      WN 1629   3.774   2.695   5.459  0.1215  0.1582  0.2005
    1WN      WN 1630   4.316   5.710   1.862  0.1204  0.0991 -0.0659
    1WN      WN 1631   2.995   4.944   3.930  0.3598  0.1517 -0.0128
    1WN      WN 1632   4.612   2.398   2.890  0.2095  0.1622  0.1460
    1WN      WN 1633   4.904   1.447   6.401  0.1815  0.0345  0.1084
    1WN      WN 1634   0.627   3.112   6.120 -0.0718 -0.2325 -0.3267
    1WN      WN 1635   3.582   0.291   2.267 -0.1628  0.0944  0.3134
    1WN      WN 1636   5.226   1.384   0.579 -0.4432 -0.0676 -0.0816
    1WN      WN 1637   1.965   5.064   2.358 -0.3024 -0.3713 -0.0367
    1WN      WN 1638   2.602   6.033   4.822  0.1185  0.1695  0.1599
    1WN      WN 1639   0.319   4.106   5.300  0.1327  0.2936 -0.2020
    1WN      WN 1640   4.977   5.458   4.961 -0.1952  0.1372 -0.0915
    1WN      WN 1641   6.054   1.142   6.494  0.1285 -0.1829 -0.0919
    1WN      WN 1642   4.612   3.234   5.286  0.3507  0.1010  0.1809
    1WN      WN 1643   4.809   3.156   3.592 -0.2990 -0.2503  0.0565
    1WN      WN 1644   0.393   2.608   5.438  0.2866  0.1219 -0.3225
    1WN      WN 1645   5.421   4.107   6.288  0.2307  0.4438  0.2435
    1WN      WN 1646   2.875   0.602   3.300 -0.0122 -0.0305 -0.2522
    1WN      WN 1647   3.636   0.119   0.540 -0.1194 -0.2666  0.2322
    1WN      WN 1648   4.856   3.385   1.802  0.0948 -0.4844  0.0437
    1WN      WN 1649   3.388   1.016   4.690 -0.1592  0.3222  0.0889
    1WN      WN 1650   3.487   6.163   0.281 -0.0796  0.0016 -0.0056
    1WN      WN 1651   3.796   0.011   6.158  0.0268 -0.0245  0.1853
    1WN      WN 1652   1.680   5.529   1.572 -0.0773  0.1876  0.0404
    1WN      WN 1653   1.295   1.470   5.531 -0.2459  0.1301  0.1144
    1WN      WN 1654   2.398   4.017   1.348 -0.2105 -0.1193  0.4782
    1WN      WN 1655   2.420   3.827   2.700  0.3561 -0.2977 -0.1913
    1WN      WN 1656   5.903   3.147   4.776 -0.0100  0.0937  0.1579
    1WN      WN 1657   0.265   3.219   6.556  0.1546  0.0350  0.1693
    1WN      WN 1658   0.547   4.217   1.215  0.2244  0.0470  0.0805
    1WN      WN 1659   4.233   5.816   6.288 -0.1233  0.0687 -0.1756
    1WN      WN 1660   2.345   3.053   2.661 -0.2095  0.0329  0.0684
    1WN      WN 1661   3.592   3.283   5.807 -0.1189 -0.1292 -0.1462
    1WN      WN 1662   1.970   5.245   1.841 -0.2389  0.0386 -0.0758
    1WN      WN 1663   4.311   6.481   2.650  0.0038 -0.0645 -0.0861
    1WN      WN 1664   4.869   0.753   4.235  0.1544 -0.0329  0.1229
    1WN      WN 1665   3.073   3.354   6.084  0.0715  0.0071 -0.0777
    1WN      WN 1666   3.407   5.174   5.786  0.1112  0.0565  0.0338
    1WN      WN 1667   5.035   3.710   2.570  0.0229  0.0799 -0.1715
    1WN      WN 1668   3.158   1.942   1.880  0.1212 -0.0187 -0.0091
    1WN      WN 1669   1.033   4.579   3.545  0.0587  0.4451 -0.1638
    1WN      WN 1670   6.014   4.401   3.508  0.1000  0.0111  0.0954
    1WN      WN 1671   0.467   4.764   2.617 -0.1413  0.1651 -0.0407
    1WN      WN 1672   4.034   3.019   1.931  0.1579  0.2213  0.4444
    1WN      WN 1673   2.015   5.639   3.226  0.0002 -0.0227  0.5073
    1WN      WN 1674   5.834   5.385   1.640  0.1769 -0.2654 -0.0625
    1WN      WN 1675   5.746   2.542   5.972 -0.2532  0.0574 -0.0978
    1WN      WN 1676   4.601   4.580   0.975  0.1573  0.0771  0.0732
    1WN      WN 1677   4.134   4.039   2.121 -0.0375 -0.0397  0.0355
    1WN      WN 1678   1.958   0.788   4.859 -0.2025  0.2008 -0.0947
    1WN      WN 1679   5.797   4.786   1.746  0.3405  0.0558  0.1428
    1WN      WN 1680   5.118   0.363   5.568 -0.2054  0.2351  0.0123
    1WN      WN 1681   1.457   4.626   3.243  0.3448 -0.1275  0.0033
    1WN      WN 1682   4.685   4.878   2.340 -0.0961 -0.2058  0.0807
    1WN      WN 1683   2.508   0.958   4.617 -0.1633  0.1465  0.0079
    1WN      WN 1684   5.186   3.046   5.285 -0.1124 -0.0233 -0.3042
    1WN      WN 1685   3.283   4.040   4.039  0.1001 -0.0148 -0.1872
    1WN      WN 1686   3.174   0.318   3.607  0.3271  0.1518 -0.1873
    1WN      WN 1687   6.368   2.087   4.156 -0.3805 -0.0051 -0.2096
    1WN      WN 1688   3.672   3.448   2.752  0.1393  0.2356  0.0629
    1WN      WN 1689   2.352   0.005   0.672  0.2064  0.0575 -0.0366
    1WN      WN 1690   2.260   3.577   2.245  0.1527 -0.0495 -0.0272
    1WN      WN 1691   3.228   6.090   4.823  0.1936 -0.2595  0.1108
    1WN      WN 1692   5.901   6.039   3.227 -0.0130  0.0243 -0.0462
    1WN      WN 1693   6.346   3.875   3.538  0.0325  0.0677 -0.0133
    1WN      WN 1694   4.436   1.490   1.747  0.0513 -0.4327  0.1459
    1WN      WN 1695   3.064   4.293   1.098  0.2237 -0.0093 -0.4009
    1WN      WN 1696   3.869   1.719   3.659 -0.0716  0.0296 -0.2016
    1WN      WN 1697   3.016   5.802   6.064  0.1427  0.3493  0.3904
    1WN      WN 1698   4.833   4.543   5.876  0.2399 -0.0701 -0.3640
    1WN      WN 1699   2.608   0.403   2.497  0.2638 -0.0799 -0.2763
    1WN      WN 1700   5.249   3.422   4.930 -0.0357  0.0200  0.1062
    1WN      WN 1701   5.557   5.968   1.256 -0.0506 -0.0889 -0.0927
    1WN      WN 1702   0.074   5.992   0.820 -0.1164  0.3027 -0.1656
    1WN      WN 1703   4.554   0.349   0.776  0.1335  0.5495  0.1532
    1WN      WN 1704   5.096   0.952   2.802 -0.0039  0.0313 -0.2305
    1WN      WN 1705   0.816   2.248   4.346 -0.1875  0.1517  0.0006
    1WN      WN 1706   3.634   5.733   2.140  0.1606  0.3340 -0.1000
    1WN      WN 1707   1.077   2.775   3.052  0.0378 -0.2241 -0.1222
    1WN      WN 1708   5.039   5.308   1.592  0.0785  0.1157 -0.2406
    1WN      WN 1709   0.720   2.422   1.207 -0.0987 -0.2299  0.1437
    1WN      WN 1710   5.661   3.583   4.758 -0.0837  0.2020  0.4936
    1WN      WN 1711   3.751   3.609   3.986  0.0981 -0.2346 -0.3875
    1WN      WN 1712   3.032   4.810   0.363 -0.0966  0.2039  0.0223
    1WN      WN 1713   4.085   5.872   2.361  0.2484 -0.0911  0.0220
    1WN      WN 1714   4.833   2.968   0.462  0.0791  0.1314  0.1497
    1WN      WN 1715   2.439   4.766   1.401 -0.0506  0.2755  0.0033
    1WN      WN 1716   4.894   0.656   5.144 -0.1578  0.0366  0.3830
    1WN      WN 1717   6.263   1.054   5.028  0.0829  0.1378  0.1514
    1WN      WN 1718   1.376   4.581   1.875  0.0252 -0.2567 -0.0153
    1WN      WN 1719   2.641   4.820   0.754 -0.1623 -0.0882 -0.3236
    1WN      WN 1720   5.479   4.874   4.430  0.0953  0.2061  0.0977
    1WN      WN 1721   5.457   5.384   0.499  0.2552 -0.2898  0.1398
    1WN      WN 1722   4.211   1.694   3.287  0.0471  0.2045  0.0243
    1WN      WN 1723   3.280   2.024   1.046 -0.0393 -0.0914  0.0648
    1WN      WN 1724   0.410   0.186   0.075 -0.0846  0.0471 -0.1539
    1WN      WN 1725   0.462   6.270   0.315 -0.0054 -0.0731  0.0105
    1WN      WN 1726   6.546   1.854   0.511 -0.2779 -0.1068 -0.0849
    1WN      WN 1727   3.582   5.464   3.173  0.0437 -0.0128 -0.2190
    1WN      WN 1728   2.638   3.119   4.241 -0.1039 -0.1585 -0.1904
    1WN      WN 1729   4.640   3.787   3.429 -0.1139  0.0700  0.1637
    1WN      WN 1730   4.727   4.719   3.328 -0.0583 -0.0345 -0.0129
    1WN      WN 1731   2.736   4.489   1.996  0.1331 -0.3414 -0.1008
    1WN      WN 1732   1.741   4.719   2.746 -0.1515  0.1530 -0.4573
    1WN      WN 1733   1.250   1.709   5.934 -0.0410  0.0294  0.1943
    1WN      WN 1734   0.151   5.912   2.773 -0.1343  0.0605 -0.1557
    1WN      WN 1735   5.227   1.445   2.625  0.0769 -0.1214 -0.3354
    1WN      WN 1736   0.238   2.234   4.527  0.1757 -0.1714  0.0696
    1WN      WN 1737   6.230   2.947   4.102  0.1600 -0.0431 -0.1440
    1WN      WN 1738   4.764   0.504   0.294 -0.0043 -0.0952  0.1524
    1WN      WN 1739   3.409   3.898   2.616 -0.1312  0.2656 -0.0178
    1WN      WN 1740   5.091   2.168   0.166 -0.0544 -0.1261 -0.1618
    1WN      WN 1741   4.859   1.238   1.387 -0.2315  0.0761  0.1628
    1WN      WN 1742   5.445   2.930   4.808  0.1133 -0.1851 -0.1002
    1WN      WN 1743   3.326   5.932   5.245 -0.1634 -0.0963 -0.0625
    1WN      WN 1744   3.829   3.564   4.472 -0.4023  0.0152  0.0171
    1WN      WN 1745   2.767   3.607   5.255  0.0720 -0.1419  0.0061
    1WN      WN 1746   6.420   1.583   5.127 -0.0329  0.2114  0.0076
    1WN      WN 1747   5.981   1.174   0.627 -0.3352 -0.0080  0.1865
    1WN      WN 1748   4.466   6.333   6.370  0.3467 -0.1756  0.0940
    1WN      WN 1749   5.383   1.925   3.704  0.1246 -0.1191  0.1061
    1WN      WN 1750   4.078   5.363   5.463 -0.1694 -0.2585  0.3348
    1WN      WN 1751   0.595   4.852   0.398  0.0906 -0.1025  0.2659
    1WN      WN 1752   4.311   4.469   3.488  0.2030 -0.1051  0.0678
    1WN      WN 1753   3.170   4.484   6.374 -0.2256 -0.2802  0.2061
    1WN      WN 1754   0.614   5.079   4.546 -0.0406  0.0343  0.1093
    1WN      WN 1755   4.860   3.710   5.136  0.0531 -0.5077 -0.1180
    1WN      WN 1756   5.988   0.262   4.918  0.0238  0.1964  0.0358
    1WN      WN 1757   1.068   4.428   2.928 -0.1928 -0.1261 -0.2528
    1WN      WN 1758   4.195   4.174   5.254  0.2069  0.2174  0.0191
    1WN      WN 1759   0.014   6.555   1.955 -0.2333 -0.0715  0.1705
    1WN      WN 1760   5.403   4.012   4.584  0.1273  0.0999 -0.2954
    1WN      WN 1761   4.502   0.209   5.205  0.2710 -0.1595 -0.1873
    1WN      WN 1762   5.468   3.451   4.333 -0.0441 -0.5171 -0.0644
    1WN      WN 1763   3.073   1.261   3.722 -0.0508  0.3399  0.1593
    1WN      WN 1764   4.036   6.419   5.443 -0.0695  0.0957  0.3082
    1WN      WN 1765   3.795   4.786   1.154  0.0936 -0.1033  0.0523
    1WN      WN 1766   5.080   5.957   1.245  0.1730  0.1974  0.0030
    1WN      WN 1767   0.653   3.639   4.031 -0.2122 -0.0313 -0.0117
    1WN      WN 1768   0.014   1.923   1.476  0.1369  0.0661  0.2594
    1WN      WN 1769   4.528   2.117   1.669  0.1893  0.0451 -0.2369
    1WN      WN 1770   1.694   2.587   6.228 -0.0859  0.0500 -0.0856
    1WN      WN 1771   4.065   0.540   6.064  0.0472 -0.3307  0.0427
    1WN      WN 1772   6.536   4.338   5.646  0.1816  0.0747  0.1136
    1WN      WN 1773   1.043   2.559   2.365 -0.1046 -0.0600  0.1469
    1WN      WN 1774   3.259   0.419   0.317  0.1258  0.0838  0.1166
    1WN      WN 1775   5.089   6.018   5.894 -0.0717 -0.3031  0.1108
    1WN      WN 1776   2.028   6.393   1.773 -0.0202 -0.0665 -0.2579
    1WN      WN 1777   6.352   5.985   5.544 -0.1042 -0.0129  0.2747
    1WN      WN 1778   3.984   1.961   4.139 -0.0526 -0.0335  0.2965
    1WN      WN 1779   4.066   1.700   4.514  0.0707  0.0923 -0.1029
    1WN      WN 1780   4.589   4.023   0.767 -0.1213  0.4056  0.0135
    1WN      WN 1781   2.048   2.395   1.457 -0.3069 -0.1229  0.2701
    1WN      WN 1782   2.843   5.649   1.337 -0.2340 -0.3323 -0.3819
    1WN      WN 1783   0.038   2.644   6.376  0.0413 -0.0795 -0.0079
    1WN      WN 1784   3.883   4.903   2.094 -0.0221 -0.2026 -0.3525
    1WN      WN 1785   6.319   5.115   5.017 -0.1324  0.2706  0.2396
    1WN      WN 1786   2.305   5.556   1.264 -0.1219 -0.0179 -0.0944
    1WN      WN 1787   6.389   4.322   2.681  0.0990  0.0192  0.2014
    1WN      WN 1788   2.994   1.685   4.198  0.0271  0.2153 -0.3682
    1WN      WN 1789   5.422   4.894   5.743  0.4647  0.0467  0.1168
    1WN      WN 1790   4.830   4.327   1.291  0.0249 -0.2019  0.2006
    1WN      WN 1791   2.097   4.884   0.947  0.1141 -0.1447 -0.1405
    1WN      WN 1792   4.702   6.524   5.621  0.2967  0.4019 -0.2271
    1WN      WN 1793   4.814   0.024   3.668 -0.0136  0.1725  0.4227
    1WN      WN 1794   0.944   2.757   0.916  0.3171 -0.0378 -0.0120
    1WN      WN 1795   0.288   6.093   2.343  0.0417  0.1027 -0.0068
    1WN      WN 1796   3.675   4.033   4.324 -0.1037  0.1673  0.1796
    1WN      WN 1797   4.636   2.226   5.589 -0.0883 -0.0796  0.1764
    1WN      WN 1798   3.594   1.730   0.654 -0.2764 -0.2191 -0.2918
    1WN      WN 1799   2.498   1.857   5.208  0.0010 -0.1235 -0.6144
    1WN      WN 1800   1.151   5.240   4.556 -0.1247  0.0568 -0.1000
    1WN      WN 1801   3.678   3.573   5.255  0.4557 -0.0029  0.3266
    1WN      WN 1802   4.085   3.535   3.611 -0.4659  0.0043  0.0823
    1WN      WN 1803   1.840   3.448   4.058  0.2322  0.4370  0.0586
    1WN      WN 1804   5.767   0.290   1.691  0.1191  0.1128 -0.1139
    1WN      WN 1805   6.332   0.047   3.176  0.0401 -0.0624 -0.3053
    1WN      WN 1806   0.376   4.226   1.900 -0.1857 -0.0888 -0.0590
    1WN      WN 1807   1.685   1.761   5.460 -0.1942 -0.1524  0.0859
    1WN      WN 1808   0.851   4.390   0.691  0.2445  0.1058  0.0558
    1WN      WN 1809   1.501   0.323   2.358  0.1951 -0.2342  0.4402
    1WN      WN 1810   3.453   0.001   4.597 -0.1403  0.4218 -0.0173
    1WN      WN 1811   4.078   5.870   4.511  0.1996 -0.0394  0.2089
    1WN      WN 1812   6.489   2.047   5.025 -0.1114 -0.0680 -0.2465
    1WN      WN 1813   1.804   0.873   5.340  0.1329  0.1235  0.1214
    1WN      WN 1814   3.089   0.364   2.725 -0.0298 -0.1419  0.0306
    1WN      WN 1815   1.467   5.073   2.049 -0.1221 -0.0428 -0.4256
    1WN      WN 1816   5.135   6.538   2.415 -0.0333  0.4204 -0.1454
    1WN      WN 1817   4.276   0.600   3.898 -0.0611  0.1900 -0.1789
    1WN      WN 1818   4.976   1.924   5.874 -0.2532 -0.1916 -0.0786
    1WN      WN 1819   0.553   2.162   6.422 -0.2287  0.4405 -0.0391
    1WN      WN 1820   3.979   5.363   2.009  0.0262  0.1678  0.1236
    1WN      WN 1821   0.632   3.513   3.563 -0.3157 -0.1122  0.0717
    1WN      WN 1822   2.769   0.407   5.244 -0.2758  0.0204 -0.1431
    1WN      WN 1823   5.369   2.774   1.712  0.0277 -0.0419 -0.1615
    1WN      WN 1824   4.450   2.884   4.728 -0.1635  0.1167 -0.0433
    1WN      WN 1825   6.041   2.235   6.399  0.0224 -0.1335  0.2961
    1WN      WN 1826   0.216   3.529   5.752  0.1115  0.1137  0.2406
    1WN      WN 1827   5.882   3.919   3.575 -0.1255 -0.2632 -0.4755
    1WN      WN 1828   4.126   5.282   6.050 -0.2237  0.0351 -0.2288
    1WN      WN 1829   1.056   3.472   2.441  0.1984  0.0183 -0.1322
    1WN      WN 1830   4.302   3.386   4.682 -0.3654 -0.2746  0.2695
    1WN      WN 1831   0.581   2.775   2.942  0.3170  0.0497  0.1050
    1WN      WN 1832   4.575   6.181   3.039  0.1824 -0.0687 -0.1254
    1WN      WN 1833   5.045   3.429   4.020 -0.1118  0.0261  0.4114
    1WN      WN 1834   5.416   3.613   0.871  0.2241 -0.1125 -0.0412
    1WN      WN 1835   4.591   1.031   5.291  0.1647 -0.0439 -0.5926
    1WN      WN 1836   2.450   3.192   3.392 -0.2830 -0.0860  0.3659
    1WN      WN 1837   0.681   0.829   0.026 -0.1336 -0.0132  0.1922
    1WN      WN 1838   6.301   3.191   6.459  0.1622  0.0755  0.0702
    1WN      WN 1839   4.928   6.423   6.292  0.3267  0.1281 -0.1995
    1WN      WN 1840   6.337   3.853   1.094 -0.0523  0.1426  0.0492
    1WN      WN 1841   3.156   0.731   5.238 -0.2413 -0.3310  0.1759
    1WN      WN 1842   3.777   4.155   1.358  0.2511  0.1314 -0.2205
    1WN      WN 1843   5.319   1.414   5.514 -0.1064  0.1254  0.1476
    1WN      WN 1844   3.586   1.179   1.684  0.0289  0.2670  0.1731
    1WN      WN 1845   5.005   5.337   0.544  0.0107  0.0715 -0.3479
    1WN      WN 1846   2.863   6.196   3.861 -0.0069  0.1111 -0.0392
    1WN      WN 1847   2.032   1.180   4.580 -0.3991 -0.3140  0.0094
    1WN      WN 1848   1.034   0.638   5.292  0.1258 -0.1344  0.2788
    1WN      WN 1849   5.122   3.962   5.470  0.0972 -0.1352 -0.1902
    1WN      WN 1850   3.800   4.297   3.949  0.0576 -0.3587  0.6053
    1WN      WN 1851   0.061   0.780   5.305  0.0928  0.2081  0.0586
    1WN      WN 1852   1.554   4.078   5.984  0.1323 -0.1795 -0.0442
    1WN      WN 1853   4.402   2.789   5.556  0.1969  0.0375 -0.1340
    1WN      WN 1854   4.480   3.545   3.872 -0.1480  0.1878  0.0563
    1WN      WN 1855   4.373   0.117   6.001 -0.0788 -0.0145  0.4134
    1WN      WN 1856   3.949   4.328   4.792 -0.0311 -0.0496  0.2781
    1WN      WN 1857   3.390   4.737   5.578 -0.0319  0.1821  0.0353
    1WN      WN 1858   5.800   3.516   1.611 -0.1824  0.3228  0.0174
    1WN      WN 1859   5.053   0.519   3.253 -0.1936 -0.0631 -0.0683
    1WN      WN 1860   3.300   5.675   5.691 -0.0038 -0.1043  0.0703
    1WN      WN 1861   2.123   3.247   4.827  0.1660 -0.1765  0.0326
    1WN      WN 1862   4.120   2.783   1.129 -0.0125  0.2125 -0.0453
    1WN      WN 1863   2.444   3.114   2.091 -0.2410 -0.0695 -0.1410
    1WN      WN 1864   5.643   0.248   0.175 -0.0663 -0.0363  0.0209
    1WN      WN 1865   0.862   6.138   2.399 -0.4517  0.0801  0.0871
    1WN      WN 1866   0.835   2.551   0.456 -0.0993 -0.2495  0.3146
    1WN      WN 1867   5.984   0.455   0.792  0.0989 -0.2615  0.0048
    1WN      WN 1868   1.682   6.226   1.439 -0.0876 -0.1365 -0.1066
    1WN      WN 1869   1.755   6.472   3.212  0.0617  0.0400 -0.2044
    1WN      WN 1870   2.098   2.655   4.690 -0.1543 -0.1969  0.1205
    1WN      WN 1871   5.288   2.426   2.145 -0.3207 -0.2113 -0.0424
    1WN      WN 1872   1.362   0.803   0.799 -0.2858 -0.1209 -0.1591
    1WN      WN 1873   5.330   0.939   4.358  0.0519  0.3023 -0.2609
    1WN      WN 1874   6.145   5.000   4.524 -0.5188 -0.1726  0.0564
    1WN      WN 1875   3.534   0.476   4.356  0.0007 -0.2392  0.1130
    1WN      WN 1876   5.214   1.891   6.325  0.0474 -0.2078  0.0464
    1WN      WN 1877   3.221   4.776   2.834  0.1844 -0.2739 -0.3168
    1WN      WN 1878   3.527   2.155   1.500  0.1539  0.1000  0.1301
    1WN      WN 1879   6.379   5.454   4.679  0.4008 -0.1239  0.2365
    1WN      WN 1880   1.989   4.046   2.752 -0.0432 -0.0182 -0.1496
    1WN      WN 1881   0.517   1.981   3.066 -0.0725 -0.2816 -0.2468
    1WN      WN 1882   0.281   2.354   0.688 -0.2694  0.0661 -0.0200
    1WN      WN 1883   2.899   3.363   3.450  0.0509  0.0449  0.2070
    1WN      WN 1884   5.748   5.142   3.043 -0.1301  0.1359  0.0069
    1WN      WN 1885   4.326   0.997   4.249 -0.0285  0.2691  0.0007
    1WN      WN 1886   1.973   2.975   2.272  0.1634 -0.0297  0.2145
    1WN      WN 1887   3.078   1.600   1.568  0.0439 -0.1441 -0.2593
    1WN      WN 1888   5.543   1.499   6.111 -0.1714 -0.1777  0.3020
    1WN      WN 1889   6.069   5.429   6.446  0.3711 -0.0187  0.2596
    1WN      WN 1890   4.738   5.136   2.806 -0.2390 -0.0482  0.1677
    1WN      WN 1891   1.278   1.299   0.427  0.0991 -0.1818 -0.1430
    1WN      WN 1892   0.592   1.656   2.490  0.3321  0.0675  0.0459
    1WN      WN 1893   2.740   2.693   0.856 -0.2644  0.0920  0.2552
    1WN      WN 1894   2.560   0.942   1.614 -0.0342 -0.3411 -0.0855
    1WN      WN 1895   4.914   6.062   0.177  0.2031  0.0630 -0.2513
    1WN      WN 1896   5.826   0.890   1.076 -0.0731  0.0578  0.1879
    1WN      WN 1897   6.193   3.171   1.224 -0.2175  0.0186 -0.0733
    1WN      WN 1898   5.591   2.272   1.362 -0.0624  0.4819 -0.0429
    1WN      WN 1899   4.378   6.105   0.258  0.0861 -0.0922 -0.1054
    1WN      WN 1900   3.442   0.409   1.236 -0.3578 -0.3302  0.1642
    1WN      WN 1901   5.817   2.727   1.459  0.0007  0.1064  0.4160
    1WN      WN 1902   2.280   6.247   5.146 -0.2064  0.0303 -0.1659
    1WN      WN 1903   1.120   3.729   1.969 -0.0056 -0.1269 -0.0324
    1WN      WN 1904   5.980   3.470   4.342 -0.2010  0.1614 -0.2731
    1WN      WN 1905   1.352   1.012   5.293 -0.0359 -0.0590 -0.0433
    1WN      WN 1906   5.249   6.204   1.741  0.3899  0.1036  0.0817
    1WN      WN 1907   6.386   2.718   0.777  0.1437  0.1590 -0.0676
    1WN      WN 1908   0.912   3.204   5.009 -0.1940 -0.0983  0.0544
    1WN      WN 1909   2.950   1.984   5.357  0.0906 -0.1568  0.0521
    1WN      WN 1910   3.274   2.091   2.810 -0.0519  0.0888 -0.0033
    1WN      WN 1911   1.578   5.655   2.093  0.0500 -0.2305 -0.0300
    1WN      WN 1912   6.254   3.606   4.781  0.1805  0.1391  0.0892
    1WN      WN 1913   5.318   3.179   0.231 -0.3379 -0.1581  0.1666
    1WN      WN 1914   4.559   2.572   1.386  0.0741  0.1025  0.1275
    1WN      WN 1915   5.940   0.917   3.222 -0.5246  0.1583  0.1913
    1WN      WN 1916   2.835   1.097   5.215  0.2918 -0.1654 -0.2167
    1WN      WN 1917   4.787   4.714   0.082 -0.3809 -0.1568 -0.1640
    1WN      WN 1918   4.601   3.658   4.333 -0.0017  0.1633  0.3203
    1WN      WN 1919   3.155   3.021   6.540 -0.1080  0.0744 -0.0954
    1WN      WN 1920   3.332   0.888   2.008 -0.1815 -0.4883 -0.3483
    1WN      WN 1921   4.451   3.047   2.290  0.3964 -0.1161  0.2551
    1WN      WN 1922   5.457   1.019   6.128 -0.2648 -0.2080 -0.1991
    1WN      WN 1923   3.804   6.089   6.343 -0.0107  0.0831 -0.3552
    1WN      WN 1924   4.067   5.339   3.408  0.0747 -0.0240 -0.1575
    1WN      WN 1925   5.787   3.094   3.791  0.2493 -0.0432  0.1475
    1WN      WN 1926   3.474   5.969   3.311  0.2328 -0.0434 -0.0803
    1WN      WN 1927   4.240   4.051   0.050  0.1891  0.0944  0.0936
    1WN      WN 1928   2.035   3.548   3.575 -0.0901  0.0422  0.3100
    1WN      WN 1929   5.963   3.566   6.531 -0.2790 -0.0512  0.0553
    1WN      WN 1930   5.343   5.727   1.642 -0.1455  0.3020  0.2496
    1WN      WN 1931   2.783   5.424   2.674 -0.1898  0.2415  0.2574
    1WN      WN 1932   1.636   3.354   2.265  0.1179  0.0571  0.0246
    1WN      WN 1933   6.421   4.762   3.549 -0.1583  0.0395 -0.1939
    1WN      WN 1934   0.823   4.006   0.052  0.2120  0.0930  0.2279
    1WN      WN 1935   2.293   6.125   5.653  0.0731 -0.1840 -0.2084
    1WN      WN 1936   1.272   6.473   2.939 -0.1847 -0.0870 -0.0159
    1WN      WN 1937   4.370   2.649   1.953 -0.2213 -0.2725 -0.3626
    1WN      WN 1938   3.006   4.703   3.347  0.1161 -0.1233  0.0380
    1WN      WN 1939   4.942   5.554   3.548  0.0661  0.1558 -0.1781
    1WN      WN 1940   3.198   5.546   5.004  0.0843  0.3251  0.0681
    1WN      WN 1941   3.817   3.055   3.784 -0.1108 -0.0424  0.0171
    1WN      WN 1942   2.820   0.213   0.703 -0.0842  0.0316 -0.0015
    1WN      WN 1943   5.849   3.404   2.108 -0.2757  0.4243  0.1218
    1WN      WN 1944   5.588   4.501   0.903  0.0333 -0.1666 -0.2840
    1WN      WN 1945   4.089   3.528   5.967 -0.1159 -0.0746  0.3244
    1WN      WN 1946   2.454   4.661   3.245 -0.0541 -0.2573  0.0659
    1WN      WN 1947   0.350   6.265   1.802  0.0984  0.2155  0.1040
    1WN      WN 1948   5.886   5.573   1.182  0.1677  0.0884 -0.3720
    1WN      WN 1949   5.121   4.598   2.379 -0.0966  0.1683  0.1270
    1WN      WN 1950   1.180   0.426   1.025  0.0278  0.3324 -0.0436
    1WN      WN 1951   2.036   4.070   2.168 -0.0369 -0.1104  0.2876
    1WN      WN 1952   4.962   3.854   6.425  0.1579 -0.1056 -0.2366
    1WN      WN 1953   5.597   1.259   1.987  0.2117 -0.2124  0.0417
    1WN      WN 1954   5.440   2.266   5.665 -0.2628 -0.2270  0.0923
    1WN      WN 1955   1.527   3.832   2.466 -0.0134 -0.0593 -0.1054
    1WN      WN 1956   1.554   2.256   0.227  0.0029  0.2547  0.3225
    1WN      WN 1957   2.965   5.711   1.925 -0.0721 -0.1193 -0.0870
    1WN      WN 1958   4.592   5.126   0.321 -0.1214 -0.1133 -0.2133
    1WN      WN 1959   0.344   1.036   5.656 -0.0670  0.1323 -0.2363
    1WN      WN 1960   1.110   0.197   2.030 -0.1988  0.0023 -0.0247
    1WN      WN 1961   0.119   3.388   3.805  0.4424  0.1502 -0.1431
    1WN      WN 1962   5.280   5.005   0.910  0.1852 -0.1006  0.0391
    1WN      WN 1963   0.880   1.154   5.424  0.0149 -0.3479  0.2506
    1WN      WN 1964   2.458   1.438   4.464  0.1992  0.0177  0.0988
    1WN      WN 1965   4.847   2.836   1.930 -0.0695  0.0405 -0.3943
    1WN      WN 1966   4.904   0.885   4.709  0.1227  0.0584 -0.2649
    1WN      WN 1967   1.254   3.210   4.634 -0.0887  0.1781  0.1751
    1WN      WN 1968   3.047   3.236   4.537 -0.1658 -0.3011  0.0903
    1WN      WN 1969   3.850   3.894   6.162  0.3069 -0.2270 -0.0573
    1WN      WN 1970   0.700   4.663   6.002 -0.0487 -0.1155 -0.1301
    1WN      WN 1971   1.364   5.856   2.485  0.2450  0.1944  0.0249
    1WN      WN 1972   4.562   5.307   4.720  0.1548 -0.0416  0.2892
    1WN      WN 1973   4.679   0.253   3.155 -0.0240  0.2022  0.2729
    1WN      WN 1974   1.690   4.578   5.256  0.1191 -0.2715  0.3194
    1WN      WN 1975   0.555   5.723   2.030  0.2558  0.1174 -0.1188
    1WN      WN 1976   0.737   4.989   6.464  0.0550  0.2392  0.0810
    1WN      WN 1977   1.119   3.606   1.414  0.2741  0.1076  0.1163
    1WN      WN 1978   6.028   2.304   5.095 -0.0913 -0.1678 -0.0058
    1WN      WN 1979   1.063   6.414   0.856  0.2055 -0.2760 -0.2314
    1WN      WN 1980   4.389   3.172   0.309  0.1112 -0.0667  0.2546
    1WN      WN 1981   2.914   3.335   1.335 -0.0346 -0.0927 -0.2229
    1WN      WN 1982   4.012   2.356   1.694  0.2216 -0.0677  0.1050
    1WN      WN 1983   1.985   0.428   3.005 -0.0816 -0.1195  0.1615
    1WN      WN 1984   2.190   3.252   5.858 -0.1812 -0.2854 -0.1155
    1WN      WN 1985   1.488   0.598   4.986 -0.0475  0.0065 -0.1546
    1WN      WN 1986   3.982   4.485   2.301  0.2945 -0.2171  0.1881
    1WN      WN 1987   2.402   2.293   4.834  0.0387  0.1828  0.0467
    1WN      WN 1988   6.415   5.941   4.022 -0.2818 -0.1512  0.0007
    1WN      WN 1989   1.714   3.473   3.188 -0.3765  0.5931 -0.0897
    1WN      WN 1990   0.451   3.236   2.789 -0.0064 -0.2019 -0.1909
    1WN      WN 1991   3.578   4.406   2.720  0.3775 -0.0457 -0.2769
    1WN      WN 1992   4.345   0.252   6.468  0.0162  0.1964 -0.1035
    1WN      WN 1993   2.209   4.229   4.610  0.4262  0.2710  0.0688
    1WN      WN 1994   4.230   0.872   4.707  0.0885  0.1670 -0.2385
    1WN      WN 1995   5.463   4.613   2.787  0.0682  0.2720  0.4678
    1WN      WN 1996   1.160   5.834   5.649 -0.1368  0.0113  0.1769
    1WN      WN 1997   3.538   3.818   5.706 -0.0663  0.0329  0.2824
    1WN      WN 1998   3.667   5.567   5.282  0.3078 -0.0415 -0.1726
    1WN      WN 1999   2.806   3.864   1.121 -0.0353  0.2796 -0.0205
    1WN      WN 2000   3.988   1.360   2.521  0.1257  0.0464  0.1765
    1WN      WN 2001   4.555   3.100   1.576  0.0579  0.4641 -0.2723
    1WN      WN 2002   3.974   6.319   4.796 -0.0017  0.0253 -0.1084
    1WN      WN 2003   4.404   4.982   3.571  0.0411  0.1640 -0.0311
    1WN      WN 2004   3.741   3.658   1.387 -0.0209 -0.1762  0.0911
    1WN      WN 2005   5.874   4.251   2.996  0.1737  0.2016 -0.0134
    1WN      WN 2006   3.629   5.142   1.744  0.2209 -0.2026  0.2741
    1WN      WN 2007   0.130   4.269   3.609 -0.0361 -0.0150  0.2185
    1WN      WN 2008   5.808   3.098   0.078 -0.3413 -0.5085  0.1206
    1WN      WN 2009   3.138   6.008   4.302 -0.0794  0.1420  0.1425
    1WN      WN 2010   5.539   0.006   2.067  0.0146 -0.0919 -0.0701
    1WN      WN 2011   1.053   5.571   0.538 -0.1226  0.2448 -0.0933
    1WN      WN 2012   3.939   0.927   1.503  0.1517 -0.3514  0.0935
    1WN      WN 2013   6.538   2.954   0.311 -0.0582  0.0565  0.0158
    1WN      WN 2014   1.274   3.112   4.049  0.1860  0.3471 -0.0970
    1WN      WN 2015   2.662   3.337   5.686  0.3028 -0.2012 -0.1617
    1WN      WN 2016   5.441   2.137   2.531 -0.1267 -0.0266  0.2174
    1WN      WN 2017   4.430   0.953   1.557 -0.1351 -0.1744  0.2180
    1WN      WN 2018   5.607   0.105   4.369 -0.0395 -0.0553 -0.3613
    1WN      WN 2019   1.697   2.996   5.909 -0.0381 -0.1183 -0.0070
    1WN      WN 2020   4.703   2.168   1.090  0.0405 -0.1254 -0.0474
    1WN      WN 2021   2.817   4.208   3.389  0.0882  0.0905 -0.0929
    1WN      WN 2022   2.748   4.465   2.887 -0.0220  0.0364 -0.1872
    1WN      WN 2023   5.184   4.280   0.132 -0.1328  0.1394  0.0008
    1WN      WN 2024   0.766   2.431   3.355 -0.0929  0.4036 -0.1288
    1WN      WN 2025   1.401   4.358   6.383 -0.0489  0.0395 -0.3748
    1WN      WN 2026   6.236   1.959   2.472 -0.1692 -0.0192 -0.1312
    1WN      WN 2027   1.892   0.101   0.609 -0.2148 -0.2989  0.0300
    1WN      WN 2028   5.181   0.479   2.385 -0.0262 -0.2209 -0.0533
    1WN      WN 2029   2.586   1.719   1.726 -0.0123 -0.0570  0.0738
    1WN      WN 2030   4.239   4.292   5.918 -0.0936 -0.2213  0.3039
    1WN      WN 2031   0.117   2.914   3.838  0.1283  0.0300 -0.1544
    1WN      WN 2032   5.656   1.087   3.993  0.2670 -0.0182  0.1653
    1WN      WN 2033   6.123   2.347   3.411  0.0656 -0.0362 -0.0692
    1WN      WN 2034   1.362   6.398   2.319 -0.0205 -0.0051 -0.1467
    1WN      WN 2035   2.644   3.230   4.811  0.2611  0.1255  0.2532
    1WN      WN 2036   4.801   2.809   3.168  0.0793 -0.0835  0.1372
    1WN      WN 2037   1.061   3.195   1.193 -0.0552  0.2344  0.0091
    1WN      WN 2038   3.273   2.624   2.249 -0.0298  0.2306  0.0745
    1WN      WN 2039   1.913   2.217   5.104 -0.0764 -0.2805 -0.4019
    1WN      WN 2040   1.095   0.637   3.478 -0.2040 -0.0878 -0.1043
    1WN      WN 2041   2.092   4.117   0.233  0.0218  0.1189 -0.1862
    1WN      WN 2042   0.830   3.113   4.402 -0.0382 -0.0016  0.2774
    1WN      WN 2043   3.622   1.170   3.873  0.1834 -0.2795  0.3075
    1WN      WN 2044   3.945   2.010   5.029  0.1750  0.1611 -0.3617
    1WN      WN 2045   4.065   0.198   1.984  0.0221 -0.0077 -0.1671
    1WN      WN 2046   4.082   3.300   4.119  0.0597 -0.1561  0.0046
    1WN      WN 2047   3.370   6.058   2.521  0.0192 -0.0246 -0.5118
    1WN      WN 2048   0.714   1.525   0.565 -0.1816 -0.2613  0.1031
    1WN      WN 2049   0.914   1.280   0.067 -0.1444  0.1677 -0.2271
    1WN      WN 2050   2.304   5.204   5.529 -0.0415 -0.4999 -0.0866
    1WN      WN 2051   3.685   3.299   4.837 -0.2322  0.0564 -0.1111
    1WN      WN 2052   2.463   1.703   0.996  0.0551  0.4183 -0.0389
    1WN      WN 2053   3.314   5.340   2.760  0.0371  0.1585 -0.1521
    1WN      WN 2054   0.272   3.886   1.019  0.2857 -0.0161 -0.1167
    1WN      WN 2055   3.331   4.607   1.371 -0.2954  0.0292 -0.2716
    1WN      WN 2056   6.099   4.713   0.947  0.3711  0.0227  0.1793
    1WN      WN 2057   5.211   6.356   0.491 -0.0480  0.2049  0.2569
    1WN      WN 2058   0.529   4.049   6.153 -0.1100  0.0119  0.1619
    1WN      WN 2059   6.547   1.778   5.574  0.1512 -0.0321 -0.4302
    1WN      WN 2060   0.621   3.912   0.606 -0.2296  0.0092  0.1325
    1WN      WN 2061   4.630   0.378   2.557  0.1000 -0.1441 -0.2705
    1WN      WN 2062   5.402   0.583   1.399  0.0822 -0.2863 -0.1224
    1WN      WN 2063   1.790   5.416   1.077  0.0400  0.1267  0.2458
    1WN      WN 2064   0.575   3.278   2.324 -0.4760 -0.1796 -0.1341
    1WN      WN 2065   3.448   1.305   3.406  0.0363 -0.0091  0.0096
    1WN      WN 2066   4.872   2.559   4.487 -0.0880  0.2063  0.0990
    1WN      WN 2067   1.935   0.207   3.648 -0.2441  0.0609  0.2032
    1WN      WN 2068   1.459   1.143   1.108  0.5829  0.1789 -0.1912
    1WN      WN 2069   3.348   2.159   4.144 -0.1468 -0.0834  0.3067
    1WN      WN 2070   4.150   3.727   1.133  0.2248 -0.0277  0.2755
    1WN      WN 2071   5.053   3.938   0.542 -0.1613 -0.1110 -0.0916
    1WN      WN 2072   6.237   4.087   3.950 -0.0381 -0.0668 -0.0031
    1WN      WN 2073   3.186   6.438   2.932  0.0477 -0.2785 -0.0115
    1WN      WN 2074   1.772   5.033   3.866  0.1387  0.0254  0.1736
    1WN      WN 2075   1.887   4.874   3.321  0.2517 -0.0576  0.0911
    1WN      WN 2076   6.432   5.157   6.135  0.0969 -0.0567  0.0198
    1WN      WN 2077   1.018   0.152   3.527  0.1026  0.0685  0.1055
    1WN      WN 2078   0.786   2.673   5.832  0.0473  0.1065  0.1002
    1WN      WN 2079   1.627   1.089   5.717 -0.0672  0.4068 -0.1266
    1WN      WN 2080   0.469   1.903   0.362  0.0755 -0.4014 -0.0403
    1WN      WN 2081   1.450   0.318   3.716 -0.1405 -0.2798  0.2332
    1WN      WN 2082   4.552   0.049   2.185  0.1801 -0.2243 -0.1841
    1WN      WN 2083   4.563   0.468   4.779 -0.1282 -0.0181  0.1539
    1WN      WN 2084   1.512   1.896   4.960 -0.1052 -0.1521  0.0194
    1WN      WN 2085   2.551   0.634   5.719 -0.0233 -0.2093  0.3218
    1WN      WN 2086   1.783   4.311   1.767  0.1557 -0.1992 -0.2473
    1WN      WN 2087   3.536   2.640   1.125  0.2366 -0.1505 -0.2551
    1WN      WN 2088   5.216   1.358   4.638 -0.1509 -0.1443 -0.0253
    1WN      WN 2089   4.832   3.214   4.794 -0.4875  0.2044 -0.0987
    1WN      WN 2090   4.934   5.427   4.029  0.0272  0.0617 -0.0667
    1WN      WN 2091   4.585   2.494   2.369  0.0535 -0.2245 -0.0555
    1WN      WN 2092   5.690   4.861   1.256  0.0512 -0.1714 -0.4019
    1WN      WN 2093   1.414   3.340   1.825  0.3598 -0.0760 -0.0094
    1WN      WN 2094   5.277   5.686   3.846  0.2804 -0.0870  0.4392
    1WN      WN 2095   0.930   5.421   6.377 -0.0138 -0.1534  0.1131
    1WN      WN 2096   2.064   3.175   0.193  0.1422  0.1041  0.2902
    1WN      WN 2097   3.405   3.181   3.567  0.2593 -0.0428  0.1497
    1WN      WN 2098   2.254   0.985   0.467 -0.1523 -0.1938 -0.0643
    1WN      WN 2099   6.491   5.476   0.114  0.0453 -0.1963 -0.0571
    1WN      WN 2100   5.254   5.974   3.149  0.0456  0.0945  0.0745
    1WN      WN 2101   3.527   6.033   3.932  0.0571  0.1351  0.1450
    1WN      WN 2102   4.592   0.739   2.884  0.1833 -0.1784  0.2996
    1WN      WN 2103   5.607   6.244   6.160  0.0152 -0.1336  0.1045
    1WN      WN 2104   5.440   5.318   1.300  0.2619 -0.2009 -0.1788
    1WN      WN 2105   5.381   0.999   2.326 -0.1102 -0.0777 -0.0263
    1WN      WN 2106   4.387   4.235   2.658  0.2849 -0.1574 -0.1550
    1WN      WN 2107   6.316   3.273   3.436  0.3188  0.1885  0.0626
    1WN      WN 2108   5.193   5.660   6.444 -0.1152 -0.0121  0.1123
    1WN      WN 2109   3.536   1.764   3.192  0.2299 -0.0172  0.3740
    1WN      WN 2110   3.495   4.361   3.297  0.3554 -0.1772  0.1616
    1WN      WN 2111   3.026   5.217   0.711  0.0175  0.2985 -0.0255
    1WN      WN 2112   3.090   2.465   5.704 -0.0427 -0.2987 -0.1626
    1WN      WN 2113   0.576   4.002   3.680  0.0911  0.2081  0.2617
    1WN      WN 2114   2.002   5.943   4.145 -0.0148 -0.2547  0.4763
    1WN      WN 2115   0.048   4.895   1.024  0.3073 -0.1521 -0.4265
    1WN      WN 2116   5.690   2.222   4.715  0.1794 -0.0384 -0.1418
    1WN      WN 2117   3.125   2.982   1.081  0.0576 -0.1385  0.2507
    1WN      WN 2118   4.775   1.709   2.530  0.0455  0.0052  0.0898
    1WN      WN 2119   0.601   5.896   3.242 -0.1428  0.1882 -0.0921
    1WN      WN 2120   1.414   4.325   0.801 -0.0540  0.1225  0.2555
    1WN      WN 2121   0.901   0.297   0.192 -0.2392 -0.1227 -0.0142
    1WN      WN 2122   2.816   2.385   3.100 -0.2107  0.2480 -0.2673
    1WN      WN 2123   0.369   2.096   4.005  0.3092  0.3419 -0.0208
    1WN      WN 2124   0.173   3.564   4.781 -0.3751  0.1596  0.4921
    1WN      WN 2125   2.884   5.340   4.245  0.2818 -0.1239 -0.4939
    1WN      WN 2126   5.628   2.019   0.108 -0.2010  0.2895  0.3532
    1WN      WN 2127   1.794   0.459   6.310  0.3915  0.3934 -0.1077
    1WN      WN 2128   3.220   2.959   1.595  0.0380 -0.0587  0.1352
    1WN      WN 2129   5.611   0.747   2.846  0.0998 -0.1832 -0.1919
    1WN      WN 2130   2.764   3.351   2.948 -0.0806 -0.1025 -0.2795
    1WN      WN 2131   4.135   3.921   4.214  0.0395 -0.3218  0.1508
    1WN      WN 2132   2.604   2.391   5.776  0.1254 -0.1190  0.1209
    1WN      WN 2133   1.228   2.752   6.171 -0.0222  0.0511  0.3300
    1WN      WN 2134   5.893   4.440   3.965 -0.3462  0.1658  0.5433
    1WN      WN 2135   0.690   0.188   5.279 -0.2680 -0.0895  0.0325
    1WN      WN 2136   2.918   1.537   2.075 -0.0835 -0.0277  0.1848
    1WN      WN 2137   1.749   3.419   4.565  0.0805 -0.1808 -0.3590
    1WN      WN 2138   6.347   5.659   3.600  0.0203 -0.2174  0.0029
    1WN      WN 2139   5.811   1.311   5.351 -0.2939  0.0571  0.0193
    1WN      WN 2140   5.399   0.581   5.906 -0.0378  0.3575 -0.0589
    1WN      WN 2141   0.020   1.949   6.498 -0.0064  0.0190  0.1942
    1WN      WN 2142   0.180   4.515   4.208  0.2356  0.2185  0.1085
    1WN      WN 2143   0.150   6.187   6.460 -0.1971 -0.2589  0.1331
    1WN      WN 2144   1.709   2.353   3.820  0.1348 -0.1889 -0.0725
    1WN      WN 2145   5.869   5.794   2.470 -0.0144  0.2988 -0.3627
    1WN      WN 2146   3.311   3.467   2.357 -0.2576 -0.1914  0.0112
    1WN      WN 2147   5.008   0.392   1.183 -0.3967 -0.0571 -0.1396
    1WN      WN 2148   2.615   6.539   0.269  0.0367  0.0790  0.1268
    1WN      WN 2149   5.547   3.933   3.193 -0.1323 -0.3521  0.0058
    1WN      WN 2150   0.191   5.426   3.038 -0.1720  0.0376  0.0773
    1WN      WN 2151   2.433   2.745   3.166  0.1274 -0.2246  0.3722
    1WN      WN 2152   3.516   6.008   5.947 -0.0763 -0.3809 -0.1412
    1WN      WN 2153   5.972   4.237   1.124  0.0300  0.2763  0.1987
    1WN      WN 2154   5.053   2.935   1.251 -0.4466 -0.1316  0.1164
    1WN      WN 2155   5.488   3.965   1.784 -0.0354  0.1024 -0.1457
    1WN      WN 2156   4.293   0.653   5.187  0.0628  0.0071  0.0163
    1WN      WN 2157   0.465   6.244   2.830 -0.3910 -0.2570 -0.0613
    1WN      WN 2158   2.599   5.836   0.953  0.2087 -0.0964 -0.0645
    1WN      WN 2159   3.315   4.808   0.922 -0.1088  0.1092 -0.0209
    1WN      WN 2160   2.362   5.233   2.627  0.0965 -0.3529 -0.1667
    1WN      WN 2161   4.142   2.661   0.343  0.2755 -0.1348  0.0064
    1WN      WN 2162   3.189   4.700   1.920  0.2745 -0.2441  0.1447
    1WN      WN 2163   3.873   1.281   5.662  0.0431 -0.3394 -0.0108
    1WN      WN 2164   5.123   2.691   0.071  0.1187  0.0812  0.3355
    1WN      WN 2165   5.814   3.111   0.816 -0.0030 -0.0957 -0.0683
    1WN      WN 2166   5.075   6.475   3.198 -0.4381  0.0815 -0.2509
    1WN      WN 2167   0.761   2.127   0.707 -0.0147 -0.0759 -0.1165
    1WN      WN 2168   1.407   0.220   5.293  0.3606  0.1722  0.2590
    1WN      WN 2169   2.124   1.979   5.589 -0.2313  0.0554  0.0499
    1WN      WN 2170   2.908   4.310   0.619 -0.0480  0.2122 -0.1006
    1WN      WN 2171   1.816   2.840   1.493  0.2786  0.0163 -0.0973
    1WN      WN 2172   1.831   2.088   1.882  0.0345  0.2410 -0.0276
    1WN      WN 2173   5.399   5.271   4.135 -0.1129 -0.0695 -0.0377
    1WN      WN 2174   5.916   5.974   3.738 -0.1359  0.2705  0.1587
    1WN      WN 2175   4.267   3.521   2.571 -0.0324 -0.0330 -0.1357
    1WN      WN 2176   4.445   5.627   5.779  0.2167  0.0169  0.1345
    1WN      WN 2177   0.247   0.767   4.814  0.1730 -0.0574  0.1401
    1WN      WN 2178   1.965   4.381   0.715 -0.2896 -0.0035 -0.1010
    1WN      WN 2179   5.678   1.703   2.743 -0.1724  0.4064  0.3621
    1WN      WN 2180   0.202   5.335   1.974 -0.4134 -0.1363  0.0024
    1WN      WN 2181   0.996   4.834   2.055  0.1380 -0.0944 -0.2272
    1WN      WN 2182   2.057   2.074   0.998  0.1693  0.3246 -0.2099
    1WN      WN 2183   4.118   1.377   1.349  0.0990 -0.0616  0.0139
    1WN      WN 2184   3.625   1.045   0.519  0.0197 -0.0262 -0.0808
    1WN      WN 2185   2.727   6.124   0.017  0.0458 -0.1719 -0.1951
    1WN      WN 2186   1.323   6.091   4.724  0.0309  0.0661  0.1242
    1WN      WN 2187   4.548   5.509   5.280  0.2616  0.4132 -0.0771
    1WN      WN 2188   5.553   0.960   5.616 -0.0437 -0.1723 -0.0971
    1WN      WN 2189   5.112   4.133   4.956  0.0244  0.2840 -0.2900
    1WN      WN 2190   6.530   3.241   4.388  0.1750 -0.2789 -0.5129
    1WN      WN 2191   4.786   4.630   5.372  0.0339 -0.3273 -0.1394
    1WN      WN 2192   2.995   2.232   4.915 -0.0154  0.2746 -0.2520
    1WN      WN 2193   1.505   0.095   6.239 -0.2660  0.2459 -0.0928
    1WN      WN 2194   4.720   1.090   2.476 -0.0083  0.2608  0.0406
    1WN      WN 2195   3.317   4.277   5.564 -0.2278 -0.2119 -0.1518
    1WN      WN 2196   1.569   4.126   0.206 -0.0955 -0.2427  0.2653
    1WN      WN 2197   1.805   1.312   5.121  0.2292  0.0479 -0.3380
    1WN      WN 2198   4.403   3.264   3.281  0.0400 -0.1029  0.0683
    1WN      WN 2199   6.043   1.847   5.382  0.2372  0.1220 -0.0447
    1WN      WN 2200   5.858   6.254   0.901 -0.1716  0.1268  0.2087
    1WN      WN 2201   6.033   4.777   3.136  0.2288 -0.1078 -0.2821
    1WN      WN 2202   2.881   2.393   2.538  0.1909  0.0491  0.0138
    1WN      WN 2203   1.481   6.536   5.722  0.2005  0.3604 -0.2637
    1WN      WN 2204   6.193   1.067   2.398 -0.1446  0.1138  0.2163
    1WN      WN 2205   4.338   1.346   4.863 -0.2812 -0.3632 -0.0713
    1WN      WN 2206   3.578   3.109   0.785  0.1413 -0.0069 -0.0695
    1WN      WN 2207   0.063   4.001   0.503 -0.0113 -0.5483  0.4366
    1WN      WN 2208   0.875   6.056   0.535  0.2549 -0.0224 -0.2251
    1WN      WN 2209   4.444   1.894   5.271 -0.0229  0.1417  0.0426
    1WN      WN 2210   3.461   5.617   0.563 -0.0240  0.0610  0.1776
    1WN      WN 2211   2.665   3.339   0.817 -0.3013 -0.0237 -0.1396
    1WN      WN 2212   3.536   2.647   4.611 -0.1176 -0.0487 -0.3076
    1WN      WN 2213   4.341   4.649   5.553  0.0401 -0.0585 -0.2359
    1WN      WN 2214   6.212   3.288   1.728 -0.0453  0.0785  0.1166
    1WN      WN 2215   2.786   1.096   4.279  0.4246  0.2123  0.1273
    1WN      WN 2216   4.873   3.782   1.109  0.0667  0.4487  0.2260
    1WN      WN 2217   6.452   1.989   3.657 -0.1342 -0.0183 -0.0579
    1WN      WN 2218   2.612   1.128   0.847  0.1428  0.2674 -0.0739
    1WN      WN 2219   4.486   1.368   0.574 -0.1652 -0.3203 -0.2289
    1WN      WN 2220   0.893   5.136   0.604 -0.0645  0.1087 -0.0044
    1WN      WN 2221   5.622   2.050   6.079 -0.2540  0.2359  0.0503
    1WN      WN 2222   1.765   3.954   0.670  0.2228 -0.2593 -0.0616
    1WN      WN 2223   0.936   2.976   2.543  0.1950 -0.0276 -0.1651
    1WN      WN 2224   4.484   5.678   1.268 -0.0476  0.1014 -0.0645
    1WN      WN 2225   4.459   3.512   0.806 -0.0796 -0.2376  0.1635
    1WN      WN 2226   1.794   3.097   0.573 -0.1224 -0.0871  0.2219
    1WN      WN 2227   2.452   3.305   1.648 -0.0421  0.2734 -0.1955
    1WN      WN 2228   4.114   0.819   1.051 -0.2231  0.1717  0.0820
    1WN      WN 2229   4.767   4.579   4.795  0.0958 -0.1517 -0.2920
    1WN      WN 2230   1.201   4.412   0.348 -0.0603 -0.1119  0.0623
    1WN      WN 2231   3.310   5.355   3.982  0.2105 -0.1183 -0.3737
    1WN      WN 2232   6.089   2.726   6.349  0.0746  0.0240  0.2881
    1WN      WN 2233   5.183   2.369   4.829  0.1585 -0.1610 -0.0861
    1WN      WN 2234   1.821   1.584   0.704  0.0432 -0.0171  0.3667
    1WN      WN 2235   1.882   4.138   1.134 -0.1022 -0.2653 -0.0321
    1WN      WN 2236   2.971   1.573   3.386 -0.0919 -0.2302 -0.0180
    1WN      WN 2237   4.301   3.069   3.726  0.0660  0.1013 -0.1497
    1WN      WN 2238   4.931   3.428   6.160 -0.2292  0.3095 -0.3712
    1WN      WN 2239   5.430   1.003   4.953  0.2351 -0.1337  0.2506
    1WN      WN 2240   0.972   4.016   1.038 -0.0307 -0.2184 -0.0460
    1WN      WN 2241   1.793   1.065   6.188 -0.1154  0.0589 -0.0461
    1WN      WN 2242   6.309   5.527   1.543 -0.1656  0.2405 -0.2081
    1WN      WN 2243   1.175   6.071   1.450 -0.1504  0.0883 -0.1438
    1WN      WN 2244   0.409   2.630   1.593  0.0454  0.4227  0.1227
    1WN      WN 2245   2.125   0.001   0.133 -0.1312 -0.0058 -0.0188
    1WN      WN 2246   5.617   3.922   1.306 -0.1875  0.0724  0.0216
    1WN      WN 2247   3.666   3.093   0.255  0.4272  0.0545 -0.1207
    1WN      WN 2248   4.407   6.527   4.662  0.0558  0.0003  0.2089
    1WN      WN 2249   6.241   3.008   5.864  0.0447 -0.0432  0.3304
    1WN      WN 2250   5.594   4.405   1.463  0.0014 -0.1130  0.0073
    1WN      WN 2251   3.768   2.939   1.465  0.3304  0.1746  0.1394
    1WN      WN 2252   0.202   3.894   3.224  0.0055 -0.0809  0.0147
    1WN      WN 2253   5.883   2.648   4.792  0.1839  0.0491  0.2338
    1WN      WN 2254   5.772   2.905   2.028 -0.1490  0.1291  0.0935
    1WN      WN 2255   0.156   0.203   3.547 -0.2869 -0.0719  0.2273
    1WN      WN 2256   0.899   4.518   6.433 -0.1749 -0.3140 -0.0952
    1WN      WN 2257   2.576   3.917   2.122 -0.3664 -0.0786 -0.1970
    1WN      WN 2258   1.632   0.339   1.275 -0.1158  0.1134  0.1962
    1WN      WN 2259   5.451   3.513   2.929 -0.1511 -0.0346  0.0878
    1WN      WN 2260   4.040   2.262   2.209 -0.2772 -0.0025  0.2912
    1WN      WN 2261   3.715   5.773   2.846  0.1206 -0.0696  0.2179
    1WN      WN 2262   0.813   1.344   3.463 -0.1960  0.2368 -0.2096
    1WN      WN 2263   0.256   4.315   2.951 -0.0341 -0.1883 -0.0604
    1WN      WN 2264   2.406   4.278   4.111  0.4780  0.1326  0.1889
    1WN      WN 2265   2.852   2.838   1.983  0.3641  0.0531  0.1550
    1WN      WN 2266   6.289   2.347   4.647 -0.1631 -0.0726 -0.0741
    1WN      WN 2267   5.909   1.881   3.510  0.1926  0.0061 -0.1871
    1WN      WN 2268   0.875   3.589   6.145 -0.0519  0.2545 -0.1332
    1WN      WN 2269   5.158   6.257   3.662 -0.3025 -0.0865  0.3485
    1WN      WN 2270   3.698   5.652   4.203 -0.0161 -0.1082 -0.0972
    1WN      WN 2271   6.038   0.261   6.222  0.1602 -0.0302  0.0034
    1WN      WN 2272   6.318   1.441   5.954  0.1435  0.0335  0.3426
    1WN      WN 2273   2.192   1.699   3.984  0.0192  0.0596  0.0048
    1WN      WN 2274   4.440   5.108   5.704 -0.0906  0.0106 -0.0808
    1WN      WN 2275   3.682   5.790   4.795 -0.1043  0.2921 -0.1231
    1WN      WN 2276   4.563   3.137   5.927 -0.3573 -0.1758  0.2372
    1WN      WN 2277   1.760   5.954   1.017  0.0741  0.2461  0.2794
    1WN      WN 2278   5.070   3.846   1.515  0.1842  0.0133  0.2680
    1WN      WN 2279   5.129   6.039   4.206  0.2552  0.0307  0.0368
    1WN      WN 2280   5.045   1.367   5.947  0.0303  0.0891 -0.0317
    1WN      WN 2281   3.989   0.342   0.864 -0.1919  0.2359  0.3113
    1WN      WN 2282   4.164   4.906   0.642  0.3511 -0.2474 -0.1464
    1WN      WN 2283   4.505   1.442   3.789 -0.2429  0.0284 -0.0781
    1WN      WN 2284   2.475   2.867   5.052 -0.3144  0.1031 -0.2476
    1WN      WN 2285   6.117   3.653   0.680  0.1069 -0.1494  0.0817
    1WN      WN 2286   2.586   4.792   2.436 -0.0470  0.1455  0.4354
    1WN      WN 2287   6.391   1.495   2.311 -0.1897  0.0660 -0.2812
    1WN      WN 2288   2.321   3.877   0.830 -0.2875 -0.0578 -0.0662
    1WN      WN 2289   0.936   4.558   4.389  0.4039  0.0667  0.2379
    1WN      WN 2290   3.801   2.691   2.915 -0.1297 -0.0870  0.0238
    1WN      WN 2291   5.278   1.895   4.757  0.1114  0.0761 -0.0852
    1WN      WN 2292   3.367   2.549   5.202 -0.1961  0.1072 -0.1683
    1WN      WN 2293   5.400   1.736   2.187  0.0355  0.0786 -0.2296
    1WN      WN 2294   4.030   1.092   5.223 -0.1430  0.3442 -0.0611
    1WN      WN 2295   1.825   0.642   3.870 -0.0703 -0.3228  0.0802
    1WN      WN 2296   3.667   5.140   4.305  0.0684  0.1078 -0.1757
    1WN      WN 2297   1.515   4.280   2.780 -0.0488 -0.0373 -0.2501
    1WN      WN 2298   3.078   5.220   1.726  0.0245 -0.4065 -0.2400
    1WN      WN 2299   4.889   3.876   5.957  0.1148  0.1740 -0.1270
    1WN      WN 2300   2.389   0.553   5.002 -0.0324  0.0607  0.1609
    1WN      WN 2301   4.683   4.140   0.279 -0.0678  0.0740 -0.1860
    1WN      WN 2302   2.816   3.830   0.658 -0.1599  0.1698  0.1309
    1WN      WN 2303   1.932   5.172   2.849  0.5643 -0.0466 -0.0016
    1WN      WN 2304   6.451   4.420   1.806  0.2581 -0.1882  0.2802
    1WN      WN 2305   3.111   4.067   2.130 -0.0244  0.1272  0.0586
    1WN      WN 2306   2.399   3.775   5.871 -0.0232 -0.0454 -0.1276
    1WN      WN 2307   5.878   2.693   5.518  0.0800 -0.1523  0.0195
    1WN      WN 2308   5.859   6.526   2.962 -0.1427 -0.0225 -0.1601
    1WN      WN 2309   5.624   5.370   0.047  0.1900 -0.2457  0.0821
    1WN      WN 2310   0.334   2.128   5.358  0.0603  0.0799  0.1879
    1WN      WN 2311   1.888   4.228   4.093 -0.1367  0.2775 -0.3165
    1WN      WN 2312   0.210   3.997   4.036  0.0290  0.1517 -0.1182
    1WN      WN 2313   6.198   0.298   4.347 -0.1050  0.1438  0.4560
    1WN      WN 2314   3.408   5.755   6.540  0.0321 -0.0879 -0.3528
    1WN      WN 2315   3.183   3.937   5.210  0.0527  0.2335  0.1501
    1WN      WN 2316   2.918   2.280   4.309  0.0025  0.1489 -0.4347
    1WN      WN 2317   3.225   0.834   3.874  0.0070 -0.4549 -0.0244
    1WN      WN 2318   6.342   6.488   5.625  0.0751  0.0251 -0.0395
    1WN      WN 2319   6.369   2.517   3.022  0.2111 -0.1125 -0.3406
    1WN      WN 2320   6.453   2.827   3.439  0.4591 -0.0120  0.1641
    1WN      WN 2321   1.406   6.164   0.530  0.4084 -0.1492  0.1812
    1WN      WN 2322   6.188   5.083   1.282  0.0810 -0.1814  0.0260
    1WN      WN 2323   1.124   3.819   2.843  0.3414 -0.0483 -0.2671
    1WN      WN 2324   1.607   5.977   3.312 -0.3962  0.1512 -0.1811
    1WN      WN 2325   2.116   0.344   1.145 -0.2477 -0.0330  0.2848
    1WN      WN 2326   1.490   2.468   1.719 -0.1504  0.2424  0.2315
    1WN      WN 2327   2.487   4.278   2.430  0.1617  0.3215 -0.2072
    1WN      WN 2328   1.814   3.724   1.371 -0.2511  0.0769 -0.2475
    1WN      WN 2329   3.757   2.169   1.000  0.1235 -0.0672  0.1116
    1WN      WN 2330   4.127   0.356   2.439  0.0013  0.1283  0.1302
    1WN      WN 2331   1.712   1.589   4.604  0.3713  0.0482  0.0131
    1WN      WN 2332   1.117   2.022   1.469 -0.2628  0.0172  0.0731
    1WN      WN 2333   1.289   2.058   5.550 -0.0070  0.1399 -0.2084
    1WN      WN 2334   5.565   6.034   2.059 -0.0725  0.1420  0.0392
    1WN      WN 2335   2.482   5.825   3.264 -0.0680 -0.2458 -0.1809
    1WN      WN 2336   2.195   1.006   5.878  0.0093  0.1944  0.0640
    1WN      WN 2337   5.224   4.645   5.173 -0.0327 -0.1126  0.1652
    1WN      WN 2338   6.268   6.207   2.238 -0.2233 -0.0634  0.0881
    1WN      WN 2339   2.884   6.261   0.795 -0.3479  0.0986  0.0172
    1WN      WN 2340   3.847   6.447   1.026 -0.1031  0.0346 -0.0774
    1WN      WN 2341   4.331   0.771   2.313  0.0257 -0.1143  0.0491
    1WN      WN 2342   0.797   5.288   1.808  0.1094 -0.0518 -0.0032
    1WN      WN 2343   0.403   3.562   6.250 -0.0380 -0.0136 -0.2696
    1WN      WN 2344   2.523   0.530   0.889  0.0403 -0.5052 -0.3476
    1WN      WN 2345   2.996   0.205   1.375  0.0119  0.2536 -0.1220
    1WN      WN 2346   2.648   5.191   1.491  0.0730 -0.2219 -0.1746
    1WN      WN 2347   5.678   0.589   4.694  0.2147  0.4446  0.1284
    1WN      WN 2348   2.741   0.099   3.060  0.0514 -0.2430 -0.0577
    1WN      WN 2349   0.548   4.421   3.343 -0.0378  0.1114  0.4209
    1WN      WN 2350   1.004   2.487   1.800 -0.0167 -0.3564  0.2738
    1WN      WN 2351   3.203   4.035   0.264 -0.0406 -0.1561  0.0550
    1WN      WN 2352   6.189   1.432   4.156  0.0424  0.2076 -0.0121
    1WN      WN 2353   1.775   5.360   6.420 -0.0561 -0.0139  0.2704
    1WN      WN 2354   3.979   1.407   4.143 -0.0351  0.0493  0.0174
    1WN      WN 2355   3.926   5.788   0.248 -0.0565 -0.0285  0.2624
    1WN      WN 2356   0.602   3.131   3.928 -0.5187 -0.1036 -0.5730
    1WN      WN 2357   2.214   0.101   4.673 -0.0288  0.0880  0.1466
    1WN      WN 2358   5.617   2.067   5.225  0.4170 -0.0657 -0.0013
    1WN      WN 2359   5.431   4.742   6.552 -0.0425 -0.2833 -0.4098
    1WN      WN 2360   5.661   4.860   2.299 -0.1536  0.2046 -0.1401
    1WN      WN 2361   1.025   3.073   2.054 -0.1702 -0.0625 -0.1174
    1WN      WN 2362   6.066   2.231   1.617 -0.0025  0.1293  0.2252
    1WN      WN 2363   0.814   0.721   5.702 -0.1812  0.0801 -0.1913
    1WN      WN 2364   0.664   5.001   5.462 -0.1912 -0.1506  0.0670
    1WN      WN 2365   2.574   6.181   2.937 -0.0613  0.1011 -0.3819
    1WN      WN 2366   5.799   5.476   3.775 -0.0126 -0.2188 -0.2595
    1WN      WN 2367   2.500   0.451   1.434  0.0743  0.1045  0.0431
    1WN      WN 2368   0.856   5.135   5.906  0.1100  0.2667 -0.3305
    1WN      WN 2369   3.187   6.194   6.386  0.0019  0.0928  0.1479
    1WN      WN 2370   1.859   6.480   5.419 -0.0535 -0.0524 -0.3237
    1WN      WN 2371   0.752   0.405   6.309 -0.1053 -0.2057  0.0719
    1WN      WN 2372   1.102   0.374   1.533  0.1904  0.3477  0.2983
    1WN      WN 2373   3.582   4.225   2.236 -0.0016  0.0203  0.2017
    1WN      WN 2374   3.694   2.568   4.132  0.1566 -0.1159 -0.1834
    1WN      WN 2375   5.629   1.411   0.972 -0.3407  0.0628 -0.1795
    1WN      WN 2376   5.030   3.257   3.139 -0.0224 -0.2070  0.1242
    1WN      WN 2377   0.526   0.557   0.436  0.1545 -0.4838  0.0728
    1WN      WN 2378   6.375   5.511   2.401  0.3599  0.0961  0.0676
    1WN      WN 2379   3.695   2.464   5.933 -0.1092 -0.0777 -0.1240
    1WN      WN 2380   5.566   4.459   0.390  0.0011  0.2137 -0.2713
    1WN      WN 2381   3.873   5.825   0.999  0.0851 -0.0905  0.4685
    1WN      WN 2382   2.414   4.368   5.910 -0.2809 -0.3598 -0.1893
    1WN      WN 2383   3.477   4.997   0.510  0.1085  0.0335  0.2421
    1WN      WN 2384   3.754   6.293   3.578  0.0025  0.0492  0.1160
    1WN      WN 2385   0.716   6.056   5.576  0.4560  0.1648 -0.0329
    1WN      WN 2386   2.067   5.136   1.387  0.4043  0.0845  0.1211
    1WN      WN 2387   1.851   2.731   0.236 -0.0343  0.1453  0.2365
    1WN      WN 2388   4.620   2.930   6.517  0.2586 -0.0303 -0.1639
    1WN      WN 2389   1.581   1.115   4.746  0.0675 -0.0062 -0.0489
    1WN      WN 2390   3.901   1.708   1.089 -0.1595  0.3922  0.1225
    1WN      WN 2391   2.462   4.372   0.504  0.0512 -0.0623  0.1431
    1WN      WN 2392   3.258   6.546   2.443 -0.3938  0.2635  0.2120
    1WN      WN 2393   4.053   5.899   4.008  0.2717  0.0379 -0.0940
    1WN      WN 2394   5.959   1.431   3.164 -0.0435  0.2809  0.2792
    1WN      WN 2395   0.773   3.305   1.716 -0.2484 -0.2390 -0.0746
    1WN      WN 2396   5.663   2.562   0.028  0.1660  0.0704 -0.3413
    1WN      WN 2397   6.534   3.188   5.014 -0.1949  0.1071 -0.0222
    1WN      WN 2398   6.096   0.322   5.424 -0.2131  0.0267 -0.2032
    1WN      WN 2399   5.834   3.296   5.663 -0.2950  0.2925 -0.1285
    1WN      WN 2400   0.918   1.993   0.255 -0.0154 -0.1831  0.1177
    1WN      WN 2401   1.620   4.916   1.093  0.1042 -0.4613  0.1633
    1WN      WN 2402   5.459   4.304   3.684  0.1724 -0.0579  0.2302
    1WN      WN 2403   2.842   6.152   5.257  0.1440 -0.0935 -0.1525
    1WN      WN 2404   4.560   5.767   4.826  0.4898 -0.0704 -0.2286
    1WN      WN 2405   2.543   5.819   3.823 -0.0608  0.0422 -0.1637
    1WN      WN 2406   5.397   1.952   4.194 -0.0926  0.4040  0.0843
    1WN      WN 2407   2.208   3.405   3.023 -0.2557 -0.0860  0.3480
    1WN      WN 2408   3.757   4.545   1.720  0.3311 -0.3481  0.0434
    1WN      WN 2409   2.832   1.381   4.706 -0.3760 -0.5545 -0.0628
    1WN      WN 2410   3.003   1.409   0.422  0.0595 -0.0004 -0.0467
    1WN      WN 2411   3.602   2.224   3.705 -0.5153  0.2058  0.2756
    1WN      WN 2412   2.915   2.873   3.012 -0.2753  0.0983 -0.2322
    1WN      WN 2413   1.958   5.797   6.223 -0.1902 -0.4813 -0.2133
    1WN      WN 2414   4.850   4.083   4.532 -0.0544 -0.2188  0.0176
    1WN      WN 2415   6.471   3.200   0.812  0.0453 -0.1813  0.1757
    1WN      WN 2416   2.155   2.993   4.304 -0.3428  0.0112 -0.2837
    1WN      WN 2417   4.049   3.103   6.439 -0.1074 -0.0015 -0.2870
    1WN      WN 2418   4.569   6.102   2.398  0.1631  0.0318 -0.2567
    1WN      WN 2419   0.935   2.218   5.965 -0.2037  0.1720 -0.1966
    1WN      WN 2420   1.881   3.670   5.886  0.2230 -0.1268 -0.1278
    1WN      WN 2421   4.028   0.824   2.722 -0.1815 -0.1913 -0.1929
    1WN      WN 2422   1.511   2.888   2.083  0.0572  0.2462  0.0782
    1WN      WN 2423   2.983   0.890   2.733  0.0482  0.2456 -0.1461
    1WN      WN 2424   1.004   5.974   1.933 -0.3233 -0.3344 -0.3029
    1WN      WN 2425   2.712   3.474   3.909  0.1402  0.0375 -0.0421
    1WN      WN 2426   6.272   0.841   4.200  0.2722 -0.1246 -0.1014
    1WN      WN 2427   3.387   2.153   2.272 -0.1220 -0.0844 -0.1102
    1WN      WN 2428   2.704   5.320   2.106 -0.1180 -0.0974 -0.0160
    1WN      WN 2429   1.502   4.487   3.774  0.3121  0.4957 -0.1127
    1WN      WN 2430   5.711   5.343   4.537 -0.1012 -0.2855 -0.0961
    1WN      WN 2431   6.113   3.876   1.581 -0.0101  0.1006 -0.2521
    1WN      WN 2432   4.623   4.150   3.997  0.0919  0.1023  0.1205
    1WN      WN 2433   6.286   6.490   1.060 -0.1043 -0.1853  0.1069
    1WN      WN 2434   0.538   2.646   6.249  0.0649  0.0745 -0.1811
    1WN      WN 2435   0.852   3.527   0.187  0.0648 -0.2945  0.1250
    1WN      WN 2436   2.893   5.155   6.527 -0.0820  0.0830  0.1607
    1WN      WN 2437   4.369   5.335   2.394  0.2866  0.1636  0.2208
    1WN      WN 2438   4.053   5.264   4.048 -0.0687  0.0869 -0.0122
    1WN      WN 2439   0.293   3.858   0.076  0.0935  0.1692 -0.0092
    1WN      WN 2440   3.115   1.944   0.585 -0.0689 -0.1022 -0.3714
    1WN      WN 2441   0.633   3.813   5.678  0.2525  0.4841 -0.3611
    1WN      WN 2442   3.929   0.191   3.786  0.0214  0.1697  0.2965
    1WN      WN 2443   4.184   5.452   2.890  0.1612 -0.0713 -0.2915
    1WN      WN 2444   6.106   6.535   0.513 -0.1919 -0.2333  0.3573
    1WN      WN 2445   3.275   0.180   6.060  0.0438 -0.0817 -0.1007
    1WN      WN 2446   5.326   0.092   1.478 -0.1961  0.2808  0.3427
    1WN      WN 2447   4.177   0.298   5.611  0.1231  0.1987 -0.2241
    1WN      WN 2448   4.640   0.253   4.188 -0.0046 -0.3535 -0.3615
    1WN      WN 2449   5.659   0.623   6.421  0.0653  0.2163  0.0213
    1WN      WN 2450   2.620   6.532   4.925 -0.1195 -0.1271 -0.2735
    1WN      WN 2451   3.536   0.101   3.253 -0.3266  0.1821 -0.3647
    1WN      WN 2452   2.571   4.657   5.056  0.0902 -0.4503  0.0202
    1WN      WN 2453   1.593   3.308   1.268 -0.0240 -0.0679 -0.2175
    1WN      WN 2454   1.824   4.508   0.119  0.0642 -0.1577  0.1658
    1WN      WN 2455   2.922   6.436   4.567  0.0279  0.1125  0.1585
    1WN      WN 2456   1.186   2.571   1.307 -0.2994 -0.0133 -0.1998
    1WN      WN 2457   2.893   3.107   5.237  0.0819 -0.0278  0.2925
    1WN      WN 2458   0.506   1.787   4.438 -0.0809  0.1298  0.1654
    1WN      WN 2459   5.882   0.523   5.815 -0.1755 -0.1685 -0.1481
    1WN      WN 2460   3.640   3.949   0.074 -0.1693 -0.3978 -0.1916
    1WN      WN 2461   4.090   4.297   0.978  0.1664 -0.0203 -0.0375
    1WN      WN 2462   5.132   3.389   1.357  0.2647  0.0188  0.1360
    1WN      WN 2463   5.344   1.479   3.974  0.2023 -0.0316  0.0684
    1WN      WN 2464   6.198   3.069   2.191 -0.1238  0.1589 -0.0477
    1WN      WN 2465   2.987   6.101   3.272  0.3154 -0.1560 -0.2542
    1WN      WN 2466   4.844   0.508   3.747  0.2041  0.3740  0.0916
    1WN      WN 2467   2.742   2.105   2.160  0.0729  0.0874  0.2615
    1WN      WN 2468   1.669   3.807   1.968  0.0751 -0.3719  0.1151
    1WN      WN 2469   0.285   4.561   1.449  0.1294  0.2729  0.2667
    1WN      WN 2470   5.470   6.163   5.206  0.1266  0.1024  0.0673
    1WN      WN 2471   5.754   5.192   0.900  0.3260 -0.1499  0.0833
    1WN      WN 2472   1.171   2.200   0.985 -0.2128 -0.1115  0.2436
    1WN      WN 2473   2.567   6.518   1.628 -0.0984 -0.2551 -0.2943
    1WN      WN 2474   6.331   3.485   6.015  0.1855  0.0975 -0.0295
    1WN      WN 2475   1.972   0.421   1.627 -0.0276  0.3340  0.1635
    1WN      WN 2476   6.523   4.936   1.720 -0.0434 -0.1425  0.3771
    1WN      WN 2477   3.723   2.637   2.410 -0.1440  0.1995 -0.0947
    1WN      WN 2478   0.835   3.998   5.263  0.1243 -0.4106  0.0493
    1WN      WN 2479   1.805   6.001   5.527  0.4095 -0.0986  0.1330
    1WN      WN 2480   2.980   1.128   1.776 -0.0545 -0.2799 -0.1193
    1WN      WN 2481   6.040   2.376   2.549 -0.3708  0.3373  0.1016
    1WN      WN 2482   4.403   4.441   0.511 -0.2141  0.2369 -0.0481
    1WN      WN 2483   2.488   4.925   1.902 -0.1247 -0.0891 -0.1190
    1WN      WN 2484   6.218   0.824   5.549  0.0107  0.1065 -0.1429
    1WN      WN 2485   4.691   1.282   4.479 -0.1903 -0.2559  0.0346
    1WN      WN 2486   4.804   5.759   1.651 -0.1672 -0.0087  0.3313
    1WN      WN 2487   0.089   3.105   5.538  0.2323  0.0932  0.0627
    1WN      WN 2488   1.050   1.395   1.428  0.0058  0.1123  0.1925
    1WN      WN 2489   5.712   5.931   6.497  0.0127 -0.0580  0.0312
    1WN      WN 2490   2.004   5.870   1.871 -0.1056  0.0009  0.0148
    1WN      WN 2491   6.550   1.153   4.545  0.2389  0.0421  0.2789
    1WN      WN 2492   2.079   3.630   0.365  0.0347 -0.2171 -0.0997
    1WN      WN 2493   5.011   6.014   5.227  0.0245 -0.2086 -0.1124
    1WN      WN 2494   5.516   3.355   3.443 -0.1317  0.0613  0.4873
    1WN      WN 2495   0.077   2.124   3.197  0.0223  0.0301  0.2508
    1WN      WN 2496   4.559   5.631   0.186  0.2256 -0.1304  0.0743
    1WN      WN 2497   6.170   1.946   0.272 -0.0069  0.0730 -0.0427
    1WN      WN 2498   3.337   1.457   2.872 -0.2525  0.1979 -0.3470
    1WN      WN 2499   5.812   0.637   4.163 -0.0165  0.6265 -0.0399
    1WN      WN 2500   2.300   4.047   6.311 -0.0599 -0.3036 -0.1516
    1WN      WN 2501   3.347   0.852   1.389  0.0823  0.1702 -0.0997
    1WN      WN 2502   4.454   1.164   1.072  0.2081 -0.1374 -0.3497
    1WN      WN 2503   2.846   5.621   4.658 -0.2339  0.0986  0.5219
    1WN      WN 2504   5.998   5.602   2.961 -0.0210  0.1173 -0.1438
    1WN      WN 2505   0.880   5.903   0.976  0.4048 -0.0541  0.0254
    1WN      WN 2506   2.282   5.406   0.044  0.4247 -0.0743  0.1963
    1WN      WN 2507   5.476   2.425   4.324 -0.2188 -0.3412  0.0176
    1WN      WN 2508   1.803   1.985   4.136  0.1327 -0.2335 -0.0752
    1WN      WN 2509   6.433   0.440   5.817 -0.2313  0.0908 -0.1043
    1WN      WN 2510   4.273   4.634   6.532 -0.2216  0.3635  0.4817
    1WN      WN 2511   3.611   6.433   5.128 -0.4245 -0.0322 -0.2544
    1WN      WN 2512   5.222   2.995   2.179  0.1894  0.0554 -0.1085
    1WN      WN 2513   2.648   5.043   3.425  0.1939 -0.2726 -0.0584
    1WN      WN 2514   3.299   6.544   0.928 -0.0897 -0.2216 -0.1313
    1WN      WN 2515   2.939   0.773   4.790 -0.1955 -0.1408 -0.4320
    1WN      WN 2516   5.380   2.884   3.391  0.0777 -0.0688 -0.1520
    1WN      WN 2517   0.099   5.137   2.589 -0.0343 -0.0265 -0.2930
    1WN      WN 2518   6.378   2.704   5.167  0.0369 -0.1233  0.0050
    1WN      WN 2519   2.031   0.374   2.158 -0.4675  0.0789 -0.1242
    1WN      WN 2520   3.352   3.037   2.574  0.1569 -0.1905  0.5031
    1WN      WN 2521   4.683   1.054   1.979  0.2450  0.0578  0.2124
    1WN      WN 2522   0.207   5.812   1.568  0.2112 -0.2993  0.3068
    1WN      WN 2523   4.088   1.057   1.944 -0.2242 -0.4817 -0.1641
    1WN      WN 2524   2.971   4.710   4.797 -0.0857 -0.2574 -0.1346
    1WN      WN 2525   1.382   2.842   0.137  0.1429 -0.3583 -0.0742
    1WN      WN 2526   6.460   2.641   2.433 -0.0190  0.3262 -0.2884
    1WN      WN 2527   4.132   6.438   3.157  0.0620 -0.1657  0.1333
    1WN      WN 2528   2.068   3.841   3.206 -0.0347  0.1274  0.1154
    1WN      WN 2529   4.153   0.794   5.665  0.1536 -0.2238  0.2262
    1WN      WN 2530   4.446   1.863   2.164  0.0542 -0.1398 -0.2297
    1WN      WN 2531   3.095   3.205   4.004  0.1363  0.1696  0.2487
    1WN      WN 2532   0.467   4.768   2.032  0.0926  0.0947  0.3984
    1WN      WN 2533   1.242   6.253   3.477 -0.0261  0.0679 -0.0612
    1WN      WN 2534   5.245   6.458   5.804  0.0605  0.2767 -0.0907
    1WN      WN 2535   0.655   5.539   5.828  0.3257 -0.5232  0.1453
    1WN      WN 2536   4.216   4.565   1.420 -0.0973 -0.0677  0.1589
    1WN      WN 2537   0.387   5.250   6.186 -0.0873 -0.0386 -0.1436
    1WN      WN 2538   2.215   3.820   1.797 -0.0421  0.0530 -0.2307
    1WN      WN 2539   3.084   1.688   5.013  0.1484  0.2450  0.1349
    1WN      WN 2540   4.877   5.781   0.619  0.1594  0.0908 -0.1029
   6.55661   6.55661   6.55661
