Martini system
31159
    1CHOL   ROH    1  14.953   7.894   8.301 -0.4250 -0.0349 -0.2770
    1CHOL    R1    2  15.006   7.620   8.249 -0.1378 -0.0083 -0.1355
    1CHOL    R2    3  15.034   7.520   7.993 -0.0748 -0.1167 -0.0803
    1CHOL    R3    4  15.271   7.428   8.090  0.0448  0.1841 -0.0731
    1CHOL    R4    5  15.232   7.283   7.838 -0.1047 -0.3536  0.2316
    1CHOL    R5    6  15.272   7.195   8.034  0.0911  0.0559  0.3949
    1CHOL    C1    7  15.569   7.059   7.838 -0.0099 -0.2092  0.4200
    1CHOL    C2    8  15.902   7.184   7.659 -0.0626  0.1887 -0.1250
    2XCA    COO    9   6.834   4.256   7.611  0.1337 -0.0967  0.0319
    2XCA     C1   10   6.563   4.421   7.250 -0.1638  0.1975  0.0384
    2XCA     C2   11   6.505   4.606   6.905  0.0125  0.3580  0.2608
    2XCA     C3   12   6.535   4.483   6.591  0.2466  0.0140  0.1264
    2XCA     C4   13   6.785   4.591   6.150 -0.3540 -0.1592  0.0600
    2XCA     C5   14   7.020   4.484   5.693  0.1327  0.1412  0.0107
    2XCA     C6   15   7.050   4.549   5.292  0.1893  0.0252  0.2107
    3XCA    COO   16  11.311   9.478   5.716  0.1804  0.1971 -0.0793
    3XCA     C1   17  11.553   9.218   6.071 -0.3010  0.0694  0.1642
    3XCA     C2   18  11.418   8.986   6.423 -0.2957  0.0114 -0.3423
    3XCA     C3   19  11.236   8.998   6.819  0.0206 -0.2437 -0.1013
    3XCA     C4   20  11.140   9.061   7.215  0.2068 -0.1218  0.0069
    3XCA     C5   21  11.337   8.864   7.612  0.2111  0.2415 -0.0760
    3XCA     C6   22  11.127   8.736   7.993  0.2029  0.0442  0.2357
    4XCA    COO   23  14.833  11.346   9.128 -0.1122 -0.0253 -0.2967
    4XCA     C1   24  14.533  11.373   8.786 -0.1482 -0.3750 -0.3358
    4XCA     C2   25  14.430  11.331   8.240  0.0481  0.0358 -0.0322
    4XCA     C3   26  14.439  11.279   7.804  0.0948  0.0860  0.2091
    4XCA     C4   27  14.635  11.350   7.490 -0.0919  0.0006  0.2031
    4XCA     C5   28  14.913  11.475   7.224 -0.3332 -0.1927 -0.1467
    4XCA     C6   29  15.120  11.460   6.893  0.0787 -0.2042 -0.0158
    5CHOL   ROH   30  14.399   1.682   6.337 -0.0428  0.0606 -0.1195
    5CHOL    R1   31  14.513   1.450   6.451 -0.0949  0.0676 -0.0520
    5CHOL    R2   32  14.379   1.292   6.633 -0.1992  0.0495 -0.1425
    5CHOL    R3   33  14.439   1.094   6.456 -0.0672  0.0612 -0.1115
    5CHOL    R4   34  14.496   0.978   6.720 -0.3055  0.0276 -0.0762
    5CHOL    R5   35  14.632   0.988   6.550 -0.1584  0.0311  0.0425
    5CHOL    C1   36  14.621   0.610   6.605 -0.2434  0.0259 -0.0085
    5CHOL    C2   37  14.711   0.272   6.578  0.2382  0.0288  0.1038
    6CHOL   ROH   38   5.411   3.716   3.398  0.0431  0.2638  0.0896
    6CHOL    R1   39   5.496   3.765   3.664 -0.0286  0.0333  0.1574
    6CHOL    R2   40   5.427   3.599   3.875  0.0123 -0.2209 -0.0193
    6CHOL    R3   41   5.696   3.591   3.913  0.0103 -0.1283  0.0132
    6CHOL    R4   42   5.582   3.534   4.177  0.0100  0.0020  0.0317
    6CHOL    R5   43   5.728   3.688   4.130 -0.0293  0.0081 -0.0453
    6CHOL    C1   44   5.924   3.488   4.389  0.0069  0.2188  0.0919
    6CHOL    C2   45   5.904   3.644   4.660  0.2636  0.0545  0.0785
    7XCA    COO   46  10.876   4.308   4.545 -0.2307 -0.5366 -0.3845
    7XCA     C1   47  10.614   3.951   4.750  0.0329 -0.1401 -0.0514
    7XCA     C2   48  10.442   3.647   5.024  0.0626 -0.1030 -0.0866
    7XCA     C3   49  10.338   3.284   5.103 -0.3683 -0.0994 -0.1590
    7XCA     C4   50  10.527   2.956   4.966 -0.0037  0.2575  0.1201
    7XCA     C5   51  10.607   2.631   4.968  0.0983  0.1600 -0.1566
    7XCA     C6   52  10.919   2.383   4.868  0.0820 -0.0362 -0.3724
    8CHOL   ROH   53   2.998   8.371   6.332  0.1453  0.0066 -0.2547
    8CHOL    R1   54   3.239   8.417   6.474  0.1288  0.1281 -0.2678
    8CHOL    R2   55   3.376   8.657   6.460 -0.1962  0.3337  0.0205
    8CHOL    R3   56   3.354   8.648   6.731 -0.0970 -0.0729  0.0231
    8CHOL    R4   57   3.637   8.708   6.681 -0.2122  0.5546 -0.0077
    8CHOL    R5   58   3.558   8.546   6.803  0.1406  0.2219 -0.1892
    8CHOL    C1   59   3.768   8.729   7.063 -0.1284  0.3015 -0.0217
    8CHOL    C2   60   3.978   8.844   7.463  0.1169 -0.0811  0.0846
    9PNCE   AM1   61  15.220   7.159   9.215 -0.2179  0.1359 -0.3223
    9PNCE   AM2   62  15.356   7.407   9.022 -0.2683 -0.1324 -0.1315
    9PNCE   T1A   63  15.150   6.791   9.035 -0.1902  0.3558 -0.3669
    9PNCE   C2A   64  15.298   6.542   8.682 -0.0631 -0.3299 -0.4360
    9PNCE   C3A   65  15.021   6.200   8.488 -0.2094 -0.1227  0.0222
    9PNCE   C1B   66  15.341   7.216   8.688 -0.2961 -0.1082 -0.2014
    9PNCE   C2B   67  15.426   6.910   8.409 -0.0327  0.4011 -0.0030
    9PNCE   C3B   68  15.747   6.706   8.075 -0.0942 -0.1701  0.3476
    9PNCE   D4B   69  15.958   6.370   7.789 -0.1874 -0.0575  0.4194
    9PNCE   C5B   70  15.669   6.347   7.454 -0.2241 -0.1447 -0.3228
    9PNCE   C6B   71  15.355   6.276   7.239  0.0310  0.3804  0.2279
   10PNCE   AM1   72   4.019   1.752   7.884 -0.0350 -0.0754  0.0321
   10PNCE   AM2   73   4.185   1.571   8.017  0.1325  0.1696 -0.2648
   10PNCE   T1A   74   4.287   2.087   7.719  0.0388  0.1704 -0.0468
   10PNCE   C2A   75   4.424   2.260   7.290  0.1861  0.0227 -0.0421
   10PNCE   C3A   76   4.779   2.262   6.912 -0.0295  0.2354 -0.2000
   10PNCE   C1B   77   4.448   1.549   7.662 -0.0596  0.0646  0.0960
   10PNCE   C2B   78   4.679   1.848   7.288 -0.1149 -0.0832  0.3020
   10PNCE   C3B   79   4.933   1.744   6.916  0.2323 -0.1576  0.2266
   10PNCE   D4B   80   4.899   1.866   6.607  0.0239  0.0303  0.2922
   10PNCE   C5B   81   4.830   2.235   6.362  0.0474  0.1658 -0.1485
   10PNCE   C6B   82   4.923   2.422   6.015 -0.0744 -0.0344 -0.1152
   11XCA    COO   83   9.928   7.058   9.122 -0.1083 -0.0479  0.0870
   11XCA     C1   84  10.166   7.211   8.814  0.0390  0.2361 -0.2063
   11XCA     C2   85  10.090   7.479   8.450 -0.1554  0.0297  0.2328
   11XCA     C3   86   9.970   7.750   7.988 -0.0518  0.0603 -0.0610
   11XCA     C4   87   9.922   8.207   7.992 -0.2382  0.0767 -0.0444
   11XCA     C5   88   9.802   8.540   8.068  0.0852 -0.2140 -0.0971
   11XCA     C6   89   9.572   8.902   8.295 -0.0930 -0.4087  0.3120
   12CHOL   ROH   90   3.668   0.255   4.736  0.1985 -0.0886  0.0269
   12CHOL    R1   91   3.685   0.237   5.018  0.1075  0.1030  0.0468
   12CHOL    R2   92   3.551   0.411   5.186 -0.0987  0.1067 -0.1088
   12CHOL    R3   93   3.454   0.181   5.294  0.0462  0.0923 -0.0084
   12CHOL    R4   94   3.330   0.395   5.452 -0.2780  0.0887 -0.2584
   12CHOL    R5   95   3.443   0.225   5.529 -0.1694  0.2566 -0.0493
   12CHOL    C1   96   3.110   0.170   5.707 -0.2464  0.0646 -0.2513
   12CHOL    C2   97   2.891   0.015   5.961  0.0104 -0.0411 -0.1057
   13PNCE   AM1   98  12.030  10.731   9.140  0.2071 -0.1185 -0.0740
   13PNCE   AM2   99  11.766  10.721   9.262  0.1253  0.0995 -0.1784
   13PNCE   T1A  100  11.911  10.602   8.714  0.1857 -0.0839  0.1891
   13PNCE   C2A  101  12.016  10.545   8.245 -0.0503  0.1759 -0.1279
   13PNCE   C3A  102  12.291  10.506   7.840  0.1575 -0.0158 -0.1610
   13PNCE   C1B  103  11.633  10.258   8.993  0.2590 -0.0894 -0.2413
   13PNCE   C2B  104  11.555  10.226   8.534 -0.0219 -0.0132 -0.0583
   13PNCE   C3B  105  11.651  10.143   8.085  0.1131  0.1880 -0.0629
   13PNCE   D4B  106  11.776   9.738   7.919 -0.0136 -0.0772  0.0752
   13PNCE   C5B  107  11.723   9.639   7.376  0.0680  0.0150 -0.0891
   13PNCE   C6B  108  11.973   9.836   6.990 -0.1913  0.2566 -0.1829
   14XCA    COO  109  11.496  12.424   9.773 -0.0152 -0.1831  0.2241
   14XCA     C1  110  11.362  12.299   9.343 -0.2513  0.2148  0.3323
   14XCA     C2  111  10.950  12.373   9.153  0.0482  0.0055  0.0484
   14XCA     C3  112  10.598  12.411   8.904 -0.0477  0.0472  0.0673
   14XCA     C4  113  10.417  12.739   8.634 -0.5083 -0.3035  0.2186
   14XCA     C5  114  10.094  12.704   8.471  0.0616  0.1567 -0.0324
   14XCA     C6  115   9.766  12.345   8.394 -0.0932 -0.2319  0.4983
   15CHOL   ROH  116  12.703   1.824   5.343  0.3875  0.0749 -0.0853
   15CHOL    R1  117  12.634   1.805   5.617  0.1376  0.0354 -0.1478
   15CHOL    R2  118  12.805   1.885   5.819  0.0643 -0.2405  0.0301
   15CHOL    R3  119  12.592   2.036   5.896  0.1666 -0.0314 -0.0878
   15CHOL    R4  120  12.769   2.034   6.129  0.0247 -0.2315  0.0212
   15CHOL    R5  121  12.559   1.979   6.126 -0.0316 -0.0193 -0.1122
   15CHOL    C1  122  12.548   2.262   6.381  0.0978 -0.0299 -0.0948
   15CHOL    C2  123  12.409   2.559   6.507 -0.2383 -0.1900 -0.0197
   16PNCE   AM1  124   8.943   2.548   3.455  0.2109  0.0384 -0.0891
   16PNCE   AM2  125   8.800   2.210   3.361  0.0555 -0.1154  0.1566
   16PNCE   T1A  126   8.525   2.725   3.610  0.0698  0.0432  0.1747
   16PNCE   C2A  127   8.094   2.716   3.426 -0.0296  0.0576 -0.0618
   16PNCE   C3A  128   7.749   2.943   3.588 -0.0051 -0.1846  0.0775
   16PNCE   C1B  129   8.705   2.305   3.808  0.1162  0.0281  0.0487
   16PNCE   C2B  130   8.807   2.626   4.128  0.0827  0.1766 -0.0242
   16PNCE   C3B  131   8.726   2.781   4.519 -0.1725 -0.3952  0.2233
   16PNCE   D4B  132   8.412   2.682   4.503  0.0876  0.1647  0.0726
   16PNCE   C5B  133   8.412   2.261   4.296 -0.0790 -0.1077 -0.1209
   16PNCE   C6B  134   8.601   1.898   4.060  0.1712 -0.1567  0.0192
   17XCA    COO  135   8.414  12.285   9.025 -0.2483 -0.0542 -0.2085
   17XCA     C1  136   8.331  12.154   8.583 -0.3036  0.2309 -0.2132
   17XCA     C2  137   8.437  12.007   8.222 -0.0276  0.4736  0.2326
   17XCA     C3  138   8.223  11.903   7.832  0.0322  0.0795 -0.2400
   17XCA     C4  139   7.935  11.788   7.447  0.1117 -0.1707 -0.0247
   17XCA     C5  140   7.909  11.928   7.006 -0.0311  0.0022  0.2603
   17XCA     C6  141   8.098  12.160   6.740  0.1663 -0.0576  0.0133
   18PNCE   AM1  142   2.221   2.137   8.209 -0.1555  0.1958  0.3095
   18PNCE   AM2  143   2.328   1.900   7.949 -0.2476  0.4061 -0.0593
   18PNCE   T1A  144   1.836   2.091   8.000  0.3065 -0.0948 -0.3847
   18PNCE   C2A  145   1.482   1.858   7.739 -0.0716 -0.1921  0.0293
   18PNCE   C3A  146   1.304   1.767   7.371  0.0744  0.0197 -0.1583
   18PNCE   C1B  147   1.986   1.789   7.620  0.0244  0.0245 -0.3665
   18PNCE   C2B  148   1.702   1.521   7.338 -0.1512  0.1670  0.1054
   18PNCE   C3B  149   1.490   1.423   6.940 -0.0815  0.0731  0.1504
   18PNCE   D4B  150   1.487   1.338   6.514  0.0531 -0.3268 -0.0977
   18PNCE   C5B  151   1.646   1.118   6.204 -0.0323  0.1952  0.2806
   18PNCE   C6B  152   1.482   0.908   5.818  0.2941 -0.0536  0.0223
   19PNCE   AM1  153   8.707  12.689   9.399  0.0821  0.1837  0.1044
   19PNCE   AM2  154   8.407  12.885   9.384  0.3518  0.1126 -0.0965
   19PNCE   T1A  155   8.707  12.690   8.903 -0.3179  0.0106 -0.0030
   19PNCE   C2A  156   8.623  12.552   8.442 -0.1199 -0.2306 -0.0750
   19PNCE   C3A  157   8.222  12.483   8.161  0.1188  0.3047 -0.3589
   19PNCE   C1B  158   8.193  13.153   8.963  0.0715  0.2372  0.2452
   19PNCE   C2B  159   7.855  13.078   8.653 -0.1584  0.1597 -0.1953
   19PNCE   C3B  160   7.858  12.881   8.211 -0.0271 -0.1046 -0.0793
   19PNCE   D4B  161   7.946  12.713   7.812 -0.1782 -0.1250 -0.3899
   19PNCE   C5B  162   8.342  12.431   7.707 -0.3148 -0.2979  0.4397
   19PNCE   C6B  163   8.655  12.215   7.601  0.0040 -0.1159  0.0561
   20PNCE   AM1  164  13.477   3.822   9.286 -0.1350  0.0667  0.4884
   20PNCE   AM2  165  13.194   3.893   9.438 -0.2034 -0.0150  0.1023
   20PNCE   T1A  166  13.357   4.022   8.834 -0.1111 -0.0210 -0.0557
   20PNCE   C2A  167  13.317   4.067   8.409 -0.0319 -0.1292 -0.3021
   20PNCE   C3A  168  13.002   4.032   8.098 -0.1124  0.0456  0.0521
   20PNCE   C1B  169  12.994   3.728   9.044 -0.1798  0.1861  0.2774
   20PNCE   C2B  170  12.842   4.018   8.641  0.0836  0.0395  0.3433
   20PNCE   C3B  171  12.534   4.088   8.277 -0.0180  0.1856 -0.0750
   20PNCE   D4B  172  12.105   4.170   8.307  0.1991  0.0520 -0.2343
   20PNCE   C5B  173  12.046   4.524   8.082 -0.2500  0.2526  0.1762
   20PNCE   C6B  174  11.763   4.521   7.806  0.0757 -0.2152 -0.3542
   21XCA    COO  175   3.689   6.477   8.270 -0.0824 -0.0335  0.2652
   21XCA     C1  176   3.492   6.387   7.842  0.3002  0.1304 -0.4020
   21XCA     C2  177   3.410   6.509   7.383  0.3910 -0.2145 -0.2396
   21XCA     C3  178   3.251   6.507   6.953 -0.0102  0.1912 -0.2229
   21XCA     C4  179   3.143   6.612   6.514  0.3296  0.1009  0.2113
   21XCA     C5  180   2.886   6.923   6.363  0.3050  0.2241  0.1466
   21XCA     C6  181   2.497   7.123   6.288  0.1855  0.3758  0.4297
   22PNCE   AM1  182   3.701   8.452   8.095  0.1256 -0.0298  0.0361
   22PNCE   AM2  183   3.438   8.373   8.174 -0.1058 -0.1215 -0.1282
   22PNCE   T1A  184   3.499   8.596   7.574  0.1254  0.0453 -0.1029
   22PNCE   C2A  185   3.156   8.657   7.326  0.1318  0.0516  0.0369
   22PNCE   C3A  186   3.013   8.838   7.024 -0.0271 -0.1159  0.2542
   22PNCE   C1B  187   3.323   8.238   7.815  0.2407  0.1649 -0.1356
   22PNCE   C2B  188   3.198   8.204   7.344  0.0320  0.0653  0.0347
   22PNCE   C3B  189   3.011   8.352   6.906 -0.0436 -0.3060  0.1462
   22PNCE   D4B  190   2.613   8.586   6.702 -0.1466  0.0001 -0.2070
   22PNCE   C5B  191   2.670   8.754   6.388  0.1608 -0.0372  0.2471
   22PNCE   C6B  192   2.999   8.847   6.132  0.2561 -0.1593 -0.1580
   23PNCE   AM1  193  12.064   3.876   8.683  0.3865 -0.3538 -0.0446
   23PNCE   AM2  194  11.724   3.831   8.725  0.1665  0.1907  0.2976
   23PNCE   T1A  195  12.412   4.307   8.804 -0.0206  0.1322  0.1991
   23PNCE   C2A  196  12.538   4.628   8.660 -0.0540 -0.3832 -0.1113
   23PNCE   C3A  197  12.518   5.142   8.621  0.0532  0.2666 -0.0836
   23PNCE   C1B  198  11.639   3.838   8.295  0.0991 -0.0412 -0.2180
   23PNCE   C2B  199  11.558   4.090   8.034  0.1138 -0.0597 -0.0792
   23PNCE   C3B  200  11.645   4.027   7.602  0.2058  0.2632  0.2848
   23PNCE   D4B  201  11.827   4.067   7.271 -0.1845  0.0600  0.0227
   23PNCE   C5B  202  11.694   3.783   6.980  0.0415  0.0313  0.0649
   23PNCE   C6B  203  11.624   3.978   6.564 -0.0941 -0.0885  0.2234
   24PNCE   AM1  204  14.350   3.223   4.730 -0.1964 -0.1395 -0.0234
   24PNCE   AM2  205  14.181   3.537   4.781 -0.0245 -0.0369 -0.0992
   24PNCE   T1A  206  14.414   2.816   4.972  0.0452  0.1158  0.2799
   24PNCE   C2A  207  14.490   2.424   5.187 -0.0565 -0.4324  0.2075
   24PNCE   C3A  208  14.700   2.050   5.305 -0.1721  0.3095  0.4045
   24PNCE   C1B  209  13.985   3.538   5.161 -0.0923 -0.1292  0.2711
   24PNCE   C2B  210  14.041   3.741   5.574 -0.1914 -0.2535 -0.1171
   24PNCE   C3B  211  13.985   3.523   5.831  0.0800 -0.3155  0.0314
   24PNCE   D4B  212  13.946   3.410   6.315  0.0293 -0.0937 -0.1602
   24PNCE   C5B  213  13.807   3.566   6.701 -0.0307  0.0184  0.0127
   24PNCE   C6B  214  13.586   3.410   7.025 -0.0984 -0.0099 -0.3309
   25XCA    COO  215   4.360   3.111   7.833 -0.1988 -0.0823 -0.4020
   25XCA     C1  216   3.901   3.034   7.732  0.1175  0.0935  0.3272
   25XCA     C2  217   3.772   3.261   7.427  0.2269 -0.0621  0.1838
   25XCA     C3  218   3.763   3.653   7.137  0.2450 -0.3660 -0.1135
   25XCA     C4  219   3.701   3.955   6.730  0.3113  0.1974  0.0826
   25XCA     C5  220   3.766   4.107   6.417  0.2363 -0.0516  0.1003
   25XCA     C6  221   3.694   4.500   6.149 -0.1862 -0.0217  0.0282
   26CHOL   ROH  222   9.983  12.185   9.534  0.1445 -0.1421  0.0191
   26CHOL    R1  223   9.939  12.129   9.260  0.0129 -0.0991  0.0314
   26CHOL    R2  224   9.942  12.325   9.065  0.0736 -0.0925  0.0449
   26CHOL    R3  225  10.127  12.162   8.950 -0.0728 -0.2065 -0.0345
   26CHOL    R4  226  10.077  12.371   8.751  0.0910 -0.0698  0.0550
   26CHOL    R5  227  10.065  12.156   8.719 -0.0982 -0.0521 -0.0364
   26CHOL    C1  228  10.330  12.245   8.459 -0.0362 -0.1636 -0.0136
   26CHOL    C2  229  10.659  11.994   8.187  0.1350 -0.0834 -0.2522
   27PNCE   AM1  230   3.597  11.537   8.980 -0.2123  0.1970 -0.1763
   27PNCE   AM2  231   3.937  11.748   9.021  0.2727  0.0958  0.0686
   27PNCE   T1A  232   3.527  11.320   8.483 -0.2039  0.0571  0.2196
   27PNCE   C2A  233   3.537  11.352   8.013  0.4498 -0.3043  0.0582
   27PNCE   C3A  234   3.583  11.606   7.568  0.2155 -0.1905  0.1095
   27PNCE   C1B  235   3.948  11.674   8.544 -0.1044  0.0632  0.2108
   27PNCE   C2B  236   4.002  11.481   8.169  0.1127 -0.1163  0.1965
   27PNCE   C3B  237   4.058  11.307   7.808 -0.0729  0.0401  0.3857
   27PNCE   D4B  238   4.151  11.255   7.475  0.1660 -0.0892 -0.0213
   27PNCE   C5B  239   4.443  11.485   7.181  0.1132  0.0882  0.0272
   27PNCE   C6B  240   4.305  11.567   6.790  0.1391  0.1552 -0.0437
   28CHOL   ROH  241   8.066   6.389   3.896 -0.1048 -0.0745  0.1600
   28CHOL    R1  242   7.996   6.265   4.141  0.0738 -0.0867  0.2048
   28CHOL    R2  243   8.179   6.224   4.343  0.1614  0.1411  0.1690
   28CHOL    R3  244   7.996   6.357   4.493  0.0637 -0.0069  0.1855
   28CHOL    R4  245   8.091   6.140   4.667  0.0732 -0.0910  0.0877
   28CHOL    R5  246   7.883   6.185   4.616  0.0730 -0.1243  0.0385
   28CHOL    C1  247   7.867   6.216   4.996 -0.0698 -0.3650  0.0558
   28CHOL    C2  248   8.161   5.935   5.139 -0.1559 -0.1766  0.4032
   29PNCE   AM1  249  14.719  12.323   9.393  0.1042  0.1844  0.1796
   29PNCE   AM2  250  14.429  12.246   9.373  0.2767  0.0441  0.0232
   29PNCE   T1A  251  14.791  12.522   9.058  0.1355 -0.1335  0.0762
   29PNCE   C2A  252  14.676  12.655   8.633  0.1760  0.2505  0.0403
   29PNCE   C3A  253  14.687  12.761   8.289  0.0622 -0.0361 -0.1186
   29PNCE   C1B  254  14.345  12.177   8.967 -0.0496  0.1505 -0.1640
   29PNCE   C2B  255  14.454  11.853   8.589  0.1794  0.1700  0.0428
   29PNCE   C3B  256  14.362  11.854   8.133  0.1344  0.2194  0.2304
   29PNCE   D4B  257  14.111  11.943   7.887  0.1366 -0.0265 -0.1857
   29PNCE   C5B  258  13.797  11.995   7.580 -0.1343  0.4071 -0.0120
   29PNCE   C6B  259  13.482  12.337   7.499  0.1508 -0.1088  0.3038
   30XCA    COO  260   6.320   5.105   7.931  0.0248  0.2559 -0.3058
   30XCA     C1  261   5.923   4.998   7.756 -0.0535 -0.1301 -0.0797
   30XCA     C2  262   5.754   4.683   7.444  0.0852  0.1655  0.1541
   30XCA     C3  263   5.779   4.494   7.089  0.0135 -0.0311  0.0425
   30XCA     C4  264   5.886   4.655   6.789  0.0640 -0.0907  0.1729
   30XCA     C5  265   5.938   4.740   6.307 -0.0887 -0.1910 -0.3697
   30XCA     C6  266   5.970   4.546   5.932  0.0619 -0.0028 -0.1832
   31PNCE   AM1  267  14.727  14.353   8.324 -0.2183 -0.1976  0.1013
   31PNCE   AM2  268  14.499  14.056   8.288  0.0493 -0.2003  0.2684
   31PNCE   T1A  269  15.074  14.087   8.083  0.1675 -0.2933 -0.2148
   31PNCE   C2A  270  15.206  13.891   7.713  0.0349 -0.0809  0.3023
   31PNCE   C3A  271  15.072  13.671   7.279 -0.0824  0.1861 -0.0291
   31PNCE   C1B  272  14.524  14.015   7.910 -0.2869 -0.2691 -0.0688
   31PNCE   C2B  273  14.819  14.191   7.566 -0.0974  0.0258  0.3174
   31PNCE   C3B  274  14.895  14.486   7.295 -0.0740  0.2405  0.0488
   31PNCE   D4B  275  15.069  14.506   6.832 -0.1829 -0.0589  0.0844
   31PNCE   C5B  276  15.459  14.387   6.671  0.1056  0.1134  0.1508
   31PNCE   C6B  277  15.609  14.260   6.246 -0.2202 -0.0458 -0.1359
   32XCA    COO  278   0.870  10.972   8.893 -0.0385  0.2556 -0.0213
   32XCA     C1  279   0.645  11.211   8.511 -0.2274  0.1960 -0.0432
   32XCA     C2  280   0.668  11.184   7.960 -0.2031 -0.2445  0.4622
   32XCA     C3  281   0.856  11.099   7.490 -0.2394  0.2195 -0.1073
   32XCA     C4  282   0.906  11.496   7.297  0.0859  0.2975  0.2574
   32XCA     C5  283   0.633  11.828   7.239 -0.0822 -0.0692  0.0326
   32XCA     C6  284   0.623  12.311   7.240 -0.1289 -0.1048 -0.2194
   33CHOL   ROH  285   5.121   6.970   6.972  0.0654  0.0719 -0.0952
   33CHOL    R1  286   5.384   7.001   7.072  0.1526 -0.0460 -0.2820
   33CHOL    R2  287   5.439   7.030   7.341  0.3315  0.2255 -0.3407
   33CHOL    R3  288   5.604   6.818   7.298  0.1126  0.0190 -0.1916
   33CHOL    R4  289   5.716   6.952   7.532  0.1919 -0.0015 -0.2254
   33CHOL    R5  290   5.822   6.901   7.349  0.1911 -0.2041 -0.1670
   33CHOL    C1  291   6.033   6.709   7.602 -0.0948 -0.3275 -0.0181
   33CHOL    C2  292   6.423   6.791   7.507  0.1195 -0.0144 -0.4555
   34PNCE   AM1  293  13.497  13.240   8.616  0.3173 -0.2857 -0.3181
   34PNCE   AM2  294  13.076  13.341   8.544 -0.2473  0.3989 -0.0911
   34PNCE   T1A  295  13.873  13.321   8.250  0.0019 -0.1786 -0.0243
   34PNCE   C2A  296  14.134  13.260   7.897 -0.2752  0.2307 -0.0906
   34PNCE   C3A  297  14.271  13.150   7.481 -0.2352  0.0290  0.1612
   34PNCE   C1B  298  12.977  13.519   8.136 -0.0633  0.3552 -0.0018
   34PNCE   C2B  299  12.937  13.510   7.683  0.0594 -0.1391  0.1051
   34PNCE   C3B  300  13.209  13.317   7.382  0.2566  0.2165 -0.2085
   34PNCE   D4B  301  13.557  13.176   7.165 -0.0122  0.0603  0.0280
   34PNCE   C5B  302  13.452  13.073   6.726  0.2299  0.2645 -0.0358
   34PNCE   C6B  303  13.243  12.773   6.473  0.3444  0.1381  0.0063
   35PNCE   AM1  304   4.889   0.254   8.356  0.1368 -0.2652  0.0512
   35PNCE   AM2  305   4.692   0.180   8.104 -0.2289 -0.0316  0.2383
   35PNCE   T1A  306   5.200   0.354   7.972 -0.0078 -0.2698  0.6992
   35PNCE   C2A  307   5.352   0.531   7.684 -0.0446 -0.1643 -0.0458
   35PNCE   C3A  308   5.268   0.801   7.304 -0.4015 -0.0749  0.2304
   35PNCE   C1B  309   4.796   0.110   7.658 -0.1335  0.2741  0.0949
   35PNCE   C2B  310   5.062   0.377   7.310  0.0763  0.0796 -0.0290
   35PNCE   C3B  311   5.089   0.562   6.852 -0.0294 -0.0595 -0.3054
   35PNCE   D4B  312   5.292   0.891   6.543 -0.0620  0.1919  0.1066
   35PNCE   C5B  313   5.726   0.655   6.407  0.1257  0.1343  0.0621
   35PNCE   C6B  314   6.090   0.423   6.462  0.1745 -0.4677  0.2566
   36PNCE   AM1  315  12.272  12.404   9.101  0.1021 -0.2309  0.1307
   36PNCE   AM2  316  12.092  12.103   9.060  0.0619  0.0448 -0.1965
   36PNCE   T1A  317  12.534  12.156   8.744  0.0510  0.1044  0.0538
   36PNCE   C2A  318  12.767  12.082   8.360 -0.0475  0.0634  0.2088
   36PNCE   C3A  319  12.894  11.860   8.005 -0.0120 -0.2301  0.1421
   36PNCE   C1B  320  11.994  12.050   8.698 -0.1803 -0.1832  0.1151
   36PNCE   C2B  321  11.547  12.040   8.419 -0.2278 -0.0032  0.0068
   36PNCE   C3B  322  11.248  12.235   8.222  0.3159 -0.4458 -0.2918
   36PNCE   D4B  323  11.021  12.303   7.836  0.4335 -0.2544 -0.1113
   36PNCE   C5B  324  10.670  11.807   7.722  0.1863  0.0334 -0.0282
   36PNCE   C6B  325  10.390  11.584   7.539 -0.0534 -0.1400 -0.2276
   37XCA    COO  326   5.186  15.371   3.799 -0.0747  0.0327 -0.2190
   37XCA     C1  327   5.243  15.395   4.245  0.0602  0.1503 -0.1857
   37XCA     C2  328   5.380  15.479   4.657 -0.2417 -0.1852 -0.0694
   37XCA     C3  329   5.596  15.556   5.121  0.0778 -0.1602  0.1510
   37XCA     C4  330   5.583  15.717   5.474  0.2156  0.0938  0.1563
   37XCA     C5  331   5.350  15.819   5.713 -0.1793 -0.2955  0.0631
   37XCA     C6  332   5.219  15.844   6.152 -0.1231 -0.0104  0.2695
   38CHOL   ROH  333  12.127   0.296   5.678  0.2793  0.0564  0.1932
   38CHOL    R1  334  12.076   0.333   5.954  0.2684 -0.0225  0.2016
   38CHOL    R2  335  11.840   0.253   6.073  0.2061  0.0727  0.1388
   38CHOL    R3  336  12.008   0.121   6.241  0.1043 -0.0964  0.1106
   38CHOL    R4  337  11.739   0.051   6.335  0.0436  0.1672  0.1507
   38CHOL    R5  338  11.901   0.134   6.455  0.1474  0.0078  0.1282
   38CHOL    C1  339  11.837  -0.191   6.645 -0.1466  0.0635  0.1310
   38CHOL    C2  340  11.483  -0.227   6.663 -0.0493  0.0054 -0.1571
   39PNCE   AM1  341  14.582   0.421   8.372 -0.1028  0.0217 -0.0002
   39PNCE   AM2  342  14.419   0.149   8.221 -0.1243 -0.1774 -0.1427
   39PNCE   T1A  343  14.484   0.616   7.991  0.1558 -0.3143 -0.1297
   39PNCE   C2A  344  14.348   0.619   7.563  0.0241 -0.2724 -0.1762
   39PNCE   C3A  345  14.497   0.750   7.138 -0.0993  0.0720 -0.1802
   39PNCE   C1B  346  14.585  -0.060   7.921  0.0805  0.2229 -0.1037
   39PNCE   C2B  347  14.713  -0.122   7.506  0.0764 -0.1284 -0.0878
   39PNCE   C3B  348  14.995  -0.329   7.312 -0.1922  0.0637 -0.0084
   39PNCE   D4B  349  15.435  -0.518   7.444 -0.2773 -0.2268 -0.0345
   39PNCE   C5B  350  15.588  -0.817   7.204 -0.1322  0.0031  0.2262
   39PNCE   C6B  351  15.824  -1.039   6.904  0.0245  0.1293 -0.3201
   40PNCE   AM1  352   7.105   5.834   7.592  0.3462 -0.5490 -0.1789
   40PNCE   AM2  353   7.300   6.056   7.685  0.1135 -0.0696  0.3464
   40PNCE   T1A  354   7.039   5.948   7.154 -0.1401 -0.0065 -0.1725
   40PNCE   C2A  355   6.837   6.098   6.897 -0.1842  0.0146  0.0321
   40PNCE   C3A  356   6.530   6.061   6.654 -0.0473 -0.2394 -0.3070
   40PNCE   C1B  357   7.368   6.341   7.347  0.1394 -0.1071  0.1831
   40PNCE   C2B  358   7.574   6.634   7.050  0.1666  0.2172  0.0307
   40PNCE   C3B  359   7.757   7.087   6.858 -0.2719 -0.1614 -0.0509
   40PNCE   D4B  360   7.733   7.446   6.559 -0.0993  0.0686  0.1444
   40PNCE   C5B  361   7.528   7.802   6.862  0.0189  0.0782  0.2781
   40PNCE   C6B  362   7.232   7.886   7.159  0.2267  0.1481  0.1311
   41CHOL   ROH  363   1.467  12.568   8.366  0.1129 -0.0914 -0.0312
   41CHOL    R1  364   1.548  12.390   8.161 -0.0559 -0.1678 -0.0333
   41CHOL    R2  365   1.368  12.274   7.986 -0.1684  0.0080 -0.0422
   41CHOL    R3  366   1.533  12.380   7.798 -0.0586 -0.1447 -0.0329
   41CHOL    R4  367   1.383  12.171   7.656 -0.1870 -0.0523 -0.0238
   41CHOL    R5  368   1.600  12.192   7.665 -0.1751 -0.2123  0.0073
   41CHOL    C1  369   1.547  12.211   7.288 -0.0947 -0.2307 -0.0043
   41CHOL    C2  370   1.383  11.983   6.892  0.4656  0.1305  0.1719
   42PNCE   AM1  371  12.458   7.145   9.586 -0.2271 -0.2406 -0.1229
   42PNCE   AM2  372  12.684   7.348   9.551  0.0199 -0.0148 -0.0290
   42PNCE   T1A  373  12.331   7.128   9.165  0.1067 -0.0235  0.3228
   42PNCE   C2A  374  12.372   7.327   8.757 -0.0074 -0.0138  0.4181
   42PNCE   C3A  375  12.298   7.273   8.330  0.1138  0.1482 -0.2694
   42PNCE   C1B  376  12.808   7.257   9.118  0.1246  0.0587  0.2450
   42PNCE   C2B  377  12.942   7.161   8.753  0.0641  0.1250 -0.0498
   42PNCE   C3B  378  13.049   7.114   8.340 -0.1111 -0.0226 -0.0861
   42PNCE   D4B  379  12.793   7.145   7.972  0.4017  0.1179  0.2477
   42PNCE   C5B  380  12.561   6.841   7.745 -0.1016  0.1553  0.0416
   42PNCE   C6B  381  12.191   6.988   7.413 -0.0675  0.1116  0.1627
   43PNCE   AM1  382   4.511   5.188   7.832  0.3073  0.1269 -0.0656
   43PNCE   AM2  383   4.645   4.925   7.618 -0.1845  0.1612 -0.2477
   43PNCE   T1A  384   4.910   5.475   7.650  0.2130  0.0964 -0.0391
   43PNCE   C2A  385   5.260   5.407   7.627  0.0298 -0.1965 -0.0002
   43PNCE   C3A  386   5.595   5.306   7.474 -0.1558  0.0104  0.0161
   43PNCE   C1B  387   4.585   5.088   7.197  0.1120  0.0894 -0.0481
   43PNCE   C2B  388   4.628   5.324   6.753  0.1981 -0.0580 -0.1116
   43PNCE   C3B  389   4.571   5.498   6.381  0.0228  0.0669  0.1422
   43PNCE   D4B  390   4.611   5.696   6.021  0.2185 -0.1822 -0.0043
   43PNCE   C5B  391   4.319   6.087   6.000 -0.0310 -0.1843  0.1827
   43PNCE   C6B  392   4.126   6.442   5.896  0.5189 -0.0753 -0.0471
   44XCA    COO  393  14.147  14.874   5.226 -0.1818  0.2082  0.1073
   44XCA     C1  394  13.957  14.738   5.570  0.0431  0.1151  0.0868
   44XCA     C2  395  13.968  14.241   5.773  0.3281 -0.0209  0.1862
   44XCA     C3  396  13.736  13.874   5.597 -0.0806 -0.1340 -0.0274
   44XCA     C4  397  13.825  13.600   5.995 -0.0142 -0.0880  0.2643
   44XCA     C5  398  13.792  13.187   6.296 -0.0295 -0.0987  0.1952
   44XCA     C6  399  13.785  12.762   6.462 -0.0178  0.2423 -0.0836
   45CHOL   ROH  400   7.781  14.108   8.816 -0.1589  0.1401 -0.1296
   45CHOL    R1  401   7.833  13.939   8.595 -0.0567  0.0875 -0.0671
   45CHOL    R2  402   7.647  13.895   8.394 -0.0457 -0.1273 -0.0366
   45CHOL    R3  403   7.851  13.975   8.233 -0.1163 -0.0420 -0.0831
   45CHOL    R4  404   7.687  13.800   8.064 -0.0367 -0.1726 -0.0220
   45CHOL    R5  405   7.901  13.782   8.100 -0.0221 -0.0391 -0.0496
   45CHOL    C1  406   7.901  13.820   7.720 -0.0979 -0.1189 -0.0570
   45CHOL    C2  407   8.101  13.771   7.481 -0.0446 -0.0399  0.0156
   46CHOL   ROH  408   2.708   7.051   8.183 -0.2187 -0.2928  0.0964
   46CHOL    R1  409   2.539   7.086   7.958 -0.2027 -0.2234  0.0943
   46CHOL    R2  410   2.279   7.175   7.980 -0.2099 -0.2368  0.1027
   46CHOL    R3  411   2.361   7.363   7.802 -0.1977 -0.1761  0.1735
   46CHOL    R4  412   2.085   7.302   7.724 -0.1141 -0.3155 -0.0091
   46CHOL    R5  413   2.261   7.297   7.595 -0.0297 -0.2088  0.1029
   46CHOL    C1  414   2.049   7.553   7.408 -0.0468 -0.3043 -0.0078
   46CHOL    C2  415   1.875   7.706   7.150 -0.4704 -0.0440  0.0379
   47XCA    COO  416   7.265   2.588   7.057 -0.2207 -0.0459 -0.3642
   47XCA     C1  417   7.127   2.676   6.609 -0.2825 -0.1111  0.1652
   47XCA     C2  418   6.718   2.529   6.452  0.1005  0.0966 -0.1110
   47XCA     C3  419   6.684   2.229   6.111  0.1204 -0.0488 -0.0062
   47XCA     C4  420   6.551   1.813   5.905  0.0128 -0.1038 -0.0545
   47XCA     C5  421   6.360   1.758   5.494 -0.0696  0.1067  0.0120
   47XCA     C6  422   6.443   2.075   5.197 -0.1760  0.0958  0.0881
   48CHOL   ROH  423   3.531   2.232   7.900 -0.4293 -0.4558  0.0992
   48CHOL    R1  424   3.427   2.190   7.640 -0.2210 -0.2067 -0.0308
   48CHOL    R2  425   3.275   2.381   7.508 -0.1008 -0.0662  0.0140
   48CHOL    R3  426   3.462   2.347   7.314  0.0629  0.0994  0.1424
   48CHOL    R4  427   3.251   2.504   7.186 -0.0803 -0.2599 -0.0610
   48CHOL    R5  428   3.336   2.318   7.113  0.2251 -0.1770  0.0806
   48CHOL    C1  429   3.413   2.544   6.817  0.0852 -0.2172  0.0159
   48CHOL    C2  430   3.169   2.778   6.615 -0.2515  0.1341 -0.0022
   49PNCE   AM1  431   0.712   4.045   8.745 -0.0243  0.0511  0.3736
   49PNCE   AM2  432   0.454   3.964   8.572 -0.1036  0.0873 -0.0894
   49PNCE   T1A  433   0.590   4.499   8.562 -0.0068  0.0228 -0.1300
   49PNCE   C2A  434   0.634   4.830   8.349 -0.1785  0.0869 -0.1085
   49PNCE   C3A  435   0.543   5.242   8.246 -0.1548  0.1383  0.0009
   49PNCE   C1B  436   0.384   3.904   8.187  0.0105  0.2101 -0.1344
   49PNCE   C2B  437   0.187   4.004   7.798  0.2794 -0.4020  0.1292
   49PNCE   C3B  438   0.105   4.213   7.404 -0.1676 -0.3588 -0.1659
   49PNCE   D4B  439   0.205   4.584   7.153 -0.0220  0.1522 -0.0300
   49PNCE   C5B  440   0.333   4.585   6.757  0.2913  0.3259 -0.0670
   49PNCE   C6B  441   0.341   4.462   6.413 -0.0908  0.2438 -0.0778
   50PNCE   AM1  442   9.165  13.201   9.351  0.1719 -0.1969  0.0256
   50PNCE   AM2  443   9.068  13.594   9.363  0.1224  0.0498 -0.2355
   50PNCE   T1A  444   8.771  13.160   9.129 -0.1589  0.1449 -0.2293
   50PNCE   C2A  445   8.666  13.180   8.766  0.0220 -0.4961  0.3370
   50PNCE   C3A  446   8.555  13.478   8.463 -0.3365  0.2549  0.2238
   50PNCE   C1B  447   9.412  13.658   8.961 -0.1488  0.1949 -0.1509
   50PNCE   C2B  448   9.717  13.483   8.661 -0.0384 -0.0330  0.0588
   50PNCE   C3B  449   9.589  13.251   8.335 -0.1325 -0.2179 -0.1252
   50PNCE   D4B  450   9.580  13.073   7.986 -0.2225 -0.2558  0.1752
   50PNCE   C5B  451   9.146  13.056   7.940 -0.1231  0.2071  0.1006
   50PNCE   C6B  452   9.028  13.149   7.584  0.4369  0.0433 -0.0778
   51CHOL   ROH  453  13.792   6.919   7.337  0.0194 -0.0216 -0.0930
   51CHOL    R1  454  13.930   6.846   7.573  0.0947  0.0429 -0.1175
   51CHOL    R2  455  14.205   6.845   7.590  0.0954  0.2492 -0.1424
   51CHOL    R3  456  14.161   7.007   7.804 -0.0056  0.1789 -0.1086
   51CHOL    R4  457  14.409   6.864   7.869  0.0700  0.2889 -0.1258
   51CHOL    R5  458  14.229   6.876   7.993  0.0509  0.1672 -0.1334
   51CHOL    C1  459  14.485   7.027   8.232 -0.0398  0.2461 -0.0845
   51CHOL    C2  460  14.442   6.931   8.655  0.1878 -0.0066 -0.0683
   52PNCE   AM1  461   8.513   1.864   7.155 -0.2312  0.0522 -0.2218
   52PNCE   AM2  462   8.837   1.879   7.113 -0.4219  0.2085  0.2880
   52PNCE   T1A  463   8.823   1.409   7.174  0.1468  0.3757 -0.0023
   52PNCE   C2A  464   9.068   1.256   6.922 -0.1063  0.0835 -0.2671
   52PNCE   C3A  465   9.136   0.766   6.769  0.0072  0.1137 -0.2535
   52PNCE   C1B  466   9.127   1.729   6.836 -0.1327 -0.3244  0.4246
   52PNCE   C2B  467   9.267   1.574   6.541 -0.2451 -0.2990  0.1955
   52PNCE   C3B  468   9.632   1.453   6.221  0.3612 -0.1166 -0.0094
   52PNCE   D4B  469   9.799   1.769   5.922 -0.2109 -0.0510  0.0965
   52PNCE   C5B  470   9.596   1.721   5.501  0.2936 -0.2268  0.4117
   52PNCE   C6B  471   9.177   1.793   5.345  0.1590  0.0301  0.1638
   53PNCE   AM1  472   2.584  12.252   8.810  0.1507 -0.0406 -0.1029
   53PNCE   AM2  473   2.458  12.100   8.517 -0.0148 -0.2965 -0.1472
   53PNCE   T1A  474   2.780  12.545   8.509 -0.0996 -0.3702 -0.4184
   53PNCE   C2A  475   3.164  12.814   8.439  0.0259  0.0259 -0.0866
   53PNCE   C3A  476   3.464  12.990   8.286 -0.2312  0.1639 -0.0329
   53PNCE   C1B  477   2.452  12.259   8.043 -0.1994 -0.2421 -0.1641
   53PNCE   C2B  478   2.410  12.532   7.792  0.0972  0.0136  0.1344
   53PNCE   C3B  479   2.454  12.557   7.359 -0.1357  0.3006  0.1612
   53PNCE   D4B  480   2.840  12.607   6.976 -0.1335  0.2918  0.0378
   53PNCE   C5B  481   2.997  12.922   6.660  0.2998 -0.1810  0.1673
   53PNCE   C6B  482   3.313  13.250   6.503  0.2683 -0.1297  0.3307
   54CHOL   ROH  483  11.023  14.945   6.213  0.0262 -0.1850 -0.0511
   54CHOL    R1  484  11.121  14.771   6.415  0.0975  0.0364  0.1091
   54CHOL    R2  485  11.055  14.801   6.681 -0.1778  0.0626  0.0433
   54CHOL    R3  486  10.978  14.541   6.658  0.2041 -0.0599  0.0805
   54CHOL    R4  487  10.981  14.594   6.947 -0.4683  0.1799  0.0573
   54CHOL    R5  488  11.084  14.432   6.843 -0.0349  0.2233  0.3959
   54CHOL    C1  489  10.865  14.229   7.081 -0.2789  0.1330  0.1003
   54CHOL    C2  490  10.777  13.954   7.222 -0.2942  0.0651 -0.1251
   55XCA    COO  491   0.424  10.262   8.859 -0.3479  0.1647  0.3424
   55XCA     C1  492   0.329  10.235   8.449 -0.1799  0.0380  0.0292
   55XCA     C2  493   0.329  10.269   7.989 -0.4109  0.3211  0.0150
   55XCA     C3  494   0.512  10.006   7.725 -0.0080  0.2231 -0.2054
   55XCA     C4  495   0.393   9.895   7.390  0.0124  0.0320  0.0175
   55XCA     C5  496   0.398   9.492   7.287 -0.2122  0.4194  0.0416
   55XCA     C6  497   0.457   9.240   7.103 -0.0708  0.0724 -0.1726
   56XCA    COO  498  14.134   4.247   9.557 -0.2631  0.2587  0.2086
   56XCA     C1  499  14.090   4.438   9.133  0.1225 -0.2238 -0.0316
   56XCA     C2  500  14.089   4.473   8.702  0.0012  0.1216 -0.0515
   56XCA     C3  501  14.068   4.435   8.199 -0.2372 -0.3199  0.2716
   56XCA     C4  502  14.204   4.410   7.718  0.0222 -0.0364 -0.1956
   56XCA     C5  503  13.973   4.497   7.301  0.0726  0.1153 -0.0520
   56XCA     C6  504  13.779   4.445   6.990 -0.2057 -0.0829  0.0358
   57CHOL   ROH  505   9.897   0.265   4.961  0.0135  0.0503  0.0165
   57CHOL    R1  506   9.794   0.407   5.183  0.0890  0.0364  0.0615
   57CHOL    R2  507   9.647   0.285   5.382 -0.1728  0.0878 -0.0918
   57CHOL    R3  508   9.833   0.398   5.545 -0.0982 -0.2650  0.0774
   57CHOL    R4  509   9.587   0.394   5.705 -0.3167  0.3749 -0.2115
   57CHOL    R5  510   9.713   0.568   5.664  0.1400  0.0750 -0.1482
   57CHOL    C1  511   9.728   0.563   6.046 -0.3305  0.2108 -0.1223
   57CHOL    C2  512   9.494   0.501   6.347  0.0234  0.0988  0.0451
   58CHOL   ROH  513   0.319  14.468   8.306  0.0643  0.0464 -0.0369
   58CHOL    R1  514   0.473  14.332   8.111 -0.1645 -0.2091 -0.0456
   58CHOL    R2  515   0.361  14.158   7.927 -0.4987  0.1438 -0.1917
   58CHOL    R3  516   0.488  14.318   7.748 -0.0475 -0.0385 -0.0474
   58CHOL    R4  517   0.386  14.093   7.589 -0.5841  0.3198 -0.2329
   58CHOL    R5  518   0.592  14.165   7.596 -0.3937 -0.2007 -0.1290
   58CHOL    C1  519   0.521  14.205   7.223 -0.2102  0.2508 -0.1216
   58CHOL    C2  520   0.584  14.334   6.860 -0.0715  0.0032 -0.0611
   59CHOL   ROH  521   2.461   7.542   5.025 -0.2821 -0.1349  0.0037
   59CHOL    R1  522   2.459   7.369   5.249 -0.0550  0.1100  0.2001
   59CHOL    R2  523   2.575   7.118   5.244 -0.4197 -0.0535  0.2076
   59CHOL    R3  524   2.706   7.210   5.464  0.1874 -0.0054 -0.1500
   59CHOL    R4  525   2.705   6.919   5.496 -0.6115  0.0062  0.3589
   59CHOL    R5  526   2.635   7.066   5.641  0.0153  0.4963  0.2256
   59CHOL    C1  527   2.903   6.891   5.848 -0.1533  0.0861  0.1114
   59CHOL    C2  528   3.076   6.631   5.944 -0.1222 -0.0920 -0.1688
   60PNCE   AM1  529  13.726  14.981   8.444  0.0993  0.0775  0.1731
   60PNCE   AM2  530  13.594  15.337   8.494  0.0880  0.1665 -0.2543
   60PNCE   T1A  531  13.793  14.802   8.072 -0.0114  0.2267 -0.0078
   60PNCE   C2A  532  13.825  14.661   7.614  0.1699  0.0875 -0.1586
   60PNCE   C3A  533  14.067  14.840   7.316  0.0402  0.0829  0.0967
   60PNCE   C1B  534  13.469  15.396   8.120 -0.0991 -0.2379  0.2502
   60PNCE   C2B  535  13.285  15.100   7.821 -0.0522 -0.2109  0.5408
   60PNCE   C3B  536  13.029  14.746   7.782  0.4766  0.1667  0.2898
   60PNCE   D4B  537  12.930  14.349   7.620  0.1010  0.0986 -0.1907
   60PNCE   C5B  538  12.959  14.142   7.264 -0.1467  0.2322 -0.1489
   60PNCE   C6B  539  12.957  13.691   7.175  0.3364 -0.3436 -0.2329
   61PNCE   AM1  540  12.964   2.880   8.950  0.1195  0.0288 -0.4092
   61PNCE   AM2  541  12.708   3.053   8.975 -0.1096  0.3632  0.2855
   61PNCE   T1A  542  12.930   2.694   8.515 -0.2395  0.3847 -0.0623
   61PNCE   C2A  543  13.065   2.584   8.167  0.0462 -0.0890  0.1457
   61PNCE   C3A  544  13.197   2.461   7.740 -0.1108  0.0456  0.1194
   61PNCE   C1B  545  12.892   3.316   8.699  0.2616 -0.0068  0.0549
   61PNCE   C2B  546  13.106   3.573   8.381  0.1732 -0.0383 -0.0511
   61PNCE   C3B  547  13.045   3.552   7.920 -0.1040 -0.1266 -0.2128
   61PNCE   D4B  548  12.933   3.748   7.620 -0.0436  0.3247 -0.0144
   61PNCE   C5B  549  12.698   4.107   7.630  0.3233  0.0428 -0.1544
   61PNCE   C6B  550  12.556   4.413   7.894  0.0691  0.0549 -0.3029
   62PNCE   AM1  551   3.641  12.183   9.033 -0.2970  0.0634  0.1263
   62PNCE   AM2  552   3.378  12.049   9.073 -0.0831 -0.3474 -0.2238
   62PNCE   T1A  553   3.825  12.219   8.680 -0.1646  0.1788 -0.0229
   62PNCE   C2A  554   3.943  12.163   8.247  0.2510 -0.1985 -0.2282
   62PNCE   C3A  555   4.184  12.503   7.961 -0.0113  0.0802  0.0690
   62PNCE   C1B  556   3.445  11.839   8.654 -0.2817  0.1486  0.1838
   62PNCE   C2B  557   3.362  11.813   8.230 -0.3428  0.1997  0.0851
   62PNCE   C3B  558   3.687  11.814   7.992  0.4627 -0.2706 -0.3808
   62PNCE   D4B  559   3.820  12.121   7.741 -0.2160  0.3298 -0.1147
   62PNCE   C5B  560   3.727  12.041   7.322  0.4161 -0.0799 -0.0280
   62PNCE   C6B  561   3.984  12.116   7.002  0.1534  0.3025  0.1643
   63PNCE   AM1  562  13.091   8.906   5.736  0.1072 -0.0657 -0.0493
   63PNCE   AM2  563  12.934   9.082   5.982  0.0442 -0.0237 -0.0583
   63PNCE   T1A  564  13.360   9.244   5.999 -0.3979 -0.2276  0.1663
   63PNCE   C2A  565  13.569   9.613   6.173  0.2266 -0.1695  0.1251
   63PNCE   C3A  566  13.542   9.999   6.056  0.2929 -0.0798  0.1432
   63PNCE   C1B  567  12.814   8.903   6.335  0.0411 -0.0831 -0.0791
   63PNCE   C2B  568  12.980   8.856   6.796  0.3027  0.0853  0.1103
   63PNCE   C3B  569  13.058   9.035   7.115  0.0598 -0.0474  0.1501
   63PNCE   D4B  570  13.171   9.395   7.478  0.1670  0.1421 -0.0932
   63PNCE   C5B  571  13.089   9.406   7.909  0.2391  0.0400 -0.1104
   63PNCE   C6B  572  12.968   9.355   8.306 -0.1350  0.0003  0.2085
   64PNCE   AM1  573   5.219  11.094   5.066 -0.0071 -0.0852  0.3223
   64PNCE   AM2  574   5.591  11.335   4.995  0.1819 -0.0243  0.1163
   64PNCE   T1A  575   5.201  11.158   5.493 -0.0268 -0.2354  0.0723
   64PNCE   C2A  576   5.128  11.239   5.935  0.0097 -0.1317 -0.0292
   64PNCE   C3A  577   5.158  11.191   6.384 -0.2899 -0.1702 -0.1531
   64PNCE   C1B  578   5.670  11.319   5.444  0.1048  0.0796  0.1551
   64PNCE   C2B  579   5.581  11.104   5.900 -0.1666 -0.0810 -0.0314
   64PNCE   C3B  580   5.666  11.017   6.318  0.0419 -0.0756 -0.0894
   64PNCE   D4B  581   5.880  10.879   6.722 -0.1113 -0.0784  0.0017
   64PNCE   C5B  582   5.561  10.457   6.827  0.1275 -0.4607  0.0657
   64PNCE   C6B  583   5.560   9.964   6.877 -0.1567  0.2858 -0.0673
   65PNCE   AM1  584   5.815   6.528   8.308 -0.2128  0.0741 -0.0967
   65PNCE   AM2  585   5.887   6.373   7.919 -0.0944 -0.0514  0.1436
   65PNCE   T1A  586   5.860   6.889   7.967  0.0497 -0.3793  0.2530
   65PNCE   C2A  587   6.048   7.199   7.687  0.0342 -0.1073 -0.1303
   65PNCE   C3A  588   6.296   7.216   7.330 -0.0049  0.0881  0.1821
   65PNCE   C1B  589   5.669   6.448   7.561  0.4251  0.0724 -0.2178
   65PNCE   C2B  590   5.778   6.389   7.202  0.1008  0.0588 -0.1089
   65PNCE   C3B  591   5.662   6.550   6.813 -0.3357 -0.1698  0.1346
   65PNCE   D4B  592   5.610   6.536   6.384 -0.0095 -0.1035  0.1203
   65PNCE   C5B  593   5.520   6.777   6.149 -0.2931  0.2787 -0.0155
   65PNCE   C6B  594   5.592   7.076   5.968  0.0139  0.2125  0.0519
   66CHOL   ROH  595   5.455   1.616   5.764  0.1441 -0.0867 -0.1030
   66CHOL    R1  596   5.196   1.504   5.778  0.1741 -0.1278  0.1819
   66CHOL    R2  597   5.040   1.517   6.006  0.2998  0.1186  0.2577
   66CHOL    R3  598   4.857   1.625   5.836  0.1809 -0.1288  0.2237
   66CHOL    R4  599   4.705   1.562   6.078  0.2622 -0.1585  0.2677
   66CHOL    R5  600   4.657   1.499   5.875  0.3000 -0.2976  0.3011
   66CHOL    C1  601   4.339   1.690   5.960  0.1286 -0.5521  0.2417
   66CHOL    C2  602   3.993   1.617   5.923  0.0097  0.0428 -0.0182
   67PNCE   AM1  603   2.484   6.138   8.362 -0.1219  0.0402  0.1439
   67PNCE   AM2  604   2.464   5.836   8.577 -0.4544 -0.1945 -0.0097
   67PNCE   T1A  605   2.391   6.612   8.351 -0.0583 -0.0041  0.4769
   67PNCE   C2A  606   2.064   6.896   8.284  0.1930  0.1075  0.3295
   67PNCE   C3A  607   1.805   7.010   7.988  0.0477  0.1999 -0.3387
   67PNCE   C1B  608   2.027   5.891   8.399 -0.3998 -0.1244  0.0226
   67PNCE   C2B  609   1.905   5.818   7.975  0.0056  0.0198 -0.1779
   67PNCE   C3B  610   2.011   5.772   7.569 -0.3691  0.4365  0.1447
   67PNCE   D4B  611   1.878   5.476   7.307  0.0359  0.0383 -0.2357
   67PNCE   C5B  612   1.783   5.588   6.984 -0.1202 -0.0374 -0.1602
   67PNCE   C6B  613   1.930   5.501   6.529 -0.3482 -0.0320 -0.3296
   68CHOL   ROH  614  14.082   8.154   5.382  0.1828  0.0801  0.0116
   68CHOL    R1  615  14.120   8.177   5.662  0.1105  0.1174  0.0179
   68CHOL    R2  616  13.947   8.319   5.824 -0.0153  0.0100 -0.0261
   68CHOL    R3  617  13.935   8.085   5.962  0.1099  0.0092 -0.0139
   68CHOL    R4  618  13.995   8.288   6.165 -0.2453  0.0979  0.0165
   68CHOL    R5  619  14.107   8.105   6.128 -0.0315  0.2002  0.1182
   68CHOL    C1  620  14.012   8.051   6.493 -0.2617  0.1484  0.0527
   68CHOL    C2  621  14.345   8.202   6.801 -0.2490  0.0023 -0.0136
   69CHOL   ROH  622   5.810  14.792   7.365 -0.0611 -0.1398  0.1522
   69CHOL    R1  623   6.044  14.940   7.308 -0.1212 -0.1399 -0.1017
   69CHOL    R2  624   6.270  14.930   7.468 -0.0816  0.1452 -0.1407
   69CHOL    R3  625   6.393  14.864   7.235 -0.1136 -0.1263 -0.0853
   69CHOL    R4  626   6.604  14.985   7.397 -0.0990  0.1045 -0.2591
   69CHOL    R5  627   6.547  15.043   7.195 -0.1421 -0.1475 -0.3274
   69CHOL    C1  628   6.913  14.955   7.136 -0.1393 -0.1740 -0.2760
   69CHOL    C2  629   7.297  15.214   7.259  0.2248 -0.0162 -0.1253
   70PNCE   AM1  630   8.256  15.423   8.566 -0.0259  0.0190  0.1689
   70PNCE   AM2  631   8.077  15.689   8.477  0.2564 -0.2600 -0.2167
   70PNCE   T1A  632   8.331  15.329   8.214 -0.1017 -0.1086  0.2105
   70PNCE   C2A  633   8.266  15.333   7.739  0.3050 -0.0277 -0.1497
   70PNCE   C3A  634   8.226  15.453   7.275 -0.1880 -0.1882  0.3622
   70PNCE   C1B  635   7.975  15.800   8.121 -0.1787  0.0155 -0.1618
   70PNCE   C2B  636   7.818  15.797   7.731  0.2537 -0.1839 -0.4172
   70PNCE   C3B  637   7.805  15.805   7.291  0.2104  0.0201  0.2834
   70PNCE   D4B  638   7.923  15.961   6.945  0.2527 -0.1200 -0.2911
   70PNCE   C5B  639   8.179  15.673   6.685  0.1275 -0.1644  0.0915
   70PNCE   C6B  640   8.221  15.454   6.341 -0.2595 -0.1281 -0.2788
   71PNCE   AM1  641   6.276   1.181   7.486 -0.3408  0.0458  0.1555
   71PNCE   AM2  642   5.971   1.121   7.609  0.0564  0.1444  0.0140
   71PNCE   T1A  643   6.162   0.968   7.134  0.4110  0.0873  0.2607
   71PNCE   C2A  644   6.008   0.720   6.840  0.1208  0.0599  0.1337
   71PNCE   C3A  645   6.045   0.243   6.951 -0.2469 -0.1197 -0.0438
   71PNCE   C1B  646   5.798   0.737   7.418  0.2266 -0.5161 -0.2066
   71PNCE   C2B  647   5.621   0.406   7.164 -0.2175 -0.0006  0.2974
   71PNCE   C3B  648   5.582   0.332   6.775 -0.2338 -0.1249 -0.3095
   71PNCE   D4B  649   5.721   0.070   6.440  0.1101 -0.3565  0.2191
   71PNCE   C5B  650   5.599  -0.190   6.058 -0.0395 -0.0750 -0.2008
   71PNCE   C6B  651   5.311  -0.373   5.974  0.0632  0.2685  0.0593
   72PNCE   AM1  652  14.646  13.216   8.650 -0.2016 -0.3508  0.0325
   72PNCE   AM2  653  14.451  13.101   8.876 -0.3245  0.2126  0.0683
   72PNCE   T1A  654  14.593  13.303   8.252  0.0700  0.1332 -0.0235
   72PNCE   C2A  655  14.559  13.075   7.881 -0.2957  0.0348 -0.1559
   72PNCE   C3A  656  14.703  12.800   7.580  0.0200  0.1340  0.1093
   72PNCE   C1B  657  14.255  12.978   8.405 -0.3345 -0.1540 -0.0501
   72PNCE   C2B  658  14.170  12.724   8.056 -0.0064 -0.1800  0.1468
   72PNCE   C3B  659  14.161  12.604   7.614 -0.1012  0.1535 -0.0140
   72PNCE   D4B  660  14.308  12.713   7.196 -0.0400 -0.1291  0.2024
   72PNCE   C5B  661  14.075  12.688   6.863 -0.0433  0.2920 -0.1153
   72PNCE   C6B  662  14.055  12.330   6.558  0.0189  0.0302 -0.1020
   73CHOL   ROH  663   2.393  13.327   5.164  0.0416 -0.1377  0.0848
   73CHOL    R1  664   2.568  13.188   5.338 -0.0826 -0.1961  0.1653
   73CHOL    R2  665   2.760  13.316   5.489  0.2194 -0.3010 -0.1135
   73CHOL    R3  666   2.640  13.186   5.695  0.1155  0.1635  0.1317
   73CHOL    R4  667   2.928  13.155   5.745  0.0988 -0.3067 -0.0384
   73CHOL    R5  668   2.779  12.995   5.734 -0.2087 -0.0535  0.2589
   73CHOL    C1  669   2.912  12.939   6.088 -0.0690  0.1261  0.2356
   73CHOL    C2  670   3.083  12.645   6.243  0.2467  0.1685  0.3748
   74CHOL   ROH  671   8.824   7.596   9.091  0.2019  0.0453  0.2119
   74CHOL    R1  672   8.923   7.806   8.929  0.0137  0.0824  0.1432
   74CHOL    R2  673   9.157   7.785   8.783 -0.0425  0.1947  0.0411
   74CHOL    R3  674   8.996   7.857   8.577 -0.1734  0.0871  0.1031
   74CHOL    R4  675   9.261   7.830   8.457 -0.1912  0.2765  0.0031
   74CHOL    R5  676   9.131   8.004   8.444 -0.3217  0.1882  0.0564
   74CHOL    C1  677   9.172   7.925   8.073 -0.4007  0.2232  0.0392
   74CHOL    C2  678   8.976   8.015   7.715  0.0121 -0.1060  0.2089
   75PNCE   AM1  679   2.734   9.588   8.301  0.0175 -0.0305  0.0654
   75PNCE   AM2  680   2.963   9.311   8.129 -0.2344  0.0969 -0.2359
   75PNCE   T1A  681   2.740  10.018   8.246 -0.0030  0.1891  0.2933
   75PNCE   C2A  682   2.776  10.506   8.130  0.0494  0.1928  0.1339
   75PNCE   C3A  683   3.027  10.898   8.179  0.0340  0.0007  0.0201
   75PNCE   C1B  684   2.813   9.669   7.850 -0.0704 -0.0732 -0.1175
   75PNCE   C2B  685   2.669  10.023   7.744 -0.2513  0.3987 -0.0578
   75PNCE   C3B  686   2.535  10.456   7.694 -0.0368 -0.1812  0.0031
   75PNCE   D4B  687   2.561  10.818   7.682  0.1091  0.1696 -0.0654
   75PNCE   C5B  688   2.490  11.077   8.151  0.0561  0.0984 -0.2280
   75PNCE   C6B  689   2.630  11.151   8.562 -0.2640 -0.0605 -0.0123
   76XCA    COO  690   9.813   7.207   5.645 -0.0025 -0.1387  0.0880
   76XCA     C1  691   9.609   6.975   5.975  0.0485  0.0612  0.1834
   76XCA     C2  692   9.681   6.843   6.362 -0.4082  0.0076 -0.0585
   76XCA     C3  693   9.663   6.663   6.727  0.0477 -0.0953  0.3578
   76XCA     C4  694   9.355   6.751   6.911 -0.1614  0.0229  0.2211
   76XCA     C5  695   9.109   7.131   7.040 -0.2644 -0.1359 -0.1527
   76XCA     C6  696   8.824   7.364   6.879 -0.1621  0.3973  0.0260
   77CHOL   ROH  697   9.717   5.940   8.093 -0.0916 -0.1250  0.0489
   77CHOL    R1  698   9.775   5.810   7.848 -0.0646  0.0174 -0.0218
   77CHOL    R2  699   9.982   5.889   7.683 -0.0104  0.0795  0.0740
   77CHOL    R3  700  10.057   5.628   7.706 -0.0709  0.0482 -0.0733
   77CHOL    R4  701  10.227   5.736   7.493  0.0475  0.1648  0.0793
   77CHOL    R5  702  10.100   5.559   7.481  0.0188  0.1964 -0.1025
   77CHOL    C1  703  10.439   5.402   7.404  0.0244  0.1850 -0.0560
   77CHOL    C2  704  10.789   5.226   7.266  0.1030  0.0174  0.0847
   78PNCE   AM1  705  10.112  12.661   9.442  0.0224 -0.0194  0.4659
   78PNCE   AM2  706   9.911  12.700   9.569  0.0606  0.1294  0.2178
   78PNCE   T1A  707  10.386  12.312   9.317  0.0722 -0.1024 -0.1537
   78PNCE   C2A  708  10.594  11.988   9.192 -0.0840  0.1611  0.0112
   78PNCE   C3A  709  10.653  11.949   8.751  0.0002  0.1337  0.3028
   78PNCE   C1B  710   9.716  12.775   9.244 -0.0351  0.0609  0.1199
   78PNCE   C2B  711   9.750  12.698   8.848  0.2633 -0.0249 -0.1033
   78PNCE   C3B  712   9.577  12.787   8.420  0.1977  0.4014  0.3154
   78PNCE   D4B  713   9.833  12.668   8.021 -0.0918 -0.2854 -0.0543
   78PNCE   C5B  714  10.359  12.731   8.080 -0.0404  0.0353  0.3018
   78PNCE   C6B  715  10.668  12.477   8.144  0.0490 -0.0698 -0.1638
   79XCA    COO  716   3.947   0.190   8.097 -0.1665  0.0723 -0.1041
   79XCA     C1  717   4.008   0.273   7.651 -0.2546  0.3875 -0.2656
   79XCA     C2  718   4.050  -0.035   7.291 -0.0792  0.0447 -0.1368
   79XCA     C3  719   4.257  -0.243   6.922 -0.0179  0.1687 -0.3690
   79XCA     C4  720   4.588  -0.237   6.617 -0.2545  0.1034  0.0204
   79XCA     C5  721   4.752  -0.188   6.157 -0.1115 -0.1965  0.0041
   79XCA     C6  722   4.751  -0.300   5.783  0.0142 -0.3866 -0.0692
   80PNCE   AM1  723   2.892   1.178   7.801 -0.1053 -0.0894  0.1802
   80PNCE   AM2  724   3.120   1.386   7.760  0.2623 -0.0725 -0.0944
   80PNCE   T1A  725   2.706   1.038   7.367 -0.2532  0.1642 -0.6569
   80PNCE   C2A  726   2.802   0.954   6.934  0.2791  0.0964 -0.3410
   80PNCE   C3A  727   3.105   1.030   6.588  0.4830  0.2638  0.1170
   80PNCE   C1B  728   2.806   1.533   7.393  0.2028  0.2088  0.0248
   80PNCE   C2B  729   2.819   1.885   7.032 -0.0371  0.0716 -0.2106
   80PNCE   C3B  730   2.501   1.852   6.561 -0.1013  0.2381 -0.0344
   80PNCE   D4B  731   2.233   1.730   6.346  0.0897 -0.0600  0.2296
   80PNCE   C5B  732   2.061   1.328   6.284  0.2262  0.1976  0.3766
   80PNCE   C6B  733   2.032   1.058   5.912 -0.2101  0.0596 -0.3369
   81XCA    COO  734  13.026   7.679   9.288  0.1919 -0.0727 -0.0929
   81XCA     C1  735  13.005   7.860   8.899 -0.0169  0.2577  0.0495
   81XCA     C2  736  12.700   7.699   8.704  0.0432 -0.2246 -0.0779
   81XCA     C3  737  12.361   7.766   8.447  0.1938 -0.2235  0.0280
   81XCA     C4  738  12.000   7.844   8.375 -0.0367 -0.0458 -0.3098
   81XCA     C5  739  11.609   7.851   8.197 -0.3082 -0.2642  0.0759
   81XCA     C6  740  11.525   7.879   7.725  0.0348 -0.0654  0.2831
   82CHOL   ROH  741   8.020   9.370   7.602  0.1743  0.0264  0.2262
   82CHOL    R1  742   8.254   9.527   7.577  0.1755  0.0364  0.3019
   82CHOL    R2  743   8.428   9.570   7.788  0.2496 -0.1861  0.2852
   82CHOL    R3  744   8.612   9.474   7.613  0.1862 -0.0227  0.1258
   82CHOL    R4  745   8.770   9.595   7.829  0.2640 -0.1045  0.1235
   82CHOL    R5  746   8.787   9.638   7.616  0.1375  0.0333  0.1358
   82CHOL    C1  747   9.143   9.520   7.688  0.2128  0.0963 -0.1202
   82CHOL    C2  748   9.268   9.842   7.686  0.0136 -0.0815  0.2159
   83CHOL   ROH  749   7.974  12.095   5.923  0.2547 -0.1797 -0.0839
   83CHOL    R1  750   8.161  12.243   6.076  0.1178 -0.0606 -0.0313
   83CHOL    R2  751   8.136  12.515   6.119 -0.1354 -0.1028  0.0666
   83CHOL    R3  752   8.156  12.442   6.381 -0.0634 -0.1743  0.0431
   83CHOL    R4  753   8.302  12.695   6.363 -0.0239 -0.1853  0.0542
   83CHOL    R5  754   8.377  12.508   6.444 -0.0262 -0.2244 -0.0161
   83CHOL    C1  755   8.416  12.732   6.750  0.1086 -0.3005  0.0250
   83CHOL    C2  756   8.612  13.004   6.951 -0.4424  0.1345  0.0904
   84PNCE   AM1  757   7.176   0.520   7.674 -0.1373  0.1546 -0.2852
   84PNCE   AM2  758   6.795   0.467   7.808  0.0830  0.0799 -0.1853
   84PNCE   T1A  759   7.426   0.462   7.218  0.0131  0.1806  0.1607
   84PNCE   C2A  760   7.383   0.214   6.834 -0.0203  0.1184 -0.3496
   84PNCE   C3A  761   7.555  -0.162   6.699 -0.0114  0.0374 -0.0086
   84PNCE   C1B  762   6.823   0.357   7.368 -0.1611 -0.1926  0.2559
   84PNCE   C2B  763   6.877   0.302   6.994 -0.0889  0.1324  0.2372
   84PNCE   C3B  764   6.797   0.047   6.701  0.0243  0.0783 -0.0591
   84PNCE   D4B  765   6.780  -0.302   6.516 -0.1647  0.3431 -0.2918
   84PNCE   C5B  766   6.651  -0.721   6.774 -0.1544 -0.2696  0.2219
   84PNCE   C6B  767   6.353  -0.965   6.790 -0.0562  0.1206  0.1094
   85PNCE   AM1  768   6.886  10.484   9.004  0.2189  0.3879 -0.0292
   85PNCE   AM2  769   6.614  10.442   9.046  0.3072  0.1476  0.1049
   85PNCE   T1A  770   7.012  10.945   8.733  0.3215 -0.3662 -0.0957
   85PNCE   C2A  771   6.908  11.392   8.705  0.2974 -0.0054 -0.4474
   85PNCE   C3A  772   6.986  11.735   8.447 -0.0724  0.0983 -0.2900
   85PNCE   C1B  773   6.713  10.456   8.549 -0.2878 -0.3854  0.0962
   85PNCE   C2B  774   6.647  10.476   8.141 -0.1593 -0.2346 -0.1938
   85PNCE   C3B  775   6.691  10.402   7.789 -0.1601  0.1074 -0.1458
   85PNCE   D4B  776   7.126  10.421   7.648 -0.2587 -0.1340 -0.1217
   85PNCE   C5B  777   6.942  10.764   7.443  0.2670 -0.2199  0.0931
   85PNCE   C6B  778   6.616  11.089   7.293 -0.2519 -0.3624  0.1161
   86CHOL   ROH  779   7.653   6.508   4.136  0.0201  0.0941  0.1176
   86CHOL    R1  780   7.563   6.270   4.261 -0.0945  0.0292 -0.0843
   86CHOL    R2  781   7.530   6.033   4.122  0.1564  0.0647 -0.2123
   86CHOL    R3  782   7.693   5.935   4.316 -0.0840  0.0451 -0.0148
   86CHOL    R4  783   7.582   5.698   4.185  0.0575  0.0592 -0.1585
   86CHOL    R5  784   7.578   5.742   4.399 -0.1984  0.0512 -0.1597
   86CHOL    C1  785   7.765   5.410   4.404 -0.2258  0.0377  0.0584
   86CHOL    C2  786   8.134   5.089   4.408  0.0301 -0.0067  0.0790
   87PNCE   AM1  787   7.566   9.373   9.145  0.0182 -0.0502  0.1186
   87PNCE   AM2  788   7.917   9.319   9.269  0.0930  0.3090 -0.1395
   87PNCE   T1A  789   7.372   9.107   8.763 -0.0659 -0.3485 -0.0052
   87PNCE   C2A  790   7.426   8.944   8.260 -0.1189  0.1164 -0.2475
   87PNCE   C3A  791   7.198   9.114   7.936 -0.0357 -0.1990 -0.1214
   87PNCE   C1B  792   8.034   9.343   8.823  0.2565 -0.1489  0.2861
   87PNCE   C2B  793   8.102   9.595   8.507 -0.0117  0.3864 -0.0103
   87PNCE   C3B  794   7.975   9.901   8.286  0.1550  0.2813  0.3299
   87PNCE   D4B  795   8.211  10.376   8.141 -0.0026  0.4238 -0.1891
   87PNCE   C5B  796   8.184  10.433   7.763 -0.4149 -0.1953  0.0251
   87PNCE   C6B  797   8.044  10.475   7.294  0.2038  0.1990  0.0194
   88XCA    COO  798   8.254  14.600   4.401  0.1909  0.0679 -0.2598
   88XCA     C1  799   8.561  14.680   4.717 -0.0308 -0.2077 -0.1293
   88XCA     C2  800   8.640  14.832   5.058  0.0099 -0.2324  0.0335
   88XCA     C3  801   8.402  15.133   5.203  0.2555  0.0346  0.2218
   88XCA     C4  802   8.298  15.295   5.498 -0.0486 -0.2054 -0.2988
   88XCA     C5  803   8.037  15.358   5.825 -0.0903 -0.2723  0.1371
   88XCA     C6  804   7.755  15.400   6.178  0.3161 -0.1677 -0.0400
   89CHOL   ROH  805  13.339  14.507   5.423  0.1517  0.2253  0.1589
   89CHOL    R1  806  13.497  14.344   5.593  0.1213  0.1354  0.1014
   89CHOL    R2  807  13.523  14.394   5.864  0.1030  0.0142  0.1235
   89CHOL    R3  808  13.441  14.136   5.886  0.0778  0.0108  0.0063
   89CHOL    R4  809  13.516  14.214   6.159 -0.0007 -0.0860  0.0612
   89CHOL    R5  810  13.589  14.041   6.049  0.0232 -0.0545  0.0212
   89CHOL    C1  811  13.435  13.867   6.351 -0.0846 -0.1472 -0.0851
   89CHOL    C2  812  13.328  13.635   6.509 -0.0545  0.3640  0.2771
   90CHOL   ROH  813   6.803   2.790   5.460  0.1246 -0.2326  0.1191
   90CHOL    R1  814   7.051   2.869   5.350  0.0692 -0.1470  0.0528
   90CHOL    R2  815   7.291   2.831   5.481  0.1088  0.0727  0.0596
   90CHOL    R3  816   7.361   2.706   5.250  0.1570 -0.0239  0.1264
   90CHOL    R4  817   7.612   2.815   5.354  0.0890  0.2465 -0.0147
   90CHOL    R5  818   7.530   2.846   5.155  0.0171  0.0457 -0.0113
   90CHOL    C1  819   7.864   2.688   5.063  0.1227  0.2569  0.0046
   90CHOL    C2  820   8.268   2.737   4.988 -0.1171 -0.2642  0.0205
   91CHOL   ROH  821   6.026  14.429   7.076 -0.0789  0.1853  0.0494
   91CHOL    R1  822   6.221  14.275   6.942 -0.0859  0.1293  0.1035
   91CHOL    R2  823   6.182  14.171   6.689 -0.1257 -0.0345  0.1768
   91CHOL    R3  824   6.414  14.301   6.634 -0.1556 -0.0357  0.0447
   91CHOL    R4  825   6.395  14.093   6.429 -0.2429 -0.0757  0.0925
   91CHOL    R5  826   6.563  14.128   6.562 -0.1818 -0.0438  0.0083
   91CHOL    C1  827   6.736  14.169   6.225 -0.3390 -0.1008 -0.0807
   91CHOL    C2  828   6.749  14.314   5.782 -0.1728  0.4125  0.0315
   92PNCE   AM1  829   3.212   6.214   8.173 -0.0895  0.2144 -0.2490
   92PNCE   AM2  830   2.885   6.535   8.268  0.0909 -0.1207  0.2294
   92PNCE   T1A  831   3.070   6.134   7.684 -0.1733 -0.0109 -0.2781
   92PNCE   C2A  832   3.189   5.994   7.295  0.2180 -0.0802  0.3111
   92PNCE   C3A  833   2.982   5.660   7.103 -0.1179  0.0096  0.0051
   92PNCE   C1B  834   3.059   6.703   7.906  0.2511 -0.0406  0.2869
   92PNCE   C2B  835   2.880   6.605   7.445 -0.4431  0.1418 -0.0289
   92PNCE   C3B  836   2.796   6.579   7.038 -0.0665 -0.0320 -0.1020
   92PNCE   D4B  837   2.622   6.872   6.794 -0.0237  0.1194 -0.0022
   92PNCE   C5B  838   2.123   7.049   6.668 -0.0091  0.1646  0.1313
   92PNCE   C6B  839   1.884   6.793   6.967  0.2705  0.3712  0.0571
   93CHOL   ROH  840  12.362   8.133   9.295 -0.1871 -0.1730 -0.1282
   93CHOL    R1  841  12.431   8.256   9.050 -0.2244 -0.1347 -0.1188
   93CHOL    R2  842  12.616   8.147   8.875 -0.0832  0.0095 -0.0548
   93CHOL    R3  843  12.412   8.171   8.697 -0.0512 -0.1800 -0.1198
   93CHOL    R4  844  12.646   8.107   8.533  0.1591  0.3868 -0.0843
   93CHOL    R5  845  12.512   8.276   8.506 -0.1357  0.1866  0.0221
   93CHOL    C1  846  12.473   8.105   8.167  0.3302  0.4287 -0.1626
   93CHOL    C2  847  12.634   8.084   7.776  0.0907  0.0742  0.0325
   94XCA    COO  848   6.932   0.908   7.403 -0.0121  0.1593 -0.0229
   94XCA     C1  849   7.118   0.774   7.055 -0.0574 -0.0490  0.0242
   94XCA     C2  850   7.489   0.661   6.737  0.2988 -0.2151  0.0678
   94XCA     C3  851   7.753   0.534   6.496  0.0171  0.1826 -0.1988
   94XCA     C4  852   7.941   0.156   6.311 -0.0064 -0.1184  0.0589
   94XCA     C5  853   8.119   0.140   6.024 -0.1349  0.1816  0.1485
   94XCA     C6  854   8.298   0.335   5.632  0.1164 -0.1768 -0.1398
   95CHOL   ROH  855   1.034   0.362   8.259  0.1911  0.0652  0.0087
   95CHOL    R1  856   1.212   0.368   8.038  0.2256 -0.0268  0.0332
   95CHOL    R2  857   1.312   0.138   7.922  0.0740 -0.0822  0.0061
   95CHOL    R3  858   1.211   0.248   7.694  0.1826  0.0322  0.0129
   95CHOL    R4  859   1.426   0.069   7.603 -0.0562 -0.2498 -0.0051
   95CHOL    R5  860   1.404   0.281   7.555  0.2078 -0.2225 -0.0155
   95CHOL    C1  861   1.398   0.132   7.204 -0.0299 -0.2400 -0.0052
   95CHOL    C2  862   1.475  -0.053   6.860 -0.3411  0.0416  0.0296
   96XCA    COO  863  10.319  15.289   9.512 -0.1012  0.2434 -0.1906
   96XCA     C1  864  10.094  15.306   9.080  0.4149  0.2743  0.3571
   96XCA     C2  865  10.143  15.142   8.667 -0.0306  0.0904  0.1398
   96XCA     C3  866  10.269  14.896   8.219  0.0209  0.0767 -0.1017
   96XCA     C4  867  10.575  14.479   8.058  0.1454 -0.0875 -0.0379
   96XCA     C5  868  10.667  14.167   7.791 -0.3352 -0.0309  0.0841
   96XCA     C6  869  10.320  13.887   7.568  0.0744 -0.0866  0.1244
   97PNCE   AM1  870  12.440   1.979   8.509  0.2057  0.2337  0.0273
   97PNCE   AM2  871  12.500   2.216   8.682  0.2384  0.2142 -0.4965
   97PNCE   T1A  872  12.116   1.866   8.153  0.0963  0.0558  0.0242
   97PNCE   C2A  873  12.111   1.667   7.746  0.0350  0.0735  0.1494
   97PNCE   C3A  874  12.340   1.457   7.425  0.1086  0.2727  0.1075
   97PNCE   C1B  875  12.526   2.525   8.309  0.0783 -0.0823  0.4361
   97PNCE   C2B  876  12.694   2.794   7.899 -0.0709  0.1424 -0.2123
   97PNCE   C3B  877  12.748   3.156   7.693 -0.1232  0.0524 -0.1076
   97PNCE   D4B  878  12.912   3.291   7.324 -0.1734  0.1278  0.2781
   97PNCE   C5B  879  13.290   3.209   7.350 -0.0300 -0.1747  0.1319
   97PNCE   C6B  880  13.631   3.196   7.492  0.0023 -0.0912  0.0205
   98PNCE   AM1  881   2.066   3.329   8.301  0.1181  0.2651  0.0623
   98PNCE   AM2  882   2.018   3.001   8.059  0.1372 -0.1731 -0.2696
   98PNCE   T1A  883   1.825   3.599   8.044 -0.4032  0.1422 -0.3593
   98PNCE   C2A  884   1.784   3.972   7.894  0.2890 -0.0030 -0.1231
   98PNCE   C3A  885   1.976   4.315   7.665 -0.0541  0.1409  0.0196
   98PNCE   C1B  886   2.186   2.765   7.624 -0.0378 -0.0688  0.0499
   98PNCE   C2B  887   2.191   2.829   7.161 -0.1254 -0.1148  0.0550
   98PNCE   C3B  888   1.878   2.559   6.908  0.1605 -0.1139 -0.0970
   98PNCE   D4B  889   1.484   2.326   6.893 -0.0878 -0.2032 -0.3024
   98PNCE   C5B  890   1.366   1.981   6.709 -0.0426  0.2257 -0.2336
   98PNCE   C6B  891   1.088   1.661   6.601  0.0018  0.2313 -0.3008
   99PNCE   AM1  892   3.438   3.729   8.038 -0.0534 -0.0268 -0.1582
   99PNCE   AM2  893   3.699   3.550   7.890  0.1448 -0.0106  0.0383
   99PNCE   T1A  894   3.234   3.622   7.581 -0.1155  0.3513  0.0626
   99PNCE   C2A  895   3.304   3.670   7.193  0.0084  0.1927  0.3139
   99PNCE   C3A  896   3.408   4.134   7.048 -0.1993 -0.2549 -0.0901
   99PNCE   C1B  897   4.168   3.564   7.694 -0.0379 -0.0824 -0.1393
   99PNCE   C2B  898   4.197   3.446   7.317 -0.2534  0.3216  0.0157
   99PNCE   C3B  899   4.210   3.542   6.866 -0.0013 -0.0377 -0.0770
   99PNCE   D4B  900   4.135   3.753   6.532  0.0150  0.3502  0.2436
   99PNCE   C5B  901   4.472   3.627   6.279  0.1744 -0.0321 -0.0867
   99PNCE   C6B  902   4.709   3.357   6.104 -0.1895  0.2955  0.0020
  100CHOL   ROH  903   9.059   7.598   6.562  0.2395  0.0713 -0.0989
  100CHOL    R1  904   9.171   7.663   6.814  0.1222 -0.0281 -0.0195
  100CHOL    R2  905   9.397   7.540   6.913  0.1994  0.0789 -0.0570
  100CHOL    R3  906   9.487   7.795   6.937 -0.0140  0.1374  0.1593
  100CHOL    R4  907   9.660   7.637   7.115  0.1690  0.1163 -0.0357
  100CHOL    R5  908   9.546   7.815   7.169  0.0287 -0.0309  0.1638
  100CHOL    C1  909   9.898   7.933   7.255 -0.0490  0.1930  0.1799
  100CHOL    C2  910  10.079   7.678   7.520 -0.1586 -0.1350 -0.0180
  101XCA    COO  911   2.527   3.136   7.514 -0.2102 -0.1470 -0.1226
  101XCA     C1  912   2.509   3.178   7.036  0.4219 -0.1853  0.1191
  101XCA     C2  913   2.455   3.244   6.708  0.0038  0.0133 -0.0598
  101XCA     C3  914   2.500   3.541   6.399 -0.2831  0.1679 -0.0386
  101XCA     C4  915   2.766   3.698   6.127 -0.0849 -0.0104  0.1551
  101XCA     C5  916   3.183   3.671   5.983 -0.2955  0.2414 -0.2386
  101XCA     C6  917   3.535   3.665   6.296 -0.1611 -0.2874 -0.0760
  102PNCE   AM1  918  14.942   7.770   4.914  0.1346  0.0223  0.2677
  102PNCE   AM2  919  15.169   7.460   4.765 -0.2500 -0.0075 -0.2311
  102PNCE   T1A  920  14.928   8.013   5.292 -0.2198  0.1245  0.0864
  102PNCE   C2A  921  15.121   8.221   5.602  0.2411 -0.3821 -0.2013
  102PNCE   C3A  922  15.035   8.163   6.072 -0.1323 -0.0435 -0.0880
  102PNCE   C1B  923  15.323   6.917   4.783 -0.0011 -0.3306  0.2138
  102PNCE   C2B  924  15.621   6.595   5.109  0.3745 -0.0562  0.4666
  102PNCE   C3B  925  15.931   6.362   5.076 -0.2576 -0.1373  0.2295
  102PNCE   D4B  926  16.022   6.087   5.339  0.4023  0.0324 -0.2728
  102PNCE   C5B  927  16.056   6.085   5.792  0.2157 -0.1351  0.1191
  102PNCE   C6B  928  16.049   6.370   6.115 -0.0990  0.0884  0.3625
  103PNCE   AM1  929   6.905   6.346   7.670  0.0620  0.0675 -0.1937
  103PNCE   AM2  930   7.255   6.535   7.922  0.3274 -0.1525  0.1660
  103PNCE   T1A  931   6.891   6.521   7.321  0.0812  0.1447  0.1418
  103PNCE   C2A  932   7.104   6.655   6.989  0.1371  0.1423  0.2353
  103PNCE   C3A  933   6.928   7.045   6.837 -0.0435  0.2718 -0.3787
  103PNCE   C1B  934   7.380   6.803   7.525  0.1674  0.0140 -0.2559
  103PNCE   C2B  935   7.300   7.098   7.282  0.1359  0.0438  0.0538
  103PNCE   C3B  936   7.327   7.362   6.989 -0.0814 -0.0023  0.0660
  103PNCE   D4B  937   7.136   7.564   6.621  0.2522  0.1907 -0.1338
  103PNCE   C5B  938   6.683   7.584   6.657 -0.0024  0.0486  0.2372
  103PNCE   C6B  939   6.230   7.739   6.509  0.1591  0.1386 -0.1171
  104PNCE   AM1  940  14.631   6.098   9.262  0.1024 -0.2301 -0.2142
  104PNCE   AM2  941  14.851   6.375   9.281  0.0495 -0.1684  0.0189
  104PNCE   T1A  942  14.386   6.126   8.911 -0.0466 -0.1103 -0.0620
  104PNCE   C2A  943  14.137   5.880   8.647 -0.1071  0.0019 -0.0161
  104PNCE   C3A  944  13.743   5.621   8.773 -0.2044  0.0169  0.1876
  104PNCE   C1B  945  14.777   6.523   8.757 -0.2427  0.0483 -0.0250
  104PNCE   C2B  946  14.704   6.651   8.249  0.0695  0.1667 -0.2252
  104PNCE   C3B  947  14.781   6.484   7.882  0.0550  0.3143  0.1786
  104PNCE   D4B  948  14.457   6.432   7.486  0.0237 -0.1402  0.3361
  104PNCE   C5B  949  14.013   6.373   7.440  0.0403 -0.0940  0.1509
  104PNCE   C6B  950  13.691   6.410   7.566 -0.1158  0.0310  0.1109
  105CHOL   ROH  951   1.805   2.825   4.698  0.1286 -0.0429 -0.0358
  105CHOL    R1  952   1.834   2.929   4.959  0.0973  0.0528 -0.0700
  105CHOL    R2  953   1.877   2.768   5.180  0.0163  0.1296  0.0013
  105CHOL    R3  954   2.092   2.930   5.216  0.0444  0.0966 -0.0160
  105CHOL    R4  955   1.995   2.873   5.487  0.1142  0.0297 -0.0015
  105CHOL    R5  956   2.030   3.070   5.400  0.1102  0.0518  0.0422
  105CHOL    C1  957   2.266   3.087   5.700  0.1975 -0.0595 -0.0193
  105CHOL    C2  958   2.234   3.416   5.902 -0.1010  0.3619 -0.0413
  106PNCE   AM1  959   2.697  13.449   8.551  0.0218 -0.1537 -0.2873
  106PNCE   AM2  960   2.710  13.181   8.574  0.0056  0.3127 -0.1601
  106PNCE   T1A  961   3.043  13.576   8.323 -0.0663  0.1567 -0.2087
  106PNCE   C2A  962   3.172  13.688   7.870 -0.0692 -0.1720  0.2376
  106PNCE   C3A  963   3.411  13.887   7.409  0.2285 -0.1623  0.0522
  106PNCE   C1B  964   2.797  13.066   8.244  0.1679  0.1309 -0.2773
  106PNCE   C2B  965   3.010  13.147   7.960 -0.0855 -0.2172  0.0291
  106PNCE   C3B  966   3.211  12.961   7.508 -0.0297  0.0610  0.1208
  106PNCE   D4B  967   3.314  12.681   7.131  0.0126 -0.2104  0.0277
  106PNCE   C5B  968   3.619  12.468   7.088  0.0118 -0.0161 -0.0660
  106PNCE   C6B  969   4.116  12.590   6.979  0.1878  0.1281  0.2280
  107PNCE   AM1  970   1.892  15.539   8.214 -0.1354  0.3161  0.2981
  107PNCE   AM2  971   2.025  15.269   8.163  0.2834  0.3072 -0.0872
  107PNCE   T1A  972   1.588  15.436   7.885  0.0481 -0.1056 -0.0071
  107PNCE   C2A  973   1.510  15.045   7.735  0.2398 -0.1919 -0.1649
  107PNCE   C3A  974   1.397  14.682   7.522  0.0704 -0.0624  0.0209
  107PNCE   C1B  975   2.216  15.047   7.800  0.0449 -0.1485 -0.1254
  107PNCE   C2B  976   2.336  14.835   7.462  0.0189 -0.0549  0.0382
  107PNCE   C3B  977   2.618  14.627   7.167 -0.1500 -0.0251  0.2494
  107PNCE   D4B  978   2.675  14.939   6.885 -0.0175 -0.0307  0.0783
  107PNCE   C5B  979   2.997  15.051   6.642  0.1990  0.2124 -0.1313
  107PNCE   C6B  980   3.463  15.050   6.555  0.3657  0.1561 -0.0454
  108PNCE   AM1  981  10.205   1.164   9.084  0.1494 -0.0457  0.0620
  108PNCE   AM2  982   9.926   1.162   8.959  0.2306  0.0261  0.0504
  108PNCE   T1A  983  10.455   1.341   8.666  0.4184 -0.0948 -0.1790
  108PNCE   C2A  984  10.637   1.387   8.226  0.0678  0.1471  0.1666
  108PNCE   C3A  985  10.697   1.389   7.806 -0.0685 -0.0122 -0.2623
  108PNCE   C1B  986  10.113   1.046   8.483  0.2676 -0.0213 -0.1676
  108PNCE   C2B  987  10.425   0.963   8.337  0.0771 -0.2848 -0.0214
  108PNCE   C3B  988  10.570   0.813   7.926  0.1695  0.1349 -0.0346
  108PNCE   D4B  989  10.807   0.599   7.736  0.2020 -0.2441 -0.2901
  108PNCE   C5B  990  10.836   0.256   7.403  0.0312  0.2525  0.1684
  108PNCE   C6B  991  10.587  -0.111   7.317  0.0504  0.1260  0.0539
  109CHOL   ROH  992  14.936   7.413   5.248  0.1760  0.2014  0.0296
  109CHOL    R1  993  14.993   7.565   5.480  0.2983 -0.0978  0.1980
  109CHOL    R2  994  14.798   7.698   5.622  0.4688  0.3322  0.0243
  109CHOL    R3  995  14.899   7.557   5.831 -0.1658 -0.0775  0.0835
  109CHOL    R4  996  14.764   7.787   5.954  0.5475  0.4392  0.0062
  109CHOL    R5  997  14.970   7.724   5.987  0.3407 -0.3187  0.1434
  109CHOL    C1  998  14.839   7.705   6.344 -0.0023  0.1169  0.0512
  109CHOL    C2  999  14.775   7.729   6.732 -0.1049 -0.1696  0.0422
  110CHOL   ROH 1000  15.188   9.711   5.066 -0.1032 -0.2123  0.1519
  110CHOL    R1 1001  15.313   9.786   5.308  0.0309 -0.2246  0.0880
  110CHOL    R2 1002  15.587   9.794   5.338  0.0503 -0.1761 -0.0778
  110CHOL    R3 1003  15.538  10.049   5.420  0.0481 -0.1978 -0.0118
  110CHOL    R4 1004  15.710   9.935   5.629  0.1896 -0.1886 -0.1298
  110CHOL    R5 1005  15.517  10.031   5.658  0.1901 -0.2322 -0.0030
  110CHOL    C1 1006  15.736  10.256   5.875  0.2687 -0.2163 -0.0982
  110CHOL    C2 1007  15.575  10.405   6.259  0.0375 -0.2821  0.2672
  111PNCE   AM1 1008   0.944   5.336   8.676 -0.1284  0.1765  0.2074
  111PNCE   AM2 1009   0.610   5.503   8.674  0.2144 -0.1415  0.0960
  111PNCE   T1A 1010   0.932   5.463   8.212 -0.1087  0.3015  0.1637
  111PNCE   C2A 1011   0.931   5.613   7.834 -0.0705 -0.1534  0.1650
  111PNCE   C3A 1012   0.704   5.682   7.388 -0.0876 -0.0314 -0.0329
  111PNCE   C1B 1013   0.759   5.876   8.427  0.1184 -0.1229  0.1201
  111PNCE   C2B 1014   0.962   6.224   8.233  0.0065 -0.1119 -0.0803
  111PNCE   C3B 1015   0.894   6.495   7.977 -0.1423  0.3530 -0.1870
  111PNCE   D4B 1016   0.979   6.569   7.540 -0.1813  0.1044 -0.2843
  111PNCE   C5B 1017   0.649   6.743   7.356  0.1085 -0.3203 -0.0550
  111PNCE   C6B 1018   0.230   6.795   7.346 -0.4421 -0.0379  0.3439
  112CHOL   ROH 1019   7.608  11.844   9.184 -0.1144 -0.2485  0.1736
  112CHOL    R1 1020   7.614  11.863   8.902 -0.0739 -0.0767  0.1868
  112CHOL    R2 1021   7.649  11.644   8.738  0.0843  0.0476  0.0671
  112CHOL    R3 1022   7.419  11.732   8.623  0.0560 -0.0230  0.0653
  112CHOL    R4 1023   7.546  11.565   8.418  0.1718  0.0696  0.0323
  112CHOL    R5 1024   7.479  11.771   8.394  0.0802  0.0583  0.0758
  112CHOL    C1 1025   7.270  11.602   8.124  0.1961  0.0161  0.0101
  112CHOL    C2 1026   7.626  11.772   7.902  0.1762  0.3371  0.1289
  113CHOL   ROH 1027  15.184   0.709   5.090  0.0109  0.3009 -0.0103
  113CHOL    R1 1028  15.110   0.786   5.352  0.0894  0.2781  0.0187
  113CHOL    R2 1029  15.074   0.603   5.556 -0.0257  0.2430 -0.0333
  113CHOL    R3 1030  15.253   0.762   5.686  0.1014  0.0755  0.0002
  113CHOL    R4 1031  15.167   0.567   5.887 -0.1025  0.1388 -0.0224
  113CHOL    R5 1032  15.163   0.784   5.907  0.0903  0.1429 -0.0103
  113CHOL    C1 1033  15.388   0.695   6.202 -0.0280 -0.0792  0.0154
  113CHOL    C2 1034  15.575   0.763   6.583 -0.0111 -0.3304 -0.0641
  114XCA    COO 1035   1.424   6.966   8.586 -0.1119 -0.1714 -0.2497
  114XCA     C1 1036   1.709   7.246   8.461  0.0375  0.1433 -0.0911
  114XCA     C2 1037   1.704   7.502   8.101 -0.1757  0.0565  0.4426
  114XCA     C3 1038   1.658   7.576   7.623  0.0738  0.2374 -0.0460
  114XCA     C4 1039   1.456   7.621   7.375  0.1189  0.0959  0.1174
  114XCA     C5 1040   1.361   7.482   7.032  0.0217 -0.0734  0.1333
  114XCA     C6 1041   1.176   7.380   6.659 -0.0089 -0.0517  0.1161
  115XCA    COO 1042  12.507   9.816   5.950 -0.0077 -0.2348  0.0134
  115XCA     C1 1043  12.322   9.696   6.372  0.2338  0.1970  0.2465
  115XCA     C2 1044  12.428   9.705   6.854  0.0383 -0.4297 -0.2354
  115XCA     C3 1045  12.455   9.896   7.211 -0.3541 -0.0999 -0.1224
  115XCA     C4 1046  12.080  10.132   7.395 -0.0162  0.0220 -0.1768
  115XCA     C5 1047  11.647  10.052   7.524  0.4659 -0.2382  0.2528
  115XCA     C6 1048  11.282   9.866   7.627  0.2898  0.2133  0.0262
  116XCA    COO 1049   7.546  14.549   8.840 -0.0956  0.2318  0.2276
  116XCA     C1 1050   7.461  14.313   8.531  0.1819 -0.2206 -0.0845
  116XCA     C2 1051   7.340  14.126   8.137 -0.0094  0.0757 -0.4906
  116XCA     C3 1052   7.298  13.878   7.703 -0.3645 -0.0685  0.2363
  116XCA     C4 1053   7.537  13.626   7.367  0.1088  0.0231 -0.0322
  116XCA     C5 1054   7.728  13.397   7.109  0.1974 -0.0128 -0.0478
  116XCA     C6 1055   7.705  13.260   6.732 -0.1491  0.0668  0.0914
  117CHOL   ROH 1056   1.667   9.800   6.485  0.1984 -0.0870 -0.3188
  117CHOL    R1 1057   1.939   9.879   6.482  0.1796 -0.0165 -0.1250
  117CHOL    R2 1058   2.017  10.142   6.506  0.0951 -0.0093  0.0003
  117CHOL    R3 1059   2.168  10.046   6.711 -0.0005 -0.0231  0.0667
  117CHOL    R4 1060   2.236  10.331   6.695  0.1160 -0.0412  0.0100
  117CHOL    R5 1061   2.376  10.163   6.691  0.0549 -0.1050  0.0889
  117CHOL    C1 1062   2.505  10.351   6.997  0.0384 -0.0727  0.0780
  117CHOL    C2 1063   2.857  10.381   7.179  0.1511  0.1729 -0.1164
  118CHOL   ROH 1064   9.579   9.925   6.247 -0.0167  0.1113  0.0553
  118CHOL    R1 1065   9.302   9.905   6.305 -0.0662 -0.0497 -0.2138
  118CHOL    R2 1066   9.155   9.678   6.252  0.1804 -0.2416 -0.1077
  118CHOL    R3 1067   9.091   9.696   6.515 -0.1093  0.0174 -0.1908
  118CHOL    R4 1068   8.926   9.476   6.413  0.1596 -0.2232 -0.1151
  118CHOL    R5 1069   8.856   9.652   6.522 -0.0861 -0.1459 -0.3881
  118CHOL    C1 1070   8.732   9.376   6.755 -0.1244  0.0306 -0.1975
  118CHOL    C2 1071   8.344   9.330   6.660 -0.0582 -0.1664  0.3707
  119CHOL   ROH 1072   7.431   2.222   3.569 -0.3486  0.2478 -0.0714
  119CHOL    R1 1073   7.436   2.443   3.745 -0.2174  0.0168  0.2230
  119CHOL    R2 1074   7.507   2.420   4.012  0.2157 -0.3016  0.0901
  119CHOL    R3 1075   7.686   2.614   3.948 -0.0063 -0.0999  0.0655
  119CHOL    R4 1076   7.623   2.662   4.229  0.1791 -0.3398  0.1530
  119CHOL    R5 1077   7.611   2.807   4.067 -0.0819 -0.2420  0.2537
  119CHOL    C1 1078   7.859   2.985   4.295 -0.0506 -0.1727  0.1665
  119CHOL    C2 1079   8.083   3.032   4.627  0.0700 -0.1976 -0.1720
  120PNCE   AM1 1080   9.741   3.265   8.233  0.0673 -0.2648 -0.3425
  120PNCE   AM2 1081   9.612   3.558   8.008 -0.0620 -0.1309 -0.2665
  120PNCE   T1A 1082  10.165   3.030   8.085 -0.1835 -0.0311  0.0115
  120PNCE   C2A 1083  10.592   3.023   7.856 -0.1034  0.1250  0.0834
  120PNCE   C3A 1084  10.948   3.008   7.721 -0.0853  0.5086  0.0975
  120PNCE   C1B 1085  10.014   3.514   7.883 -0.0190  0.0554 -0.1405
  120PNCE   C2B 1086  10.348   3.390   7.541 -0.1142 -0.0540 -0.2794
  120PNCE   C3B 1087  10.416   3.443   7.156  0.2910  0.0697 -0.3238
  120PNCE   D4B 1088  10.416   3.168   6.816 -0.0505  0.0821  0.2161
  120PNCE   C5B 1089  10.567   3.255   6.459 -0.2616 -0.2427  0.1996
  120PNCE   C6B 1090  10.743   3.586   6.594 -0.0832 -0.1252 -0.0942
  121CHOL   ROH 1091   4.826   9.363   8.058  0.0939  0.0085 -0.0678
  121CHOL    R1 1092   4.620   9.486   7.907 -0.0153 -0.0253  0.0502
  121CHOL    R2 1093   4.663   9.591   7.655 -0.0794  0.3424  0.1818
  121CHOL    R3 1094   4.455   9.429   7.588  0.1109  0.1898 -0.0553
  121CHOL    R4 1095   4.428   9.660   7.411 -0.0592  0.3344  0.1608
  121CHOL    R5 1096   4.275   9.579   7.543 -0.0274  0.0475  0.0236
  121CHOL    C1 1097   4.096   9.549   7.207  0.1311  0.1865 -0.0740
  121CHOL    C2 1098   3.841   9.580   6.878 -0.1134  0.0580 -0.0082
  122XCA    COO 1099   2.344   0.528   8.187  0.4665 -0.0143  0.3110
  122XCA     C1 1100   2.286   0.352   7.744 -0.1562 -0.2358  0.2129
  122XCA     C2 1101   2.492   0.112   7.308  0.1963  0.0229 -0.2210
  122XCA     C3 1102   2.353   0.118   6.829  0.1389 -0.0015  0.0841
  122XCA     C4 1103   2.468   0.236   6.343  0.2570 -0.2041  0.2515
  122XCA     C5 1104   2.531   0.412   5.883  0.3112 -0.1963 -0.1326
  122XCA     C6 1105   2.382   0.593   5.468  0.0770  0.0024  0.0066
  123XCA    COO 1106   2.799   7.969   4.710 -0.2181 -0.2061  0.1942
  123XCA     C1 1107   2.899   7.713   5.065  0.1226 -0.0880  0.0322
  123XCA     C2 1108   3.107   7.333   5.127  0.0074  0.0494 -0.0207
  123XCA     C3 1109   3.448   6.996   5.211 -0.1251  0.0129  0.1103
  123XCA     C4 1110   3.641   6.662   5.102  0.0342  0.0355 -0.0620
  123XCA     C5 1111   3.718   6.215   5.001 -0.1842 -0.1437  0.0733
  123XCA     C6 1112   3.627   5.720   4.947 -0.1673 -0.1876  0.0626
  124PNCE   AM1 1113   3.767  14.309   8.300  0.2099 -0.1370 -0.0441
  124PNCE   AM2 1114   3.740  14.062   8.492  0.0669  0.1565 -0.2402
  124PNCE   T1A 1115   3.968  14.287   7.905 -0.3419  0.2744  0.1302
  124PNCE   C2A 1116   4.272  14.291   7.502 -0.7882  0.2002 -0.1252
  124PNCE   C3A 1117   4.441  14.418   7.053  0.3171 -0.0261  0.1293
  124PNCE   C1B 1118   3.945  13.813   8.161 -0.0706 -0.1078 -0.0780
  124PNCE   C2B 1119   4.078  13.536   7.840  0.1171  0.2576  0.0029
  124PNCE   C3B 1120   4.117  13.312   7.433  0.2094  0.2427  0.2412
  124PNCE   D4B 1121   4.306  13.062   7.101  0.5400  0.0551  0.0204
  124PNCE   C5B 1122   4.614  13.108   6.927 -0.1165  0.1397 -0.0146
  124PNCE   C6B 1123   4.796  13.060   6.666 -0.1772 -0.0188  0.1423
  125CHOL   ROH 1124  15.183  10.241   8.763 -0.0573  0.2829 -0.2460
  125CHOL    R1 1125  15.262  10.073   8.549 -0.1140  0.0836 -0.1120
  125CHOL    R2 1126  15.115   9.853   8.470 -0.3012  0.1972 -0.0705
  125CHOL    R3 1127  15.126   9.973   8.227 -0.0396  0.0525 -0.1352
  125CHOL    R4 1128  15.038   9.700   8.170 -0.3533  0.1191 -0.0184
  125CHOL    R5 1129  15.207   9.802   8.080 -0.1782 -0.1364 -0.0022
  125CHOL    C1 1130  15.003   9.723   7.767 -0.1380 -0.0622 -0.0489
  125CHOL    C2 1131  14.664   9.558   7.568 -0.1275  0.1321  0.0950
  126CHOL   ROH 1132   3.873  14.721   8.119 -0.1115  0.1374 -0.1139
  126CHOL    R1 1133   3.884  14.854   7.870 -0.0302  0.0181 -0.1741
  126CHOL    R2 1134   3.985  14.734   7.642 -0.3020 -0.2245 -0.1690
  126CHOL    R3 1135   3.744  14.805   7.537 -0.2504  0.0799 -0.0928
  126CHOL    R4 1136   3.915  14.759   7.304 -0.4138 -0.3015 -0.1526
  126CHOL    R5 1137   3.798  14.938   7.347 -0.1323 -0.0984 -0.1899
  126CHOL    C1 1138   3.648  14.841   7.010 -0.4304 -0.0605 -0.0716
  126CHOL    C2 1139   3.820  15.212   6.834  0.1757  0.3063 -0.1187
  127CHOL   ROH 1140   5.227  10.451   8.747  0.0935 -0.1970  0.0348
  127CHOL    R1 1141   5.208  10.373   8.475 -0.0163 -0.1523  0.0288
  127CHOL    R2 1142   5.077  10.525   8.285  0.0220 -0.0543  0.0803
  127CHOL    R3 1143   5.314  10.507   8.154 -0.0194 -0.1703  0.0203
  127CHOL    R4 1144   5.112  10.519   7.942 -0.0461  0.3128  0.0626
  127CHOL    R5 1145   5.267  10.367   7.965 -0.2132  0.1040 -0.1412
  127CHOL    C1 1146   5.355  10.498   7.618 -0.1247  0.4177 -0.0039
  127CHOL    C2 1147   5.346  10.753   7.343 -0.0293 -0.0454  0.1253
  128PNCE   AM1 1148  12.569  12.754   8.747 -0.0162  0.2582  0.2575
  128PNCE   AM2 1149  12.638  13.123   8.861  0.0221 -0.0670  0.1112
  128PNCE   T1A 1150  12.724  12.568   8.299 -0.1906  0.1226  0.0586
  128PNCE   C2A 1151  12.892  12.426   8.023 -0.1009  0.1382  0.3273
  128PNCE   C3A 1152  12.972  12.250   7.736 -0.1458 -0.0961  0.0490
  128PNCE   C1B 1153  12.399  13.227   8.474 -0.0513  0.0461 -0.2318
  128PNCE   C2B 1154  12.153  13.244   8.058 -0.0398 -0.1372  0.1956
  128PNCE   C3B 1155  11.780  13.353   7.866 -0.1545  0.0836 -0.0642
  128PNCE   D4B 1156  11.607  13.491   7.466 -0.0922 -0.1532  0.0243
  128PNCE   C5B 1157  11.146  13.635   7.428 -0.3220  0.2526 -0.1747
  128PNCE   C6B 1158  10.798  13.683   7.741 -0.0866 -0.0892 -0.1994
  129PNCE   AM1 1159   4.626   3.525   8.063  0.3794  0.0244 -0.1533
  129PNCE   AM2 1160   4.505   3.772   7.916 -0.3127  0.0653 -0.1847
  129PNCE   T1A 1161   4.773   3.451   7.656 -0.1586  0.3186 -0.1453
  129PNCE   C2A 1162   4.741   3.584   7.163  0.0732  0.0305 -0.0461
  129PNCE   C3A 1163   4.583   3.838   6.777 -0.1321 -0.2210  0.2747
  129PNCE   C1B 1164   4.419   3.883   7.446  0.0988 -0.0406 -0.1746
  129PNCE   C2B 1165   4.439   4.179   7.129 -0.4387 -0.3885  0.0597
  129PNCE   C3B 1166   4.516   4.445   6.940  0.3791 -0.1389 -0.1428
  129PNCE   D4B 1167   4.556   4.531   6.560  0.1044 -0.0577  0.0234
  129PNCE   C5B 1168   4.406   4.140   6.427 -0.0347  0.0285 -0.0224
  129PNCE   C6B 1169   4.116   4.280   6.062 -0.1420 -0.1938 -0.1203
  130XCA    COO 1170  14.324  15.385   8.301 -0.0353  0.1610  0.0114
  130XCA     C1 1171  13.975  15.258   8.091 -0.2311 -0.0681  0.2645
  130XCA     C2 1172  13.767  15.183   7.679  0.4388  0.1441  0.1043
  130XCA     C3 1173  13.558  15.035   7.368 -0.0922 -0.1212  0.1131
  130XCA     C4 1174  13.347  14.699   7.387  0.1266 -0.0054 -0.3139
  130XCA     C5 1175  13.281  14.446   7.050 -0.2699 -0.0350 -0.0061
  130XCA     C6 1176  13.044  13.982   6.779 -0.2816 -0.2955 -0.0142
  131PNCE   AM1 1177   9.020   6.739   8.759  0.2853  0.0578  0.1368
  131PNCE   AM2 1178   9.269   6.646   8.839 -0.0513 -0.2435 -0.0617
  131PNCE   T1A 1179   8.913   7.123   8.809 -0.1236  0.1098  0.0311
  131PNCE   C2A 1180   8.577   7.578   8.708  0.1352 -0.1834 -0.0983
  131PNCE   C3A 1181   8.532   7.937   8.513 -0.2084  0.1158 -0.0806
  131PNCE   C1B 1182   9.517   7.016   8.739  0.0235  0.1901  0.0757
  131PNCE   C2B 1183   9.451   7.414   8.642  0.2762  0.1941 -0.1400
  131PNCE   C3B 1184   9.568   7.534   8.360  0.2276  0.0735  0.3485
  131PNCE   D4B 1185   9.482   7.560   7.941  0.1159  0.0139  0.0460
  131PNCE   C5B 1186   9.520   7.893   7.669  0.1741 -0.1653 -0.0654
  131PNCE   C6B 1187   9.492   8.355   7.714  0.3185  0.3341  0.1219
  132PNCE   AM1 1188  13.131   0.110   8.693 -0.1489 -0.1656  0.0778
  132PNCE   AM2 1189  13.030  -0.127   8.897  0.1071 -0.1335 -0.0499
  132PNCE   T1A 1190  13.049  -0.122   8.289 -0.0079  0.1026  0.2617
  132PNCE   C2A 1191  12.904  -0.492   8.086 -0.1088  0.0687  0.1145
  132PNCE   C3A 1192  12.710  -0.858   8.148  0.3318  0.0488  0.0105
  132PNCE   C1B 1193  12.706  -0.338   8.705 -0.0235 -0.0512 -0.1501
  132PNCE   C2B 1194  12.472  -0.329   8.343 -0.0947 -0.0475  0.0435
  132PNCE   C3B 1195  12.364  -0.443   7.859  0.0316 -0.2821  0.3061
  132PNCE   D4B 1196  12.683  -0.458   7.535  0.3087  0.3867 -0.2054
  132PNCE   C5B 1197  12.577  -0.339   7.058  0.2095  0.1301 -0.0713
  132PNCE   C6B 1198  12.675   0.047   6.976 -0.2088 -0.5315  0.1680
  133PNCE   AM1 1199   6.293   7.967   4.374  0.0699  0.2284  0.0155
  133PNCE   AM2 1200   6.216   8.215   4.432 -0.1504 -0.0140 -0.2892
  133PNCE   T1A 1201   6.612   7.858   4.736  0.1324  0.0730  0.2525
  133PNCE   C2A 1202   6.919   7.694   5.183  0.3639 -0.0207  0.0437
  133PNCE   C3A 1203   6.976   7.572   5.574 -0.2801 -0.0844 -0.1586
  133PNCE   C1B 1204   6.620   8.359   4.474  0.2126 -0.3706 -0.0070
  133PNCE   C2B 1205   6.911   8.538   4.768  0.0908 -0.0795  0.0143
  133PNCE   C3B 1206   7.137   8.655   5.197 -0.4261 -0.4208  0.3692
  133PNCE   D4B 1207   7.361   8.536   5.496 -0.1974  0.4717  0.1495
  133PNCE   C5B 1208   7.166   8.458   5.851  0.0276  0.0437  0.2249
  133PNCE   C6B 1209   6.793   8.475   6.022 -0.0581  0.3777  0.0692
  134CHOL   ROH 1210  14.052  13.820   8.421 -0.2716  0.1288  0.3464
  134CHOL    R1 1211  13.931  13.862   8.168 -0.1222  0.0358  0.2582
  134CHOL    R2 1212  13.933  14.107   8.041 -0.0466 -0.0104  0.1673
  134CHOL    R3 1213  14.041  13.964   7.836  0.0753 -0.0877  0.2841
  134CHOL    R4 1214  13.888  14.177   7.705  0.2000 -0.1044  0.1127
  134CHOL    R5 1215  13.870  13.963   7.668  0.1938 -0.1118  0.1638
  134CHOL    C1 1216  13.964  14.084   7.318  0.4582 -0.2316  0.1905
  134CHOL    C2 1217  13.790  14.406   7.093  0.2819  0.0688  0.2750
  135CHOL   ROH 1218  13.118  11.555   7.691  0.1408 -0.0652 -0.0378
  135CHOL    R1 1219  13.153  11.793   7.542  0.3746 -0.0075  0.1034
  135CHOL    R2 1220  13.377  11.840   7.386  0.2873 -0.2699 -0.1095
  135CHOL    R3 1221  13.192  11.882   7.192  0.1326  0.1855  0.1232
  135CHOL    R4 1222  13.426  12.039   7.109  0.2766 -0.0705  0.0307
  135CHOL    R5 1223  13.222  12.113   7.132  0.3993  0.2067  0.3179
  135CHOL    C1 1224  13.281  12.196   6.764  0.1252  0.4732  0.3308
  135CHOL    C2 1225  13.520  12.534   6.828 -0.0784  0.0876  0.1128
  136CHOL   ROH 1226  12.841  12.988   8.475  0.1740  0.2583  0.2294
  136CHOL    R1 1227  12.881  13.072   8.208  0.2324  0.0394  0.1685
  136CHOL    R2 1228  12.924  12.895   8.001 -0.1716 -0.1572  0.2518
  136CHOL    R3 1229  12.714  13.025   7.888  0.0239  0.1721  0.2542
  136CHOL    R4 1230  12.812  12.846   7.678 -0.4335 -0.2239  0.3485
  136CHOL    R5 1231  12.782  13.061   7.661 -0.0102 -0.1616  0.1817
  136CHOL    C1 1232  12.550  12.940   7.383 -0.4025  0.0464  0.4072
  136CHOL    C2 1233  12.434  12.724   7.031  0.2641 -0.0970 -0.1890
  137XCA    COO 1234   6.936   2.211   6.785  0.0200 -0.0864  0.0347
  137XCA     C1 1235   7.132   2.232   6.329 -0.1288 -0.1553  0.0705
  137XCA     C2 1236   7.018   1.783   6.082 -0.2094 -0.2220 -0.0640
  137XCA     C3 1237   7.146   1.501   5.781 -0.0775 -0.2044 -0.1486
  137XCA     C4 1238   7.327   1.460   5.465 -0.0622  0.3462 -0.2037
  137XCA     C5 1239   7.619   1.333   5.246 -0.3048 -0.3965  0.1589
  137XCA     C6 1240   7.756   0.996   5.014 -0.3116  0.1484 -0.3322
  138CHOL   ROH 1241   8.445   3.227   4.881 -0.2137  0.0248 -0.3051
  138CHOL    R1 1242   8.336   3.209   5.142  0.0230  0.1735 -0.1916
  138CHOL    R2 1243   8.135   3.376   5.231 -0.0384  0.0960 -0.1749
  138CHOL    R3 1244   8.009   3.142   5.288  0.1968  0.0406  0.1461
  138CHOL    R4 1245   7.899   3.334   5.481 -0.0837  0.2282 -0.1953
  138CHOL    R5 1246   7.990   3.141   5.527  0.1118  0.3948  0.1439
  138CHOL    C1 1247   7.644   3.090   5.679  0.1107  0.2532  0.0940
  138CHOL    C2 1248   7.317   2.917   5.944  0.1415 -0.0650  0.2424
  139PNCE   AM1 1249   2.157   8.908   8.595  0.2584  0.0610 -0.2444
  139PNCE   AM2 1250   2.278   9.138   8.678  0.2593  0.1474 -0.0297
  139PNCE   T1A 1251   1.792   8.873   8.223 -0.1945  0.0017 -0.1305
  139PNCE   C2A 1252   1.618   8.956   7.902 -0.2256  0.2697 -0.2200
  139PNCE   C3A 1253   1.427   9.187   7.539 -0.0506 -0.1331  0.1949
  139PNCE   C1B 1254   2.482   9.182   8.242  0.3747  0.0524  0.1642
  139PNCE   C2B 1255   2.649   9.177   7.773  0.1731  0.2059  0.2452
  139PNCE   C3B 1256   2.752   8.931   7.423  0.0526 -0.0021 -0.3318
  139PNCE   D4B 1257   2.691   8.475   7.305 -0.4285  0.1025 -0.0778
  139PNCE   C5B 1258   2.454   8.247   7.576  0.0515  0.0067 -0.1603
  139PNCE   C6B 1259   2.233   8.257   7.908  0.0290  0.0217  0.1967
  140PNCE   AM1 1260  13.757   0.774   8.262  0.1670 -0.0251  0.1248
  140PNCE   AM2 1261  14.039   0.589   8.336 -0.0295  0.2773 -0.3567
  140PNCE   T1A 1262  14.061   0.951   7.854  0.2105 -0.3861 -0.3595
  140PNCE   C2A 1263  14.219   1.105   7.416 -0.0118  0.0025 -0.0659
  140PNCE   C3A 1264  14.130   1.275   7.016  0.1962 -0.0561  0.2633
  140PNCE   C1B 1265  14.007   0.428   7.895 -0.2311  0.1123 -0.1562
  140PNCE   C2B 1266  14.297   0.144   7.544 -0.3095  0.0709 -0.2930
  140PNCE   C3B 1267  14.259  -0.094   7.321  0.3639  0.0322 -0.4074
  140PNCE   D4B 1268  14.559  -0.484   7.180  0.0317 -0.0190  0.0024
  140PNCE   C5B 1269  14.803  -0.510   6.730 -0.1178 -0.0415 -0.2181
  140PNCE   C6B 1270  14.873  -0.624   6.267  0.0291 -0.1594 -0.2046
  141CHOL   ROH 1271   8.861  10.228   5.782 -0.1628  0.2854  0.1811
  141CHOL    R1 1272   8.962  10.244   6.046  0.0622  0.0029  0.1164
  141CHOL    R2 1273   8.805  10.315   6.262  0.3651  0.3202  0.2376
  141CHOL    R3 1274   8.898  10.081   6.365 -0.0893  0.0786  0.1262
  141CHOL    R4 1275   8.745  10.202   6.583  0.0651  0.2345  0.1551
  141CHOL    R5 1276   8.951  10.133   6.592 -0.0554 -0.1521  0.1750
  141CHOL    C1 1277   8.797   9.917   6.866 -0.5362 -0.0424  0.0025
  141CHOL    C2 1278   9.021   9.609   7.165  0.1446 -0.0783  0.0973
  142CHOL   ROH 1279   0.176   7.588   7.324 -0.0885 -0.0212 -0.0433
  142CHOL    R1 1280   0.366   7.684   7.137 -0.0473  0.0131  0.0143
  142CHOL    R2 1281   0.296   7.845   6.924 -0.0215 -0.0502 -0.0477
  142CHOL    R3 1282   0.488   8.008   7.026 -0.1243  0.0375  0.0041
  142CHOL    R4 1283   0.486   8.068   6.739  0.0347 -0.0727 -0.0157
  142CHOL    R5 1284   0.659   8.011   6.859 -0.0246  0.0184  0.1083
  142CHOL    C1 1285   0.776   8.350   6.728 -0.0291 -0.0032  0.0516
  142CHOL    C2 1286   0.754   8.721   6.399 -0.0235  0.2503  0.0312
  143CHOL   ROH 1287   5.292   2.227   7.560  0.0561  0.0788 -0.0609
  143CHOL    R1 1288   5.217   2.247   7.288 -0.0881  0.0210 -0.0266
  143CHOL    R2 1289   5.391   2.334   7.091 -0.2241  0.0833 -0.1213
  143CHOL    R3 1290   5.324   2.099   6.972 -0.1765  0.0420 -0.0666
  143CHOL    R4 1291   5.386   2.280   6.750 -0.1210 -0.0233 -0.1062
  143CHOL    R5 1292   5.203   2.164   6.776 -0.1227 -0.0253 -0.1228
  143CHOL    C1 1293   5.320   2.028   6.440 -0.0162 -0.1241 -0.0460
  143CHOL    C2 1294   5.189   1.968   6.071  0.0577  0.1396 -0.2436
  144PNCE   AM1 1295  11.512  10.909   9.738  0.0787 -0.1173 -0.0715
  144PNCE   AM2 1296  11.316  10.715   9.708  0.0372 -0.1023  0.0669
  144PNCE   T1A 1297  11.398  11.056   9.403 -0.0626  0.0988  0.0619
  144PNCE   C2A 1298  11.699  11.257   9.193 -0.0323  0.0389  0.0600
  144PNCE   C3A 1299  11.955  11.544   9.168 -0.2352 -0.0271  0.1148
  144PNCE   C1B 1300  11.131  10.622   9.324  0.0869  0.1706  0.1786
  144PNCE   C2B 1301  10.953  10.388   9.027 -0.3231 -0.1622 -0.0847
  144PNCE   C3B 1302  10.652  10.146   8.809 -0.0859 -0.0526 -0.0570
  144PNCE   D4B 1303  10.653  10.053   8.388 -0.0304 -0.0077 -0.2170
  144PNCE   C5B 1304  10.661   9.545   8.507 -0.0160  0.2141  0.1831
  144PNCE   C6B 1305  10.598   9.259   8.896  0.1116 -0.0621 -0.1371
  145PNCE   AM1 1306  15.591   3.459   8.973  0.3180  0.1404 -0.3058
  145PNCE   AM2 1307  15.721   3.622   8.731  0.1380  0.2205  0.1366
  145PNCE   T1A 1308  15.244   3.485   8.570 -0.1071  0.1768 -0.4753
  145PNCE   C2A 1309  15.161   3.787   8.228 -0.2074 -0.0197 -0.0422
  145PNCE   C3A 1310  15.070   4.140   8.057  0.3307  0.1021 -0.3048
  145PNCE   C1B 1311  15.677   3.832   8.339  0.1294  0.2394  0.0425
  145PNCE   C2B 1312  15.588   4.218   8.143  0.3246 -0.1364 -0.1410
  145PNCE   C3B 1313  15.292   4.575   7.920 -0.0045 -0.0575  0.1832
  145PNCE   D4B 1314  15.314   4.852   7.589  0.1407  0.1776  0.0588
  145PNCE   C5B 1315  15.076   4.821   7.347 -0.1994  0.3371  0.1670
  145PNCE   C6B 1316  14.926   4.511   7.234 -0.1106  0.4054 -0.1788
  146CHOL   ROH 1317   4.545   4.524   4.201 -0.1975 -0.1552 -0.0466
  146CHOL    R1 1318   4.659   4.275   4.274  0.0000 -0.0695 -0.0532
  146CHOL    R2 1319   4.930   4.241   4.313  0.0372  0.1311 -0.1041
  146CHOL    R3 1320   4.851   4.144   4.554  0.1523  0.0897 -0.0825
  146CHOL    R4 1321   5.143   4.128   4.561  0.1549  0.2087 -0.1693
  146CHOL    R5 1322   5.004   3.966   4.600  0.2366  0.1525 -0.1319
  146CHOL    C1 1323   5.192   3.972   4.932  0.3316  0.2151 -0.1870
  146CHOL    C2 1324   5.529   3.972   5.067  0.1300 -0.0008  0.0232
  147XCA    COO 1325   5.590   2.265   7.917  0.1979 -0.1546 -0.1319
  147XCA     C1 1326   5.720   2.431   7.531 -0.1411 -0.0014 -0.1122
  147XCA     C2 1327   5.936   2.317   7.090 -0.3741  0.1496 -0.2115
  147XCA     C3 1328   5.845   2.178   6.681 -0.4944 -0.0621 -0.0929
  147XCA     C4 1329   5.840   1.859   6.393 -0.2206  0.0787  0.4479
  147XCA     C5 1330   5.520   1.608   6.233  0.0579  0.3219 -0.1035
  147XCA     C6 1331   5.368   1.192   6.077  0.1371  0.1751  0.1581
  148PNCE   AM1 1332   8.108  11.854   9.082  0.3340 -0.0658  0.2290
  148PNCE   AM2 1333   8.197  11.504   9.033 -0.3867  0.1217 -0.3283
  148PNCE   T1A 1334   8.012  11.787   8.602 -0.1298 -0.2517  0.1529
  148PNCE   C2A 1335   8.031  11.669   8.282 -0.0731  0.0514 -0.0121
  148PNCE   C3A 1336   8.041  11.421   7.923  0.0467 -0.1613  0.0142
  148PNCE   C1B 1337   8.420  11.492   8.657  0.0047  0.0334  0.1608
  148PNCE   C2B 1338   8.468  11.383   8.252  0.0252 -0.0057  0.0124
  148PNCE   C3B 1339   8.673  11.537   7.932  0.0196 -0.2744  0.0507
  148PNCE   D4B 1340   8.461  11.666   7.495  0.1506  0.1645  0.0015
  148PNCE   C5B 1341   8.310  12.017   7.202  0.1898 -0.2845 -0.0360
  148PNCE   C6B 1342   8.142  12.553   7.128  0.1682  0.6127 -0.0746
  149PNCE   AM1 1343  11.476   3.360   8.597 -0.0544  0.0563  0.0645
  149PNCE   AM2 1344  11.792   3.173   8.581 -0.0349 -0.1662 -0.0478
  149PNCE   T1A 1345  11.317   3.478   8.238 -0.0106  0.1851  0.1325
  149PNCE   C2A 1346  11.171   3.413   7.851  0.4159  0.1722  0.0192
  149PNCE   C3A 1347  10.784   3.546   7.489 -0.0833 -0.1063 -0.1555
  149PNCE   C1B 1348  11.752   3.299   8.069 -0.3067  0.0492  0.1448
  149PNCE   C2B 1349  11.751   3.522   7.710  0.2709 -0.3499 -0.1580
  149PNCE   C3B 1350  12.042   3.653   7.406  0.1426  0.3543 -0.3493
  149PNCE   D4B 1351  12.222   3.353   7.123  0.5760  0.0327  0.1125
  149PNCE   C5B 1352  12.354   3.056   7.286 -0.2890  0.6191 -0.2082
  149PNCE   C6B 1353  12.312   2.659   7.589  0.0396 -0.3454 -0.0336
  150XCA    COO 1354  12.301   3.796   9.203 -0.4058  0.0138  0.0979
  150XCA     C1 1355  12.544   3.541   8.971  0.1175 -0.0138  0.0580
  150XCA     C2 1356  12.544   3.630   8.488 -0.1717  0.1160 -0.1487
  150XCA     C3 1357  12.604   3.726   7.954 -0.0358 -0.3972 -0.0004
  150XCA     C4 1358  12.484   3.534   7.634  0.1730  0.0288  0.2507
  150XCA     C5 1359  12.594   3.678   7.237  0.2668 -0.1164 -0.1853
  150XCA     C6 1360  12.333   3.749   6.929  0.1283 -0.0261  0.0902
  151PNCE   AM1 1361   1.751   6.879   9.034  0.0952 -0.2356 -0.0407
  151PNCE   AM2 1362   1.883   6.694   9.190  0.0393 -0.2143 -0.1079
  151PNCE   T1A 1363   2.029   7.064   8.796 -0.1665 -0.0712 -0.0129
  151PNCE   C2A 1364   2.249   7.303   8.455  0.2627 -0.3008  0.2316
  151PNCE   C3A 1365   2.190   7.538   8.207 -0.1594 -0.0842  0.2069
  151PNCE   C1B 1366   1.775   6.639   8.632  0.2039 -0.0990 -0.0682
  151PNCE   C2B 1367   1.952   6.388   8.260  0.2319 -0.0853  0.1404
  151PNCE   C3B 1368   2.055   6.294   7.877 -0.0201  0.1890 -0.0816
  151PNCE   D4B 1369   2.011   6.287   7.437  0.0525  0.0045  0.0947
  151PNCE   C5B 1370   2.219   6.490   7.129  0.1133  0.0284 -0.1600
  151PNCE   C6B 1371   2.219   6.459   6.659  0.2302 -0.0862 -0.0796
  152PNCE   AM1 1372   9.968  14.652   9.549 -0.1203  0.2155  0.0265
  152PNCE   AM2 1373   9.729  14.903   9.641  0.0058 -0.2054 -0.1101
  152PNCE   T1A 1374  10.236  14.880   9.206 -0.1459 -0.1312 -0.1877
  152PNCE   C2A 1375  10.430  14.829   8.900  0.0941  0.0776  0.2153
  152PNCE   C3A 1376  10.580  14.630   8.569  0.2890 -0.3148 -0.1793
  152PNCE   C1B 1377   9.716  14.868   9.195 -0.4550  0.1683  0.2728
  152PNCE   C2B 1378   9.923  14.639   8.905 -0.1053  0.3924  0.1397
  152PNCE   C3B 1379  10.015  14.622   8.585  0.1226 -0.0166  0.0210
  152PNCE   D4B 1380  10.202  14.361   8.403  0.0304  0.0097  0.3083
  152PNCE   C5B 1381  10.288  13.989   8.134  0.1017 -0.0994 -0.5136
  152PNCE   C6B 1382  10.348  13.674   8.121  0.1922 -0.0133  0.1709
  153XCA    COO 1383   2.402   3.539   7.838  0.0252  0.2955 -0.0808
  153XCA     C1 1384   2.178   3.671   7.655  0.2760 -0.2450  0.1098
  153XCA     C2 1385   1.828   3.987   7.380  0.0694 -0.1370  0.2134
  153XCA     C3 1386   1.843   4.318   7.138 -0.0961  0.0319 -0.1250
  153XCA     C4 1387   1.669   4.672   7.083 -0.2204 -0.0828  0.0163
  153XCA     C5 1388   1.373   4.986   6.943  0.1868 -0.1669  0.2768
  153XCA     C6 1389   1.015   5.044   6.794  0.0962  0.1455  0.3626
  154CHOL   ROH 1390   9.992   0.659   8.950  0.0159 -0.0077  0.0770
  154CHOL    R1 1391  10.209   0.627   8.771 -0.0211  0.0076  0.0286
  154CHOL    R2 1392  10.266   0.387   8.647  0.0307 -0.0175  0.0954
  154CHOL    R3 1393  10.252   0.537   8.421 -0.0868 -0.0985  0.0480
  154CHOL    R4 1394  10.394   0.293   8.340  0.2263  0.0480  0.1561
  154CHOL    R5 1395  10.462   0.499   8.312 -0.0108  0.1207  0.1159
  154CHOL    C1 1396  10.457   0.380   7.950  0.2298  0.0101  0.1470
  154CHOL    C2 1397  10.654   0.059   7.855  0.1054  0.1213 -0.4119
  155PNCE   AM1 1398   1.228   1.115   8.337 -0.2066 -0.0968  0.0224
  155PNCE   AM2 1399   1.092   1.438   8.519  0.1428 -0.1149  0.0211
  155PNCE   T1A 1400   1.447   0.779   8.084  0.3399  0.1405  0.3553
  155PNCE   C2A 1401   1.684   0.651   7.675 -0.4065  0.2021 -0.2612
  155PNCE   C3A 1402   1.771   0.507   7.264 -0.3556 -0.1300 -0.4717
  155PNCE   C1B 1403   1.168   1.788   8.134 -0.2196  0.0691 -0.0691
  155PNCE   C2B 1404   0.978   1.916   7.695 -0.0194 -0.1304 -0.1197
  155PNCE   C3B 1405   0.828   1.965   7.232  0.1045 -0.0452  0.1529
  155PNCE   D4B 1406   0.891   2.197   6.879 -0.1490  0.0068  0.3606
  155PNCE   C5B 1407   1.027   2.543   6.748  0.0310 -0.1443 -0.0530
  155PNCE   C6B 1408   1.292   2.663   6.435  0.0496  0.0093 -0.4188
  156PNCE   AM1 1409   8.012   3.182   6.727  0.1102 -0.1650  0.0228
  156PNCE   AM2 1410   8.104   3.417   6.591 -0.0952  0.1251  0.1845
  156PNCE   T1A 1411   8.267   2.935   6.387  0.2261 -0.1012 -0.0239
  156PNCE   C2A 1412   8.677   2.859   6.163 -0.2139  0.2478  0.2325
  156PNCE   C3A 1413   8.746   3.132   5.923  0.0875  0.1198 -0.1080
  156PNCE   C1B 1414   7.938   3.441   6.129 -0.1534  0.2605 -0.1077
  156PNCE   C2B 1415   7.815   3.624   5.816  0.2549  0.1205 -0.0562
  156PNCE   C3B 1416   7.850   4.040   5.739  0.1549 -0.0694  0.0069
  156PNCE   D4B 1417   7.801   4.457   5.836  0.1571 -0.1220 -0.0277
  156PNCE   C5B 1418   7.513   4.703   5.695  0.0931  0.0058  0.0484
  156PNCE   C6B 1419   7.307   5.058   5.427  0.0997 -0.2942 -0.0606
  157CHOL   ROH 1420  11.377  12.577   6.827  0.0953  0.0421  0.1046
  157CHOL    R1 1421  11.178  12.776   6.853  0.0727  0.0498 -0.1074
  157CHOL    R2 1422  10.911  12.716   6.892  0.0843  0.0602 -0.0313
  157CHOL    R3 1423  10.938  12.879   7.108  0.0690  0.3048 -0.2094
  157CHOL    R4 1424  10.658  12.793   7.114  0.1556 -0.0011  0.0727
  157CHOL    R5 1425  10.731  12.999   7.118 -0.0595  0.0908 -0.1839
  157CHOL    C1 1426  10.535  12.991   7.446  0.1828  0.1927 -0.0339
  157CHOL    C2 1427  10.552  13.246   7.843  0.0073 -0.3205 -0.1169
  158XCA    COO 1428   8.891   5.661   4.515  0.0207 -0.1876  0.1724
  158XCA     C1 1429   8.461   5.645   4.374  0.0670  0.0813  0.1220
  158XCA     C2 1430   8.091   5.695   4.519 -0.3461 -0.4464  0.1303
  158XCA     C3 1431   7.789   5.716   4.818 -0.1221 -0.0560  0.4418
  158XCA     C4 1432   7.532   5.897   4.805 -0.0612  0.0530 -0.0996
  158XCA     C5 1433   7.371   6.321   4.806 -0.1996 -0.2772 -0.1181
  158XCA     C6 1434   7.314   6.601   4.493 -0.0688  0.2245 -0.3533
  159PNCE   AM1 1435   3.345   8.982   5.230 -0.0978  0.0139 -0.4010
  159PNCE   AM2 1436   3.436   9.210   5.109 -0.2400 -0.1288  0.0628
  159PNCE   T1A 1437   3.321   9.008   5.747  0.3158 -0.1060 -0.2106
  159PNCE   C2A 1438   3.355   9.125   6.194  0.0007 -0.0741 -0.2805
  159PNCE   C3A 1439   3.672   9.392   6.432 -0.1721 -0.1233  0.0634
  159PNCE   C1B 1440   3.671   9.240   5.529  0.1218 -0.1468  0.3242
  159PNCE   C2B 1441   3.573   9.453   5.964 -0.2681  0.2929 -0.0432
  159PNCE   C3B 1442   3.874   9.645   6.120  0.0264 -0.0555 -0.2241
  159PNCE   D4B 1443   4.356   9.700   6.121 -0.1933  0.1449  0.0438
  159PNCE   C5B 1444   4.611   9.784   6.565  0.2247 -0.0856  0.0307
  159PNCE   C6B 1445   4.257   9.862   6.847  0.0889  0.0998  0.0927
  160XCA    COO 1446   6.622   5.682   7.531  0.2596  0.1207  0.0627
  160XCA     C1 1447   6.387   5.794   7.113  0.1662 -0.1474 -0.0601
  160XCA     C2 1448   6.655   5.628   6.759  0.1566  0.1029  0.2906
  160XCA     C3 1449   7.019   5.676   6.638 -0.1060 -0.0031 -0.0882
  160XCA     C4 1450   7.531   5.667   6.455 -0.1622 -0.1936  0.1189
  160XCA     C5 1451   7.759   5.328   6.554 -0.0307  0.1368  0.2207
  160XCA     C6 1452   7.589   4.896   6.677 -0.1877 -0.2080 -0.1230
  161CHOL   ROH 1453   7.885   2.008   6.520  0.0754 -0.1140 -0.1270
  161CHOL    R1 1454   7.752   2.109   6.292 -0.0033 -0.1098 -0.0796
  161CHOL    R2 1455   7.746   1.973   6.051  0.0167 -0.0484 -0.1136
  161CHOL    R3 1456   7.477   2.003   6.078  0.0074 -0.1691 -0.0648
  161CHOL    R4 1457   7.519   1.955   5.791 -0.0289 -0.2339 -0.0620
  161CHOL    R5 1458   7.411   2.122   5.880 -0.0904 -0.2576 -0.0875
  161CHOL    C1 1459   7.134   1.972   5.665 -0.0642 -0.4552  0.0139
  161CHOL    C2 1460   6.853   1.746   5.372  0.0148  0.0748 -0.1158
  162CHOL   ROH 1461  11.378   0.735   7.993 -0.3491  0.0451 -0.1290
  162CHOL    R1 1462  11.393   0.535   7.793 -0.1748  0.0425 -0.1152
  162CHOL    R2 1463  11.629   0.470   7.665 -0.0614  0.0443  0.0866
  162CHOL    R3 1464  11.567   0.219   7.748 -0.1298  0.0450  0.0387
  162CHOL    R4 1465  11.770   0.180   7.541 -0.1094  0.0299  0.0652
  162CHOL    R5 1466  11.574   0.087   7.549 -0.1304  0.0731  0.0213
  162CHOL    C1 1467  11.795  -0.224   7.546 -0.2017  0.0220  0.0078
  162CHOL    C2 1468  12.092  -0.369   7.378 -0.1685 -0.0167 -0.1871
  163CHOL   ROH 1469   9.723  10.923   9.395 -0.0645  0.0422 -0.1898
  163CHOL    R1 1470   9.649  10.813   9.145  0.0444  0.0534 -0.2290
  163CHOL    R2 1471   9.832  10.768   8.943  0.1502 -0.0111 -0.1298
  163CHOL    R3 1472   9.731  10.515   8.952  0.0691  0.0216 -0.1661
  163CHOL    R4 1473   9.835  10.544   8.680  0.0284  0.0357 -0.1699
  163CHOL    R5 1474   9.634  10.482   8.736  0.0234  0.0925 -0.1513
  163CHOL    C1 1475   9.743  10.177   8.535 -0.1186  0.0936 -0.2273
  163CHOL    C2 1476   9.609   9.938   8.208 -0.0192  0.0868  0.0993
  164CHOL   ROH 1477   8.088   9.726   8.954  0.1019 -0.1485 -0.2017
  164CHOL    R1 1478   8.218   9.973   8.907 -0.0930 -0.0169 -0.0673
  164CHOL    R2 1479   8.479   9.989   8.815 -0.0110  0.2412  0.1861
  164CHOL    R3 1480   8.367  10.144   8.622  0.0200  0.1311  0.0799
  164CHOL    R4 1481   8.654  10.150   8.565  0.0111  0.0223  0.0586
  164CHOL    R5 1482   8.523  10.322   8.591  0.0579  0.0704 -0.0589
  164CHOL    C1 1483   8.651  10.390   8.238  0.0530 -0.2083 -0.1153
  164CHOL    C2 1484   8.817  10.723   8.185 -0.0075  0.0392  0.0883
  165CHOL   ROH 1485  11.679   6.024   7.835  0.1135  0.0063  0.2084
  165CHOL    R1 1486  11.563   5.780   7.753  0.0132  0.1424 -0.0650
  165CHOL    R2 1487  11.606   5.672   7.503  0.3940  0.1520 -0.0049
  165CHOL    R3 1488  11.682   5.453   7.645 -0.1140  0.0347  0.1104
  165CHOL    R4 1489  11.598   5.347   7.384  0.5027  0.2151 -0.1908
  165CHOL    R5 1490  11.526   5.283   7.581 -0.0652  0.1597 -0.3920
  165CHOL    C1 1491  11.665   4.953   7.449  0.0893  0.1416 -0.1910
  165CHOL    C2 1492  11.903   4.571   7.322  0.1568  0.0109  0.0037
  166CHOL   ROH 1493  12.524   1.512   6.078  0.0561  0.1234  0.0315
  166CHOL    R1 1494  12.390   1.645   6.289  0.1213  0.0926  0.0920
  166CHOL    R2 1495  12.465   1.617   6.553  0.3426  0.2275  0.0427
  166CHOL    R3 1496  12.476   1.889   6.545  0.1416  0.2350 -0.0482
  166CHOL    R4 1497  12.326   1.828   6.789  0.5603  0.1855  0.2124
  166CHOL    R5 1498  12.262   1.959   6.627  0.2126  0.1033  0.2694
  166CHOL    C1 1499  12.255   2.205   6.919  0.4983  0.1682  0.2259
  166CHOL    C2 1500  12.179   2.571   7.144  0.0158 -0.3559 -0.0195
  167PNCE   AM1 1501  13.579   5.013   9.608  0.1357  0.0538 -0.1338
  167PNCE   AM2 1502  13.581   4.802   9.352 -0.1709 -0.2012  0.1239
  167PNCE   T1A 1503  13.442   5.325   9.260  0.0207  0.3238 -0.1087
  167PNCE   C2A 1504  13.302   5.469   8.993  0.1100 -0.0654  0.0701
  167PNCE   C3A 1505  12.893   5.561   8.763  0.2960  0.2132  0.0823
  167PNCE   C1B 1506  13.412   4.876   8.989  0.0284 -0.3879  0.4192
  167PNCE   C2B 1507  13.391   5.029   8.666 -0.0457  0.1048 -0.0503
  167PNCE   C3B 1508  13.038   5.280   8.376 -0.4168  0.3026 -0.1423
  167PNCE   D4B 1509  12.725   5.456   8.222  0.0285  0.1041  0.2411
  167PNCE   C5B 1510  12.445   5.679   8.533  0.0822 -0.0495  0.3921
  167PNCE   C6B 1511  12.448   5.946   8.818  0.0145 -0.2768  0.2094
  168CHOL   ROH 1512   4.480   0.294   7.309 -0.2195 -0.0024  0.0285
  168CHOL    R1 1513   4.398   0.352   7.044 -0.0181  0.0547 -0.0237
  168CHOL    R2 1514   4.145   0.291   6.950  0.1204 -0.1311 -0.2987
  168CHOL    R3 1515   4.142   0.555   6.886 -0.0541 -0.0992 -0.1635
  168CHOL    R4 1516   3.943   0.433   6.709  0.1571 -0.1663 -0.3500
  168CHOL    R5 1517   4.110   0.558   6.648  0.0921  0.0011 -0.1801
  168CHOL    C1 1518   3.821   0.764   6.508  0.0147 -0.1568 -0.2530
  168CHOL    C2 1519   3.476   0.808   6.362  0.2925  0.2642  0.1437
  169XCA    COO 1520   4.892   2.968   8.126 -0.1249  0.0506  0.1842
  169XCA     C1 1521   4.819   2.898   7.667 -0.2396 -0.3808 -0.2381
  169XCA     C2 1522   4.627   3.168   7.329 -0.0843 -0.0030  0.2967
  169XCA     C3 1523   4.496   3.053   6.940  0.0647  0.0620  0.0518
  169XCA     C4 1524   4.686   2.841   6.579 -0.0006 -0.0038  0.0943
  169XCA     C5 1525   4.767   2.861   6.123 -0.1404  0.1325 -0.0247
  169XCA     C6 1526   4.805   2.939   5.775  0.1294  0.1526  0.1598
  170CHOL   ROH 1527  15.003   4.657   8.867  0.3436  0.1523 -0.0086
  170CHOL    R1 1528  14.881   4.670   8.612  0.1330 -0.0736  0.0755
  170CHOL    R2 1529  14.933   4.874   8.432 -0.2582 -0.0506 -0.0275
  170CHOL    R3 1530  14.991   4.668   8.265 -0.1185 -0.0276 -0.0061
  170CHOL    R4 1531  14.874   4.873   8.092 -0.3865 -0.1830 -0.0051
  170CHOL    R5 1532  14.810   4.665   8.108 -0.1742 -0.2411  0.0626
  170CHOL    C1 1533  14.895   4.680   7.736 -0.3300 -0.2384  0.0279
  170CHOL    C2 1534  14.558   4.676   7.475 -0.0038 -0.0329 -0.1022
  171XCA    COO 1535   6.797   1.663   3.003 -0.2131  0.3323  0.0514
  171XCA     C1 1536   6.580   1.476   3.316  0.3914  0.2483  0.1264
  171XCA     C2 1537   6.366   1.364   3.730 -0.3696 -0.0285 -0.0603
  171XCA     C3 1538   6.311   1.329   4.195  0.2921 -0.2896 -0.0610
  171XCA     C4 1539   6.146   1.527   4.567  0.0635 -0.0270 -0.0036
  171XCA     C5 1540   6.028   1.299   4.982 -0.1813 -0.2412  0.1085
  171XCA     C6 1541   6.256   1.121   5.382 -0.2323  0.0418  0.0585
  172PNCE   AM1 1542   0.265   9.652   9.150  0.0105 -0.1865  0.1367
  172PNCE   AM2 1543   0.017   9.348   9.075  0.1256 -0.0523  0.0885
  172PNCE   T1A 1544   0.304   9.777   8.680 -0.3204  0.0305  0.0232
  172PNCE   C2A 1545   0.435   9.751   8.218 -0.0625  0.3282 -0.0684
  172PNCE   C3A 1546   0.620   9.516   7.762 -0.1581  0.0600  0.1334
  172PNCE   C1B 1547   0.004   9.280   8.552  0.0092 -0.0702 -0.0500
  172PNCE   C2B 1548  -0.161   9.180   8.083  0.2863  0.0051 -0.0577
  172PNCE   C3B 1549   0.019   9.068   7.758 -0.1182 -0.0945  0.0463
  172PNCE   D4B 1550   0.471   9.048   7.642 -0.0410 -0.1165  0.0057
  172PNCE   C5B 1551   0.565   8.786   7.315  0.0536 -0.2812  0.0446
  172PNCE   C6B 1552   0.734   8.344   7.246  0.0299 -0.1540  0.0878
  173PNCE   AM1 1553   7.111   6.855   8.265 -0.1777 -0.1776  0.0017
  173PNCE   AM2 1554   6.777   6.809   8.197  0.0995  0.0763  0.0685
  173PNCE   T1A 1555   7.411   7.056   8.006  0.2260 -0.0137  0.2735
  173PNCE   C2A 1556   7.501   7.383   7.718  0.2657  0.2841  0.1215
  173PNCE   C3A 1557   7.915   7.493   7.783 -0.0686 -0.4064 -0.0776
  173PNCE   C1B 1558   6.954   6.936   7.746  0.1679 -0.0514  0.3863
  173PNCE   C2B 1559   6.766   7.064   7.323  0.0082 -0.1720 -0.0295
  173PNCE   C3B 1560   6.683   7.435   7.170  0.1513  0.0880  0.0252
  173PNCE   D4B 1561   6.680   7.881   7.039 -0.0090 -0.1182  0.0481
  173PNCE   C5B 1562   6.331   8.119   6.870  0.1190 -0.0033 -0.1039
  173PNCE   C6B 1563   5.940   8.213   6.708  0.0515 -0.1834 -0.0354
  174CHOL   ROH 1564   4.933  14.732   4.888  0.0151 -0.3088  0.0382
  174CHOL    R1 1565   5.032  14.703   5.152  0.0004 -0.0780  0.0729
  174CHOL    R2 1566   5.029  14.909   5.335 -0.0517  0.0778 -0.0855
  174CHOL    R3 1567   4.898  14.726   5.489 -0.0358  0.1734  0.0396
  174CHOL    R4 1568   4.907  14.970   5.653 -0.1640  0.3007 -0.1707
  174CHOL    R5 1569   4.975  14.771   5.712 -0.1213  0.3825  0.0202
  174CHOL    C1 1570   4.714  14.835   5.982 -0.2144  0.5202 -0.1027
  174CHOL    C2 1571   4.829  15.072   6.345  0.0861  0.1606 -0.2118
  175XCA    COO 1572  10.747   4.758   8.892  0.0428  0.0734  0.1319
  175XCA     C1 1573  10.553   4.585   8.483  0.3472  0.5597  0.0775
  175XCA     C2 1574  10.297   4.704   8.157  0.0339 -0.0870  0.2622
  175XCA     C3 1575  10.239   4.904   7.804  0.0449 -0.1759 -0.1120
  175XCA     C4 1576  10.354   4.780   7.317  0.3753  0.0378 -0.0221
  175XCA     C5 1577  10.382   4.563   6.897  0.1452 -0.0674 -0.1744
  175XCA     C6 1578  10.552   4.704   6.529  0.2733  0.0064  0.1597
  176CHOL   ROH 1579   7.549   0.712   4.541  0.0497  0.1300 -0.0053
  176CHOL    R1 1580   7.352   0.827   4.708 -0.0263  0.0290 -0.0230
  176CHOL    R2 1581   7.243   0.692   4.924  0.0552 -0.0119 -0.0009
  176CHOL    R3 1582   7.322   0.913   5.061 -0.0816  0.0585 -0.0361
  176CHOL    R4 1583   7.176   0.752   5.257  0.1687 -0.0775  0.0334
  176CHOL    R5 1584   7.139   0.961   5.207 -0.0499 -0.1130  0.0568
  176CHOL    C1 1585   7.211   0.994   5.580  0.1065 -0.0496  0.0205
  176CHOL    C2 1586   7.067   1.018   5.873  0.0961 -0.0118 -0.1278
  177CHOL   ROH 1587   2.167   4.997   4.964  0.1474 -0.1060 -0.0390
  177CHOL    R1 1588   2.247   4.967   5.234  0.1429 -0.0209 -0.0280
  177CHOL    R2 1589   2.069   4.910   5.436  0.1596 -0.1000 -0.0361
  177CHOL    R3 1590   2.238   4.703   5.484  0.2800  0.0076  0.0082
  177CHOL    R4 1591   2.138   4.781   5.749 -0.0249 -0.2056 -0.0374
  177CHOL    R5 1592   2.347   4.762   5.690  0.0480 -0.0098  0.1408
  177CHOL    C1 1593   2.338   4.511   5.977 -0.0192 -0.1662  0.0033
  177CHOL    C2 1594   2.207   4.258   6.179 -0.0506  0.2070  0.1084
  178CHOL   ROH 1595   2.768  14.591   5.017 -0.0993 -0.0495  0.0387
  178CHOL    R1 1596   2.814  14.584   5.296 -0.0744 -0.0206  0.0366
  178CHOL    R2 1597   2.975  14.769   5.425 -0.0552 -0.0061  0.0064
  178CHOL    R3 1598   2.754  14.804   5.580 -0.0452  0.0136  0.0138
  178CHOL    R4 1599   2.975  14.913   5.739  0.0005 -0.2717  0.1297
  178CHOL    R5 1600   2.830  14.762   5.803 -0.1036 -0.2238 -0.0139
  178CHOL    C1 1601   2.768  15.030   6.068  0.0423 -0.4077  0.2085
  178CHOL    C2 1602   2.923  15.324   6.253  0.2102 -0.2036 -0.1289
  179XCA    COO 1603   5.340  14.348   4.709  0.0868 -0.0775 -0.1553
  179XCA     C1 1604   5.515  14.503   5.100 -0.2140  0.2064 -0.0847
  179XCA     C2 1605   5.453  14.752   5.484 -0.1197  0.1081 -0.0263
  179XCA     C3 1606   5.520  14.819   5.871 -0.0645 -0.1012 -0.0606
  179XCA     C4 1607   5.430  14.998   6.338 -0.2981 -0.0144 -0.0145
  179XCA     C5 1608   5.301  14.763   6.652  0.2450  0.0730  0.0701
  179XCA     C6 1609   5.166  14.415   6.597 -0.1645 -0.0923 -0.3515
  180XCA    COO 1610   5.749   3.480   7.766  0.0767  0.2002  0.1158
  180XCA     C1 1611   5.377   3.653   7.430 -0.1860  0.0517  0.0728
  180XCA     C2 1612   5.207   3.735   7.093 -0.0633  0.0838 -0.3481
  180XCA     C3 1613   5.189   3.746   6.722 -0.1033 -0.0970  0.1906
  180XCA     C4 1614   4.999   3.767   6.280 -0.0859  0.1618 -0.0282
  180XCA     C5 1615   4.831   4.193   6.209 -0.0226  0.2521 -0.0688
  180XCA     C6 1616   4.882   4.652   6.219 -0.0296  0.2671 -0.2563
  181CHOL   ROH 1617   7.910  13.746   5.159  0.1075 -0.1524  0.0669
  181CHOL    R1 1618   8.065  13.805   5.389  0.1488 -0.1115  0.0292
  181CHOL    R2 1619   8.328  13.888   5.374  0.0826  0.0974 -0.0418
  181CHOL    R3 1620   8.237  14.095   5.524 -0.0243 -0.0229  0.0612
  181CHOL    R4 1621   8.527  14.133   5.513 -0.0505  0.1577  0.0431
  181CHOL    R5 1622   8.404  14.125   5.693 -0.0232  0.0045  0.0533
  181CHOL    C1 1623   8.558  14.471   5.736 -0.2285  0.0799  0.1893
  181CHOL    C2 1624   8.330  14.884   5.755  0.1051  0.3451  0.2061
  182CHOL   ROH 1625   9.172  11.360   8.908 -0.2397  0.2210 -0.1145
  182CHOL    R1 1626   9.180  11.349   8.626 -0.1356 -0.0123 -0.1024
  182CHOL    R2 1627   9.399  11.430   8.479 -0.1134 -0.0732 -0.0860
  182CHOL    R3 1628   9.380  11.180   8.373  0.0011 -0.1658  0.1014
  182CHOL    R4 1629   9.593  11.312   8.219 -0.2597 -0.0564 -0.2064
  182CHOL    R5 1630   9.416  11.213   8.138 -0.2654 -0.2771  0.0339
  182CHOL    C1 1631   9.690  11.009   7.968 -0.2376 -0.1336 -0.1007
  182CHOL    C2 1632   9.892  10.684   7.777  0.2373  0.1772 -0.1523
  183PNCE   AM1 1633   0.400  14.291   8.780  0.2497  0.4023 -0.0728
  183PNCE   AM2 1634   0.401  14.013   8.763  0.1844 -0.0145  0.1683
  183PNCE   T1A 1635   0.123  14.066   8.337 -0.0127  0.0361  0.3610
  183PNCE   C2A 1636   0.118  13.774   7.876  0.0778 -0.3637 -0.0905
  183PNCE   C3A 1637  -0.084  13.848   7.456  0.3095  0.2609  0.0063
  183PNCE   C1B 1638   0.590  13.899   8.331  0.1496 -0.0248  0.1033
  183PNCE   C2B 1639   0.645  13.751   7.872  0.3261 -0.3345 -0.0866
  183PNCE   C3B 1640   0.587  13.654   7.424  0.2973 -0.0501 -0.0334
  183PNCE   D4B 1641   0.288  13.672   7.088 -0.1391 -0.1314 -0.2158
  183PNCE   C5B 1642   0.135  14.067   6.952  0.2911 -0.1142  0.1422
  183PNCE   C6B 1643   0.064  14.344   7.362  0.1868 -0.1633 -0.0236
  184PNCE   AM1 1644   0.455  13.380   8.317  0.0329  0.1703  0.2419
  184PNCE   AM2 1645   0.669  13.487   8.577  0.1442 -0.1038 -0.0028
  184PNCE   T1A 1646   0.290  13.309   7.856 -0.3047  0.0660 -0.0884
  184PNCE   C2A 1647   0.468  13.155   7.556  0.0283  0.0945  0.0465
  184PNCE   C3A 1648   0.538  13.140   7.150  0.0164 -0.2872 -0.2130
  184PNCE   C1B 1649   1.012  13.614   8.236  0.1463  0.1536  0.0334
  184PNCE   C2B 1650   1.136  13.490   7.868 -0.1994  0.1112  0.1529
  184PNCE   C3B 1651   1.366  13.342   7.549 -0.0870  0.0132 -0.1383
  184PNCE   D4B 1652   1.679  13.040   7.394 -0.1096  0.0959 -0.1818
  184PNCE   C5B 1653   1.901  13.118   7.040 -0.1148  0.0087  0.0254
  184PNCE   C6B 1654   2.383  13.141   6.922 -0.2064 -0.1847  0.4402
  185PNCE   AM1 1655  12.386   0.101   8.647  0.0737 -0.1294  0.2084
  185PNCE   AM2 1656  12.139   0.234   8.936 -0.1248 -0.1728  0.1191
  185PNCE   T1A 1657  12.061  -0.100   8.418 -0.3578 -0.0701  0.0398
  185PNCE   C2A 1658  11.850  -0.496   8.087  0.0315 -0.2188 -0.2566
  185PNCE   C3A 1659  11.731  -0.689   7.730 -0.0097 -0.3157 -0.0766
  185PNCE   C1B 1660  11.966   0.699   8.691  0.4931 -0.3358 -0.1534
  185PNCE   C2B 1661  12.006   0.840   8.291  0.0226  0.0718 -0.4395
  185PNCE   C3B 1662  11.816   0.876   7.878  0.0859 -0.2859  0.0397
  185PNCE   D4B 1663  11.731   0.837   7.420  0.1539  0.0467 -0.2860
  185PNCE   C5B 1664  11.889   0.548   7.180  0.1434  0.0471  0.2712
  185PNCE   C6B 1665  11.849   0.366   6.845 -0.0331  0.1031 -0.0026
  186PNCE   AM1 1666   0.370   7.757   9.049 -0.0946  0.1281  0.1986
  186PNCE   AM2 1667   0.052   7.908   9.045  0.0492  0.3338 -0.0008
  186PNCE   T1A 1668   0.645   7.616   8.638  0.0052 -0.1051  0.0350
  186PNCE   C2A 1669   0.895   7.853   8.295  0.1236 -0.4009  0.0650
  186PNCE   C3A 1670   1.027   8.252   8.207  0.0971 -0.2540  0.0141
  186PNCE   C1B 1671  -0.004   8.109   8.628  0.0359  0.0158 -0.2372
  186PNCE   C2B 1672  -0.012   8.206   8.095 -0.4274  0.1752  0.2180
  186PNCE   C3B 1673   0.206   8.405   7.773 -0.0723 -0.2823 -0.1012
  186PNCE   D4B 1674   0.619   8.556   7.749 -0.0571 -0.0033  0.1944
  186PNCE   C5B 1675   0.913   8.196   7.724  0.1759 -0.1219  0.2333
  186PNCE   C6B 1676   1.344   8.029   7.842 -0.0049 -0.3193 -0.0399
  187PNCE   AM1 1677   0.310   3.357   8.353  0.3691  0.0291  0.1381
  187PNCE   AM2 1678   0.360   3.138   8.299 -0.1117 -0.1434 -0.0638
  187PNCE   T1A 1679   0.095   3.546   7.955  0.2292 -0.3761 -0.0200
  187PNCE   C2A 1680  -0.270   3.861   7.804  0.1985  0.4579  0.1085
  187PNCE   C3A 1681  -0.377   4.170   7.628 -0.3295 -0.1129  0.0345
  187PNCE   C1B 1682   0.050   3.091   7.900 -0.0341 -0.0541  0.0549
  187PNCE   C2B 1683   0.115   3.269   7.551  0.4591 -0.0275 -0.0791
  187PNCE   C3B 1684   0.023   3.601   7.392 -0.0107  0.0204 -0.0978
  187PNCE   D4B 1685  -0.284   3.869   7.217  0.0593  0.2010 -0.3436
  187PNCE   C5B 1686  -0.195   3.765   6.735 -0.0671 -0.0934  0.2270
  187PNCE   C6B 1687  -0.273   3.887   6.433 -0.1917 -0.0168 -0.1433
  188XCA    COO 1688  11.867   3.481   4.307 -0.1041 -0.0907  0.1028
  188XCA     C1 1689  11.610   3.188   4.641 -0.1144 -0.1767 -0.0951
  188XCA     C2 1690  11.678   3.014   5.039 -0.0599  0.2513  0.2600
  188XCA     C3 1691  11.786   2.863   5.386  0.1160 -0.0547 -0.0020
  188XCA     C4 1692  11.745   2.642   5.751 -0.0346 -0.4702 -0.1425
  188XCA     C5 1693  11.565   2.544   6.131  0.2646 -0.1009 -0.0788
  188XCA     C6 1694  11.486   2.522   6.532  0.1224 -0.2225  0.2420
  189PNCE   AM1 1695  11.505  11.938   9.708  0.1021 -0.0343  0.0411
  189PNCE   AM2 1696  11.868  11.879   9.565 -0.0841 -0.1981 -0.0493
  189PNCE   T1A 1697  11.450  11.566   9.446  0.2605 -0.1568  0.1057
  189PNCE   C2A 1698  11.250  11.384   9.020  0.0138  0.1308 -0.2877
  189PNCE   C3A 1699  11.213  11.180   8.519  0.2913 -0.2238  0.1886
  189PNCE   C1B 1700  11.648  11.930   9.190  0.0418  0.2579  0.0384
  189PNCE   C2B 1701  11.601  11.684   8.851  0.2706 -0.0020  0.3984
  189PNCE   C3B 1702  11.889  11.496   8.630  0.0520  0.0613  0.2065
  189PNCE   D4B 1703  12.026  11.788   8.266  0.0273 -0.0451 -0.1445
  189PNCE   C5B 1704  11.625  11.886   7.928 -0.0298 -0.0824 -0.1596
  189PNCE   C6B 1705  11.100  11.833   7.968 -0.1083  0.1691  0.4509
  190PNCE   AM1 1706   7.578   4.250   7.492  0.1994 -0.2131  0.2247
  190PNCE   AM2 1707   7.277   4.063   7.476  0.0368 -0.1474  0.0500
  190PNCE   T1A 1708   7.879   4.231   7.255 -0.1097  0.2798  0.4154
  190PNCE   C2A 1709   8.305   4.310   7.080 -0.1655 -0.1235 -0.3153
  190PNCE   C3A 1710   8.763   4.304   6.810  0.0469  0.2498 -0.2278
  190PNCE   C1B 1711   7.024   4.245   7.054  0.0390  0.0321 -0.2127
  190PNCE   C2B 1712   7.003   4.600   6.815  0.1806  0.0521 -0.3414
  190PNCE   C3B 1713   7.179   4.789   6.435  0.1415 -0.1444 -0.1153
  190PNCE   D4B 1714   7.214   5.272   6.238 -0.2387 -0.1875  0.2116
  190PNCE   C5B 1715   7.098   5.572   5.920  0.0019 -0.1100 -0.1495
  190PNCE   C6B 1716   7.290   5.612   5.549 -0.3527 -0.0031  0.5142
  191CHOL   ROH 1717  10.915   1.222   7.445  0.0430  0.1163 -0.0294
  191CHOL    R1 1718  11.142   1.056   7.413 -0.0313 -0.0482  0.2734
  191CHOL    R2 1719  11.149   0.795   7.504 -0.4848 -0.1730 -0.0338
  191CHOL    R3 1720  11.217   0.741   7.247  0.0522  0.0920  0.0374
  191CHOL    R4 1721  11.279   0.495   7.393 -0.8045 -0.2759 -0.1438
  191CHOL    R5 1722  11.415   0.607   7.264 -0.2405 -0.3309  0.3497
  191CHOL    C1 1723  11.418   0.269   7.086 -0.4867 -0.0870 -0.1410
  191CHOL    C2 1724  11.675  -0.040   7.095  0.1600  0.0328  0.3958
  192CHOL   ROH 1725   3.369   0.452   5.947  0.0152 -0.0524 -0.1280
  192CHOL    R1 1726   3.572   0.619   5.843 -0.0210  0.0427 -0.0452
  192CHOL    R2 1727   3.592   0.679   5.574  0.1023 -0.0074 -0.0439
  192CHOL    R3 1728   3.587   0.936   5.664 -0.0979  0.0130 -0.1068
  192CHOL    R4 1729   3.711   0.951   5.398  0.5478 -0.0572  0.1646
  192CHOL    R5 1730   3.793   1.030   5.584  0.1123 -0.0201  0.3569
  192CHOL    C1 1731   3.776   1.350   5.378  0.6192 -0.0670  0.2269
  192CHOL    C2 1732   3.839   1.313   4.967 -0.0250 -0.1168  0.1357
  193XCA    COO 1733   2.782   4.200   8.122 -0.1288 -0.0669  0.2121
  193XCA     C1 1734   2.767   3.887   7.862  0.0044 -0.1963  0.2137
  193XCA     C2 1735   2.700   3.590   7.465  0.1729 -0.2893  0.2241
  193XCA     C3 1736   2.965   3.275   7.314 -0.1147  0.0189  0.0778
  193XCA     C4 1737   3.021   3.181   6.898  0.0148  0.1174  0.1587
  193XCA     C5 1738   2.855   3.078   6.433  0.0954  0.0652  0.2540
  193XCA     C6 1739   2.998   2.793   6.085 -0.2062  0.1860  0.1502
  194CHOL   ROH 1740  12.392   4.066   7.191 -0.1068 -0.3315  0.1881
  194CHOL    R1 1741  12.256   4.179   6.970  0.1108 -0.1595  0.1377
  194CHOL    R2 1742  12.354   4.162   6.712  0.1869 -0.2773  0.1691
  194CHOL    R3 1743  12.108   4.057   6.660  0.0725  0.0229  0.0841
  194CHOL    R4 1744  12.185   4.193   6.412  0.2618  0.0426  0.1573
  194CHOL    R5 1745  12.000   4.222   6.525  0.2782  0.2032  0.1385
  194CHOL    C1 1746  11.856   4.112   6.189  0.1979  0.5107  0.0706
  194CHOL    C2 1747  11.707   4.138   5.921 -0.1052  0.1150 -0.0733
  195PNCE   AM1 1748   3.991   1.025   7.563  0.2244 -0.2001  0.1509
  195PNCE   AM2 1749   4.057   1.372   7.463  0.2414 -0.0845  0.2193
  195PNCE   T1A 1750   4.086   1.013   7.042  0.2756 -0.0668  0.0276
  195PNCE   C2A 1751   4.334   0.961   6.733  0.3757  0.0452 -0.2814
  195PNCE   C3A 1752   4.608   0.567   6.719 -0.1109 -0.1835 -0.3105
  195PNCE   C1B 1753   4.224   1.722   7.183  0.2296  0.4128 -0.0916
  195PNCE   C2B 1754   4.299   2.004   6.899  0.2689 -0.3145  0.6831
  195PNCE   C3B 1755   4.008   2.026   6.679 -0.4623  0.0538 -0.0674
  195PNCE   D4B 1756   3.652   2.147   6.816  0.0421 -0.2665 -0.1325
  195PNCE   C5B 1757   3.742   2.000   7.118  0.0107  0.1357  0.0858
  195PNCE   C6B 1758   3.660   1.776   7.536 -0.1304  0.0273  0.3979
  196XCA    COO 1759  13.754   4.422  10.177 -0.2925 -0.1332 -0.0671
  196XCA     C1 1760  13.858   4.638   9.806  0.1514 -0.0720 -0.2264
  196XCA     C2 1761  14.080   4.876   9.401 -0.0502  0.3219 -0.2223
  196XCA     C3 1762  14.316   4.935   8.998 -0.0183  0.0835  0.2008
  196XCA     C4 1763  14.480   4.934   8.644 -0.0907 -0.0532 -0.1881
  196XCA     C5 1764  14.426   4.950   8.239  0.3646 -0.0080  0.0986
  196XCA     C6 1765  14.351   4.817   7.925  0.2123 -0.1565  0.0145
  197CHOL   ROH 1766  13.512   9.075   8.941  0.0033  0.2657  0.2298
  197CHOL    R1 1767  13.506   9.080   8.658  0.1932  0.0539  0.2190
  197CHOL    R2 1768  13.398   9.291   8.515  0.0091 -0.1880 -0.0083
  197CHOL    R3 1769  13.641   9.292   8.395  0.0968  0.0477  0.1646
  197CHOL    R4 1770  13.473   9.462   8.225  0.0742 -0.0588  0.0839
  197CHOL    R5 1771  13.592   9.291   8.160  0.2671  0.0569  0.1286
  197CHOL    C1 1772  13.746   9.564   7.943  0.1944  0.2375  0.3000
  197CHOL    C2 1773  13.801   9.685   7.531  0.0038 -0.1804  0.0118
  198CHOL   ROH 1774  12.033  14.512   5.055  0.0199 -0.0107 -0.1082
  198CHOL    R1 1775  12.162  14.331   5.230 -0.1083 -0.1395 -0.1455
  198CHOL    R2 1776  12.142  14.351   5.505  0.1950  0.0423 -0.1336
  198CHOL    R3 1777  12.061  14.092   5.485 -0.2651  0.1594  0.0798
  198CHOL    R4 1778  12.124  14.129   5.769  0.4286  0.1192 -0.0504
  198CHOL    R5 1779  12.203  13.973   5.638 -0.1028 -0.0364 -0.2112
  198CHOL    C1 1780  12.038  13.757   5.905  0.1326  0.2738  0.1983
  198CHOL    C2 1781  12.240  13.539   6.246 -0.0561 -0.1461  0.0095
  199PNCE   AM1 1782   5.112   8.021   8.058  0.0091 -0.3907 -0.0556
  199PNCE   AM2 1783   5.016   8.252   7.899  0.1470 -0.2799 -0.0827
  199PNCE   T1A 1784   5.377   7.841   7.827 -0.0804 -0.1137  0.2323
  199PNCE   C2A 1785   5.794   7.751   7.895  0.1437 -0.1391  0.1342
  199PNCE   C3A 1786   6.212   7.900   7.931 -0.2933  0.1820  0.0133
  199PNCE   C1B 1787   5.161   8.245   7.494 -0.0754 -0.2563 -0.1994
  199PNCE   C2B 1788   5.387   8.064   7.210  0.0953 -0.0289  0.2527
  199PNCE   C3B 1789   5.528   7.866   6.929  0.2036 -0.0004 -0.2750
  199PNCE   D4B 1790   5.342   7.483   6.863  0.1813  0.1214  0.1234
  199PNCE   C5B 1791   4.882   7.341   7.010  0.2197  0.0310 -0.0587
  199PNCE   C6B 1792   4.526   7.046   7.115 -0.1552  0.1334 -0.1044
  200PNCE   AM1 1793   8.496   5.717   7.693  0.0672  0.1209 -0.3981
  200PNCE   AM2 1794   8.317   5.936   7.631  0.0462  0.2341  0.0525
  200PNCE   T1A 1795   8.551   5.432   7.382  0.2512  0.0881  0.0685
  200PNCE   C2A 1796   8.616   5.478   6.916  0.0588  0.2059 -0.0159
  200PNCE   C3A 1797   8.681   5.584   6.507  0.1940 -0.1087  0.2412
  200PNCE   C1B 1798   8.319   6.428   7.576  0.1188  0.0593 -0.0277
  200PNCE   C2B 1799   8.029   6.615   7.313 -0.5923  0.0115 -0.0824
  200PNCE   C3B 1800   8.140   6.993   7.130 -0.2922 -0.0010 -0.3507
  200PNCE   D4B 1801   8.291   7.378   7.002  0.0944  0.1022 -0.4228
  200PNCE   C5B 1802   8.203   7.690   6.675 -0.2605  0.1165 -0.0861
  200PNCE   C6B 1803   7.908   7.954   6.546 -0.0445 -0.2155  0.2170
  201CHOL   ROH 1804  11.182   0.028   5.116 -0.1098 -0.3794 -0.0691
  201CHOL    R1 1805  11.156   0.123   5.381 -0.1097 -0.1043 -0.1647
  201CHOL    R2 1806  10.916   0.209   5.486 -0.1591 -0.2178 -0.1825
  201CHOL    R3 1807  10.972   0.028   5.680  0.0837  0.0500  0.0068
  201CHOL    R4 1808  10.806   0.230   5.813 -0.4988 -0.2083 -0.2936
  201CHOL    R5 1809  11.002   0.160   5.878 -0.3861  0.2788 -0.0614
  201CHOL    C1 1810  10.794   0.072   6.186 -0.4686  0.0486 -0.1806
  201CHOL    C2 1811  10.730   0.289   6.521  0.1040  0.0394 -0.1902
  202CHOL   ROH 1812   5.693  10.838   4.934  0.0386  0.2234  0.0044
  202CHOL    R1 1813   5.504  10.781   5.137 -0.0060  0.0984 -0.0715
  202CHOL    R2 1814   5.540  10.579   5.321  0.1310  0.2230  0.0406
  202CHOL    R3 1815   5.499  10.779   5.500 -0.1972  0.2617 -0.0712
  202CHOL    R4 1816   5.442  10.534   5.650  0.0103  0.2606  0.0103
  202CHOL    R5 1817   5.311  10.706   5.629 -0.1830  0.1015 -0.1379
  202CHOL    C1 1818   5.346  10.695   6.009 -0.3681  0.3188 -0.1123
  202CHOL    C2 1819   5.326  10.450   6.332 -0.1952  0.0511 -0.1518
  203CHOL   ROH 1820   9.865   7.915   8.415 -0.0045 -0.0470  0.2659
  203CHOL    R1 1821   9.608   8.032   8.401 -0.0341 -0.1332  0.0494
  203CHOL    R2 1822   9.568   8.306   8.404 -0.1298 -0.1502  0.0657
  203CHOL    R3 1823   9.430   8.256   8.175  0.0953 -0.1517 -0.0735
  203CHOL    R4 1824   9.326   8.513   8.270 -0.1135 -0.2244 -0.0812
  203CHOL    R5 1825   9.209   8.336   8.220  0.0131 -0.2713 -0.2388
  203CHOL    C1 1826   9.056   8.586   7.977  0.1074 -0.2691 -0.2973
  203CHOL    C2 1827   8.648   8.646   7.912  0.1851  0.0290  0.1802
  204PNCE   AM1 1828   7.122  12.092   9.404 -0.2474 -0.0801 -0.2120
  204PNCE   AM2 1829   7.238  11.763   9.451 -0.1896  0.0985  0.2404
  204PNCE   T1A 1830   7.184  12.109   8.956 -0.0080 -0.2739  0.0942
  204PNCE   C2A 1831   7.209  12.140   8.548 -0.3485  0.2025  0.1434
  204PNCE   C3A 1832   7.264  12.138   8.145 -0.4261 -0.1195 -0.4949
  204PNCE   C1B 1833   7.193  11.662   9.032  0.3189  0.2384  0.0296
  204PNCE   C2B 1834   7.364  11.280   8.931  0.3770 -0.2841  0.3988
  204PNCE   C3B 1835   7.474  11.085   8.504 -0.0553  0.0997  0.2452
  204PNCE   D4B 1836   7.582  11.227   8.083 -0.0502 -0.1988 -0.1750
  204PNCE   C5B 1837   7.303  11.310   7.731  0.0351  0.1651  0.0376
  204PNCE   C6B 1838   7.176  11.276   7.262 -0.1993  0.4590  0.2298
  205CHOL   ROH 1839   2.445   9.460   4.951  0.2954  0.0824  0.1073
  205CHOL    R1 1840   2.245   9.642   5.036  0.3287  0.1664  0.0110
  205CHOL    R2 1841   2.083   9.593   5.254  0.0002  0.0933 -0.2353
  205CHOL    R3 1842   2.174   9.836   5.335  0.1015 -0.0517  0.1012
  205CHOL    R4 1843   1.940   9.785   5.503 -0.0898 -0.0565 -0.1710
  205CHOL    R5 1844   1.976   9.962   5.381  0.1519  0.0443  0.0440
  205CHOL    C1 1845   1.942  10.125   5.724 -0.0471 -0.2797  0.1824
  205CHOL    C2 1846   1.981  10.410   6.011 -0.1762 -0.0012 -0.1763
  206XCA    COO 1847  13.897  12.554   9.599 -0.1452  0.1193  0.0074
  206XCA     C1 1848  13.933  12.459   9.137  0.1765  0.2313 -0.1821
  206XCA     C2 1849  14.184  12.609   8.759 -0.3854 -0.2317 -0.0146
  206XCA     C3 1850  14.351  12.346   8.394  0.1426 -0.1800  0.0508
  206XCA     C4 1851  14.483  12.331   7.872 -0.1979 -0.3115 -0.2851
  206XCA     C5 1852  14.395  12.280   7.371 -0.1179 -0.2031  0.1180
  206XCA     C6 1853  14.362  12.258   7.023  0.2805  0.2267 -0.0105
  207CHOL   ROH 1854  10.523   5.646   8.399 -0.2505  0.2579  0.1527
  207CHOL    R1 1855  10.707   5.847   8.321 -0.1652  0.2191  0.2506
  207CHOL    R2 1856  10.739   5.927   8.058  0.1171  0.0926  0.2402
  207CHOL    R3 1857  10.690   6.173   8.162  0.0046  0.1421  0.0715
  207CHOL    R4 1858  10.819   6.225   7.904 -0.0532  0.0279  0.0217
  207CHOL    R5 1859  10.880   6.304   8.098 -0.0703  0.1956 -0.0411
  207CHOL    C1 1860  10.820   6.631   7.912 -0.2580  0.0367 -0.2640
  207CHOL    C2 1861  10.682   7.001   7.876 -0.2703 -0.0379 -0.2496
  208CHOL   ROH 1862  11.628   6.098   8.457  0.0915  0.0242  0.1006
  208CHOL    R1 1863  11.906   6.104   8.404  0.0861  0.1415  0.0781
  208CHOL    R2 1864  12.046   6.339   8.367  0.0054  0.2085  0.1686
  208CHOL    R3 1865  12.203   6.240   8.566  0.0517  0.1726  0.1129
  208CHOL    R4 1866  12.364   6.451   8.442  0.0157  0.2028  0.1307
  208CHOL    R5 1867  12.424   6.244   8.474  0.0313  0.2021  0.0719
  208CHOL    C1 1868  12.697   6.423   8.671  0.0652  0.1657  0.0566
  208CHOL    C2 1869  12.918   6.213   8.833 -0.0044  0.1526 -0.2425
  209PNCE   AM1 1870  15.672  13.086   4.872  0.0481 -0.2987 -0.1193
  209PNCE   AM2 1871  15.956  13.220   4.765 -0.3721  0.0730 -0.1013
  209PNCE   T1A 1872  15.572  13.318   5.262  0.1224  0.0018 -0.1226
  209PNCE   C2A 1873  15.559  13.478   5.668  0.0758 -0.2353  0.0467
  209PNCE   C3A 1874  15.329  13.474   6.128 -0.0647 -0.0111  0.0465
  209PNCE   C1B 1875  16.024  13.140   5.234  0.1773  0.1728 -0.1022
  209PNCE   C2B 1876  16.038  13.317   5.589 -0.0448 -0.1274  0.1397
  209PNCE   C3B 1877  16.296  13.679   5.842 -0.1300  0.1661  0.0094
  209PNCE   D4B 1878  16.583  13.719   6.204 -0.1878  0.5227 -0.0699
  209PNCE   C5B 1879  16.382  13.769   6.650  0.0349 -0.2985 -0.1904
  209PNCE   C6B 1880  16.624  13.715   6.995 -0.0251  0.0741 -0.0747
  210CHOL   ROH 1881  13.885   5.350   9.352  0.2544 -0.0935  0.1307
  210CHOL    R1 1882  13.976   5.204   9.128  0.2080 -0.0941  0.1119
  210CHOL    R2 1883  13.833   4.994   9.019  0.1983 -0.1132  0.1583
  210CHOL    R3 1884  13.857   5.138   8.790  0.1227 -0.1187  0.1468
  210CHOL    R4 1885  13.885   4.858   8.706  0.2662 -0.1105  0.1687
  210CHOL    R5 1886  14.024   5.020   8.664  0.1818 -0.0423  0.1549
  210CHOL    C1 1887  13.938   4.914   8.308  0.2348 -0.1141  0.1639
  210CHOL    C2 1888  13.935   5.157   7.987 -0.0456 -0.1506  0.2662
  211PNCE   AM1 1889  15.658   5.184   8.580  0.2158  0.3111  0.0162
  211PNCE   AM2 1890  15.875   5.450   8.490  0.1386  0.1135 -0.1052
  211PNCE   T1A 1891  15.170   5.252   8.674 -0.2482  0.3292 -0.0310
  211PNCE   C2A 1892  14.663   5.384   8.445  0.1761  0.3842  0.2713
  211PNCE   C3A 1893  14.225   5.409   8.456  0.1098 -0.1488  0.1818
  211PNCE   C1B 1894  16.021   5.615   8.067  0.2456 -0.0484 -0.1129
  211PNCE   C2B 1895  16.041   5.480   7.549 -0.3044  0.1973  0.2089
  211PNCE   C3B 1896  16.052   5.432   7.090  0.3352  0.3420  0.1020
  211PNCE   D4B 1897  16.411   5.338   6.881  0.0406  0.2296  0.2147
  211PNCE   C5B 1898  16.352   5.462   6.499 -0.1743 -0.0593  0.0365
  211PNCE   C6B 1899  16.167   5.579   6.122 -0.0262  0.1568 -0.0215
  212CHOL   ROH 1900  12.039   3.531   8.355 -0.1790 -0.2244 -0.1613
  212CHOL    R1 1901  12.146   3.718   8.171 -0.1497  0.1121  0.1832
  212CHOL    R2 1902  12.158   3.669   7.900  0.5404  0.2918  0.1574
  212CHOL    R3 1903  12.025   3.905   7.884  0.0790  0.0349  0.0346
  212CHOL    R4 1904  12.252   3.936   7.702  0.1897  0.4884  0.2488
  212CHOL    R5 1905  12.197   4.070   7.865 -0.2293  0.3862  0.1963
  212CHOL    C1 1906  12.182   4.314   7.573 -0.4475  0.3617  0.1868
  212CHOL    C2 1907  12.428   4.476   7.327 -0.4072  0.0708  0.1330
  213PNCE   AM1 1908   6.688   1.752   6.913 -0.2009  0.2123 -0.0374
  213PNCE   AM2 1909   6.895   1.669   7.127 -0.1993  0.2801  0.1727
  213PNCE   T1A 1910   6.736   1.655   6.482  0.4164 -0.1277 -0.1657
  213PNCE   C2A 1911   6.638   1.384   6.147  0.0118 -0.1513 -0.0538
  213PNCE   C3A 1912   6.284   1.154   5.889  0.1180 -0.0949 -0.2736
  213PNCE   C1B 1913   6.938   1.325   6.866  0.0054 -0.0825 -0.5196
  213PNCE   C2B 1914   6.991   1.020   6.615  0.5658 -0.2494  0.0593
  213PNCE   C3B 1915   6.751   0.873   6.323 -0.3138 -0.2927  0.2798
  213PNCE   D4B 1916   6.685   0.625   6.014  0.0173 -0.2676  0.2041
  213PNCE   C5B 1917   6.620   0.846   5.692  0.0026 -0.2197  0.1887
  213PNCE   C6B 1918   6.667   1.320   5.621  0.2114  0.0104  0.0908
  214CHOL   ROH 1919  10.945   1.921   5.021  0.0569 -0.0978  0.0515
  214CHOL    R1 1920  10.867   2.044   5.263  0.0477  0.0320 -0.0168
  214CHOL    R2 1921  10.998   2.263   5.368  0.0655  0.0668 -0.1105
  214CHOL    R3 1922  10.750   2.373   5.366  0.0802  0.0991 -0.1906
  214CHOL    R4 1923  10.925   2.586   5.467  0.0362 -0.0134  0.1375
  214CHOL    R5 1924  10.744   2.510   5.563 -0.0451 -0.0821 -0.0642
  214CHOL    C1 1925  10.648   2.877   5.522  0.0328 -0.0298  0.2066
  214CHOL    C2 1926  10.905   3.066   5.732 -0.2200  0.0863  0.3630
  215CHOL   ROH 1927  14.101  14.419   4.909  0.0145 -0.0558  0.0791
  215CHOL    R1 1928  14.231  14.224   5.069  0.0227 -0.0618  0.0660
  215CHOL    R2 1929  14.348  14.284   5.312  0.0480 -0.0673  0.0588
  215CHOL    R3 1930  14.188  14.083   5.401  0.0467 -0.0612  0.0684
  215CHOL    R4 1931  14.386  14.122   5.615  0.0250 -0.0386  0.0766
  215CHOL    R5 1932  14.338  13.935   5.515  0.0371 -0.0469  0.0943
  215CHOL    C1 1933  14.258  13.840   5.876  0.0103 -0.0161  0.0959
  215CHOL    C2 1934  14.537  13.666   6.106 -0.2405 -0.2134  0.1846
  216PNCE   AM1 1935  11.996   9.951   9.736  0.0214 -0.0668 -0.2244
  216PNCE   AM2 1936  11.694   9.862   9.818 -0.0125 -0.2315  0.4720
  216PNCE   T1A 1937  11.816   9.933   9.285 -0.4088  0.0623  0.0956
  216PNCE   C2A 1938  11.822   9.781   8.877  0.0751  0.0067  0.2704
  216PNCE   C3A 1939  12.038   9.479   8.690 -0.1544 -0.0617  0.1825
  216PNCE   C1B 1940  11.396   9.893   9.549 -0.0244 -0.1507 -0.1426
  216PNCE   C2B 1941  11.053  10.130   9.482  0.0101 -0.3343  0.0476
  216PNCE   C3B 1942  10.644   9.920   9.440  0.0791 -0.1259 -0.0185
  216PNCE   D4B 1943  10.412   9.670   9.229  0.0641  0.2626  0.1380
  216PNCE   C5B 1944  10.304   9.657   8.840 -0.3160  0.0002  0.1217
  216PNCE   C6B 1945  10.157   9.850   8.410 -0.0097 -0.2055 -0.0427
  217PNCE   AM1 1946   5.501   1.834   7.720  0.3530 -0.1686 -0.2094
  217PNCE   AM2 1947   5.621   1.457   7.834 -0.0538  0.3378  0.3430
  217PNCE   T1A 1948   5.195   1.717   7.391  0.2595 -0.0254 -0.3366
  217PNCE   C2A 1949   5.189   1.295   7.013 -0.2102 -0.2160 -0.1866
  217PNCE   C3A 1950   5.564   0.915   6.946  0.1176  0.1525 -0.0528
  217PNCE   C1B 1951   5.429   1.343   7.486 -0.0738  0.1928 -0.2101
  217PNCE   C2B 1952   4.939   1.220   7.460  0.0556  0.2725 -0.0782
  217PNCE   C3B 1953   4.609   1.337   7.104  0.0145  0.0113  0.0443
  217PNCE   D4B 1954   4.599   1.431   6.623  0.2773  0.3278  0.0776
  217PNCE   C5B 1955   4.458   1.784   6.419 -0.1588 -0.0847  0.0184
  217PNCE   C6B 1956   4.350   2.119   6.172 -0.0547  0.0321  0.1643
  218PNCE   AM1 1957   1.182  12.131   8.807 -0.1797 -0.0626  0.1232
  218PNCE   AM2 1958   1.100  12.346   8.556 -0.0281  0.1472  0.0614
  218PNCE   T1A 1959   1.573  12.044   8.511 -0.1003 -0.1166 -0.4395
  218PNCE   C2A 1960   1.877  12.068   8.271  0.0216  0.4561  0.1893
  218PNCE   C3A 1961   1.984  12.106   7.934 -0.0402  0.1556  0.1635
  218PNCE   C1B 1962   0.967  12.123   8.244 -0.1100  0.0042  0.4674
  218PNCE   C2B 1963   0.970  11.937   7.801 -0.2604  0.0507  0.0614
  218PNCE   C3B 1964   1.218  11.628   7.609 -0.0644  0.0014  0.0682
  218PNCE   D4B 1965   1.500  11.750   7.402 -0.0377  0.0916  0.1833
  218PNCE   C5B 1966   1.985  11.811   7.558 -0.0664 -0.0099  0.1516
  218PNCE   C6B 1967   2.178  12.110   7.421  0.1926  0.1242 -0.1608
  219CHOL   ROH 1968   4.347  13.248   5.081 -0.0076  0.0012 -0.0078
  219CHOL    R1 1969   4.394  13.162   5.347  0.0980  0.0038 -0.0241
  219CHOL    R2 1970   4.447  13.338   5.553  0.0637  0.0189 -0.0173
  219CHOL    R3 1971   4.239  13.210   5.672  0.1494 -0.0917  0.0123
  219CHOL    R4 1972   4.389  13.331   5.893 -0.0302  0.1815 -0.0299
  219CHOL    R5 1973   4.332  13.122   5.875  0.1675  0.1238  0.0930
  219CHOL    C1 1974   4.160  13.208   6.204 -0.0044  0.1722 -0.0096
  219CHOL    C2 1975   4.223  12.857   6.521  0.3406 -0.0123 -0.1705
  220PNCE   AM1 1976   1.379  11.261   9.186  0.1293  0.0462  0.2029
  220PNCE   AM2 1977   1.799  11.399   9.181  0.0922 -0.0978 -0.2588
  220PNCE   T1A 1978   1.283  11.135   8.734  0.0582 -0.2512 -0.2283
  220PNCE   C2A 1979   1.134  11.093   8.265 -0.2088 -0.2820  0.1656
  220PNCE   C3A 1980   1.203  11.167   7.849  0.1749 -0.1344 -0.0020
  220PNCE   C1B 1981   1.712  11.052   8.848  0.1170 -0.2773  0.0455
  220PNCE   C2B 1982   1.656  10.817   8.402 -0.1573  0.0880  0.1363
  220PNCE   C3B 1983   1.622  10.756   8.004 -0.0496  0.1563  0.2010
  220PNCE   D4B 1984   1.655  10.844   7.595  0.2394  0.3517 -0.2710
  220PNCE   C5B 1985   1.496  10.577   7.192  0.1170  0.2553  0.0430
  220PNCE   C6B 1986   1.225  10.372   7.147 -0.1303  0.0506  0.4709
  221CHOL   ROH 1987  12.535   4.762   4.956  0.1459 -0.0601  0.0623
  221CHOL    R1 1988  12.406   4.733   5.206  0.0546 -0.0894  0.0134
  221CHOL    R2 1989  12.544   4.726   5.445 -0.0400  0.0153  0.0769
  221CHOL    R3 1990  12.376   4.928   5.512 -0.1709 -0.0589 -0.0274
  221CHOL    R4 1991  12.366   4.744   5.741 -0.1387  0.0011  0.0175
  221CHOL    R5 1992  12.196   4.820   5.627 -0.1451 -0.1234 -0.0521
  221CHOL    C1 1993  12.104   4.945   5.976 -0.3191 -0.0769 -0.1150
  221CHOL    C2 1994  12.024   5.212   6.238 -0.0588  0.0874 -0.1236
  222CHOL   ROH 1995  13.123  13.003   7.037 -0.0504 -0.4256  0.0051
  222CHOL    R1 1996  12.841  12.994   7.050 -0.0578 -0.4717 -0.1709
  222CHOL    R2 1997  12.687  13.216   7.109 -0.0981 -0.6006  0.2250
  222CHOL    R3 1998  12.563  13.152   6.876  0.0305 -0.1079  0.0074
  222CHOL    R4 1999  12.396  13.363   6.995 -0.1369 -0.4771  0.4740
  222CHOL    R5 2000  12.329  13.166   6.928 -0.0007 -0.3691 -0.0376
  222CHOL    C1 2001  12.110  13.389   6.709 -0.0387  0.0574  0.4147
  222CHOL    C2 2002  11.872  13.107   6.558  0.1044 -0.0145 -0.2676
  223PNCE   AM1 2003   1.259   5.676   8.820  0.3799 -0.2033 -0.1615
  223PNCE   AM2 2004   1.543   5.894   8.922  0.1930 -0.1012 -0.2084
  223PNCE   T1A 2005   1.358   5.563   8.418  0.1976  0.1338 -0.1523
  223PNCE   C2A 2006   1.441   5.585   8.026  0.1142  0.5486 -0.2027
  223PNCE   C3A 2007   1.439   5.574   7.644 -0.1770  0.0476  0.3439
  223PNCE   C1B 2008   1.448   6.082   8.521  0.1921  0.0441  0.0901
  223PNCE   C2B 2009   1.440   6.041   8.107 -0.2263 -0.1479 -0.2691
  223PNCE   C3B 2010   1.604   6.063   7.664  0.0724  0.0428  0.0231
  223PNCE   D4B 2011   1.455   5.995   7.274  0.1528 -0.3244  0.1860
  223PNCE   C5B 2012   1.036   5.955   7.111 -0.2181 -0.2242  0.0266
  223PNCE   C6B 2013   0.889   5.844   6.731 -0.2836 -0.0315 -0.2838
  224XCA    COO 2014   7.770   1.594   3.226 -0.0225  0.3244  0.0194
  224XCA     C1 2015   7.747   1.779   3.593 -0.1044  0.2587  0.0454
  224XCA     C2 2016   7.724   1.953   3.990  0.5562 -0.3594  0.1189
  224XCA     C3 2017   7.925   2.298   4.225  0.2533 -0.0498  0.2188
  224XCA     C4 2018   7.856   2.546   4.619  0.1088  0.3146 -0.5938
  224XCA     C5 2019   7.600   2.788   4.658  0.1727  0.0965  0.1842
  224XCA     C6 2020   7.319   3.010   4.468  0.2134 -0.0637 -0.0459
  225CHOL   ROH 2021  15.374   8.208   7.573 -0.0196  0.2579  0.1557
  225CHOL    R1 2022  15.570   8.390   7.480  0.0868  0.1496  0.1667
  225CHOL    R2 2023  15.525   8.559   7.266  0.2274  0.1057  0.1065
  225CHOL    R3 2024  15.599   8.751   7.444  0.2521  0.1294  0.0720
  225CHOL    R4 2025  15.626   8.879   7.183  0.0504  0.1482  0.0489
  225CHOL    R5 2026  15.779   8.866   7.337  0.1480  0.2038 -0.0342
  225CHOL    C1 2027  15.754   9.245   7.302 -0.0295  0.1952 -0.0171
  225CHOL    C2 2028  15.644   9.623   7.187  0.3918 -0.1532 -0.0886
  226PNCE   AM1 2029   4.729  10.273   8.591  0.2496  0.0135  0.1441
  226PNCE   AM2 2030   4.828  10.700   8.661  0.1456 -0.1652  0.3973
  226PNCE   T1A 2031   4.487  10.106   8.118 -0.1221 -0.1699  0.0428
  226PNCE   C2A 2032   4.545  10.048   7.670  0.0963 -0.2071  0.2564
  226PNCE   C3A 2033   4.666  10.033   7.183 -0.3341  0.0544  0.2625
  226PNCE   C1B 2034   4.521  10.598   8.242  0.3845  0.1662 -0.0960
  226PNCE   C2B 2035   4.648  10.527   7.836  0.2309 -0.2541 -0.1186
  226PNCE   C3B 2036   4.883  10.602   7.517 -0.1150  0.0885 -0.2694
  226PNCE   D4B 2037   4.811  10.630   7.086  0.0660  0.0394  0.3397
  226PNCE   C5B 2038   4.987  10.340   6.755  0.0891  0.1991  0.2307
  226PNCE   C6B 2039   5.163  10.012   6.492 -0.2084  0.3603 -0.1000
  227XCA    COO 2040   1.176  13.175   8.250 -0.1017 -0.0346 -0.2087
  227XCA     C1 2041   1.396  12.935   7.863  0.1410 -0.3225  0.0675
  227XCA     C2 2042   1.328  12.629   7.413 -0.1582  0.0050 -0.0936
  227XCA     C3 2043   1.631  12.667   7.051 -0.1983 -0.0785  0.0397
  227XCA     C4 2044   1.845  12.272   6.870 -0.2118 -0.2368  0.1840
  227XCA     C5 2045   1.880  11.893   7.031  0.3007  0.0205  0.0159
  227XCA     C6 2046   1.910  11.491   6.852  0.2975  0.2070 -0.0748
  228PNCE   AM1 2047   9.249  14.055   9.496  0.1899  0.0516  0.0807
  228PNCE   AM2 2048   9.453  13.854   9.677  0.0181 -0.3732 -0.0291
  228PNCE   T1A 2049   9.147  14.078   9.102 -0.1131  0.1128 -0.1027
  228PNCE   C2A 2050   9.191  14.052   8.577  0.1225  0.0964  0.0172
  228PNCE   C3A 2051   9.347  14.241   8.156  0.0161 -0.0120 -0.2161
  228PNCE   C1B 2052   9.782  13.804   9.341 -0.0344  0.1876 -0.3906
  228PNCE   C2B 2053  10.280  13.929   9.363 -0.0103  0.0386 -0.0787
  228PNCE   C3B 2054  10.624  14.062   9.259 -0.2026  0.0300  0.2255
  228PNCE   D4B 2055  10.736  14.240   8.964  0.1873  0.3429  0.1735
  228PNCE   C5B 2056  10.563  14.154   8.634  0.0159 -0.0994 -0.0724
  228PNCE   C6B 2057  10.734  14.019   8.279  0.0714 -0.2069  0.0274
  229CHOL   ROH 2058   8.656   4.424   3.985  0.1123 -0.2276  0.1250
  229CHOL    R1 2059   8.486   4.418   4.212  0.0971 -0.0581  0.1195
  229CHOL    R2 2060   8.511   4.229   4.411 -0.0742 -0.0617  0.1401
  229CHOL    R3 2061   8.525   4.448   4.572  0.1095 -0.0559  0.1179
  229CHOL    R4 2062   8.462   4.226   4.753 -0.3061  0.0474  0.1095
  229CHOL    R5 2063   8.352   4.413   4.734 -0.0472  0.1941  0.0098
  229CHOL    C1 2064   8.447   4.429   5.104 -0.2686  0.1165  0.0709
  229CHOL    C2 2065   8.131   4.276   5.317  0.1463 -0.1410 -0.0878
  230XCA    COO 2066   4.647   8.933   4.960  0.0266 -0.0600 -0.0090
  230XCA     C1 2067   4.662   8.742   5.307 -0.1366  0.1867  0.0044
  230XCA     C2 2068   4.765   8.783   5.755 -0.3040  0.0171 -0.0141
  230XCA     C3 2069   4.839   8.725   6.186  0.1771 -0.1263  0.1027
  230XCA     C4 2070   5.109   8.475   6.392 -0.1485 -0.1177 -0.4742
  230XCA     C5 2071   5.471   8.233   6.448  0.0192 -0.0174 -0.0439
  230XCA     C6 2072   5.734   7.863   6.397  0.1011  0.0556 -0.0466
  231CHOL   ROH 2073   3.610   9.777   8.240 -0.2782 -0.1009 -0.1076
  231CHOL    R1 2074   3.717   9.910   8.015 -0.1698 -0.0939 -0.0528
  231CHOL    R2 2075   3.600   9.898   7.765 -0.0882 -0.0311 -0.0960
  231CHOL    R3 2076   3.607  10.169   7.784 -0.0311 -0.0356 -0.0540
  231CHOL    R4 2077   3.480  10.116   7.525  0.2831  0.0361 -0.2262
  231CHOL    R5 2078   3.654  10.243   7.561  0.2772 -0.0204  0.0119
  231CHOL    C1 2079   3.418  10.497   7.403  0.5528  0.0710 -0.2626
  231CHOL    C2 2080   3.211  10.712   7.113 -0.1678 -0.0877 -0.2680
  232PNCE   AM1 2081   4.368  13.995   8.297  0.1136 -0.0958  0.2100
  232PNCE   AM2 2082   4.681  14.089   8.520 -0.0937 -0.0367  0.1159
  232PNCE   T1A 2083   4.366  13.929   7.872  0.0345  0.1329  0.0270
  232PNCE   C2A 2084   4.431  13.801   7.538  0.0331 -0.0650 -0.0478
  232PNCE   C3A 2085   4.407  13.590   7.122 -0.3322 -0.2106 -0.3588
  232PNCE   C1B 2086   4.809  13.927   8.146 -0.3025  0.1778  0.3072
  232PNCE   C2B 2087   4.809  13.764   7.807  0.0636  0.1159  0.0872
  232PNCE   C3B 2088   4.932  13.789   7.325 -0.0390  0.0737 -0.6562
  232PNCE   D4B 2089   4.690  13.981   7.105 -0.2483 -0.1435  0.0509
  232PNCE   C5B 2090   4.780  14.168   6.748 -0.2007  0.0648 -0.0300
  232PNCE   C6B 2091   4.994  13.972   6.302  0.2474  0.0789 -0.0991
  233PNCE   AM1 2092  11.365   2.312   8.811 -0.0428 -0.1579  0.1547
  233PNCE   AM2 2093  11.222   2.033   8.920  0.0154  0.2633 -0.1984
  233PNCE   T1A 2094  11.493   2.378   8.320  0.0417 -0.0100  0.2031
  233PNCE   C2A 2095  11.619   2.244   7.879  0.0519  0.0379 -0.0748
  233PNCE   C3A 2096  12.022   2.181   7.522  0.0505  0.1678 -0.2495
  233PNCE   C1B 2097  11.152   1.965   8.429  0.0060 -0.0341 -0.1693
  233PNCE   C2B 2098  11.085   1.944   7.940 -0.1808  0.0954  0.0856
  233PNCE   C3B 2099  11.109   1.659   7.642  0.1113 -0.0891 -0.0419
  233PNCE   D4B 2100  11.283   1.460   7.299 -0.0298 -0.1470  0.0692
  233PNCE   C5B 2101  11.137   1.439   6.918  0.2695 -0.0348  0.0273
  233PNCE   C6B 2102  10.730   1.302   6.883 -0.1142 -0.2129  0.0664
  234CHOL   ROH 2103  11.055  14.893   5.073  0.0623 -0.4139  0.0927
  234CHOL    R1 2104  11.131  14.991   5.327  0.2821 -0.1200 -0.0809
  234CHOL    R2 2105  11.025  14.893   5.563  0.2048  0.4032  0.1139
  234CHOL    R3 2106  11.287  14.855   5.626  0.1736  0.1211  0.0885
  234CHOL    R4 2107  11.141  14.795   5.873  0.1298  0.2810  0.1042
  234CHOL    R5 2108  11.306  14.935   5.851  0.2821  0.1050  0.0864
  234CHOL    C1 2109  11.454  14.702   6.114  0.0567 -0.0550  0.0747
  234CHOL    C2 2110  11.629  14.554   6.352 -0.1470  0.1072  0.0695
  235PNCE   AM1 2111  10.593   5.894   9.232 -0.2894  0.2228  0.1883
  235PNCE   AM2 2112  10.596   6.236   9.217 -0.1014 -0.1160  0.3890
  235PNCE   T1A 2113  11.015   6.020   9.177 -0.0623 -0.0240  0.0061
  235PNCE   C2A 2114  11.266   5.937   8.850  0.1972 -0.0215 -0.1734
  235PNCE   C3A 2115  11.522   5.704   8.622  0.0374 -0.0156  0.1797
  235PNCE   C1B 2116  10.747   6.274   8.700  0.2176  0.2351 -0.1081
  235PNCE   C2B 2117  11.140   6.049   8.341  0.1853 -0.2134 -0.0682
  235PNCE   C3B 2118  11.318   6.201   8.124 -0.0610 -0.0099 -0.1574
  235PNCE   D4B 2119  11.656   6.396   8.113  0.0333 -0.0140  0.1901
  235PNCE   C5B 2120  11.669   6.762   8.226  0.0584 -0.1835  0.0911
  235PNCE   C6B 2121  11.791   7.164   8.143  0.0319  0.0950  0.4037
  236XCA    COO 2122   5.239  13.299   8.966 -0.0854  0.2756  0.2096
  236XCA     C1 2123   5.486  13.159   8.681  0.2082  0.2052 -0.0618
  236XCA     C2 2124   5.856  12.892   8.550  0.0474  0.0254 -0.1642
  236XCA     C3 2125   6.245  12.650   8.619 -0.2808 -0.2995  0.3130
  236XCA     C4 2126   6.663  12.814   8.602  0.0737  0.2115 -0.0843
  236XCA     C5 2127   7.061  12.609   8.788 -0.4875  0.2456 -0.3069
  236XCA     C6 2128   7.119  12.597   9.320  0.0142  0.4245  0.2953
  237CHOL   ROH 2129   0.201   4.901   8.121 -0.0081  0.0378 -0.0231
  237CHOL    R1 2130   0.345   5.013   7.905 -0.0939  0.1616 -0.0175
  237CHOL    R2 2131   0.484   4.859   7.722  0.0496  0.2772 -0.0133
  237CHOL    R3 2132   0.333   4.996   7.542 -0.0643  0.1473 -0.0167
  237CHOL    R4 2133   0.530   4.853   7.379 -0.0524  0.1869 -0.0254
  237CHOL    R5 2134   0.488   5.067   7.375 -0.1502  0.1628 -0.0863
  237CHOL    C1 2135   0.414   4.978   7.011 -0.2187  0.0123 -0.0357
  237CHOL    C2 2136   0.259   5.095   6.665  0.3176  0.0704 -0.1559
  238CHOL   ROH 2137  12.260   3.134   8.810  0.0950 -0.2178  0.0076
  238CHOL    R1 2138  12.203   3.097   8.536  0.2880 -0.2007 -0.0347
  238CHOL    R2 2139  12.322   2.899   8.385 -0.0284 -0.5608  0.1854
  238CHOL    R3 2140  12.064   2.833   8.328 -0.1452  0.0320 -0.0560
  238CHOL    R4 2141  12.215   2.765   8.084  0.0182 -0.6096  0.1889
  238CHOL    R5 2142  12.038   2.892   8.097  0.3036 -0.1305 -0.1659
  238CHOL    C1 2143  11.911   2.625   7.856 -0.0642 -0.0814 -0.0357
  238CHOL    C2 2144  11.749   2.620   7.580 -0.1095 -0.2264 -0.2612
  239CHOL   ROH 2145   0.285   8.725   4.751 -0.3078 -0.0103  0.1318
  239CHOL    R1 2146   0.529   8.738   4.893 -0.2578 -0.1464  0.0605
  239CHOL    R2 2147   0.624   8.972   5.006  0.0094 -0.1492 -0.1446
  239CHOL    R3 2148   0.634   8.821   5.232 -0.0917  0.0146 -0.0288
  239CHOL    R4 2149   0.795   9.057   5.294  0.1330 -0.0808 -0.2378
  239CHOL    R5 2150   0.857   8.849   5.313 -0.0520 -0.1242 -0.0883
  239CHOL    C1 2151   0.904   8.965   5.674  0.1101  0.1127 -0.1833
  239CHOL    C2 2152   0.880   8.693   5.953  0.0600 -0.0214 -0.1115
  240XCA    COO 2153   4.956   9.669   4.737 -0.1302  0.3191 -0.1692
  240XCA     C1 2154   5.223   9.789   5.199  0.2423  0.2451  0.1055
  240XCA     C2 2155   5.209   9.548   5.606 -0.2639 -0.0862  0.2092
  240XCA     C3 2156   5.260   9.405   5.984  0.0512 -0.0447 -0.1022
  240XCA     C4 2157   5.207   9.020   6.385 -0.0118  0.1316  0.0024
  240XCA     C5 2158   5.170   8.814   6.757  0.0124 -0.1479 -0.2868
  240XCA     C6 2159   5.460   8.473   6.853  0.2291  0.0972 -0.1125
  241PNCE   AM1 2160   2.908   8.124   8.029 -0.3580 -0.1254 -0.0267
  241PNCE   AM2 2161   2.674   8.184   8.210  0.1897 -0.1056  0.0176
  241PNCE   T1A 2162   2.842   7.943   7.591 -0.1815 -0.1728 -0.0101
  241PNCE   C2A 2163   2.487   7.747   7.399  0.1271 -0.0188 -0.1763
  241PNCE   C3A 2164   2.357   7.266   7.084 -0.3486 -0.0725 -0.2341
  241PNCE   C1B 2165   2.518   7.845   7.938  0.1682 -0.0064  0.0811
  241PNCE   C2B 2166   2.146   7.794   7.773 -0.0682  0.3236 -0.1990
  241PNCE   C3B 2167   1.779   8.087   7.589  0.2067  0.0573  0.0675
  241PNCE   D4B 2168   1.544   8.071   7.295 -0.1314  0.1217  0.0888
  241PNCE   C5B 2169   1.586   7.996   6.850 -0.0555 -0.0529  0.1413
  241PNCE   C6B 2170   1.523   7.753   6.476 -0.3821 -0.1476  0.2054
  242CHOL   ROH 2171   1.133   2.738   7.673 -0.0198  0.1357 -0.0491
  242CHOL    R1 2172   1.293   2.832   7.459 -0.0554 -0.0406 -0.1550
  242CHOL    R2 2173   1.348   2.679   7.237 -0.1529 -0.1988 -0.0716
  242CHOL    R3 2174   1.249   2.894   7.103 -0.1373 -0.2612 -0.1851
  242CHOL    R4 2175   1.491   2.818   6.954  0.0391 -0.1624  0.0420
  242CHOL    R5 2176   1.444   3.016   7.035 -0.1309 -0.1748 -0.0202
  242CHOL    C1 2177   1.481   3.101   6.665  0.1654 -0.1998  0.0016
  242CHOL    C2 2178   1.558   3.165   6.363  0.2743 -0.1101 -0.0368
  243XCA    COO 2179   5.164  13.939   4.589  0.2401  0.4457  0.0285
  243XCA     C1 2180   5.238  13.722   5.019 -0.3280  0.1580  0.0621
  243XCA     C2 2181   5.072  13.980   5.356  0.2198  0.0351  0.1439
  243XCA     C3 2182   5.185  14.341   5.418 -0.1301  0.0600 -0.0938
  243XCA     C4 2183   5.327  14.353   5.860  0.1669  0.1591 -0.2382
  243XCA     C5 2184   5.442  14.255   6.198  0.0579 -0.0060 -0.0026
  243XCA     C6 2185   5.448  14.004   6.495 -0.0164  0.3267 -0.0450
  244PNCE   AM1 2186   6.307  10.054   8.756  0.2918  0.1645  0.0259
  244PNCE   AM2 2187   6.167  10.478   8.799 -0.2175  0.2291  0.1024
  244PNCE   T1A 2188   6.498   9.998   8.441 -0.0611  0.3426 -0.0105
  244PNCE   C2A 2189   6.741   9.832   8.138  0.3133 -0.2110  0.0958
  244PNCE   C3A 2190   6.832   9.949   7.691 -0.0859  0.0570  0.0290
  244PNCE   C1B 2191   6.125  10.593   8.357 -0.1547 -0.2148 -0.0380
  244PNCE   C2B 2192   6.250  10.623   7.898  0.1757 -0.1924 -0.2365
  244PNCE   C3B 2193   6.251  10.772   7.496 -0.0187  0.1237 -0.0339
  244PNCE   D4B 2194   5.854  10.689   7.174  0.3504  0.0781 -0.1455
  244PNCE   C5B 2195   6.019  10.329   6.854  0.1377 -0.2507 -0.0215
  244PNCE   C6B 2196   6.455  10.199   6.809 -0.2138 -0.1473 -0.0435
  245PNCE   AM1 2197   3.364   4.796   7.863  0.1010  0.1543  0.0863
  245PNCE   AM2 2198   3.025   4.683   7.751  0.0697 -0.3654  0.1857
  245PNCE   T1A 2199   3.379   4.587   7.431 -0.3176 -0.2087 -0.2291
  245PNCE   C2A 2200   3.494   4.647   7.132 -0.0657  0.1421 -0.0684
  245PNCE   C3A 2201   3.268   4.945   6.944  0.4856 -0.0012  0.3457
  245PNCE   C1B 2202   2.857   4.667   7.351  0.2672  0.3492 -0.0977
  245PNCE   C2B 2203   2.982   4.504   6.953 -0.1255 -0.0297 -0.0087
  245PNCE   C3B 2204   3.046   4.338   6.659  0.1023  0.2125  0.2055
  245PNCE   D4B 2205   3.193   3.941   6.676 -0.1358  0.1223  0.0571
  245PNCE   C5B 2206   3.092   3.539   6.443  0.0458 -0.3870 -0.2741
  245PNCE   C6B 2207   3.348   3.205   6.357 -0.0071  0.1567 -0.1859
  246CHOL   ROH 2208  14.945   5.664   8.865 -0.0671 -0.1769 -0.1067
  246CHOL    R1 2209  15.021   5.773   8.615 -0.0921 -0.1129 -0.0861
  246CHOL    R2 2210  15.034   5.622   8.384 -0.1617 -0.0429 -0.1350
  246CHOL    R3 2211  14.870   5.815   8.287 -0.1433  0.0186 -0.0465
  246CHOL    R4 2212  14.951   5.660   8.051 -0.3820 -0.0556 -0.0832
  246CHOL    R5 2213  14.968   5.876   8.077 -0.2635 -0.0585 -0.1269
  246CHOL    C1 2214  14.747   5.863   7.765 -0.4930 -0.0052  0.0300
  246CHOL    C2 2215  14.827   5.639   7.454  0.0781 -0.2986 -0.0517
  247XCA    COO 2216   7.804   6.726   8.711  0.0280 -0.1012 -0.1737
  247XCA     C1 2217   8.124   6.762   8.443 -0.0715  0.2035  0.0015
  247XCA     C2 2218   8.330   6.799   8.069  0.0617  0.0543  0.2676
  247XCA     C3 2219   8.329   7.037   7.625 -0.1158  0.0559  0.2208
  247XCA     C4 2220   8.642   7.051   7.267 -0.2602  0.0515 -0.0172
  247XCA     C5 2221   8.908   6.682   7.280 -0.4025 -0.1268  0.1639
  247XCA     C6 2222   9.097   6.359   6.965  0.2065 -0.2419 -0.0792
  248CHOL   ROH 2223  15.644   9.728   6.242  0.2584 -0.1933  0.1886
  248CHOL    R1 2224  15.538   9.903   6.438  0.1838 -0.0663  0.0378
  248CHOL    R2 2225  15.562   9.855   6.709 -0.1495 -0.0313  0.0800
  248CHOL    R3 2226  15.669  10.105   6.711  0.0526 -0.1169  0.1385
  248CHOL    R4 2227  15.625  10.040   6.994 -0.2337 -0.0483  0.1097
  248CHOL    R5 2228  15.554  10.217   6.889 -0.0029 -0.0024  0.0291
  248CHOL    C1 2229  15.763  10.383   7.161 -0.0931 -0.1386  0.1819
  248CHOL    C2 2230  15.985  10.385   7.463 -0.2651  0.0540 -0.2065
  249XCA    COO 2231  11.125   5.969   9.646 -0.0683  0.0915  0.0713
  249XCA     C1 2232  11.141   6.347   9.520 -0.1346  0.0521  0.0071
  249XCA     C2 2233  10.943   6.558   9.169 -0.2947  0.1653  0.2934
  249XCA     C3 2234  10.884   6.719   8.824  0.5437  0.1876 -0.0056
  249XCA     C4 2235  10.726   7.136   8.865 -0.2014 -0.1195 -0.0910
  249XCA     C5 2236  10.595   7.380   8.662  0.0650  0.1399  0.0213
  249XCA     C6 2237  10.600   7.493   8.227 -0.1471 -0.0619 -0.1390
  250CHOL   ROH 2238   5.332  11.625   5.236 -0.1024  0.3925  0.0516
  250CHOL    R1 2239   5.388  11.720   5.497 -0.1540  0.2082  0.1314
  250CHOL    R2 2240   5.293  11.595   5.724 -0.0201 -0.0801  0.0350
  250CHOL    R3 2241   5.555  11.593   5.794 -0.0086  0.0842 -0.0021
  250CHOL    R4 2242   5.411  11.625   6.048 -0.0018 -0.2108  0.0409
  250CHOL    R5 2243   5.570  11.753   5.972 -0.1154 -0.0273  0.1083
  250CHOL    C1 2244   5.726  11.642   6.302  0.0196 -0.1326  0.0096
  250CHOL    C2 2245   6.024  11.379   6.644 -0.1955  0.1577  0.0182
  251XCA    COO 2246   2.530  11.366   8.996  0.1273  0.1913 -0.1083
  251XCA     C1 2247   2.552  11.620   8.594 -0.1201 -0.0052 -0.2659
  251XCA     C2 2248   2.467  11.661   8.145 -0.0899 -0.1399  0.2920
  251XCA     C3 2249   2.495  11.836   7.700  0.1700 -0.4354 -0.0749
  251XCA     C4 2250   2.615  12.084   7.331 -0.0802  0.0132 -0.0773
  251XCA     C5 2251   2.379  12.092   6.973  0.0830  0.1809  0.3642
  251XCA     C6 2252   2.594  12.116   6.476 -0.3906  0.0040 -0.0618
  252XCA    COO 2253   4.403   5.810   8.409  0.1946  0.0717 -0.0705
  252XCA     C1 2254   4.159   6.010   8.305 -0.1015 -0.0937 -0.1323
  252XCA     C2 2255   3.738   5.969   7.959 -0.2791 -0.1830  0.1594
  252XCA     C3 2256   3.705   6.103   7.436  0.4000  0.0661 -0.4052
  252XCA     C4 2257   3.594   6.208   7.016  0.4212  0.0495 -0.0785
  252XCA     C5 2258   3.582   6.264   6.555 -0.0675  0.0185 -0.2839
  252XCA     C6 2259   3.285   6.219   6.213  0.0954  0.3914 -0.3244
  253PNCE   AM1 2260  12.419  10.185   9.475 -0.1067  0.3327  0.1299
  253PNCE   AM2 2261  12.097  10.304   9.401 -0.1727  0.0435 -0.0732
  253PNCE   T1A 2262  12.785   9.834   9.297 -0.0973 -0.0463  0.1919
  253PNCE   C2A 2263  12.726   9.576   8.987 -0.1015  0.0038  0.0239
  253PNCE   C3A 2264  12.384   9.756   8.841 -0.1687 -0.4903 -0.1359
  253PNCE   C1B 2265  12.169  10.230   8.932 -0.1855  0.2343  0.1172
  253PNCE   C2B 2266  12.044  10.123   8.488 -0.1723 -0.1965 -0.3714
  253PNCE   C3B 2267  12.183  10.079   8.033 -0.1549 -0.0990 -0.0180
  253PNCE   D4B 2268  12.362   9.823   7.712 -0.1323  0.2801 -0.0144
  253PNCE   C5B 2269  12.807   9.795   7.789  0.0521 -0.4420  0.0643
  253PNCE   C6B 2270  13.255   9.801   7.731  0.0718  0.0327  0.2212
  254XCA    COO 2271   2.419  11.351   4.782 -0.1497  0.0958  0.2566
  254XCA     C1 2272   2.359  11.391   5.194  0.0384  0.0049  0.4135
  254XCA     C2 2273   2.409  11.701   5.528  0.1636  0.0082  0.2848
  254XCA     C3 2274   2.209  11.625   5.920 -0.2412  0.2183 -0.2441
  254XCA     C4 2275   2.155  11.679   6.350  0.2636  0.1395 -0.1483
  254XCA     C5 2276   2.423  11.686   6.671 -0.0184  0.0038 -0.2797
  254XCA     C6 2277   2.773  11.680   7.017 -0.1084  0.1099 -0.0543
  255CHOL   ROH 2278  13.326   1.324   4.674 -0.0752 -0.0776  0.0493
  255CHOL    R1 2279  13.370   1.274   4.949 -0.1475 -0.0721  0.0625
  255CHOL    R2 2280  13.525   1.439   5.107  0.0278 -0.2094  0.0397
  255CHOL    R3 2281  13.303   1.445   5.263  0.0212  0.0686  0.0230
  255CHOL    R4 2282  13.522   1.522   5.442  0.0998 -0.1788  0.0326
  255CHOL    R5 2283  13.377   1.363   5.475 -0.0944 -0.0040  0.0347
  255CHOL    C1 2284  13.312   1.577   5.784  0.1353  0.1000  0.0128
  255CHOL    C2 2285  13.243   1.964   5.942 -0.1008  0.1330  0.0186
  256PNCE   AM1 2286   8.964   0.773   8.411 -0.0053  0.3475  0.0466
  256PNCE   AM2 2287   9.331   0.751   8.357 -0.0617 -0.1742 -0.0021
  256PNCE   T1A 2288   8.970   0.413   8.182  0.1288  0.3693 -0.0208
  256PNCE   C2A 2289   9.044   0.067   8.014  0.3291  0.1637  0.1950
  256PNCE   C3A 2290   9.171  -0.287   7.911 -0.0508  0.0409 -0.1537
  256PNCE   C1B 2291   9.396   0.558   7.935 -0.0592 -0.0421  0.3122
  256PNCE   C2B 2292   9.538   0.166   7.762 -0.0250 -0.0724  0.2162
  256PNCE   C3B 2293   9.938  -0.016   7.508 -0.3066  0.2065 -0.2142
  256PNCE   D4B 2294  10.095  -0.338   7.312 -0.1109 -0.1450 -0.2022
  256PNCE   C5B 2295   9.766  -0.561   7.114 -0.1195 -0.2406 -0.2822
  256PNCE   C6B 2296   9.814  -0.846   6.793 -0.0736  0.0569  0.3682
  257PNCE   AM1 2297   0.441   0.099   8.675  0.1683  0.0813  0.2005
  257PNCE   AM2 2298   0.222  -0.081   8.842  0.0222  0.0939  0.3569
  257PNCE   T1A 2299   0.547  -0.134   8.307  0.1011  0.0976 -0.3128
  257PNCE   C2A 2300   0.677  -0.517   8.009 -0.5001 -0.0219 -0.0106
  257PNCE   C3A 2301   0.610  -0.581   7.628  0.0223 -0.4169 -0.1188
  257PNCE   C1B 2302   0.058   0.034   8.385  0.0192 -0.1836 -0.0983
  257PNCE   C2B 2303   0.114  -0.037   8.051 -0.1403 -0.1613 -0.0915
  257PNCE   C3B 2304  -0.052  -0.076   7.655  0.2268  0.1614 -0.1662
  257PNCE   D4B 2305  -0.058  -0.149   7.153 -0.0775  0.1053 -0.0977
  257PNCE   C5B 2306  -0.395  -0.400   6.935  0.0887  0.0778  0.0084
  257PNCE   C6B 2307  -0.512  -0.818   6.689 -0.0623  0.0875  0.1037
  258PNCE   AM1 2308   8.475   2.471   6.391  0.2281 -0.1455 -0.1122
  258PNCE   AM2 2309   8.260   2.402   6.498 -0.0284 -0.0708 -0.3082
  258PNCE   T1A 2310   8.411   2.129   6.117  0.1088  0.0913  0.1077
  258PNCE   C2A 2311   8.162   1.727   6.021 -0.1801 -0.2011  0.1205
  258PNCE   C3A 2312   7.841   1.734   5.584  0.0160  0.2033  0.1761
  258PNCE   C1B 2313   8.039   2.440   6.106  0.0264  0.0378 -0.1151
  258PNCE   C2B 2314   7.995   2.250   5.753 -0.2283  0.3162  0.3992
  258PNCE   C3B 2315   7.966   2.129   5.316  0.0805 -0.1171 -0.1912
  258PNCE   D4B 2316   8.073   2.222   4.940 -0.1413 -0.2239 -0.2700
  258PNCE   C5B 2317   7.826   2.046   4.625 -0.0686  0.0740 -0.1837
  258PNCE   C6B 2318   7.719   1.697   4.441 -0.0373 -0.3997  0.0550
  259CHOL   ROH 2319  13.429  14.077   5.263  0.2170 -0.0996  0.0789
  259CHOL    R1 2320  13.279  13.938   5.458  0.1624 -0.1041  0.0329
  259CHOL    R2 2321  13.118  14.067   5.643  0.0826 -0.1122 -0.0365
  259CHOL    R3 2322  12.927  13.901   5.545  0.1341 -0.1420 -0.0905
  259CHOL    R4 2323  12.856  13.937   5.827 -0.0437 -0.0129 -0.1432
  259CHOL    R5 2324  12.884  13.747   5.723  0.0119 -0.0634 -0.0466
  259CHOL    C1 2325  12.524  13.705   5.841 -0.0688  0.0168 -0.2560
  259CHOL    C2 2326  12.608  13.344   5.995  0.0283  0.0612 -0.0918
  260XCA    COO 2327  12.675   4.385   4.737 -0.4235  0.0521  0.0897
  260XCA     C1 2328  12.790   4.470   5.142 -0.1665  0.0246  0.0127
  260XCA     C2 2329  12.836   4.436   5.636  0.1774  0.3194  0.3843
  260XCA     C3 2330  13.108   4.248   5.971 -0.3355  0.0462  0.2115
  260XCA     C4 2331  13.244   4.107   6.352  0.1917  0.0539 -0.0027
  260XCA     C5 2332  13.285   4.457   6.622  0.0027 -0.1203 -0.1482
  260XCA     C6 2333  13.193   4.347   7.074 -0.1326 -0.0020 -0.1754
  261PNCE   AM1 2334   0.822   2.184   8.196 -0.3600  0.1503  0.1095
  261PNCE   AM2 2335   0.509   2.152   8.447  0.3905 -0.2524  0.3450
  261PNCE   T1A 2336   0.795   2.395   7.785 -0.0551  0.0195 -0.1510
  261PNCE   C2A 2337   0.491   2.321   7.489  0.0746 -0.1277 -0.0600
  261PNCE   C3A 2338   0.132   2.311   7.384  0.1122  0.0398  0.1275
  261PNCE   C1B 2339   0.409   2.041   7.920  0.0455 -0.2466 -0.1371
  261PNCE   C2B 2340   0.462   1.834   7.551  0.1713  0.1688 -0.3130
  261PNCE   C3B 2341   0.521   1.536   7.262 -0.1426 -0.0713  0.2566
  261PNCE   D4B 2342   0.512   1.127   7.111  0.2689 -0.1981  0.1513
  261PNCE   C5B 2343   0.655   1.199   6.732  0.1889  0.0987  0.0693
  261PNCE   C6B 2344   0.724   0.948   6.343 -0.1889 -0.2466 -0.0180
  262CHOL   ROH 2345   0.593   2.828   6.253  0.2578  0.1748  0.3389
  262CHOL    R1 2346   0.778   2.630   6.337  0.1903  0.0502  0.1987
  262CHOL    R2 2347   0.709   2.364   6.362  0.0463  0.0838  0.1928
  262CHOL    R3 2348   0.922   2.327   6.196 -0.0713 -0.0128  0.0616
  262CHOL    R4 2349   0.903   2.078   6.352  0.0206  0.0667  0.1956
  262CHOL    R5 2350   1.079   2.205   6.330  0.0139  0.0426  0.0096
  262CHOL    C1 2351   1.215   1.876   6.191 -0.1046 -0.0340  0.0741
  262CHOL    C2 2352   1.384   1.578   5.918 -0.0547 -0.1738  0.2007
  263PNCE   AM1 2353   7.737   7.580   8.908  0.0415 -0.1228 -0.3533
  263PNCE   AM2 2354   7.983   7.816   9.101 -0.0261 -0.1829  0.2529
  263PNCE   T1A 2355   8.060   7.332   8.750  0.0478 -0.1161  0.0471
  263PNCE   C2A 2356   8.429   7.097   8.609 -0.3321 -0.3924 -0.2589
  263PNCE   C3A 2357   8.789   6.926   8.394 -0.0457  0.3929  0.1897
  263PNCE   C1B 2358   8.073   7.897   8.689  0.1363  0.2084  0.3832
  263PNCE   C2B 2359   7.952   8.040   8.262  0.3651 -0.1601  0.0717
  263PNCE   C3B 2360   7.850   7.970   7.905 -0.2672  0.1290  0.4174
  263PNCE   D4B 2361   7.696   7.838   7.523  0.0285 -0.2540 -0.0765
  263PNCE   C5B 2362   7.637   8.105   7.248 -0.0954  0.1604  0.0012
  263PNCE   C6B 2363   7.549   8.568   7.237  0.0750  0.1174 -0.3307
  264CHOL   ROH 2364   7.663   8.054   8.880 -0.0012 -0.0634  0.0198
  264CHOL    R1 2365   7.644   8.165   8.620  0.0163 -0.0880  0.0073
  264CHOL    R2 2366   7.463   8.074   8.432 -0.0817 -0.0009  0.0554
  264CHOL    R3 2367   7.389   8.335   8.424  0.0825  0.0451  0.0361
  264CHOL    R4 2368   7.447   8.266   8.145 -0.1107 -0.0554  0.0213
  264CHOL    R5 2369   7.531   8.433   8.258  0.0563 -0.0841 -0.0617
  264CHOL    C1 2370   7.368   8.623   7.971  0.0266 -0.0438 -0.0169
  264CHOL    C2 2371   7.222   8.736   7.653  0.0690 -0.2273  0.0310
  265XCA    COO 2372   9.751   9.687   5.852 -0.1008 -0.2425 -0.1464
  265XCA     C1 2373   9.561   9.495   6.117 -0.2562 -0.0199  0.3065
  265XCA     C2 2374   9.416   9.309   6.495 -0.0764 -0.2378  0.1174
  265XCA     C3 2375   9.157   9.238   6.806 -0.0315 -0.0156 -0.0573
  265XCA     C4 2376   9.087   9.133   7.309 -0.1801 -0.1258  0.1577
  265XCA     C5 2377   8.874   9.133   7.753 -0.0761  0.2150  0.1086
  265XCA     C6 2378   8.605   9.292   8.126 -0.3113 -0.3520  0.0361
  266PNCE   AM1 2379  11.148   3.949   8.647  0.0704  0.1225 -0.0567
  266PNCE   AM2 2380  10.882   4.214   8.787 -0.2413  0.0014 -0.0891
  266PNCE   T1A 2381  11.072   3.892   8.177 -0.1423 -0.0996  0.2553
  266PNCE   C2A 2382  11.153   3.894   7.722  0.0465  0.1950  0.2027
  266PNCE   C3A 2383  10.929   4.113   7.357 -0.0126 -0.0579  0.0765
  266PNCE   C1B 2384  11.067   4.398   8.349  0.1545  0.0558 -0.1942
  266PNCE   C2B 2385  11.110   4.310   7.982  0.0799 -0.0139  0.0096
  266PNCE   C3B 2386  11.325   4.411   7.601 -0.3177 -0.3013  0.1246
  266PNCE   D4B 2387  11.361   4.690   7.205 -0.2032 -0.1601 -0.1647
  266PNCE   C5B 2388  11.309   5.123   7.125  0.3931  0.1535 -0.1044
  266PNCE   C6B 2389  11.226   5.584   7.078 -0.1301 -0.1636 -0.3323
  267PNCE   AM1 2390   2.501   8.238   8.741  0.2687  0.0540 -0.0643
  267PNCE   AM2 2391   2.417   8.483   8.514 -0.0617  0.2237  0.0150
  267PNCE   T1A 2392   2.329   7.853   8.647 -0.4287 -0.1302  0.2181
  267PNCE   C2A 2393   1.893   7.766   8.485  0.2324  0.2501 -0.0932
  267PNCE   C3A 2394   1.753   7.992   8.145  0.1397 -0.4956 -0.0988
  267PNCE   C1B 2395   1.974   8.431   8.336  0.1596 -0.0523 -0.4072
  267PNCE   C2B 2396   1.772   8.439   7.926  0.2816 -0.0773 -0.3504
  267PNCE   C3B 2397   1.637   8.572   7.574  0.0121  0.0112  0.0635
  267PNCE   D4B 2398   1.728   8.495   7.145 -0.0043  0.2327  0.1812
  267PNCE   C5B 2399   1.370   8.459   6.927 -0.1282  0.0788  0.1456
  267PNCE   C6B 2400   1.027   8.739   6.896  0.1889  0.0557 -0.1954
  268CHOL   ROH 2401   2.236  10.085   7.878 -0.1325  0.1761 -0.0879
  268CHOL    R1 2402   2.121  10.197   7.645 -0.1047  0.0770 -0.1517
  268CHOL    R2 2403   2.224  10.154   7.392 -0.0382  0.0144 -0.1215
  268CHOL    R3 2404   1.970  10.073   7.338 -0.0090 -0.0586 -0.1420
  268CHOL    R4 2405   2.049  10.232   7.105 -0.1428  0.1792 -0.0135
  268CHOL    R5 2406   1.870  10.260   7.227 -0.1261 -0.0152  0.0444
  268CHOL    C1 2407   1.708  10.201   6.886 -0.1763  0.2066  0.0302
  268CHOL    C2 2408   1.454  10.457   6.558  0.0492 -0.1675  0.1340
  269XCA    COO 2409   0.247  10.758   8.624  0.0857 -0.1482  0.2683
  269XCA     C1 2410   0.383  10.763   8.247 -0.1729  0.2000  0.1997
  269XCA     C2 2411   0.380  10.780   7.823 -0.2522 -0.2219 -0.2594
  269XCA     C3 2412   0.377  10.859   7.378 -0.2028  0.2005 -0.0219
  269XCA     C4 2413   0.276  10.855   6.966 -0.1203 -0.1559  0.0050
  269XCA     C5 2414  -0.026  10.712   6.793  0.2359  0.1211  0.2722
  269XCA     C6 2415  -0.373  10.860   6.440  0.0067  0.2612 -0.0308
  270CHOL   ROH 2416  15.413  11.388   8.682  0.0425  0.0049  0.0734
  270CHOL    R1 2417  15.425  11.561   8.457 -0.0115 -0.0463  0.0314
  270CHOL    R2 2418  15.531  11.482   8.214 -0.0710 -0.1019  0.0246
  270CHOL    R3 2419  15.290  11.565   8.120 -0.0937 -0.1222  0.0628
  270CHOL    R4 2420  15.448  11.507   7.880 -0.0521  0.1008  0.0335
  270CHOL    R5 2421  15.343  11.693   7.925 -0.1229  0.0338  0.1548
  270CHOL    C1 2422  15.174  11.600   7.596 -0.0622  0.1998  0.0744
  270CHOL    C2 2423  15.329  11.789   7.288  0.3011  0.1107 -0.0828
  271XCA    COO 2424   2.762   7.502   8.316 -0.3041 -0.0969 -0.1964
  271XCA     C1 2425   2.824   7.481   7.767  0.1719  0.1325 -0.2143
  271XCA     C2 2426   2.707   7.205   7.475 -0.2135 -0.0445  0.1741
  271XCA     C3 2427   2.466   6.905   7.332 -0.3624 -0.1735  0.0386
  271XCA     C4 2428   2.024   6.847   7.459  0.1668  0.0186  0.0680
  271XCA     C5 2429   1.740   7.097   7.394 -0.1952 -0.1922  0.1510
  271XCA     C6 2430   1.809   7.247   6.971  0.0406 -0.1939 -0.3147
  272PNCE   AM1 2431  11.446   6.686   9.669  0.0140 -0.4372  0.1127
  272PNCE   AM2 2432  11.162   6.901   9.473  0.1121  0.0111  0.4294
  272PNCE   T1A 2433  11.521   6.566   9.220  0.1624  0.0599 -0.2366
  272PNCE   C2A 2434  11.286   6.453   8.849 -0.0070 -0.2615  0.0009
  272PNCE   C3A 2435  11.549   6.505   8.621 -0.3087 -0.3423  0.0208
  272PNCE   C1B 2436  11.069   7.309   9.168  0.0434  0.4072  0.2296
  272PNCE   C2B 2437  11.460   7.557   9.052 -0.2565  0.1579 -0.0150
  272PNCE   C3B 2438  11.734   7.843   8.808 -0.1142 -0.0701  0.3168
  272PNCE   D4B 2439  11.888   8.175   8.982  0.0175 -0.1860  0.4364
  272PNCE   C5B 2440  11.944   8.071   9.383  0.0604  0.2397 -0.2008
  272PNCE   C6B 2441  12.155   8.078   9.769 -0.2501 -0.2203  0.0694
  273CHOL   ROH 2442  10.804  14.447   9.456 -0.1412 -0.0751  0.0728
  273CHOL    R1 2443  10.873  14.646   9.268 -0.1312 -0.1143  0.0368
  273CHOL    R2 2444  11.078  14.615   9.086 -0.2327 -0.2167 -0.0493
  273CHOL    R3 2445  10.885  14.675   8.905 -0.2785 -0.1247  0.0275
  273CHOL    R4 2446  11.137  14.754   8.775 -0.2600 -0.3247 -0.1038
  273CHOL    R5 2447  10.961  14.879   8.804 -0.1711 -0.1906 -0.0469
  273CHOL    C1 2448  10.991  14.891   8.424 -0.3190 -0.3013 -0.0635
  273CHOL    C2 2449  11.357  15.092   8.185 -0.0481  0.0441  0.2876
  274CHOL   ROH 2450  12.266   6.587   6.034 -0.1502 -0.1389  0.0172
  274CHOL    R1 2451  12.263   6.587   6.317 -0.4455  0.0018  0.0146
  274CHOL    R2 2452  12.068   6.458   6.464 -0.2420 -0.4697 -0.1409
  274CHOL    R3 2453  12.283   6.339   6.582 -0.0184  0.1793  0.1653
  274CHOL    R4 2454  12.068   6.320   6.781 -0.3850 -0.6718 -0.2234
  274CHOL    R5 2455  12.268   6.403   6.812 -0.6815  0.0100  0.2016
  274CHOL    C1 2456  12.269   6.128   7.076 -0.2585 -0.1802  0.0160
  274CHOL    C2 2457  12.444   5.943   7.428  0.0654  0.0097 -0.1280
  275CHOL   ROH 2458   8.018   7.504   4.190  0.2305 -0.0672 -0.0564
  275CHOL    R1 2459   7.867   7.412   4.410  0.1968 -0.0846 -0.0879
  275CHOL    R2 2460   7.928   7.179   4.546  0.2666 -0.0135 -0.0052
  275CHOL    R3 2461   7.928   7.344   4.763  0.1005  0.0418 -0.0448
  275CHOL    R4 2462   7.846   7.083   4.868  0.3914 -0.0318  0.0226
  275CHOL    R5 2463   7.740   7.272   4.892  0.1827 -0.1368 -0.0167
  275CHOL    C1 2464   7.798   7.181   5.258  0.3081  0.0095  0.0017
  275CHOL    C2 2465   7.760   6.870   5.393  0.0807 -0.1711  0.0301
  276PNCE   AM1 2466  12.019  13.849   9.187 -0.0490 -0.0447 -0.0548
  276PNCE   AM2 2467  12.023  13.504   9.224  0.0287  0.2030  0.0311
  276PNCE   T1A 2468  11.711  14.116   9.172  0.2541 -0.5587 -0.3592
  276PNCE   C2A 2469  11.347  14.313   8.877  0.0174  0.3919 -0.0095
  276PNCE   C3A 2470  10.957  14.419   8.472 -0.1647 -0.0298 -0.0098
  276PNCE   C1B 2471  12.007  13.575   8.772 -0.1587  0.0395 -0.0558
  276PNCE   C2B 2472  11.832  13.886   8.585  0.0890 -0.2109  0.1592
  276PNCE   C3B 2473  11.583  14.129   8.367  0.1176  0.1517 -0.1663
  276PNCE   D4B 2474  11.216  14.109   8.207  0.2625 -0.2154  0.0134
  276PNCE   C5B 2475  11.143  14.245   7.805 -0.0715 -0.1053  0.2347
  276PNCE   C6B 2476  11.243  14.127   7.380 -0.0084 -0.1648 -0.0168
  277PNCE   AM1 2477   3.789  10.247   8.957 -0.2243  0.1463  0.2948
  277PNCE   AM2 2478   3.511  10.540   8.857  0.0822  0.1767  0.1850
  277PNCE   T1A 2479   3.918  10.408   8.467  0.1038 -0.1472  0.1242
  277PNCE   C2A 2480   4.028  10.323   7.979  0.0805 -0.0531 -0.1468
  277PNCE   C3A 2481   4.035   9.973   7.686  0.2811  0.0714  0.0853
  277PNCE   C1B 2482   3.616  10.778   8.408  0.1819  0.1645  0.1526
  277PNCE   C2B 2483   3.824  10.937   8.055 -0.0490  0.1399  0.0168
  277PNCE   C3B 2484   4.064  10.711   7.693  0.3890  0.1899 -0.1042
  277PNCE   D4B 2485   3.887  10.563   7.316 -0.2207  0.1353  0.2133
  277PNCE   C5B 2486   3.739  10.831   7.004 -0.3141 -0.2473 -0.1491
  277PNCE   C6B 2487   3.446  11.141   6.827 -0.4875 -0.2070  0.0304
  278PNCE   AM1 2488   0.584   0.655   8.521  0.0312  0.2288 -0.2967
  278PNCE   AM2 2489   0.262   0.726   8.472 -0.0538 -0.2513  0.2164
  278PNCE   T1A 2490   0.502   0.302   8.167  0.2225 -0.4172  0.0946
  278PNCE   C2A 2491   0.282   0.351   7.765  0.1857 -0.3075 -0.0792
  278PNCE   C3A 2492   0.260   0.304   7.305 -0.0051  0.2156  0.2335
  278PNCE   C1B 2493   0.400   0.911   8.005  0.1021  0.2774  0.2255
  278PNCE   C2B 2494   0.323   0.826   7.539  0.0232  0.2934 -0.2209
  278PNCE   C3B 2495   0.099   0.703   7.110 -0.3233 -0.0029 -0.1699
  278PNCE   D4B 2496   0.392   0.750   6.808  0.0061 -0.2264 -0.1208
  278PNCE   C5B 2497   0.332   0.593   6.445  0.2671 -0.1351  0.0724
  278PNCE   C6B 2498   0.413   0.684   5.973 -0.4423  0.0981  0.0353
  279CHOL   ROH 2499   3.781   2.589   7.772 -0.1159 -0.0008 -0.0123
  279CHOL    R1 2500   3.625   2.646   7.543 -0.1626  0.0137  0.0238
  279CHOL    R2 2501   3.535   2.900   7.483 -0.0918  0.0319  0.0085
  279CHOL    R3 2502   3.657   2.852   7.245 -0.1793 -0.0482 -0.0219
  279CHOL    R4 2503   3.437   3.034   7.180 -0.0608  0.1243  0.0383
  279CHOL    R5 2504   3.478   2.841   7.087 -0.2262  0.0952  0.0175
  279CHOL    C1 2505   3.494   3.068   6.780 -0.1250  0.1029  0.0270
  279CHOL    C2 2506   3.517   3.490   6.780 -0.3157 -0.4931  0.3670
  280PNCE   AM1 2507  12.772   6.276   9.603 -0.1913  0.0491  0.0058
  280PNCE   AM2 2508  13.057   6.307   9.414 -0.1886  0.0081  0.2799
  280PNCE   T1A 2509  12.460   6.050   9.337 -0.0258 -0.3061  0.0476
  280PNCE   C2A 2510  12.086   5.903   9.293 -0.2316  0.2269 -0.0359
  280PNCE   C3A 2511  11.831   5.499   9.267 -0.3084 -0.0351 -0.1074
  280PNCE   C1B 2512  12.805   6.573   9.124  0.2078  0.2945  0.2488
  280PNCE   C2B 2513  12.582   6.803   8.905 -0.1380 -0.1382  0.3514
  280PNCE   C3B 2514  12.596   6.852   8.513 -0.1875 -0.2894  0.0519
  280PNCE   D4B 2515  12.748   6.698   8.177  0.1035  0.4110  0.1357
  280PNCE   C5B 2516  12.642   6.374   7.976 -0.1538 -0.1340  0.1551
  280PNCE   C6B 2517  12.869   5.997   7.764  0.3426  0.0304  0.2847
  281XCA    COO 2518   6.548   5.113   7.500  0.2953 -0.3119  0.1421
  281XCA     C1 2519   6.752   4.998   7.078  0.0507  0.0723  0.1396
  281XCA     C2 2520   6.828   5.004   6.646  0.0460  0.0510  0.0551
  281XCA     C3 2521   6.607   5.288   6.273 -0.2213  0.3600  0.0196
  281XCA     C4 2522   6.737   5.705   6.230  0.0206 -0.0133 -0.0456
  281XCA     C5 2523   6.670   5.969   6.148 -0.5201 -0.0019 -0.2481
  281XCA     C6 2524   6.445   6.326   6.246 -0.1247 -0.1177 -0.1118
  282CHOL   ROH 2525   7.211   4.627   3.744  0.0258  0.0043  0.0282
  282CHOL    R1 2526   7.136   4.393   3.883  0.0982 -0.0471 -0.0168
  282CHOL    R2 2527   7.321   4.214   3.985  0.1597  0.0257  0.0188
  282CHOL    R3 2528   7.186   4.256   4.217  0.0735 -0.0527 -0.0179
  282CHOL    R4 2529   7.295   3.986   4.243 -0.0439 -0.0934 -0.1053
  282CHOL    R5 2530   7.087   4.044   4.268 -0.0256 -0.0358 -0.1666
  282CHOL    C1 2531   7.153   3.892   4.611 -0.2434 -0.2362 -0.2119
  282CHOL    C2 2532   7.118   3.609   4.851 -0.3531 -0.1777 -0.3461
  283CHOL   ROH 2533  11.538   7.242   5.889 -0.1643  0.0926 -0.2499
  283CHOL    R1 2534  11.407   7.443   6.040  0.0282  0.1172 -0.1122
  283CHOL    R2 2535  11.189   7.389   6.200  0.0187  0.2053 -0.0965
  283CHOL    R3 2536  11.340   7.507   6.392  0.1551 -0.0203 -0.0618
  283CHOL    R4 2537  11.082   7.456   6.521  0.0840  0.2593 -0.0856
  283CHOL    R5 2538  11.187   7.647   6.511  0.3160  0.1390 -0.0363
  283CHOL    C1 2539  11.162   7.606   6.889  0.2502  0.0788 -0.0468
  283CHOL    C2 2540  11.048   7.853   7.078 -0.0089  0.0013 -0.2088
  284CHOL   ROH 2541  13.974  15.710   7.917 -0.2168  0.1020 -0.0324
  284CHOL    R1 2542  13.764  15.722   7.728 -0.1409  0.1539 -0.1143
  284CHOL    R2 2543  13.672  15.961   7.623 -0.0557  0.1783 -0.1345
  284CHOL    R3 2544  13.723  15.838   7.386  0.0149  0.1851 -0.1231
  284CHOL    R4 2545  13.632  16.107   7.312 -0.0721  0.1494 -0.1460
  284CHOL    R5 2546  13.551  15.918   7.239  0.0031  0.1173 -0.1466
  284CHOL    C1 2547  13.657  16.077   6.909 -0.0155  0.1391 -0.1420
  284CHOL    C2 2548  13.654  16.335   6.572  0.0521  0.0180  0.0165
  285PNCE   AM1 2549   4.346  14.955   8.411 -0.0870  0.2142 -0.1390
  285PNCE   AM2 2550   4.422  15.238   8.442  0.2521 -0.1072  0.1315
  285PNCE   T1A 2551   4.336  14.783   7.996 -0.0099 -0.0525  0.0312
  285PNCE   C2A 2552   4.480  14.802   7.519  0.2289 -0.1519 -0.3112
  285PNCE   C3A 2553   4.848  14.955   7.435  0.2732 -0.0527 -0.0132
  285PNCE   C1B 2554   4.027  15.305   8.133 -0.1260 -0.0255 -0.0028
  285PNCE   C2B 2555   4.061  15.283   7.701 -0.2530  0.4092  0.0005
  285PNCE   C3B 2556   4.185  15.142   7.294  0.1317 -0.1287  0.3592
  285PNCE   D4B 2557   4.186  14.885   6.946  0.0038  0.0980 -0.2584
  285PNCE   C5B 2558   4.201  15.177   6.535  0.0717  0.2351 -0.0916
  285PNCE   C6B 2559   4.370  15.225   6.264 -0.2094  0.1227  0.2586
  286CHOL   ROH 2560  13.748   6.780   5.772 -0.0059  0.0524 -0.0210
  286CHOL    R1 2561  13.732   6.893   6.031  0.1311  0.0556 -0.0145
  286CHOL    R2 2562  13.585   6.778   6.235  0.0508  0.1820 -0.0056
  286CHOL    R3 2563  13.821   6.792   6.369  0.0814 -0.0411 -0.0288
  286CHOL    R4 2564  13.629   6.692   6.567 -0.0107  0.1869  0.0051
  286CHOL    R5 2565  13.760   6.865   6.589  0.1733  0.0587 -0.0334
  286CHOL    C1 2566  13.876   6.656   6.886 -0.0177 -0.0199 -0.0104
  286CHOL    C2 2567  13.539   6.651   7.047  0.2079  0.0152  0.0628
  287PNCE   AM1 2568  11.714  13.295   9.588  0.1592  0.0803 -0.0686
  287PNCE   AM2 2569  11.723  13.535   9.690  0.0497  0.0329  0.1244
  287PNCE   T1A 2570  11.565  13.280   9.191 -0.0603 -0.1523 -0.1521
  287PNCE   C2A 2571  11.536  13.279   8.745 -0.1387  0.0153 -0.0394
  287PNCE   C3A 2572  11.813  13.425   8.388  0.0618 -0.2219 -0.1780
  287PNCE   C1B 2573  11.383  13.673   9.410  0.0457 -0.0678  0.1948
  287PNCE   C2B 2574  11.536  13.725   8.940 -0.2022 -0.2870  0.1415
  287PNCE   C3B 2575  11.346  13.682   8.461  0.3766  0.2824 -0.0340
  287PNCE   D4B 2576  11.495  13.732   8.073  0.1393 -0.1330 -0.1540
  287PNCE   C5B 2577  11.656  14.097   7.838 -0.0188 -0.0616  0.1123
  287PNCE   C6B 2578  11.623  14.438   7.570  0.0835 -0.1983 -0.2721
  288XCA    COO 2579  12.289  13.952   4.918 -0.2968  0.0213 -0.2484
  288XCA     C1 2580  12.537  14.023   5.304  0.2916  0.2121  0.3703
  288XCA     C2 2581  12.564  14.274   5.742 -0.2409 -0.1956 -0.0054
  288XCA     C3 2582  12.477  14.165   6.083  0.0450 -0.0317  0.1806
  288XCA     C4 2583  12.730  13.872   6.344 -0.0557  0.1286  0.2648
  288XCA     C5 2584  13.018  13.634   6.130 -0.0826 -0.1852  0.3122
  288XCA     C6 2585  13.311  13.675   5.922 -0.2452 -0.0797  0.0381
  289CHOL   ROH 2586  10.549  11.595   9.579 -0.1286  0.2510 -0.3189
  289CHOL    R1 2587  10.545  11.503   9.312 -0.0932  0.1126 -0.2717
  289CHOL    R2 2588  10.747  11.560   9.132 -0.1269  0.1143 -0.3031
  289CHOL    R3 2589  10.753  11.290   9.102 -0.0010  0.1007 -0.1710
  289CHOL    R4 2590  10.774  11.395   8.829 -0.0782 -0.0149 -0.2297
  289CHOL    R5 2591  10.629  11.249   8.901 -0.0049 -0.0525 -0.1427
  289CHOL    C1 2592  10.796  11.045   8.626  0.0682 -0.1028 -0.0631
  289CHOL    C2 2593  10.894  10.938   8.192  0.0214 -0.1133  0.0855
  290PNCE   AM1 2594  15.043   7.787   9.087  0.1266 -0.3629 -0.3271
  290PNCE   AM2 2595  14.859   7.517   9.114 -0.1607 -0.1443  0.0013
  290PNCE   T1A 2596  14.811   8.096   8.778  0.0361  0.3167 -0.0726
  290PNCE   C2A 2597  14.664   8.316   8.349 -0.0995 -0.2836  0.2932
  290PNCE   C3A 2598  14.781   8.432   8.021 -0.0228 -0.0545  0.2688
  290PNCE   C1B 2599  14.836   7.189   8.808 -0.2225  0.1139  0.0039
  290PNCE   C2B 2600  14.976   7.099   8.372 -0.3791  0.1634 -0.0195
  290PNCE   C3B 2601  14.880   6.982   7.920  0.0963  0.1118 -0.0684
  290PNCE   D4B 2602  14.696   6.893   7.514 -0.0991  0.0118 -0.0290
  290PNCE   C5B 2603  14.859   6.591   7.252 -0.0686  0.1261 -0.0841
  290PNCE   C6B 2604  14.779   6.086   7.228 -0.0440  0.1801  0.0693
  291XCA    COO 2605   5.744   0.491   8.164  0.5006  0.2282  0.2612
  291XCA     C1 2606   5.597   0.105   7.794  0.1749  0.1392 -0.1284
  291XCA     C2 2607   5.617  -0.311   7.543 -0.0868 -0.0418  0.0819
  291XCA     C3 2608   5.459  -0.673   7.277  0.3341 -0.1434  0.0000
  291XCA     C4 2609   5.095  -0.618   6.993  0.0641  0.1877  0.2033
  291XCA     C5 2610   4.710  -0.506   7.058 -0.0239  0.3217 -0.1861
  291XCA     C6 2611   4.540  -0.232   7.433  0.1220 -0.1059 -0.0647
  292CHOL   ROH 2612   5.645   7.994   5.162 -0.1615 -0.1860 -0.1544
  292CHOL    R1 2613   5.726   7.770   5.315  0.0315  0.0102  0.0372
  292CHOL    R2 2614   5.930   7.783   5.501 -0.1587  0.4132  0.2284
  292CHOL    R3 2615   5.740   7.683   5.668 -0.1712  0.2149  0.0984
  292CHOL    R4 2616   5.991   7.645   5.812 -0.1925  0.1676  0.1284
  292CHOL    R5 2617   5.843   7.492   5.769 -0.1382  0.1581 -0.0382
  292CHOL    C1 2618   5.849   7.471   6.150 -0.2240 -0.1616 -0.0520
  292CHOL    C2 2619   5.886   7.429   6.622 -0.0514  0.2369 -0.1747
  293CHOL   ROH 2620  14.321   1.837   4.735  0.1306  0.0474  0.0536
  293CHOL    R1 2621  14.357   1.966   4.985  0.0597  0.0923  0.0411
  293CHOL    R2 2622  14.144   2.047   5.142  0.0143  0.0536  0.0015
  293CHOL    R3 2623  14.270   1.898   5.332  0.0314  0.1149  0.0383
  293CHOL    R4 2624  14.084   2.068   5.482 -0.0482  0.0700 -0.0106
  293CHOL    R5 2625  14.299   2.048   5.516 -0.0478  0.1435  0.0270
  293CHOL    C1 2626  14.167   1.941   5.858 -0.0687  0.1372  0.0167
  293CHOL    C2 2627  14.151   2.034   6.284  0.0038  0.0880 -0.1101
  294PNCE   AM1 2628   8.056   1.698   6.883 -0.1455  0.0133  0.4593
  294PNCE   AM2 2629   8.311   1.426   6.939  0.0410 -0.0965 -0.0536
  294PNCE   T1A 2630   8.386   1.816   6.667  0.1451 -0.0471  0.2861
  294PNCE   C2A 2631   8.803   2.037   6.601  0.0236  0.2506  0.3240
  294PNCE   C3A 2632   8.938   2.254   6.195  0.1298 -0.1864 -0.1544
  294PNCE   C1B 2633   8.200   1.422   6.446 -0.0394 -0.0171  0.1772
  294PNCE   C2B 2634   8.225   1.262   6.032 -0.1324  0.0066  0.0304
  294PNCE   C3B 2635   8.219   1.335   5.549  0.1459 -0.1218 -0.2955
  294PNCE   D4B 2636   8.208   1.095   5.148  0.1905  0.2360  0.3718
  294PNCE   C5B 2637   8.070   0.690   5.296 -0.2196 -0.2188  0.4282
  294PNCE   C6B 2638   8.040   0.202   5.134 -0.3364 -0.1214  0.1418
  295CHOL   ROH 2639   7.584  12.549   9.245  0.0930 -0.0882  0.0734
  295CHOL    R1 2640   7.452  12.542   8.994 -0.0462  0.0331  0.1411
  295CHOL    R2 2641   7.497  12.729   8.797 -0.0303  0.0342  0.1451
  295CHOL    R3 2642   7.550  12.510   8.645 -0.2513  0.0213  0.0836
  295CHOL    R4 2643   7.508  12.726   8.451 -0.1652  0.0877  0.1396
  295CHOL    R5 2644   7.406  12.533   8.455 -0.3076  0.1623  0.1421
  295CHOL    C1 2645   7.565  12.518   8.108 -0.4511  0.1067  0.0785
  295CHOL    C2 2646   7.456  12.314   7.734  0.1668 -0.0325  0.2112
  296PNCE   AM1 2647   1.658   2.788   7.803  0.1046 -0.0509 -0.0375
  296PNCE   AM2 2648   1.540   3.077   7.786 -0.1416 -0.1161  0.4074
  296PNCE   T1A 2649   1.705   2.410   7.521  0.1074 -0.2216  0.0449
  296PNCE   C2A 2650   1.827   2.117   7.209 -0.1362 -0.0286 -0.1912
  296PNCE   C3A 2651   1.680   1.912   7.069  0.2308 -0.1321  0.1361
  296PNCE   C1B 2652   1.755   2.923   7.376 -0.1163  0.1202 -0.1237
  296PNCE   C2B 2653   1.910   3.173   6.992 -0.0700 -0.0678 -0.2396
  296PNCE   C3B 2654   1.830   3.493   6.609  0.2140 -0.0004  0.1690
  296PNCE   D4B 2655   1.491   3.732   6.349  0.1584  0.3028  0.3677
  296PNCE   C5B 2656   1.241   4.002   6.609 -0.3116 -0.0178  0.2631
  296PNCE   C6B 2657   1.353   4.460   6.695  0.1568 -0.3302 -0.1063
  297XCA    COO 2658  13.382   6.568   5.504 -0.0869 -0.1556 -0.2902
  297XCA     C1 2659  13.313   6.611   5.910 -0.1370  0.1389 -0.5274
  297XCA     C2 2660  13.347   6.335   6.281 -0.1443 -0.0688 -0.0296
  297XCA     C3 2661  13.563   6.215   6.737  0.0346  0.1582 -0.0968
  297XCA     C4 2662  13.531   6.123   7.153 -0.1702  0.1916  0.0100
  297XCA     C5 2663  13.381   6.050   7.610 -0.1652  0.0063  0.0349
  297XCA     C6 2664  13.273   5.767   8.050 -0.0629 -0.1554  0.0269
  298CHOL   ROH 2665   0.608   9.329   9.170  0.1479 -0.1446  0.1078
  298CHOL    R1 2666   0.595   9.390   8.894 -0.0553 -0.3505  0.0688
  298CHOL    R2 2667   0.771   9.565   8.771 -0.4676 -0.0276 -0.0847
  298CHOL    R3 2668   0.814   9.355   8.605 -0.0349 -0.0520  0.0448
  298CHOL    R4 2669   0.876   9.591   8.443 -0.1656 -0.0426  0.0078
  298CHOL    R5 2670   0.738   9.431   8.391  0.0832 -0.2404 -0.0677
  298CHOL    C1 2671   0.978   9.409   8.096  0.4164 -0.0742  0.1833
  298CHOL    C2 2672   1.004   9.109   7.840 -0.1676 -0.3069  0.3535
  299PNCE   AM1 2673  13.580   7.521   9.339  0.0750 -0.3511 -0.0922
  299PNCE   AM2 2674  13.496   7.798   9.610 -0.1342  0.0621 -0.0460
  299PNCE   T1A 2675  13.353   7.463   8.959  0.4157 -0.0768  0.1123
  299PNCE   C2A 2676  13.210   7.564   8.527  0.0961 -0.1945  0.4773
  299PNCE   C3A 2677  12.940   7.991   8.239 -0.1312 -0.0394 -0.4018
  299PNCE   C1B 2678  13.417   7.997   9.202  0.1685 -0.2079 -0.1606
  299PNCE   C2B 2679  13.425   8.043   8.763 -0.0946  0.1664 -0.1705
  299PNCE   C3B 2680  13.418   8.134   8.290  0.1600 -0.1665  0.0599
  299PNCE   D4B 2681  13.604   8.106   7.892  0.1067 -0.1338 -0.0005
  299PNCE   C5B 2682  13.802   8.353   7.630 -0.1439 -0.1706  0.3362
  299PNCE   C6B 2683  13.917   8.760   7.550  0.0732  0.1848  0.0561
  300XCA    COO 2684  15.393  14.981   5.079 -0.1442 -0.0602  0.0382
  300XCA     C1 2685  15.476  14.871   5.455  0.1248  0.1848  0.1493
  300XCA     C2 2686  15.592  14.621   5.718 -0.0675  0.1966 -0.0229
  300XCA     C3 2687  15.756  14.216   5.748 -0.0957  0.0249  0.0650
  300XCA     C4 2688  15.799  13.797   6.001 -0.0218 -0.0875 -0.1239
  300XCA     C5 2689  15.860  13.376   6.094 -0.3920  0.0405 -0.2870
  300XCA     C6 2690  15.563  13.089   6.423 -0.0550 -0.2464 -0.3563
  301CHOL   ROH 2691  15.343   1.574   6.915  0.0247 -0.1182  0.0077
  301CHOL    R1 2692  15.490   1.595   7.156  0.1332  0.0530 -0.0725
  301CHOL    R2 2693  15.523   1.382   7.329  0.1587  0.1932  0.0908
  301CHOL    R3 2694  15.787   1.441   7.298  0.1615  0.1089 -0.0676
  301CHOL    R4 2695  15.776   1.271   7.537  0.2002  0.3978  0.1533
  301CHOL    R5 2696  15.868   1.468   7.522  0.2348  0.3695 -0.1188
  301CHOL    C1 2697  16.170   1.262   7.630  0.2269  0.4378  0.0410
  301CHOL    C2 2698  16.451   1.060   7.609  0.0561 -0.2667  0.1275
  302CHOL   ROH 2699  13.301  13.612   6.958 -0.0454 -0.2772  0.1725
  302CHOL    R1 2700  13.143  13.392   6.878 -0.1788 -0.1773  0.1528
  302CHOL    R2 2701  12.915  13.420   6.724  0.0037 -0.0531 -0.1135
  302CHOL    R3 2702  13.040  13.241   6.563  0.0101 -0.2804  0.1414
  302CHOL    R4 2703  12.761  13.230   6.480  0.0745 -0.1736 -0.0629
  302CHOL    R5 2704  12.885  13.061   6.539 -0.0828 -0.1996  0.1804
  302CHOL    C1 2705  12.790  12.950   6.187  0.1217 -0.4570  0.2059
  302CHOL    C2 2706  12.955  12.719   5.918  0.1012 -0.2356 -0.1513
  303XCA    COO 2707  10.198   8.179   5.563  0.3020 -0.1699 -0.0195
  303XCA     C1 2708   9.890   8.056   5.954 -0.0258  0.0648  0.1758
  303XCA     C2 2709   9.822   7.993   6.439  0.1512 -0.0766  0.0175
  303XCA     C3 2710   9.829   8.105   6.824  0.0254 -0.1266 -0.2480
  303XCA     C4 2711   9.919   8.382   7.230 -0.0787  0.3165 -0.6227
  303XCA     C5 2712  10.423   8.577   7.259 -0.2459  0.3400 -0.1836
  303XCA     C6 2713  10.644   8.872   7.063 -0.0033  0.0026  0.0106
  304PNCE   AM1 2714   8.557   0.911   8.153  0.0378  0.0329  0.0295
  304PNCE   AM2 2715   8.337   1.176   8.011 -0.0142 -0.2289 -0.1423
  304PNCE   T1A 2716   8.662   0.538   7.771  0.0323  0.1469  0.1146
  304PNCE   C2A 2717   9.034   0.415   7.562  0.2025  0.1068  0.3889
  304PNCE   C3A 2718   9.337   0.366   7.269  0.2414  0.1090  0.1190
  304PNCE   C1B 2719   8.191   0.941   7.680 -0.0201 -0.0191 -0.0915
  304PNCE   C2B 2720   8.304   0.973   7.325 -0.1621 -0.0652  0.3063
  304PNCE   C3B 2721   8.549   0.821   6.925 -0.0193  0.0647  0.2554
  304PNCE   D4B 2722   8.504   1.039   6.569 -0.3181 -0.1611  0.1449
  304PNCE   C5B 2723   8.683   1.162   6.187 -0.2089  0.0319 -0.1597
  304PNCE   C6B 2724   8.720   1.317   5.789  0.2075  0.2737 -0.0988
  305CHOL   ROH 2725   8.175  14.862   8.682 -0.1487  0.1501 -0.2016
  305CHOL    R1 2726   8.215  14.950   8.416 -0.1809  0.0230 -0.2499
  305CHOL    R2 2727   8.429  14.866   8.262 -0.1217  0.0537 -0.1914
  305CHOL    R3 2728   8.234  14.796   8.086 -0.0748 -0.1553 -0.1608
  305CHOL    R4 2729   8.463  14.867   7.918 -0.2605  0.3487 -0.2067
  305CHOL    R5 2730   8.261  14.948   7.903 -0.4050  0.0191 -0.0695
  305CHOL    C1 2731   8.300  14.802   7.553 -0.2973  0.3242 -0.1869
  305CHOL    C2 2732   8.096  14.899   7.196 -0.1013  0.2483 -0.0567
  306CHOL   ROH 2733   7.985   5.790   7.316 -0.2343  0.1443 -0.0091
  306CHOL    R1 2734   8.008   5.851   7.041 -0.1863  0.0494 -0.0263
  306CHOL    R2 2735   8.196   5.732   6.877 -0.1795 -0.0312  0.0405
  306CHOL    R3 2736   7.978   5.669   6.727 -0.1663 -0.0510  0.0294
  306CHOL    R4 2737   8.197   5.695   6.534 -0.1698  0.0243  0.0345
  306CHOL    R5 2738   8.005   5.798   6.527 -0.1909 -0.0130  0.0500
  306CHOL    C1 2739   7.994   5.615   6.192 -0.1518  0.0381  0.0205
  306CHOL    C2 2740   8.070   5.599   5.709  0.0575 -0.0277 -0.1224
  307CHOL   ROH 2741   3.729   5.653   7.369 -0.0813  0.1025  0.0480
  307CHOL    R1 2742   3.785   5.731   7.103 -0.0856 -0.0200  0.0095
  307CHOL    R2 2743   3.784   5.553   6.892 -0.0583 -0.1271  0.0915
  307CHOL    R3 2744   3.609   5.731   6.784 -0.0815 -0.2009  0.0084
  307CHOL    R4 2745   3.770   5.637   6.557  0.2369  0.0737  0.1268
  307CHOL    R5 2746   3.737   5.845   6.616  0.0080  0.0066  0.2185
  307CHOL    C1 2747   3.598   5.853   6.261  0.3869  0.1213  0.0694
  307CHOL    C2 2748   3.677   5.448   6.028  0.2388  0.2983  0.1359
  308XCA    COO 2749   7.752  10.165   9.172 -0.2534  0.2151  0.0010
  308XCA     C1 2750   7.908  10.262   8.775  0.0115 -0.0724  0.0258
  308XCA     C2 2751   7.587  10.118   8.551 -0.0198  0.1419 -0.2129
  308XCA     C3 2752   7.639  10.333   8.132  0.2787 -0.0149 -0.2123
  308XCA     C4 2753   7.628  10.305   7.750  0.3301 -0.1639  0.1391
  308XCA     C5 2754   7.541  10.032   7.438 -0.3686 -0.3553  0.0307
  308XCA     C6 2755   7.236   9.990   7.142  0.0001  0.0876 -0.0344
  309CHOL   ROH 2756   8.552   3.752   3.680  0.1334 -0.2416 -0.1008
  309CHOL    R1 2757   8.375   3.577   3.815  0.3446 -0.3199  0.0793
  309CHOL    R2 2758   8.423   3.487   4.072  0.2901  0.2801  0.3134
  309CHOL    R3 2759   8.174   3.586   4.118  0.0438 -0.0961 -0.1210
  309CHOL    R4 2760   8.239   3.431   4.359  0.1725  0.5565  0.2958
  309CHOL    R5 2761   8.061   3.409   4.235  0.3030 -0.0758  0.1787
  309CHOL    C1 2762   7.898   3.491   4.570 -0.1272  0.3643 -0.1223
  309CHOL    C2 2763   7.662   3.208   4.912  0.1886  0.2677 -0.0913
  310CHOL   ROH 2764   3.308  14.015   5.205  0.1037 -0.0275 -0.1024
  310CHOL    R1 2765   3.539  14.046   5.366  0.0058  0.1088  0.0121
  310CHOL    R2 2766   3.544  14.210   5.588 -0.2505 -0.0105  0.1027
  310CHOL    R3 2767   3.629  13.984   5.713 -0.0778  0.0043  0.0174
  310CHOL    R4 2768   3.717  14.202   5.888 -0.3493  0.0135  0.1620
  310CHOL    R5 2769   3.842  14.043   5.806 -0.1629  0.1690  0.1217
  310CHOL    C1 2770   3.897  13.986   6.179 -0.2447  0.0414  0.1164
  310CHOL    C2 2771   3.849  13.883   6.531  0.0804  0.0972 -0.2039
  311XCA    COO 2772   5.681  15.393   3.627 -0.0692  0.0348  0.2015
  311XCA     C1 2773   5.717  15.516   4.024  0.1669 -0.2817 -0.2040
  311XCA     C2 2774   5.959  15.478   4.447 -0.1537 -0.0885  0.0928
  311XCA     C3 2775   6.051  15.524   4.928 -0.1734  0.1897  0.1582
  311XCA     C4 2776   6.120  15.379   5.381 -0.1049 -0.1597 -0.4246
  311XCA     C5 2777   6.103  15.370   5.804 -0.0658 -0.0305 -0.0028
  311XCA     C6 2778   5.868  15.151   5.993  0.2961 -0.0927 -0.1606
  312PNCE   AM1 2779   1.085  11.576   8.982 -0.0836 -0.0737 -0.0327
  312PNCE   AM2 2780   1.424  11.726   9.050 -0.1109  0.2219  0.0557
  312PNCE   T1A 2781   1.155  11.709   8.535  0.0987 -0.0171  0.0886
  312PNCE   C2A 2782   1.239  11.588   8.154 -0.2495 -0.1214 -0.3596
  312PNCE   C3A 2783   1.490  11.831   7.935  0.1684 -0.0521  0.0209
  312PNCE   C1B 2784   1.593  11.536   8.632  0.0449  0.1304 -0.4731
  312PNCE   C2B 2785   1.589  11.249   8.189  0.3862 -0.2312 -0.1356
  312PNCE   C3B 2786   1.600  11.369   7.762 -0.1842  0.1454  0.0519
  312PNCE   D4B 2787   1.394  11.222   7.366  0.1991  0.1624 -0.0205
  312PNCE   C5B 2788   1.462  11.402   7.048  0.0627 -0.2792  0.0547
  312PNCE   C6B 2789   1.425  11.531   6.583 -0.1384 -0.0648  0.4295
  313PNCE   AM1 2790   2.090  10.557   9.035  0.0470 -0.2033  0.2715
  313PNCE   AM2 2791   2.210  10.218   8.834 -0.1060  0.2975 -0.2337
  313PNCE   T1A 2792   2.123  10.842   8.661 -0.0786  0.1095 -0.0749
  313PNCE   C2A 2793   2.143  11.252   8.466 -0.1807 -0.1558 -0.1944
  313PNCE   C3A 2794   2.060  11.666   8.489  0.0625 -0.1774 -0.1989
  313PNCE   C1B 2795   2.246  10.432   8.364  0.0168  0.0223  0.1021
  313PNCE   C2B 2796   2.133  10.652   7.994 -0.0821  0.0339  0.0063
  313PNCE   C3B 2797   2.008  11.091   7.871  0.2060 -0.0932  0.0823
  313PNCE   D4B 2798   1.950  11.318   7.423  0.2141 -0.0208  0.2744
  313PNCE   C5B 2799   1.931  11.062   7.126 -0.0944 -0.3729 -0.1954
  313PNCE   C6B 2800   1.891  10.607   6.855  0.2838 -0.3258 -0.0726
  314PNCE   AM1 2801   3.406  14.558   8.579  0.0739 -0.0036 -0.2017
  314PNCE   AM2 2802   3.335  14.310   8.672 -0.0725 -0.3609 -0.3411
  314PNCE   T1A 2803   3.078  14.788   8.276  0.2234  0.1973 -0.2109
  314PNCE   C2A 2804   2.842  14.845   7.924  0.0970  0.1049 -0.1870
  314PNCE   C3A 2805   2.970  14.733   7.641 -0.0269  0.1841 -0.0283
  314PNCE   C1B 2806   3.363  14.031   8.213 -0.2649 -0.1613 -0.0442
  314PNCE   C2B 2807   3.607  13.995   7.831 -0.2448 -0.1085 -0.1291
  314PNCE   C3B 2808   3.901  13.886   7.469 -0.0028  0.0170  0.2152
  314PNCE   D4B 2809   4.069  14.071   7.142 -0.1713 -0.2359 -0.0813
  314PNCE   C5B 2810   4.271  14.021   6.815  0.2071  0.3329 -0.0937
  314PNCE   C6B 2811   4.345  14.210   6.489 -0.2479  0.1526  0.1957
  315XCA    COO 2812  12.980  11.075   9.388 -0.2423 -0.1579  0.0134
  315XCA     C1 2813  12.920  10.898   8.982  0.1370 -0.2529  0.1760
  315XCA     C2 2814  12.955  10.557   8.645 -0.2358 -0.0113  0.2102
  315XCA     C3 2815  13.067  10.434   8.344 -0.0774 -0.2377 -0.1643
  315XCA     C4 2816  13.081  10.463   7.820 -0.2504 -0.1811  0.0334
  315XCA     C5 2817  13.059  10.214   7.512  0.0178 -0.1435  0.0528
  315XCA     C6 2818  12.963   9.914   7.254  0.1482 -0.1919  0.2059
  316PNCE   AM1 2819   2.972   8.642   7.856  0.7537  0.0330 -0.2509
  316PNCE   AM2 2820   2.658   8.735   8.069  0.2768 -0.0570 -0.0622
  316PNCE   T1A 2821   3.137   8.941   7.774 -0.1959  0.2012 -0.0654
  316PNCE   C2A 2822   3.188   9.161   7.398  0.0921  0.1117  0.0960
  316PNCE   C3A 2823   2.823   9.453   7.317 -0.1894 -0.0514 -0.0261
  316PNCE   C1B 2824   2.223   8.836   7.934  0.0819  0.3664  0.3384
  316PNCE   C2B 2825   2.180   8.598   7.478  0.1327  0.0085  0.1018
  316PNCE   C3B 2826   2.247   8.638   7.041 -0.2702  0.1269 -0.1270
  316PNCE   D4B 2827   2.210   8.322   6.783 -0.2395 -0.2818 -0.0080
  316PNCE   C5B 2828   1.837   8.203   6.405 -0.0532  0.1025  0.2848
  316PNCE   C6B 2829   1.346   8.288   6.444 -0.4186  0.0385  0.0394
  317XCA    COO 2830  10.518  12.188   5.889 -0.1200  0.2139  0.2930
  317XCA     C1 2831  10.197  12.370   6.253  0.0606  0.2476  0.0011
  317XCA     C2 2832   9.913  12.399   6.505  0.3532 -0.0013  0.0619
  317XCA     C3 2833   9.848  12.692   6.858  0.0468 -0.0601 -0.2127
  317XCA     C4 2834   9.729  12.727   7.177 -0.4515 -0.1983  0.1845
  317XCA     C5 2835   9.429  12.780   7.607  0.0914 -0.1205  0.0361
  317XCA     C6 2836   9.305  12.631   8.061 -0.2655 -0.1193  0.0433
  318PNCE   AM1 2837   3.246   5.700   7.921 -0.0605 -0.2231  0.0862
  318PNCE   AM2 2838   3.176   5.260   7.959  0.1864 -0.1241 -0.2983
  318PNCE   T1A 2839   3.306   5.539   7.454  0.3399  0.1555 -0.0281
  318PNCE   C2A 2840   3.405   5.390   7.076  0.1218  0.0500  0.0295
  318PNCE   C3A 2841   3.370   5.347   6.598  0.4951  0.0500  0.0427
  318PNCE   C1B 2842   2.878   5.528   7.649 -0.2285 -0.2228  0.3188
  318PNCE   C2B 2843   2.467   5.621   7.356 -0.0684 -0.1037  0.1308
  318PNCE   C3B 2844   2.178   5.919   7.165 -0.0311  0.3123 -0.0024
  318PNCE   D4B 2845   1.857   6.178   6.887  0.1144  0.4777  0.0805
  318PNCE   C5B 2846   1.639   5.963   6.523 -0.1556 -0.2386  0.0855
  318PNCE   C6B 2847   1.288   5.901   6.275  0.1749 -0.0636  0.0263
  319PNCE   AM1 2848   4.993   8.797   7.906 -0.1369  0.1355 -0.0244
  319PNCE   AM2 2849   5.164   8.916   8.139 -0.0213 -0.0033  0.0883
  319PNCE   T1A 2850   4.884   9.038   7.632 -0.0497 -0.2808 -0.0972
  319PNCE   C2A 2851   4.765   9.244   7.299 -0.0864 -0.2649  0.0038
  319PNCE   C3A 2852   4.596   9.458   6.975  0.0383 -0.2136  0.4929
  319PNCE   C1B 2853   5.370   9.027   7.668 -0.0448  0.1445 -0.2194
  319PNCE   C2B 2854   5.274   9.204   7.272  0.3264  0.1217  0.3059
  319PNCE   C3B 2855   5.044   9.244   6.904 -0.0705 -0.1381 -0.1828
  319PNCE   D4B 2856   5.029   9.490   6.528 -0.0665 -0.0474  0.1751
  319PNCE   C5B 2857   4.858   9.694   6.143  0.0267  0.0810 -0.1650
  319PNCE   C6B 2858   4.779   9.772   5.762 -0.2344 -0.1844  0.1985
  320CHOL   ROH 2859  11.367   1.860   4.959  0.1136  0.0182 -0.0470
  320CHOL    R1 2860  11.393   2.005   5.201  0.0588 -0.0453 -0.0008
  320CHOL    R2 2861  11.261   1.933   5.433 -0.0779 -0.0487 -0.0701
  320CHOL    R3 2862  11.511   1.938   5.539 -0.1214 -0.1715  0.0361
  320CHOL    R4 2863  11.335   2.018   5.759 -0.1438  0.1195 -0.0985
  320CHOL    R5 2864  11.510   2.126   5.686 -0.0316 -0.0718 -0.0972
  320CHOL    C1 2865  11.613   2.070   6.049 -0.2230  0.1021 -0.0153
  320CHOL    C2 2866  11.448   2.041   6.433  0.1468 -0.4221 -0.2141
  321CHOL   ROH 2867  15.689  14.728   8.125  0.0824 -0.1964  0.1446
  321CHOL    R1 2868  15.836  14.627   7.906  0.0609 -0.1240  0.0962
  321CHOL    R2 2869  15.819  14.736   7.652  0.0176 -0.0499  0.1317
  321CHOL    R3 2870  16.089  14.754   7.677  0.0250 -0.0388  0.0996
  321CHOL    R4 2871  16.039  14.765   7.388 -0.0204 -0.0915  0.0959
  321CHOL    R5 2872  16.173  14.628   7.492  0.0013 -0.0752  0.1079
  321CHOL    C1 2873  16.422  14.797   7.257 -0.0355 -0.1053  0.0449
  321CHOL    C2 2874  16.640  14.790   6.969  0.1338  0.3263  0.4234
  322CHOL   ROH 2875   7.250   6.373   4.000  0.2515 -0.0193  0.0454
  322CHOL    R1 2876   7.130   6.237   4.217  0.2240  0.0339  0.0634
  322CHOL    R2 2877   7.126   5.961   4.235  0.0706  0.0353  0.0445
  322CHOL    R3 2878   7.240   6.008   4.478  0.1538 -0.0475  0.0223
  322CHOL    R4 2879   7.079   5.765   4.516 -0.0790  0.1097  0.0730
  322CHOL    R5 2880   7.070   5.947   4.636  0.1162  0.1348  0.0550
  322CHOL    C1 2881   7.159   5.695   4.907 -0.0879  0.0752  0.0688
  322CHOL    C2 2882   7.261   5.436   5.076  0.2202 -0.1341 -0.1577
  323XCA    COO 2883   7.216   1.344   7.355  0.0100 -0.0675 -0.1476
  323XCA     C1 2884   7.401   1.207   6.940  0.0308 -0.1140  0.1748
  323XCA     C2 2885   7.765   1.101   6.663 -0.2541 -0.4293 -0.1062
  323XCA     C3 2886   8.044   0.911   6.384  0.1476 -0.4984  0.0625
  323XCA     C4 2887   8.415   0.691   6.184  0.1342 -0.4800 -0.1316
  323XCA     C5 2888   8.573   0.333   6.119 -0.1596  0.0049 -0.4605
  323XCA     C6 2889   8.748  -0.044   5.960  0.2023  0.0505  0.1955
  324XCA    COO 2890   2.061  13.403   8.565  0.2610  0.1475 -0.1949
  324XCA     C1 2891   2.281  13.423   8.201 -0.0955  0.3772 -0.1757
  324XCA     C2 2892   2.623  13.438   7.873 -0.0683 -0.0212 -0.0794
  324XCA     C3 2893   2.909  13.430   7.544  0.1494 -0.1830 -0.0080
  324XCA     C4 2894   3.067  13.592   7.236 -0.0361  0.0028 -0.0429
  324XCA     C5 2895   3.234  13.773   6.956 -0.0022  0.1996 -0.0006
  324XCA     C6 2896   3.424  13.661   6.715  0.0500 -0.0916  0.1056
  325CHOL   ROH 2897  13.528   2.304   8.391 -0.0522 -0.1737 -0.0188
  325CHOL    R1 2898  13.453   2.281   8.119 -0.0911 -0.2232 -0.0042
  325CHOL    R2 2899  13.612   2.372   7.912 -0.2339 -0.0274 -0.0321
  325CHOL    R3 2900  13.583   2.118   7.821  0.0178 -0.0504 -0.0524
  325CHOL    R4 2901  13.668   2.271   7.587 -0.0938  0.0437 -0.0304
  325CHOL    R5 2902  13.493   2.143   7.601  0.0242 -0.1227 -0.0627
  325CHOL    C1 2903  13.675   1.973   7.312  0.2240  0.0635 -0.0483
  325CHOL    C2 2904  13.452   1.891   7.071 -0.1997 -0.1844  0.0030
  326PNCE   AM1 2905  14.598   8.359   9.179 -0.0908 -0.1746  0.0992
  326PNCE   AM2 2906  14.920   8.363   9.175  0.1871 -0.0669 -0.1011
  326PNCE   T1A 2907  14.328   8.482   8.774 -0.0847  0.2828 -0.0628
  326PNCE   C2A 2908  14.258   8.593   8.325  0.1147 -0.0991 -0.1454
  326PNCE   C3A 2909  14.435   8.703   7.825  0.1594  0.0666  0.0489
  326PNCE   C1B 2910  14.809   8.581   8.851  0.0503 -0.1650  0.1506
  326PNCE   C2B 2911  15.091   8.539   8.601 -0.0207  0.1542  0.0165
  326PNCE   C3B 2912  15.211   8.328   8.240 -0.0493  0.1667  0.2065
  326PNCE   D4B 2913  15.052   8.012   7.902 -0.5023  0.1268  0.0269
  326PNCE   C5B 2914  15.294   7.716   7.649  0.1922  0.1931 -0.0741
  326PNCE   C6B 2915  15.458   7.516   7.365 -0.2682 -0.1441 -0.1083
  327PNCE   AM1 2916  11.033   2.457   8.486 -0.0615  0.0598  0.0147
  327PNCE   AM2 2917  10.787   2.237   8.683 -0.0957  0.1206  0.2055
  327PNCE   T1A 2918  11.011   2.641   8.131  0.0047 -0.1438  0.3129
  327PNCE   C2A 2919  11.180   2.514   7.846  0.4199 -0.3078  0.3388
  327PNCE   C3A 2920  11.224   2.680   7.408  0.3387 -0.0399 -0.0263
  327PNCE   C1B 2921  10.655   2.264   8.237  0.2525 -0.1576 -0.1744
  327PNCE   C2B 2922  10.588   2.545   7.875  0.1480  0.2413  0.0605
  327PNCE   C3B 2923  10.580   2.604   7.495  0.1223 -0.0522 -0.0573
  327PNCE   D4B 2924  10.544   2.626   7.047 -0.0571 -0.3491  0.0468
  327PNCE   C5B 2925  10.681   2.625   6.706  0.0533  0.1612 -0.0316
  327PNCE   C6B 2926  11.049   2.726   6.409 -0.0468 -0.3813 -0.1213
  328CHOL   ROH 2927   4.665  11.036   8.358  0.0363  0.1101 -0.0231
  328CHOL    R1 2928   4.892  10.947   8.215  0.0131 -0.0093  0.0119
  328CHOL    R2 2929   4.892  10.912   7.942 -0.0050 -0.1510  0.0256
  328CHOL    R3 2930   5.107  11.077   7.952  0.0256 -0.1858 -0.0652
  328CHOL    R4 2931   5.092  10.992   7.672 -0.0556 -0.2404 -0.0384
  328CHOL    R5 2932   5.266  10.978   7.802 -0.0283 -0.2410 -0.0813
  328CHOL    C1 2933   5.410  11.195   7.524 -0.0564 -0.3252 -0.1608
  328CHOL    C2 2934   5.648  11.129   7.171 -0.3393 -0.0926  0.1844
  329CHOL   ROH 2935   6.215   7.792   6.066 -0.0665 -0.0051  0.1368
  329CHOL    R1 2936   6.477   7.877   6.131 -0.0683  0.0687  0.0444
  329CHOL    R2 2937   6.528   8.117   6.259 -0.1041  0.0186  0.1435
  329CHOL    R3 2938   6.661   7.958   6.435  0.0607 -0.0172 -0.0082
  329CHOL    R4 2939   6.797   8.217   6.452 -0.1482  0.0923  0.1690
  329CHOL    R5 2940   6.890   8.024   6.414  0.0067  0.1926 -0.0052
  329CHOL    C1 2941   7.078   8.125   6.729 -0.0191  0.1016  0.0415
  329CHOL    C2 2942   7.386   8.246   6.798 -0.0860 -0.2333 -0.0986
  330PNCE   AM1 2943  10.619   9.078   9.988 -0.0926  0.3236 -0.0011
  330PNCE   AM2 2944  10.783   9.317   9.728 -0.1112 -0.1547 -0.2559
  330PNCE   T1A 2945  10.345   8.773   9.761 -0.2148 -0.2439  0.4422
  330PNCE   C2A 2946  10.273   8.594   9.306 -0.0535 -0.1429 -0.1538
  330PNCE   C3A 2947  10.238   8.409   8.997  0.1753 -0.1195 -0.0556
  330PNCE   C1B 2948  10.916   9.533   9.399  0.1719  0.0566 -0.0587
  330PNCE   C2B 2949  10.921   9.707   8.947  0.1152  0.5011 -0.0472
  330PNCE   C3B 2950  11.129  10.039   8.737  0.1056  0.1178  0.1695
  330PNCE   D4B 2951  11.048  10.490   8.549 -0.3202  0.4023 -0.0929
  330PNCE   C5B 2952  10.732  10.498   8.131 -0.3313  0.0389  0.0686
  330PNCE   C6B 2953  10.474  10.429   7.770  0.1267 -0.3108 -0.0412
  331PNCE   AM1 2954   8.430   3.228   7.030  0.1415  0.0461 -0.1308
  331PNCE   AM2 2955   8.685   3.276   7.203 -0.2665 -0.0959 -0.1693
  331PNCE   T1A 2956   8.772   2.980   6.857 -0.1199  0.0589 -0.0279
  331PNCE   C2A 2957   9.010   2.752   6.554  0.0707 -0.0254 -0.2176
  331PNCE   C3A 2958   9.499   2.658   6.403  0.1330 -0.0661  0.1017
  331PNCE   C1B 2959   9.043   3.363   6.887 -0.0917  0.1029 -0.2869
  331PNCE   C2B 2960   8.985   3.464   6.433  0.4434 -0.2206 -0.0406
  331PNCE   C3B 2961   9.051   3.530   5.991  0.0663  0.3367 -0.1705
  331PNCE   D4B 2962   9.399   3.495   5.766  0.3733  0.1475 -0.1504
  331PNCE   C5B 2963   9.522   3.233   5.473 -0.0361  0.0068 -0.1203
  331PNCE   C6B 2964   9.484   3.284   5.050  0.0408  0.2991 -0.1160
  332PNCE   AM1 2965   7.853  15.226   8.768  0.0071 -0.0171  0.4063
  332PNCE   AM2 2966   7.685  15.341   8.477  0.1464 -0.1835 -0.1243
  332PNCE   T1A 2967   7.792  14.827   8.441 -0.0811 -0.1088 -0.2585
  332PNCE   C2A 2968   7.821  14.802   7.966 -0.1601 -0.1481 -0.2310
  332PNCE   C3A 2969   7.917  14.658   7.694 -0.1906 -0.0083 -0.1779
  332PNCE   C1B 2970   7.866  15.268   8.065 -0.0538  0.0861 -0.1667
  332PNCE   C2B 2971   7.872  15.173   7.555  0.1644 -0.2892  0.0359
  332PNCE   C3B 2972   7.765  15.329   7.074 -0.0553  0.1213 -0.0277
  332PNCE   D4B 2973   7.875  15.223   6.670 -0.2071  0.0271  0.0028
  332PNCE   C5B 2974   7.547  15.047   6.453 -0.1163  0.0417  0.6059
  332PNCE   C6B 2975   7.432  14.630   6.307 -0.1463  0.2733 -0.0482
  333PNCE   AM1 2976  15.087   3.027   8.705  0.1729  0.0130 -0.6042
  333PNCE   AM2 2977  14.778   2.891   8.796  0.0045 -0.1265  0.0320
  333PNCE   T1A 2978  14.872   3.197   8.337 -0.1048  0.2229  0.0439
  333PNCE   C2A 2979  14.782   3.320   7.916  0.0510  0.0425  0.0551
  333PNCE   C3A 2980  14.695   3.391   7.432 -0.3123 -0.1770  0.1192
  333PNCE   C1B 2981  14.725   2.718   8.335 -0.0852 -0.1342 -0.4611
  333PNCE   C2B 2982  14.669   2.710   7.837 -0.0620  0.1219 -0.1115
  333PNCE   C3B 2983  14.575   2.865   7.494  0.0593 -0.0626  0.0118
  333PNCE   D4B 2984  14.494   3.093   7.100 -0.0291 -0.0624  0.0367
  333PNCE   C5B 2985  14.586   2.885   6.753 -0.2472  0.3037  0.2267
  333PNCE   C6B 2986  14.683   2.693   6.456  0.2639  0.3723 -0.1031
  334PNCE   AM1 2987   3.868  11.089   8.812 -0.1675 -0.0810  0.0725
  334PNCE   AM2 2988   4.100  11.147   8.866 -0.0743  0.1593  0.1234
  334PNCE   T1A 2989   3.398  11.014   8.851 -0.2234  0.2799 -0.0070
  334PNCE   C2A 2990   3.026  10.930   8.759 -0.1669  0.1751 -0.0835
  334PNCE   C3A 2991   2.715  10.590   8.606  0.4084  0.0694 -0.1465
  334PNCE   C1B 2992   4.158  11.038   8.339  0.1638 -0.0389 -0.1864
  334PNCE   C2B 2993   4.431  11.014   7.904  0.0302 -0.2706  0.1938
  334PNCE   C3B 2994   4.696  11.152   7.524 -0.0785 -0.1220 -0.1392
  334PNCE   D4B 2995   4.912  11.136   7.185  0.2058  0.0703  0.3924
  334PNCE   C5B 2996   4.617  11.084   6.865 -0.4588  0.0528  0.0610
  334PNCE   C6B 2997   4.400  10.886   6.518 -0.0172 -0.2150  0.0924
  335PNCE   AM1 2998   6.567   6.296   8.056 -0.1357 -0.0467  0.1039
  335PNCE   AM2 2999   6.344   6.543   8.029  0.0716 -0.0972 -0.1080
  335PNCE   T1A 3000   6.339   6.288   7.596 -0.1371  0.1676 -0.0976
  335PNCE   C2A 3001   6.311   6.335   7.151 -0.0679  0.3802 -0.0928
  335PNCE   C3A 3002   6.181   6.554   6.835 -0.5270  0.0922  0.2827
  335PNCE   C1B 3003   6.344   6.998   7.987  0.5000 -0.1314 -0.1287
  335PNCE   C2B 3004   6.524   7.414   7.844  0.2591  0.0630  0.2428
  335PNCE   C3B 3005   6.419   7.750   7.441 -0.1221 -0.0101  0.0442
  335PNCE   D4B 3006   6.358   8.185   7.428  0.1973 -0.0664 -0.2315
  335PNCE   C5B 3007   6.450   8.541   7.086 -0.2123  0.2158  0.2374
  335PNCE   C6B 3008   6.451   8.533   6.575  0.1681  0.1985  0.2463
  336CHOL   ROH 3009   2.165  10.321   5.430 -0.0253 -0.1257 -0.1825
  336CHOL    R1 3010   1.913  10.450   5.437 -0.0336 -0.1418 -0.1923
  336CHOL    R2 3011   1.677  10.313   5.477 -0.0163 -0.1434 -0.0956
  336CHOL    R3 3012   1.645  10.493   5.678  0.0049 -0.0629 -0.1633
  336CHOL    R4 3013   1.405  10.324   5.691  0.1135 -0.2030  0.0751
  336CHOL    R5 3014   1.410  10.542   5.678 -0.0264 -0.2056 -0.0366
  336CHOL    C1 3015   1.217  10.500   6.004  0.2089 -0.1621  0.1110
  336CHOL    C2 3016   1.055  10.740   6.367  0.3214 -0.2155 -0.1280
  337XCA    COO 3017   8.539   8.588   8.884  0.1547  0.0534 -0.0592
  337XCA     C1 3018   8.324   8.412   8.455 -0.1995  0.5156 -0.1715
  337XCA     C2 3019   8.192   8.399   8.062  0.3295 -0.0378  0.2013
  337XCA     C3 3020   8.098   8.271   7.568 -0.1847  0.0497 -0.0017
  337XCA     C4 3021   7.989   8.421   7.140 -0.1919 -0.0663  0.1989
  337XCA     C5 3022   7.767   8.572   6.751 -0.2256  0.2573 -0.1229
  337XCA     C6 3023   7.398   8.750   6.574 -0.2090  0.0209  0.3629
  338PNCE   AM1 3024   1.084   3.264   8.175  0.2113 -0.2224 -0.2721
  338PNCE   AM2 3025   1.238   3.569   7.991 -0.1883 -0.1900 -0.1168
  338PNCE   T1A 3026   0.706   3.446   8.077 -0.1648  0.2765  0.0109
  338PNCE   C2A 3027   0.540   3.638   7.805 -0.2478  0.0877  0.1464
  338PNCE   C3A 3028   0.504   3.869   7.428  0.0385 -0.0501 -0.0097
  338PNCE   C1B 3029   1.365   3.839   7.637  0.1457  0.2507  0.0247
  338PNCE   C2B 3030   1.302   3.988   7.227  0.4621 -0.3159  0.1055
  338PNCE   C3B 3031   0.861   4.141   7.206 -0.2641 -0.3262 -0.0013
  338PNCE   D4B 3032   0.494   4.079   7.020  0.3500 -0.2488 -0.1253
  338PNCE   C5B 3033   0.316   3.766   6.917  0.0113  0.0714 -0.2108
  338PNCE   C6B 3034   0.452   3.397   7.116 -0.4656 -0.0676 -0.3310
  339CHOL   ROH 3035   2.365  14.655   8.143  0.1259  0.0131  0.2492
  339CHOL    R1 3036   2.412  14.564   7.880 -0.0645  0.2091  0.1446
  339CHOL    R2 3037   2.626  14.403   7.814 -0.0958  0.2786 -0.1361
  339CHOL    R3 3038   2.432  14.243   7.710 -0.1570  0.3326 -0.1065
  339CHOL    R4 3039   2.609  14.303   7.484  0.1994 -0.2446 -0.0045
  339CHOL    R5 3040   2.393  14.332   7.491  0.2161  0.0265 -0.3118
  339CHOL    C1 3041   2.418  14.094   7.194  0.3138 -0.4985  0.0999
  339CHOL    C2 3042   2.722  13.938   6.890  0.0566  0.0476  0.2039
  340PNCE   AM1 3043   4.724   9.432   8.765 -0.0037  0.3703  0.0582
  340PNCE   AM2 3044   4.709   9.698   8.670 -0.2036  0.0288  0.1639
  340PNCE   T1A 3045   4.467   9.467   8.315  0.0762 -0.2912  0.1333
  340PNCE   C2A 3046   4.246   9.719   8.059 -0.0713  0.0924  0.1205
  340PNCE   C3A 3047   4.023   9.955   8.365 -0.1772  0.2369  0.0338
  340PNCE   C1B 3048   4.890   9.774   8.315  0.0478 -0.0577 -0.0808
  340PNCE   C2B 3049   4.957   9.978   7.970  0.3943 -0.1031  0.0048
  340PNCE   C3B 3050   5.042  10.157   7.600  0.5143 -0.1173  0.1279
  340PNCE   D4B 3051   5.176  10.212   7.206  0.3641  0.0025  0.0034
  340PNCE   C5B 3052   5.603  10.261   7.277 -0.3497  0.1511 -0.1451
  340PNCE   C6B 3053   5.927  10.327   7.544  0.2505  0.0883 -0.1036
  341PNCE   AM1 3054  14.429   3.291   8.749  0.0843 -0.2830 -0.4578
  341PNCE   AM2 3055  14.349   2.987   8.546  0.0611  0.3345 -0.4379
  341PNCE   T1A 3056  14.757   3.613   8.614 -0.0959  0.1590  0.0894
  341PNCE   C2A 3057  15.044   3.970   8.693 -0.1365  0.2155  0.0665
  341PNCE   C3A 3058  15.120   4.300   8.532 -0.2158  0.2330 -0.0568
  341PNCE   C1B 3059  14.212   2.910   8.107 -0.2322 -0.0343  0.0917
  341PNCE   C2B 3060  14.152   3.068   7.681 -0.2263 -0.0231  0.2463
  341PNCE   C3B 3061  14.009   3.043   7.174  0.0792 -0.1410 -0.1118
  341PNCE   D4B 3062  14.029   3.145   6.769 -0.0128 -0.0189 -0.1083
  341PNCE   C5B 3063  14.207   2.875   6.476  0.1451  0.3298 -0.2515
  341PNCE   C6B 3064  14.308   2.478   6.692 -0.3223  0.0472 -0.3145
  342PNCE   AM1 3065   1.440   9.189   9.002 -0.2564 -0.0558  0.0162
  342PNCE   AM2 3066   1.433   9.014   8.733 -0.2521 -0.0151  0.0422
  342PNCE   T1A 3067   1.316   9.471   8.589 -0.1095 -0.0459  0.3703
  342PNCE   C2A 3068   1.268   9.861   8.327 -0.0655 -0.0971 -0.0272
  342PNCE   C3A 3069   1.415   9.984   8.044  0.1479  0.0164 -0.2361
  342PNCE   C1B 3070   1.054   8.944   8.480  0.0276  0.2866  0.0899
  342PNCE   C2B 3071   0.644   9.007   8.143 -0.3160 -0.0247 -0.0375
  342PNCE   C3B 3072   0.299   9.318   8.129 -0.3534  0.1171  0.0542
  342PNCE   D4B 3073   0.151   9.677   7.841  0.2881 -0.1649  0.1234
  342PNCE   C5B 3074  -0.172   9.495   7.643  0.2187 -0.2466  0.0641
  342PNCE   C6B 3075  -0.624   9.456   7.320  0.0232 -0.1935 -0.0233
  343CHOL   ROH 3076   4.953   1.930   5.534  0.0238  0.0618 -0.2461
  343CHOL    R1 3077   5.138   2.141   5.504  0.0591  0.0208 -0.3341
  343CHOL    R2 3078   5.284   2.243   5.716 -0.1900  0.3336 -0.2956
  343CHOL    R3 3079   5.496   2.188   5.555  0.0005  0.0846  0.0285
  343CHOL    R4 3080   5.558   2.449   5.674 -0.1698  0.2930 -0.3538
  343CHOL    R5 3081   5.555   2.400   5.462  0.0750 -0.0715 -0.2742
  343CHOL    C1 3082   5.916   2.518   5.498  0.0209  0.0355 -0.0834
  343CHOL    C2 3083   6.196   2.814   5.676  0.0430  0.0377  0.0681
  344CHOL   ROH 3084   5.583   9.126   8.424  0.1323  0.2723  0.0928
  344CHOL    R1 3085   5.576   9.255   8.173  0.0521  0.1467  0.0283
  344CHOL    R2 3086   5.677   9.510   8.134  0.0193  0.1398 -0.1271
  344CHOL    R3 3087   5.821   9.389   7.938 -0.0228  0.0525 -0.1035
  344CHOL    R4 3088   5.800   9.668   7.853  0.2851  0.0955 -0.0376
  344CHOL    R5 3089   5.745   9.492   7.736  0.1582  0.1811 -0.1053
  344CHOL    C1 3090   6.007   9.646   7.505  0.4005 -0.0123  0.0365
  344CHOL    C2 3091   5.963   9.930   7.327  0.0981  0.2377  0.1394
  345PNCE   AM1 3092  13.296   8.213   9.696  0.0428  0.3733  0.0471
  345PNCE   AM2 3093  13.073   8.011   9.675 -0.3402  0.1298 -0.4082
  345PNCE   T1A 3094  13.311   8.506   9.454  0.0022  0.1029  0.1357
  345PNCE   C2A 3095  13.479   8.530   9.031 -0.0145 -0.1367 -0.0612
  345PNCE   C3A 3096  13.443   8.569   8.611 -0.0201 -0.1441 -0.0237
  345PNCE   C1B 3097  12.915   8.169   9.315 -0.0769 -0.2305  0.0426
  345PNCE   C2B 3098  13.031   8.367   8.952  0.0391  0.0684 -0.4060
  345PNCE   C3B 3099  12.967   8.449   8.447  0.0089  0.0035  0.2427
  345PNCE   D4B 3100  13.104   8.480   8.027  0.2411 -0.0559 -0.3595
  345PNCE   C5B 3101  12.711   8.596   7.755  0.1326 -0.0993 -0.0687
  345PNCE   C6B 3102  12.687   8.818   7.363  0.1742 -0.1148 -0.3735
  346PNCE   AM1 3103  15.411  15.070   8.432  0.0106  0.0431 -0.1540
  346PNCE   AM2 3104  15.184  15.315   8.618 -0.1378  0.1072 -0.4168
  346PNCE   T1A 3105  15.275  15.176   7.976 -0.0631  0.1622  0.0699
  346PNCE   C2A 3106  14.993  14.987   7.583  0.0208 -0.0856 -0.1677
  346PNCE   C3A 3107  15.014  14.920   7.182 -0.1118 -0.2693  0.0777
  346PNCE   C1B 3108  15.293  15.672   8.186  0.0738 -0.1657 -0.1749
  346PNCE   C2B 3109  15.159  15.605   7.766 -0.1023  0.0397 -0.5029
  346PNCE   C3B 3110  15.276  15.829   7.371 -0.2699  0.0416 -0.0230
  346PNCE   D4B 3111  15.428  16.072   7.066 -0.0436  0.0003  0.1089
  346PNCE   C5B 3112  15.765  16.028   6.799 -0.1808  0.0640  0.0355
  346PNCE   C6B 3113  16.181  16.005   6.838  0.3802  0.4086 -0.2210
  347PNCE   AM1 3114   9.524   5.460   8.055 -0.1969  0.1972 -0.2429
  347PNCE   AM2 3115   9.348   5.665   7.843  0.0485 -0.2028 -0.0475
  347PNCE   T1A 3116   9.753   5.269   7.798  0.2439  0.0151  0.3200
  347PNCE   C2A 3117   9.919   5.077   7.468 -0.0221  0.0151  0.1807
  347PNCE   C3A 3118  10.099   5.228   7.115 -0.1489  0.0497 -0.1174
  347PNCE   C1B 3119   9.453   5.922   7.500  0.1935 -0.1925  0.0926
  347PNCE   C2B 3120   9.240   6.306   7.433  0.1197 -0.2402 -0.1040
  347PNCE   C3B 3121   9.429   6.750   7.399 -0.0857 -0.1391 -0.0325
  347PNCE   D4B 3122   9.692   7.151   7.121  0.0064 -0.3360  0.1992
  347PNCE   C5B 3123   9.600   7.166   6.695  0.0648 -0.3737  0.2332
  347PNCE   C6B 3124   9.457   7.521   6.436  0.3378  0.0792  0.2680
  348XCA    COO 3125   5.333   6.325   8.396  0.0613 -0.0661  0.0010
  348XCA     C1 3126   5.374   6.281   7.927 -0.2448 -0.0570  0.0916
  348XCA     C2 3127   5.369   6.072   7.487  0.2389  0.1357  0.3278
  348XCA     C3 3128   5.320   5.743   7.231 -0.0279 -0.0144 -0.0956
  348XCA     C4 3129   5.503   5.617   6.789  0.0017 -0.1756 -0.3519
  348XCA     C5 3130   5.909   5.545   6.706  0.4320  0.0149 -0.2410
  348XCA     C6 3131   6.230   5.671   6.437  0.2492  0.1333 -0.1961
  349XCA    COO 3132   8.044   6.262   8.063 -0.1716 -0.4010  0.0720
  349XCA     C1 3133   7.910   6.606   7.777 -0.0008 -0.1658  0.0317
  349XCA     C2 3134   7.817   7.085   7.532 -0.4279  0.1195 -0.0196
  349XCA     C3 3135   7.851   7.440   7.259 -0.1589 -0.1161 -0.0792
  349XCA     C4 3136   8.089   7.780   7.183 -0.1578 -0.1208  0.1525
  349XCA     C5 3137   8.267   8.023   7.068  0.0593 -0.0871  0.1544
  349XCA     C6 3138   8.341   8.315   6.654 -0.2250  0.0044 -0.1314
  350XCA    COO 3139  13.816   2.670   8.509 -0.0313 -0.2650  0.0332
  350XCA     C1 3140  13.611   2.780   8.186 -0.1088 -0.3960 -0.0582
  350XCA     C2 3141  13.669   2.763   7.738 -0.1043  0.2180  0.1873
  350XCA     C3 3142  13.507   2.662   7.343 -0.0652  0.0705 -0.0128
  350XCA     C4 3143  13.586   2.881   6.886  0.0343  0.3357 -0.4158
  350XCA     C5 3144  13.614   2.874   6.389  0.1836  0.2030  0.0571
  350XCA     C6 3145  13.920   2.982   6.045 -0.0339 -0.1012  0.2124
  351CHOL   ROH 3146   9.150   0.739   5.104  0.1259  0.1252  0.0012
  351CHOL    R1 3147   9.141   0.797   5.381  0.0006  0.0950  0.0043
  351CHOL    R2 3148   9.254   0.633   5.571 -0.0377  0.0993  0.0361
  351CHOL    R3 3149   9.381   0.861   5.647 -0.1194  0.1217  0.1062
  351CHOL    R4 3150   9.379   0.694   5.888  0.1023 -0.0207  0.0047
  351CHOL    R5 3151   9.307   0.899   5.871 -0.0159 -0.0515  0.1686
  351CHOL    C1 3152   9.571   0.943   6.143  0.1071 -0.0696  0.0523
  351CHOL    C2 3153   9.873   0.963   6.247 -0.1451  0.0406  0.0005
  352PNCE   AM1 3154   9.711   1.658   8.497  0.1405  0.2063 -0.0688
  352PNCE   AM2 3155   9.938   1.854   8.282 -0.2539  0.1668 -0.0884
  352PNCE   T1A 3156   9.662   1.456   8.079  0.0684  0.1756 -0.2176
  352PNCE   C2A 3157   9.654   1.410   7.639 -0.0055 -0.0415  0.2945
  352PNCE   C3A 3158   9.838   1.363   7.233  0.0542 -0.1740 -0.2388
  352PNCE   C1B 3159  10.155   1.496   8.198  0.0242  0.1950 -0.2015
  352PNCE   C2B 3160  10.225   1.191   7.982 -0.2362 -0.0160 -0.0500
  352PNCE   C3B 3161  10.356   1.094   7.595  0.3888 -0.2388 -0.0090
  352PNCE   D4B 3162  10.444   1.063   7.264  0.0304  0.0658  0.0984
  352PNCE   C5B 3163  10.267   1.125   6.877 -0.4026  0.0469 -0.0750
  352PNCE   C6B 3164   9.963   1.307   6.617  0.0821  0.0869 -0.1883
  353PNCE   AM1 3165   7.077  14.741   8.792  0.2796  0.0682 -0.1242
  353PNCE   AM2 3166   7.304  14.922   8.591 -0.1811  0.0150  0.1293
  353PNCE   T1A 3167   6.982  14.536   8.390 -0.2455  0.1272 -0.1450
  353PNCE   C2A 3168   6.954  14.358   7.957 -0.0856  0.0356  0.1777
  353PNCE   C3A 3169   6.899  14.146   7.557 -0.0365 -0.1567 -0.1094
  353PNCE   C1B 3170   7.335  14.962   8.142  0.3168  0.1748  0.1252
  353PNCE   C2B 3171   7.387  14.548   7.838 -0.1422 -0.1724 -0.1307
  353PNCE   C3B 3172   7.501  14.315   7.538 -0.0932 -0.2326  0.3359
  353PNCE   D4B 3173   7.485  14.095   7.231  0.2946 -0.2781 -0.3562
  353PNCE   C5B 3174   7.854  13.916   7.116  0.2267 -0.3050 -0.2202
  353PNCE   C6B 3175   8.208  13.496   7.099 -0.5174 -0.0615 -0.0756
  354PNCE   AM1 3176   5.261  12.823   9.312  0.2202 -0.0839 -0.0086
  354PNCE   AM2 3177   5.355  12.438   9.262 -0.3086 -0.1465  0.0002
  354PNCE   T1A 3178   5.034  12.788   9.032  0.2860  0.1528 -0.0704
  354PNCE   C2A 3179   4.957  12.596   8.558 -0.0092 -0.4073 -0.0578
  354PNCE   C3A 3180   5.161  12.253   8.497  0.2703  0.2943  0.0214
  354PNCE   C1B 3181   5.466  12.579   8.837 -0.0803  0.2174 -0.1277
  354PNCE   C2B 3182   5.448  12.626   8.352  0.0113  0.0395  0.0447
  354PNCE   C3B 3183   5.459  12.277   8.108  0.1355 -0.1233  0.1909
  354PNCE   D4B 3184   5.744  12.290   7.764  0.0600  0.0067  0.0694
  354PNCE   C5B 3185   6.127  12.260   7.826 -0.3096 -0.1541  0.1911
  354PNCE   C6B 3186   6.450  12.324   7.517 -0.0163 -0.2107  0.2987
  355XCA    COO 3187   2.939  11.200   9.292 -0.1662  0.2429  0.1248
  355XCA     C1 3188   2.987  11.461   8.921  0.0040 -0.1554  0.2116
  355XCA     C2 3189   3.066  11.442   8.498 -0.1730  0.0949 -0.1023
  355XCA     C3 3190   3.011  11.431   8.111 -0.0477  0.0537 -0.2464
  355XCA     C4 3191   3.061  11.653   7.754  0.1573 -0.1288 -0.0149
  355XCA     C5 3192   3.095  11.724   7.349 -0.0659 -0.1170 -0.2846
  355XCA     C6 3193   3.383  11.673   6.986 -0.2390 -0.1881 -0.0788
  356CHOL   ROH 3194  10.670   3.853   8.584 -0.1158  0.1675 -0.0425
  356CHOL    R1 3195  10.619   3.929   8.316 -0.3110  0.1146 -0.0237
  356CHOL    R2 3196  10.442   4.130   8.249 -0.0453  0.4058  0.0933
  356CHOL    R3 3197  10.656   4.230   8.114 -0.0150 -0.0487 -0.2180
  356CHOL    R4 3198  10.423   4.308   7.953 -0.0730  0.3491  0.0618
  356CHOL    R5 3199  10.600   4.200   7.883 -0.3675 -0.0161 -0.1371
  356CHOL    C1 3200  10.613   4.506   7.654 -0.0606 -0.1107 -0.2487
  356CHOL    C2 3201  10.888   4.770   7.468 -0.2523 -0.1522  0.0584
  357PNCE   AM1 3202   6.639   9.843   9.160  0.2144  0.1605 -0.2416
  357PNCE   AM2 3203   6.428   9.654   9.034 -0.0943  0.2178  0.1320
  357PNCE   T1A 3204   6.818   9.966   8.864  0.0159 -0.1422 -0.1687
  357PNCE   C2A 3205   7.112   9.994   8.533 -0.1241  0.3658 -0.1801
  357PNCE   C3A 3206   7.158  10.172   8.079  0.1551  0.3025  0.0723
  357PNCE   C1B 3207   6.544   9.517   8.598  0.0214  0.0842 -0.0569
  357PNCE   C2B 3208   6.633   9.377   8.151 -0.2336  0.0918 -0.2700
  357PNCE   C3B 3209   6.874   9.450   7.803 -0.0926 -0.0275 -0.0078
  357PNCE   D4B 3210   6.697   9.314   7.367  0.0199  0.1267  0.3181
  357PNCE   C5B 3211   6.282   9.323   7.316  0.0895  0.2425 -0.1728
  357PNCE   C6B 3212   6.015   9.117   7.578 -0.3697  0.2683  0.2128
  358CHOL   ROH 3213  10.538   4.543   4.748  0.1470 -0.2839 -0.0255
  358CHOL    R1 3214  10.542   4.401   4.993 -0.0504 -0.0589  0.1122
  358CHOL    R2 3215  10.317   4.368   5.150 -0.2562 -0.1966 -0.2128
  358CHOL    R3 3216  10.380   4.105   5.128  0.1123 -0.1457  0.1248
  358CHOL    R4 3217  10.206   4.120   5.363 -0.3478 -0.1363 -0.1889
  358CHOL    R5 3218  10.404   4.031   5.355 -0.2048  0.0906  0.2489
  358CHOL    C1 3219  10.200   3.729   5.468 -0.0551 -0.0535  0.1420
  358CHOL    C2 3220   9.972   3.459   5.465  0.2622  0.1894  0.1140
  359XCA    COO 3221  11.412  13.005   5.348  0.0638 -0.0945  0.0355
  359XCA     C1 3222  11.304  12.631   5.563  0.3107 -0.0029 -0.3478
  359XCA     C2 3223  11.053  12.461   5.836  0.1821  0.1488  0.0386
  359XCA     C3 3224  10.794  12.404   6.200  0.4101  0.3287  0.2147
  359XCA     C4 3225  10.621  12.632   6.497 -0.2218 -0.0696  0.2060
  359XCA     C5 3226  10.285  12.777   6.749 -0.0260 -0.1340  0.0523
  359XCA     C6 3227  10.222  12.949   7.052  0.0588 -0.1911 -0.0982
  360PNCE   AM1 3228   0.036   7.614   8.650 -0.0491 -0.0240  0.0750
  360PNCE   AM2 3229   0.089   7.303   8.434  0.1548 -0.2228 -0.0614
  360PNCE   T1A 3230   0.281   7.850   8.331  0.1184  0.2597 -0.1514
  360PNCE   C2A 3231   0.508   8.090   8.012  0.1538  0.4026 -0.2298
  360PNCE   C3A 3232   0.475   8.020   7.549 -0.1992  0.0964 -0.0349
  360PNCE   C1B 3233   0.315   7.444   8.021  0.0900 -0.0911 -0.1005
  360PNCE   C2B 3234   0.549   7.531   7.618  0.1293  0.0644  0.1765
  360PNCE   C3B 3235   0.976   7.801   7.413  0.2559  0.3610 -0.3934
  360PNCE   D4B 3236   1.044   7.993   7.044  0.0776 -0.1984  0.0503
  360PNCE   C5B 3237   1.073   7.896   6.599  0.2005  0.0805  0.0700
  360PNCE   C6B 3238   1.096   7.648   6.184  0.2825  0.2642  0.2089
  361XCA    COO 3239  13.614   0.292   8.436  0.2359 -0.4085 -0.2825
  361XCA     C1 3240  13.374   0.211   8.037  0.1019 -0.0085  0.3264
  361XCA     C2 3241  13.226   0.383   7.617  0.2462 -0.1331  0.1197
  361XCA     C3 3242  13.087   0.245   7.306 -0.0791 -0.0942 -0.0908
  361XCA     C4 3243  13.205  -0.031   7.014  0.2079  0.3447 -0.0146
  361XCA     C5 3244  13.448  -0.290   6.823  0.0064  0.0046 -0.0478
  361XCA     C6 3245  13.808  -0.385   6.603 -0.1540  0.0252  0.2193
  362CHOL   ROH 3246  11.512   7.183   9.423 -0.2987  0.1197 -0.0093
  362CHOL    R1 3247  11.544   7.055   9.173 -0.1005  0.0865  0.0306
  362CHOL    R2 3248  11.332   6.951   9.030  0.0302 -0.1016 -0.0401
  362CHOL    R3 3249  11.429   7.110   8.832  0.0008 -0.0697 -0.0280
  362CHOL    R4 3250  11.253   6.919   8.695 -0.0931  0.0283 -0.0240
  362CHOL    R5 3251  11.462   6.961   8.647 -0.1048 -0.0154 -0.0856
  362CHOL    C1 3252  11.299   7.050   8.314 -0.1925  0.1339 -0.0034
  362CHOL    C2 3253  11.198   6.905   7.950 -0.2038 -0.1969  0.2044
  363CHOL   ROH 3254  14.105   9.056   5.554  0.2842  0.0501  0.1873
  363CHOL    R1 3255  14.070   8.983   5.825  0.2501 -0.0843  0.1476
  363CHOL    R2 3256  13.820   8.961   5.942  0.2423  0.0626  0.1579
  363CHOL    R3 3257  13.909   8.713   6.008  0.0327 -0.0579  0.0003
  363CHOL    R4 3258  13.734   8.791   6.230  0.3261  0.0769  0.1922
  363CHOL    R5 3259  13.940   8.723   6.246  0.2698 -0.1582 -0.0233
  363CHOL    C1 3260  13.766   8.459   6.460  0.1782 -0.0282  0.0641
  363CHOL    C2 3261  13.918   8.488   6.731 -0.2075  0.2309  0.0929
  364CHOL   ROH 3262  11.185   0.523   5.139  0.0168 -0.0020  0.1077
  364CHOL    R1 3263  11.272   0.600   5.397  0.0717 -0.0207  0.0961
  364CHOL    R2 3264  11.096   0.653   5.604  0.1102  0.0287  0.1233
  364CHOL    R3 3265  11.247   0.468   5.735  0.0801 -0.0113  0.0990
  364CHOL    R4 3266  11.074   0.582   5.942  0.1371  0.0161  0.1215
  364CHOL    R5 3267  11.291   0.567   5.948  0.1293 -0.0358  0.0962
  364CHOL    C1 3268  11.202   0.368   6.261  0.1244 -0.0287  0.0976
  364CHOL    C2 3269  11.291   0.208   6.571 -0.1353 -0.1723  0.0939
  365CHOL   ROH 3270   3.514   5.130   7.528  0.0291  0.0018 -0.1194
  365CHOL    R1 3271   3.264   5.070   7.411  0.0073 -0.0062 -0.0675
  365CHOL    R2 3272   3.024   5.131   7.534  0.0326  0.0772 -0.0643
  365CHOL    R3 3273   2.973   5.258   7.299  0.0217 -0.0070 -0.1085
  365CHOL    R4 3274   2.716   5.139   7.378 -0.0249  0.1847  0.0513
  365CHOL    R5 3275   2.818   5.114   7.186 -0.1107  0.0272  0.0219
  365CHOL    C1 3276   2.488   5.263   7.066 -0.0686  0.1683  0.0771
  365CHOL    C2 3277   2.376   5.513   6.863  0.0351  0.1872 -0.0918
  366PNCE   AM1 3278  11.268  15.046   9.704  0.1058  0.1630  0.2629
  366PNCE   AM2 3279  11.364  14.812   9.942 -0.0214  0.1251 -0.1915
  366PNCE   T1A 3280  11.223  15.016   9.221 -0.0122  0.0209  0.0164
  366PNCE   C2A 3281  11.204  15.318   8.879  0.1032  0.1554 -0.0996
  366PNCE   C3A 3282  11.042  15.351   8.484 -0.0029  0.1759  0.2200
  366PNCE   C1B 3283  11.280  14.528   9.589 -0.0431  0.0598 -0.0527
  366PNCE   C2B 3284  11.169  14.143   9.260 -0.0111 -0.4162  0.0692
  366PNCE   C3B 3285  11.093  13.833   8.918  0.0081  0.0983 -0.4532
  366PNCE   D4B 3286  10.805  13.675   8.605 -0.1397  0.3575  0.2126
  366PNCE   C5B 3287  10.838  13.478   8.164 -0.4213  0.1413  0.0819
  366PNCE   C6B 3288  11.170  13.350   7.864  0.0040  0.0743  0.0968
  367CHOL   ROH 3289  12.766  10.101   6.201 -0.0875  0.0710 -0.0467
  367CHOL    R1 3290  13.005  10.229   6.284 -0.0821  0.0496 -0.0276
  367CHOL    R2 3291  13.076  10.254   6.550 -0.0741 -0.0033 -0.0221
  367CHOL    R3 3292  13.305  10.135   6.466 -0.0811  0.0057 -0.0531
  367CHOL    R4 3293  13.391  10.324   6.673 -0.0751 -0.0960  0.0329
  367CHOL    R5 3294  13.468  10.311   6.470 -0.0599 -0.0177  0.0357
  367CHOL    C1 3295  13.790  10.253   6.667 -0.0822 -0.1414  0.0359
  367CHOL    C2 3296  14.092  10.334   6.715  0.1043 -0.3976 -0.0362
  368CHOL   ROH 3297   2.498   3.295   4.375  0.1261  0.3078  0.0307
  368CHOL    R1 3298   2.680   3.190   4.564  0.1747  0.3372  0.0027
  368CHOL    R2 3299   2.856   3.349   4.706  0.0717  0.3865  0.0888
  368CHOL    R3 3300   2.742   3.227   4.921  0.1192  0.2280  0.0226
  368CHOL    R4 3301   2.964   3.383   5.033 -0.0729  0.4150  0.1324
  368CHOL    R5 3302   2.927   3.170   5.062  0.1241  0.3759  0.0711
  368CHOL    C1 3303   2.920   3.288   5.424 -0.1125  0.2828  0.0956
  368CHOL    C2 3304   3.148   3.439   5.496 -0.1529  0.2923 -0.2355
  369PNCE   AM1 3305   0.640   1.629   8.316 -0.0839  0.1174 -0.0673
  369PNCE   AM2 3306   0.368   1.674   8.408  0.0163 -0.0479 -0.0497
  369PNCE   T1A 3307   0.883   1.454   7.966 -0.3495 -0.2486 -0.2012
  369PNCE   C2A 3308   0.919   1.457   7.482  0.1021 -0.2991 -0.3776
  369PNCE   C3A 3309   0.933   1.505   7.041  0.0047 -0.1554  0.1330
  369PNCE   C1B 3310   0.259   1.506   8.005  0.0529  0.1232  0.3238
  369PNCE   C2B 3311  -0.089   1.136   7.954 -0.2004  0.3820  0.0513
  369PNCE   C3B 3312  -0.058   0.714   7.824 -0.2901  0.0727  0.3092
  369PNCE   D4B 3313  -0.232   0.530   7.576 -0.2246  0.0829  0.0437
  369PNCE   C5B 3314  -0.604   0.592   7.426  0.0196  0.0570  0.3268
  369PNCE   C6B 3315  -0.782   0.589   7.031 -0.0426  0.0117 -0.2034
  370PNCE   AM1 3316  14.151   3.439   8.317 -0.1676 -0.2293 -0.0451
  370PNCE   AM2 3317  14.413   3.389   8.260 -0.1854 -0.1170  0.0663
  370PNCE   T1A 3318  13.859   3.308   8.071  0.1425  0.2693 -0.2602
  370PNCE   C2A 3319  13.488   3.281   7.966  0.1421 -0.1958  0.0994
  370PNCE   C3A 3320  13.193   2.961   7.777  0.0751 -0.2037  0.3080
  370PNCE   C1B 3321  14.336   3.570   7.900  0.1494 -0.0119  0.0906
  370PNCE   C2B 3322  14.427   3.813   7.699 -0.1506 -0.0563  0.0838
  370PNCE   C3B 3323  14.379   4.120   7.349 -0.3782 -0.0097 -0.0569
  370PNCE   D4B 3324  14.030   4.025   7.000  0.0512  0.2250 -0.0887
  370PNCE   C5B 3325  13.654   3.911   7.188 -0.2470 -0.0115  0.1518
  370PNCE   C6B 3326  13.146   3.836   7.156 -0.4861  0.0767 -0.2090
  371CHOL   ROH 3327  15.463   8.667   4.822 -0.0267  0.0990  0.1025
  371CHOL    R1 3328  15.520   8.712   5.095 -0.0412  0.0588  0.1126
  371CHOL    R2 3329  15.324   8.774   5.280 -0.0675 -0.0792  0.1346
  371CHOL    R3 3330  15.428   8.561   5.414  0.0376 -0.0643  0.0769
  371CHOL    R4 3331  15.300   8.723   5.621 -0.0688 -0.2029  0.1164
  371CHOL    R5 3332  15.506   8.653   5.621 -0.0313 -0.0889  0.1122
  371CHOL    C1 3333  15.383   8.494   5.945  0.0289 -0.2610  0.0516
  371CHOL    C2 3334  15.570   8.693   6.214  0.0016  0.0098 -0.1718
  372CHOL   ROH 3335   7.989   1.555   3.879 -0.0590 -0.1152 -0.0386
  372CHOL    R1 3336   8.187   1.634   4.066 -0.0609  0.0838 -0.1178
  372CHOL    R2 3337   8.140   1.824   4.261 -0.1681  0.0514 -0.1091
  372CHOL    R3 3338   8.227   1.627   4.428  0.0828  0.1398 -0.1323
  372CHOL    R4 3339   8.238   1.871   4.589 -0.0656  0.1605 -0.1551
  372CHOL    R5 3340   8.401   1.730   4.556  0.0475  0.3047 -0.2155
  372CHOL    C1 3341   8.377   1.714   4.936  0.2297  0.3071 -0.2036
  372CHOL    C2 3342   8.228   1.741   5.269  0.0403 -0.0160  0.1398
  373CHOL   ROH 3343   9.341   5.532   4.394  0.0890 -0.3569 -0.0740
  373CHOL    R1 3344   9.295   5.334   4.591 -0.0657 -0.2591 -0.0093
  373CHOL    R2 3345   9.247   5.395   4.856  0.0433 -0.1370 -0.0180
  373CHOL    R3 3346   9.025   5.242   4.817 -0.1132  0.0632  0.0702
  373CHOL    R4 3347   9.021   5.308   5.103  0.3433 -0.3485  0.1891
  373CHOL    R5 3348   9.009   5.109   5.015  0.0923 -0.2197 -0.0946
  373CHOL    C1 3349   8.682   5.115   5.210  0.3712 -0.2836  0.3924
  373CHOL    C2 3350   8.664   4.794   5.446 -0.0227  0.0270 -0.3710
  374XCA    COO 3351  15.306   9.569   9.180  0.0332  0.0920  0.0775
  374XCA     C1 3352  15.168   9.475   8.810 -0.1662  0.1298  0.0470
  374XCA     C2 3353  15.209   9.362   8.379  0.2421 -0.2859  0.0499
  374XCA     C3 3354  15.129   9.301   7.879 -0.3547  0.1914 -0.1876
  374XCA     C4 3355  15.286   9.041   7.556  0.2254  0.0152 -0.0407
  374XCA     C5 3356  15.200   8.982   7.115 -0.0621  0.0629 -0.0933
  374XCA     C6 3357  15.118   8.543   6.872  0.1300 -0.1736  0.3293
  375CHOL   ROH 3358   5.303   1.026   4.354 -0.0620  0.1718  0.1508
  375CHOL    R1 3359   5.380   1.231   4.533 -0.0568  0.1179  0.2105
  375CHOL    R2 3360   5.497   1.179   4.778  0.0567  0.0462  0.1413
  375CHOL    R3 3361   5.690   1.345   4.685 -0.0323  0.1494  0.1380
  375CHOL    R4 3362   5.589   1.476   4.928 -0.1417  0.1275  0.1056
  375CHOL    R5 3363   5.605   1.565   4.729 -0.1718  0.1061  0.0927
  375CHOL    C1 3364   5.824   1.806   4.929 -0.3409  0.2717  0.0819
  375CHOL    C2 3365   5.767   2.231   4.817 -0.2499  0.1731  0.0369
  376PNCE   AM1 3366  15.587   8.824   9.291  0.0376 -0.0597  0.0929
  376PNCE   AM2 3367  15.740   8.477   9.120  0.2678  0.0501  0.0165
  376PNCE   T1A 3368  15.375   9.025   8.939 -0.2169  0.1026 -0.0620
  376PNCE   C2A 3369  14.967   9.018   8.697  0.1125  0.2425  0.0905
  376PNCE   C3A 3370  14.466   8.939   8.801  0.0568 -0.1003  0.2487
  376PNCE   C1B 3371  15.639   8.589   8.792 -0.2004  0.0637  0.1377
  376PNCE   C2B 3372  15.473   8.814   8.408 -0.0642  0.0841  0.1003
  376PNCE   C3B 3373  15.043   8.827   8.204 -0.0275 -0.0298  0.0823
  376PNCE   D4B 3374  14.657   8.866   8.348  0.2257  0.1440  0.3628
  376PNCE   C5B 3375  14.301   9.032   8.174  0.4557 -0.3319 -0.3158
  376PNCE   C6B 3376  13.901   8.979   7.988 -0.1285  0.0909 -0.1062
  377XCA    COO 3377   6.935  14.195   8.767 -0.0666 -0.0832 -0.1079
  377XCA     C1 3378   6.704  14.105   8.277 -0.1797 -0.1903  0.0691
  377XCA     C2 3379   6.833  13.819   7.890  0.2549 -0.0295 -0.0306
  377XCA     C3 3380   6.876  13.461   7.582  0.0415  0.2619  0.0971
  377XCA     C4 3381   6.834  13.217   7.230  0.1582 -0.1199  0.0390
  377XCA     C5 3382   6.977  12.822   7.250 -0.2931  0.2171 -0.0721
  377XCA     C6 3383   7.213  12.466   7.287 -0.1633  0.3261  0.0922
  378PNCE   AM1 3384   7.203  13.012   9.130 -0.3376 -0.0093 -0.0892
  378PNCE   AM2 3385   7.576  13.061   9.148  0.1977  0.0540  0.2306
  378PNCE   T1A 3386   7.118  13.209   8.640 -0.0441  0.0587 -0.1216
  378PNCE   C2A 3387   7.186  13.041   8.289  0.0039  0.1872 -0.0757
  378PNCE   C3A 3388   7.450  12.917   7.910 -0.0561  0.0681  0.0576
  378PNCE   C1B 3389   7.960  12.721   9.028 -0.0751  0.0953  0.1067
  378PNCE   C2B 3390   8.164  12.703   8.672  0.0528  0.1848 -0.2155
  378PNCE   C3B 3391   8.361  12.979   8.469 -0.0193  0.4041 -0.0552
  378PNCE   D4B 3392   8.399  13.029   8.024 -0.3156  0.0919 -0.0737
  378PNCE   C5B 3393   8.777  12.657   7.833 -0.1596  0.0127 -0.0285
  378PNCE   C6B 3394   9.100  12.381   7.585 -0.3582  0.0886 -0.4162
  379CHOL   ROH 3395  10.050   8.631   5.466  0.1017 -0.1369  0.0234
  379CHOL    R1 3396   9.927   8.686   5.715  0.1500 -0.1055  0.0410
  379CHOL    R2 3397   9.676   8.592   5.781  0.0561  0.1063  0.0061
  379CHOL    R3 3398   9.805   8.492   5.998 -0.0345 -0.0908 -0.0286
  379CHOL    R4 3399   9.522   8.498   6.075 -0.0340  0.0469 -0.0597
  379CHOL    R5 3400   9.688   8.587   6.185  0.0068 -0.1177  0.0072
  379CHOL    C1 3401   9.553   8.350   6.451 -0.1715 -0.1727 -0.1306
  379CHOL    C2 3402   9.294   8.070   6.581  0.1820  0.1856 -0.0655
  380CHOL   ROH 3403   2.956   3.314   3.932  0.1267  0.1176  0.0674
  380CHOL    R1 3404   3.078   3.128   4.108  0.1510  0.1909  0.1284
  380CHOL    R2 3405   3.116   3.180   4.376 -0.2338  0.1214  0.2003
  380CHOL    R3 3406   2.982   2.945   4.407  0.0180 -0.0634 -0.0657
  380CHOL    R4 3407   3.105   2.996   4.669 -0.3467 -0.0264  0.1050
  380CHOL    R5 3408   3.124   2.815   4.550  0.0185  0.0480  0.0383
  380CHOL    C1 3409   2.973   2.668   4.868 -0.1760 -0.2859 -0.2002
  380CHOL    C2 3410   2.934   2.492   5.215  0.2286  0.2126  0.1886
  381CHOL   ROH 3411  13.468   3.812   5.214  0.0617 -0.3001  0.0633
  381CHOL    R1 3412  13.592   3.854   5.465  0.1499 -0.1863  0.0054
  381CHOL    R2 3413  13.477   4.007   5.665  0.1896 -0.1249  0.0103
  381CHOL    R3 3414  13.516   3.782   5.813  0.2805 -0.0789  0.0504
  381CHOL    R4 3415  13.487   3.996   6.010  0.1989 -0.1035  0.0082
  381CHOL    R5 3416  13.651   3.854   5.997  0.2386 -0.0228  0.0362
  381CHOL    C1 3417  13.530   3.780   6.350  0.2895 -0.0479  0.0447
  381CHOL    C2 3418  13.679   4.133   6.626 -0.2084 -0.1682  0.1266
  382PNCE   AM1 3419  14.535   4.517   4.886 -0.1685  0.0680 -0.0534
  382PNCE   AM2 3420  14.652   4.757   5.085 -0.0595  0.0511 -0.0438
  382PNCE   T1A 3421  14.696   4.377   5.356 -0.1708  0.1568  0.1950
  382PNCE   C2A 3422  14.890   4.144   5.684 -0.4033  0.2068 -0.3166
  382PNCE   C3A 3423  14.881   4.043   6.057 -0.1711 -0.1404 -0.0057
  382PNCE   C1B 3424  15.075   4.709   5.255  0.2264 -0.0475 -0.2819
  382PNCE   C2B 3425  15.263   4.934   5.581  0.0802 -0.3416 -0.3435
  382PNCE   C3B 3426  15.599   4.897   5.825  0.0737 -0.3022  0.1426
  382PNCE   D4B 3427  15.795   5.165   6.127 -0.0269 -0.4385  0.0695
  382PNCE   C5B 3428  15.813   5.488   6.424  0.0984  0.0989  0.1889
  382PNCE   C6B 3429  15.788   5.898   6.323 -0.2522  0.0599 -0.0753
  383PNCE   AM1 3430  10.548   0.458   9.139  0.1914 -0.3515 -0.0722
  383PNCE   AM2 3431  10.849   0.663   9.252  0.0169 -0.3076 -0.1488
  383PNCE   T1A 3432  10.663   0.177   8.809  0.3003 -0.1914 -0.0788
  383PNCE   C2A 3433  10.686  -0.088   8.343 -0.2409  0.1384 -0.2077
  383PNCE   C3A 3434  10.960  -0.294   8.010 -0.1553 -0.1004 -0.2019
  383PNCE   C1B 3435  11.003   0.516   8.916 -0.0927 -0.0628 -0.1743
  383PNCE   C2B 3436  11.269   0.566   8.458 -0.2125 -0.1119  0.2528
  383PNCE   C3B 3437  11.488   0.957   8.380  0.4672  0.0202 -0.0754
  383PNCE   D4B 3438  11.770   1.289   8.123  0.2238 -0.4707  0.1842
  383PNCE   C5B 3439  12.250   1.261   8.098 -0.0260 -0.0860  0.0122
  383PNCE   C6B 3440  12.543   1.392   7.881 -0.1839  0.2328  0.0523
  384PNCE   AM1 3441  11.781   9.075  10.108  0.0024  0.2059  0.0644
  384PNCE   AM2 3442  11.994   9.181  10.053 -0.1418  0.1497  0.3420
  384PNCE   T1A 3443  11.452   8.905   9.797  0.0884 -0.2586  0.2761
  384PNCE   C2A 3444  11.027   8.927   9.675 -0.0179 -0.0206 -0.0176
  384PNCE   C3A 3445  10.763   8.604   9.629  0.0847 -0.0202  0.0654
  384PNCE   C1B 3446  11.796   9.419   9.675 -0.0317 -0.1200  0.1342
  384PNCE   C2B 3447  11.529   9.483   9.272  0.0342 -0.0169  0.0843
  384PNCE   C3B 3448  11.380   9.581   8.896 -0.1099 -0.1885 -0.0098
  384PNCE   D4B 3449  11.246   9.489   8.538  0.2802 -0.1495  0.0410
  384PNCE   C5B 3450  11.265   9.752   8.258 -0.0749  0.2450 -0.0110
  384PNCE   C6B 3451  11.179  10.155   8.154  0.0494  0.0678  0.1054
  385CHOL   ROH 3452   5.137  14.651   7.137  0.0295 -0.0269  0.0142
  385CHOL    R1 3453   4.891  14.616   7.002  0.0681 -0.0604 -0.0460
  385CHOL    R2 3454   4.749  14.827   6.895 -0.0138 -0.0629  0.0643
  385CHOL    R3 3455   4.762  14.679   6.667  0.0897  0.0849 -0.0283
  385CHOL    R4 3456   4.520  14.842   6.636 -0.0334 -0.0688  0.0804
  385CHOL    R5 3457   4.534  14.625   6.618  0.1247 -0.0517 -0.0535
  385CHOL    C1 3458   4.399  14.712   6.272  0.0524  0.0666  0.0028
  385CHOL    C2 3459   4.116  14.866   6.003 -0.1806 -0.0809  0.0250
  386PNCE   AM1 3460   3.691  13.251   8.969 -0.1442  0.0905 -0.2271
  386PNCE   AM2 3461   3.882  13.575   8.917  0.1161  0.3233  0.1718
  386PNCE   T1A 3462   3.637  12.883   8.705 -0.0346 -0.3039 -0.2412
  386PNCE   C2A 3463   3.809  12.604   8.398 -0.1374  0.1855  0.0317
  386PNCE   C3A 3464   3.731  12.600   8.042 -0.0409  0.0340 -0.0739
  386PNCE   C1B 3465   3.950  13.411   8.518 -0.1164 -0.3972 -0.0421
  386PNCE   C2B 3466   3.969  13.188   8.207  0.2088 -0.0320  0.0538
  386PNCE   C3B 3467   3.868  13.004   7.899  0.1612 -0.0928  0.0226
  386PNCE   D4B 3468   3.767  12.995   7.657 -0.5115 -0.1817 -0.0040
  386PNCE   C5B 3469   3.632  13.112   7.164 -0.1166 -0.0889 -0.1947
  386PNCE   C6B 3470   3.335  13.233   6.967 -0.3379 -0.0399 -0.0658
  387CHOL   ROH 3471   1.734  10.511   8.807  0.1836 -0.0489  0.0342
  387CHOL    R1 3472   1.543  10.385   8.641  0.1280 -0.0355  0.0878
  387CHOL    R2 3473   1.328  10.520   8.532  0.1411 -0.0060  0.0988
  387CHOL    R3 3474   1.425  10.421   8.298  0.0809 -0.0701  0.1002
  387CHOL    R4 3475   1.214  10.608   8.218  0.1899  0.0525  0.0972
  387CHOL    R5 3476   1.232  10.399   8.158  0.0661  0.0395  0.1026
  387CHOL    C1 3477   1.239  10.567   7.815  0.1617  0.0262  0.0975
  387CHOL    C2 3478   1.163  10.771   7.565  0.1033  0.0962 -0.1617
  388CHOL   ROH 3479  10.293   1.854   7.981  0.2025 -0.1329  0.2889
  388CHOL    R1 3480  10.543   1.971   7.921  0.1532 -0.1507  0.0379
  388CHOL    R2 3481  10.706   1.878   7.718 -0.0728 -0.1353 -0.1565
  388CHOL    R3 3482  10.695   2.137   7.635 -0.1367 -0.1204 -0.1020
  388CHOL    R4 3483  10.884   2.007   7.451  0.2072  0.0577  0.1161
  388CHOL    R5 3484  10.920   2.187   7.568 -0.0764  0.0533  0.2165
  388CHOL    C1 3485  10.977   2.324   7.217  0.3104  0.1840  0.3261
  388CHOL    C2 3486  11.096   2.552   6.927 -0.2841  0.1141 -0.0027
  389PNCE   AM1 3487   5.971   7.862   4.720  0.1393 -0.0266 -0.1907
  389PNCE   AM2 3488   5.778   7.633   4.857  0.0483 -0.0898  0.4306
  389PNCE   T1A 3489   6.195   7.912   5.036  0.1550 -0.0990  0.1656
  389PNCE   C2A 3490   6.430   7.914   5.270  0.1975  0.0382 -0.2408
  389PNCE   C3A 3491   6.516   7.757   5.662  0.1338 -0.1222 -0.1535
  389PNCE   C1B 3492   5.979   7.380   5.178  0.3199  0.1843 -0.1724
  389PNCE   C2B 3493   5.872   7.115   5.507  0.3877 -0.1031  0.1248
  389PNCE   C3B 3494   5.765   6.718   5.624 -0.0352 -0.1026  0.1957
  389PNCE   D4B 3495   5.575   6.409   5.766  0.0168 -0.0661  0.1100
  389PNCE   C5B 3496   5.719   6.168   6.042 -0.0046  0.0773 -0.1976
  389PNCE   C6B 3497   6.149   5.982   6.002  0.0620  0.0212 -0.0133
  390CHOL   ROH 3498   9.617  14.277   9.293 -0.0670  0.1799 -0.0942
  390CHOL    R1 3499   9.591  14.171   9.032 -0.0178  0.2206 -0.1149
  390CHOL    R2 3500   9.760  14.241   8.826  0.2330 -0.0024  0.0136
  390CHOL    R3 3501   9.795  13.972   8.806 -0.1163 -0.0553  0.0333
  390CHOL    R4 3502   9.810  14.070   8.529  0.2000 -0.0620  0.0410
  390CHOL    R5 3503   9.679  13.912   8.604 -0.0681  0.1076 -0.0466
  390CHOL    C1 3504   9.872  13.719   8.337 -0.1471 -0.1463  0.0755
  390CHOL    C2 3505   9.926  13.580   7.943  0.2382  0.0205 -0.0107
  391XCA    COO 3506   9.383   2.532   7.760 -0.1116 -0.3448 -0.1516
  391XCA     C1 3507   9.717   2.429   7.393 -0.0665 -0.1286  0.1877
  391XCA     C2 3508  10.062   2.455   7.099 -0.0829 -0.1074 -0.1450
  391XCA     C3 3509  10.207   2.275   6.805 -0.3258 -0.0658 -0.2978
  391XCA     C4 3510  10.464   2.240   6.472 -0.3309 -0.0008 -0.0166
  391XCA     C5 3511  10.565   2.328   6.116 -0.2373 -0.0702 -0.0923
  391XCA     C6 3512  10.800   2.682   5.985 -0.1242 -0.1847  0.1928
  392CHOL   ROH 3513   9.292  13.631   5.164 -0.0373  0.0268 -0.0331
  392CHOL    R1 3514   9.283  13.687   5.441 -0.0831  0.0394 -0.0365
  392CHOL    R2 3515   9.512  13.728   5.592 -0.1028 -0.0208  0.0148
  392CHOL    R3 3516   9.387  13.960   5.658 -0.0519  0.0180 -0.0254
  392CHOL    R4 3517   9.594  13.928   5.862 -0.2320 -0.1248  0.1326
  392CHOL    R5 3518   9.382  13.960   5.897 -0.2450 -0.0400 -0.0299
  392CHOL    C1 3519   9.524  14.263   6.081 -0.2594 -0.1491  0.1634
  392CHOL    C2 3520   9.355  14.453   6.392 -0.1595 -0.1106 -0.0950
  393XCA    COO 3521  15.214  12.638   8.875  0.6889 -0.1001  0.0222
  393XCA     C1 3522  15.212  12.540   8.424  0.1919  0.3092  0.0705
  393XCA     C2 3523  15.057  12.518   7.967  0.0926  0.0716  0.2982
  393XCA     C3 3524  14.910  12.327   7.587  0.0768  0.1033  0.1365
  393XCA     C4 3525  14.845  12.013   7.188 -0.2396 -0.2755 -0.2380
  393XCA     C5 3526  14.873  11.905   6.787 -0.0621  0.0325  0.0781
  393XCA     C6 3527  14.770  11.484   6.525  0.1986  0.0698 -0.0146
  394PNCE   AM1 3528   0.543  11.905   8.939  0.1763  0.2524  0.3534
  394PNCE   AM2 3529   0.687  11.708   8.753 -0.1945 -0.0150 -0.1686
  394PNCE   T1A 3530   0.496  12.201   8.631 -0.0793  0.0511 -0.0103
  394PNCE   C2A 3531   0.536  12.289   8.044 -0.0279  0.0383 -0.1756
  394PNCE   C3A 3532   0.468  12.095   7.683  0.1919  0.3339  0.3762
  394PNCE   C1B 3533   0.638  11.715   8.354  0.2537  0.1640 -0.4629
  394PNCE   C2B 3534   0.570  11.640   7.780 -0.1785 -0.1163 -0.0546
  394PNCE   C3B 3535   0.443  11.353   7.387  0.1546 -0.4511  0.3626
  394PNCE   D4B 3536   0.599  11.260   7.001  0.3029  0.1910 -0.0767
  394PNCE   C5B 3537   0.486  11.368   6.606 -0.2015  0.3190 -0.1890
  394PNCE   C6B 3538   0.158  11.153   6.490  0.3229 -0.0622  0.1437
  395CHOL   ROH 3539  15.246  10.462   6.800  0.2162  0.2028  0.0112
  395CHOL    R1 3540  15.004  10.589   6.874  0.1192  0.0555 -0.0465
  395CHOL    R2 3541  14.995  10.796   7.057 -0.0596  0.0100  0.0007
  395CHOL    R3 3542  14.866  10.925   6.855 -0.0542 -0.0137 -0.0176
  395CHOL    R4 3543  14.786  11.068   7.098 -0.1237 -0.0338 -0.0335
  395CHOL    R5 3544  14.653  10.983   6.948 -0.0803 -0.0582 -0.0544
  395CHOL    C1 3545  14.544  11.349   6.934 -0.1558 -0.0815 -0.0706
  395CHOL    C2 3546  14.397  11.694   7.003 -0.4968 -0.3141 -0.1817
  396CHOL   ROH 3547   1.630   4.799   6.513  0.0129 -0.2254 -0.1668
  396CHOL    R1 3548   1.791   4.628   6.671 -0.0475 -0.2046 -0.0810
  396CHOL    R2 3549   1.933   4.416   6.564 -0.0677 -0.2703  0.0138
  396CHOL    R3 3550   2.143   4.537   6.687 -0.0683 -0.2665  0.0092
  396CHOL    R4 3551   2.182   4.252   6.738  0.0619 -0.2795 -0.1795
  396CHOL    R5 3552   2.177   4.410   6.887  0.0570 -0.3747 -0.0817
  396CHOL    C1 3553   2.525   4.270   6.954  0.1368 -0.2814 -0.2965
  396CHOL    C2 3554   2.385   4.057   7.337  0.0154  0.1900 -0.1321
  397PNCE   AM1 3555   0.019  12.384   8.663  0.5572 -0.2581  0.0426
  397PNCE   AM2 3556  -0.189  12.136   8.755 -0.1076  0.2841 -0.0895
  397PNCE   T1A 3557   0.031  12.421   8.259 -0.0449 -0.1738  0.3136
  397PNCE   C2A 3558   0.074  12.403   7.894  0.0526 -0.1313 -0.1235
  397PNCE   C3A 3559   0.054  12.377   7.465  0.2677 -0.1139  0.0831
  397PNCE   C1B 3560  -0.294  12.039   8.420 -0.1274 -0.0709  0.1942
  397PNCE   C2B 3561  -0.436  12.132   8.102  0.0760 -0.2554 -0.2514
  397PNCE   C3B 3562  -0.378  12.122   7.679  0.1479  0.0587  0.0049
  397PNCE   D4B 3563  -0.489  12.361   7.229 -0.0611 -0.0361  0.2639
  397PNCE   C5B 3564  -0.837  12.623   7.203 -0.0683  0.1978  0.4132
  397PNCE   C6B 3565  -1.116  12.751   6.847 -0.1144  0.1616 -0.0008
  398CHOL   ROH 3566  11.628   1.549   4.717 -0.2135  0.2541 -0.0101
  398CHOL    R1 3567  11.608   1.483   4.992  0.0726  0.1357 -0.0131
  398CHOL    R2 3568  11.827   1.485   5.162  0.2118  0.3209 -0.1763
  398CHOL    R3 3569  11.669   1.651   5.309  0.1327  0.1002 -0.0090
  398CHOL    R4 3570  11.865   1.547   5.499  0.0991 -0.0610 -0.0893
  398CHOL    R5 3571  11.649   1.542   5.520  0.1074 -0.1479 -0.1451
  398CHOL    C1 3572  11.740   1.739   5.834 -0.0409 -0.4904  0.1185
  398CHOL    C2 3573  11.524   1.567   6.025 -0.0083 -0.4045 -0.0534
  399CHOL   ROH 3574  15.008  12.117   9.083  0.3867  0.2254  0.0243
  399CHOL    R1 3575  14.872  12.077   8.839  0.2731  0.1654  0.0966
  399CHOL    R2 3576  14.858  12.272   8.643  0.2592  0.0856  0.0186
  399CHOL    R3 3577  14.958  12.075   8.485  0.1277 -0.0165  0.0608
  399CHOL    R4 3578  14.818  12.254   8.300  0.1262 -0.0378  0.0392
  399CHOL    R5 3579  14.788  12.039   8.319  0.0525 -0.0202  0.1371
  399CHOL    C1 3580  14.889  12.059   7.952 -0.0746 -0.2056  0.0907
  399CHOL    C2 3581  14.657  11.877   7.695 -0.0250 -0.0518 -0.1363
  400XCA    COO 3582   6.456   3.236   2.821 -0.2241  0.3085 -0.0810
  400XCA     C1 3583   6.334   3.270   3.336  0.3035  0.1363 -0.2529
  400XCA     C2 3584   6.482   3.299   3.750 -0.2095  0.3567  0.1326
  400XCA     C3 3585   6.455   3.362   4.142  0.2158 -0.0616  0.1788
  400XCA     C4 3586   6.318   3.254   4.521  0.0062 -0.1051  0.3644
  400XCA     C5 3587   6.168   3.351   4.959  0.1103  0.0835 -0.1060
  400XCA     C6 3588   6.243   3.073   5.263 -0.3118 -0.2936 -0.1193
  401CHOL   ROH 3589   5.645   5.975   8.041 -0.2129 -0.3560 -0.0073
  401CHOL    R1 3590   5.806   5.899   7.821 -0.2637 -0.3359 -0.0519
  401CHOL    R2 3591   5.700   5.806   7.583 -0.3352  0.0150 -0.1640
  401CHOL    R3 3592   5.850   6.006   7.475 -0.0808 -0.0527  0.0563
  401CHOL    R4 3593   5.774   5.838   7.247 -0.1127  0.1812 -0.1015
  401CHOL    R5 3594   5.976   5.898   7.302 -0.0861 -0.0511  0.0542
  401CHOL    C1 3595   5.958   6.044   6.950  0.2557  0.2145  0.1416
  401CHOL    C2 3596   5.966   6.281   6.533  0.0910  0.0623 -0.0338
  402CHOL   ROH 3597   0.772  14.293   8.512 -0.1573  0.1280 -0.0450
  402CHOL    R1 3598   0.913  14.288   8.266 -0.1322  0.1747 -0.0319
  402CHOL    R2 3599   1.008  14.054   8.155  0.0252  0.2153  0.0159
  402CHOL    R3 3600   0.866  14.137   7.938 -0.0088  0.0891 -0.0109
  402CHOL    R4 3601   1.071  13.958   7.829  0.2802  0.3964  0.0092
  402CHOL    R5 3602   1.030  14.163   7.766  0.0250  0.3643  0.0577
  402CHOL    C1 3603   0.974  13.981   7.436  0.3967  0.3833 -0.0199
  402CHOL    C2 3604   1.213  13.734   7.366  0.1152  0.1278 -0.0760
  403XCA    COO 3605   7.559   9.977   5.370  0.0201  0.3114 -0.2732
  403XCA     C1 3606   7.289   9.646   5.538 -0.2250 -0.1039 -0.2205
  403XCA     C2 3607   7.133   9.383   5.943 -0.2500 -0.1704 -0.0101
  403XCA     C3 3608   6.995   9.466   6.375 -0.0226  0.0400  0.2490
  403XCA     C4 3609   6.628   9.109   6.505  0.0198  0.0228 -0.1862
  403XCA     C5 3610   6.273   8.976   6.478  0.3637 -0.0386 -0.0039
  403XCA     C6 3611   5.894   8.735   6.548  0.0306 -0.0116 -0.1302
  404XCA    COO 3612   4.573  13.723   9.202 -0.0613 -0.0848 -0.2070
  404XCA     C1 3613   4.774  13.452   8.958 -0.0283  0.0581 -0.2250
  404XCA     C2 3614   4.900  13.128   8.656  0.2501  0.1195  0.2262
  404XCA     C3 3615   5.131  12.975   8.279  0.0514 -0.2001 -0.2233
  404XCA     C4 3616   5.063  12.622   8.026  0.2092  0.3090  0.0136
  404XCA     C5 3617   4.806  12.545   7.710 -0.2486  0.2573 -0.2884
  404XCA     C6 3618   4.357  12.866   7.619 -0.1391 -0.0171 -0.2237
  405PNCE   AM1 3619   9.692   2.196   7.959  0.0286  0.1240  0.0700
  405PNCE   AM2 3620   9.779   2.331   8.244  0.1663 -0.1767 -0.1558
  405PNCE   T1A 3621  10.082   2.190   7.648 -0.0256  0.1133 -0.0461
  405PNCE   C2A 3622  10.350   2.020   7.290  0.3298 -0.0271  0.1302
  405PNCE   C3A 3623  10.642   2.138   6.996 -0.1407 -0.0753  0.3499
  405PNCE   C1B 3624  10.133   2.456   8.087  0.1628  0.2000 -0.1114
  405PNCE   C2B 3625  10.155   2.739   7.648 -0.2659  0.2109  0.0926
  405PNCE   C3B 3626  10.279   2.954   7.284  0.0034 -0.2905 -0.1322
  405PNCE   D4B 3627  10.788   3.037   7.259 -0.0874  0.0846 -0.1192
  405PNCE   C5B 3628  10.932   3.152   6.847 -0.0742  0.0902  0.2271
  405PNCE   C6B 3629  11.363   3.055   6.693  0.2482  0.1019  0.1683
  406PNCE   AM1 3630   3.624   4.137   7.690  0.0473 -0.0508  0.1867
  406PNCE   AM2 3631   3.772   3.894   7.570 -0.2185  0.0565 -0.1961
  406PNCE   T1A 3632   3.166   4.163   7.491 -0.1527 -0.1588 -0.1760
  406PNCE   C2A 3633   2.868   4.031   7.112 -0.0767  0.2240 -0.1097
  406PNCE   C3A 3634   2.800   3.618   6.872  0.2424  0.0022  0.1599
  406PNCE   C1B 3635   4.003   4.025   7.247  0.0545 -0.1670 -0.3122
  406PNCE   C2B 3636   4.113   4.132   6.839  0.1243 -0.1465 -0.4125
  406PNCE   C3B 3637   4.033   4.483   6.622 -0.0006 -0.4126  0.1636
  406PNCE   D4B 3638   4.126   4.757   6.248  0.3351 -0.0761  0.2068
  406PNCE   C5B 3639   4.435   4.529   5.820  0.0485  0.0913 -0.1493
  406PNCE   C6B 3640   4.730   4.606   5.471  0.2438  0.0311  0.1342
  407PNCE   AM1 3641  11.401   5.197   8.875  0.0393 -0.0038 -0.2923
  407PNCE   AM2 3642  11.211   4.981   8.746  0.1613  0.0168 -0.0187
  407PNCE   T1A 3643  11.778   5.338   8.817  0.4114 -0.0742 -0.1395
  407PNCE   C2A 3644  12.053   5.362   8.462  0.0736  0.2726 -0.1175
  407PNCE   C3A 3645  12.167   5.362   8.045  0.0441 -0.5105 -0.0299
  407PNCE   C1B 3646  11.562   5.128   8.393  0.2710 -0.1245  0.1806
  407PNCE   C2B 3647  11.772   5.014   8.130  0.0897  0.1010 -0.2087
  407PNCE   C3B 3648  11.917   4.996   7.807 -0.1987 -0.2629  0.2478
  407PNCE   D4B 3649  12.321   4.816   7.698 -0.2037  0.2177  0.2185
  407PNCE   C5B 3650  12.624   5.119   7.683  0.0897 -0.3165  0.0247
  407PNCE   C6B 3651  12.649   5.435   7.339 -0.1298  0.0957 -0.0640
  408XCA    COO 3652   9.375  15.430   7.486  0.1325 -0.0459  0.1224
  408XCA     C1 3653   9.027  15.209   7.271 -0.1413  0.0975 -0.4018
  408XCA     C2 3654   8.882  15.155   6.798  0.2452  0.1055 -0.0075
  408XCA     C3 3655   8.805  14.785   6.691 -0.1521  0.2965 -0.1093
  408XCA     C4 3656   8.906  14.470   6.390 -0.1083 -0.3115  0.2132
  408XCA     C5 3657   9.085  14.537   5.946 -0.2604 -0.1099 -0.0406
  408XCA     C6 3658   9.317  14.430   5.626  0.1014 -0.0797  0.0031
  409XCA    COO 3659  11.554   2.773   8.762  0.3656 -0.1156 -0.3067
  409XCA     C1 3660  11.574   2.869   8.271 -0.3023 -0.0899  0.0432
  409XCA     C2 3661  11.477   2.949   7.831 -0.1099 -0.0698 -0.2650
  409XCA     C3 3662  11.369   3.190   7.437 -0.0575 -0.0682  0.3180
  409XCA     C4 3663  11.285   3.674   7.292 -0.1762  0.2462  0.0564
  409XCA     C5 3664  11.367   4.107   7.134 -0.0342  0.0655 -0.2822
  409XCA     C6 3665  11.605   4.416   6.890  0.2053  0.0965 -0.2435
  410CHOL   ROH 3666  15.184   6.583   8.132  0.1651  0.0161  0.0804
  410CHOL    R1 3667  15.329   6.710   7.925  0.1396  0.0004  0.0533
  410CHOL    R2 3668  15.320   6.625   7.663  0.1045 -0.0168  0.0618
  410CHOL    R3 3669  15.250   6.883   7.614  0.1025 -0.0189  0.0515
  410CHOL    R4 3670  15.324   6.774   7.351 -0.1549 -0.1097  0.0111
  410CHOL    R5 3671  15.404   6.955   7.444 -0.0377 -0.0940 -0.1125
  410CHOL    C1 3672  15.260   7.104   7.124 -0.3079 -0.1658 -0.0282
  410CHOL    C2 3673  15.229   7.452   6.893  0.3069 -0.0058 -0.0395
  411PNCE   AM1 3674   8.593   0.261   8.463  0.4456 -0.2154  0.3327
  411PNCE   AM2 3675   8.450   0.413   8.349 -0.1310 -0.0821 -0.0740
  411PNCE   T1A 3676   8.537   0.045   8.027  0.0262  0.3223  0.1185
  411PNCE   C2A 3677   8.551  -0.059   7.640  0.2382 -0.1384  0.1697
  411PNCE   C3A 3678   8.899  -0.067   7.416 -0.3347 -0.1342  0.0531
  411PNCE   C1B 3679   8.200   0.539   8.033 -0.0539 -0.0398 -0.1510
  411PNCE   C2B 3680   8.210   0.412   7.494  0.3130  0.0363 -0.1457
  411PNCE   C3B 3681   8.427   0.158   7.140 -0.0345  0.2221 -0.0896
  411PNCE   D4B 3682   8.658  -0.150   6.897  0.0982  0.0259  0.1141
  411PNCE   C5B 3683   8.426  -0.473   6.765  0.1018 -0.2685  0.0422
  411PNCE   C6B 3684   8.319  -0.886   6.752 -0.0471 -0.0270 -0.0519
  412CHOL   ROH 3685  11.217   6.698   6.096  0.0184 -0.1726  0.1236
  412CHOL    R1 3686  11.225   6.778   6.368 -0.0493 -0.1725  0.1253
  412CHOL    R2 3687  11.083   6.995   6.463 -0.1025 -0.1968  0.0969
  412CHOL    R3 3688  10.986   6.813   6.640 -0.1092 -0.2118  0.0784
  412CHOL    R4 3689  10.969   7.070   6.780 -0.0955 -0.2239  0.1062
  412CHOL    R5 3690  11.066   6.889   6.852 -0.1025 -0.2373  0.0861
  412CHOL    C1 3691  10.811   6.943   7.131 -0.0977 -0.2539  0.0943
  412CHOL    C2 3692  10.610   6.986   7.425  0.1423 -0.1134 -0.4847
  413CHOL   ROH 3693  10.315   9.112   6.419 -0.1489  0.1830 -0.2094
  413CHOL    R1 3694  10.379   9.250   6.658 -0.0793  0.1608 -0.2145
  413CHOL    R2 3695  10.224   9.457   6.756 -0.0911  0.1056 -0.1115
  413CHOL    R3 3696  10.222   9.305   6.981  0.0484  0.0665 -0.1356
  413CHOL    R4 3697  10.104   9.561   7.062 -0.0383  0.0003 -0.0547
  413CHOL    R5 3698  10.272   9.460   7.157  0.0368  0.0584 -0.1261
  413CHOL    C1 3699  10.031   9.480   7.453  0.1235 -0.0976 -0.0444
  413CHOL    C2 3700  10.004   9.727   7.869  0.1306 -0.5401  0.1277
  414CHOL   ROH 3701  13.724  13.485   6.776  0.0326  0.1133  0.0314
  414CHOL    R1 3702  13.893  13.675   6.652  0.0705  0.0225 -0.0544
  414CHOL    R2 3703  13.971  13.654   6.388  0.0000 -0.0706 -0.0639
  414CHOL    R3 3704  13.871  13.906   6.372  0.0893 -0.0360 -0.1058
  414CHOL    R4 3705  14.145  13.928   6.270  0.1940 -0.1019  0.1403
  414CHOL    R5 3706  14.056  14.047   6.430  0.0865 -0.1036  0.0872
  414CHOL    C1 3707  14.153  14.325   6.186  0.3908 -0.0877  0.2198
  414CHOL    C2 3708  14.309  14.512   6.362  0.2888  0.5984  0.0430
  415XCA    COO 3709   9.656   7.317   9.462 -0.0070 -0.0368  0.0355
  415XCA     C1 3710   9.861   7.566   9.114 -0.3462 -0.2881 -0.0244
  415XCA     C2 3711   9.748   7.874   8.854  0.1543  0.0527  0.0266
  415XCA     C3 3712   9.487   8.259   8.849 -0.1946 -0.3512  0.0171
  415XCA     C4 3713   9.287   8.639   8.748 -0.2747  0.4364 -0.0662
  415XCA     C5 3714   9.283   9.103   8.634 -0.1263  0.4015  0.4323
  415XCA     C6 3715   8.956   9.400   8.534  0.1476 -0.1204 -0.1682
  416PNCE   AM1 3716   0.915   4.194   8.248 -0.2199  0.0140  0.1931
  416PNCE   AM2 3717   1.111   4.102   8.139 -0.1877  0.1281  0.1505
  416PNCE   T1A 3718   0.617   4.288   8.075  0.2500 -0.0896 -0.2077
  416PNCE   C2A 3719   0.279   4.467   7.971 -0.2594  0.3130 -0.0825
  416PNCE   C3A 3720   0.035   4.627   7.665 -0.1398 -0.0100  0.1292
  416PNCE   C1B 3721   0.875   4.017   7.758  0.2290  0.0548 -0.0887
  416PNCE   C2B 3722   0.945   3.664   7.450 -0.1213 -0.0650 -0.1116
  416PNCE   C3B 3723   0.948   3.714   6.934  0.1390  0.3552  0.0233
  416PNCE   D4B 3724   0.727   3.898   6.551  0.0088 -0.0880  0.2129
  416PNCE   C5B 3725   0.805   4.294   6.487  0.2092 -0.0150 -0.0165
  416PNCE   C6B 3726   0.824   4.655   6.627 -0.0368  0.1578 -0.4095
  417CHOL   ROH 3727   4.624   8.117   7.678 -0.1936  0.0559  0.0497
  417CHOL    R1 3728   4.568   8.085   7.402 -0.1280  0.2286  0.0145
  417CHOL    R2 3729   4.346   7.948   7.311  0.0830 -0.0322 -0.1238
  417CHOL    R3 3730   4.300   8.178   7.174 -0.2647  0.0341  0.0931
  417CHOL    R4 3731   4.111   7.985   7.060  0.1131 -0.1857 -0.1754
  417CHOL    R5 3732   4.255   8.107   6.950 -0.0509  0.1808  0.0012
  417CHOL    C1 3733   3.932   8.223   6.785 -0.1958 -0.2129 -0.0020
  417CHOL    C2 3734   3.844   7.761   6.670 -0.0576 -0.1403 -0.3674
  418CHOL   ROH 3735  11.626   0.132   5.244 -0.1143  0.1413 -0.0736
  418CHOL    R1 3736  11.631   0.040   5.512 -0.0824  0.1536 -0.0692
  418CHOL    R2 3737  11.550   0.195   5.725 -0.0301  0.1769 -0.0594
  418CHOL    R3 3738  11.389  -0.018   5.777 -0.0483  0.1987 -0.0305
  418CHOL    R4 3739  11.408   0.125   6.032  0.1070  0.1197 -0.0087
  418CHOL    R5 3740  11.450  -0.086   5.998  0.0439  0.1256 -0.0831
  418CHOL    C1 3741  11.174  -0.117   6.260  0.1698  0.1069  0.0478
  418CHOL    C2 3742  11.043  -0.385   6.566  0.1975  0.5146 -0.0040
  419XCA    COO 3743   9.266   3.095   8.048 -0.0760  0.0732  0.1163
  419XCA     C1 3744   9.239   3.210   7.549  0.2172 -0.2362  0.0975
  419XCA     C2 3745   9.535   3.147   7.229  0.2218  0.0675 -0.0085
  419XCA     C3 3746   9.862   2.859   6.974  0.1804 -0.1434 -0.3846
  419XCA     C4 3747  10.223   2.779   6.658  0.1103  0.0190  0.0179
  419XCA     C5 3748  10.366   2.713   6.302 -0.0685  0.1762 -0.2030
  419XCA     C6 3749  10.281   2.592   5.823  0.2929 -0.0221 -0.1943
  420PNCE   AM1 3750  15.553   2.741   8.645 -0.1609 -0.1623  0.1580
  420PNCE   AM2 3751  15.630   3.137   8.659 -0.0892 -0.1296  0.1398
  420PNCE   T1A 3752  15.244   2.501   8.410 -0.0582 -0.2572  0.2156
  420PNCE   C2A 3753  15.025   2.413   8.070  0.1887 -0.2497  0.0131
  420PNCE   C3A 3754  14.999   2.447   7.597 -0.0891  0.2231  0.1264
  420PNCE   C1B 3755  15.476   3.266   8.229  0.0209  0.1520  0.1089
  420PNCE   C2B 3756  15.352   3.359   7.796 -0.0874 -0.0395 -0.2034
  420PNCE   C3B 3757  15.207   3.473   7.478  0.1923  0.0417  0.1194
  420PNCE   D4B 3758  15.010   3.468   7.085  0.0402  0.2700  0.0728
  420PNCE   C5B 3759  15.077   3.685   6.824 -0.1723 -0.4786 -0.2269
  420PNCE   C6B 3760  14.952   3.556   6.433  0.4072  0.2035 -0.1699
  421CHOL   ROH 3761   5.867  10.928   5.306  0.0509  0.0473 -0.1191
  421CHOL    R1 3762   6.030  10.932   5.537  0.1455  0.0812 -0.1871
  421CHOL    R2 3763   6.171  11.156   5.615 -0.3218  0.2964  0.0637
  421CHOL    R3 3764   6.041  11.116   5.850 -0.1375 -0.3357  0.0795
  421CHOL    R4 3765   6.316  11.186   5.927 -0.3409  0.7164  0.0381
  421CHOL    R5 3766   6.204  11.010   5.991  0.3434  0.2132 -0.0147
  421CHOL    C1 3767   6.278  11.167   6.330 -0.1789  0.3675  0.0381
  421CHOL    C2 3768   6.421  11.067   6.677 -0.1515  0.0845 -0.1498
  422PNCE   AM1 3769   3.598  13.027   4.502 -0.1137  0.0716 -0.2607
  422PNCE   AM2 3770   3.787  13.284   4.600 -0.2615 -0.0886 -0.0702
  422PNCE   T1A 3771   3.528  13.007   4.961  0.0970 -0.5320  0.1299
  422PNCE   C2A 3772   3.694  13.131   5.342  0.1781 -0.0440  0.0962
  422PNCE   C3A 3773   3.783  13.055   5.776  0.1405  0.1144  0.1189
  422PNCE   C1B 3774   3.982  13.530   4.928 -0.0874 -0.1763 -0.0131
  422PNCE   C2B 3775   3.995  13.607   5.468 -0.0202 -0.0882  0.1025
  422PNCE   C3B 3776   3.931  13.511   5.940  0.0085  0.2910  0.0130
  422PNCE   D4B 3777   3.749  13.419   6.339 -0.2896  0.0384 -0.1107
  422PNCE   C5B 3778   3.753  12.963   6.297 -0.2012  0.2043  0.0304
  422PNCE   C6B 3779   3.530  12.586   6.053  0.1810 -0.1426  0.3148
  423PNCE   AM1 3780  14.452  10.403   9.071  0.1118 -0.3855  0.0944
  423PNCE   AM2 3781  14.742  10.399   8.961  0.2509  0.5755  0.0172
  423PNCE   T1A 3782  14.297  10.273   8.651  0.0283  0.2459  0.0030
  423PNCE   C2A 3783  14.138  10.105   8.241 -0.1202 -0.0026 -0.1607
  423PNCE   C3A 3784  13.940  10.076   7.819 -0.1430  0.0896  0.0404
  423PNCE   C1B 3785  14.742  10.431   8.473  0.1855  0.2053 -0.1454
  423PNCE   C2B 3786  14.622  10.370   8.046 -0.0472  0.0317  0.3141
  423PNCE   C3B 3787  14.393  10.362   7.674 -0.3268  0.1060  0.2250
  423PNCE   D4B 3788  14.195  10.477   7.339  0.1526  0.2384  0.0040
  423PNCE   C5B 3789  14.219  10.751   7.079 -0.1854  0.0365  0.2731
  423PNCE   C6B 3790  14.060  11.154   6.940  0.1928 -0.0090  0.1086
  424CHOL   ROH 3791  14.667   8.805   6.656  0.0894 -0.1390  0.0947
  424CHOL    R1 3792  14.647   8.603   6.853  0.0451 -0.1792  0.0496
  424CHOL    R2 3793  14.707   8.648   7.119  0.0292 -0.2451  0.0653
  424CHOL    R3 3794  14.456   8.550   7.158  0.0124 -0.2188  0.0224
  424CHOL    R4 3795  14.599   8.491   7.408  0.0128 -0.3819 -0.0144
  424CHOL    R5 3796  14.490   8.349   7.284 -0.0201 -0.2941 -0.0880
  424CHOL    C1 3797  14.301   8.309   7.613 -0.0126 -0.4369 -0.1009
  424CHOL    C2 3798  14.182   8.216   7.918  0.0722  0.1631  0.2912
  425PNCE   AM1 3799   7.331   7.649   8.678 -0.1482 -0.1883  0.0270
  425PNCE   AM2 3800   7.151   7.884   8.672  0.0852  0.3503 -0.1988
  425PNCE   T1A 3801   7.144   7.418   8.369 -0.1155  0.0635 -0.2360
  425PNCE   C2A 3802   7.035   7.375   7.937  0.0699 -0.2023  0.2001
  425PNCE   C3A 3803   7.076   7.538   7.464 -0.1105  0.0234 -0.2479
  425PNCE   C1B 3804   7.020   8.037   8.362  0.0202  0.1292  0.0045
  425PNCE   C2B 3805   6.945   8.289   7.999 -0.3428 -0.0276  0.2207
  425PNCE   C3B 3806   6.748   8.463   7.626  0.2161 -0.2635  0.2458
  425PNCE   D4B 3807   6.864   8.745   7.263  0.0905  0.3248 -0.1393
  425PNCE   C5B 3808   7.226   8.953   7.153 -0.2242 -0.2327 -0.1135
  425PNCE   C6B 3809   7.652   9.063   6.892 -0.2498  0.1154  0.0296
  426PNCE   AM1 3810  11.373   0.454   9.351 -0.2118 -0.4230 -0.0253
  426PNCE   AM2 3811  11.130   0.318   9.504  0.1023  0.0341 -0.0517
  426PNCE   T1A 3812  11.600   0.295   8.978  0.2173  0.1765  0.0112
  426PNCE   C2A 3813  11.728   0.272   8.522  0.2751  0.0028  0.1211
  426PNCE   C3A 3814  11.813   0.396   8.183 -0.2962  0.3444 -0.0636
  426PNCE   C1B 3815  11.132   0.064   9.089 -0.0667  0.0292 -0.5209
  426PNCE   C2B 3816  11.249   0.066   8.662 -0.0313  0.0057  0.0295
  426PNCE   C3B 3817  11.503  -0.155   8.418  0.2145  0.2750  0.0881
  426PNCE   D4B 3818  11.724  -0.537   8.569  0.1003  0.1290  0.0058
  426PNCE   C5B 3819  11.557  -0.828   8.863 -0.2385 -0.2240  0.0526
  426PNCE   C6B 3820  11.618  -1.144   9.198 -0.0272  0.1973  0.0716
  427PNCE   AM1 3821  14.707   1.077   8.437  0.0613 -0.0416 -0.1752
  427PNCE   AM2 3822  14.864   0.830   8.195  0.0693 -0.2069 -0.0461
  427PNCE   T1A 3823  14.619   1.188   7.968  0.0487 -0.1664 -0.1899
  427PNCE   C2A 3824  14.731   0.971   7.545 -0.1985  0.1017 -0.1493
  427PNCE   C3A 3825  14.670   1.225   7.131 -0.1337  0.3208 -0.0791
  427PNCE   C1B 3826  15.175   1.004   7.722  0.3775 -0.0335  0.1098
  427PNCE   C2B 3827  15.228   1.069   7.229 -0.0248  0.1032  0.0022
  427PNCE   C3B 3828  15.577   1.128   6.979  0.2517  0.0201  0.0494
  427PNCE   D4B 3829  15.856   1.415   6.843  0.2571  0.1527  0.1915
  427PNCE   C5B 3830  15.659   1.851   6.719  0.2795 -0.1959  0.0614
  427PNCE   C6B 3831  15.596   2.166   6.988 -0.0744  0.0812 -0.1674
  428PNCE   AM1 3832  13.089  12.541   5.007  0.1064  0.0931  0.1367
  428PNCE   AM2 3833  12.822  12.781   4.934  0.0715  0.1368  0.0424
  428PNCE   T1A 3834  13.389  12.278   5.313 -0.1054  0.0628  0.4159
  428PNCE   C2A 3835  13.612  11.873   5.562 -0.1276 -0.2180 -0.1896
  428PNCE   C3A 3836  13.432  11.469   5.813 -0.2229  0.0555 -0.1698
  428PNCE   C1B 3837  13.070  12.948   5.280 -0.1512 -0.0279 -0.0371
  428PNCE   C2B 3838  13.386  12.801   5.528  0.2317 -0.0059  0.1581
  428PNCE   C3B 3839  13.550  12.756   5.924 -0.1010  0.1272 -0.0537
  428PNCE   D4B 3840  13.916  12.491   6.075 -0.0465 -0.1682  0.2285
  428PNCE   C5B 3841  14.388  12.326   5.965  0.4198 -0.1495  0.0967
  428PNCE   C6B 3842  14.851  12.475   5.869 -0.0513  0.2758  0.0958
  429CHOL   ROH 3843   7.482   0.897   7.410 -0.0070 -0.1164  0.0621
  429CHOL    R1 3844   7.718   0.903   7.253  0.0298 -0.1122  0.1173
  429CHOL    R2 3845   7.920   0.717   7.282 -0.0036 -0.1499  0.1175
  429CHOL    R3 3846   7.883   0.683   7.015  0.0511 -0.0777  0.1004
  429CHOL    R4 3847   8.161   0.604   7.061  0.0556 -0.0416  0.1261
  429CHOL    R5 3848   8.090   0.750   6.917  0.0563 -0.0120  0.1571
  429CHOL    C1 3849   8.266   0.506   6.682  0.1415  0.0891  0.1152
  429CHOL    C2 3850   8.575   0.452   6.637  0.2186 -0.0611  0.0081
  430PNCE   AM1 3851   4.428   7.413   7.820  0.1145 -0.0726  0.2051
  430PNCE   AM2 3852   4.355   7.737   7.781  0.1588 -0.0455 -0.0205
  430PNCE   T1A 3853   4.206   7.129   7.548 -0.0339  0.0021  0.4004
  430PNCE   C2A 3854   4.332   6.638   7.311 -0.0823  0.2087  0.1157
  430PNCE   C3A 3855   4.475   6.358   7.066  0.0650  0.0768 -0.3667
  430PNCE   C1B 3856   4.104   7.610   7.477 -0.2166 -0.4130 -0.1722
  430PNCE   C2B 3857   4.038   7.437   7.140  0.0090 -0.1541 -0.1923
  430PNCE   C3B 3858   4.035   7.021   7.068  0.2200  0.2819 -0.3906
  430PNCE   D4B 3859   4.209   7.177   6.711  0.0132 -0.1499  0.0096
  430PNCE   C5B 3860   4.589   7.262   6.536  0.1201  0.2713 -0.2391
  430PNCE   C6B 3861   4.912   7.468   6.426 -0.0517  0.0830 -0.2132
  431PNCE   AM1 3862   9.461  15.569   8.754  0.2201  0.1378 -0.1960
  431PNCE   AM2 3863   9.586  15.191   8.825  0.2193 -0.1826  0.0358
  431PNCE   T1A 3864   9.179  15.291   8.481  0.2785  0.0340  0.0124
  431PNCE   C2A 3865   9.114  14.869   8.475  0.1726 -0.1015  0.0773
  431PNCE   C3A 3866   8.918  14.444   8.349 -0.1549 -0.0201 -0.0050
  431PNCE   C1B 3867   9.640  15.134   8.417 -0.0143 -0.0180 -0.2509
  431PNCE   C2B 3868   9.437  15.052   8.137  0.2698  0.1730  0.0628
  431PNCE   C3B 3869   9.236  14.974   7.771 -0.1354  0.1495 -0.2077
  431PNCE   D4B 3870   9.144  14.694   7.404 -0.0239 -0.0644 -0.2774
  431PNCE   C5B 3871   8.749  14.559   7.279  0.2059 -0.1668  0.0245
  431PNCE   C6B 3872   8.402  14.478   7.100  0.0487  0.0479  0.1877
  432XCA    COO 3873  10.757  15.575   9.251  0.0173  0.3896  0.1897
  432XCA     C1 3874  10.625  15.440   8.844 -0.4427  0.4919 -0.2570
  432XCA     C2 3875  10.632  15.103   8.527 -0.0301 -0.2420  0.1881
  432XCA     C3 3876  10.753  15.014   8.096 -0.1385 -0.1186  0.2331
  432XCA     C4 3877  10.718  14.837   7.740 -0.0073  0.2416 -0.0324
  432XCA     C5 3878  10.881  14.622   7.469 -0.0348  0.1295 -0.0989
  432XCA     C6 3879  11.295  14.694   7.290 -0.0427 -0.1670  0.1003
  433XCA    COO 3880   7.940  10.302   6.105 -0.2944 -0.1153  0.4842
  433XCA     C1 3881   7.847   9.969   6.399 -0.1133 -0.0309  0.0397
  433XCA     C2 3882   7.827   9.521   6.582 -0.1516  0.2235  0.1244
  433XCA     C3 3883   7.883   9.136   6.458 -0.1793  0.0261  0.3147
  433XCA     C4 3884   7.823   8.775   6.273  0.0853 -0.0553 -0.0618
  433XCA     C5 3885   7.563   8.439   6.260 -0.1028 -0.2027  0.1025
  433XCA     C6 3886   7.216   8.365   6.345  0.3780 -0.1118 -0.2020
  434CHOL   ROH 3887   7.524   7.898   6.316 -0.1022 -0.0629 -0.1241
  434CHOL    R1 3888   7.372   7.951   6.083 -0.0651 -0.0257 -0.1386
  434CHOL    R2 3889   7.469   8.106   5.875  0.0347 -0.1434 -0.1722
  434CHOL    R3 3890   7.405   7.887   5.726 -0.1059 -0.1364 -0.1251
  434CHOL    R4 3891   7.414   8.107   5.533 -0.1709 -0.1278 -0.1410
  434CHOL    R5 3892   7.249   7.969   5.564 -0.1913 -0.0953 -0.0335
  434CHOL    C1 3893   7.322   7.902   5.196 -0.4226 -0.1122 -0.0787
  434CHOL    C2 3894   7.184   8.033   4.943 -0.0108  0.1386  0.0365
  435CHOL   ROH 3895  13.114  15.354   5.694 -0.1966 -0.0510 -0.0421
  435CHOL    R1 3896  13.294  15.283   5.900 -0.0290 -0.0796 -0.1945
  435CHOL    R2 3897  13.244  15.337   6.167  0.3424  0.1983 -0.1677
  435CHOL    R3 3898  13.287  15.070   6.195  0.0746  0.1695 -0.0112
  435CHOL    R4 3899  13.407  15.190   6.434  0.3155  0.1955 -0.1538
  435CHOL    R5 3900  13.504  15.055   6.294  0.1037  0.0005 -0.1089
  435CHOL    C1 3901  13.541  14.854   6.616  0.0485  0.1668  0.0013
  435CHOL    C2 3902  13.519  14.859   6.898  0.0193 -0.2474 -0.1349
  436XCA    COO 3903   6.081  12.090   8.975 -0.0595 -0.0057 -0.0061
  436XCA     C1 3904   5.806  12.325   8.615  0.2098  0.2356  0.0907
  436XCA     C2 3905   5.905  12.516   8.200  0.1245  0.4509  0.2904
  436XCA     C3 3906   5.993  12.820   7.816 -0.0561  0.1161  0.4111
  436XCA     C4 3907   6.120  12.764   7.363 -0.1700 -0.0824 -0.0646
  436XCA     C5 3908   6.508  12.676   7.112  0.3149 -0.0503 -0.1894
  436XCA     C6 3909   6.768  12.363   6.908  0.0853  0.0927  0.0930
  437CHOL   ROH 3910   5.282  14.762   8.202  0.0688 -0.1207  0.1920
  437CHOL    R1 3911   5.507  14.601   8.144  0.2370  0.1288  0.1445
  437CHOL    R2 3912   5.485  14.348   8.035  0.4811  0.0327  0.3287
  437CHOL    R3 3913   5.655  14.449   7.848  0.2319  0.1228  0.1421
  437CHOL    R4 3914   5.620  14.168   7.772  0.5022  0.0132  0.3512
  437CHOL    R5 3915   5.809  14.271   7.805  0.4157  0.2666  0.1544
  437CHOL    C1 3916   5.858  14.159   7.444  0.2804  0.0862  0.1891
  437CHOL    C2 3917   6.072  13.960   7.278 -0.1298  0.1110 -0.0850
  438PNCE   AM1 3918   8.255  13.701   9.224  0.0551 -0.2998  0.0611
  438PNCE   AM2 3919   7.949  13.878   9.190 -0.0617 -0.4658 -0.0469
  438PNCE   T1A 3920   8.204  13.582   8.711  0.5349 -0.1125  0.0296
  438PNCE   C2A 3921   8.078  13.369   8.336  0.1081 -0.0774 -0.0639
  438PNCE   C3A 3922   8.198  13.483   7.902 -0.2383  0.2752 -0.0651
  438PNCE   C1B 3923   7.768  13.654   9.013 -0.1351  0.3102  0.2249
  438PNCE   C2B 3924   7.611  13.495   8.610 -0.0258  0.4601 -0.0239
  438PNCE   C3B 3925   7.607  13.309   8.155 -0.1173 -0.0533  0.3134
  438PNCE   D4B 3926   7.662  13.410   7.765 -0.3989 -0.1601 -0.3591
  438PNCE   C5B 3927   7.991  13.244   7.515  0.1150 -0.1241 -0.1530
  438PNCE   C6B 3928   8.070  13.008   7.256  0.1937 -0.0999 -0.2060
  439XCA    COO 3929   7.481  15.457   7.924 -0.1332 -0.0558  0.1097
  439XCA     C1 3930   7.430  15.036   7.703 -0.1265  0.0875  0.1157
  439XCA     C2 3931   7.565  14.778   7.307  0.0610 -0.0127 -0.0572
  439XCA     C3 3932   7.726  14.844   6.884  0.2064 -0.0020 -0.0369
  439XCA     C4 3933   7.899  14.625   6.586  0.2528  0.4715  0.0412
  439XCA     C5 3934   7.915  14.443   6.192 -0.1274 -0.0836  0.1916
  439XCA     C6 3935   8.041  14.454   5.774  0.0073  0.0727 -0.1061
  440CHOL   ROH 3936   2.720  12.191   4.875  0.1222  0.1454 -0.1620
  440CHOL    R1 3937   2.870  12.139   5.110  0.0878  0.1254 -0.1450
  440CHOL    R2 3938   2.763  12.168   5.364  0.0383  0.0621 -0.1610
  440CHOL    R3 3939   2.847  11.911   5.393  0.0738  0.0698 -0.1897
  440CHOL    R4 3940   2.752  11.989   5.659  0.2175  0.0872 -0.1371
  440CHOL    R5 3941   2.947  11.906   5.610  0.1992  0.0965 -0.2432
  440CHOL    C1 3942   2.824  11.643   5.858  0.3551  0.1090 -0.1501
  440CHOL    C2 3943   2.712  11.614   6.205  0.0045 -0.1042  0.0538
  441CHOL   ROH 3944   2.252  12.370   4.612 -0.0212 -0.1314 -0.0309
  441CHOL    R1 3945   2.339  12.276   4.865 -0.0622 -0.1723 -0.0312
  441CHOL    R2 3946   2.344  12.437   5.089  0.0974 -0.1470 -0.0486
  441CHOL    R3 3947   2.195  12.237   5.196 -0.0521 -0.0155 -0.0083
  441CHOL    R4 3948   2.295  12.386   5.428 -0.1498  0.0990 -0.0444
  441CHOL    R5 3949   2.314  12.172   5.393 -0.2106  0.0693  0.1156
  441CHOL    C1 3950   2.126  12.168   5.725 -0.4340  0.3656 -0.0042
  441CHOL    C2 3951   2.434  12.043   5.968  0.0690  0.2792 -0.0288
  442CHOL   ROH 3952   8.747   5.055   7.661  0.0703  0.0390  0.1010
  442CHOL    R1 3953   8.924   5.078   7.441  0.0899 -0.0669  0.1044
  442CHOL    R2 3954   8.844   5.036   7.180  0.1061 -0.1654  0.1126
  442CHOL    R3 3955   8.949   5.284   7.142  0.1312 -0.1904  0.0225
  442CHOL    R4 3956   8.949   5.160   6.876 -0.0046 -0.2374  0.0449
  442CHOL    R5 3957   9.120   5.251   6.977  0.0540 -0.2479 -0.0455
  442CHOL    C1 3958   9.110   5.465   6.662 -0.0455 -0.3028 -0.0790
  442CHOL    C2 3959   9.441   5.390   6.378 -0.0401  0.0083 -0.3467
  443CHOL   ROH 3960   6.845  11.966   7.998 -0.0058 -0.1775  0.0062
  443CHOL    R1 3961   6.669  12.018   8.214  0.0878 -0.1291  0.0714
  443CHOL    R2 3962   6.414  12.118   8.178  0.1640  0.1108  0.1772
  443CHOL    R3 3963   6.343  11.900   8.324  0.0081  0.0998  0.0873
  443CHOL    R4 3964   6.108  12.075   8.333  0.1821  0.3304  0.2770
  443CHOL    R5 3965   6.213  11.988   8.504  0.1683  0.1338  0.1891
  443CHOL    C1 3966   5.864  11.845   8.560  0.0461  0.4480  0.2506
  443CHOL    C2 3967   5.495  11.858   8.560 -0.2072 -0.4468  0.0470
  444CHOL   ROH 3968   8.355  13.415   6.530  0.1568  0.0654 -0.0352
  444CHOL    R1 3969   8.311  13.145   6.603  0.0542  0.0832 -0.0306
  444CHOL    R2 3970   8.122  13.070   6.790 -0.0690  0.1462 -0.1328
  444CHOL    R3 3971   8.035  12.908   6.589  0.0090  0.1411 -0.1633
  444CHOL    R4 3972   7.909  12.802   6.833 -0.0650  0.1326 -0.1974
  444CHOL    R5 3973   8.029  12.690   6.689 -0.0070  0.1396 -0.1608
  444CHOL    C1 3974   7.702  12.493   6.670  0.0105  0.1196 -0.2635
  444CHOL    C2 3975   7.626  12.322   7.056 -0.2873  0.0047 -0.1235
  445CHOL   ROH 3976   6.417  14.991   8.312  0.0032 -0.0890  0.0443
  445CHOL    R1 3977   6.553  14.888   8.086 -0.0048 -0.0612  0.0271
  445CHOL    R2 3978   6.542  14.621   8.015 -0.0790 -0.0356 -0.0549
  445CHOL    R3 3979   6.460  14.722   7.776 -0.0230  0.0613 -0.0342
  445CHOL    R4 3980   6.547  14.448   7.716 -0.1965  0.0145 -0.0869
  445CHOL    R5 3981   6.615  14.630   7.617 -0.0835 -0.0079 -0.0551
  445CHOL    C1 3982   6.473  14.441   7.318 -0.2124  0.1346 -0.0860
  445CHOL    C2 3983   6.606  14.499   7.063  0.0633  0.4863  0.1873
  446XCA    COO 3984   9.019  11.851   9.221 -0.0749  0.2176 -0.1840
  446XCA     C1 3985   9.178  11.790   8.814  0.0377 -0.1138 -0.0049
  446XCA     C2 3986   9.283  11.912   8.397  0.0555 -0.5000 -0.0856
  446XCA     C3 3987   9.446  12.102   8.002  0.0805  0.0011 -0.3307
  446XCA     C4 3988   9.642  12.252   7.585  0.1527 -0.3019  0.0415
  446XCA     C5 3989   9.871  12.248   7.109  0.2655  0.0852  0.2179
  446XCA     C6 3990   9.837  11.954   6.764  0.0060  0.3283  0.0962
  447PNCE   AM1 3991   8.363  14.206   9.263  0.2493  0.1676  0.3564
  447PNCE   AM2 3992   8.687  14.034   9.299 -0.0154 -0.1118 -0.3274
  447PNCE   T1A 3993   8.260  14.038   8.827  0.0540 -0.2298 -0.0447
  447PNCE   C2A 3994   8.305  13.878   8.309  0.0883 -0.3183 -0.2575
  447PNCE   C3A 3995   8.475  13.860   7.876 -0.1367  0.2829  0.1412
  447PNCE   C1B 3996   8.694  13.621   8.997  0.0577 -0.0692 -0.2954
  447PNCE   C2B 3997   9.001  13.538   8.719 -0.0399 -0.0105 -0.1262
  447PNCE   C3B 3998   9.102  13.516   8.270  0.1399  0.2817 -0.0483
  447PNCE   D4B 3999   9.400  13.731   7.962  0.2310 -0.0698  0.1705
  447PNCE   C5B 4000   9.760  14.083   7.951 -0.2259  0.0925 -0.0127
  447PNCE   C6B 4001  10.065  14.380   7.883 -0.1026  0.1785 -0.1659
  448PNCE   AM1 4002   7.029   2.597   2.967 -0.0648 -0.0327 -0.0208
  448PNCE   AM2 4003   6.894   2.217   3.040  0.1452  0.1133  0.2709
  448PNCE   T1A 4004   7.120   2.493   3.429 -0.1931  0.2328 -0.1194
  448PNCE   C2A 4005   6.981   2.319   3.888 -0.2380 -0.0514  0.1651
  448PNCE   C3A 4006   7.170   2.140   4.154  0.0004 -0.1307  0.2421
  448PNCE   C1B 4007   7.056   1.978   3.408  0.2903  0.1459  0.1159
  448PNCE   C2B 4008   7.173   1.796   3.727  0.0792 -0.3922  0.1503
  448PNCE   C3B 4009   7.283   1.658   4.096 -0.2597 -0.0794 -0.0024
  448PNCE   D4B 4010   7.138   1.695   4.509 -0.2459 -0.0666 -0.1101
  448PNCE   C5B 4011   7.357   1.911   4.758  0.1756  0.1429 -0.1656
  448PNCE   C6B 4012   7.553   2.270   4.959 -0.0789  0.0869  0.1222
  449CHOL   ROH 4013   8.990   9.898   9.544  0.0082  0.0547 -0.0553
  449CHOL    R1 4014   9.154   9.706   9.417 -0.0131 -0.0379  0.0579
  449CHOL    R2 4015   9.363   9.775   9.250 -0.0315 -0.1588 -0.0094
  449CHOL    R3 4016   9.507   9.617   9.418 -0.0161 -0.0537  0.0796
  449CHOL    R4 4017   9.674   9.644   9.178  0.1323  0.1059  0.1914
  449CHOL    R5 4018   9.612   9.457   9.273  0.2180  0.0423  0.1336
  449CHOL    C1 4019   9.991   9.418   9.294  0.2424  0.3588  0.3918
  449CHOL    C2 4020  10.166   9.047   9.090 -0.1012  0.1680  0.2835
  450PNCE   AM1 4021   1.829   1.208   8.460 -0.4307 -0.0217  0.4038
  450PNCE   AM2 4022   1.566   1.477   8.386  0.2398  0.2426 -0.0234
  450PNCE   T1A 4023   1.864   0.997   8.114  0.3031  0.0388 -0.1166
  450PNCE   C2A 4024   1.835   1.183   7.683 -0.3009  0.2429 -0.0877
  450PNCE   C3A 4025   1.747   1.047   7.197  0.0659  0.0750  0.0648
  450PNCE   C1B 4026   1.471   1.403   7.946  0.0236  0.1138  0.1089
  450PNCE   C2B 4027   1.348   1.158   7.530 -0.1774  0.1531 -0.2318
  450PNCE   C3B 4028   0.959   1.031   7.198 -0.0807 -0.0885  0.1541
  450PNCE   D4B 4029   0.719   0.704   7.230  0.0093  0.4412 -0.0239
  450PNCE   C5B 4030   0.887   0.309   7.339 -0.0780  0.0416  0.0952
  450PNCE   C6B 4031   0.778   0.347   7.750  0.1494  0.2249 -0.1637
  451PNCE   AM1 4032   6.485   2.122   7.126 -0.0504 -0.0347 -0.0155
  451PNCE   AM2 4033   6.260   1.937   7.131 -0.0167  0.0276 -0.2715
  451PNCE   T1A 4034   6.450   2.109   6.598  0.0128 -0.1440 -0.2411
  451PNCE   C2A 4035   6.157   2.227   6.249 -0.1767  0.1579  0.1219
  451PNCE   C3A 4036   6.236   2.231   5.703  0.1859 -0.0331  0.0415
  451PNCE   C1B 4037   6.099   1.722   6.841 -0.0024 -0.1586  0.0654
  451PNCE   C2B 4038   6.233   1.635   6.357  0.0987  0.0498 -0.0559
  451PNCE   C3B 4039   6.050   1.647   5.967  0.0375  0.0036 -0.2553
  451PNCE   D4B 4040   5.816   1.937   5.669 -0.1882  0.1037  0.3266
  451PNCE   C5B 4041   5.961   2.142   5.237  0.3481  0.3515 -0.0455
  451PNCE   C6B 4042   6.012   2.616   5.046 -0.0661 -0.4986  0.3595
  452PNCE   AM1 4043  10.650   5.253   9.025 -0.1126  0.3928  0.0170
  452PNCE   AM2 4044  10.945   5.519   9.087  0.1149 -0.0815 -0.1336
  452PNCE   T1A 4045  10.561   5.165   8.633 -0.0124  0.1808 -0.0056
  452PNCE   C2A 4046  10.859   4.942   8.351  0.0245 -0.1329 -0.0529
  452PNCE   C3A 4047  10.783   4.713   8.004  0.2624  0.0295  0.0190
  452PNCE   C1B 4048  11.044   5.463   8.616  0.0411 -0.0168 -0.1085
  452PNCE   C2B 4049  10.969   5.551   8.153 -0.4585  0.2135 -0.0137
  452PNCE   C3B 4050  11.150   5.844   7.837 -0.1765  0.2225  0.3297
  452PNCE   D4B 4051  11.174   5.993   7.485 -0.1535 -0.0645  0.0093
  452PNCE   C5B 4052  11.520   6.178   7.329 -0.2483 -0.0899 -0.1052
  452PNCE   C6B 4053  11.966   6.045   7.423 -0.1177  0.0924 -0.2341
  453PNCE   AM1 4054   0.375   5.992   8.709  0.2252 -0.0018 -0.1991
  453PNCE   AM2 4055   0.313   6.179   8.978  0.0732  0.0265  0.0913
  453PNCE   T1A 4056   0.409   6.096   8.190 -0.1013 -0.0397 -0.1765
  453PNCE   C2A 4057   0.644   6.080   7.753 -0.1773  0.1538 -0.0526
  453PNCE   C3A 4058   1.090   6.071   7.740  0.0868 -0.2591 -0.1294
  453PNCE   C1B 4059   0.128   6.318   8.466 -0.1625  0.0751 -0.1023
  453PNCE   C2B 4060  -0.158   6.273   8.086  0.0217  0.1090 -0.0858
  453PNCE   C3B 4061  -0.429   6.144   7.819  0.0838 -0.0550 -0.2794
  453PNCE   D4B 4062  -0.449   5.798   7.624 -0.0480 -0.0634  0.0465
  453PNCE   C5B 4063  -0.060   5.669   7.244 -0.0541  0.1329  0.0497
  453PNCE   C6B 4064  -0.136   5.400   6.859 -0.2142  0.3608 -0.0174
  454CHOL   ROH 4065  10.095   4.564   6.358  0.0642 -0.0151 -0.1091
  454CHOL    R1 4066  10.209   4.306   6.341  0.0011 -0.0406 -0.1467
  454CHOL    R2 4067  10.223   4.135   6.558  0.1075 -0.0099 -0.1321
  454CHOL    R3 4068  10.097   3.963   6.390 -0.0363 -0.0127 -0.0240
  454CHOL    R4 4069  10.159   3.802   6.627  0.3458 -0.0590 -0.1398
  454CHOL    R5 4070  10.211   3.755   6.421  0.1029  0.0265 -0.2293
  454CHOL    C1 4071  10.004   3.447   6.509  0.3497 -0.0902 -0.0429
  454CHOL    C2 4072   9.857   3.049   6.450  0.0008  0.1238  0.1074
  455PNCE   AM1 4073   2.144   9.575   8.414 -0.2062  0.1783  0.2723
  455PNCE   AM2 4074   2.275   9.905   8.383 -0.0165  0.0863 -0.1217
  455PNCE   T1A 4075   2.021   9.275   8.008 -0.0049  0.3366 -0.0366
  455PNCE   C2A 4076   1.978   9.150   7.640  0.0856 -0.1644 -0.2322
  455PNCE   C3A 4077   1.900   8.968   7.178 -0.3475 -0.0892 -0.2082
  455PNCE   C1B 4078   2.354   9.675   7.996 -0.0360  0.1914 -0.0960
  455PNCE   C2B 4079   2.372   9.555   7.547  0.0587  0.3014  0.1461
  455PNCE   C3B 4080   2.372   9.175   7.298 -0.2557 -0.2677  0.2052
  455PNCE   D4B 4081   2.581   9.007   6.968  0.1725 -0.0489  0.1884
  455PNCE   C5B 4082   2.968   9.167   6.675 -0.4405  0.0862  0.2473
  455PNCE   C6B 4083   3.345   9.112   6.751  0.3825  0.0533 -0.3062
  456PNCE   AM1 4084   7.841   2.658   6.572  0.3650 -0.1684 -0.0001
  456PNCE   AM2 4085   7.728   2.514   6.756 -0.1641 -0.0387 -0.0767
  456PNCE   T1A 4086   7.813   2.938   6.145 -0.2296  0.0243 -0.1281
  456PNCE   C2A 4087   8.126   2.966   5.943  0.1004  0.1755 -0.2062
  456PNCE   C3A 4088   8.292   3.350   5.776  0.0942  0.2811 -0.0715
  456PNCE   C1B 4089   7.496   2.547   6.239  0.0584 -0.0539 -0.1093
  456PNCE   C2B 4090   7.659   2.612   5.805 -0.1148 -0.1584  0.0938
  456PNCE   C3B 4091   8.048   2.657   5.513  0.0132  0.0219  0.2237
  456PNCE   D4B 4092   8.429   2.356   5.335  0.0130 -0.1540  0.1349
  456PNCE   C5B 4093   8.758   2.109   5.182  0.1557 -0.0335  0.0944
  456PNCE   C6B 4094   8.799   1.837   4.938  0.0264 -0.2742  0.0057
  457PNCE   AM1 4095  10.209   6.756   9.424 -0.0025 -0.2387  0.1976
  457PNCE   AM2 4096  10.330   6.677   9.207  0.2541  0.0806 -0.1315
  457PNCE   T1A 4097  10.360   7.187   9.293 -0.0427 -0.2001  0.3483
  457PNCE   C2A 4098  10.639   7.527   9.416 -0.1882 -0.0274  0.3139
  457PNCE   C3A 4099  10.812   7.764   9.224  0.2831  0.1539  0.0734
  457PNCE   C1B 4100  10.381   6.773   8.770 -0.1364  0.1225  0.1217
  457PNCE   C2B 4101  10.346   7.028   8.363  0.0846  0.1843 -0.2014
  457PNCE   C3B 4102  10.192   6.778   7.986 -0.0503  0.0593 -0.2702
  457PNCE   D4B 4103  10.121   6.287   7.941  0.0140 -0.1136 -0.0615
  457PNCE   C5B 4104  10.409   6.124   7.659  0.0010  0.2075 -0.0502
  457PNCE   C6B 4105  10.511   6.188   7.252  0.0241 -0.0652 -0.1876
  458PNCE   AM1 4106   1.475   8.669   9.091  0.0116  0.2135  0.0609
  458PNCE   AM2 4107   1.635   8.561   8.808 -0.0514 -0.0005  0.0666
  458PNCE   T1A 4108   1.002   8.722   9.079 -0.1856  0.0838 -0.0123
  458PNCE   C2A 4109   0.736   8.816   8.847  0.0197 -0.1114 -0.0487
  458PNCE   C3A 4110   0.379   9.001   8.618 -0.0435  0.0417 -0.0670
  458PNCE   C1B 4111   1.469   8.496   8.378  0.1550  0.1856  0.1181
  458PNCE   C2B 4112   1.211   8.593   7.930  0.0279 -0.2158  0.1788
  458PNCE   C3B 4113   1.074   8.761   7.486 -0.1311  0.0036  0.1448
  458PNCE   D4B 4114   0.896   9.165   7.349  0.3346 -0.1713 -0.0547
  458PNCE   C5B 4115   0.929   9.423   6.960 -0.0261  0.1603  0.1260
  458PNCE   C6B 4116   1.382   9.466   6.748 -0.4178 -0.4714 -0.5738
  459XCA    COO 4117   6.424  10.871   8.603 -0.1163 -0.0306 -0.2147
  459XCA     C1 4118   6.535  10.966   8.191  0.1548  0.0120  0.0091
  459XCA     C2 4119   6.786  11.030   7.882  0.1370  0.0286  0.0406
  459XCA     C3 4120   6.817  11.388   7.624  0.2459  0.0708  0.2848
  459XCA     C4 4121   6.891  11.651   7.297  0.0358  0.0428 -0.2903
  459XCA     C5 4122   7.029  11.982   7.144  0.0595  0.1156 -0.2715
  459XCA     C6 4123   7.180  12.084   6.758  0.0038  0.1696 -0.0461
  460CHOL   ROH 4124  12.656   0.047   7.421  0.1152  0.1260  0.0967
  460CHOL    R1 4125  12.485  -0.020   7.636  0.2291  0.2604  0.2315
  460CHOL    R2 4126  12.345   0.170   7.779 -0.0783  0.3207 -0.1357
  460CHOL    R3 4127  12.131   0.015   7.713  0.1659 -0.1657  0.1589
  460CHOL    R4 4128  12.069   0.118   7.981 -0.1280  0.5213 -0.1502
  460CHOL    R5 4129  12.069  -0.091   7.919  0.1928  0.3257  0.4356
  460CHOL    C1 4130  11.708  -0.057   8.036  0.0724  0.1814  0.1180
  460CHOL    C2 4131  11.427  -0.223   7.946  0.0305  0.2048  0.0660
  461CHOL   ROH 4132   1.265   6.500   8.438  0.0238  0.0256  0.2109
  461CHOL    R1 4133   1.326   6.614   8.186 -0.0162  0.0000  0.1889
  461CHOL    R2 4134   1.569   6.575   8.061  0.0507  0.1686  0.2555
  461CHOL    R3 4135   1.413   6.491   7.855  0.1655 -0.0332  0.2490
  461CHOL    R4 4136   1.660   6.585   7.728  0.1499  0.0257  0.2777
  461CHOL    R5 4137   1.457   6.648   7.680  0.1350 -0.1128  0.1734
  461CHOL    C1 4138   1.567   6.513   7.340  0.3155 -0.2471  0.2843
  461CHOL    C2 4139   1.471   6.442   7.022 -0.0714  0.0777  0.1328
  462CHOL   ROH 4140  13.610  10.706   6.881 -0.0278 -0.0426  0.1420
  462CHOL    R1 4141  13.793  10.510   6.973  0.0391 -0.0079  0.0834
  462CHOL    R2 4142  13.758  10.373   7.211  0.1303 -0.0299  0.0837
  462CHOL    R3 4143  13.783  10.155   7.051  0.1384 -0.0151  0.0647
  462CHOL    R4 4144  13.939  10.090   7.289  0.2388  0.0183  0.0096
  462CHOL    R5 4145  14.009  10.083   7.083  0.1710  0.0481 -0.0151
  462CHOL    C1 4146  14.069   9.720   7.185  0.3095  0.0603 -0.0513
  462CHOL    C2 4147  14.414   9.533   7.123  0.2408 -0.2711 -0.0678
  463CHOL   ROH 4148   7.853  10.687   5.845 -0.0232 -0.2577  0.0047
  463CHOL    R1 4149   7.848  10.765   6.117 -0.0503 -0.2020 -0.0112
  463CHOL    R2 4150   7.617  10.766   6.268 -0.0723 -0.1438 -0.0405
  463CHOL    R3 4151   7.764  10.611   6.435 -0.1118 -0.1289  0.0077
  463CHOL    R4 4152   7.542  10.708   6.600 -0.0105  0.0840  0.0152
  463CHOL    R5 4153   7.755  10.724   6.646  0.0093 -0.0055 -0.0538
  463CHOL    C1 4154   7.637  10.527   6.951 -0.0115  0.2308  0.0927
  463CHOL    C2 4155   7.439  10.485   7.245  0.2863 -0.0736  0.1452
  464CHOL   ROH 4156  14.100  11.125   9.073  0.0405 -0.0121 -0.0334
  464CHOL    R1 4157  14.077  11.014   8.814  0.0164  0.0453 -0.0557
  464CHOL    R2 4158  13.860  11.063   8.650 -0.0432  0.0054  0.0132
  464CHOL    R3 4159  14.051  11.140   8.473 -0.1182  0.1224 -0.0186
  464CHOL    R4 4160  13.834  11.034   8.307  0.0504 -0.3353  0.0312
  464CHOL    R5 4161  14.043  10.973   8.301  0.1439 -0.0471  0.1244
  464CHOL    C1 4162  13.998  11.090   7.941  0.0345 -0.4239  0.0117
  464CHOL    C2 4163  14.044  11.223   7.515  0.0189  0.1523  0.2373
  465XCA    COO 4164  14.779  15.320   8.292 -0.0007  0.1595 -0.1975
  465XCA     C1 4165  14.747  14.883   8.240  0.1060 -0.1493 -0.2741
  465XCA     C2 4166  14.693  14.545   7.876 -0.2764  0.0535  0.0649
  465XCA     C3 4167  14.340  14.317   7.525 -0.3741  0.0811  0.0765
  465XCA     C4 4168  14.374  14.376   7.169  0.0764 -0.0775 -0.0182
  465XCA     C5 4169  14.183  14.485   6.828 -0.0003  0.1607  0.1998
  465XCA     C6 4170  13.974  14.900   6.627  0.3059 -0.1179 -0.1303
  466PNCE   AM1 4171  11.791   2.122   9.098 -0.2204  0.0427  0.0341
  466PNCE   AM2 4172  12.085   2.274   9.044  0.1246  0.1862 -0.1591
  466PNCE   T1A 4173  11.567   1.679   9.054 -0.2663  0.2281  0.2608
  466PNCE   C2A 4174  11.350   1.532   8.634 -0.0711  0.1291  0.0963
  466PNCE   C3A 4175  11.269   1.501   8.144 -0.1335  0.1034 -0.2076
  466PNCE   C1B 4176  11.926   2.432   8.671  0.2719  0.1742  0.0072
  466PNCE   C2B 4177  12.018   2.393   8.229  0.1580 -0.2048 -0.1933
  466PNCE   C3B 4178  12.341   2.202   7.910 -0.1927  0.0729 -0.1502
  466PNCE   D4B 4179  12.707   2.269   7.761 -0.0894  0.2350  0.0875
  466PNCE   C5B 4180  12.677   2.389   7.392 -0.0042 -0.0914  0.0253
  466PNCE   C6B 4181  12.775   2.748   7.350  0.0853  0.0271  0.3531
  467PNCE   AM1 4182   2.931   5.636   8.400 -0.1080  0.1742  0.0003
  467PNCE   AM2 4183   2.677   5.444   8.191  0.2043  0.0088  0.0592
  467PNCE   T1A 4184   2.794   5.940   8.063 -0.1154 -0.2758 -0.1169
  467PNCE   C2A 4185   2.651   6.359   7.868 -0.0993  0.0468 -0.3563
  467PNCE   C3A 4186   2.455   6.675   7.762  0.1022 -0.0829  0.4241
  467PNCE   C1B 4187   2.305   5.498   7.894  0.2968  0.0485 -0.0525
  467PNCE   C2B 4188   1.871   5.314   7.845 -0.1371  0.0026  0.1668
  467PNCE   C3B 4189   1.524   5.044   7.876 -0.1512 -0.1233  0.1703
  467PNCE   D4B 4190   1.171   4.883   7.622  0.1493  0.1256 -0.0283
  467PNCE   C5B 4191   0.917   4.614   7.729  0.4213  0.3020 -0.2797
  467PNCE   C6B 4192   0.550   4.434   7.509  0.0866  0.0220  0.0624
  468XCA    COO 4193   4.535   0.425   4.194 -0.0173  0.2175  0.2741
  468XCA     C1 4194   4.782   0.636   4.502  0.0084  0.3336  0.3123
  468XCA     C2 4195   5.115   0.802   4.764 -0.1165 -0.4035  0.0402
  468XCA     C3 4196   5.208   0.932   5.192  0.0051 -0.1524  0.0190
  468XCA     C4 4197   5.317   0.902   5.592 -0.0837 -0.3487 -0.4076
  468XCA     C5 4198   5.609   0.675   5.835 -0.2411 -0.2040 -0.0662
  468XCA     C6 4199   5.797   0.290   5.969  0.3891  0.2126 -0.2787
  469PNCE   AM1 4200   5.733   2.973   8.082 -0.3702  0.1628 -0.0132
  469PNCE   AM2 4201   5.425   2.782   8.033 -0.2835  0.0868 -0.0056
  469PNCE   T1A 4202   5.648   2.993   7.607 -0.2536 -0.0129 -0.0737
  469PNCE   C2A 4203   5.758   2.918   7.202  0.1213  0.2053  0.0710
  469PNCE   C3A 4204   5.612   2.768   6.760  0.1289 -0.1133  0.0619
  469PNCE   C1B 4205   5.332   2.668   7.647  0.0602 -0.2792 -0.1711
  469PNCE   C2B 4206   5.256   2.731   7.233 -0.1009 -0.1401  0.1566
  469PNCE   C3B 4207   5.116   2.740   6.831  0.1838 -0.0671 -0.2620
  469PNCE   D4B 4208   5.109   2.590   6.441 -0.1811  0.1645 -0.0292
  469PNCE   C5B 4209   5.494   2.471   6.289 -0.0667  0.1249 -0.2197
  469PNCE   C6B 4210   5.650   2.118   6.053 -0.1985  0.1548 -0.1516
  470XCA    COO 4211   1.259   7.648   8.819 -0.2413 -0.0960  0.0043
  470XCA     C1 4212   1.333   7.558   8.410 -0.3133  0.0379  0.2315
  470XCA     C2 4213   1.320   7.140   8.172 -0.1463  0.1777  0.0586
  470XCA     C3 4214   1.232   7.014   7.760 -0.0560 -0.1309 -0.0377
  470XCA     C4 4215   1.317   6.885   7.285 -0.3412  0.0235  0.1359
  470XCA     C5 4216   1.416   6.993   6.948 -0.3105  0.3442  0.3317
  470XCA     C6 4217   1.611   7.121   6.552  0.3316  0.0194  0.2819
  471XCA    COO 4218  15.353   4.922   9.122  0.0447 -0.2891  0.1043
  471XCA     C1 4219  15.358   4.781   8.610  0.0310  0.3194  0.0316
  471XCA     C2 4220  15.466   4.901   8.209  0.1610  0.2370  0.0439
  471XCA     C3 4221  15.134   5.186   7.919  0.2944 -0.1930  0.1170
  471XCA     C4 4222  15.215   5.329   7.466  0.1955 -0.0511  0.0542
  471XCA     C5 4223  15.207   5.158   6.982  0.0400 -0.1139 -0.0341
  471XCA     C6 4224  15.319   5.102   6.545 -0.3809  0.2453  0.2768
  472PNCE   AM1 4225   4.979   7.302   7.939  0.1493  0.0581  0.1947
  472PNCE   AM2 4226   5.205   7.471   8.094  0.0144  0.0366  0.0774
  472PNCE   T1A 4227   4.729   6.957   7.680  0.2539 -0.1436 -0.0807
  472PNCE   C2A 4228   4.366   6.759   7.786 -0.0199  0.0538 -0.0400
  472PNCE   C3A 4229   4.077   6.376   7.990  0.1059 -0.1108 -0.0674
  472PNCE   C1B 4230   5.522   7.317   7.801 -0.0692 -0.2575  0.2555
  472PNCE   C2B 4231   5.774   7.545   7.398  0.0303  0.0919  0.3176
  472PNCE   C3B 4232   5.745   7.368   7.075 -0.0628 -0.0816 -0.1855
  472PNCE   D4B 4233   5.844   6.982   6.905  0.0776 -0.2403 -0.2020
  472PNCE   C5B 4234   5.945   6.910   6.490  0.1117  0.3399 -0.0835
  472PNCE   C6B 4235   5.972   6.679   6.067  0.0200 -0.0661 -0.1091
  473PNCE   AM1 4236   9.067   8.336   9.433 -0.2903  0.0096 -0.2619
  473PNCE   AM2 4237   8.911   8.236   9.128  0.3448  0.0373 -0.0291
  473PNCE   T1A 4238   8.968   8.730   9.163 -0.0159  0.1256  0.2423
  473PNCE   C2A 4239   8.839   8.949   8.753 -0.3615 -0.1564  0.1470
  473PNCE   C3A 4240   8.512   8.894   8.407  0.1271  0.1836  0.2060
  473PNCE   C1B 4241   8.947   8.309   8.731  0.0841  0.2489  0.0591
  473PNCE   C2B 4242   8.896   8.546   8.442 -0.1152 -0.1338 -0.0035
  473PNCE   C3B 4243   9.010   8.969   8.260  0.0367 -0.2100  0.3062
  473PNCE   D4B 4244   9.298   9.289   8.132 -0.0164  0.0264 -0.2308
  473PNCE   C5B 4245   9.179   9.750   8.160  0.0583 -0.0602 -0.1437
  473PNCE   C6B 4246   8.937  10.061   8.169 -0.1730 -0.2170 -0.0346
  474PNCE   AM1 4247  11.885  12.803   9.115  0.1580 -0.3240 -0.1661
  474PNCE   AM2 4248  12.052  13.106   8.884 -0.0707 -0.0372 -0.1163
  474PNCE   T1A 4249  11.682  12.506   8.982  0.0137  0.1961 -0.1528
  474PNCE   C2A 4250  11.345  12.269   8.831 -0.1189  0.1121  0.1280
  474PNCE   C3A 4251  10.969  12.294   8.624  0.0627  0.1299  0.4607
  474PNCE   C1B 4252  11.917  12.955   8.496 -0.1468  0.0666  0.0478
  474PNCE   C2B 4253  11.768  12.899   8.121 -0.0112 -0.2135 -0.0041
  474PNCE   C3B 4254  11.476  12.650   7.894  0.2042  0.3056 -0.1577
  474PNCE   D4B 4255  11.252  12.632   7.451  0.0873  0.0620 -0.1461
  474PNCE   C5B 4256  10.898  12.586   7.437 -0.2419  0.1445  0.0740
  474PNCE   C6B 4257  10.627  12.598   7.634 -0.1866  0.0153  0.0057
  475XCA    COO 4258   8.058  10.382   9.466  0.3437 -0.1752  0.0510
  475XCA     C1 4259   8.309  10.510   9.137  0.0458 -0.0124  0.3256
  475XCA     C2 4260   8.744  10.616   8.891  0.2422 -0.1737 -0.0550
  475XCA     C3 4261   9.048  10.270   8.659 -0.2991 -0.0452 -0.0201
  475XCA     C4 4262   9.344  10.290   8.390  0.0280  0.0174  0.0822
  475XCA     C5 4263   9.367  10.316   7.951  0.1535 -0.3946 -0.1525
  475XCA     C6 4264   9.410  10.393   7.527 -0.2310  0.1672 -0.2326
  476PNCE   AM1 4265  14.734   1.645   8.567 -0.0409 -0.2955  0.0517
  476PNCE   AM2 4266  14.885   1.855   8.756  0.1054  0.1434 -0.1465
  476PNCE   T1A 4267  14.671   1.646   8.188 -0.1091  0.2207 -0.0774
  476PNCE   C2A 4268  14.539   1.627   7.757 -0.4905  0.0860  0.2557
  476PNCE   C3A 4269  14.514   1.679   7.300  0.0098  0.0866  0.5356
  476PNCE   C1B 4270  15.017   1.984   8.306 -0.0513  0.2594  0.0212
  476PNCE   C2B 4271  15.144   1.912   7.794  0.3209  0.1130 -0.0664
  476PNCE   C3B 4272  15.218   2.092   7.313  0.1827  0.3575 -0.1850
  476PNCE   D4B 4273  15.200   1.969   6.870  0.0523  0.0833  0.4265
  476PNCE   C5B 4274  14.925   2.007   6.551  0.1041  0.3296  0.1422
  476PNCE   C6B 4275  14.594   2.164   6.399 -0.0061  0.0335 -0.0887
  477CHOL   ROH 4276   9.818   1.936   4.350 -0.0859  0.0996  0.0456
  477CHOL    R1 4277   9.643   1.974   4.569 -0.3058 -0.0140 -0.1070
  477CHOL    R2 4278   9.630   2.212   4.709 -0.1190 -0.2259  0.2769
  477CHOL    R3 4279   9.365   2.195   4.650 -0.0833  0.2678 -0.0900
  477CHOL    R4 4280   9.382   2.400   4.859 -0.0376 -0.3067  0.5182
  477CHOL    R5 4281   9.256   2.223   4.861 -0.2815 -0.1754 -0.1184
  477CHOL    C1 4282   8.990   2.495   4.891  0.0432  0.1098  0.3143
  477CHOL    C2 4283   8.745   2.642   5.065  0.1026 -0.2098 -0.0876
  478CHOL   ROH 4284   5.834   1.317   7.193  0.1129 -0.0693 -0.1108
  478CHOL    R1 4285   5.743   1.300   6.925 -0.0683 -0.1604 -0.0451
  478CHOL    R2 4286   5.902   1.365   6.709 -0.3095  0.0617 -0.1616
  478CHOL    R3 4287   5.835   1.116   6.625 -0.0579 -0.0190 -0.1302
  478CHOL    R4 4288   5.919   1.257   6.382 -0.2797  0.0678 -0.1618
  478CHOL    R5 4289   5.730   1.151   6.413 -0.1578 -0.1413 -0.1036
  478CHOL    C1 4290   5.865   0.959   6.112 -0.0260 -0.0043 -0.1324
  478CHOL    C2 4291   5.757   1.145   5.779 -0.2598 -0.0045  0.4159
  479XCA    COO 4292  12.471  11.298   9.182  0.0968 -0.3760 -0.2290
  479XCA     C1 4293  12.806  11.406   9.096 -0.0403 -0.2215 -0.1430
  479XCA     C2 4294  13.213  11.280   8.854 -0.1968 -0.1058 -0.2366
  479XCA     C3 4295  13.486  11.301   8.554 -0.0154 -0.1075 -0.1373
  479XCA     C4 4296  13.466  11.234   8.036  0.0529  0.1645  0.0264
  479XCA     C5 4297  13.380  11.065   7.601 -0.2358 -0.0456  0.1943
  479XCA     C6 4298  13.039  10.881   7.507  0.3243  0.3329 -0.0193
  480CHOL   ROH 4299   2.451   3.682   4.540  0.2011 -0.2364  0.0029
  480CHOL    R1 4300   2.592   3.611   4.775  0.3121 -0.1568 -0.0371
  480CHOL    R2 4301   2.825   3.738   4.853  0.1669  0.1080 -0.0032
  480CHOL    R3 4302   2.689   3.774   5.086  0.1306 -0.1571  0.0189
  480CHOL    R4 4303   2.967   3.843   5.150 -0.0283  0.6713 -0.0978
  480CHOL    R5 4304   2.841   3.699   5.255  0.4065  0.3572  0.0137
  480CHOL    C1 4305   2.923   3.938   5.541 -0.1761  0.7503 -0.1323
  480CHOL    C2 4306   3.276   3.994   5.630 -0.0215 -0.1928 -0.1428
  481CHOL   ROH 4307  12.551  14.473   8.101 -0.1905  0.3120  0.1527
  481CHOL    R1 4308  12.435  14.339   7.881 -0.0313  0.0806  0.2049
  481CHOL    R2 4309  12.166  14.278   7.869 -0.0376  0.1306  0.0446
  481CHOL    R3 4310  12.179  14.412   7.632  0.1970 -0.1469 -0.1040
  481CHOL    R4 4311  11.994  14.188   7.583 -0.1415  0.0691  0.1264
  481CHOL    R5 4312  12.173  14.238   7.467 -0.0450 -0.3284  0.0871
  481CHOL    C1 4313  11.907  14.261   7.194  0.0183 -0.2270  0.0346
  481CHOL    C2 4314  11.587  14.071   7.006 -0.0759  0.3064 -0.0508
  482PNCE   AM1 4315   5.051   3.712   7.937 -0.2426  0.1798  0.0154
  482PNCE   AM2 4316   5.350   3.593   8.032 -0.0151 -0.1659  0.1106
  482PNCE   T1A 4317   4.933   3.894   7.619 -0.1457  0.0392  0.0847
  482PNCE   C2A 4318   4.959   4.140   7.156  0.1582  0.0052  0.0073
  482PNCE   C3A 4319   4.909   4.173   6.702  0.2123 -0.1992  0.0228
  482PNCE   C1B 4320   5.254   3.217   7.789 -0.0686 -0.0030  0.0007
  482PNCE   C2B 4321   5.112   3.197   7.343  0.0997 -0.0722  0.1386
  482PNCE   C3B 4322   5.014   3.206   6.925 -0.2588 -0.1797  0.2571
  482PNCE   D4B 4323   4.701   3.398   6.659  0.0009  0.0668  0.0380
  482PNCE   C5B 4324   4.394   3.187   6.445  0.1169 -0.1040 -0.2365
  482PNCE   C6B 4325   4.179   2.843   6.530 -0.0018 -0.0035  0.1391
  483PNCE   AM1 4326   9.413   6.242   7.953  0.3217  0.0141 -0.1286
  483PNCE   AM2 4327   9.670   6.318   7.713  0.0697  0.1858 -0.3358
  483PNCE   T1A 4328   9.320   6.644   7.894  0.2109  0.1658  0.0145
  483PNCE   C2A 4329   9.531   7.001   7.817 -0.0891  0.0231  0.0695
  483PNCE   C3A 4330   9.677   7.397   7.553  0.0453  0.1264 -0.1528
  483PNCE   C1B 4331   9.802   6.607   7.782 -0.1416 -0.0673  0.1444
  483PNCE   C2B 4332  10.000   6.954   7.579  0.1816 -0.0420  0.1404
  483PNCE   C3B 4333  10.170   7.214   7.253 -0.0640  0.2997 -0.3228
  483PNCE   D4B 4334  10.160   7.588   6.970  0.0365 -0.2223 -0.0362
  483PNCE   C5B 4335   9.899   7.577   6.665 -0.1678  0.0785  0.0624
  483PNCE   C6B 4336   9.952   7.618   6.157  0.1693  0.2814  0.2473
  484PNCE   AM1 4337   9.861  10.392   9.644 -0.1022 -0.0744 -0.0590
  484PNCE   AM2 4338  10.160  10.565   9.767  0.2141 -0.1522 -0.2044
  484PNCE   T1A 4339   9.630  10.294   9.358 -0.2123  0.1325 -0.2336
  484PNCE   C2A 4340   9.233  10.227   9.213  0.0200  0.1518  0.0520
  484PNCE   C3A 4341   8.882  10.253   9.232 -0.0088  0.1021  0.0783
  484PNCE   C1B 4342  10.170  10.540   9.342 -0.2358  0.0133 -0.0445
  484PNCE   C2B 4343  10.197  10.213   9.153 -0.2516  0.0119  0.2102
  484PNCE   C3B 4344   9.960   9.984   8.902  0.2054  0.3357 -0.4180
  484PNCE   D4B 4345   9.760   9.631   8.657  0.2875 -0.0869  0.1627
  484PNCE   C5B 4346   9.740   9.352   8.228  0.1677 -0.1566  0.1758
  484PNCE   C6B 4347   9.973   9.097   7.905  0.0128  0.0919 -0.3722
  485PNCE   AM1 4348   0.994  10.462   8.847 -0.1859  0.1285 -0.1292
  485PNCE   AM2 4349   0.952  10.175   8.992  0.0543 -0.0863 -0.1602
  485PNCE   T1A 4350   0.830  10.668   8.499 -0.0110 -0.2440 -0.2602
  485PNCE   C2A 4351   0.850  10.710   8.010  0.2427  0.4298  0.1045
  485PNCE   C3A 4352   0.758  10.530   7.634 -0.0343  0.2882  0.0531
  485PNCE   C1B 4353   0.802  10.017   8.594 -0.0083 -0.1162 -0.1638
  485PNCE   C2B 4354   0.817  10.199   8.089  0.1276  0.2730 -0.0628
  485PNCE   C3B 4355   1.063  10.140   7.732 -0.2132  0.0753 -0.1711
  485PNCE   D4B 4356   0.807  10.160   7.267 -0.2042  0.0155  0.1296
  485PNCE   C5B 4357   0.803   9.883   6.958  0.1228  0.0670 -0.0346
  485PNCE   C6B 4358   0.637   9.734   6.569  0.1114 -0.1068 -0.2098
  486PNCE   AM1 4359  12.606  14.154   9.063  0.1193  0.1077  0.0874
  486PNCE   AM2 4360  12.802  14.049   8.817 -0.0519 -0.1476 -0.0014
  486PNCE   T1A 4361  12.192  14.255   8.884 -0.1343  0.0101 -0.1519
  486PNCE   C2A 4362  11.827  14.527   8.734 -0.3459 -0.0791  0.0405
  486PNCE   C3A 4363  11.424  14.583   8.402  0.0160  0.0735  0.1278
  486PNCE   C1B 4364  12.563  14.153   8.475 -0.1249 -0.0285  0.2749
  486PNCE   C2B 4365  12.071  14.323   8.278 -0.1367  0.2780 -0.3143
  486PNCE   C3B 4366  11.763  14.631   8.048  0.3484 -0.0739 -0.1829
  486PNCE   D4B 4367  11.334  14.703   7.866  0.1687 -0.2193  0.0631
  486PNCE   C5B 4368  11.213  15.109   7.693  0.1731  0.1353  0.2160
  486PNCE   C6B 4369  11.452  15.304   7.322 -0.1489  0.1277 -0.0350
  487PNCE   AM1 4370   3.455   1.287   7.397  0.3843  0.0681  0.0782
  487PNCE   AM2 4371   3.418   0.937   7.541  0.1328 -0.3011 -0.0376
  487PNCE   T1A 4372   3.662   1.486   7.007 -0.0119 -0.1691 -0.3954
  487PNCE   C2A 4373   3.949   1.547   6.707  0.3589  0.1872  0.1621
  487PNCE   C3A 4374   4.000   1.213   6.466 -0.0033 -0.0428  0.2992
  487PNCE   C1B 4375   3.171   0.824   7.175 -0.0513  0.1727 -0.2705
  487PNCE   C2B 4376   3.235   0.578   6.823 -0.0680  0.2311 -0.0697
  487PNCE   C3B 4377   3.506   0.304   6.590  0.1484 -0.1896  0.2365
  487PNCE   D4B 4378   3.802   0.381   6.281  0.1572  0.0068 -0.0234
  487PNCE   C5B 4379   4.115   0.074   6.299 -0.3061 -0.2918 -0.1222
  487PNCE   C6B 4380   4.361   0.177   6.607 -0.0360  0.0424  0.3405
  488PNCE   AM1 4381  12.075   1.826   4.970 -0.1025 -0.3654 -0.1305
  488PNCE   AM2 4382  11.849   2.010   4.989  0.3160 -0.1087  0.2147
  488PNCE   T1A 4383  12.192   1.834   5.406 -0.1589 -0.1969  0.1943
  488PNCE   C2A 4384  12.160   1.753   5.889 -0.2458 -0.1486  0.3363
  488PNCE   C3A 4385  11.890   1.732   6.271  0.1364  0.1459  0.1567
  488PNCE   C1B 4386  11.866   2.249   5.415  0.0647  0.2380  0.1935
  488PNCE   C2B 4387  12.024   2.266   5.772  0.1273  0.2879  0.1819
  488PNCE   C3B 4388  12.036   2.202   6.192  0.2432  0.0438  0.0421
  488PNCE   D4B 4389  11.892   2.352   6.632 -0.1166  0.0010 -0.0260
  488PNCE   C5B 4390  11.738   2.215   7.068 -0.2189  0.1320 -0.0682
  488PNCE   C6B 4391  11.388   2.113   7.365 -0.1077  0.2320 -0.0566
  489XCA    COO 4392   3.578   2.735   8.155  0.1255 -0.1362  0.0341
  489XCA     C1 4393   3.209   2.522   7.893 -0.0221 -0.2109 -0.0283
  489XCA     C2 4394   3.061   2.892   7.600 -0.0288 -0.1943  0.0322
  489XCA     C3 4395   2.948   2.795   7.173 -0.1071 -0.0874  0.2044
  489XCA     C4 4396   2.578   2.714   6.907 -0.2955 -0.1565 -0.2920
  489XCA     C5 4397   2.246   2.644   6.550 -0.2252  0.1210 -0.0708
  489XCA     C6 4398   2.393   2.276   6.296 -0.1178 -0.1728 -0.0684
  490CHOL   ROH 4399  11.192   5.179   8.069  0.0344 -0.0509 -0.0407
  490CHOL    R1 4400  11.404   5.347   7.989  0.0811 -0.0987 -0.0139
  490CHOL    R2 4401  11.456   5.590   8.111  0.0855 -0.0904 -0.0436
  490CHOL    R3 4402  11.705   5.485   8.141  0.0653 -0.1186  0.0386
  490CHOL    R4 4403  11.742   5.775   8.169  0.0886 -0.1143  0.0239
  490CHOL    R5 4404  11.849   5.643   8.032  0.1149 -0.1414  0.0639
  490CHOL    C1 4405  12.142   5.785   8.231  0.0716 -0.1547  0.1403
  490CHOL    C2 4406  12.503   5.954   8.101 -0.0230 -0.1341  0.3637
  491CHOL   ROH 4407  14.632   5.772   5.826 -0.3778  0.1004  0.0447
  491CHOL    R1 4408  14.740   5.553   5.970 -0.2321  0.1033 -0.0586
  491CHOL    R2 4409  14.899   5.586   6.194 -0.0501  0.1074 -0.1857
  491CHOL    R3 4410  14.715   5.421   6.309  0.0618  0.0775 -0.0454
  491CHOL    R4 4411  14.966   5.363   6.449  0.1113  0.3127 -0.0446
  491CHOL    R5 4412  14.836   5.218   6.350  0.1794  0.1726  0.0738
  491CHOL    C1 4413  14.833   5.078   6.705  0.3103  0.4040  0.1693
  491CHOL    C2 4414  15.144   4.705   6.804  0.0118 -0.0868  0.1329
  492CHOL   ROH 4415   2.698   1.896   4.649 -0.0584 -0.1558 -0.1008
  492CHOL    R1 4416   2.770   1.728   4.866  0.1429 -0.1221 -0.1391
  492CHOL    R2 4417   3.030   1.708   4.958  0.1656  0.2096 -0.1056
  492CHOL    R3 4418   2.916   1.771   5.197  0.0363 -0.0129 -0.1073
  492CHOL    R4 4419   3.180   1.664   5.266 -0.0584 -0.1873 -0.0478
  492CHOL    R5 4420   2.987   1.597   5.344 -0.1313 -0.2011 -0.2489
  492CHOL    C1 4421   3.160   1.697   5.670 -0.3103 -0.6273 -0.0157
  492CHOL    C2 4422   3.262   1.873   5.917  0.1054  0.3061 -0.0383
  493PNCE   AM1 4423  12.697   9.407   9.826  0.2253 -0.0851 -0.0219
  493PNCE   AM2 4424  12.924   9.168   9.778  0.0344 -0.2616 -0.0045
  493PNCE   T1A 4425  12.385   9.010   9.731 -0.3907 -0.1123 -0.2357
  493PNCE   C2A 4426  11.941   8.970   9.529  0.1807  0.3179 -0.2439
  493PNCE   C3A 4427  11.586   9.004   9.277 -0.4656  0.0569  0.1059
  493PNCE   C1B 4428  12.746   9.205   9.358  0.0991  0.2638  0.1590
  493PNCE   C2B 4429  12.369   9.128   9.096  0.2773 -0.2111  0.2883
  493PNCE   C3B 4430  11.995   9.043   9.009  0.1429  0.1914 -0.0352
  493PNCE   D4B 4431  11.687   9.164   8.790  0.1530  0.0121  0.3312
  493PNCE   C5B 4432  11.267   9.089   8.812  0.3162 -0.0863 -0.4810
  493PNCE   C6B 4433  11.077   9.169   9.148  0.1780 -0.0540  0.4373
  494XCA    COO 4434   2.316  11.746   4.558 -0.1204  0.3443 -0.2376
  494XCA     C1 4435   2.119  11.807   5.043  0.1241 -0.0338 -0.1038
  494XCA     C2 4436   1.808  11.842   5.320  0.2096  0.1500 -0.0465
  494XCA     C3 4437   1.700  11.661   5.710  0.2092 -0.0598 -0.1225
  494XCA     C4 4438   1.632  11.686   6.158 -0.2484  0.0936 -0.1501
  494XCA     C5 4439   1.727  11.891   6.506  0.1994  0.1559 -0.0211
  494XCA     C6 4440   2.111  12.216   6.399  0.1044  0.1803 -0.1809
  495CHOL   ROH 4441  14.409   2.417   7.223  0.1417 -0.0560  0.2223
  495CHOL    R1 4442  14.620   2.486   7.048  0.1510 -0.0336  0.2413
  495CHOL    R2 4443  14.884   2.490   7.128  0.1537 -0.0772  0.2467
  495CHOL    R3 4444  14.918   2.323   6.917  0.1366 -0.0314  0.2086
  495CHOL    R4 4445  15.163   2.485   6.925  0.0391  0.1159  0.0814
  495CHOL    R5 4446  15.031   2.457   6.753 -0.0412  0.0537  0.1570
  495CHOL    C1 4447  15.358   2.324   6.607 -0.0437  0.2713 -0.0505
  495CHOL    C2 4448  15.733   2.352   6.534  0.0859 -0.2536 -0.3148
  496XCA    COO 4449  14.338   2.518   8.689  0.2555 -0.2591 -0.0635
  496XCA     C1 4450  14.240   2.406   8.314  0.0532 -0.1449 -0.1077
  496XCA     C2 4451  14.135   2.427   7.882 -0.2925  0.3166  0.3382
  496XCA     C3 4452  14.047   2.555   7.521  0.1283  0.0518  0.0885
  496XCA     C4 4453  13.923   2.405   7.127 -0.2763  0.0108 -0.0993
  496XCA     C5 4454  13.879   2.251   6.738  0.1313 -0.0734 -0.0765
  496XCA     C6 4455  13.666   1.932   6.577 -0.4072  0.1407 -0.0702
  497PNCE   AM1 4456  15.336  11.747   8.941  0.2044  0.1500  0.2796
  497PNCE   AM2 4457  15.696  11.709   8.972 -0.0598  0.1319 -0.3640
  497PNCE   T1A 4458  14.995  11.570   8.685  0.4988 -0.0371  0.1813
  497PNCE   C2A 4459  14.802  11.601   8.294 -0.3310  0.0531 -0.0710
  497PNCE   C3A 4460  14.887  11.483   7.950 -0.0210  0.0034  0.0256
  497PNCE   C1B 4461  15.855  11.767   8.634 -0.1278 -0.1361  0.0536
  497PNCE   C2B 4462  15.944  11.981   8.262  0.3026 -0.0703  0.0232
  497PNCE   C3B 4463  15.770  11.834   7.978 -0.1571  0.0882  0.1522
  497PNCE   D4B 4464  15.862  11.710   7.554 -0.2358  0.2561  0.0111
  497PNCE   C5B 4465  15.899  11.948   7.284  0.0758 -0.1779  0.1077
  497PNCE   C6B 4466  15.996  12.067   6.913  0.2226  0.0863 -0.0988
  498CHOL   ROH 4467   7.666   1.683   6.628 -0.0482 -0.0936  0.1058
  498CHOL    R1 4468   7.584   1.507   6.422  0.0413 -0.0412  0.0240
  498CHOL    R2 4469   7.598   1.574   6.154  0.2117  0.0058  0.0428
  498CHOL    R3 4470   7.739   1.342   6.137  0.1808 -0.0160  0.0849
  498CHOL    R4 4471   7.677   1.411   5.860  0.0998 -0.1147  0.0785
  498CHOL    R5 4472   7.635   1.222   5.959  0.1106 -0.0727  0.1636
  498CHOL    C1 4473   7.855   1.099   5.672  0.0056 -0.2054  0.1387
  498CHOL    C2 4474   7.613   0.828   5.439 -0.1136  0.4644 -0.0789
  499PNCE   AM1 4475   6.331   0.412   7.968 -0.3192  0.0246 -0.4031
  499PNCE   AM2 4476   5.985   0.423   7.747  0.0214  0.2837 -0.3226
  499PNCE   T1A 4477   6.396   0.114   7.642  0.1880  0.0898  0.1238
  499PNCE   C2A 4478   6.462   0.037   7.147 -0.0373  0.1275 -0.1786
  499PNCE   C3A 4479   6.313  -0.084   6.689 -0.0437 -0.1498  0.1383
  499PNCE   C1B 4480   5.976   0.073   7.413  0.0249 -0.1229 -0.0581
  499PNCE   C2B 4481   6.130  -0.320   7.348 -0.1474 -0.0901  0.1383
  499PNCE   C3B 4482   6.180  -0.492   6.906 -0.1922 -0.0449  0.0311
  499PNCE   D4B 4483   5.866  -0.430   6.552  0.0144 -0.1842 -0.1096
  499PNCE   C5B 4484   5.480  -0.302   6.577 -0.0182 -0.0111  0.3111
  499PNCE   C6B 4485   5.095  -0.334   6.547 -0.0555  0.1291  0.1657
  500PNCE   AM1 4486   3.853   8.881   8.423 -0.1018  0.2828  0.0357
  500PNCE   AM2 4487   4.058   8.857   8.284  0.1846  0.2708  0.0002
  500PNCE   T1A 4488   3.605   8.915   8.040 -0.3266  0.2670 -0.1180
  500PNCE   C2A 4489   3.587   9.083   7.618 -0.1643 -0.1140  0.2188
  500PNCE   C3A 4490   3.668   9.196   7.210  0.0878 -0.3208 -0.0804
  500PNCE   C1B 4491   4.033   9.214   7.912 -0.0555 -0.2124 -0.0230
  500PNCE   C2B 4492   3.868   9.528   7.692  0.0559 -0.0397 -0.3450
  500PNCE   C3B 4493   3.625   9.685   7.337  0.1267  0.2671  0.2095
  500PNCE   D4B 4494   3.394  10.041   6.993 -0.1235  0.2293  0.1426
  500PNCE   C5B 4495   3.048   9.958   6.798  0.1307  0.3115  0.1709
  500PNCE   C6B 4496   2.733   9.557   6.782  0.2067  0.0566  0.0657
  501PNCE   AM1 4497   5.152  11.047   8.883 -0.0880  0.0656 -0.0744
  501PNCE   AM2 4498   5.036  11.325   8.647 -0.0445 -0.0865 -0.3357
  501PNCE   T1A 4499   5.272  10.922   8.520 -0.0666  0.2271 -0.3010
  501PNCE   C2A 4500   5.544  10.991   8.195  0.1103 -0.1200 -0.1637
  501PNCE   C3A 4501   5.645  11.331   7.925  0.3222  0.0250 -0.0247
  501PNCE   C1B 4502   5.261  11.540   8.238 -0.1009 -0.0112  0.0559
  501PNCE   C2B 4503   5.562  11.820   7.987 -0.2481 -0.1012 -0.1079
  501PNCE   C3B 4504   5.990  11.772   7.978 -0.1166  0.2334 -0.1360
  501PNCE   D4B 4505   6.277  11.530   8.083  0.2938 -0.2231 -0.0379
  501PNCE   C5B 4506   6.686  11.484   8.163 -0.0665  0.2932 -0.1688
  501PNCE   C6B 4507   7.045  11.224   8.266 -0.2501 -0.2274  0.3097
  502PNCE   AM1 4508  12.717   0.304   8.099 -0.1515 -0.2152 -0.2065
  502PNCE   AM2 4509  12.667   0.439   8.373 -0.0450 -0.0332  0.1454
  502PNCE   T1A 4510  12.757   0.530   7.755  0.2589  0.0932  0.3768
  502PNCE   C2A 4511  12.667   0.625   7.343  0.3659  0.0183 -0.2818
  502PNCE   C3A 4512  12.347   0.592   6.972 -0.0031 -0.2078 -0.0214
  502PNCE   C1B 4513  12.316   0.586   8.037 -0.1971 -0.0304  0.0921
  502PNCE   C2B 4514  12.100   0.558   7.620 -0.0377 -0.0433 -0.0542
  502PNCE   C3B 4515  12.187   0.901   7.344 -0.1200  0.2744 -0.1378
  502PNCE   D4B 4516  12.233   1.069   7.065  0.2376  0.2149  0.2089
  502PNCE   C5B 4517  12.046   0.854   6.625  0.2487 -0.0160 -0.2359
  502PNCE   C6B 4518  12.402   0.796   6.453  0.0855 -0.0158 -0.0960
  503CHOL   ROH 4519   7.390  14.690   4.169 -0.1025 -0.0864 -0.1742
  503CHOL    R1 4520   7.352  14.896   4.358  0.0693 -0.0680 -0.1571
  503CHOL    R2 4521   7.101  14.975   4.444  0.1345  0.1006 -0.1121
  503CHOL    R3 4522   7.205  14.927   4.690  0.1425  0.0154 -0.1324
  503CHOL    R4 4523   7.035  15.163   4.726  0.0907 -0.0389 -0.0289
  503CHOL    R5 4524   7.245  15.145   4.781  0.0932 -0.0166 -0.0355
  503CHOL    C1 4525   7.095  15.227   5.122  0.0728 -0.2003  0.0004
  503CHOL    C2 4526   7.327  15.451   5.320  0.3059  0.1162 -0.2116
  504CHOL   ROH 4527   9.946   1.695   7.813 -0.0648  0.0373 -0.1359
  504CHOL    R1 4528  10.168   1.559   7.703 -0.0084  0.0543 -0.0419
  504CHOL    R2 4529  10.208   1.534   7.431  0.1139  0.0687 -0.0230
  504CHOL    R3 4530  10.450   1.642   7.489  0.0853  0.0774  0.0880
  504CHOL    R4 4531  10.460   1.588   7.201  0.1317  0.2926  0.0453
  504CHOL    R5 4532  10.604   1.521   7.350  0.1280  0.2102  0.0153
  504CHOL    C1 4533  10.835   1.721   7.121  0.1152  0.4312  0.1893
  504CHOL    C2 4534  11.149   1.976   6.984  0.0368 -0.0967  0.1277
  505CHOL   ROH 4535  11.942  15.597   5.314 -0.2485 -0.1488 -0.0812
  505CHOL    R1 4536  12.035  15.607   5.582 -0.1004 -0.0037 -0.1369
  505CHOL    R2 4537  11.863  15.622   5.798  0.0168 -0.0040 -0.0465
  505CHOL    R3 4538  12.001  15.403   5.881  0.1684  0.0931 -0.0370
  505CHOL    R4 4539  11.813  15.458   6.098  0.1152 -0.0327 -0.0446
  505CHOL    R5 4540  12.028  15.435   6.117  0.1344  0.1194 -0.0345
  505CHOL    C1 4541  11.913  15.157   6.351  0.3149  0.0419 -0.0346
  505CHOL    C2 4542  11.977  14.819   6.639 -0.0930  0.4030 -0.1286
  506CHOL   ROH 4543   9.778   2.643   3.748 -0.1478 -0.0472 -0.0646
  506CHOL    R1 4544   9.829   2.798   3.980  0.0766 -0.0992 -0.0757
  506CHOL    R2 4545   9.843   3.074   3.974  0.1549 -0.0960 -0.0412
  506CHOL    R3 4546   9.655   3.056   4.169  0.2948 -0.0786  0.0966
  506CHOL    R4 4547   9.778   3.319   4.209  0.1233  0.0337 -0.1835
  506CHOL    R5 4548   9.755   3.162   4.359  0.3334  0.1385 -0.0491
  506CHOL    C1 4549   9.563   3.444   4.529  0.2363  0.1254 -0.1370
  506CHOL    C2 4550   9.769   3.629   4.766 -0.0355 -0.1034  0.1790
  507CHOL   ROH 4551  11.743   0.483   5.145  0.2368 -0.0986 -0.0798
  507CHOL    R1 4552  11.786   0.667   5.356  0.0675 -0.0983 -0.0434
  507CHOL    R2 4553  11.663   0.642   5.602  0.0195 -0.2092 -0.0753
  507CHOL    R3 4554  11.918   0.654   5.695 -0.0100 -0.0614 -0.0124
  507CHOL    R4 4555  11.751   0.635   5.936 -0.0594 -0.0617 -0.0509
  507CHOL    R5 4556  11.902   0.787   5.894 -0.1204 -0.0064 -0.0592
  507CHOL    C1 4557  12.042   0.642   6.218 -0.1330  0.1629  0.0224
  507CHOL    C2 4558  11.673   0.537   6.422  0.1160  0.4367 -0.3063
  508PNCE   AM1 4559  12.988   4.329   9.533  0.2077 -0.1292 -0.0464
  508PNCE   AM2 4560  13.268   4.455   9.675 -0.0733  0.1911 -0.1751
  508PNCE   T1A 4561  13.121   4.425   9.053  0.3187 -0.0610  0.0439
  508PNCE   C2A 4562  13.103   4.491   8.666  0.0609 -0.0251  0.3484
  508PNCE   C3A 4563  12.890   4.485   8.300 -0.2758  0.0747 -0.0446
  508PNCE   C1B 4564  13.598   4.307   9.372  0.0278 -0.0064 -0.3705
  508PNCE   C2B 4565  13.607   4.458   8.915 -0.1294  0.4776 -0.2685
  508PNCE   C3B 4566  13.595   4.571   8.472 -0.3435 -0.0589  0.1160
  508PNCE   D4B 4567  13.296   4.833   8.228 -0.1277  0.2229  0.3063
  508PNCE   C5B 4568  13.223   4.607   7.857 -0.0190  0.3805  0.0610
  508PNCE   C6B 4569  13.487   4.597   7.468  0.0415  0.0143 -0.0909
  509CHOL   ROH 4570   3.554  15.491   8.158  0.1498 -0.0267  0.0677
  509CHOL    R1 4571   3.556  15.429   7.882  0.1880 -0.0381  0.0701
  509CHOL    R2 4572   3.379  15.544   7.703  0.0528 -0.2230  0.0790
  509CHOL    R3 4573   3.607  15.610   7.571 -0.0229  0.0033  0.0584
  509CHOL    R4 4574   3.414  15.551   7.359  0.0096 -0.1520  0.0762
  509CHOL    R5 4575   3.612  15.464   7.382  0.0931  0.0293  0.0424
  509CHOL    C1 4576   3.648  15.618   7.035 -0.0866  0.1017  0.0553
  509CHOL    C2 4577   3.851  15.729   6.732  0.1124 -0.1950 -0.1447
  510PNCE   AM1 4578   3.424   7.299   8.093 -0.0195 -0.0042 -0.0881
  510PNCE   AM2 4579   3.182   7.099   8.152  0.2982  0.0575  0.2216
  510PNCE   T1A 4580   3.666   6.885   7.961 -0.4750 -0.1501  0.1553
  510PNCE   C2A 4581   3.914   6.659   7.591 -0.0646  0.0398 -0.0898
  510PNCE   C3A 4582   3.861   6.522   7.255 -0.0653  0.2883  0.4413
  510PNCE   C1B 4583   3.161   7.122   7.651  0.0124 -0.0562 -0.4953
  510PNCE   C2B 4584   3.097   6.959   7.204  0.1242  0.1712  0.0251
  510PNCE   C3B 4585   3.138   6.992   6.778  0.1991  0.2539 -0.0542
  510PNCE   D4B 4586   3.361   7.131   6.467  0.0873 -0.0567  0.0298
  510PNCE   C5B 4587   3.476   7.097   6.041  0.0679 -0.0030  0.0055
  510PNCE   C6B 4588   3.546   6.804   5.653  0.0111 -0.2312  0.3040
  511PNCE   AM1 4589  13.816   8.376   9.612  0.0634  0.1101 -0.0151
  511PNCE   AM2 4590  13.837   8.168   9.396  0.0909 -0.1850 -0.3364
  511PNCE   T1A 4591  13.966   8.584   9.203  0.1281  0.2317 -0.3354
  511PNCE   C2A 4592  13.868   8.785   8.858 -0.0800  0.1448 -0.0852
  511PNCE   C3A 4593  13.855   8.844   8.484 -0.1822 -0.0975  0.0414
  511PNCE   C1B 4594  13.885   8.156   8.894  0.3082  0.0770  0.1205
  511PNCE   C2B 4595  13.908   8.298   8.533 -0.3684  0.4489  0.0464
  511PNCE   C3B 4596  13.806   8.474   8.117 -0.0120  0.1806 -0.3321
  511PNCE   D4B 4597  13.526   8.646   7.907 -0.0859 -0.0392 -0.1643
  511PNCE   C5B 4598  13.266   8.960   8.122  0.0142 -0.2512 -0.0793
  511PNCE   C6B 4599  12.830   8.895   8.171  0.0333 -0.1127  0.0534
  512CHOL   ROH 4600   7.531   2.134   4.336  0.1843 -0.0384  0.2821
  512CHOL    R1 4601   7.434   2.344   4.499  0.1527 -0.1525  0.4111
  512CHOL    R2 4602   7.200   2.479   4.443  0.4646  0.2857  0.1135
  512CHOL    R3 4603   7.135   2.408   4.697 -0.1889 -0.0352 -0.1199
  512CHOL    R4 4604   7.026   2.679   4.665  0.5946  0.3483  0.1603
  512CHOL    R5 4605   7.160   2.610   4.823  0.1417 -0.3177  0.3002
  512CHOL    C1 4606   6.864   2.728   5.033  0.0567  0.0835 -0.0315
  512CHOL    C2 4607   6.500   2.595   5.188 -0.1305 -0.2499  0.0987
  513CHOL   ROH 4608   6.296   5.104   3.530  0.1336  0.0039  0.1347
  513CHOL    R1 4609   6.332   4.955   3.768  0.1239  0.1390  0.2209
  513CHOL    R2 4610   6.462   5.058   3.989 -0.0687  0.3401  0.2440
  513CHOL    R3 4611   6.232   4.987   4.117 -0.0830  0.2228  0.1555
  513CHOL    R4 4612   6.435   4.999   4.329 -0.1956  0.4222  0.2493
  513CHOL    R5 4613   6.303   4.831   4.284 -0.0597  0.3205  0.2359
  513CHOL    C1 4614   6.204   4.898   4.646 -0.2830  0.3599  0.1694
  513CHOL    C2 4615   6.075   4.792   4.951  0.1972  0.1506  0.2334
  514PNCE   AM1 4616   5.049  14.464   8.511  0.2322  0.2811 -0.0372
  514PNCE   AM2 4617   5.286  14.232   8.475 -0.0397 -0.2144  0.0489
  514PNCE   T1A 4618   5.045  14.388   8.045  0.0436 -0.3362  0.0359
  514PNCE   C2A 4619   5.202  14.067   7.684  0.3021 -0.1688 -0.0314
  514PNCE   C3A 4620   5.466  13.933   7.371  0.2359  0.0128  0.2018
  514PNCE   C1B 4621   5.338  13.973   8.185 -0.1410 -0.0573  0.1141
  514PNCE   C2B 4622   5.368  13.645   7.860  0.1446  0.2286 -0.1016
  514PNCE   C3B 4623   5.493  13.415   7.488  0.2646 -0.3055  0.2072
  514PNCE   D4B 4624   5.751  13.554   7.111  0.2751  0.0345 -0.0970
  514PNCE   C5B 4625   5.544  13.559   6.706  0.1280 -0.0889 -0.1133
  514PNCE   C6B 4626   5.212  13.542   6.415 -0.0433  0.1601  0.1479
  515CHOL   ROH 4627   0.185  11.333   8.714  0.0762 -0.1516  0.0081
  515CHOL    R1 4628   0.099  11.368   8.447 -0.0163 -0.0834  0.0458
  515CHOL    R2 4629   0.275  11.404   8.237 -0.0901  0.1347  0.0126
  515CHOL    R3 4630   0.141  11.194   8.130  0.0234  0.0907 -0.0446
  515CHOL    R4 4631   0.227  11.351   7.899 -0.0040  0.1505 -0.0022
  515CHOL    R5 4632   0.024  11.287   7.943  0.0203  0.0574 -0.0537
  515CHOL    C1 4633   0.072  11.123   7.602  0.1527  0.1186 -0.0644
  515CHOL    C2 4634  -0.125  11.378   7.359  0.0521 -0.0071 -0.1094
  516CHOL   ROH 4635   5.844   5.150   3.795  0.1327 -0.2595 -0.0089
  516CHOL    R1 4636   5.754   5.198   4.059  0.1363 -0.0934 -0.0367
  516CHOL    R2 4637   5.869   5.077   4.280  0.0181 -0.1012  0.0227
  516CHOL    R3 4638   5.896   5.334   4.366  0.2035 -0.0875 -0.0703
  516CHOL    R4 4639   5.849   5.177   4.610 -0.1526  0.0638 -0.0362
  516CHOL    R5 4640   5.737   5.353   4.545  0.0743  0.1497 -0.2058
  516CHOL    C1 4641   5.862   5.476   4.884 -0.0780  0.1727 -0.1578
  516CHOL    C2 4642   5.817   5.537   5.258  0.0148  0.1501 -0.2974
  517PNCE   AM1 4643  15.223  13.510   8.695  0.0831  0.1296  0.0219
  517PNCE   AM2 4644  15.147  13.161   8.822 -0.0866  0.0065 -0.0059
  517PNCE   T1A 4645  15.029  13.590   8.271  0.1376  0.0723 -0.3805
  517PNCE   C2A 4646  14.980  13.477   7.913 -0.1257 -0.0547  0.0339
  517PNCE   C3A 4647  14.726  13.342   7.506  0.1776 -0.1785  0.3185
  517PNCE   C1B 4648  15.110  13.103   8.346 -0.3931 -0.3337 -0.1424
  517PNCE   C2B 4649  15.053  13.002   7.870  0.0225  0.1143 -0.4734
  517PNCE   C3B 4650  15.225  12.809   7.483  0.0454 -0.1015  0.1207
  517PNCE   D4B 4651  15.583  12.737   7.216 -0.1449  0.0854 -0.2592
  517PNCE   C5B 4652  15.561  12.403   6.783 -0.2062 -0.0865 -0.1421
  517PNCE   C6B 4653  15.398  12.137   6.428 -0.0950 -0.2516  0.0983
  518PNCE   AM1 4654   7.165   4.643   7.317 -0.0120 -0.3098  0.0349
  518PNCE   AM2 4655   7.318   4.972   7.530  0.2125 -0.1412 -0.3012
  518PNCE   T1A 4656   7.564   4.599   7.101  0.1088  0.0767  0.6517
  518PNCE   C2A 4657   7.859   4.440   6.784  0.0476 -0.0798 -0.3983
  518PNCE   C3A 4658   8.217   4.531   6.620  0.0080 -0.3162 -0.2454
  518PNCE   C1B 4659   7.274   5.089   7.095 -0.2962 -0.0596 -0.1261
  518PNCE   C2B 4660   7.336   5.385   6.836 -0.0332 -0.3217  0.1594
  518PNCE   C3B 4661   7.419   5.886   6.857  0.0831  0.0022 -0.1681
  518PNCE   D4B 4662   7.287   6.247   6.713 -0.2410 -0.3546 -0.0136
  518PNCE   C5B 4663   7.507   6.697   6.550 -0.0661 -0.1441  0.1837
  518PNCE   C6B 4664   7.371   7.053   6.504 -0.1936 -0.2050  0.0662
  519XCA    COO 4665  14.738   9.489   9.116  0.2803  0.1799 -0.1481
  519XCA     C1 4666  14.612   9.525   8.673  0.1566  0.0839 -0.1049
  519XCA     C2 4667  14.670   9.412   8.194 -0.0275 -0.4030 -0.1329
  519XCA     C3 4668  14.685   9.156   7.891 -0.3692 -0.3514  0.0343
  519XCA     C4 4669  14.757   9.128   7.439 -0.1434 -0.0204 -0.0858
  519XCA     C5 4670  14.733   9.168   6.959 -0.4279  0.0236 -0.1014
  519XCA     C6 4671  14.573   9.410   6.645  0.2721 -0.0140  0.0683
  520XCA    COO 4672  14.846   2.954   4.360  0.0226 -0.2005  0.1358
  520XCA     C1 4673  15.003   2.656   4.597  0.0885 -0.0294  0.0336
  520XCA     C2 4674  14.856   2.430   4.851 -0.1272  0.2253 -0.2093
  520XCA     C3 4675  15.003   2.436   5.201 -0.1480 -0.0262  0.0929
  520XCA     C4 4676  15.157   2.192   5.493 -0.0439  0.1596 -0.1453
  520XCA     C5 4677  15.460   2.261   5.791 -0.0303  0.1306  0.0134
  520XCA     C6 4678  15.521   2.515   6.083  0.1263  0.1439  0.1343
  521XCA    COO 4679  15.618   1.701   8.583 -0.0745 -0.0538  0.1836
  521XCA     C1 4680  15.635   2.126   8.346  0.2164 -0.0118 -0.0514
  521XCA     C2 4681  15.459   2.198   7.992  0.2882  0.0178  0.0137
  521XCA     C3 4682  15.464   2.446   7.715  0.0858 -0.0217 -0.0066
  521XCA     C4 4683  15.435   2.695   7.418 -0.1906  0.1674  0.2151
  521XCA     C5 4684  15.481   3.094   7.308 -0.2668  0.1540  0.0095
  521XCA     C6 4685  15.523   3.400   7.062 -0.1955 -0.1268  0.1300
  522PNCE   AM1 4686   5.293   8.689   7.320  0.4174 -0.3095  0.0094
  522PNCE   AM2 4687   5.624   8.646   7.335  0.0865  0.1453  0.0974
  522PNCE   T1A 4688   4.792   8.549   7.355  0.0189 -0.0631 -0.1562
  522PNCE   C2A 4689   4.394   8.632   7.151 -0.1584  0.1587 -0.2436
  522PNCE   C3A 4690   4.178   8.685   6.796  0.0511  0.1650  0.2934
  522PNCE   C1B 4691   5.598   8.990   6.958 -0.1472 -0.2731  0.2260
  522PNCE   C2B 4692   5.522   9.373   6.724 -0.1935 -0.1746  0.3380
  522PNCE   C3B 4693   5.500   9.672   6.407  0.0967  0.3646  0.2038
  522PNCE   D4B 4694   5.367   9.875   6.027 -0.3027 -0.2632  0.3772
  522PNCE   C5B 4695   5.619  10.276   5.954  0.0382 -0.0550 -0.1088
  522PNCE   C6B 4696   5.797  10.677   5.875 -0.1758 -0.1925  0.0387
  523CHOL   ROH 4697   1.977  13.560   5.139  0.0417 -0.4047 -0.2485
  523CHOL    R1 4698   2.051  13.429   5.379 -0.0742 -0.1928 -0.0940
  523CHOL    R2 4699   2.285  13.488   5.514 -0.0196 -0.2429 -0.1658
  523CHOL    R3 4700   2.117  13.527   5.723  0.0142  0.1546 -0.2048
  523CHOL    R4 4701   2.379  13.482   5.847 -0.0624 -0.1721 -0.1523
  523CHOL    R5 4702   2.194  13.375   5.891 -0.2367  0.1391 -0.0985
  523CHOL    C1 4703   2.275  13.514   6.237 -0.0557  0.2423 -0.1810
  523CHOL    C2 4704   2.122  13.227   6.526  0.1330 -0.1109  0.2312
  524XCA    COO 4705   1.561  15.341   4.453  0.2660 -0.0636 -0.1198
  524XCA     C1 4706   1.682  15.470   4.823  0.2078  0.0574  0.1317
  524XCA     C2 4707   1.799  15.556   5.281  0.1416 -0.0896  0.2665
  524XCA     C3 4708   1.893  15.571   5.744  0.2054 -0.1648  0.2024
  524XCA     C4 4709   2.029  15.559   6.162  0.0151  0.0873 -0.2133
  524XCA     C5 4710   1.896  15.871   6.527 -0.1899  0.0816 -0.0497
  524XCA     C6 4711   1.779  16.035   6.877 -0.0507 -0.0509  0.3550
  525CHOL   ROH 4712   8.276  15.024   4.726  0.1797  0.1087  0.1204
  525CHOL    R1 4713   8.074  15.200   4.819 -0.0421 -0.1142  0.0773
  525CHOL    R2 4714   7.948  15.168   5.062  0.1547 -0.0894  0.1923
  525CHOL    R3 4715   8.029  15.424   5.102 -0.2081  0.0783 -0.1006
  525CHOL    R4 4716   7.861  15.361   5.335  0.4443 -0.1405  0.3243
  525CHOL    R5 4717   7.838  15.531   5.200 -0.1796 -0.2283  0.3028
  525CHOL    C1 4718   7.885  15.714   5.531  0.2723 -0.0130  0.1261
  525CHOL    C2 4719   7.762  15.976   5.626  0.1177  0.0324 -0.3857
  526PNCE   AM1 4720  13.240  10.647   9.332  0.1089 -0.1303 -0.0775
  526PNCE   AM2 4721  13.422  10.309   9.377 -0.0186 -0.1628  0.0207
  526PNCE   T1A 4722  13.413  10.664   8.851 -0.0456 -0.1829  0.3325
  526PNCE   C2A 4723  13.466  10.732   8.360 -0.0427  0.0803  0.4468
  526PNCE   C3A 4724  13.539  10.758   7.941 -0.0396  0.2325  0.2392
  526PNCE   C1B 4725  13.151  10.177   8.952  0.2205 -0.2630  0.1058
  526PNCE   C2B 4726  12.825  10.106   8.725  0.0657 -0.0449 -0.3342
  526PNCE   C3B 4727  12.655   9.795   8.390  0.0879  0.0531  0.3537
  526PNCE   D4B 4728  12.528   9.421   8.494 -0.0322  0.2950 -0.3555
  526PNCE   C5B 4729  12.798   9.159   8.743 -0.3162 -0.1119 -0.0205
  526PNCE   C6B 4730  13.091   8.904   8.717  0.2080  0.0928  0.1552
  527XCA    COO 4731  13.752   1.347   8.317 -0.2991 -0.1852  0.0088
  527XCA     C1 4732  13.619   1.172   7.906  0.1174  0.0261 -0.0666
  527XCA     C2 4733  13.655   1.159   7.535 -0.0004  0.1961 -0.2515
  527XCA     C3 4734  13.538   1.088   7.186  0.1038 -0.0837 -0.1495
  527XCA     C4 4735  13.399   0.983   6.839  0.3618  0.3733 -0.0598
  527XCA     C5 4736  13.028   0.907   6.517 -0.1567  0.0576  0.2976
  527XCA     C6 4737  12.750   0.860   6.827 -0.0571  0.1256  0.0197
  528CHOL   ROH 4738   8.017   4.735   7.104 -0.3133 -0.2655 -0.2311
  528CHOL    R1 4739   7.995   4.913   6.885 -0.0908 -0.1825 -0.1879
  528CHOL    R2 4740   8.172   5.122   6.844 -0.0553 -0.1583  0.0766
  528CHOL    R3 4741   8.202   5.007   6.600  0.2060 -0.0631  0.0602
  528CHOL    R4 4742   8.322   5.273   6.572 -0.1959  0.1386  0.1599
  528CHOL    R5 4743   8.167   5.186   6.445 -0.0236 -0.0786  0.0893
  528CHOL    C1 4744   8.437   5.253   6.184 -0.0324  0.4007  0.1930
  528CHOL    C2 4745   8.453   5.507   6.058  0.1287 -0.2295  0.0897
  529XCA    COO 4746   4.379  12.849   8.982 -0.3477  0.1031  0.0565
  529XCA     C1 4747   4.432  12.479   8.697  0.1737 -0.1124  0.1880
  529XCA     C2 4748   4.602  12.403   8.290  0.3817  0.2695  0.1294
  529XCA     C3 4749   4.544  12.178   7.845  0.2392 -0.1320 -0.1117
  529XCA     C4 4750   4.663  11.828   7.546 -0.1209 -0.1311 -0.1108
  529XCA     C5 4751   4.896  11.686   7.206  0.1954 -0.0821  0.0913
  529XCA     C6 4752   5.269  11.476   7.166  0.0386 -0.0290  0.1850
  530PNCE   AM1 4753   8.721   2.273   7.373 -0.0574  0.1139  0.0292
  530PNCE   AM2 4754   8.987   2.224   7.657  0.1125 -0.0562  0.1806
  530PNCE   T1A 4755   9.084   2.358   6.887 -0.1498  0.0325 -0.1459
  530PNCE   C2A 4756   9.268   2.107   6.547  0.1534  0.0854 -0.2124
  530PNCE   C3A 4757   9.601   2.163   6.184 -0.2135  0.3319 -0.1266
  530PNCE   C1B 4758   9.214   2.180   7.307 -0.3202 -0.0120  0.4666
  530PNCE   C2B 4759   9.567   2.149   7.005 -0.0019  0.3017 -0.1764
  530PNCE   C3B 4760   9.745   2.445   6.741  0.1008 -0.0263  0.3947
  530PNCE   D4B 4761   9.975   2.387   6.394  0.1275  0.1427 -0.0577
  530PNCE   C5B 4762   9.842   2.515   6.016  0.2816 -0.0458  0.2085
  530PNCE   C6B 4763   9.598   2.719   5.560 -0.2370  0.1411  0.1491
  531CHOL   ROH 4764   1.210  13.512   5.176  0.1315  0.1790 -0.0162
  531CHOL    R1 4765   1.130  13.450   5.440 -0.0271  0.2443 -0.0474
  531CHOL    R2 4766   1.229  13.232   5.579 -0.3433  0.0958 -0.0435
  531CHOL    R3 4767   1.292  13.420   5.765 -0.1590 -0.0044 -0.0033
  531CHOL    R4 4768   1.177  13.198   5.919 -0.2176  0.0099 -0.0328
  531CHOL    R5 4769   1.114  13.407   5.925 -0.0971  0.0419  0.0671
  531CHOL    C1 4770   1.207  13.355   6.291  0.0286 -0.1342  0.0112
  531CHOL    C2 4771   0.976  13.369   6.628 -0.0285  0.2284 -0.2501
  532PNCE   AM1 4772  11.937   7.055   9.838 -0.1020  0.2102  0.0313
  532PNCE   AM2 4773  12.024   7.321   9.721 -0.0814  0.3091 -0.2265
  532PNCE   T1A 4774  12.146   6.692   9.690  0.2105 -0.0477 -0.3417
  532PNCE   C2A 4775  11.902   6.358   9.384 -0.2176  0.2472  0.0409
  532PNCE   C3A 4776  11.981   6.374   8.981 -0.4330 -0.1652  0.1138
  532PNCE   C1B 4777  11.880   7.511   9.388 -0.1186  0.0377  0.1354
  532PNCE   C2B 4778  11.901   7.368   8.977 -0.0092  0.0824  0.0337
  532PNCE   C3B 4779  11.858   7.372   8.581  0.0208 -0.1332  0.0629
  532PNCE   D4B 4780  11.513   7.423   8.483 -0.1940  0.1295  0.1423
  532PNCE   C5B 4781  11.112   7.445   8.644  0.0227 -0.1651  0.0183
  532PNCE   C6B 4782  10.895   7.780   8.670 -0.0719 -0.2456  0.1569
  533PNCE   AM1 4783  12.673   8.287   9.714 -0.0038 -0.1676  0.1110
  533PNCE   AM2 4784  12.785   8.595   9.692  0.3675  0.2276  0.2294
  533PNCE   T1A 4785  12.606   7.854   9.557  0.1201  0.0542 -0.1121
  533PNCE   C2A 4786  12.368   7.629   9.236  0.3813 -0.1147 -0.1920
  533PNCE   C3A 4787  12.241   7.807   8.942 -0.2240  0.0528 -0.2020
  533PNCE   C1B 4788  12.632   8.718   9.284 -0.0072 -0.1317 -0.0230
  533PNCE   C2B 4789  12.670   8.659   8.823  0.2535 -0.1703  0.0413
  533PNCE   C3B 4790  12.524   8.761   8.543 -0.1313 -0.0822  0.1609
  533PNCE   D4B 4791  12.380   8.649   8.164 -0.0710 -0.0834  0.0914
  533PNCE   C5B 4792  12.139   8.382   8.108  0.0267 -0.1197  0.2492
  533PNCE   C6B 4793  12.090   8.116   7.829  0.0239 -0.1075 -0.2962
  534PNCE   AM1 4794   8.623  14.716   9.116 -0.1723  0.0146 -0.0606
  534PNCE   AM2 4795   8.823  14.999   9.329  0.1421  0.0580  0.1781
  534PNCE   T1A 4796   8.779  14.399   8.971 -0.0715 -0.2552 -0.2923
  534PNCE   C2A 4797   8.767  14.024   8.716 -0.0396 -0.3372 -0.3464
  534PNCE   C3A 4798   8.803  13.937   8.274  0.0034 -0.2914 -0.0438
  534PNCE   C1B 4799   9.151  14.945   9.047  0.0993  0.1888 -0.0079
  534PNCE   C2B 4800   9.329  14.544   8.960 -0.3957  0.2355  0.0426
  534PNCE   C3B 4801   9.508  14.522   8.556  0.1248  0.1639 -0.0066
  534PNCE   D4B 4802   9.759  14.668   8.146 -0.1944 -0.2363 -0.2328
  534PNCE   C5B 4803   9.554  14.573   7.801  0.3041  0.0316 -0.1231
  534PNCE   C6B 4804   9.410  14.301   7.540 -0.2407  0.3588  0.0645
  535PNCE   AM1 4805   7.025   3.250   2.801 -0.1431 -0.0270  0.0403
  535PNCE   AM2 4806   7.167   3.395   2.938  0.0254  0.0007  0.1015
  535PNCE   T1A 4807   7.195   2.975   3.261  0.0116 -0.1478 -0.1135
  535PNCE   C2A 4808   7.258   2.941   3.663  0.0812 -0.3616  0.1448
  535PNCE   C3A 4809   7.173   2.727   4.054 -0.0736 -0.1883  0.0430
  535PNCE   C1B 4810   6.873   3.338   3.317  0.0084  0.1040 -0.1093
  535PNCE   C2B 4811   6.957   3.415   3.671 -0.1047 -0.0526 -0.0749
  535PNCE   C3B 4812   6.924   3.185   4.033 -0.2047  0.0766 -0.1497
  535PNCE   D4B 4813   6.849   3.105   4.560  0.1802 -0.1324  0.0730
  535PNCE   C5B 4814   7.162   3.102   4.965  0.1450  0.2593 -0.1832
  535PNCE   C6B 4815   7.333   3.253   5.273  0.0408  0.0680 -0.1528
  536CHOL   ROH 4816   6.205   2.715   7.396 -0.1047 -0.4520  0.0951
  536CHOL    R1 4817   6.267   2.769   7.125 -0.0953 -0.0803  0.1683
  536CHOL    R2 4818   6.265   2.573   6.930  0.1422  0.1436 -0.0514
  536CHOL    R3 4819   6.095   2.744   6.805  0.0049  0.1192  0.0940
  536CHOL    R4 4820   6.135   2.528   6.613  0.2387  0.3229 -0.1202
  536CHOL    R5 4821   6.163   2.740   6.576  0.0562  0.3994  0.0917
  536CHOL    C1 4822   5.900   2.662   6.311  0.1659  0.4045 -0.0238
  536CHOL    C2 4823   5.917   2.521   5.957  0.1760 -0.3603 -0.3977
  537CHOL   ROH 4824   5.020   5.287   4.317 -0.0552  0.1015 -0.0213
  537CHOL    R1 4825   4.937   5.120   4.530  0.0524  0.0500 -0.0191
  537CHOL    R2 4826   5.116   5.003   4.705  0.1307  0.1472 -0.0315
  537CHOL    R3 4827   4.961   5.124   4.893  0.0734  0.0570 -0.0208
  537CHOL    R4 4828   5.117   4.924   5.041  0.0376 -0.0037 -0.0659
  537CHOL    R5 4829   4.900   4.946   5.042  0.0372 -0.0118 -0.1173
  537CHOL    C1 4830   4.972   4.992   5.414 -0.0704 -0.1761 -0.0760
  537CHOL    C2 4831   5.052   4.874   5.786  0.0927  0.2710  0.1246
  538PNCE   AM1 4832   8.652   3.783   6.986  0.0084 -0.1399  0.0414
  538PNCE   AM2 4833   8.575   3.614   6.732 -0.0881 -0.2087 -0.0328
  538PNCE   T1A 4834   9.074   3.854   6.738 -0.3970  0.1211 -0.2092
  538PNCE   C2A 4835   9.304   3.847   6.265 -0.0609  0.2715  0.2364
  538PNCE   C3A 4836   9.580   3.561   6.199 -0.0450  0.1142 -0.0226
  538PNCE   C1B 4837   8.767   3.906   6.356 -0.1929 -0.0458  0.1346
  538PNCE   C2B 4838   8.910   4.062   5.939 -0.1140  0.0816  0.1669
  538PNCE   C3B 4839   8.725   3.708   5.679 -0.0490 -0.0517 -0.0510
  538PNCE   D4B 4840   8.589   3.414   5.415 -0.0699 -0.2279 -0.0432
  538PNCE   C5B 4841   8.474   2.971   5.525 -0.2316 -0.3528  0.0581
  538PNCE   C6B 4842   8.446   2.589   5.802  0.2486 -0.2165 -0.0055
  539XCA    COO 4843   3.795   4.461   3.906  0.1107 -0.1632 -0.2621
  539XCA     C1 4844   3.755   4.550   4.264 -0.2327 -0.2404  0.2411
  539XCA     C2 4845   3.810   4.522   4.786  0.0807  0.0472  0.0648
  539XCA     C3 4846   3.821   4.302   5.122  0.0726 -0.0965 -0.0862
  539XCA     C4 4847   3.959   4.150   5.617  0.0400 -0.0838 -0.2256
  539XCA     C5 4848   3.678   4.011   5.916  0.0219 -0.1824  0.1759
  539XCA     C6 4849   3.297   4.115   6.122  0.1901  0.2788  0.2223
  540CHOL   ROH 4850  14.760   7.563   8.526  0.0900 -0.2526  0.0446
  540CHOL    R1 4851  14.657   7.401   8.318  0.1581 -0.2200 -0.0166
  540CHOL    R2 4852  14.434   7.472   8.172  0.0663 -0.3029  0.0695
  540CHOL    R3 4853  14.601   7.435   7.960  0.0514 -0.0679  0.0154
  540CHOL    R4 4854  14.334   7.366   7.858  0.1063 -0.3110  0.0604
  540CHOL    R5 4855  14.513   7.241   7.849  0.2286 -0.1215 -0.0231
  540CHOL    C1 4856  14.433   7.270   7.477  0.1156 -0.0950  0.0042
  540CHOL    C2 4857  14.335   7.380   7.070 -0.2356 -0.0251 -0.3648
  541PNCE   AM1 4858   9.007   5.464   8.102 -0.0476 -0.1457  0.2058
  541PNCE   AM2 4859   8.958   5.804   8.212  0.1121 -0.1997  0.0204
  541PNCE   T1A 4860   8.955   5.458   7.699  0.3015 -0.2071  0.0628
  541PNCE   C2A 4861   8.941   5.729   7.311 -0.1277 -0.0982 -0.0977
  541PNCE   C3A 4862   9.185   5.906   7.115 -0.2096  0.0173  0.2627
  541PNCE   C1B 4863   8.905   5.971   7.776  0.0423  0.0749 -0.4408
  541PNCE   C2B 4864   8.700   6.133   7.340 -0.0382 -0.0127 -0.2136
  541PNCE   C3B 4865   8.606   6.003   6.883  0.1721 -0.0270  0.2330
  541PNCE   D4B 4866   8.319   6.205   6.621 -0.3173  0.0144  0.0771
  541PNCE   C5B 4867   8.290   6.136   6.276  0.0706 -0.1688 -0.0981
  541PNCE   C6B 4868   7.963   6.037   6.041  0.0200 -0.0523  0.0740
  542PNCE   AM1 4869  13.298  14.827   8.778  0.0773 -0.2349  0.2665
  542PNCE   AM2 4870  13.533  14.549   8.743  0.2167  0.1717 -0.0995
  542PNCE   T1A 4871  13.322  14.677   8.259 -0.0450 -0.2242 -0.0569
  542PNCE   C2A 4872  13.443  14.493   7.862  0.0620 -0.3743  0.0118
  542PNCE   C3A 4873  13.459  14.263   7.563  0.1302 -0.0059  0.3256
  542PNCE   C1B 4874  13.196  14.313   8.612  0.2529 -0.2860 -0.2241
  542PNCE   C2B 4875  12.996  14.272   8.225  0.2338 -0.3088 -0.1019
  542PNCE   C3B 4876  12.744  13.970   8.040  0.0908 -0.0284  0.2816
  542PNCE   D4B 4877  12.496  13.558   7.948  0.3748 -0.1389 -0.3331
  542PNCE   C5B 4878  12.502  13.363   7.540  0.2111 -0.2108  0.2832
  542PNCE   C6B 4879  12.071  13.245   7.308  0.1509  0.2186 -0.0665
  543PNCE   AM1 4880  14.125   6.270   9.440 -0.1355 -0.1914  0.1337
  543PNCE   AM2 4881  14.341   6.504   9.316  0.2752  0.0131 -0.2203
  543PNCE   T1A 4882  14.190   5.797   9.258  0.0211  0.0409  0.1386
  543PNCE   C2A 4883  14.407   5.472   8.941 -0.2430  0.2525 -0.0045
  543PNCE   C3A 4884  14.746   5.134   8.974 -0.3353  0.0227  0.0957
  543PNCE   C1B 4885  13.898   6.661   9.184 -0.1393  0.1516 -0.0471
  543PNCE   C2B 4886  13.747   6.705   8.761 -0.0460  0.2822 -0.0900
  543PNCE   C3B 4887  13.789   6.690   8.320 -0.0716  0.1043 -0.1307
  543PNCE   D4B 4888  13.901   6.544   7.985  0.4128  0.2183  0.0166
  543PNCE   C5B 4889  13.941   6.188   7.936 -0.1929  0.2175  0.1573
  543PNCE   C6B 4890  13.891   5.764   8.089 -0.0315 -0.0805 -0.0747
  544CHOL   ROH 4891  14.410   2.727   5.527 -0.0941  0.0623 -0.0415
  544CHOL    R1 4892  14.480   2.933   5.707 -0.2244  0.1487 -0.0879
  544CHOL    R2 4893  14.293   3.101   5.822 -0.3685 -0.1325  0.1045
  544CHOL    R3 4894  14.408   3.018   6.054 -0.0264  0.0041 -0.0095
  544CHOL    R4 4895  14.346   3.301   6.098 -0.4156 -0.0926  0.0847
  544CHOL    R5 4896  14.540   3.205   6.125 -0.2405  0.1955 -0.1055
  544CHOL    C1 4897  14.485   3.340   6.477 -0.1219  0.0590 -0.0339
  544CHOL    C2 4898  14.305   3.739   6.574 -0.0088 -0.3562  0.0477
  545PNCE   AM1 4899   8.930   4.642   7.307 -0.2720 -0.0817  0.0643
  545PNCE   AM2 4900   8.689   4.654   7.440  0.0160  0.3037  0.2055
  545PNCE   T1A 4901   9.110   4.713   6.896 -0.2846  0.1327 -0.3490
  545PNCE   C2A 4902   9.213   4.881   6.522  0.2992 -0.0701  0.3439
  545PNCE   C3A 4903   9.380   4.785   6.083  0.1792 -0.0052  0.0955
  545PNCE   C1B 4904   8.503   4.756   6.982 -0.0818  0.0333 -0.4258
  545PNCE   C2B 4905   8.657   4.869   6.669 -0.0817  0.1507 -0.3383
  545PNCE   C3B 4906   8.807   5.141   6.422  0.2131 -0.1362 -0.3569
  545PNCE   D4B 4907   8.932   5.343   6.071 -0.2387  0.1568  0.2252
  545PNCE   C5B 4908   9.152   5.679   6.133  0.1344  0.4061  0.1919
  545PNCE   C6B 4909   9.500   5.902   6.137 -0.2284 -0.1051  0.2518
  546PNCE   AM1 4910   2.559   0.993   8.170 -0.1378 -0.0557 -0.3483
  546PNCE   AM2 4911   2.336   1.233   8.392  0.1422 -0.0908 -0.1121
  546PNCE   T1A 4912   2.261   0.886   7.819  0.0738  0.0008  0.2118
  546PNCE   C2A 4913   2.200   0.684   7.408 -0.1212 -0.1548 -0.0989
  546PNCE   C3A 4914   2.162   0.624   6.994 -0.1761  0.0121 -0.0958
  546PNCE   C1B 4915   2.365   1.429   7.736  0.1175 -0.0438 -0.3446
  546PNCE   C2B 4916   2.273   1.193   7.413  0.1880 -0.2900 -0.1530
  546PNCE   C3B 4917   2.214   1.049   7.026  0.0238  0.4991 -0.2334
  546PNCE   D4B 4918   2.382   1.023   6.615 -0.0942  0.1337  0.1589
  546PNCE   C5B 4919   2.494   1.393   6.609 -0.0379  0.2606  0.0130
  546PNCE   C6B 4920   2.535   1.452   6.979  0.1216  0.0723 -0.1484
  547PNCE   AM1 4921   1.919  13.887   8.282  0.1181  0.3702 -0.2357
  547PNCE   AM2 4922   1.968  13.882   8.650 -0.4405 -0.3021 -0.3146
  547PNCE   T1A 4923   2.098  13.780   7.913 -0.1085 -0.2018 -0.1399
  547PNCE   C2A 4924   2.381  13.792   7.518  0.3082 -0.2322 -0.1274
  547PNCE   C3A 4925   2.563  13.628   7.236 -0.1726  0.1311  0.0074
  547PNCE   C1B 4926   2.376  13.884   8.434  0.1777  0.2862 -0.3686
  547PNCE   C2B 4927   2.562  13.913   8.008 -0.0756  0.0487 -0.0686
  547PNCE   C3B 4928   2.841  13.922   7.591  0.1204 -0.2245  0.0118
  547PNCE   D4B 4929   3.054  14.331   7.349 -0.0768 -0.2647  0.2397
  547PNCE   C5B 4930   3.127  14.249   6.961  0.1561  0.0195  0.1368
  547PNCE   C6B 4931   3.576  14.094   6.893  0.4130 -0.1468 -0.1941
  548PNCE   AM1 4932   1.352  15.377   8.499 -0.2972  0.1794 -0.0166
  548PNCE   AM2 4933   1.582  15.081   8.393  0.2300 -0.0254 -0.0146
  548PNCE   T1A 4934   1.021  15.613   8.122  0.0948 -0.0872 -0.6276
  548PNCE   C2A 4935   0.875  15.623   7.747 -0.1607  0.0608  0.0212
  548PNCE   C3A 4936   1.076  15.597   7.430  0.0012  0.1186  0.0178
  548PNCE   C1B 4937   1.559  14.755   8.095 -0.3723 -0.3958  0.1942
  548PNCE   C2B 4938   1.384  14.406   7.952  0.2201  0.0037 -0.1143
  548PNCE   C3B 4939   1.414  14.183   7.539 -0.1517  0.0317  0.4559
  548PNCE   D4B 4940   1.634  13.942   7.151  0.0014 -0.0489 -0.1755
  548PNCE   C5B 4941   2.007  14.098   7.010  0.0423 -0.0668  0.2526
  548PNCE   C6B 4942   2.156  14.521   7.088 -0.1009 -0.0535  0.0855
  549CHOL   ROH 4943   2.592  10.389   6.452 -0.0364 -0.1135 -0.1032
  549CHOL    R1 4944   2.445  10.423   6.212  0.0072 -0.0024 -0.1151
  549CHOL    R2 4945   2.405  10.670   6.095  0.1012  0.0422 -0.0538
  549CHOL    R3 4946   2.512  10.548   5.877  0.0930  0.0682 -0.0723
  549CHOL    R4 4947   2.339  10.757   5.767 -0.0039  0.0060 -0.0423
  549CHOL    R5 4948   2.334  10.545   5.717  0.0562  0.0011 -0.0313
  549CHOL    C1 4949   2.400  10.691   5.371 -0.0729  0.0091 -0.0531
  549CHOL    C2 4950   2.197  10.904   5.012 -0.1321 -0.0850  0.0661
  550XCA    COO 4951   4.661   5.475   4.531 -0.1807  0.0734 -0.0570
  550XCA     C1 4952   4.919   5.558   4.932  0.0360  0.0454  0.0463
  550XCA     C2 4953   5.027   5.567   5.406 -0.1025  0.3928 -0.1119
  550XCA     C3 4954   4.718   5.354   5.714  0.0144  0.1683  0.0419
  550XCA     C4 4955   4.665   5.056   6.044  0.1419 -0.0621  0.2282
  550XCA     C5 4956   4.580   4.985   6.411  0.0248  0.5140  0.1015
  550XCA     C6 4957   4.243   4.900   6.796 -0.1454 -0.4090  0.1247
  551PNCE   AM1 4958  10.773   7.792  10.036 -0.1385  0.0037  0.1857
  551PNCE   AM2 4959  11.035   7.932   9.988  0.2070 -0.2701 -0.0768
  551PNCE   T1A 4960  10.476   7.875   9.766  0.0243  0.0378  0.1380
  551PNCE   C2A 4961  10.352   8.042   9.372  0.4903  0.1806  0.2507
  551PNCE   C3A 4962  10.347   7.730   8.949 -0.1085 -0.3181  0.1417
  551PNCE   C1B 4963  10.857   8.138   9.600  0.0515 -0.0798  0.0460
  551PNCE   C2B 4964  10.728   8.270   9.147  0.0134 -0.0168  0.0659
  551PNCE   C3B 4965  10.572   8.207   8.675 -0.0301 -0.0957 -0.0888
  551PNCE   D4B 4966  10.326   7.882   8.357 -0.0371 -0.2137 -0.0337
  551PNCE   C5B 4967  10.475   7.896   7.885 -0.2212  0.0277  0.0858
  551PNCE   C6B 4968  10.244   8.230   7.569  0.0002 -0.0602  0.0373
  552XCA    COO 4969   9.923   8.292   9.405 -0.3243 -0.0017 -0.1884
  552XCA     C1 4970   9.791   8.610   9.169  0.0167  0.1831  0.1442
  552XCA     C2 4971   9.791   8.628   8.692 -0.2209 -0.0365  0.1370
  552XCA     C3 4972  10.071   8.435   8.488  0.3002 -0.0590 -0.1859
  552XCA     C4 4973  10.407   8.345   8.218 -0.1712 -0.2638  0.1070
  552XCA     C5 4974  10.758   8.116   8.223  0.2483 -0.5615 -0.4159
  552XCA     C6 4975  11.079   7.830   8.170  0.0832  0.2022 -0.0221
  553PNCE   AM1 4976  10.569  10.304   9.845 -0.0327  0.2140 -0.4877
  553PNCE   AM2 4977  10.276  10.102   9.955  0.0623  0.1005 -0.1399
  553PNCE   T1A 4978  10.669  10.439   9.368  0.2516 -0.0427 -0.1308
  553PNCE   C2A 4979  10.538  10.740   9.057  0.1231  0.0556  0.2937
  553PNCE   C3A 4980  10.536  10.668   8.622  0.4108  0.0975 -0.1101
  553PNCE   C1B 4981  10.415   9.605   9.802  0.1091 -0.2155 -0.0930
  553PNCE   C2B 4982  10.369   9.250   9.546  0.0291 -0.1149 -0.2299
  553PNCE   C3B 4983  10.597   9.008   9.347 -0.0591  0.1751 -0.0243
  553PNCE   D4B 4984  10.631   8.734   8.978  0.1316 -0.0913  0.0046
  553PNCE   C5B 4985  10.309   8.840   8.640  0.0853 -0.0201  0.1909
  553PNCE   C6B 4986  10.335   8.925   8.170  0.0538 -0.0097  0.0422
  554CHOL   ROH 4987  12.901   5.529   7.019 -0.2244  0.0333 -0.1637
  554CHOL    R1 4988  13.040   5.292   7.088 -0.0842  0.1321 -0.1016
  554CHOL    R2 4989  13.057   5.200   7.348 -0.1158  0.1571 -0.0911
  554CHOL    R3 4990  12.957   4.972   7.240  0.0825  0.0803 -0.1170
  554CHOL    R4 4991  13.055   4.892   7.505 -0.4303  0.2755  0.1477
  554CHOL    R5 4992  13.107   4.800   7.314 -0.0602  0.1262  0.3094
  554CHOL    C1 4993  12.959   4.498   7.495 -0.4274  0.2722  0.2624
  554CHOL    C2 4994  13.228   4.170   7.590 -0.2040  0.0207 -0.1549
  555CHOL   ROH 4995   9.877  11.821   9.558  0.1006  0.1001  0.0729
  555CHOL    R1 4996  10.083  11.738   9.383  0.0423  0.0478  0.0278
  555CHOL    R2 4997  10.056  11.523   9.212 -0.0061 -0.0223  0.1178
  555CHOL    R3 4998  10.127  11.705   9.023 -0.0905 -0.0863  0.0238
  555CHOL    R4 4999  10.240  11.452   8.929 -0.1538 -0.1157  0.0440
  555CHOL    R5 5000  10.348  11.639   8.958 -0.1294 -0.1156 -0.0700
  555CHOL    C1 5001  10.415  11.581   8.587 -0.3192 -0.2300 -0.0873
  555CHOL    C2 5002  10.420  11.239   8.377 -0.0104  0.3214  0.1535
  556CHOL   ROH 5003  12.603   9.316   7.871 -0.0149  0.0982 -0.0286
  556CHOL    R1 5004  12.562   9.361   7.594  0.0240  0.2572 -0.0099
  556CHOL    R2 5005  12.724   9.528   7.445  0.3061  0.0185  0.0199
  556CHOL    R3 5006  12.750   9.308   7.287 -0.1087  0.0128 -0.0518
  556CHOL    R4 5007  12.782   9.534   7.104  0.3045  0.0224  0.0201
  556CHOL    R5 5008  12.643   9.368   7.082 -0.0098  0.2816 -0.0290
  556CHOL    C1 5009  12.841   9.331   6.758 -0.0859  0.0191 -0.0472
  556CHOL    C2 5010  12.745   9.409   6.367  0.0482  0.3395  0.0105
  557PNCE   AM1 5011  12.576   1.483   8.479 -0.2536  0.1140  0.1238
  557PNCE   AM2 5012  12.834   1.581   8.445  0.1057  0.2543 -0.5203
  557PNCE   T1A 5013  12.099   1.308   8.605 -0.1671 -0.2423 -0.2865
  557PNCE   C2A 5014  11.752   1.137   8.792  0.2676  0.1936 -0.1573
  557PNCE   C3A 5015  11.323   0.878   8.841  0.0139 -0.0569  0.2412
  557PNCE   C1B 5016  12.642   1.773   8.125 -0.0387  0.1935 -0.1392
  557PNCE   C2B 5017  12.561   1.855   7.670 -0.2225  0.1731 -0.0342
  557PNCE   C3B 5018  12.441   1.926   7.263 -0.0960 -0.1114  0.1537
  557PNCE   D4B 5019  12.787   2.014   6.909  0.0238  0.1466 -0.1747
  557PNCE   C5B 5020  12.759   2.425   6.857  0.1662  0.0024 -0.3556
  557PNCE   C6B 5021  12.741   2.845   6.753 -0.2052 -0.0003  0.3274
  558CHOL   ROH 5022   5.480   4.168   7.196 -0.0722 -0.1198 -0.0890
  558CHOL    R1 5023   5.369   4.152   6.937 -0.0140 -0.1169 -0.1138
  558CHOL    R2 5024   5.404   4.350   6.747 -0.0224 -0.0872 -0.0825
  558CHOL    R3 5025   5.495   4.144   6.595  0.0587 -0.0476 -0.0893
  558CHOL    R4 5026   5.307   4.287   6.421  0.1475 -0.0036 -0.1510
  558CHOL    R5 5027   5.304   4.074   6.469  0.1238 -0.0167 -0.2076
  558CHOL    C1 5028   5.336   4.056   6.089  0.3225  0.0823 -0.1973
  558CHOL    C2 5029   5.416   4.403   5.983  0.3084 -0.0335 -0.1462
  559PNCE   AM1 5030   2.564  15.442   8.110  0.2635  0.1555  0.0139
  559PNCE   AM2 5031   2.356  15.724   8.142  0.2077 -0.3127 -0.0248
  559PNCE   T1A 5032   2.597  15.275   7.634 -0.0944 -0.0549 -0.1419
  559PNCE   C2A 5033   2.890  15.127   7.281  0.1776  0.0322  0.0359
  559PNCE   C3A 5034   3.290  15.229   7.018 -0.1432  0.0600 -0.0377
  559PNCE   C1B 5035   2.213  15.565   7.768  0.1436  0.0297  0.1203
  559PNCE   C2B 5036   2.107  15.376   7.442  0.1326  0.1714 -0.0556
  559PNCE   C3B 5037   2.507  15.351   7.147  0.2784 -0.2112  0.0499
  559PNCE   D4B 5038   2.860  15.447   6.921  0.1501  0.1074 -0.0365
  559PNCE   C5B 5039   2.821  15.781   6.661 -0.1244  0.0480 -0.3866
  559PNCE   C6B 5040   3.015  16.035   6.339 -0.4598 -0.1715 -0.2333
  560PNCE   AM1 5041   4.112   5.440   7.534  0.2499  0.2996 -0.0252
  560PNCE   AM2 5042   4.035   5.115   7.668  0.0415  0.0298  0.5262
  560PNCE   T1A 5043   4.210   5.491   7.054  0.1137 -0.2422 -0.4804
  560PNCE   C2A 5044   4.116   5.348   6.585 -0.0372  0.0920  0.0136
  560PNCE   C3A 5045   4.145   5.318   6.179 -0.1589  0.0088  0.0110
  560PNCE   C1B 5046   3.901   5.090   7.264 -0.0235  0.1436  0.1241
  560PNCE   C2B 5047   3.755   5.015   6.799 -0.2872 -0.3129 -0.0507
  560PNCE   C3B 5048   3.675   5.052   6.385  0.2723 -0.0133  0.0494
  560PNCE   D4B 5049   3.567   4.967   6.014  0.0361  0.1100 -0.4562
  560PNCE   C5B 5050   3.243   4.639   5.861 -0.1597 -0.0057 -0.1425
  560PNCE   C6B 5051   3.026   4.442   5.585  0.1756  0.1880 -0.0754
  561PNCE   AM1 5052   2.531   4.570   7.934 -0.0211  0.3176 -0.1484
  561PNCE   AM2 5053   2.607   4.305   7.673  0.3339  0.0447 -0.1615
  561PNCE   T1A 5054   2.159   4.764   7.808  0.0098 -0.2414 -0.1290
  561PNCE   C2A 5055   1.907   4.846   7.535 -0.0732 -0.2915 -0.0771
  561PNCE   C3A 5056   1.527   5.088   7.352  0.2567 -0.1829  0.1781
  561PNCE   C1B 5057   2.341   4.588   7.374  0.1007  0.2093  0.1046
  561PNCE   C2B 5058   2.476   4.780   7.044  0.0841 -0.1089 -0.1452
  561PNCE   C3B 5059   2.243   4.972   6.709  0.1375 -0.1462  0.1408
  561PNCE   D4B 5060   2.148   4.827   6.367  0.0315 -0.0979  0.0647
  561PNCE   C5B 5061   1.890   5.196   6.133 -0.2322 -0.1168 -0.1912
  561PNCE   C6B 5062   1.749   5.576   6.066 -0.1347  0.0494  0.0341
  562PNCE   AM1 5063   9.884   4.982   8.278 -0.1940  0.4464 -0.2108
  562PNCE   AM2 5064   9.644   4.849   8.161  0.1979  0.2174 -0.0315
  562PNCE   T1A 5065  10.306   5.234   8.222 -0.3084  0.2350 -0.0215
  562PNCE   C2A 5066  10.710   5.226   7.860 -0.3389  0.0474 -0.0274
  562PNCE   C3A 5067  10.994   5.282   7.673  0.3660 -0.1211 -0.2700
  562PNCE   C1B 5068   9.881   4.532   7.865  0.2085  0.1860 -0.0366
  562PNCE   C2B 5069  10.128   4.403   7.608  0.0664 -0.0692 -0.1493
  562PNCE   C3B 5070  10.436   4.225   7.333 -0.3597 -0.0502 -0.0237
  562PNCE   D4B 5071  10.437   3.980   6.994  0.0890 -0.4561 -0.2062
  562PNCE   C5B 5072  10.879   3.800   6.992  0.0081  0.1122 -0.3245
  562PNCE   C6B 5073  11.222   3.593   6.778 -0.1138  0.1716  0.1370
  563PNCE   AM1 5074   6.712  11.879   9.182  0.0057 -0.4064 -0.0418
  563PNCE   AM2 5075   6.593  12.196   9.204 -0.0842  0.0871 -0.2047
  563PNCE   T1A 5076   6.479  11.714   8.822  0.1864  0.0007 -0.2914
  563PNCE   C2A 5077   6.267  11.410   8.545 -0.0850 -0.0546  0.1857
  563PNCE   C3A 5078   5.851  11.398   8.404 -0.0012  0.0964  0.2414
  563PNCE   C1B 5079   6.711  12.176   8.674  0.1808  0.3708  0.1528
  563PNCE   C2B 5080   6.874  12.398   8.385 -0.0770 -0.1091  0.3621
  563PNCE   C3B 5081   7.060  12.561   8.109  0.0588 -0.2869  0.0850
  563PNCE   D4B 5082   6.934  12.900   7.922  0.2663  0.2766  0.1819
  563PNCE   C5B 5083   6.745  13.220   8.145 -0.0137  0.0308 -0.0840
  563PNCE   C6B 5084   6.644  13.352   8.465 -0.0864 -0.0602  0.0950
  564PNCE   AM1 5085  13.254  11.508   9.330  0.0019 -0.2370 -0.0667
  564PNCE   AM2 5086  13.515  11.698   9.345  0.0260  0.0403  0.0758
  564PNCE   T1A 5087  13.430  11.750   8.827  0.1314  0.1260 -0.1178
  564PNCE   C2A 5088  13.412  11.828   8.402  0.0208  0.6361 -0.0011
  564PNCE   C3A 5089  13.375  11.903   7.992 -0.0202  0.1021  0.3845
  564PNCE   C1B 5090  13.594  12.055   9.114  0.2324  0.1898 -0.0486
  564PNCE   C2B 5091  13.543  12.290   8.832 -0.1702 -0.2181 -0.0382
  564PNCE   C3B 5092  13.701  12.473   8.518 -0.0117 -0.0256  0.0252
  564PNCE   D4B 5093  13.780  12.849   8.348 -0.1073  0.0132  0.0386
  564PNCE   C5B 5094  13.440  13.101   8.172  0.1608  0.1242 -0.1322
  564PNCE   C6B 5095  13.254  13.181   7.891 -0.1225  0.0379 -0.6289
  565CHOL   ROH 5096  12.460  10.806   8.987  0.0027 -0.0426 -0.0790
  565CHOL    R1 5097  12.382  10.666   8.755  0.0708  0.1869 -0.2452
  565CHOL    R2 5098  12.499  10.708   8.508  0.4296  0.1446 -0.0910
  565CHOL    R3 5099  12.538  10.439   8.517  0.0305  0.0781 -0.1685
  565CHOL    R4 5100  12.593  10.514   8.238  0.4333  0.1316 -0.0795
  565CHOL    R5 5101  12.454  10.361   8.307  0.1342  0.2975 -0.2946
  565CHOL    C1 5102  12.685  10.149   8.089  0.0607  0.0615 -0.1455
  565CHOL    C2 5103  13.089   9.968   8.186  0.1511 -0.2149  0.2733
  566CHOL   ROH 5104   6.325   3.600   7.043 -0.0028  0.4848  0.0290
  566CHOL    R1 5105   6.195   3.701   6.813  0.0181  0.2796 -0.0751
  566CHOL    R2 5106   6.305   3.684   6.561  0.0328  0.0378 -0.0535
  566CHOL    R3 5107   6.068   3.566   6.500  0.0291 -0.0045  0.0399
  566CHOL    R4 5108   6.196   3.616   6.240 -0.0846  0.0269 -0.0118
  566CHOL    R5 5109   5.995   3.678   6.301 -0.0725 -0.0115  0.0717
  566CHOL    C1 5110   5.909   3.466   5.996 -0.1565 -0.0192  0.1002
  566CHOL    C2 5111   6.086   3.496   5.593 -0.0094 -0.0647 -0.3201
  567PNCE   AM1 5112   8.997   6.387   4.696 -0.0799  0.0939  0.0826
  567PNCE   AM2 5113   8.785   6.153   4.572  0.2058 -0.2608  0.2027
  567PNCE   T1A 5114   8.774   6.216   5.036  0.0379 -0.0815 -0.1933
  567PNCE   C2A 5115   8.493   6.200   5.396 -0.3491  0.2332 -0.1147
  567PNCE   C3A 5116   8.504   5.885   5.678  0.0909  0.0856  0.1402
  567PNCE   C1B 5117   8.494   5.933   4.792  0.0305 -0.0347 -0.2214
  567PNCE   C2B 5118   8.545   5.440   4.797 -0.0016  0.2618 -0.1667
  567PNCE   C3B 5119   8.208   5.273   4.962  0.1037  0.0465 -0.2940
  567PNCE   D4B 5120   7.767   5.190   4.883  0.2205  0.1007  0.1227
  567PNCE   C5B 5121   7.605   4.934   4.528  0.1766  0.2748 -0.2079
  567PNCE   C6B 5122   7.250   4.872   4.452  0.1477  0.0186 -0.2455
  568PNCE   AM1 5123   3.130  15.681   8.174  0.1038 -0.0480 -0.0542
  568PNCE   AM2 5124   2.909  15.876   8.129 -0.2469 -0.3687 -0.0786
  568PNCE   T1A 5125   3.256  15.994   7.803  0.1251 -0.0429  0.0379
  568PNCE   C2A 5126   3.343  16.084   7.370  0.1807  0.1271 -0.1827
  568PNCE   C3A 5127   3.728  16.088   7.121  0.2688 -0.0066  0.0419
  568PNCE   C1B 5128   2.770  15.780   7.704 -0.2972  0.2202 -0.3126
  568PNCE   C2B 5129   3.027  15.710   7.271 -0.0547  0.1033 -0.1488
  568PNCE   C3B 5130   3.221  15.796   6.979  0.1358 -0.4007 -0.0767
  568PNCE   D4B 5131   3.295  15.576   6.661 -0.0537 -0.0905  0.1285
  568PNCE   C5B 5132   3.355  15.632   6.217  0.0082  0.4878 -0.0665
  568PNCE   C6B 5133   3.653  15.831   5.943  0.0344  0.0196 -0.2785
  569PNCE   AM1 5134   2.149  12.989   8.279 -0.0926  0.2067 -0.1134
  569PNCE   AM2 5135   2.293  12.681   8.265  0.0694 -0.0451  0.1193
  569PNCE   T1A 5136   2.412  13.025   7.923 -0.1474  0.0820 -0.1806
  569PNCE   C2A 5137   2.729  12.895   7.574 -0.0768  0.0837 -0.0011
  569PNCE   C3A 5138   2.896  13.053   7.168  0.1996 -0.1528 -0.4060
  569PNCE   C1B 5139   2.830  12.640   8.027 -0.1598 -0.2769 -0.0042
  569PNCE   C2B 5140   3.220  12.667   7.921 -0.2474  0.0520 -0.2931
  569PNCE   C3B 5141   3.475  12.503   7.609 -0.1190  0.2357  0.0801
  569PNCE   D4B 5142   3.896  12.508   7.474 -0.0033  0.0200 -0.2100
  569PNCE   C5B 5143   4.343  12.359   7.421  0.1528 -0.1556  0.0642
  569PNCE   C6B 5144   4.480  12.038   7.081 -0.2592 -0.1859 -0.0127
  570CHOL   ROH 5145  12.342  10.125   6.344  0.1700 -0.1280 -0.2225
  570CHOL    R1 5146  12.448  10.151   6.606  0.0107  0.0238 -0.1717
  570CHOL    R2 5147  12.715  10.107   6.664 -0.0472 -0.0495  0.0344
  570CHOL    R3 5148  12.699  10.357   6.770 -0.0070  0.0390 -0.1620
  570CHOL    R4 5149  12.903  10.221   6.930 -0.1237  0.0817  0.0339
  570CHOL    R5 5150  12.727  10.323   7.005 -0.1242  0.2043 -0.1211
  570CHOL    C1 5151  12.998  10.522   7.185 -0.1305  0.2412 -0.1507
  570CHOL    C2 5152  13.335  10.560   7.260 -0.0331  0.2627 -0.1307
  571XCA    COO 5153  10.642   7.902   5.227 -0.2354  0.2177 -0.1729
  571XCA     C1 5154  10.762   8.032   5.636 -0.0330 -0.1888  0.0733
  571XCA     C2 5155  10.912   8.316   5.910 -0.1410  0.3992  0.2147
  571XCA     C3 5156  10.739   8.203   6.396 -0.0373 -0.1577 -0.0826
  571XCA     C4 5157  10.348   8.072   6.613  0.4372  0.0621  0.2445
  571XCA     C5 5158  10.291   8.054   7.045  0.0021 -0.2075  0.2298
  571XCA     C6 5159  10.525   7.897   7.343  0.2616 -0.1869  0.0215
  572PNCE   AM1 5160   6.358  12.488   5.350 -0.0879 -0.1390 -0.1688
  572PNCE   AM2 5161   6.354  12.711   5.068  0.3970  0.1591  0.2154
  572PNCE   T1A 5162   6.686  12.316   5.637  0.1444  0.1054  0.1654
  572PNCE   C2A 5163   7.005  12.406   5.949 -0.0205 -0.0019 -0.0792
  572PNCE   C3A 5164   7.227  12.341   6.324 -0.2436 -0.2251  0.1384
  572PNCE   C1B 5165   6.442  13.043   5.332  0.0854  0.0683 -0.3550
  572PNCE   C2B 5166   6.327  13.421   5.588  0.3732  0.3032 -0.3581
  572PNCE   C3B 5167   6.028  13.593   5.886  0.1128  0.0735  0.3343
  572PNCE   D4B 5168   5.593  13.613   6.093  0.2998 -0.1525  0.0915
  572PNCE   C5B 5169   5.272  13.845   5.920  0.2159 -0.1967  0.0753
  572PNCE   C6B 5170   4.911  14.032   5.811 -0.1769  0.1240  0.1209
  573CHOL   ROH 5171   5.982   3.096   6.079  0.1512  0.1317 -0.1710
  573CHOL    R1 5172   5.774   3.076   5.888 -0.0203 -0.0660  0.0310
  573CHOL    R2 5173   5.817   3.109   5.616 -0.3357  0.0973 -0.0014
  573CHOL    R3 5174   5.698   2.865   5.602 -0.0346 -0.0567  0.0268
  573CHOL    R4 5175   5.649   2.985   5.340 -0.2259 -0.1183  0.0262
  573CHOL    R5 5176   5.500   2.902   5.473 -0.1055 -0.3039  0.0554
  573CHOL    C1 5177   5.440   2.684   5.167  0.1207 -0.3885  0.0688
  573CHOL    C2 5178   5.333   2.287   5.122  0.3145 -0.5626 -0.4764
  574PNCE   AM1 5179   2.629   2.284   7.785  0.0550 -0.0239  0.0151
  574PNCE   AM2 5180   2.657   2.596   7.582  0.0725  0.1521 -0.0859
  574PNCE   T1A 5181   2.974   2.003   7.570  0.2032 -0.2517 -0.1375
  574PNCE   C2A 5182   3.239   1.920   7.312  0.0237  0.2237  0.1075
  574PNCE   C3A 5183   3.292   1.822   6.829 -0.1542  0.1160 -0.3026
  574PNCE   C1B 5184   2.868   2.323   7.179 -0.3165  0.0473 -0.0994
  574PNCE   C2B 5185   3.086   2.240   6.753  0.2167 -0.1117  0.2063
  574PNCE   C3B 5186   2.947   1.974   6.379  0.1441 -0.3342 -0.1595
  574PNCE   D4B 5187   2.710   1.882   6.038  0.3082 -0.3290  0.3655
  574PNCE   C5B 5188   2.358   2.097   5.811  0.3139 -0.0326 -0.1591
  574PNCE   C6B 5189   1.955   2.163   6.012 -0.2229  0.1653 -0.1088
  575PNCE   AM1 5190   6.567  14.559   8.906 -0.1243  0.0787 -0.3718
  575PNCE   AM2 5191   6.491  14.805   8.723 -0.0353  0.0442 -0.5104
  575PNCE   T1A 5192   6.394  14.135   8.780  0.0529 -0.2045  0.2991
  575PNCE   C2A 5193   6.327  13.905   8.492  0.5598 -0.1931 -0.2753
  575PNCE   C3A 5194   6.414  13.665   8.093  0.2299 -0.2908 -0.0657
  575PNCE   C1B 5195   6.419  14.482   8.407 -0.1668 -0.0104 -0.0479
  575PNCE   C2B 5196   6.253  14.202   8.136  0.0474  0.0299  0.0304
  575PNCE   C3B 5197   6.333  14.056   7.744  0.0036  0.3057 -0.0772
  575PNCE   D4B 5198   6.387  13.667   7.572 -0.1351 -0.0361 -0.1552
  575PNCE   C5B 5199   6.416  13.417   7.245 -0.0465 -0.2898 -0.4809
  575PNCE   C6B 5200   6.344  13.117   7.102 -0.3578 -0.2273  0.2608
  576XCA    COO 5201  10.561   9.208   6.022  0.1569  0.1177 -0.1333
  576XCA     C1 5202  10.659   8.774   6.194  0.1291 -0.0264  0.0707
  576XCA     C2 5203  10.500   8.603   6.579 -0.1634  0.0708 -0.0290
  576XCA     C3 5204  10.195   8.800   6.867 -0.2715 -0.2172  0.2696
  576XCA     C4 5205   9.970   8.865   7.252 -0.2179 -0.2066  0.1603
  576XCA     C5 5206   9.630   8.777   7.445 -0.0594  0.0032 -0.1556
  576XCA     C6 5207   9.372   8.906   7.787 -0.0411 -0.0381 -0.0492
  577XCA    COO 5208  15.714  10.509   8.974  0.0425 -0.0655  0.0407
  577XCA     C1 5209  15.626  10.399   8.559 -0.0690 -0.3960  0.3381
  577XCA     C2 5210  15.702  10.469   8.177 -0.1018 -0.0639 -0.1764
  577XCA     C3 5211  15.575  10.626   7.713  0.1187 -0.1396  0.0876
  577XCA     C4 5212  15.599  10.797   7.299 -0.2924 -0.3951 -0.4743
  577XCA     C5 5213  15.402  11.092   7.038 -0.1541 -0.0842 -0.1106
  577XCA     C6 5214  15.515  11.203   6.738 -0.1420 -0.0234 -0.0689
  578PNCE   AM1 5215   5.645   8.311   7.917 -0.0132 -0.0916  0.0664
  578PNCE   AM2 5216   5.448   8.550   7.860  0.0356 -0.1299  0.1969
  578PNCE   T1A 5217   5.842   8.138   7.557 -0.1672 -0.0117 -0.1130
  578PNCE   C2A 5218   5.940   8.001   7.184 -0.1253 -0.2347  0.1362
  578PNCE   C3A 5219   6.176   7.669   6.976 -0.1083  0.1503 -0.3709
  578PNCE   C1B 5220   5.802   8.870   7.902 -0.1408 -0.0236 -0.5555
  578PNCE   C2B 5221   6.185   8.800   8.125 -0.4812  0.0933  0.1635
  578PNCE   C3B 5222   6.367   9.044   8.441 -0.0739 -0.1228 -0.1002
  578PNCE   D4B 5223   6.747   9.089   8.566 -0.0297 -0.1199 -0.0423
  578PNCE   C5B 5224   7.046   9.265   8.434 -0.1722  0.1927  0.1464
  578PNCE   C6B 5225   7.124   9.563   8.212 -0.0359  0.2798 -0.0891
  579CHOL   ROH 5226   5.431  13.125   7.152 -0.1055  0.2096  0.2114
  579CHOL    R1 5227   5.185  13.259   7.113 -0.1479  0.1078  0.1233
  579CHOL    R2 5228   5.171  13.521   7.026 -0.2272  0.0868  0.0711
  579CHOL    R3 5229   5.011  13.414   6.834 -0.1369 -0.0110  0.0495
  579CHOL    R4 5230   4.919  13.691   6.861 -0.2812 -0.0526  0.0084
  579CHOL    R5 5231   4.796  13.512   6.874 -0.1945 -0.1144  0.0001
  579CHOL    C1 5232   4.623  13.690   6.584 -0.2280 -0.2257 -0.0484
  579CHOL    C2 5233   4.262  13.702   6.307  0.0325  0.0071  0.2243
  580PNCE   AM1 5234  15.612  12.902   8.607 -0.2752  0.0469  0.0039
  580PNCE   AM2 5235  15.891  12.861   8.469 -0.0664 -0.1536  0.1141
  580PNCE   T1A 5236  15.510  12.807   8.090  0.0891  0.0670 -0.1136
  580PNCE   C2A 5237  15.701  12.941   7.682  0.1665 -0.1120 -0.0346
  580PNCE   C3A 5238  15.790  13.295   7.419 -0.1478 -0.0679  0.3131
  580PNCE   C1B 5239  16.068  12.829   8.045  0.0202 -0.3555  0.1414
  580PNCE   C2B 5240  16.211  12.666   7.692  0.4375 -0.0088 -0.2498
  580PNCE   C3B 5241  16.065  12.768   7.235 -0.0410  0.3258 -0.2756
  580PNCE   D4B 5242  16.074  12.561   6.857  0.3156 -0.1071 -0.0435
  580PNCE   C5B 5243  15.959  12.788   6.617  0.0461 -0.0022  0.1163
  580PNCE   C6B 5244  15.860  12.869   6.110  0.0070 -0.0473  0.1991
  581CHOL   ROH 5245  11.003  13.319   5.196 -0.1283 -0.0892 -0.2376
  581CHOL    R1 5246  10.931  13.480   5.418  0.0314 -0.1268 -0.1573
  581CHOL    R2 5247  10.681  13.594   5.444  0.0964 -0.0154 -0.0271
  581CHOL    R3 5248  10.685  13.468   5.685  0.1246 -0.0947 -0.0684
  581CHOL    R4 5249  10.511  13.700   5.726  0.0880 -0.1307  0.0120
  581CHOL    R5 5250  10.685  13.646   5.845  0.1028 -0.1439 -0.0107
  581CHOL    C1 5251  10.416  13.643   6.116  0.1096 -0.2723 -0.0040
  581CHOL    C2 5252  10.368  13.658   6.493  0.0639  0.3474  0.1649
  582CHOL   ROH 5253  11.983  10.467   6.208  0.0814  0.3201  0.0372
  582CHOL    R1 5254  11.944  10.464   6.488  0.0141 -0.0068  0.0289
  582CHOL    R2 5255  12.050  10.268   6.651  0.2694 -0.0122 -0.1367
  582CHOL    R3 5256  12.156  10.480   6.784 -0.0775  0.0259  0.0928
  582CHOL    R4 5257  12.230  10.246   6.945  0.5097 -0.0656 -0.2848
  582CHOL    R5 5258  12.127  10.425   7.016  0.1819 -0.3671  0.0404
  582CHOL    C1 5259  12.435  10.432   7.241  0.3239 -0.0611 -0.1557
  582CHOL    C2 5260  12.579  10.232   7.545  0.3389 -0.1151 -0.0248
  583CHOL   ROH 5261  14.475  11.001   9.053  0.2443  0.1509  0.1306
  583CHOL    R1 5262  14.543  10.910   8.794  0.0010 -0.1894  0.1773
  583CHOL    R2 5263  14.383  10.736   8.650 -0.5352  0.2123  0.2411
  583CHOL    R3 5264  14.399  10.931   8.460  0.0826  0.1005  0.1603
  583CHOL    R4 5265  14.334  10.688   8.311 -0.4366  0.2038  0.2290
  583CHOL    R5 5266  14.500  10.823   8.272 -0.0648 -0.2320  0.2724
  583CHOL    C1 5267  14.321  10.843   7.936  0.2010  0.0941  0.1460
  583CHOL    C2 5268  14.559  10.832   7.470  0.3490  0.2151  0.0573
  584XCA    COO 5269  12.129  10.917   5.962  0.0473  0.0056 -0.0244
  584XCA     C1 5270  12.206  11.009   6.370  0.0244  0.1842 -0.0917
  584XCA     C2 5271  12.033  10.883   6.666 -0.1200 -0.1519  0.2726
  584XCA     C3 5272  12.017  10.921   7.119 -0.0464  0.0410  0.1264
  584XCA     C4 5273  11.971  11.134   7.556  0.0052 -0.0793 -0.2274
  584XCA     C5 5274  12.087  11.006   7.877  0.1208 -0.0220 -0.3957
  584XCA     C6 5275  12.447  11.064   8.184 -0.1474 -0.0561 -0.1588
  585PNCE   AM1 5276   9.736   6.312   8.348  0.0289 -0.1429 -0.3529
  585PNCE   AM2 5277   9.641   6.580   8.260 -0.1694  0.1334  0.2320
  585PNCE   T1A 5278  10.277   6.453   8.411  0.2902 -0.0153 -0.3431
  585PNCE   C2A 5279  10.620   6.614   8.385 -0.2877 -0.2828 -0.0120
  585PNCE   C3A 5280  11.136   6.578   8.395 -0.1352  0.1949 -0.0580
  585PNCE   C1B 5281   9.819   6.975   8.326  0.3068 -0.2387  0.1423
  585PNCE   C2B 5282   9.982   7.251   8.006 -0.4443 -0.0150  0.2382
  585PNCE   C3B 5283  10.338   7.313   7.743  0.1426  0.1247  0.0723
  585PNCE   D4B 5284  10.643   7.433   7.623  0.2106 -0.1032 -0.1403
  585PNCE   C5B 5285  10.999   7.355   8.041  0.0973  0.2390  0.1998
  585PNCE   C6B 5286  10.851   7.056   8.364  0.2381  0.0081  0.1565
  586PNCE   AM1 5287   5.107  14.949   8.643  0.0451  0.4188  0.2927
  586PNCE   AM2 5288   4.807  14.908   8.356 -0.5634  0.0538  0.3205
  586PNCE   T1A 5289   5.284  15.178   8.338  0.1504  0.2188  0.2467
  586PNCE   C2A 5290   5.629  15.421   8.078 -0.1171 -0.2088  0.0575
  586PNCE   C3A 5291   5.992  15.748   8.005  0.1715 -0.3703  0.4931
  586PNCE   C1B 5292   4.852  14.864   7.973  0.1361  0.3189 -0.1208
  586PNCE   C2B 5293   5.192  14.631   7.615  0.2946 -0.5419  0.0760
  586PNCE   C3B 5294   5.478  14.472   7.367 -0.1980  0.2252 -0.0699
  586PNCE   D4B 5295   5.502  14.385   7.000  0.0858  0.1656  0.2718
  586PNCE   C5B 5296   5.771  14.532   6.619 -0.0818 -0.0669  0.1918
  586PNCE   C6B 5297   5.970  14.868   6.451  0.2387 -0.1636 -0.2408
  587CHOL   ROH 5298   1.895   9.769   8.080 -0.2548  0.2569 -0.1531
  587CHOL    R1 5299   1.808   9.807   7.813 -0.2229  0.0876 -0.1888
  587CHOL    R2 5300   1.943   9.701   7.596 -0.0921  0.1030 -0.1185
  587CHOL    R3 5301   1.700   9.594   7.538  0.0000 -0.1037 -0.1310
  587CHOL    R4 5302   1.875   9.503   7.321  0.0791  0.0645 -0.1340
  587CHOL    R5 5303   1.685   9.608   7.299 -0.0101 -0.0990 -0.1283
  587CHOL    C1 5304   1.607   9.288   7.106  0.2653 -0.1519 -0.1548
  587CHOL    C2 5305   1.277   9.101   7.050 -0.0411  0.1528 -0.1106
  588PNCE   AM1 5306  10.600  10.930   9.871  0.2117 -0.1424 -0.1621
  588PNCE   AM2 5307  10.849  10.731   9.774  0.2545  0.1086  0.1550
  588PNCE   T1A 5308  10.300  11.039   9.493  0.1422  0.2187 -0.1104
  588PNCE   C2A 5309  10.090  11.080   9.139 -0.2652 -0.2511 -0.1139
  588PNCE   C3A 5310  10.176  11.043   8.804  0.1455  0.4956  0.1111
  588PNCE   C1B 5311  10.818  10.956   9.392  0.2905 -0.1908  0.0700
  588PNCE   C2B 5312  11.036  10.899   8.977  0.1893 -0.1649 -0.3777
  588PNCE   C3B 5313  11.431  10.754   8.886  0.0145  0.2817  0.0415
  588PNCE   D4B 5314  11.640  11.078   8.734  0.1788 -0.4188  0.0728
  588PNCE   C5B 5315  12.070  11.079   8.790 -0.1359 -0.1527  0.2621
  588PNCE   C6B 5316  12.607  11.086   8.674 -0.0447  0.0126 -0.0237
  589CHOL   ROH 5317  12.679  15.625   7.964  0.1814  0.0539  0.2143
  589CHOL    R1 5318  12.902  15.697   7.806  0.0354  0.0148 -0.0118
  589CHOL    R2 5319  13.152  15.582   7.839  0.1237  0.1968 -0.0497
  589CHOL    R3 5320  13.127  15.528   7.573 -0.0199 -0.1051  0.0202
  589CHOL    R4 5321  13.416  15.532   7.622  0.0106  0.0031 -0.1470
  589CHOL    R5 5322  13.308  15.647   7.472 -0.0967 -0.1826 -0.2175
  589CHOL    C1 5323  13.547  15.453   7.247 -0.1900 -0.3932 -0.1381
  589CHOL    C2 5324  13.918  15.291   7.156  0.1546 -0.0059 -0.0482
  590XCA    COO 5325   2.569  10.534   4.886 -0.0731  0.0476  0.2094
  590XCA     C1 5326   2.535  10.181   5.177 -0.1536  0.0243  0.1202
  590XCA     C2 5327   2.537  10.016   5.562 -0.0431 -0.0244  0.2693
  590XCA     C3 5328   2.464  10.108   5.895  0.1924 -0.0466 -0.0375
  590XCA     C4 5329   2.289   9.976   6.253  0.1108  0.2757 -0.0705
  590XCA     C5 5330   2.292   9.590   6.538 -0.0449  0.0052  0.0062
  590XCA     C6 5331   2.111   9.320   6.849 -0.1607  0.0436 -0.4380
  591CHOL   ROH 5332   6.581   6.754   7.049  0.1347 -0.1111  0.0236
  591CHOL    R1 5333   6.639   6.578   6.835  0.1647 -0.0683 -0.0031
  591CHOL    R2 5334   6.662   6.664   6.574  0.0681 -0.0367  0.0005
  591CHOL    R3 5335   6.904   6.539   6.589  0.1270  0.0670 -0.0663
  591CHOL    R4 5336   6.835   6.535   6.304 -0.0386 -0.1228 -0.0279
  591CHOL    R5 5337   6.890   6.364   6.427  0.1005 -0.0327  0.0410
  591CHOL    C1 5338   7.162   6.343   6.160 -0.0453 -0.0756 -0.1072
  591CHOL    C2 5339   7.179   5.941   6.224 -0.0889 -0.2223  0.3068
  592CHOL   ROH 5340   6.028   4.759   3.376 -0.2657 -0.1231 -0.0210
  592CHOL    R1 5341   6.039   4.584   3.598  0.0089 -0.1460 -0.0499
  592CHOL    R2 5342   6.275   4.473   3.688  0.2189  0.3475  0.0378
  592CHOL    R3 5343   6.199   4.582   3.925 -0.1344  0.1437  0.0261
  592CHOL    R4 5344   6.321   4.326   3.998  0.0976  0.2433  0.0077
  592CHOL    R5 5345   6.123   4.396   4.055 -0.0442 -0.0147 -0.1403
  592CHOL    C1 5346   6.277   4.344   4.400 -0.3047 -0.0087 -0.0208
  592CHOL    C2 5347   6.446   4.523   4.775 -0.2508  0.0438  0.0634
  593CHOL   ROH 5348  15.425   1.420   8.302 -0.0433  0.0144 -0.0417
  593CHOL    R1 5349  15.399   1.579   8.070 -0.0514  0.1706  0.0647
  593CHOL    R2 5350  15.579   1.779   8.005  0.1457 -0.0233  0.0116
  593CHOL    R3 5351  15.594   1.643   7.770 -0.2368  0.0777 -0.0787
  593CHOL    R4 5352  15.665   1.919   7.701  0.2883 -0.0074  0.0587
  593CHOL    R5 5353  15.511   1.797   7.606 -0.0088  0.3512  0.0521
  593CHOL    C1 5354  15.729   1.873   7.303  0.0125  0.0966  0.0013
  593CHOL    C2 5355  15.996   1.935   7.082 -0.0775  0.0926  0.0248
  594CHOL   ROH 5356  10.801   2.762   4.271 -0.2009 -0.0287  0.1418
  594CHOL    R1 5357  10.785   3.001   4.421 -0.0458  0.1347 -0.0943
  594CHOL    R2 5358  10.693   3.239   4.314 -0.2971 -0.0150 -0.2193
  594CHOL    R3 5359  10.523   3.231   4.526  0.0336  0.1553  0.0635
  594CHOL    R4 5360  10.484   3.497   4.407 -0.2707  0.0002 -0.2018
  594CHOL    R5 5361  10.531   3.453   4.615  0.0774  0.2707 -0.2137
  594CHOL    C1 5362  10.201   3.641   4.660  0.0551  0.1689  0.0738
  594CHOL    C2 5363  10.022   3.864   4.369 -0.0438 -0.0628 -0.1668
  595CHOL   ROH 5364   3.725   8.027   5.011 -0.1440  0.1020 -0.1075
  595CHOL    R1 5365   3.718   8.100   5.284 -0.2074  0.0979 -0.1081
  595CHOL    R2 5366   3.908   8.016   5.466 -0.3394 -0.0392 -0.0313
  595CHOL    R3 5367   3.932   8.282   5.515 -0.1772 -0.0561 -0.0134
  595CHOL    R4 5368   3.960   8.155   5.778 -0.0182 -0.1032 -0.0530
  595CHOL    R5 5369   3.821   8.314   5.725  0.0095 -0.0323  0.0838
  595CHOL    C1 5370   4.014   8.486   6.006  0.3211 -0.1563 -0.0490
  595CHOL    C2 5371   3.946   8.459   6.412  0.1324 -0.1431 -0.0977
  596CHOL   ROH 5372   3.841   1.980   4.077 -0.0282  0.0049  0.0065
  596CHOL    R1 5373   3.833   2.211   4.240 -0.0984 -0.0056  0.0181
  596CHOL    R2 5374   3.947   2.220   4.491 -0.0512  0.0342 -0.0037
  596CHOL    R3 5375   4.075   2.438   4.391 -0.1682  0.0955 -0.0210
  596CHOL    R4 5376   3.989   2.519   4.660  0.0649 -0.0362  0.0944
  596CHOL    R5 5377   3.948   2.624   4.473 -0.1172  0.0440  0.1783
  596CHOL    C1 5378   4.133   2.897   4.663  0.0227 -0.0197  0.1352
  596CHOL    C2 5379   4.000   3.181   4.962  0.1538  0.3707  0.0673
  597PNCE   AM1 5380  14.240  14.454   8.477 -0.3928  0.4623  0.0085
  597PNCE   AM2 5381  13.907  14.432   8.405 -0.0726 -0.2191 -0.0267
  597PNCE   T1A 5382  14.301  14.403   8.052  0.2388  0.2937  0.1410
  597PNCE   C2A 5383  14.298  14.778   7.758 -0.1468 -0.0620  0.1992
  597PNCE   C3A 5384  14.575  14.826   7.424  0.0147 -0.1225  0.4598
  597PNCE   C1B 5385  13.531  14.213   8.288  0.0600  0.1893 -0.1508
  597PNCE   C2B 5386  13.351  13.972   7.948 -0.3598 -0.2409  0.3159
  597PNCE   C3B 5387  13.318  13.794   7.467  0.0928 -0.1267  0.0649
  597PNCE   D4B 5388  13.602  13.873   7.092  0.2548  0.0067  0.0045
  597PNCE   C5B 5389  13.556  14.104   6.724 -0.2482  0.1651  0.0694
  597PNCE   C6B 5390  13.710  14.440   6.559 -0.1603  0.0667  0.1310
  598XCA    COO 5391  12.631  13.658   8.457  0.1778 -0.1408 -0.0181
  598XCA     C1 5392  12.240  13.691   8.402 -0.0460  0.0553  0.1850
  598XCA     C2 5393  12.073  13.823   8.023  0.1831 -0.2265 -0.1895
  598XCA     C3 5394  12.104  13.727   7.623  0.0714  0.0398 -0.2800
  598XCA     C4 5395  11.991  13.786   7.262  0.0366  0.2343  0.3512
  598XCA     C5 5396  11.990  13.839   6.830 -0.1886 -0.0082  0.3301
  598XCA     C6 5397  11.917  14.285   6.704  0.1198 -0.1362 -0.0121
  599CHOL   ROH 5398  11.623   1.785   8.238  0.0045  0.3881  0.0335
  599CHOL    R1 5399  11.723   1.786   7.973 -0.0302  0.4974  0.0217
  599CHOL    R2 5400  11.665   1.585   7.792  0.3269  0.3271  0.0976
  599CHOL    R3 5401  11.582   1.793   7.638 -0.0931  0.1256  0.0342
  599CHOL    R4 5402  11.674   1.590   7.447  0.2247  0.2005  0.0906
  599CHOL    R5 5403  11.738   1.798   7.456 -0.1425  0.3325 -0.0101
  599CHOL    C1 5404  11.601   1.789   7.101 -0.2289 -0.0624  0.0270
  599CHOL    C2 5405  11.717   1.855   6.746 -0.2832 -0.0415 -0.0218
  600PNCE   AM1 5406   8.561   9.103   9.653  0.1726  0.0159  0.1309
  600PNCE   AM2 5407   8.368   8.956   9.420  0.0465 -0.3241  0.1998
  600PNCE   T1A 5408   8.854   9.239   9.387  0.2110 -0.0278 -0.0341
  600PNCE   C2A 5409   9.150   9.335   9.083  0.1520 -0.1510 -0.1306
  600PNCE   C3A 5410   9.336   9.512   8.894  0.0689 -0.1232  0.1476
  600PNCE   C1B 5411   8.459   9.091   9.001 -0.0404 -0.0938 -0.1570
  600PNCE   C2B 5412   8.487   9.395   8.719 -0.1947 -0.2335  0.0342
  600PNCE   C3B 5413   8.623   9.757   8.369  0.0826  0.0839  0.1707
  600PNCE   D4B 5414   8.479   9.978   8.002  0.0551  0.0749 -0.0793
  600PNCE   C5B 5415   8.722  10.351   7.787 -0.0691 -0.0718  0.0082
  600PNCE   C6B 5416   8.774  10.617   7.515 -0.4668  0.1062  0.0624
  601XCA    COO 5417   8.976   6.320   8.151 -0.1343 -0.1150 -0.0216
  601XCA     C1 5418   8.816   6.562   7.865  0.1291 -0.1967 -0.3552
  601XCA     C2 5419   8.874   6.933   7.845 -0.0832  0.0540  0.1627
  601XCA     C3 5420   9.147   7.194   7.597  0.1330  0.0060  0.1138
  601XCA     C4 5421   9.146   7.591   7.344  0.0486 -0.2466  0.4654
  601XCA     C5 5422   9.099   8.014   7.196  0.1650 -0.0335 -0.1465
  601XCA     C6 5423   9.462   8.310   7.142  0.0687  0.0823  0.3296
  602CHOL   ROH 5424  12.960   3.170   5.304  0.1245  0.0034 -0.0032
  602CHOL    R1 5425  12.948   3.282   5.563  0.0925  0.0073 -0.0054
  602CHOL    R2 5426  12.791   3.501   5.623  0.1344  0.0542 -0.0422
  602CHOL    R3 5427  12.692   3.337   5.816  0.0445  0.0755 -0.0708
  602CHOL    R4 5428  12.663   3.607   5.926  0.2502  0.0566  0.0058
  602CHOL    R5 5429  12.762   3.438   6.022  0.1407 -0.0340 -0.0544
  602CHOL    C1 5430  12.495   3.514   6.284  0.2333  0.0780  0.0070
  602CHOL    C2 5431  12.244   3.679   6.494 -0.0481  0.1186  0.2005
  603PNCE   AM1 5432   5.139   1.037   7.897 -0.0040  0.1920 -0.3728
  603PNCE   AM2 5433   5.171   1.329   8.134 -0.0253 -0.0419 -0.0971
  603PNCE   T1A 5434   4.903   0.771   7.642  0.1256 -0.4759  0.0942
  603PNCE   C2A 5435   4.516   0.554   7.640  0.0589  0.1840  0.1414
  603PNCE   C3A 5436   4.108   0.624   7.343  0.0080  0.0608 -0.0287
  603PNCE   C1B 5437   4.963   1.577   7.809 -0.2589 -0.3089 -0.0111
  603PNCE   C2B 5438   4.882   2.057   7.742 -0.0557  0.1635 -0.0989
  603PNCE   C3B 5439   4.876   2.433   7.480  0.1168  0.1076 -0.0636
  603PNCE   D4B 5440   4.774   2.675   7.193  0.0739 -0.3735  0.0736
  603PNCE   C5B 5441   4.410   2.567   6.863 -0.1209 -0.2582  0.1517
  603PNCE   C6B 5442   4.356   2.385   6.563  0.0304 -0.0360  0.0040
  604XCA    COO 5443   2.973  11.357   4.593 -0.3457  0.0188  0.1338
  604XCA     C1 5444   2.976  11.405   4.966  0.0945  0.0147  0.1216
  604XCA     C2 5445   2.942  11.458   5.403 -0.2666  0.1004  0.2034
  604XCA     C3 5446   3.071  11.229   5.799 -0.0892 -0.2242  0.0014
  604XCA     C4 5447   3.117  11.212   6.274 -0.1789  0.0006  0.0646
  604XCA     C5 5448   3.290  11.623   6.475  0.0922 -0.0319 -0.1242
  604XCA     C6 5449   3.075  11.823   6.583  0.2939 -0.0665  0.0984
  605PNCE   AM1 5450  13.818   3.775   8.865 -0.1117 -0.0276  0.0092
  605PNCE   AM2 5451  13.948   3.984   9.109  0.0838  0.1552  0.1429
  605PNCE   T1A 5452  13.793   3.959   8.431 -0.1065  0.0881 -0.1104
  605PNCE   C2A 5453  14.058   4.003   7.975  0.2194 -0.0214 -0.0404
  605PNCE   C3A 5454  13.784   4.043   7.641 -0.0144  0.0530  0.2269
  605PNCE   C1B 5455  14.305   3.854   8.808 -0.1724  0.2676 -0.0191
  605PNCE   C2B 5456  14.382   3.864   8.353  0.1808  0.3766  0.2814
  605PNCE   C3B 5457  14.647   3.808   8.149  0.1367 -0.0286 -0.1783
  605PNCE   D4B 5458  14.933   3.772   7.758  0.0728  0.1330  0.1371
  605PNCE   C5B 5459  14.877   3.931   7.298  0.2912  0.1974 -0.2186
  605PNCE   C6B 5460  14.660   4.083   7.011  0.2003  0.0209  0.0046
  606CHOL   ROH 5461  11.523   9.675   6.140 -0.0568  0.0350 -0.0456
  606CHOL    R1 5462  11.274   9.645   6.272 -0.0659  0.0633 -0.0580
  606CHOL    R2 5463  11.243   9.494   6.501 -0.1160 -0.0250 -0.1276
  606CHOL    R3 5464  11.137   9.723   6.599 -0.0410 -0.0336 -0.0224
  606CHOL    R4 5465  11.048   9.516   6.785 -0.1506 -0.1094 -0.1440
  606CHOL    R5 5466  10.922   9.660   6.681 -0.0817 -0.0005 -0.0910
  606CHOL    C1 5467  10.834   9.744   7.042 -0.1004 -0.1665 -0.0549
  606CHOL    C2 5468  10.820   9.720   7.359 -0.1182  0.1559 -0.0227
  607XCA    COO 5469   5.095   5.894   8.095 -0.4098  0.0431  0.3706
  607XCA     C1 5470   4.837   5.953   7.705 -0.1807  0.1398  0.4401
  607XCA     C2 5471   4.899   6.052   7.196  0.0871 -0.0604 -0.0227
  607XCA     C3 5472   4.933   5.875   6.816 -0.2104 -0.3323  0.1902
  607XCA     C4 5473   4.799   5.986   6.386 -0.0388  0.0327 -0.0742
  607XCA     C5 5474   4.838   6.113   5.915 -0.0464 -0.0253 -0.2228
  607XCA     C6 5475   5.072   6.218   5.566  0.2885 -0.1763 -0.0780
  608XCA    COO 5476  15.557  10.001   9.128  0.2009  0.2296 -0.0728
  608XCA     C1 5477  15.547   9.741   8.672 -0.3351 -0.0057 -0.1092
  608XCA     C2 5478  15.657   9.864   8.300  0.0442 -0.0888 -0.4202
  608XCA     C3 5479  15.581  10.121   7.869  0.0908  0.0538 -0.2100
  608XCA     C4 5480  15.546  10.051   7.449 -0.1636 -0.3262 -0.0314
  608XCA     C5 5481  15.207   9.941   7.062 -0.3162  0.2929  0.2220
  608XCA     C6 5482  14.841   9.715   6.973 -0.2398  0.1332 -0.1553
  609XCA    COO 5483  14.872  13.914   4.606 -0.0693  0.1209 -0.0122
  609XCA     C1 5484  14.683  14.044   5.005  0.0034  0.0044  0.0889
  609XCA     C2 5485  14.822  14.087   5.411  0.1489  0.0213 -0.1869
  609XCA     C3 5486  14.766  14.320   5.733 -0.1719 -0.2829 -0.0094
  609XCA     C4 5487  14.708  14.388   6.135  0.4915  0.0327  0.1917
  609XCA     C5 5488  14.592  14.092   6.315  0.5352 -0.2456  0.0856
  609XCA     C6 5489  14.610  14.273   6.677 -0.0996  0.0731 -0.3693
  610CHOL   ROH 5490   1.814  14.936   6.704  0.0388  0.1530  0.0840
  610CHOL    R1 5491   1.782  14.972   6.426  0.0124  0.3017  0.1060
  610CHOL    R2 5492   1.965  15.110   6.272  0.2416 -0.0124  0.0902
  610CHOL    R3 5493   1.966  14.882   6.124 -0.2651  0.0214  0.0135
  610CHOL    R4 5494   1.961  15.098   5.926  0.5742  0.1393  0.0773
  610CHOL    R5 5495   1.823  14.930   5.939  0.0572  0.5187 -0.1291
  610CHOL    C1 5496   1.961  14.877   5.587  0.2922  0.2594 -0.0022
  610CHOL    C2 5497   2.382  14.867   5.326  0.0574  0.1140 -0.2032
  611CHOL   ROH 5498  10.816   0.780   7.331  0.1250 -0.1835  0.2834
  611CHOL    R1 5499  10.596   0.623   7.248  0.0898 -0.2148  0.4351
  611CHOL    R2 5500  10.533   0.584   6.981 -0.3122  0.0952  0.4762
  611CHOL    R3 5501  10.545   0.322   7.051 -0.0277  0.0052  0.1193
  611CHOL    R4 5502  10.325   0.337   6.858 -0.1685  0.0663  0.2840
  611CHOL    R5 5503  10.317   0.251   7.058  0.0387 -0.2126  0.1793
  611CHOL    C1 5504  10.215  -0.053   6.852  0.1823 -0.0350 -0.1628
  611CHOL    C2 5505  10.232  -0.388   6.852  0.2032 -0.1079  0.3856
  612CHOL   ROH 5506  13.448   6.466   9.176 -0.0985 -0.0289  0.0263
  612CHOL    R1 5507  13.320   6.261   9.028 -0.1048 -0.1824  0.2409
  612CHOL    R2 5508  13.351   6.234   8.755 -0.5095 -0.1573  0.1911
  612CHOL    R3 5509  13.425   5.981   8.820 -0.1141 -0.0756  0.0883
  612CHOL    R4 5510  13.347   5.966   8.538 -0.6436 -0.1807  0.2210
  612CHOL    R5 5511  13.271   5.842   8.700 -0.2079 -0.2489  0.3923
  612CHOL    C1 5512  13.414   5.571   8.472 -0.3507 -0.1176  0.1418
  612CHOL    C2 5513  13.610   5.331   8.364 -0.1896 -0.0718  0.1605
  613CHOL   ROH 5514   3.525  13.465   8.292  0.3034  0.0064  0.1415
  613CHOL    R1 5515   3.610  13.387   8.033  0.2119 -0.0053  0.1162
  613CHOL    R2 5516   3.433  13.347   7.825  0.1512  0.0994  0.1538
  613CHOL    R3 5517   3.595  13.525   7.697  0.2067  0.0356  0.1317
  613CHOL    R4 5518   3.442  13.396   7.483  0.1781  0.0350  0.1439
  613CHOL    R5 5519   3.659  13.413   7.495  0.1865 -0.0210  0.1525
  613CHOL    C1 5520   3.598  13.592   7.164  0.2457 -0.0624  0.1174
  613CHOL    C2 5521   3.875  13.627   6.990 -0.1759 -0.1144 -0.3011
  614CHOL   ROH 5522  10.292   4.695   4.433  0.2425 -0.1205  0.0074
  614CHOL    R1 5523  10.108   4.495   4.510 -0.1891  0.3392  0.2133
  614CHOL    R2 5524  10.187   4.241   4.586 -0.7473 -0.0217 -0.3683
  614CHOL    R3 5525  10.041   4.297   4.809  0.0074  0.1319  0.1297
  614CHOL    R4 5526  10.076   4.006   4.814 -0.8964 -0.0611 -0.4763
  614CHOL    R5 5527   9.887   4.114   4.827 -0.5635  0.5713  0.1996
  614CHOL    C1 5528   9.875   3.922   5.156 -0.2750  0.0602 -0.0718
  614CHOL    C2 5529   9.557   3.742   5.232  0.0414  0.4074 -0.3896
  615PNCE   AM1 5530   8.942  12.244   9.450  0.0241 -0.0565 -0.0871
  615PNCE   AM2 5531   9.144  12.432   9.572  0.1853  0.2322  0.0653
  615PNCE   T1A 5532   8.989  12.275   9.001  0.0317 -0.0268 -0.0106
  615PNCE   C2A 5533   8.837  12.097   8.642  0.0602  0.2456  0.2916
  615PNCE   C3A 5534   8.823  11.712   8.368 -0.0357  0.0595  0.0205
  615PNCE   C1B 5535   9.443  12.369   9.231 -0.3848  0.3995 -0.1247
  615PNCE   C2B 5536   9.500  12.210   8.817 -0.2680  0.1290  0.0251
  615PNCE   C3B 5537   9.746  11.851   8.687 -0.0698 -0.1051 -0.1135
  615PNCE   D4B 5538   9.779  11.746   8.184  0.2093 -0.1299  0.1291
  615PNCE   C5B 5539   9.967  12.138   7.955 -0.1795 -0.1591  0.1816
  615PNCE   C6B 5540  10.310  12.233   7.816  0.0427 -0.2145 -0.1143
  616CHOL   ROH 5541   7.874  10.765   9.237 -0.0202 -0.2841 -0.0957
  616CHOL    R1 5542   7.867  10.637   8.985 -0.2633 -0.1737 -0.1484
  616CHOL    R2 5543   7.683  10.701   8.789 -0.1146  0.2947 -0.1442
  616CHOL    R3 5544   7.906  10.735   8.637 -0.0178 -0.1074 -0.1045
  616CHOL    R4 5545   7.692  10.676   8.445 -0.1138  0.3524 -0.1491
  616CHOL    R5 5546   7.883  10.573   8.462 -0.3122 -0.0310 -0.1431
  616CHOL    C1 5547   7.907  10.693   8.101 -0.0225  0.0086 -0.1146
  616CHOL    C2 5548   7.891  10.900   7.831 -0.0142  0.1240 -0.2131
  617CHOL   ROH 5549  12.530   6.892   6.124 -0.0782 -0.0840 -0.1673
  617CHOL    R1 5550  12.580   6.856   6.400 -0.1072  0.1047 -0.1361
  617CHOL    R2 5551  12.439   6.992   6.596 -0.2320  0.1259 -0.2410
  617CHOL    R3 5552  12.392   6.741   6.689 -0.0883  0.1473 -0.1063
  617CHOL    R4 5553  12.417   6.906   6.930 -0.2393  0.3072 -0.1935
  617CHOL    R5 5554  12.527   6.723   6.886 -0.1120  0.3496 -0.0677
  617CHOL    C1 5555  12.359   6.620   7.212 -0.1089  0.4329 -0.0394
  617CHOL    C2 5556  12.229   6.519   7.613 -0.1349  0.1080  0.1289
  618CHOL   ROH 5557  12.671  11.697   6.671  0.2585 -0.0069  0.1787
  618CHOL    R1 5558  12.475  11.880   6.584  0.3129 -0.1263 -0.2134
  618CHOL    R2 5559  12.410  12.109   6.726 -0.2486 -0.2638 -0.2227
  618CHOL    R3 5560  12.464  12.232   6.490  0.2567 -0.0765 -0.0245
  618CHOL    R4 5561  12.286  12.417   6.631 -0.1480 -0.2456 -0.2986
  618CHOL    R5 5562  12.258  12.338   6.430  0.3463 -0.1164 -0.4304
  618CHOL    C1 5563  12.264  12.712   6.354  0.3850 -0.0591 -0.1567
  618CHOL    C2 5564  12.398  13.030   6.356 -0.0730  0.2084 -0.0031
  619CHOL   ROH 5565   9.600   9.583   7.887 -0.2758 -0.0167 -0.0464
  619CHOL    R1 5566   9.631   9.417   7.660 -0.2863  0.0241 -0.0780
  619CHOL    R2 5567   9.448   9.411   7.454 -0.1658  0.2565 -0.1960
  619CHOL    R3 5568   9.666   9.465   7.301 -0.0193  0.1055 -0.0441
  619CHOL    R4 5569   9.522   9.256   7.154 -0.0470  0.1793 -0.1273
  619CHOL    R5 5570   9.732   9.251   7.214 -0.0899  0.0537  0.0257
  619CHOL    C1 5571   9.770   9.216   6.836  0.1598 -0.0073  0.0553
  619CHOL    C2 5572   9.856   9.019   6.460 -0.0230  0.1942  0.3242
  620PNCE   AM1 5573   5.853  13.922   8.847 -0.1255 -0.0610  0.0195
  620PNCE   AM2 5574   5.711  14.206   8.804  0.0056 -0.0874  0.2889
  620PNCE   T1A 5575   5.520  13.672   8.627 -0.0548  0.1708 -0.1157
  620PNCE   C2A 5576   5.329  13.473   8.336  0.1368  0.2264  0.0710
  620PNCE   C3A 5577   4.915  13.419   8.174  0.0932  0.0573  0.1118
  620PNCE   C1B 5578   5.836  14.270   8.426  0.0595  0.1214 -0.1183
  620PNCE   C2B 5579   5.803  13.832   8.191 -0.3601 -0.1296 -0.0893
  620PNCE   C3B 5580   5.838  13.733   7.760 -0.2483  0.2246 -0.1199
  620PNCE   D4B 5581   6.026  13.285   7.579  0.0403  0.1993 -0.0835
  620PNCE   C5B 5582   6.423  13.165   7.712 -0.0403  0.1791 -0.3175
  620PNCE   C6B 5583   6.576  12.751   7.619 -0.1915  0.0850  0.3208
  621XCA    COO 5584   4.382  11.412   8.573 -0.2268 -0.1178  0.1028
  621XCA     C1 5585   4.518  11.420   8.154  0.1677  0.2598 -0.1950
  621XCA     C2 5586   4.779  11.490   7.949  0.1352  0.1295 -0.2221
  621XCA     C3 5587   5.172  11.524   7.711  0.0219 -0.1960 -0.0606
  621XCA     C4 5588   5.608  11.644   7.509  0.2008 -0.1490 -0.1787
  621XCA     C5 5589   5.947  11.965   7.428 -0.0359 -0.1575 -0.0100
  621XCA     C6 5590   6.183  12.288   7.090  0.0957  0.2298 -0.2316
  622PNCE   AM1 5591   0.713  12.963   8.417  0.2173  0.0731 -0.1198
  622PNCE   AM2 5592   0.680  12.631   8.406  0.2815 -0.1582 -0.1594
  622PNCE   T1A 5593   0.795  13.059   7.989  0.0239  0.1513  0.0434
  622PNCE   C2A 5594   0.961  13.032   7.582  0.0732  0.3162 -0.1173
  622PNCE   C3A 5595   0.969  13.303   7.252  0.0822  0.0015  0.1843
  622PNCE   C1B 5596   0.937  12.614   7.945  0.2547 -0.0628  0.0408
  622PNCE   C2B 5597   0.923  12.436   7.579  0.1753  0.1103  0.2892
  622PNCE   C3B 5598   1.085  12.103   7.303 -0.0346 -0.2675  0.3344
  622PNCE   D4B 5599   0.913  11.914   6.889  0.0034 -0.0819  0.0965
  622PNCE   C5B 5600   0.979  11.558   6.840 -0.2060 -0.0678  0.1947
  622PNCE   C6B 5601   0.911  11.124   6.660  0.1028 -0.2289 -0.3298
  623CHOL   ROH 5602   5.803   0.135   3.653  0.0372 -0.0175  0.1479
  623CHOL    R1 5603   5.897   0.346   3.816  0.3635 -0.0303 -0.0176
  623CHOL    R2 5604   5.786   0.405   4.062  0.2097  0.5540 -0.2153
  623CHOL    R3 5605   6.042   0.379   4.148  0.0621  0.0328  0.1125
  623CHOL    R4 5606   5.902   0.503   4.373  0.0707  0.6305 -0.1864
  623CHOL    R5 5607   6.083   0.576   4.277  0.3750  0.0959 -0.0678
  623CHOL    C1 5608   6.210   0.535   4.635 -0.1487  0.1858  0.1382
  623CHOL    C2 5609   6.258   0.777   4.947 -0.0376  0.0593 -0.0936
  624XCA    COO 5610   0.649   8.189   8.639  0.1383  0.0940  0.3599
  624XCA     C1 5611   0.385   8.531   8.478  0.1467 -0.2319 -0.0472
  624XCA     C2 5612   0.206   8.767   8.135 -0.2034  0.1874  0.0268
  624XCA     C3 5613  -0.205   8.645   7.894 -0.2147  0.2699  0.1419
  624XCA     C4 5614  -0.609   8.569   7.714 -0.0861 -0.1881 -0.3194
  624XCA     C5 5615  -0.694   8.403   7.347  0.0974 -0.3329  0.2159
  624XCA     C6 5616  -0.471   8.066   7.129 -0.0093 -0.0409 -0.1408
  625XCA    COO 5617   6.833   5.919   3.640 -0.2321 -0.2497  0.0946
  625XCA     C1 5618   7.274   5.882   3.759 -0.1246  0.1980  0.2221
  625XCA     C2 5619   7.463   5.417   3.792  0.0328 -0.0560 -0.1953
  625XCA     C3 5620   7.260   5.043   3.910  0.2034 -0.0116 -0.1263
  625XCA     C4 5621   6.883   5.091   4.219  0.1387  0.0780  0.2416
  625XCA     C5 5622   6.799   5.068   4.644  0.3468  0.2870 -0.0080
  625XCA     C6 5623   7.204   4.969   4.936  0.1163 -0.4031 -0.2335
  626CHOL   ROH 5624   3.556  10.100   8.523 -0.1442  0.1907  0.0159
  626CHOL    R1 5625   3.502  10.192   8.261 -0.2426  0.1474  0.0210
  626CHOL    R2 5626   3.341  10.410   8.209 -0.0003  0.3393  0.0664
  626CHOL    R3 5627   3.558  10.498   8.071  0.0037 -0.0026 -0.1566
  626CHOL    R4 5628   3.337  10.664   7.975  0.1662  0.4083  0.1360
  626CHOL    R5 5629   3.474  10.546   7.853 -0.1674  0.1939 -0.0528
  626CHOL    C1 5630   3.538  10.893   7.708  0.2668  0.1275 -0.0328
  626CHOL    C2 5631   3.686  11.183   7.436  0.0574  0.1788 -0.0595
  627CHOL   ROH 5632   4.200  11.871   5.142  0.0169 -0.1960  0.2448
  627CHOL    R1 5633   4.235  11.937   5.415  0.1779  0.0645  0.1646
  627CHOL    R2 5634   4.213  12.196   5.510 -0.1466  0.1058 -0.0116
  627CHOL    R3 5635   4.033  12.083   5.680  0.1934 -0.0640  0.2484
  627CHOL    R4 5636   4.138  12.316   5.825 -0.2292  0.3867 -0.1355
  627CHOL    R5 5637   4.132  12.110   5.897  0.2681  0.4601  0.1624
  627CHOL    C1 5638   3.925  12.281   6.168  0.0420  0.3909  0.0364
  627CHOL    C2 5639   3.913  12.444   6.479 -0.2043 -0.0031  0.0910
  628CHOL   ROH 5640  11.847   6.622   6.116 -0.2506  0.2142 -0.1525
  628CHOL    R1 5641  11.644   6.581   6.308 -0.2019  0.1163 -0.1201
  628CHOL    R2 5642  11.690   6.452   6.548 -0.1378  0.0016 -0.1883
  628CHOL    R3 5643  11.582   6.678   6.653 -0.1159 -0.0492 -0.0579
  628CHOL    R4 5644  11.563   6.479   6.868  0.0664 -0.1047 -0.0976
  628CHOL    R5 5645  11.400   6.599   6.788 -0.0101 -0.1187  0.0424
  628CHOL    C1 5646  11.388   6.707   7.154  0.2059 -0.2143  0.0776
  628CHOL    C2 5647  11.151   6.901   7.414  0.1618  0.3514  0.4190
  629XCA    COO 5648  13.169  13.812   8.533 -0.0837 -0.2106 -0.0207
  629XCA     C1 5649  13.438  13.634   8.242 -0.3474  0.3041  0.1231
  629XCA     C2 5650  13.608  13.518   7.839 -0.2039 -0.0349 -0.0036
  629XCA     C3 5651  13.862  13.528   7.467 -0.3613 -0.2888 -0.1916
  629XCA     C4 5652  14.101  13.438   7.066  0.1608 -0.0832  0.2139
  629XCA     C5 5653  14.437  13.371   7.007  0.1311  0.1230  0.2529
  629XCA     C6 5654  14.864  13.189   7.010  0.1081 -0.3186 -0.2701
  630PNCE   AM1 5655   0.355   6.842   8.766 -0.2100  0.2876  0.0095
  630PNCE   AM2 5656   0.538   6.607   8.728  0.1435  0.1731  0.0894
  630PNCE   T1A 5657   0.533   7.107   8.360 -0.1632  0.0318 -0.0307
  630PNCE   C2A 5658   0.872   7.312   8.096 -0.0253 -0.3517  0.1943
  630PNCE   C3A 5659   1.209   7.535   7.798  0.2413 -0.1588  0.0909
  630PNCE   C1B 5660   0.514   6.590   8.267  0.2840 -0.1290  0.2320
  630PNCE   C2B 5661   0.554   6.798   7.886  0.2806 -0.0061  0.0141
  630PNCE   C3B 5662   0.748   7.082   7.694  0.0536 -0.0004  0.1774
  630PNCE   D4B 5663   0.937   7.300   7.380 -0.2242 -0.5061 -0.0408
  630PNCE   C5B 5664   0.773   7.559   6.957 -0.0454  0.1463 -0.1096
  630PNCE   C6B 5665   0.675   7.667   6.455 -0.0202  0.1825 -0.0243
  631PNCE   AM1 5666   9.147   1.529   8.265  0.0635 -0.0178  0.1299
  631PNCE   AM2 5667   9.299   1.825   7.968  0.0441 -0.0052 -0.0362
  631PNCE   T1A 5668   9.253   1.285   7.905  0.2736  0.0739  0.3280
  631PNCE   C2A 5669   9.284   1.075   7.552  0.0764  0.0164 -0.3066
  631PNCE   C3A 5670   9.487   0.878   7.283 -0.2277  0.2607  0.2507
  631PNCE   C1B 5671   9.543   1.861   7.590 -0.5460  0.0301 -0.1087
  631PNCE   C2B 5672   9.896   1.844   7.327 -0.1573  0.2615 -0.1773
  631PNCE   C3B 5673  10.090   1.736   6.946 -0.0285 -0.1822 -0.0573
  631PNCE   D4B 5674  10.394   1.636   6.709 -0.0163 -0.1725  0.0940
  631PNCE   C5B 5675  10.784   1.826   6.592 -0.0578 -0.0742  0.1683
  631PNCE   C6B 5676  10.926   2.193   6.562 -0.2638  0.2230  0.0921
  632CHOL   ROH 5677   1.058  11.783   5.027 -0.3276 -0.2055 -0.1844
  632CHOL    R1 5678   0.857  11.838   5.218 -0.2103 -0.1744 -0.0688
  632CHOL    R2 5679   0.824  11.688   5.447 -0.0599 -0.1281 -0.0148
  632CHOL    R3 5680   0.845  11.929   5.571  0.0079 -0.1009 -0.0791
  632CHOL    R4 5681   0.804  11.737   5.789 -0.1008 -0.0238 -0.0321
  632CHOL    R5 5682   0.688  11.918   5.751 -0.0274  0.0086 -0.1029
  632CHOL    C1 5683   0.812  11.993   6.103 -0.0609  0.0625 -0.1025
  632CHOL    C2 5684   1.136  11.931   6.420  0.0103  0.1096 -0.1187
  633CHOL   ROH 5685   3.035  12.403   8.994 -0.3080 -0.2765 -0.1733
  633CHOL    R1 5686   3.174  12.475   8.759 -0.2415 -0.3292 -0.1503
  633CHOL    R2 5687   3.382  12.326   8.656 -0.1819 -0.3253 -0.0305
  633CHOL    R3 5688   3.231  12.329   8.430 -0.1045 -0.4251 -0.0851
  633CHOL    R4 5689   3.496  12.240   8.342  0.0550 -0.0427 -0.0263
  633CHOL    R5 5690   3.381  12.406   8.260 -0.1349 -0.1529  0.0038
  633CHOL    C1 5691   3.421  12.194   7.946  0.2656  0.0282 -0.0752
  633CHOL    C2 5692   3.301  12.073   7.593  0.1008  0.0212  0.1709
  634CHOL   ROH 5693  14.308   9.450   9.407 -0.3508  0.1734 -0.0528
  634CHOL    R1 5694  14.319   9.326   9.152 -0.1603  0.1724 -0.0452
  634CHOL    R2 5695  14.093   9.247   9.015 -0.0477 -0.0812 -0.0924
  634CHOL    R3 5696  14.199   9.400   8.817 -0.1681  0.0274 -0.0742
  634CHOL    R4 5697  13.990   9.241   8.685  0.1861 -0.3715 -0.1646
  634CHOL    R5 5698  14.199   9.257   8.625  0.2047 -0.0425 -0.0257
  634CHOL    C1 5699  14.030   9.382   8.307  0.2090 -0.4384 -0.1894
  634CHOL    C2 5700  14.176   9.611   8.112  0.0574 -0.2346 -0.0315
  635PNCE   AM1 5701  15.064  11.270   4.334 -0.4840 -0.0544 -0.1037
  635PNCE   AM2 5702  15.371  11.075   4.413  0.0976 -0.2680  0.0207
  635PNCE   T1A 5703  14.829  11.391   4.720  0.1261  0.2068 -0.0519
  635PNCE   C2A 5704  14.743  11.530   5.187  0.2253 -0.2536  0.0052
  635PNCE   C3A 5705  14.548  11.414   5.562 -0.1251  0.0240 -0.0236
  635PNCE   C1B 5706  15.499  11.375   4.705 -0.3626 -0.3875  0.3709
  635PNCE   C2B 5707  15.229  11.347   5.053 -0.2104  0.1933  0.0157
  635PNCE   C3B 5708  15.036  11.180   5.568  0.0101  0.2102 -0.1727
  635PNCE   D4B 5709  15.119  10.989   5.978 -0.0008 -0.1802 -0.4637
  635PNCE   C5B 5710  14.828  10.981   6.406 -0.1187 -0.1553  0.0676
  635PNCE   C6B 5711  14.389  11.065   6.575  0.1206 -0.2270  0.1819
  636XCA    COO 5712   4.577  12.037   4.667 -0.4436  0.1834  0.0445
  636XCA     C1 5713   4.674  11.824   5.065  0.0296 -0.0180 -0.0703
  636XCA     C2 5714   4.902  11.779   5.370 -0.2491  0.2223  0.1257
  636XCA     C3 5715   4.917  11.781   5.690  0.0873  0.1757  0.2199
  636XCA     C4 5716   4.958  11.667   6.134  0.0361  0.1087  0.0702
  636XCA     C5 5717   5.251  11.786   6.486  0.0609 -0.2832  0.0557
  636XCA     C6 5718   5.493  11.859   6.856  0.0075 -0.0581 -0.3172
  637PNCE   AM1 5719   2.425   4.729   4.549  0.2750 -0.2258 -0.2025
  637PNCE   AM2 5720   2.765   4.683   4.506 -0.1483 -0.3385  0.2630
  637PNCE   T1A 5721   2.323   4.553   4.971 -0.0505  0.0882 -0.0825
  637PNCE   C2A 5722   2.119   4.274   5.187 -0.0124  0.1851 -0.0105
  637PNCE   C3A 5723   1.826   3.991   5.320  0.0864  0.0463 -0.0147
  637PNCE   C1B 5724   3.001   4.613   4.842  0.2254  0.1503  0.0879
  637PNCE   C2B 5725   3.152   4.845   5.191 -0.2879  0.1246 -0.1472
  637PNCE   C3B 5726   3.516   4.956   5.465  0.0860 -0.2069  0.1133
  637PNCE   D4B 5727   3.766   5.189   5.552 -0.0315  0.0315 -0.0138
  637PNCE   C5B 5728   3.732   5.558   5.446 -0.2764 -0.3881  0.0292
  637PNCE   C6B 5729   4.027   5.849   5.245 -0.2542  0.1166  0.0552
  638CHOL   ROH 5730  12.934   5.347   5.885 -0.2305 -0.0080  0.0411
  638CHOL    R1 5731  13.083   5.425   6.113 -0.2753  0.0706  0.0447
  638CHOL    R2 5732  12.995   5.381   6.371 -0.2067 -0.0792  0.0475
  638CHOL    R3 5733  13.236   5.259   6.398 -0.0905  0.1338 -0.0173
  638CHOL    R4 5734  13.200   5.409   6.647 -0.1178  0.1547 -0.0403
  638CHOL    R5 5735  13.371   5.420   6.513 -0.1810  0.2718 -0.1064
  638CHOL    C1 5736  13.547   5.310   6.834  0.0431  0.4908 -0.1523
  638CHOL    C2 5737  13.514   5.154   7.249 -0.1193 -0.1957  0.0751
  639XCA    COO 5738   3.237   0.834   8.017 -0.0290 -0.0977  0.1463
  639XCA     C1 5739   2.904   0.651   7.879  0.1747 -0.1211  0.2973
  639XCA     C2 5740   2.757   0.508   7.397  0.2107  0.0973  0.0694
  639XCA     C3 5741   2.675   0.468   7.003 -0.4901 -0.0593 -0.0103
  639XCA     C4 5742   2.652   0.648   6.598  0.1391  0.0056  0.0784
  639XCA     C5 5743   2.884   0.718   6.116  0.0255  0.1849  0.2131
  639XCA     C6 5744   3.123   0.938   5.938  0.1649  0.1380  0.1572
  640XCA    COO 5745  13.822   5.973   5.952 -0.0049  0.1863  0.3302
  640XCA     C1 5746  13.881   5.820   6.376 -0.0260 -0.3268  0.2355
  640XCA     C2 5747  13.686   5.711   6.855  0.1802 -0.0320  0.0710
  640XCA     C3 5748  13.935   5.495   7.190  0.0358  0.1613  0.3454
  640XCA     C4 5749  14.388   5.537   7.168 -0.0215  0.1768  0.1481
  640XCA     C5 5750  14.792   5.453   6.996 -0.0360  0.2168  0.0434
  640XCA     C6 5751  15.174   5.730   7.088  0.0462 -0.1322  0.1658
  641XCA    COO 5752   6.758   3.005   7.644  0.1781 -0.0570  0.0775
  641XCA     C1 5753   6.760   2.848   7.122  0.1994 -0.3862  0.1103
  641XCA     C2 5754   6.598   2.910   6.760 -0.0203 -0.2060  0.2729
  641XCA     C3 5755   6.402   3.125   6.457  0.3613 -0.1662  0.0180
  641XCA     C4 5756   6.354   2.809   6.147 -0.1395  0.1422  0.0758
  641XCA     C5 5757   6.606   2.658   5.866 -0.1017 -0.0406  0.0127
  641XCA     C6 5758   6.707   2.335   5.553 -0.0937  0.3666 -0.1614
  642PNCE   AM1 5759  10.150  13.116   9.780 -0.2484 -0.2120 -0.0198
  642PNCE   AM2 5760  10.409  13.092   9.543  0.3225  0.1396 -0.0317
  642PNCE   T1A 5761  10.083  13.396   9.391 -0.0494 -0.0433 -0.1859
  642PNCE   C2A 5762  10.042  13.535   9.005 -0.1942 -0.1798 -0.0679
  642PNCE   C3A 5763  10.248  13.695   8.639 -0.1956  0.1607  0.2358
  642PNCE   C1B 5764  10.216  12.978   9.116 -0.1492 -0.1957 -0.4207
  642PNCE   C2B 5765  10.039  13.103   8.703  0.0268  0.2197  0.0272
  642PNCE   C3B 5766  10.089  13.269   8.280 -0.1043 -0.0183 -0.3855
  642PNCE   D4B 5767  10.039  13.087   7.884  0.0574  0.0820  0.0938
  642PNCE   C5B 5768   9.770  13.085   7.513 -0.1455  0.0844 -0.1439
  642PNCE   C6B 5769   9.649  13.192   7.132  0.2201 -0.1143 -0.2245
  643CHOL   ROH 5770  10.005  13.837   4.916 -0.1221  0.0502  0.1282
  643CHOL    R1 5771   9.947  14.034   5.111  0.0694  0.0668  0.1703
  643CHOL    R2 5772   9.763  13.994   5.312 -0.1266  0.2754  0.0349
  643CHOL    R3 5773   9.971  14.064   5.473 -0.1117 -0.1214  0.2006
  643CHOL    R4 5774   9.737  14.195   5.592  0.0514  0.4902 -0.0993
  643CHOL    R5 5775   9.924  14.291   5.534  0.3442  0.0328  0.0285
  643CHOL    C1 5776   9.917  14.378   5.906  0.1691  0.2428 -0.0219
  643CHOL    C2 5777   9.864  14.327   6.321  0.0086  0.0328  0.0898
  644PNCE   AM1 5778   4.509   2.250   3.449  0.1802 -0.1758 -0.2850
  644PNCE   AM2 5779   4.272   2.477   3.394  0.2310 -0.0605 -0.3464
  644PNCE   T1A 5780   4.803   2.243   3.891  0.1449 -0.0572 -0.2883
  644PNCE   C2A 5781   4.805   2.245   4.272 -0.1667  0.2155  0.0303
  644PNCE   C3A 5782   4.891   1.908   4.567  0.0792 -0.0626 -0.1240
  644PNCE   C1B 5783   4.415   2.545   3.908  0.0099 -0.0138  0.2677
  644PNCE   C2B 5784   4.348   2.808   4.238  0.3828  0.0994 -0.3844
  644PNCE   C3B 5785   4.507   2.664   4.606 -0.1646 -0.0984 -0.0679
  644PNCE   D4B 5786   4.456   2.822   5.078  0.2294 -0.0539 -0.1002
  644PNCE   C5B 5787   4.561   2.593   5.486 -0.2574 -0.2527  0.1446
  644PNCE   C6B 5788   4.704   2.281   5.653  0.0120 -0.0051 -0.3868
  645CHOL   ROH 5789  14.533   5.821   8.487  0.1618  0.0266  0.1761
  645CHOL    R1 5790  14.424   5.775   8.230  0.2298  0.1121  0.1302
  645CHOL    R2 5791  14.561   5.637   8.033  0.1489 -0.1231  0.2318
  645CHOL    R3 5792  14.335   5.484   8.029 -0.0585  0.1788  0.1575
  645CHOL    R4 5793  14.401   5.529   7.746  0.2128 -0.0684  0.1765
  645CHOL    R5 5794  14.210   5.570   7.844  0.1920  0.2473  0.0153
  645CHOL    C1 5795  14.096   5.324   7.575  0.0554  0.2469  0.0746
  645CHOL    C2 5796  13.961   4.913   7.540 -0.0696 -0.2374  0.4228
  646PNCE   AM1 5797   6.723  13.515   5.224  0.1682 -0.1304  0.0441
  646PNCE   AM2 5798   6.964  13.401   5.217  0.0433  0.2650 -0.1279
  646PNCE   T1A 5799   6.712  13.919   5.507  0.0265  0.0090 -0.1499
  646PNCE   C2A 5800   6.432  14.277   5.334 -0.0908  0.0779  0.0184
  646PNCE   C3A 5801   6.335  14.665   5.270 -0.2276 -0.0186  0.2148
  646PNCE   C1B 5802   7.227  13.226   5.566  0.0440  0.1624 -0.0122
  646PNCE   C2B 5803   7.183  13.277   6.062 -0.0081 -0.0206  0.1505
  646PNCE   C3B 5804   7.212  13.290   6.550 -0.1435 -0.2697 -0.1066
  646PNCE   D4B 5805   7.225  13.318   6.952  0.0865  0.2841 -0.0089
  646PNCE   C5B 5806   7.463  12.926   7.075 -0.2527 -0.0468  0.3537
  646PNCE   C6B 5807   7.612  12.712   7.441  0.0561 -0.1569  0.2622
  647XCA    COO 5808   4.517  11.702   8.945  0.0066 -0.0453  0.1614
  647XCA     C1 5809   4.524  11.989   8.670 -0.1445 -0.1979 -0.0797
  647XCA     C2 5810   4.343  11.896   8.257  0.2406 -0.0598 -0.1416
  647XCA     C3 5811   4.250  11.824   7.871 -0.1595  0.1650 -0.1691
  647XCA     C4 5812   4.184  11.771   7.467  0.2405 -0.0738  0.0227
  647XCA     C5 5813   3.947  11.503   7.118 -0.3627  0.0465 -0.1033
  647XCA     C6 5814   3.761  11.561   6.749  0.2304  0.0441 -0.1601
  648CHOL   ROH 5815   6.387  12.816   5.751  0.1028 -0.2896  0.3150
  648CHOL    R1 5816   6.277  13.040   5.886  0.0679 -0.1977  0.1346
  648CHOL    R2 5817   6.266  13.057   6.161  0.0025 -0.0079  0.1153
  648CHOL    R3 5818   6.395  13.292   6.119  0.0049 -0.0296 -0.0095
  648CHOL    R4 5819   6.290  13.312   6.393  0.3091 -0.0441  0.1276
  648CHOL    R5 5820   6.260  13.455   6.231  0.1521 -0.0164  0.1684
  648CHOL    C1 5821   6.426  13.682   6.489  0.4899 -0.0856  0.0176
  648CHOL    C2 5822   6.259  13.725   6.888  0.2933  0.1233 -0.0183
  649PNCE   AM1 5823  14.981  10.728   4.564 -0.2029 -0.0931 -0.1440
  649PNCE   AM2 5824  14.835  10.524   4.354 -0.3075  0.1881  0.4571
  649PNCE   T1A 5825  14.749  10.677   4.889  0.0489  0.1205 -0.1212
  649PNCE   C2A 5826  14.576  10.583   5.330  0.1029  0.1217  0.1015
  649PNCE   C3A 5827  14.256  10.343   5.483 -0.0097 -0.0249 -0.0541
  649PNCE   C1B 5828  14.928  10.207   4.780 -0.0577 -0.1495 -0.2725
  649PNCE   C2B 5829  14.909  10.149   5.188 -0.0794  0.1635  0.2220
  649PNCE   C3B 5830  15.040  10.125   5.610  0.0586  0.0121  0.0395
  649PNCE   D4B 5831  15.240   9.945   6.080 -0.3212  0.0965  0.2986
  649PNCE   C5B 5832  15.129  10.134   6.493 -0.3500 -0.0362  0.0065
  649PNCE   C6B 5833  14.846  10.161   6.735 -0.1682 -0.2523  0.1030
  650CHOL   ROH 5834  13.908   7.632   9.044  0.0587 -0.1561  0.1223
  650CHOL    R1 5835  13.776   7.706   8.804  0.1787 -0.0268  0.0955
  650CHOL    R2 5836  13.913   7.786   8.579  0.3113 -0.2693  0.0892
  650CHOL    R3 5837  13.769   7.588   8.460  0.0416 -0.0981  0.1211
  650CHOL    R4 5838  13.918   7.714   8.241  0.0637 -0.2049  0.0690
  650CHOL    R5 5839  13.703   7.682   8.249  0.0288  0.0175  0.1733
  650CHOL    C1 5840  13.787   7.486   7.932 -0.3336 -0.0067  0.0871
  650CHOL    C2 5841  13.985   7.336   7.539  0.4002  0.1139 -0.0293
  651PNCE   AM1 5842  11.502  11.293   5.862 -0.2198  0.0377  0.0247
  651PNCE   AM2 5843  11.622  10.950   5.777 -0.1763  0.0002 -0.2372
  651PNCE   T1A 5844  11.230  11.401   6.319 -0.0333  0.0446  0.2167
  651PNCE   C2A 5845  11.109  11.431   6.740 -0.0044  0.0663  0.1340
  651PNCE   C3A 5846  11.284  11.513   7.091  0.1708  0.1026  0.3173
  651PNCE   C1B 5847  11.737  10.981   6.234 -0.0601  0.2062  0.1093
  651PNCE   C2B 5848  11.717  11.293   6.604 -0.1227  0.3968  0.2478
  651PNCE   C3B 5849  11.784  11.407   7.075  0.0355  0.0849 -0.0022
  651PNCE   D4B 5850  11.546  11.500   7.505  0.1116 -0.1516 -0.2383
  651PNCE   C5B 5851  11.771  11.423   7.913 -0.1836  0.0924 -0.3163
  651PNCE   C6B 5852  11.850  11.107   8.296  0.1272 -0.2566  0.0813
  652PNCE   AM1 5853  12.353   3.259   4.568 -0.0615  0.3481  0.0466
  652PNCE   AM2 5854  12.086   3.081   4.448 -0.1695 -0.0800 -0.1177
  652PNCE   T1A 5855  12.193   3.237   4.963 -0.2216 -0.2818 -0.0985
  652PNCE   C2A 5856  11.878   3.374   5.287  0.2477  0.0649  0.0229
  652PNCE   C3A 5857  12.021   3.333   5.602 -0.2574  0.0059  0.1522
  652PNCE   C1B 5858  12.168   2.718   4.724 -0.0705 -0.0737  0.0700
  652PNCE   C2B 5859  12.286   2.719   5.210  0.1295  0.2217 -0.1962
  652PNCE   C3B 5860  12.183   2.851   5.654 -0.2311 -0.0824  0.0638
  652PNCE   D4B 5861  12.057   2.687   6.135  0.2588 -0.1434 -0.1394
  652PNCE   C5B 5862  11.897   2.849   6.518  0.0607 -0.0891 -0.0854
  652PNCE   C6B 5863  12.095   2.956   6.859 -0.2535  0.2127 -0.0261
  653PNCE   AM1 5864   5.105   5.815   3.728  0.3494 -0.1877  0.0087
  653PNCE   AM2 5865   5.187   5.498   3.846  0.1515  0.1274  0.1084
  653PNCE   T1A 5866   5.157   5.902   4.131 -0.2193  0.0923  0.3407
  653PNCE   C2A 5867   5.138   6.007   4.654  0.0591 -0.0874 -0.3228
  653PNCE   C3A 5868   5.059   6.147   5.045  0.0151 -0.0287  0.0545
  653PNCE   C1B 5869   5.343   5.045   4.025 -0.1251 -0.4318 -0.1981
  653PNCE   C2B 5870   5.437   4.900   4.419 -0.1841  0.1085 -0.3243
  653PNCE   C3B 5871   5.553   4.916   4.878  0.1876  0.2700 -0.1059
  653PNCE   D4B 5872   5.721   5.047   5.219 -0.5857  0.2050  0.3644
  653PNCE   C5B 5873   5.878   5.254   5.632  0.1162 -0.3125 -0.5863
  653PNCE   C6B 5874   5.751   5.669   5.841  0.0959  0.0985 -0.0940
  654PNCE   AM1 5875  11.252  15.105   4.701 -0.0624  0.0445 -0.2519
  654PNCE   AM2 5876  11.064  15.330   4.933  0.0873  0.0021 -0.1739
  654PNCE   T1A 5877  11.532  14.884   5.074 -0.3323 -0.1381  0.0140
  654PNCE   C2A 5878  11.838  14.884   5.495  0.0831 -0.1537  0.1563
  654PNCE   C3A 5879  11.852  14.949   5.932 -0.3290  0.0880 -0.0393
  654PNCE   C1B 5880  11.010  15.422   5.405 -0.1141 -0.1038  0.3024
  654PNCE   C2B 5881  11.064  15.345   5.891 -0.2087  0.0029 -0.0162
  654PNCE   C3B 5882  10.785  15.330   6.180 -0.1140  0.1587  0.0291
  654PNCE   D4B 5883  10.583  15.535   6.515 -0.3817  0.0772 -0.0386
  654PNCE   C5B 5884  10.775  15.692   6.879 -0.1029 -0.0282 -0.0638
  654PNCE   C6B 5885  11.138  15.647   7.071 -0.2200  0.1273  0.0623
  655CHOL   ROH 5886   0.838   2.952   7.875  0.0325  0.0210  0.1942
  655CHOL    R1 5887   0.730   2.954   7.613 -0.0074  0.1031  0.2109
  655CHOL    R2 5888   0.772   3.163   7.437  0.0478  0.1143  0.2354
  655CHOL    R3 5889   0.861   2.965   7.273 -0.0550  0.1032  0.1928
  655CHOL    R4 5890   0.875   3.209   7.110  0.1426  0.1420  0.2689
  655CHOL    R5 5891   0.773   3.023   7.058  0.0264  0.2271  0.1931
  655CHOL    C1 5892   1.018   3.049   6.766  0.1012  0.1477  0.2485
  655CHOL    C2 5893   1.199   3.408   6.591  0.0576 -0.1951 -0.2627
  656PNCE   AM1 5894   1.999   1.276   5.144  0.0003  0.0992  0.0869
  656PNCE   AM2 5895   2.163   1.065   5.030  0.0289  0.0091  0.2302
  656PNCE   T1A 5896   2.034   1.607   5.413  0.0151 -0.1806  0.2008
  656PNCE   C2A 5897   2.058   1.956   5.411 -0.1499  0.4119 -0.2092
  656PNCE   C3A 5898   2.286   2.488   5.400  0.0112  0.2258  0.3793
  656PNCE   C1B 5899   2.300   1.208   5.516 -0.5323  0.2061 -0.2794
  656PNCE   C2B 5900   2.534   0.917   5.802  0.5175 -0.0591  0.3326
  656PNCE   C3B 5901   2.388   0.732   6.183 -0.2205  0.0586 -0.1107
  656PNCE   D4B 5902   2.110   0.597   6.497  0.0920 -0.1983  0.2930
  656PNCE   C5B 5903   1.546   0.537   6.462 -0.0522  0.1712 -0.0711
  656PNCE   C6B 5904   1.213   0.338   6.408 -0.0206 -0.2225 -0.2404
  657CHOL   ROH 5905   3.445   7.583   6.588 -0.0198  0.0654 -0.1432
  657CHOL    R1 5906   3.216   7.613   6.751  0.0745  0.0419 -0.0030
  657CHOL    R2 5907   3.188   7.819   6.931  0.0353  0.2144 -0.1958
  657CHOL    R3 5908   2.955   7.862   6.798 -0.0996 -0.1260 -0.0771
  657CHOL    R4 5909   2.909   7.972   7.068  0.1297  0.4525 -0.2666
  657CHOL    R5 5910   2.785   7.824   6.964  0.0613  0.1952  0.1661
  657CHOL    C1 5911   2.528   8.101   7.022  0.0580  0.2714 -0.1963
  657CHOL    C2 5912   2.175   8.145   7.224  0.2084 -0.1571 -0.1142
  658CHOL   ROH 5913   0.533  12.193   5.134  0.0122 -0.0229 -0.0069
  658CHOL    R1 5914   0.427  12.292   5.377  0.1152  0.0313  0.0177
  658CHOL    R2 5915   0.382  12.131   5.598  0.0558  0.0454  0.0219
  658CHOL    R3 5916   0.536  12.316   5.723  0.1946 -0.0529 -0.0027
  658CHOL    R4 5917   0.416  12.163   5.940  0.1893 -0.0075  0.0138
  658CHOL    R5 5918   0.410  12.378   5.916  0.2967 -0.0070  0.0444
  658CHOL    C1 5919   0.580  12.356   6.257  0.3973 -0.1305 -0.0139
  658CHOL    C2 5920   0.673  12.234   6.628  0.0274 -0.2432  0.1439
  659PNCE   AM1 5921  10.392  10.638   6.019 -0.1575  0.1797 -0.0559
  659PNCE   AM2 5922  10.414  10.935   6.177 -0.2385 -0.1282  0.0152
  659PNCE   T1A 5923  10.711  10.262   6.047  0.3802 -0.1073  0.1704
  659PNCE   C2A 5924  10.789  10.043   6.328 -0.0532 -0.1585 -0.1594
  659PNCE   C3A 5925  10.531   9.627   6.396 -0.1261  0.0579  0.3602
  659PNCE   C1B 5926  10.096  11.382   6.294  0.1008 -0.3183  0.1393
  659PNCE   C2B 5927  10.156  11.592   6.678 -0.1913  0.1043 -0.3284
  659PNCE   C3B 5928  10.419  11.749   6.970  0.2450  0.0735 -0.2681
  659PNCE   D4B 5929  10.869  11.737   7.099  0.0304 -0.1085  0.0449
  659PNCE   C5B 5930  11.163  11.837   7.448 -0.0948  0.1872 -0.2803
  659PNCE   C6B 5931  11.419  12.151   7.559 -0.0167  0.1025 -0.3928
  660CHOL   ROH 5932   5.877  12.489   5.510 -0.0342  0.0010 -0.0589
  660CHOL    R1 5933   5.958  12.485   5.782  0.1153  0.1311 -0.0988
  660CHOL    R2 5934   6.020  12.714   5.923 -0.1509  0.2350 -0.1414
  660CHOL    R3 5935   5.834  12.619   6.097  0.0756 -0.0368 -0.0421
  660CHOL    R4 5936   5.979  12.824   6.248 -0.2812  0.3415 -0.1934
  660CHOL    R5 5937   5.946  12.617   6.308  0.1393  0.3023 -0.0675
  660CHOL    C1 5938   5.780  12.797   6.601 -0.1445  0.1484 -0.1304
  660CHOL    C2 5939   5.865  12.606   6.834 -0.1098 -0.0589  0.0265
  661PNCE   AM1 5940   3.441  12.042   4.799  0.0852 -0.0187 -0.1514
  661PNCE   AM2 5941   3.731  11.912   4.950 -0.1681 -0.0364 -0.1905
  661PNCE   T1A 5942   3.268  11.856   5.183  0.1790  0.0004  0.1139
  661PNCE   C2A 5943   3.364  11.707   5.545 -0.0629 -0.0118  0.0462
  661PNCE   C3A 5944   3.322  11.606   5.940  0.2201  0.2147 -0.0286
  661PNCE   C1B 5945   3.707  12.113   5.350 -0.0768 -0.2185 -0.1177
  661PNCE   C2B 5946   3.590  12.114   5.784  0.1526  0.0493 -0.0968
  661PNCE   C3B 5947   3.458  12.132   6.281  0.0358  0.1979 -0.0793
  661PNCE   D4B 5948   3.531  12.070   6.758 -0.0138  0.0113  0.0897
  661PNCE   C5B 5949   3.233  12.183   7.071 -0.2067 -0.3121  0.1027
  661PNCE   C6B 5950   2.860  12.120   6.921 -0.2264 -0.0111 -0.3566
  662PNCE   AM1 5951   3.338  15.731   4.559  0.2780  0.0297  0.0576
  662PNCE   AM2 5952   2.996  15.578   4.501  0.0778 -0.1334 -0.1647
  662PNCE   T1A 5953   3.335  15.637   4.968 -0.0076  0.1900  0.1781
  662PNCE   C2A 5954   3.118  15.541   5.322  0.0145  0.3178 -0.1174
  662PNCE   C3A 5955   3.252  15.415   5.783  0.1873 -0.0709  0.3134
  662PNCE   C1B 5956   2.853  15.533   4.867  0.1482  0.0612 -0.1724
  662PNCE   C2B 5957   2.470  15.585   5.196 -0.1877  0.0357 -0.1935
  662PNCE   C3B 5958   2.145  15.858   5.343 -0.1678 -0.0476  0.0478
  662PNCE   D4B 5959   1.797  16.046   5.261 -0.1651  0.0657  0.2142
  662PNCE   C5B 5960   1.527  16.109   5.630 -0.1302 -0.2342  0.2429
  662PNCE   C6B 5961   1.420  16.213   6.007 -0.0792  0.0964  0.0543
  663CHOL   ROH 5962   5.824   1.998   7.429  0.0225 -0.3107 -0.1399
  663CHOL    R1 5963   5.634   1.952   7.225  0.0187 -0.1569 -0.1755
  663CHOL    R2 5964   5.705   1.889   6.966  0.0158 -0.2133 -0.1741
  663CHOL    R3 5965   5.541   1.676   7.006 -0.1560 -0.0840 -0.1909
  663CHOL    R4 5966   5.632   1.648   6.729  0.1790 -0.3931 -0.0417
  663CHOL    R5 5967   5.426   1.649   6.798  0.0957 -0.2127 -0.3101
  663CHOL    C1 5968   5.436   1.307   6.629  0.1128 -0.3763  0.0196
  663CHOL    C2 5969   5.066   1.335   6.484 -0.1566  0.1647  0.1006
  664XCA    COO 5970  10.200   9.937   6.058 -0.2436  0.1541  0.1392
  664XCA     C1 5971  10.261  10.087   6.457 -0.0826  0.0229 -0.4832
  664XCA     C2 5972  10.577  10.161   6.786  0.0496 -0.1257 -0.0822
  664XCA     C3 5973  10.653  10.265   7.272 -0.0759 -0.0695 -0.2450
  664XCA     C4 5974  10.863  10.157   7.736  0.2828  0.0953  0.1493
  664XCA     C5 5975  10.836   9.685   7.887 -0.3350  0.2559  0.0836
  664XCA     C6 5976  11.104   9.271   8.162  0.0060 -0.1171  0.1832
  665XCA    COO 5977  14.083   0.532   5.207 -0.1314 -0.1640  0.1377
  665XCA     C1 5978  14.452   0.666   5.328  0.0373  0.0455 -0.0391
  665XCA     C2 5979  14.772   1.018   5.511  0.2252  0.2831 -0.0196
  665XCA     C3 5980  15.081   1.245   5.729  0.0007  0.3102  0.1306
  665XCA     C4 5981  15.380   1.248   6.019 -0.2592 -0.1867  0.1329
  665XCA     C5 5982  15.769   1.117   6.112  0.2920 -0.3000  0.0787
  665XCA     C6 5983  16.249   1.230   5.983  0.0871 -0.0995 -0.0763
  666XCA    COO 5984   0.623   9.686   4.471  0.3573  0.5222  0.0209
  666XCA     C1 5985   0.596   9.907   4.853  0.1064  0.1617  0.1022
  666XCA     C2 5986   0.795  10.054   5.168  0.0661 -0.2213  0.1486
  666XCA     C3 5987   0.913   9.981   5.594 -0.0447 -0.1848  0.2214
  666XCA     C4 5988   1.054  10.025   5.936 -0.1077  0.0719 -0.0020
  666XCA     C5 5989   1.024  10.156   6.312  0.2963 -0.1515  0.3578
  666XCA     C6 5990   0.936  10.418   6.718  0.0552 -0.1508  0.2055
  667CHOL   ROH 5991  12.031   8.301   8.523 -0.0938 -0.3645  0.1221
  667CHOL    R1 5992  11.783   8.300   8.387 -0.0615 -0.1239  0.0585
  667CHOL    R2 5993  11.705   8.506   8.220  0.1937 -0.0594  0.0142
  667CHOL    R3 5994  11.673   8.306   8.040  0.0325 -0.0487  0.0292
  667CHOL    R4 5995  11.566   8.544   7.906  0.1632  0.0147  0.0363
  667CHOL    R5 5996  11.463   8.354   7.934  0.0443  0.0820  0.0632
  667CHOL    C1 5997  11.456   8.378   7.553 -0.0061  0.0680  0.0632
  667CHOL    C2 5998  11.334   8.216   7.291 -0.2028 -0.0075 -0.2590
  668PNCE   AM1 5999   7.506   3.804   7.174  0.0674  0.2793  0.0284
  668PNCE   AM2 6000   7.344   3.441   7.124 -0.1144 -0.1798 -0.3705
  668PNCE   T1A 6001   7.425   4.066   6.788  0.1430 -0.0929 -0.0912
  668PNCE   C2A 6002   7.471   4.286   6.417  0.2414  0.0121  0.2150
  668PNCE   C3A 6003   7.272   4.509   6.080  0.1712  0.0960  0.0958
  668PNCE   C1B 6004   7.665   3.610   6.728 -0.1498 -0.1328 -0.0324
  668PNCE   C2B 6005   8.025   3.915   6.753  0.2528 -0.0499  0.2015
  668PNCE   C3B 6006   8.344   4.056   6.604 -0.1933  0.1076 -0.3989
  668PNCE   D4B 6007   8.485   4.317   6.215 -0.1865 -0.0685 -0.1551
  668PNCE   C5B 6008   8.338   4.750   6.233 -0.0861  0.1537  0.2546
  668PNCE   C6B 6009   8.022   5.118   5.973  0.2004  0.1411 -0.1148
  669CHOL   ROH 6010   9.502  11.562   6.033 -0.1969  0.2630  0.1276
  669CHOL    R1 6011   9.643  11.440   6.246 -0.0011  0.2560 -0.0035
  669CHOL    R2 6012   9.693  11.569   6.485  0.0227  0.1729  0.0347
  669CHOL    R3 6013   9.573  11.351   6.592  0.2357  0.0291 -0.0106
  669CHOL    R4 6014   9.667  11.506   6.823 -0.3126  0.3121  0.0391
  669CHOL    R5 6015   9.709  11.295   6.782  0.0869  0.3510  0.1992
  669CHOL    C1 6016   9.538  11.263   7.121 -0.3079  0.2583 -0.0009
  669CHOL    C2 6017   9.672  10.973   7.321 -0.2820  0.0472  0.0702
  670XCA    COO 6018   2.329   4.315   4.355 -0.0296 -0.3685  0.0556
  670XCA     C1 6019   2.676   4.221   4.694  0.0471 -0.2913 -0.1784
  670XCA     C2 6020   2.719   4.223   5.157  0.0328  0.0652 -0.0097
  670XCA     C3 6021   2.500   4.318   5.538  0.3055 -0.0002 -0.0901
  670XCA     C4 6022   2.037   4.324   5.696 -0.1032  0.2486  0.1210
  670XCA     C5 6023   1.749   4.560   5.430 -0.0645 -0.1443 -0.0880
  670XCA     C6 6024   1.814   4.739   5.066  0.0452 -0.1320  0.0658
  671PNCE   AM1 6025   2.696   9.040   4.949 -0.2011 -0.0170  0.0476
  671PNCE   AM2 6026   2.791   9.241   5.157  0.0081  0.0386  0.2559
  671PNCE   T1A 6027   2.331   9.142   5.249  0.2386 -0.0412 -0.0374
  671PNCE   C2A 6028   2.086   9.197   5.629 -0.1440 -0.0071  0.0343
  671PNCE   C3A 6029   1.847   9.011   5.961 -0.1890  0.0439  0.0223
  671PNCE   C1B 6030   2.578   9.542   5.439  0.0893  0.1177 -0.1147
  671PNCE   C2B 6031   2.309   9.594   5.831  0.0615  0.1534  0.2513
  671PNCE   C3B 6032   2.071   9.577   6.122  0.0095  0.2432  0.0409
  671PNCE   D4B 6033   1.839   9.358   6.409  0.0361 -0.0366 -0.1227
  671PNCE   C5B 6034   1.414   9.371   6.231 -0.2954  0.0680 -0.0690
  671PNCE   C6B 6035   1.078   9.620   6.387 -0.0032  0.2346  0.3796
  672PNCE   AM1 6036   9.492   0.492   4.829  0.2087  0.0179  0.0634
  672PNCE   AM2 6037   9.357   0.323   4.979 -0.0761 -0.0922 -0.0130
  672PNCE   T1A 6038   9.537   0.912   5.006 -0.3606  0.2664  0.0555
  672PNCE   C2A 6039   9.618   1.106   5.288 -0.1930 -0.0694  0.1644
  672PNCE   C3A 6040   9.755   1.133   5.697  0.1088 -0.2175  0.1431
  672PNCE   C1B 6041   9.026   0.253   5.324  0.1317  0.0037 -0.0976
  672PNCE   C2B 6042   9.082   0.269   5.776 -0.1868  0.1417  0.1351
  672PNCE   C3B 6043   9.244   0.129   6.133 -0.0613 -0.0260  0.1611
  672PNCE   D4B 6044   9.099   0.212   6.499  0.0255 -0.1327 -0.0496
  672PNCE   C5B 6045   8.891   0.682   6.328 -0.1160 -0.0475  0.2127
  672PNCE   C6B 6046   8.873   0.811   5.880  0.0431 -0.1404 -0.1195
  673CHOL   ROH 6047   0.623   5.932   4.518 -0.1152 -0.1953 -0.1497
  673CHOL    R1 6048   0.711   5.704   4.660 -0.0975 -0.1282 -0.0523
  673CHOL    R2 6049   0.868   5.723   4.887  0.0055 -0.0225 -0.1297
  673CHOL    R3 6050   0.671   5.570   4.996  0.0219  0.0798  0.0472
  673CHOL    R4 6051   0.879   5.580   5.202  0.0951  0.1929 -0.0334
  673CHOL    R5 6052   0.787   5.401   5.119  0.0398  0.1478  0.1235
  673CHOL    C1 6053   0.701   5.354   5.487  0.1627  0.4143  0.1886
  673CHOL    C2 6054   0.576   5.091   5.780 -0.0734  0.0571  0.0658
  674CHOL   ROH 6055  11.603   7.059   6.234  0.0137 -0.1052  0.0245
  674CHOL    R1 6056  11.603   7.174   6.493  0.2000 -0.1158  0.0307
  674CHOL    R2 6057  11.397   7.133   6.674  0.1656  0.1467  0.0563
  674CHOL    R3 6058  11.600   7.052   6.836  0.0837 -0.1321  0.0242
  674CHOL    R4 6059  11.379   7.107   7.018  0.1680  0.1076  0.0535
  674CHOL    R5 6060  11.580   7.189   7.031  0.2706 -0.1410  0.0504
  674CHOL    C1 6061  11.559   7.017   7.370  0.0925 -0.1769  0.0217
  674CHOL    C2 6062  11.765   6.919   7.693 -0.0487  0.1296 -0.0641
  675CHOL   ROH 6063  15.456   2.612   4.918  0.0080  0.2135 -0.0164
  675CHOL    R1 6064  15.503   2.574   5.195  0.1096  0.2416 -0.0299
  675CHOL    R2 6065  15.758   2.561   5.302  0.1456  0.3428 -0.1112
  675CHOL    R3 6066  15.664   2.759   5.463  0.1235  0.3117 -0.0847
  675CHOL    R4 6067  15.902   2.659   5.601 -0.0030  0.1405  0.0303
  675CHOL    R5 6068  15.703   2.680   5.685 -0.0564  0.1884 -0.0918
  675CHOL    C1 6069  15.898   2.902   5.925 -0.1103 -0.0065  0.1376
  675CHOL    C2 6070  15.914   3.237   6.153  0.2172 -0.1801  0.1549
  676PNCE   AM1 6071   4.829   2.690   3.395 -0.1180  0.1650 -0.2428
  676PNCE   AM2 6072   4.882   2.954   3.640  0.1062 -0.0259  0.0816
  676PNCE   T1A 6073   5.227   2.474   3.773  0.0763 -0.0233 -0.1294
  676PNCE   C2A 6074   5.480   2.710   4.063 -0.2651 -0.2931  0.0634
  676PNCE   C3A 6075   5.737   2.998   4.194  0.0112  0.0435 -0.3147
  676PNCE   C1B 6076   4.865   2.689   4.057  0.0852  0.1092 -0.1232
  676PNCE   C2B 6077   5.073   2.645   4.364 -0.2154  0.0915 -0.1520
  676PNCE   C3B 6078   4.954   2.416   4.753  0.2631 -0.1685 -0.1251
  676PNCE   D4B 6079   4.811   2.385   5.154 -0.0842 -0.3147 -0.2441
  676PNCE   C5B 6080   5.069   2.602   5.482 -0.0505  0.2021  0.3315
  676PNCE   C6B 6081   5.257   2.795   5.831  0.0108 -0.3984 -0.0676
  677PNCE   AM1 6082  10.044   9.422   6.212 -0.0050  0.1080 -0.3090
  677PNCE   AM2 6083  10.081   9.132   5.966 -0.1758  0.0502 -0.0301
  677PNCE   T1A 6084   9.835   9.594   6.560  0.3085  0.0935  0.1125
  677PNCE   C2A 6085   9.611   9.614   6.886  0.0272 -0.2465  0.2934
  677PNCE   C3A 6086   9.700   9.919   7.330  0.4004 -0.3289 -0.4185
  677PNCE   C1B 6087  10.191   8.689   6.131 -0.1885  0.1749 -0.0897
  677PNCE   C2B 6088  10.005   8.520   6.546  0.1923  0.0167  0.1999
  677PNCE   C3B 6089   9.680   8.615   6.823 -0.0800  0.4660 -0.0331
  677PNCE   D4B 6090   9.441   8.890   6.928  0.0161  0.2359 -0.1805
  677PNCE   C5B 6091   9.200   8.724   7.188 -0.0817  0.2303 -0.0485
  677PNCE   C6B 6092   9.051   8.509   7.523  0.0080  0.1214 -0.0686
  678XCA    COO 6093   6.035   1.543   3.471 -0.1820  0.0785  0.1567
  678XCA     C1 6094   5.899   1.483   3.899 -0.1072 -0.0085 -0.0806
  678XCA     C2 6095   5.805   1.152   4.234 -0.1795  0.1213  0.0073
  678XCA     C3 6096   6.075   1.026   4.532 -0.0024 -0.0428 -0.0347
  678XCA     C4 6097   6.476   0.958   4.520  0.0609  0.0085  0.1364
  678XCA     C5 6098   6.584   0.639   4.355  0.0538  0.1252  0.0649
  678XCA     C6 6099   6.561   0.347   4.108  0.1991  0.0643 -0.1215
  679CHOL   ROH 6100   4.223   2.072   3.821 -0.2564  0.4092  0.0552
  679CHOL    R1 6101   4.205   2.145   4.094 -0.2777  0.1533  0.1244
  679CHOL    R2 6102   4.209   1.958   4.299  0.0077 -0.0198 -0.0369
  679CHOL    R3 6103   4.414   2.112   4.391 -0.1589  0.1585  0.0441
  679CHOL    R4 6104   4.319   1.966   4.626  0.0468 -0.1550 -0.0462
  679CHOL    R5 6105   4.343   2.182   4.608 -0.2162 -0.1004  0.1176
  679CHOL    C1 6106   4.575   2.115   4.903 -0.0867 -0.0665  0.0243
  679CHOL    C2 6107   4.917   1.843   5.078  0.1536  0.0340  0.1173
  680XCA    COO 6108  12.051   0.209   5.000 -0.1040 -0.0084 -0.1654
  680XCA     C1 6109  12.242   0.542   5.276  0.2849  0.2646 -0.1541
  680XCA     C2 6110  12.340   0.783   5.657  0.0568  0.3025  0.1622
  680XCA     C3 6111  12.267   1.071   6.089  0.4302  0.0816 -0.2389
  680XCA     C4 6112  12.141   1.292   6.436  0.2386  0.1035  0.0548
  680XCA     C5 6113  12.058   1.401   6.777  0.1156 -0.0169 -0.0547
  680XCA     C6 6114  12.036   1.663   7.111  0.5366 -0.2337  0.2089
  681CHOL   ROH 6115   0.119   2.490   7.878  0.1338 -0.3317 -0.0517
  681CHOL    R1 6116   0.125   2.698   7.686  0.1498 -0.1652  0.1240
  681CHOL    R2 6117   0.361   2.801   7.585  0.1595 -0.1887  0.1129
  681CHOL    R3 6118   0.248   2.739   7.346  0.0262  0.0683  0.1069
  681CHOL    R4 6119   0.440   2.952   7.284  0.1286 -0.0053  0.1958
  681CHOL    R5 6120   0.228   2.949   7.233  0.1094  0.1662  0.2768
  681CHOL    C1 6121   0.380   2.981   6.884 -0.0145  0.3427  0.2385
  681CHOL    C2 6122   0.121   3.214   6.650  0.0744 -0.2233 -0.4073
  682PNCE   AM1 6123   8.157   6.752   4.197  0.1620  0.0231 -0.2687
  682PNCE   AM2 6124   8.393   7.042   4.331 -0.1667 -0.0215 -0.1227
  682PNCE   T1A 6125   7.821   6.751   4.535  0.1522  0.1090 -0.2818
  682PNCE   C2A 6126   7.714   6.647   4.929 -0.0274  0.1542 -0.1335
  682PNCE   C3A 6127   7.541   6.416   5.285 -0.3606  0.2319 -0.2565
  682PNCE   C1B 6128   8.310   7.083   4.755 -0.0860  0.0837 -0.0930
  682PNCE   C2B 6129   8.263   6.967   5.122  0.0281  0.2035 -0.1799
  682PNCE   C3B 6130   8.302   6.934   5.545  0.2328 -0.2744  0.0496
  682PNCE   D4B 6131   8.081   6.700   5.804  0.2669  0.0357  0.0169
  682PNCE   C5B 6132   8.155   6.577   6.280 -0.3870 -0.1059  0.0159
  682PNCE   C6B 6133   8.110   6.653   6.780  0.1531  0.2831 -0.1843
  683CHOL   ROH 6134   9.689   5.018   6.401  0.0439 -0.2277 -0.0725
  683CHOL    R1 6135   9.742   5.141   6.152 -0.0533 -0.2492 -0.1034
  683CHOL    R2 6136   9.960   5.306   6.111 -0.1910 -0.0810 -0.1412
  683CHOL    R3 6137  10.010   5.134   5.906 -0.0424 -0.0906 -0.0992
  683CHOL    R4 6138  10.140   5.384   5.826 -0.3983  0.0693 -0.2336
  683CHOL    R5 6139   9.995   5.270   5.709 -0.2992 -0.1671 -0.1425
  683CHOL    C1 6140  10.291   5.269   5.468 -0.3794  0.1478 -0.2480
  683CHOL    C2 6141  10.171   5.281   5.137  0.1509  0.0998  0.3380
  684PNCE   AM1 6142  11.160   5.681   5.316 -0.2006 -0.2285  0.3238
  684PNCE   AM2 6143  10.808   5.835   5.390  0.2092  0.2085  0.1161
  684PNCE   T1A 6144  11.133   5.692   5.769  0.0810 -0.3264  0.5227
  684PNCE   C2A 6145  10.861   5.527   6.121 -0.2703  0.0656  0.0780
  684PNCE   C3A 6146  10.436   5.579   6.365  0.1048 -0.2740  0.3658
  684PNCE   C1B 6147  10.270   5.787   5.346  0.1289 -0.0340 -0.2993
  684PNCE   C2B 6148   9.849   5.668   5.316 -0.2339  0.1840 -0.1400
  684PNCE   C3B 6149   9.399   5.484   5.351  0.0688 -0.1481  0.0644
  684PNCE   D4B 6150   8.982   5.657   5.631 -0.3296  0.1854 -0.1166
  684PNCE   C5B 6151   8.617   5.314   5.614 -0.0318  0.2701 -0.1881
  684PNCE   C6B 6152   8.324   5.130   5.547  0.1392  0.0583  0.0884
  685CHOL   ROH 6153   8.603  13.703   7.433  0.1392 -0.0006  0.0768
  685CHOL    R1 6154   8.866  13.750   7.340  0.1571 -0.0090  0.1208
  685CHOL    R2 6155   8.919  13.902   7.116  0.1846 -0.2175 -0.0203
  685CHOL    R3 6156   9.080  14.039   7.287  0.0769  0.0110 -0.0992
  685CHOL    R4 6157   9.251  13.979   7.055  0.1854 -0.1822  0.0324
  685CHOL    R5 6158   9.294  13.933   7.264  0.1174  0.0511  0.0982
  685CHOL    C1 6159   9.595  14.153   7.180  0.0849  0.0530 -0.0109
  685CHOL    C2 6160   9.796  13.994   7.495  0.0170  0.2118 -0.1579
  686XCA    COO 6161   0.888   0.779   8.102 -0.1302  0.1660 -0.1553
  686XCA     C1 6162   1.102   0.705   7.651 -0.1180 -0.0337  0.0822
  686XCA     C2 6163   1.304   0.659   7.230  0.4192  0.0303 -0.1258
  686XCA     C3 6164   1.283   0.487   6.975  0.2347  0.1161  0.1616
  686XCA     C4 6165   0.969   0.156   6.855 -0.2538 -0.0367 -0.2516
  686XCA     C5 6166   0.654  -0.120   7.090  0.0739  0.3899  0.1384
  686XCA     C6 6167   0.431  -0.148   7.556  0.0126 -0.0623  0.0836
  687PNCE   AM1 6168   0.173   3.457   4.914  0.2668 -0.0169  0.0793
  687PNCE   AM2 6169  -0.134   3.566   4.827 -0.0956 -0.2265 -0.1570
  687PNCE   T1A 6170   0.669   3.577   4.905  0.0703  0.1678 -0.0767
  687PNCE   C2A 6171   0.941   3.940   5.110 -0.0832 -0.1092  0.4589
  687PNCE   C3A 6172   1.310   4.195   5.138 -0.0166  0.1359  0.0020
  687PNCE   C1B 6173  -0.281   3.420   5.174  0.3664 -0.1877  0.2074
  687PNCE   C2B 6174  -0.421   3.046   5.318  0.0376 -0.2617 -0.0894
  687PNCE   C3B 6175  -0.530   2.702   5.560 -0.3668 -0.0368 -0.3978
  687PNCE   D4B 6176  -0.774   2.671   6.004  0.0677 -0.0300 -0.1193
  687PNCE   C5B 6177  -0.677   2.229   6.028  0.1865  0.2135 -0.0207
  687PNCE   C6B 6178  -0.339   2.011   6.281  0.2911  0.0031 -0.0342
  688CHOL   ROH 6179   8.540  14.235   6.172  0.0185 -0.1137  0.0421
  688CHOL    R1 6180   8.496  14.512   6.128 -0.1246 -0.1298  0.0834
  688CHOL    R2 6181   8.485  14.696   6.333  0.0852 -0.1300  0.0875
  688CHOL    R3 6182   8.678  14.821   6.189 -0.1395 -0.0659 -0.1687
  688CHOL    R4 6183   8.541  15.037   6.334  0.2025 -0.1463  0.3335
  688CHOL    R5 6184   8.576  15.026   6.118 -0.2172  0.0518  0.2352
  688CHOL    C1 6185   8.754  15.353   6.198  0.0598 -0.0956  0.2362
  688CHOL    C2 6186   8.643  15.691   6.440 -0.2171  0.3671 -0.1156
  689CHOL   ROH 6187   8.297  14.513   8.904 -0.0979 -0.0139 -0.0226
  689CHOL    R1 6188   8.439  14.520   8.659 -0.0011 -0.1298  0.0278
  689CHOL    R2 6189   8.448  14.305   8.485 -0.1258 -0.1367  0.0212
  689CHOL    R3 6190   8.358  14.489   8.306  0.0950 -0.0483 -0.0003
  689CHOL    R4 6191   8.437  14.259   8.143  0.0018 -0.0752  0.0089
  689CHOL    R5 6192   8.504  14.465   8.118  0.1629 -0.1254  0.0670
  689CHOL    C1 6193   8.347  14.405   7.775  0.2835  0.0436 -0.0181
  689CHOL    C2 6194   8.445  14.185   7.495 -0.4697  0.0951 -0.1410
  690PNCE   AM1 6195   6.578  14.685   3.741 -0.1969 -0.1892 -0.3530
  690PNCE   AM2 6196   6.459  14.972   3.681 -0.1621  0.3198  0.0211
  690PNCE   T1A 6197   6.987  15.079   4.019  0.2237 -0.0426  0.0954
  690PNCE   C2A 6198   7.291  15.400   3.809  0.0635  0.0555  0.3916
  690PNCE   C3A 6199   7.488  15.707   3.957 -0.1992 -0.0036 -0.2404
  690PNCE   C1B 6200   6.517  15.276   3.906 -0.0627 -0.1068  0.2336
  690PNCE   C2B 6201   6.843  15.614   3.866  0.1733  0.1145 -0.1525
  690PNCE   C3B 6202   7.015  15.816   4.132 -0.1698  0.1150  0.3637
  690PNCE   D4B 6203   6.962  16.159   4.504 -0.2408 -0.1887 -0.3452
  690PNCE   C5B 6204   6.775  16.355   4.786 -0.0793  0.1323 -0.1169
  690PNCE   C6B 6205   6.729  16.559   5.182  0.0952  0.1428  0.0472
  691PNCE   AM1 6206   1.116  14.919   4.671 -0.0688  0.1531  0.1109
  691PNCE   AM2 6207   1.424  14.899   4.814  0.0940  0.1271  0.1418
  691PNCE   T1A 6208   1.119  14.800   5.149 -0.1401 -0.0307  0.0552
  691PNCE   C2A 6209   1.031  14.832   5.482  0.1964 -0.1583  0.1966
  691PNCE   C3A 6210   1.008  14.624   5.880 -0.2907 -0.2524  0.0574
  691PNCE   C1B 6211   1.441  15.147   5.250  0.1248 -0.0173  0.1805
  691PNCE   C2B 6212   1.587  15.158   5.620  0.2723 -0.0411 -0.0270
  691PNCE   C3B 6213   1.527  15.242   6.060  0.0589  0.0868  0.1547
  691PNCE   D4B 6214   1.689  15.396   6.516  0.2024 -0.1088 -0.0639
  691PNCE   C5B 6215   1.742  15.228   6.982 -0.1014  0.4006 -0.1812
  691PNCE   C6B 6216   1.610  15.403   7.348 -0.1819 -0.2254  0.0814
  692PNCE   AM1 6217   5.414  15.540   8.650  0.2855  0.0911  0.0940
  692PNCE   AM2 6218   5.396  15.867   8.334 -0.0026 -0.1129 -0.3089
  692PNCE   T1A 6219   4.984  15.519   8.478 -0.0663  0.1478 -0.2081
  692PNCE   C2A 6220   4.757  15.359   8.101 -0.3127 -0.1330 -0.2272
  692PNCE   C3A 6221   4.558  15.181   7.789  0.1196 -0.1670  0.0485
  692PNCE   C1B 6222   5.164  15.652   8.037  0.0252  0.0773 -0.1588
  692PNCE   C2B 6223   5.133  15.434   7.779  0.2602  0.2964  0.1005
  692PNCE   C3B 6224   5.047  15.523   7.352 -0.0644 -0.3064 -0.2814
  692PNCE   D4B 6225   5.353  15.709   7.083 -0.0330 -0.2151  0.1028
  692PNCE   C5B 6226   5.775  15.487   7.017  0.1222 -0.2703  0.2178
  692PNCE   C6B 6227   5.738  14.942   6.934 -0.1958 -0.3328 -0.0794
  693CHOL   ROH 6228   0.977   7.648   4.915  0.1691  0.0200  0.0741
  693CHOL    R1 6229   0.844   7.526   5.132 -0.0294  0.0614 -0.0217
  693CHOL    R2 6230   0.962   7.496   5.381 -0.1116 -0.2316 -0.0149
  693CHOL    R3 6231   0.738   7.624   5.466  0.0323  0.0063  0.0147
  693CHOL    R4 6232   0.902   7.593   5.707  0.0093 -0.2210  0.0046
  693CHOL    R5 6233   0.694   7.531   5.682 -0.0647  0.0149 -0.0001
  693CHOL    C1 6234   0.657   7.770   5.977  0.2148  0.0086  0.0436
  693CHOL    C2 6235   0.376   8.052   6.207  0.1376 -0.0016  0.1382
  694PNCE   AM1 6236  12.963   3.676   4.831 -0.1895 -0.1043  0.1884
  694PNCE   AM2 6237  12.747   3.622   4.623  0.2076 -0.2563 -0.2378
  694PNCE   T1A 6238  12.618   3.457   5.108 -0.0510  0.2231  0.0390
  694PNCE   C2A 6239  12.445   3.240   5.410 -0.0736  0.0543  0.1808
  694PNCE   C3A 6240  12.691   2.892   5.648  0.2001 -0.2443 -0.2182
  694PNCE   C1B 6241  12.599   3.950   4.898  0.0922 -0.1233 -0.0019
  694PNCE   C2B 6242  12.707   3.990   5.319  0.1258 -0.2042  0.1541
  694PNCE   C3B 6243  12.678   4.033   5.759 -0.2641 -0.0071 -0.1650
  694PNCE   D4B 6244  12.594   4.003   6.180 -0.2330  0.0922  0.1216
  694PNCE   C5B 6245  12.747   3.951   6.568  0.1845  0.0842  0.0062
  694PNCE   C6B 6246  12.767   4.141   6.966 -0.0119  0.0882 -0.0170
  695PNCE   AM1 6247   8.580   0.896   4.657 -0.0217 -0.1303  0.0337
  695PNCE   AM2 6248   8.269   0.758   4.761  0.1741 -0.1075  0.0145
  695PNCE   T1A 6249   8.684   0.924   5.050  0.1535 -0.2399 -0.0275
  695PNCE   C2A 6250   8.692   0.934   5.407  0.1438  0.1939  0.1679
  695PNCE   C3A 6251   8.355   0.854   5.690 -0.1450 -0.1052 -0.0700
  695PNCE   C1B 6252   8.147   1.194   4.690  0.0219  0.2323 -0.0595
  695PNCE   C2B 6253   7.932   1.499   4.866 -0.0607 -0.0187 -0.0196
  695PNCE   C3B 6254   7.691   1.777   5.105 -0.2037 -0.2791  0.2856
  695PNCE   D4B 6255   7.358   1.910   5.260  0.2151  0.0222  0.4041
  695PNCE   C5B 6256   7.362   2.328   5.470 -0.0360  0.0976 -0.2139
  695PNCE   C6B 6257   7.109   2.480   5.839 -0.0940 -0.0092  0.0153
  696PNCE   AM1 6258  13.286  14.918   5.151 -0.1604  0.1149 -0.0480
  696PNCE   AM2 6259  12.968  14.816   5.317  0.2073  0.2891 -0.0446
  696PNCE   T1A 6260  13.376  14.960   5.573 -0.2482  0.3769  0.0460
  696PNCE   C2A 6261  13.617  14.904   5.877  0.0775  0.0280 -0.3041
  696PNCE   C3A 6262  13.807  14.641   6.092 -0.3284  0.0064  0.2431
  696PNCE   C1B 6263  12.531  14.749   5.510 -0.3266 -0.1213  0.2224
  696PNCE   C2B 6264  12.293  14.733   5.785 -0.0226 -0.2243 -0.1653
  696PNCE   C3B 6265  12.337  14.961   6.211  0.2747  0.2254  0.0324
  696PNCE   D4B 6266  12.471  14.912   6.685  0.0879  0.1646  0.1752
  696PNCE   C5B 6267  12.265  14.991   7.092 -0.1642  0.1899  0.0909
  696PNCE   C6B 6268  12.104  14.834   7.430 -0.0076  0.0610 -0.0546
  697PNCE   AM1 6269   2.747   2.583   3.909 -0.1131  0.0986 -0.4510
  697PNCE   AM2 6270   2.649   2.794   4.146 -0.0303 -0.3362 -0.2895
  697PNCE   T1A 6271   3.214   2.624   4.024  0.3303  0.0886  0.0924
  697PNCE   C2A 6272   3.553   2.768   4.236 -0.0379 -0.0521  0.0101
  697PNCE   C3A 6273   3.908   2.976   4.155 -0.1095  0.1277  0.1882
  697PNCE   C1B 6274   2.690   2.529   4.475 -0.1801  0.1326 -0.2322
  697PNCE   C2B 6275   2.481   2.282   4.885  0.0195  0.2093  0.3502
  697PNCE   C3B 6276   2.616   2.161   5.244  0.0904 -0.2328 -0.1678
  697PNCE   D4B 6277   2.901   2.053   5.552  0.0294 -0.1014  0.2861
  697PNCE   C5B 6278   3.261   2.369   5.744 -0.1987  0.0016 -0.0278
  697PNCE   C6B 6279   3.536   2.668   5.652  0.1160 -0.2842 -0.2239
  698PNCE   AM1 6280  12.224  11.399   5.616  0.0830 -0.4832  0.1773
  698PNCE   AM2 6281  11.897  11.423   5.645 -0.2424 -0.2249 -0.0055
  698PNCE   T1A 6282  12.444  11.385   6.043 -0.0240  0.3688 -0.0577
  698PNCE   C2A 6283  12.698  11.167   6.377  0.0371 -0.2347  0.1954
  698PNCE   C3A 6284  12.927  11.247   6.673  0.0096  0.0590 -0.1599
  698PNCE   C1B 6285  11.960  11.374   6.056  0.2458  0.3633  0.2581
  698PNCE   C2B 6286  12.098  11.540   6.401 -0.0691  0.1966 -0.2881
  698PNCE   C3B 6287  12.099  11.648   6.772 -0.1177  0.0122  0.0455
  698PNCE   D4B 6288  12.411  11.809   7.080  0.1248 -0.3395  0.1344
  698PNCE   C5B 6289  12.839  11.621   7.122  0.2248  0.0182 -0.2148
  698PNCE   C6B 6290  13.206  11.351   7.239 -0.3824 -0.2648  0.0295
  699XCA    COO 6291   7.073  10.266   9.362  0.0414  0.0561 -0.1794
  699XCA     C1 6292   7.297  10.245   8.989  0.0252  0.4468 -0.0285
  699XCA     C2 6293   7.259  10.481   8.591  0.0685  0.3108  0.0835
  699XCA     C3 6294   7.070  10.715   8.208  0.1974  0.0508  0.1554
  699XCA     C4 6295   7.267  10.840   7.989 -0.2830  0.1056  0.5500
  699XCA     C5 6296   7.489  10.844   7.609  0.0371  0.2023  0.0848
  699XCA     C6 6297   7.653  11.234   7.397 -0.0790 -0.0285  0.0554
  700XCA    COO 6298   7.768   7.514   3.790 -0.4276 -0.1349  0.0867
  700XCA     C1 6299   7.482   7.419   4.103  0.2327 -0.3274  0.1005
  700XCA     C2 6300   7.444   7.119   4.402  0.0370  0.1368 -0.0255
  700XCA     C3 6301   7.360   6.985   4.802  0.0088 -0.2370  0.2374
  700XCA     C4 6302   7.300   6.874   5.177 -0.1277  0.1386 -0.1885
  700XCA     C5 6303   7.335   6.736   5.653  0.0184  0.0891  0.0312
  700XCA     C6 6304   7.313   6.801   6.077 -0.0891 -0.2308 -0.0286
  701PNCE   AM1 6305   9.802   6.547   5.188  0.1814 -0.2787  0.3788
  701PNCE   AM2 6306   9.996   6.900   5.242 -0.2373  0.1201  0.1906
  701PNCE   T1A 6307   9.538   6.495   5.620  0.1973  0.0564 -0.2862
  701PNCE   C2A 6308   9.573   6.408   6.051  0.1498 -0.0305 -0.1594
  701PNCE   C3A 6309   9.802   6.301   6.320 -0.2083  0.3385 -0.0677
  701PNCE   C1B 6310   9.985   6.686   5.660 -0.0472  0.0668  0.0822
  701PNCE   C2B 6311  10.057   6.624   6.009  0.2583 -0.2005  0.0273
  701PNCE   C3B 6312  10.190   6.622   6.465  0.0347  0.1367 -0.1244
  701PNCE   D4B 6313  10.079   6.396   6.793 -0.1319  0.0738 -0.0389
  701PNCE   C5B 6314   9.859   5.963   6.740 -0.0358 -0.2817  0.0713
  701PNCE   C6B 6315   9.538   5.709   6.745 -0.0074  0.0153  0.0172
  702PNCE   AM1 6316  10.153  12.601   5.330 -0.1806 -0.1181 -0.2081
  702PNCE   AM2 6317   9.872  12.617   5.476  0.1641  0.1475  0.3581
  702PNCE   T1A 6318  10.155  13.018   5.432 -0.4170  0.0508 -0.0581
  702PNCE   C2A 6319  10.289  13.249   5.849  0.0525  0.0200  0.1771
  702PNCE   C3A 6320  10.015  13.415   6.143 -0.1574  0.1664  0.2715
  702PNCE   C1B 6321  10.081  12.642   5.896 -0.2285 -0.1831 -0.0451
  702PNCE   C2B 6322  10.125  12.917   6.247 -0.1845 -0.2156 -0.1718
  702PNCE   C3B 6323  10.396  13.180   6.482 -0.2936 -0.0312  0.3919
  702PNCE   D4B 6324  10.851  13.109   6.666 -0.0514  0.0410  0.0003
  702PNCE   C5B 6325  11.036  13.305   6.962  0.0245  0.1866  0.2076
  702PNCE   C6B 6326  11.184  13.796   6.910 -0.1532 -0.2419 -0.0931
  703CHOL   ROH 6327  15.366   2.893   6.289 -0.0929  0.0674 -0.1398
  703CHOL    R1 6328  15.449   2.956   6.025 -0.0105  0.0894 -0.1091
  703CHOL    R2 6329  15.316   3.140   5.868  0.0283  0.0901 -0.1417
  703CHOL    R3 6330  15.563   3.253   5.848  0.0273  0.1083 -0.0534
  703CHOL    R4 6331  15.398   3.401   5.656  0.0914  0.0777 -0.1325
  703CHOL    R5 6332  15.587   3.301   5.615  0.1162  0.0894 -0.0482
  703CHOL    C1 6333  15.677   3.658   5.514  0.1272  0.0876 -0.0442
  703CHOL    C2 6334  15.610   3.878   5.257  0.0146  0.0676  0.0742
  704PNCE   AM1 6335  12.840   7.992   5.930  0.0996  0.2912  0.0548
  704PNCE   AM2 6336  13.116   7.902   5.819  0.1887  0.3768  0.0287
  704PNCE   T1A 6337  12.697   7.772   6.301  0.2858  0.1324  0.1815
  704PNCE   C2A 6338  12.688   7.667   6.735  0.0469  0.1119 -0.2255
  704PNCE   C3A 6339  12.412   7.429   7.111  0.3386 -0.0151 -0.2496
  704PNCE   C1B 6340  13.205   7.831   6.307 -0.1641  0.1330  0.0594
  704PNCE   C2B 6341  13.315   7.606   6.710 -0.0609 -0.0309  0.1124
  704PNCE   C3B 6342  13.079   7.485   7.005  0.1931 -0.3234  0.2795
  704PNCE   D4B 6343  12.973   7.367   7.465  0.0958  0.0761 -0.0946
  704PNCE   C5B 6344  12.570   7.356   7.596  0.2633 -0.1693 -0.0787
  704PNCE   C6B 6345  12.243   7.201   7.831 -0.1146  0.1932 -0.0188
  705PNCE   AM1 6346   8.807  11.468   5.548  0.0227  0.2699 -0.1653
  705PNCE   AM2 6347   8.424  11.726   5.625  0.1624  0.1334  0.2504
  705PNCE   T1A 6348   8.970  11.537   5.940 -0.0161  0.1211 -0.0961
  705PNCE   C2A 6349   8.832  11.712   6.266 -0.0025  0.3947  0.2245
  705PNCE   C3A 6350   8.774  11.746   6.613 -0.3135 -0.1389  0.1264
  705PNCE   C1B 6351   8.384  11.778   6.070 -0.1744  0.0223  0.0394
  705PNCE   C2B 6352   8.427  12.036   6.415 -0.2696 -0.1510  0.3119
  705PNCE   C3B 6353   8.560  12.187   6.798 -0.0159  0.0458  0.0206
  705PNCE   D4B 6354   8.621  12.392   7.173  0.1581 -0.0648 -0.1731
  705PNCE   C5B 6355   8.575  12.774   7.387  0.3272  0.2736  0.3134
  705PNCE   C6B 6356   8.505  13.219   7.469  0.0506 -0.0687  0.1330
  706CHOL   ROH 6357   4.462   9.204   5.346 -0.0389  0.0537 -0.0766
  706CHOL    R1 6358   4.555   9.141   5.605 -0.1260  0.0407 -0.0479
  706CHOL    R2 6359   4.764   9.277   5.725 -0.0226 -0.1067 -0.0576
  706CHOL    R3 6360   4.584   9.313   5.925 -0.0192  0.1022 -0.0900
  706CHOL    R4 6361   4.814   9.184   6.055 -0.2186 -0.2375 -0.0633
  706CHOL    R5 6362   4.606   9.117   6.062 -0.3152  0.0428 -0.1206
  706CHOL    C1 6363   4.673   9.164   6.434 -0.3295 -0.1175 -0.0971
  706CHOL    C2 6364   4.640   8.920   6.816 -0.0803 -0.0894  0.1005
  707XCA    COO 6365   8.163  11.322   5.757  0.1916 -0.1325 -0.0354
  707XCA     C1 6366   8.076  11.273   6.185 -0.1770 -0.1081 -0.2512
  707XCA     C2 6367   7.840  11.159   6.556 -0.0296  0.0154  0.1510
  707XCA     C3 6368   7.791  11.416   6.975  0.0962  0.1906  0.2092
  707XCA     C4 6369   7.484  11.664   7.074  0.1098 -0.3240  0.2099
  707XCA     C5 6370   7.471  11.947   7.397 -0.3348  0.0349 -0.1565
  707XCA     C6 6371   7.180  11.827   7.702  0.4210 -0.1356 -0.0322
  708XCA    COO 6372   4.465  12.814   4.795 -0.4076  0.1135  0.2334
  708XCA     C1 6373   4.777  12.586   5.155  0.2203  0.4262  0.2594
  708XCA     C2 6374   4.677  12.209   5.429  0.0481 -0.2171  0.2400
  708XCA     C3 6375   4.757  12.196   5.846 -0.0423 -0.1723 -0.0604
  708XCA     C4 6376   4.713  12.137   6.333  0.1493  0.0314  0.1048
  708XCA     C5 6377   4.690  11.866   6.626  0.0325  0.1886 -0.0408
  708XCA     C6 6378   4.954  11.441   6.786  0.1678 -0.0474  0.1220
  709CHOL   ROH 6379  11.928   9.429   6.105 -0.0343  0.1482  0.1146
  709CHOL    R1 6380  11.873   9.514   6.369  0.0864 -0.0059  0.1906
  709CHOL    R2 6381  11.632   9.464   6.494  0.0302  0.1846  0.1580
  709CHOL    R3 6382  11.792   9.356   6.686 -0.0908 -0.1758  0.0631
  709CHOL    R4 6383  11.528   9.381   6.813 -0.0133  0.2504  0.1615
  709CHOL    R5 6384  11.717   9.458   6.890  0.1596 -0.1137  0.1282
  709CHOL    C1 6385  11.617   9.230   7.179 -0.1522 -0.0499  0.0745
  709CHOL    C2 6386  11.723   8.992   7.409 -0.3092 -0.2243  0.0843
  710CHOL   ROH 6387   6.536   7.183   4.581  0.0716  0.1579  0.0297
  710CHOL    R1 6388   6.645   6.941   4.679  0.1295  0.1658 -0.0193
  710CHOL    R2 6389   6.917   6.889   4.676  0.1567  0.3262  0.1722
  710CHOL    R3 6390   6.877   6.843   4.941 -0.0287  0.1451  0.1175
  710CHOL    R4 6391   7.050   6.624   4.853  0.3573  0.4091  0.1498
  710CHOL    R5 6392   6.861   6.605   4.958  0.2721  0.1027 -0.0274
  710CHOL    C1 6393   7.091   6.425   5.204  0.3001  0.2873  0.0854
  710CHOL    C2 6394   7.271   6.012   5.172  0.0756  0.1569  0.0684
  711CHOL   ROH 6395  15.294  10.644   8.853 -0.0562 -0.2394 -0.0688
  711CHOL    R1 6396  15.168  10.600   8.603 -0.1265 -0.3036 -0.0226
  711CHOL    R2 6397  15.295  10.644   8.362 -0.2731 -0.1260 -0.0725
  711CHOL    R3 6398  15.222  10.387   8.314 -0.0490 -0.1881 -0.0932
  711CHOL    R4 6399  15.247  10.508   8.048 -0.2072 -0.1329 -0.0795
  711CHOL    R5 6400  15.074  10.402   8.126 -0.0961 -0.3003 -0.0633
  711CHOL    C1 6401  15.150  10.187   7.820  0.0416 -0.1952 -0.1031
  711CHOL    C2 6402  14.881  10.130   7.537  0.2034  0.0197  0.0413
  712CHOL   ROH 6403  11.435   8.039   9.730  0.1834 -0.1449 -0.0997
  712CHOL    R1 6404  11.409   8.082   9.452  0.0276 -0.0752 -0.0750
  712CHOL    R2 6405  11.299   7.894   9.282  0.0431 -0.0802 -0.0759
  712CHOL    R3 6406  11.137   8.100   9.211 -0.0977 -0.1425  0.0596
  712CHOL    R4 6407  11.227   7.986   8.957  0.0405  0.1244 -0.0192
  712CHOL    R5 6408  11.241   8.194   9.018 -0.1265  0.0910  0.1527
  712CHOL    C1 6409  11.031   8.233   8.701 -0.0932  0.1851  0.1409
  712CHOL    C2 6410  11.262   8.245   8.402 -0.0131 -0.2687  0.0760
  713XCA    COO 6411   6.974  15.713   7.871  0.0606 -0.1686 -0.0054
  713XCA     C1 6412   6.908  15.253   7.998 -0.0353  0.1937  0.0651
  713XCA     C2 6413   6.876  14.985   7.729 -0.0986  0.0781  0.0020
  713XCA     C3 6414   7.087  14.783   7.512  0.3770 -0.3177  0.0837
  713XCA     C4 6415   7.136  14.488   7.229  0.1678 -0.0379  0.1944
  713XCA     C5 6416   6.948  14.262   6.840  0.0283  0.1145  0.1518
  713XCA     C6 6417   6.782  14.541   6.535  0.2345  0.0935  0.1829
  714CHOL   ROH 6418   5.160   4.469   5.455 -0.2202  0.3360 -0.0107
  714CHOL    R1 6419   5.192   4.550   5.186 -0.0016  0.1967 -0.0285
  714CHOL    R2 6420   5.423   4.501   5.042 -0.0144 -0.1885  0.0743
  714CHOL    R3 6421   5.251   4.386   4.866 -0.1159 -0.0033  0.0501
  714CHOL    R4 6422   5.461   4.504   4.699 -0.0041 -0.1540  0.0756
  714CHOL    R5 6423   5.246   4.538   4.680  0.0216  0.0403  0.0788
  714CHOL    C1 6424   5.321   4.399   4.333 -0.0935  0.0399  0.0536
  714CHOL    C2 6425   5.355   4.013   4.139  0.2249  0.1935  0.0455
  715CHOL   ROH 6426   3.455  12.599   4.839 -0.0909  0.0366  0.0347
  715CHOL    R1 6427   3.269  12.581   5.051 -0.0684  0.0483  0.0559
  715CHOL    R2 6428   3.207  12.342   5.176  0.0330  0.0713  0.1561
  715CHOL    R3 6429   3.275  12.478   5.401 -0.0011  0.1881  0.0961
  715CHOL    R4 6430   3.142  12.236   5.498 -0.0444  0.2567  0.2025
  715CHOL    R5 6431   3.091  12.441   5.550 -0.0345  0.2895  0.0788
  715CHOL    C1 6432   3.167  12.302   5.897 -0.1214  0.4742  0.1731
  715CHOL    C2 6433   2.949  12.042   6.086 -0.0175  0.0897  0.4016
  716PNCE   AM1 6434   4.113  11.452   5.313  0.1453 -0.2075 -0.0256
  716PNCE   AM2 6435   3.768  11.535   5.349  0.1623  0.2271  0.1930
  716PNCE   T1A 6436   4.312  11.600   5.743  0.0960 -0.1129  0.1392
  716PNCE   C2A 6437   4.415  11.785   6.075 -0.0313 -0.0980  0.1188
  716PNCE   C3A 6438   4.231  11.982   6.417  0.2557  0.0779 -0.0219
  716PNCE   C1B 6439   3.811  11.650   5.770 -0.2054 -0.1529  0.0424
  716PNCE   C2B 6440   3.775  11.769   6.210  0.1012 -0.0493 -0.2371
  716PNCE   C3B 6441   4.065  11.452   6.345 -0.1115  0.1471 -0.0265
  716PNCE   D4B 6442   3.927  11.105   6.615  0.0403 -0.0226  0.1832
  716PNCE   C5B 6443   4.188  11.075   7.037  0.1654 -0.3625  0.0466
  716PNCE   C6B 6444   4.417  10.841   7.292  0.1289  0.0718 -0.0981
  717CHOL   ROH 6445   5.442  12.492   5.579 -0.4642  0.0241 -0.0490
  717CHOL    R1 6446   5.524  12.567   5.840 -0.2581 -0.1081 -0.0755
  717CHOL    R2 6447   5.348  12.665   6.029 -0.0932 -0.1419  0.0860
  717CHOL    R3 6448   5.449  12.463   6.181 -0.0388 -0.2286 -0.0602
  717CHOL    R4 6449   5.316  12.641   6.372 -0.0031 -0.3344  0.0835
  717CHOL    R5 6450   5.523  12.571   6.381  0.0115 -0.3318 -0.0148
  717CHOL    C1 6451   5.394  12.438   6.715  0.1005 -0.5278 -0.0551
  717CHOL    C2 6452   5.296  12.639   7.077  0.0038 -0.1049 -0.1599
  718PNCE   AM1 6453   0.145   1.092   5.131 -0.1334  0.3393  0.1057
  718PNCE   AM2 6454   0.225   0.889   5.257  0.0813  0.0513 -0.0543
  718PNCE   T1A 6455  -0.152   1.472   5.125 -0.3416 -0.0001  0.1829
  718PNCE   C2A 6456  -0.330   1.745   5.407 -0.2657 -0.1278  0.2100
  718PNCE   C3A 6457  -0.458   1.750   5.847 -0.0104  0.1691  0.0820
  718PNCE   C1B 6458   0.049   0.843   5.689  0.2299  0.1174  0.1995
  718PNCE   C2B 6459  -0.104   0.519   5.826  0.1244  0.2457 -0.0530
  718PNCE   C3B 6460   0.065   0.247   6.126  0.3534 -0.1430 -0.2254
  718PNCE   D4B 6461   0.179  -0.031   6.394  0.1049 -0.0072  0.0150
  718PNCE   C5B 6462  -0.189  -0.067   6.535  0.0147 -0.1072 -0.2494
  718PNCE   C6B 6463  -0.637  -0.213   6.431  0.1566 -0.2949 -0.0221
  719PNCE   AM1 6464   1.489   4.832   4.628 -0.0832 -0.3696  0.0871
  719PNCE   AM2 6465   1.278   5.018   4.608  0.2325  0.1716  0.0619
  719PNCE   T1A 6466   1.290   4.736   5.017  0.3230 -0.0470  0.1102
  719PNCE   C2A 6467   1.254   4.635   5.374  0.2076 -0.1378 -0.0321
  719PNCE   C3A 6468   1.172   4.703   5.737 -0.4489 -0.0261  0.3954
  719PNCE   C1B 6469   1.240   5.227   4.998  0.0088  0.2929 -0.2855
  719PNCE   C2B 6470   1.161   5.318   5.492 -0.0019 -0.1547  0.1810
  719PNCE   C3B 6471   1.196   5.225   5.931 -0.3646  0.0421  0.2901
  719PNCE   D4B 6472   1.280   4.816   6.279  0.3148  0.0289 -0.0922
  719PNCE   C5B 6473   1.211   4.411   6.210  0.0211  0.1922  0.0249
  719PNCE   C6B 6474   1.185   3.990   6.086  0.0596 -0.2783 -0.2687
  720PNCE   AM1 6475   8.582   8.459   4.770 -0.0885 -0.3591 -0.0098
  720PNCE   AM2 6476   8.366   8.561   4.879  0.0647 -0.0445 -0.0293
  720PNCE   T1A 6477   9.046   8.328   5.081  0.0114 -0.0251  0.0255
  720PNCE   C2A 6478   9.271   8.123   5.334 -0.0038 -0.1242 -0.2140
  720PNCE   C3A 6479   9.418   8.268   5.645 -0.0306 -0.0116 -0.0243
  720PNCE   C1B 6480   8.039   8.643   5.097  0.1822 -0.1703 -0.0690
  720PNCE   C2B 6481   7.881   8.506   5.465  0.2181 -0.1278 -0.2827
  720PNCE   C3B 6482   7.780   8.477   5.836  0.1109 -0.0987 -0.2801
  720PNCE   D4B 6483   8.073   8.350   6.232  0.1252 -0.0906  0.0152
  720PNCE   C5B 6484   8.164   7.909   6.151 -0.0487  0.3276  0.0800
  720PNCE   C6B 6485   8.142   7.444   6.270 -0.0003 -0.1128 -0.0461
  721XCA    COO 6486  11.473   0.893   5.021  0.3150  0.2732 -0.1767
  721XCA     C1 6487  11.474   1.091   5.381 -0.0526 -0.0496 -0.1250
  721XCA     C2 6488  11.483   1.029   5.743 -0.1816  0.0075  0.1550
  721XCA     C3 6489  11.292   0.972   6.149  0.1577 -0.0577  0.1149
  721XCA     C4 6490  11.058   1.108   6.551 -0.0586  0.0202  0.1005
  721XCA     C5 6491  10.893   0.848   6.874  0.1279 -0.0978 -0.5018
  721XCA     C6 6492  10.992   0.416   6.967  0.0957 -0.1574  0.4625
  722PNCE   AM1 6493  13.206  14.106   4.835 -0.0749  0.1181  0.1493
  722PNCE   AM2 6494  13.164  14.402   4.936  0.1146 -0.0373  0.0289
  722PNCE   T1A 6495  12.846  13.782   5.040  0.1889 -0.0054  0.2092
  722PNCE   C2A 6496  12.495  13.550   5.324  0.0194  0.0851 -0.0427
  722PNCE   C3A 6497  12.610  13.194   5.518  0.0850  0.1063  0.1292
  722PNCE   C1B 6498  12.882  14.351   5.335 -0.0416  0.0573  0.0157
  722PNCE   C2B 6499  13.033  14.514   5.736 -0.1571 -0.0643 -0.1380
  722PNCE   C3B 6500  13.167  14.659   5.969  0.0993  0.2923  0.0113
  722PNCE   D4B 6501  13.303  14.641   6.270  0.0819  0.0509  0.1240
  722PNCE   C5B 6502  13.208  14.382   6.564  0.2505 -0.1997 -0.0507
  722PNCE   C6B 6503  12.820  14.436   6.810  0.1312  0.0195 -0.0936
  723PNCE   AM1 6504  11.696   4.230   4.835 -0.1280  0.0168 -0.1659
  723PNCE   AM2 6505  11.965   4.150   4.821 -0.0242 -0.0986  0.4058
  723PNCE   T1A 6506  11.860   4.101   5.233 -0.2334  0.0544  0.0192
  723PNCE   C2A 6507  11.855   3.832   5.561  0.0142  0.4269 -0.1458
  723PNCE   C3A 6508  11.592   3.652   5.743  0.3854  0.2786 -0.1597
  723PNCE   C1B 6509  12.249   4.382   5.006  0.2804  0.1732  0.2173
  723PNCE   C2B 6510  12.242   4.332   5.455 -0.1745 -0.3124 -0.1657
  723PNCE   C3B 6511  12.250   4.258   5.934  0.3801  0.2812 -0.0235
  723PNCE   D4B 6512  12.611   4.516   6.057 -0.0538  0.2255 -0.2855
  723PNCE   C5B 6513  12.745   4.509   6.421 -0.0005  0.2056 -0.3128
  723PNCE   C6B 6514  12.851   4.654   6.922 -0.1546 -0.2952 -0.0612
  724PNCE   AM1 6515   1.577  11.447   4.404 -0.1701 -0.0805  0.0513
  724PNCE   AM2 6516   1.798  11.202   4.227  0.2386  0.1324 -0.1196
  724PNCE   T1A 6517   1.394  11.419   4.857 -0.0294  0.2390  0.0126
  724PNCE   C2A 6518   1.321  11.440   5.222 -0.0672  0.0348  0.1336
  724PNCE   C3A 6519   1.203  11.385   5.646  0.3112  0.1136 -0.2905
  724PNCE   C1B 6520   1.936  11.203   4.704 -0.0670 -0.1294 -0.1251
  724PNCE   C2B 6521   1.847  11.321   5.175  0.1731  0.3441 -0.0515
  724PNCE   C3B 6522   2.027  11.221   5.579  0.0383  0.1692 -0.0630
  724PNCE   D4B 6523   2.063  10.998   6.007  0.3192  0.0173 -0.2451
  724PNCE   C5B 6524   2.126  10.840   6.406  0.1945 -0.2589 -0.0897
  724PNCE   C6B 6525   2.205  11.126   6.671 -0.0665 -0.2370  0.1053
  725PNCE   AM1 6526   1.270   7.288   4.669  0.3788 -0.3540 -0.1764
  725PNCE   AM2 6527   1.408   7.558   4.606  0.0335 -0.3049  0.2528
  725PNCE   T1A 6528   1.246   7.201   5.044  0.1681 -0.0122  0.0325
  725PNCE   C2A 6529   1.237   7.153   5.448 -0.0468  0.0332  0.0853
  725PNCE   C3A 6530   1.077   7.196   5.900 -0.1914 -0.1664  0.1079
  725PNCE   C1B 6531   1.555   7.594   4.957  0.0951  0.1736 -0.0462
  725PNCE   C2B 6532   1.394   7.616   5.323 -0.2251 -0.0946 -0.0558
  725PNCE   C3B 6533   1.273   7.858   5.637 -0.0108 -0.0706 -0.1236
  725PNCE   D4B 6534   1.449   7.968   6.061 -0.2542  0.0715 -0.3431
  725PNCE   C5B 6535   1.890   7.796   6.067 -0.3008  0.1018 -0.2707
  725PNCE   C6B 6536   2.271   7.930   6.256 -0.1863 -0.1130 -0.1622
  726PNCE   AM1 6537  11.586   7.009   5.450  0.3123 -0.3428 -0.3073
  726PNCE   AM2 6538  11.337   6.903   5.278  0.0478  0.0277 -0.1476
  726PNCE   T1A 6539  11.168   7.252   5.540 -0.2112 -0.1549 -0.1366
  726PNCE   C2A 6540  10.945   7.521   5.847  0.1648  0.0861 -0.0061
  726PNCE   C3A 6541  10.882   7.824   6.104  0.3241 -0.0784  0.1092
  726PNCE   C1B 6542  11.009   6.732   5.646 -0.2927  0.0659 -0.1387
  726PNCE   C2B 6543  10.960   7.016   5.963 -0.3523 -0.1050 -0.2346
  726PNCE   C3B 6544  10.743   7.257   6.239 -0.1493 -0.0646 -0.1639
  726PNCE   D4B 6545  10.489   7.620   6.402  0.4194  0.1934 -0.0572
  726PNCE   C5B 6546  10.660   7.765   6.814 -0.0578  0.1936  0.1183
  726PNCE   C6B 6547  10.722   8.207   6.899 -0.0597  0.1849 -0.4163
  727CHOL   ROH 6548  14.556   2.068   8.390 -0.1948 -0.0128 -0.0856
  727CHOL    R1 6549  14.527   2.064   8.108 -0.1381  0.1031 -0.0946
  727CHOL    R2 6550  14.547   2.292   7.953  0.1443  0.1345 -0.0260
  727CHOL    R3 6551  14.734   2.146   7.820  0.0182 -0.0326 -0.0211
  727CHOL    R4 6552  14.557   2.249   7.610 -0.0201 -0.0880 -0.0048
  727CHOL    R5 6553  14.612   2.041   7.643 -0.1020 -0.0888  0.0980
  727CHOL    C1 6554  14.739   2.087   7.286 -0.2342 -0.3745  0.0121
  727CHOL    C2 6555  14.513   2.047   6.910 -0.2142 -0.0624 -0.2262
  728XCA    COO 6556  13.243   3.352   9.222 -0.0439  0.0961  0.1764
  728XCA     C1 6557  13.420   3.445   8.915  0.0708  0.0555  0.0583
  728XCA     C2 6558  13.572   3.482   8.449 -0.1301 -0.0004  0.1773
  728XCA     C3 6559  13.544   3.768   8.023 -0.3372 -0.0978 -0.1830
  728XCA     C4 6560  13.518   4.198   7.961  0.1819  0.0737  0.0279
  728XCA     C5 6561  13.697   4.683   7.973  0.0310  0.0073 -0.0653
  728XCA     C6 6562  13.479   5.000   7.780  0.1900  0.0672 -0.0148
  729PNCE   AM1 6563   1.425   3.145   4.549  0.0033  0.0597  0.2068
  729PNCE   AM2 6564   1.320   3.418   4.325  0.3585  0.0449  0.0975
  729PNCE   T1A 6565   1.376   2.730   4.629 -0.2103  0.0044 -0.0176
  729PNCE   C2A 6566   1.391   2.524   5.049 -0.0676  0.0614 -0.5023
  729PNCE   C3A 6567   1.102   2.451   5.401 -0.0072  0.0568 -0.1511
  729PNCE   C1B 6568   1.274   3.624   4.824  0.1309 -0.3060  0.0342
  729PNCE   C2B 6569   1.463   3.731   5.169 -0.0084  0.3344 -0.2918
  729PNCE   C3B 6570   1.462   3.497   5.569 -0.4166  0.2661  0.0597
  729PNCE   D4B 6571   1.218   3.491   5.973 -0.2873 -0.0426 -0.0498
  729PNCE   C5B 6572   0.914   3.624   6.225  0.0396  0.0935  0.0706
  729PNCE   C6B 6573   0.680   3.989   6.084  0.3146  0.0532 -0.2293
  730XCA    COO 6574   7.256   1.534   2.958 -0.1582 -0.0827 -0.1775
  730XCA     C1 6575   7.111   1.472   3.383  0.0911 -0.1531  0.1495
  730XCA     C2 6576   7.391   1.343   3.720 -0.3976 -0.1027  0.2095
  730XCA     C3 6577   7.278   1.164   4.187  0.2209  0.2183 -0.0997
  730XCA     C4 6578   7.083   1.179   4.581 -0.1726  0.2645  0.0222
  730XCA     C5 6579   6.791   1.184   4.846 -0.0430 -0.1833 -0.1805
  730XCA     C6 6580   6.490   1.536   5.007 -0.0814 -0.1228  0.4101
  731PNCE   AM1 6581   9.380   4.575   3.883  0.0931  0.0596 -0.0861
  731PNCE   AM2 6582   9.041   4.616   3.844 -0.4298  0.2124  0.0066
  731PNCE   T1A 6583   9.413   4.471   4.341  0.2533 -0.1319 -0.0124
  731PNCE   C2A 6584   9.551   4.422   4.706  0.0789  0.0164 -0.2394
  731PNCE   C3A 6585   9.365   4.247   5.061  0.0890  0.1319 -0.0565
  731PNCE   C1B 6586   9.103   4.840   4.223 -0.3344 -0.0244 -0.3309
  731PNCE   C2B 6587   9.055   4.813   4.620 -0.2789  0.0497  0.0352
  731PNCE   C3B 6588   8.922   4.608   5.074 -0.2269  0.0578 -0.0828
  731PNCE   D4B 6589   9.078   4.508   5.437  0.0309  0.0255  0.1354
  731PNCE   C5B 6590   8.938   4.599   5.823 -0.0081  0.0923 -0.0712
  731PNCE   C6B 6591   8.672   4.894   5.947 -0.0999 -0.0195  0.2136
  732PNCE   AM1 6592   7.956   1.130   4.136 -0.2970  0.0232  0.0305
  732PNCE   AM2 6593   8.297   1.063   4.238  0.1315  0.3011  0.1625
  732PNCE   T1A 6594   7.677   1.146   4.507  0.0464  0.2034 -0.1724
  732PNCE   C2A 6595   7.442   1.401   4.790  0.2649  0.4604  0.0380
  732PNCE   C3A 6596   7.096   1.542   4.967 -0.1567  0.0300 -0.1057
  732PNCE   C1B 6597   8.559   1.376   4.340 -0.1348 -0.0756 -0.1463
  732PNCE   C2B 6598   8.930   1.741   4.418 -0.1975  0.1258  0.0605
  732PNCE   C3B 6599   9.231   1.763   4.695 -0.0945  0.1294 -0.2604
  732PNCE   D4B 6600   9.550   1.756   5.008  0.2526 -0.1592  0.1609
  732PNCE   C5B 6601   9.942   2.096   5.095 -0.0497 -0.4559 -0.2009
  732PNCE   C6B 6602  10.205   2.432   5.315  0.2602 -0.1929 -0.2355
  733PNCE   AM1 6603   0.779   0.608   4.918  0.1544  0.0802 -0.5223
  733PNCE   AM2 6604   0.717   0.295   4.838 -0.1306 -0.0163 -0.2335
  733PNCE   T1A 6605   0.692   0.678   5.295  0.1149 -0.2831  0.2991
  733PNCE   C2A 6606   0.709   0.943   5.635 -0.1304  0.1417 -0.0824
  733PNCE   C3A 6607   1.020   0.812   5.932 -0.1414 -0.2531 -0.0388
  733PNCE   C1B 6608   0.842   0.187   5.337 -0.0687  0.1019  0.3565
  733PNCE   C2B 6609   1.073   0.334   5.716  0.1474 -0.2905  0.0654
  733PNCE   C3B 6610   0.842   0.366   6.063 -0.0009  0.1040  0.0386
  733PNCE   D4B 6611   0.731   0.326   6.466 -0.2726  0.0415 -0.3916
  733PNCE   C5B 6612   0.919   0.691   6.758  0.0585 -0.2318  0.3932
  733PNCE   C6B 6613   1.349   0.963   6.806 -0.0175 -0.1726 -0.0801
  734CHOL   ROH 6614   0.052  10.099   4.769 -0.0022 -0.2904  0.0565
  734CHOL    R1 6615   0.079  10.120   5.050 -0.0086 -0.2024  0.0513
  734CHOL    R2 6616   0.246   9.955   5.196 -0.0517 -0.1948  0.1151
  734CHOL    R3 6617   0.347  10.192   5.285 -0.0003 -0.1873  0.0358
  734CHOL    R4 6618   0.378  10.008   5.512 -0.1672 -0.0760  0.1440
  734CHOL    R5 6619   0.280  10.203   5.515 -0.0932 -0.0390  0.0002
  734CHOL    C1 6620   0.549  10.260   5.779 -0.1861  0.0001  0.0864
  734CHOL    C2 6621   0.731  10.462   6.027 -0.0640 -0.2368  0.1720
  735CHOL   ROH 6622  11.904   4.283   8.931  0.0167 -0.1537  0.0429
  735CHOL    R1 6623  11.842   4.439   8.702  0.0670 -0.2238 -0.0162
  735CHOL    R2 6624  11.712   4.334   8.482 -0.1600 -0.2143  0.1221
  735CHOL    R3 6625  11.541   4.542   8.525  0.0842  0.0040  0.0787
  735CHOL    R4 6626  11.526   4.492   8.237 -0.4001 -0.4390  0.1521
  735CHOL    R5 6627  11.569   4.683   8.334 -0.0781 -0.3115 -0.1957
  735CHOL    C1 6628  11.258   4.779   8.135 -0.3106 -0.3648  0.1288
  735CHOL    C2 6629  11.273   4.856   7.794 -0.0003  0.1122  0.1729
  736XCA    COO 6630   4.603   4.347   7.674 -0.1224  0.1525 -0.1462
  736XCA     C1 6631   5.088   4.336   7.612 -0.0525  0.0239  0.0668
  736XCA     C2 6632   5.261   4.549   7.267 -0.0655 -0.2386  0.2407
  736XCA     C3 6633   5.393   4.766   6.967  0.1126 -0.0713  0.1423
  736XCA     C4 6634   5.440   5.117   6.686 -0.0428 -0.2793  0.4149
  736XCA     C5 6635   5.521   5.334   6.294  0.0353 -0.0112 -0.2000
  736XCA     C6 6636   5.624   5.751   6.322  0.0551 -0.1530  0.3021
  737PNCE   AM1 6637   7.415   8.997   4.756 -0.1520 -0.1004 -0.2240
  737PNCE   AM2 6638   7.692   8.869   4.883  0.1269 -0.2068  0.1790
  737PNCE   T1A 6639   7.390   8.522   4.775  0.1791 -0.2421  0.3362
  737PNCE   C2A 6640   7.554   8.111   4.673 -0.0949 -0.1916  0.0029
  737PNCE   C3A 6641   7.602   7.840   4.309  0.1576 -0.0471 -0.0977
  737PNCE   C1B 6642   7.608   8.881   5.274 -0.1617  0.2277  0.2602
  737PNCE   C2B 6643   7.291   9.156   5.412  0.1024  0.2321 -0.1074
  737PNCE   C3B 6644   7.072   8.925   5.661  0.0379  0.0535 -0.0280
  737PNCE   D4B 6645   6.743   8.665   5.545  0.0092 -0.0468  0.3623
  737PNCE   C5B 6646   6.319   8.690   5.675 -0.0040 -0.0429 -0.0355
  737PNCE   C6B 6647   5.948   8.733   5.765 -0.1781  0.0529  0.2025
  738PNCE   AM1 6648   1.338   8.020   4.907  0.2069 -0.2631  0.1265
  738PNCE   AM2 6649   1.574   8.074   5.155 -0.1959 -0.0377  0.2860
  738PNCE   T1A 6650   1.006   8.019   5.191  0.0114 -0.1397 -0.1120
  738PNCE   C2A 6651   0.856   8.058   5.633  0.2087  0.1001  0.0226
  738PNCE   C3A 6652   0.915   8.177   6.123 -0.2975  0.0451  0.1589
  738PNCE   C1B 6653   1.676   8.176   5.555 -0.1077  0.0925 -0.3818
  738PNCE   C2B 6654   2.081   8.237   5.801 -0.1201  0.2073 -0.3191
  738PNCE   C3B 6655   2.471   8.176   5.906  0.0790 -0.1027 -0.0431
  738PNCE   D4B 6656   2.775   8.467   5.916  0.1336  0.2756  0.1539
  738PNCE   C5B 6657   3.150   8.602   5.632  0.0053 -0.1532  0.0128
  738PNCE   C6B 6658   3.636   8.687   5.519  0.0220  0.1311 -0.0717
  739CHOL   ROH 6659   9.211  12.786   9.214 -0.1916  0.1276 -0.0792
  739CHOL    R1 6660   9.154  12.793   8.937 -0.3126  0.0090 -0.0576
  739CHOL    R2 6661   9.296  12.644   8.753 -0.1940  0.1604 -0.0844
  739CHOL    R3 6662   9.049  12.555   8.683 -0.1115 -0.1719  0.0231
  739CHOL    R4 6663   9.229  12.443   8.480 -0.0607  0.2473 -0.1831
  739CHOL    R5 6664   9.050  12.562   8.443 -0.2773  0.0033  0.0215
  739CHOL    C1 6665   8.959  12.242   8.255  0.0941 -0.0140 -0.1397
  739CHOL    C2 6666   8.901  11.981   7.958  0.0661 -0.2372  0.1193
  740PNCE   AM1 6667   9.658   8.914   5.396  0.2304  0.1163  0.2169
  740PNCE   AM2 6668   9.689   9.202   5.591 -0.3655  0.3386 -0.1689
  740PNCE   T1A 6669   9.279   8.667   5.308  0.5446 -0.0985 -0.0592
  740PNCE   C2A 6670   8.873   8.439   5.516  0.0154  0.1848 -0.0510
  740PNCE   C3A 6671   8.533   8.354   5.304  0.0484 -0.0556 -0.1690
  740PNCE   C1B 6672   9.550   9.003   6.016  0.1677  0.0061 -0.0789
  740PNCE   C2B 6673   9.385   8.841   6.437 -0.1751  0.0673  0.4373
  740PNCE   C3B 6674   9.126   8.567   6.702  0.0991  0.0672  0.4938
  740PNCE   D4B 6675   8.778   8.496   6.543 -0.0645 -0.3795  0.0557
  740PNCE   C5B 6676   8.591   8.512   6.176 -0.1019 -0.0256  0.1779
  740PNCE   C6B 6677   8.688   8.804   5.898  0.0092  0.1847 -0.0991
  741PNCE   AM1 6678   8.370   9.487   5.408 -0.2483 -0.0337  0.0547
  741PNCE   AM2 6679   8.474   9.737   5.234  0.0801  0.1768  0.3482
  741PNCE   T1A 6680   8.426   9.450   5.843  0.2916 -0.1042  0.0927
  741PNCE   C2A 6681   8.579   9.270   6.191 -0.2460 -0.2900  0.2010
  741PNCE   C3A 6682   8.372   8.902   6.399  0.1322  0.1624 -0.0257
  741PNCE   C1B 6683   8.506   9.902   5.587 -0.2336 -0.1777  0.0991
  741PNCE   C2B 6684   8.419  10.148   5.997  0.1301 -0.1400 -0.1281
  741PNCE   C3B 6685   8.312  10.344   6.442 -0.1295 -0.0883 -0.0687
  741PNCE   D4B 6686   8.123  10.488   6.798  0.1569 -0.4546  0.1853
  741PNCE   C5B 6687   7.961  10.877   7.042  0.0596 -0.2331 -0.3066
  741PNCE   C6B 6688   7.549  10.977   6.974  0.1400 -0.3773  0.1452
  742CHOL   ROH 6689   0.302  10.481   4.705  0.0690  0.0919  0.1598
  742CHOL    R1 6690   0.214  10.634   4.927  0.1977  0.2085  0.1287
  742CHOL    R2 6691   0.046  10.532   5.121  0.0945  0.3977  0.1255
  742CHOL    R3 6692   0.243  10.616   5.289  0.1542  0.2446  0.1376
  742CHOL    R4 6693   0.027  10.530   5.466  0.1228  0.2381  0.1287
  742CHOL    R5 6694   0.127  10.723   5.469  0.2045  0.2102  0.2038
  742CHOL    C1 6695   0.200  10.607   5.825  0.1953  0.0015  0.1419
  742CHOL    C2 6696   0.149  10.726   6.200 -0.2088  0.2683 -0.1949
  743CHOL   ROH 6697   7.072   3.693   5.916  0.0680  0.3744 -0.1713
  743CHOL    R1 6698   6.914   3.498   5.786  0.0180  0.3206 -0.0309
  743CHOL    R2 6699   6.721   3.562   5.599 -0.0427  0.2422  0.0075
  743CHOL    R3 6700   6.859   3.387   5.444 -0.1036  0.1681  0.0358
  743CHOL    R4 6701   6.581   3.364   5.353 -0.1417  0.1451  0.1407
  743CHOL    R5 6702   6.711   3.201   5.418 -0.1261  0.1639  0.1682
  743CHOL    C1 6703   6.629   3.084   5.064 -0.2566  0.0190  0.2447
  743CHOL    C2 6704   6.441   2.863   4.758  0.5317 -0.0852 -0.1869
  744XCA    COO 6705   8.794   6.719   4.308  0.2666  0.1309 -0.1787
  744XCA     C1 6706   8.498   6.492   4.494 -0.1443 -0.0331 -0.2307
  744XCA     C2 6707   8.222   6.507   4.833  0.1197  0.0734 -0.0536
  744XCA     C3 6708   8.101   6.549   5.272  0.1120 -0.1397  0.1255
  744XCA     C4 6709   8.006   6.237   5.523  0.0707  0.3196  0.0953
  744XCA     C5 6710   7.700   5.903   5.333 -0.1049  0.2108 -0.3442
  744XCA     C6 6711   7.724   5.473   5.323 -0.0681 -0.0937 -0.1997
  745PNCE   AM1 6712   9.788  14.896   4.826  0.0038  0.1033  0.0902
  745PNCE   AM2 6713   9.612  15.000   4.830 -0.0109  0.0569  0.1931
  745PNCE   T1A 6714   9.942  14.518   5.023  0.1481 -0.4017 -0.3709
  745PNCE   C2A 6715  10.256  14.311   5.240 -0.1866 -0.2230  0.1817
  745PNCE   C3A 6716  10.367  14.211   5.676 -0.1113 -0.1517  0.0343
  745PNCE   C1B 6717   9.550  15.258   5.203 -0.3892 -0.1175 -0.1964
  745PNCE   C2B 6718   9.560  15.135   5.630 -0.2603 -0.1797 -0.0663
  745PNCE   C3B 6719   9.579  15.292   6.064 -0.0547 -0.4863  0.0631
  745PNCE   D4B 6720   9.330  15.410   6.387 -0.0819  0.0161  0.0624
  745PNCE   C5B 6721   9.388  15.121   6.693  0.1786 -0.1855 -0.0473
  745PNCE   C6B 6722   9.261  14.865   6.830 -0.1539 -0.2123 -0.1281
  746PNCE   AM1 6723   5.201   3.339   3.014  0.0207 -0.0103  0.0554
  746PNCE   AM2 6724   5.082   3.180   3.281  0.1234 -0.1040  0.0606
  746PNCE   T1A 6725   5.557   3.205   3.229  0.0066 -0.1148  0.2796
  746PNCE   C2A 6726   5.833   3.414   3.421 -0.0128  0.5263 -0.0919
  746PNCE   C3A 6727   6.009   3.270   3.882 -0.1202 -0.3403 -0.1611
  746PNCE   C1B 6728   5.103   3.376   3.649 -0.3224 -0.0301  0.0848
  746PNCE   C2B 6729   5.216   3.154   4.108  0.4732  0.0224 -0.0373
  746PNCE   C3B 6730   5.352   3.151   4.469  0.1589 -0.1742 -0.0957
  746PNCE   D4B 6731   5.434   3.097   4.955 -0.0137 -0.0749 -0.0123
  746PNCE   C5B 6732   5.696   3.381   5.164 -0.1443  0.3625 -0.1238
  746PNCE   C6B 6733   5.926   3.770   5.182  0.0327  0.1928 -0.1965
  747XCA    COO 6734   0.533  11.379   4.676 -0.5099  0.1513 -0.0558
  747XCA     C1 6735   0.821  11.398   4.991 -0.0274 -0.0733 -0.1123
  747XCA     C2 6736   0.816  11.158   5.384  0.1834 -0.1233  0.1868
  747XCA     C3 6737   0.587  11.192   5.853 -0.0876 -0.1800  0.0311
  747XCA     C4 6738   0.593  11.028   6.259  0.2568 -0.2151  0.0812
  747XCA     C5 6739   0.581  10.707   6.510  0.0400  0.3718  0.0417
  747XCA     C6 6740   0.384  10.381   6.866 -0.0966 -0.2655 -0.0255
  748CHOL   ROH 6741  14.963  11.020   8.718  0.0273 -0.0097 -0.0032
  748CHOL    R1 6742  14.836  10.950   8.475  0.0369  0.0456 -0.0243
  748CHOL    R2 6743  14.902  11.067   8.233  0.0884  0.0575 -0.0040
  748CHOL    R3 6744  14.938  10.809   8.155  0.0386  0.0581 -0.0294
  748CHOL    R4 6745  14.914  10.960   7.905  0.1244  0.0962 -0.0156
  748CHOL    R5 6746  14.796  10.785   7.963  0.0690  0.1178 -0.0596
  748CHOL    C1 6747  14.953  10.656   7.640  0.0984  0.1192 -0.0461
  748CHOL    C2 6748  15.208  10.465   7.337 -0.0285  0.0605  0.2506
  749PNCE   AM1 6749   4.449  15.130   4.306 -0.0095 -0.2099 -0.1533
  749PNCE   AM2 6750   4.683  15.278   4.167 -0.1803 -0.0903 -0.0910
  749PNCE   T1A 6751   4.429  15.161   4.694 -0.0508  0.0236  0.0948
  749PNCE   C2A 6752   4.143  15.165   5.121  0.1138  0.2578 -0.2541
  749PNCE   C3A 6753   3.933  15.117   5.542  0.0377  0.2780 -0.0618
  749PNCE   C1B 6754   4.915  15.146   4.596  0.2522  0.0036 -0.2104
  749PNCE   C2B 6755   4.858  15.167   5.010  0.1717 -0.0173 -0.1693
  749PNCE   C3B 6756   4.626  15.246   5.346 -0.0698  0.0927  0.1412
  749PNCE   D4B 6757   4.470  15.043   5.682  0.4668  0.1155  0.2629
  749PNCE   C5B 6758   4.235  14.724   5.468  0.1203 -0.2168 -0.1753
  749PNCE   C6B 6759   3.862  14.715   5.197  0.2589  0.2352 -0.1717
  750XCA    COO 6760   2.757  14.015   8.711  0.1392 -0.0511  0.1141
  750XCA     C1 6761   2.865  14.180   8.208 -0.0573  0.0963  0.1947
  750XCA     C2 6762   3.159  14.251   7.810  0.0930  0.1380 -0.0324
  750XCA     C3 6763   3.485  14.453   7.626 -0.0821  0.1196 -0.0813
  750XCA     C4 6764   3.547  14.439   7.230 -0.3234 -0.0719 -0.4024
  750XCA     C5 6765   3.892  14.464   6.855  0.0110  0.0231  0.2473
  750XCA     C6 6766   3.964  14.729   6.482  0.0186 -0.0295 -0.1420
  751XCA    COO 6767   1.973   9.733   8.833 -0.0311 -0.0668  0.1912
  751XCA     C1 6768   1.827  10.072   8.452  0.1070  0.2733 -0.1956
  751XCA     C2 6769   1.880  10.258   8.086  0.1124  0.0739  0.0212
  751XCA     C3 6770   1.604  10.333   7.651 -0.3165  0.5025 -0.2612
  751XCA     C4 6771   1.491  10.117   7.435  0.2731 -0.0019 -0.3572
  751XCA     C5 6772   1.385   9.896   7.097  0.1432 -0.0627 -0.0330
  751XCA     C6 6773   1.307   9.999   6.663 -0.1597 -0.1514 -0.1219
  752PNCE   AM1 6774  11.787   8.659   5.798  0.0615  0.0812 -0.0337
  752PNCE   AM2 6775  11.432   8.881   5.760  0.0348 -0.3577  0.1048
  752PNCE   T1A 6776  11.564   8.550   6.235  0.2556  0.0971  0.0946
  752PNCE   C2A 6777  11.485   8.517   6.702 -0.0466 -0.2653  0.0380
  752PNCE   C3A 6778  11.483   8.677   7.127 -0.1217 -0.0558 -0.2596
  752PNCE   C1B 6779  11.162   8.776   6.023  0.0335  0.0887  0.1112
  752PNCE   C2B 6780  11.067   8.584   6.417  0.1753  0.0749 -0.1858
  752PNCE   C3B 6781  11.031   8.573   6.860  0.0712  0.1946 -0.0450
  752PNCE   D4B 6782  10.945   8.489   7.239 -0.0691 -0.2088  0.2157
  752PNCE   C5B 6783  10.852   8.817   7.516  0.0966 -0.1410 -0.0336
  752PNCE   C6B 6784  10.706   9.112   7.867 -0.1227  0.2042  0.0674
  753PNCE   AM1 6785   4.055  12.879   5.001 -0.2038 -0.0373 -0.0522
  753PNCE   AM2 6786   3.981  12.721   4.758  0.0222  0.2109 -0.1841
  753PNCE   T1A 6787   4.261  12.727   5.420  0.1058  0.0369  0.4164
  753PNCE   C2A 6788   4.547  12.695   5.744  0.0701 -0.2632 -0.2416
  753PNCE   C3A 6789   4.972  12.624   5.600 -0.2150  0.1116 -0.2470
  753PNCE   C1B 6790   3.732  12.604   5.181  0.2123  0.2801  0.2469
  753PNCE   C2B 6791   3.764  12.566   5.613  0.0161  0.0537 -0.1846
  753PNCE   C3B 6792   4.075  12.718   5.973 -0.1110 -0.3317  0.0187
  753PNCE   D4B 6793   4.384  12.467   6.203 -0.0140 -0.3003 -0.0796
  753PNCE   C5B 6794   4.420  12.418   6.583 -0.0362 -0.1157 -0.2296
  753PNCE   C6B 6795   4.593  12.579   6.951 -0.1566  0.0723 -0.0163
  754XCA    COO 6796   2.320   6.748   4.934  0.3004 -0.1026 -0.1854
  754XCA     C1 6797   2.231   6.863   5.360  0.0834 -0.1622  0.0386
  754XCA     C2 6798   2.239   7.001   5.809 -0.5615  0.0552  0.0542
  754XCA     C3 6799   2.228   6.732   6.198 -0.2395  0.1808  0.1704
  754XCA     C4 6800   1.860   6.684   6.423 -0.0228  0.2681  0.0492
  754XCA     C5 6801   1.457   6.601   6.588 -0.0433  0.3591  0.3575
  754XCA     C6 6802   1.109   6.266   6.672  0.0762 -0.0458  0.2792
  755PNCE   AM1 6803   0.375  10.796   4.367  0.1163  0.2444  0.1162
  755PNCE   AM2 6804   0.653  10.651   4.360  0.2436 -0.1230 -0.3537
  755PNCE   T1A 6805   0.137  11.043   4.691 -0.0478 -0.0085 -0.1105
  755PNCE   C2A 6806  -0.129  10.926   5.039 -0.2952  0.0186  0.1868
  755PNCE   C3A 6807  -0.297  10.940   5.449  0.1312  0.3760  0.1196
  755PNCE   C1B 6808   0.706  10.883   4.702 -0.0716  0.0659 -0.0336
  755PNCE   C2B 6809   0.449  11.049   5.104 -0.1596  0.0021  0.0799
  755PNCE   C3B 6810   0.290  11.170   5.407 -0.1766 -0.1022  0.0534
  755PNCE   D4B 6811   0.130  11.051   5.823 -0.0227 -0.0956 -0.2969
  755PNCE   C5B 6812  -0.154  10.911   5.902 -0.2747  0.1693  0.2016
  755PNCE   C6B 6813  -0.308  10.587   5.785 -0.1195  0.0992 -0.0183
  756CHOL   ROH 6814   5.199   1.177   3.954 -0.0017  0.0441 -0.1179
  756CHOL    R1 6815   5.440   1.304   4.031  0.0128 -0.0862  0.0547
  756CHOL    R2 6816   5.482   1.575   4.003  0.2426 -0.1355 -0.0811
  756CHOL    R3 6817   5.540   1.562   4.268 -0.0463 -0.0060 -0.0061
  756CHOL    R4 6818   5.673   1.806   4.175  0.1067 -0.0812 -0.0002
  756CHOL    R5 6819   5.765   1.641   4.283 -0.0420 -0.0457  0.1920
  756CHOL    C1 6820   5.839   1.927   4.524 -0.2437  0.0719  0.1173
  756CHOL    C2 6821   6.120   2.264   4.385  0.0755  0.0019 -0.2849
  757CHOL   ROH 6822   9.684  13.244   9.486  0.0001  0.1669  0.0116
  757CHOL    R1 6823   9.583  13.315   9.231 -0.2071  0.0858  0.0681
  757CHOL    R2 6824   9.630  13.163   9.005 -0.0543  0.2163  0.0053
  757CHOL    R3 6825   9.359  13.168   8.985 -0.0764 -0.1969  0.1148
  757CHOL    R4 6826   9.450  13.073   8.724 -0.0159  0.2547 -0.0311
  757CHOL    R5 6827   9.316  13.241   8.761 -0.2764 -0.0002  0.2151
  757CHOL    C1 6828   9.091  13.025   8.542 -0.0142 -0.1107  0.0505
  757CHOL    C2 6829   8.824  13.043   8.273  0.5881  0.1711  0.0315
  758CHOL   ROH 6830   6.026  13.498   8.485 -0.0637 -0.1388  0.2031
  758CHOL    R1 6831   5.831  13.318   8.386  0.0004 -0.1373  0.0723
  758CHOL    R2 6832   5.725  13.340   8.131  0.1069 -0.0849  0.0315
  758CHOL    R3 6833   5.806  13.082   8.111  0.1470 -0.0695 -0.0009
  758CHOL    R4 6834   5.546  13.087   7.978  0.1005 -0.1122  0.0845
  758CHOL    R5 6835   5.606  12.954   8.138  0.1779 -0.1054  0.0623
  758CHOL    C1 6836   5.517  12.697   7.870  0.1344 -0.1137  0.0850
  758CHOL    C2 6837   5.317  12.537   7.564 -0.0835 -0.0170  0.0053
  759CHOL   ROH 6838   6.043  15.610   6.213 -0.0104 -0.0055  0.1579
  759CHOL    R1 6839   6.272  15.444   6.226  0.0068  0.0203  0.1938
  759CHOL    R2 6840   6.285  15.221   6.388  0.0228  0.0442  0.2281
  759CHOL    R3 6841   6.349  15.095   6.156  0.0461  0.0182  0.2491
  759CHOL    R4 6842   6.549  15.001   6.349  0.0309  0.0459  0.2753
  759CHOL    R5 6843   6.589  15.091   6.155  0.0453  0.0231  0.2692
  759CHOL    C1 6844   6.763  14.755   6.108  0.0575  0.0224  0.3225
  759CHOL    C2 6845   7.047  14.558   6.058  0.0256  0.0111  0.3722
  760CHOL   ROH 6846  11.097   3.007   8.417 -0.0855 -0.1359 -0.1029
  760CHOL    R1 6847  10.940   3.126   8.214  0.0336 -0.0380 -0.1405
  760CHOL    R2 6848  10.682   3.215   8.259 -0.0849 -0.2694 -0.3041
  760CHOL    R3 6849  10.780   3.448   8.158 -0.1399 -0.0924  0.0416
  760CHOL    R4 6850  10.517   3.418   8.032  0.0229 -0.1459 -0.2716
  760CHOL    R5 6851  10.707   3.450   7.930  0.1074  0.0966 -0.0352
  760CHOL    C1 6852  10.513   3.755   7.807  0.0340  0.0922  0.0719
  760CHOL    C2 6853  10.151   3.913   7.588  0.1980 -0.0956  0.3125
  761CHOL   ROH 6854   9.468   4.657   7.640  0.1501 -0.2720 -0.0053
  761CHOL    R1 6855   9.552   4.509   7.414  0.1972  0.0282 -0.1904
  761CHOL    R2 6856   9.405   4.300   7.310  0.5214 -0.2540 -0.1009
  761CHOL    R3 6857   9.426   4.442   7.079 -0.0903 -0.0768 -0.0639
  761CHOL    R4 6858   9.302   4.188   6.999  0.4408 -0.3584 -0.0373
  761CHOL    R5 6859   9.481   4.278   6.913  0.1334  0.1337 -0.2035
  761CHOL    C1 6860   9.261   4.257   6.602 -0.1803 -0.2529  0.0346
  761CHOL    C2 6861   9.067   4.387   6.322  0.2651 -0.2423  0.0667
  762PNCE   AM1 6862   5.673  12.069   5.332  0.0804  0.2575 -0.0478
  762PNCE   AM2 6863   5.787  11.850   5.043  0.2412  0.0083  0.0182
  762PNCE   T1A 6864   5.832  12.028   5.732  0.3635 -0.1339 -0.4318
  762PNCE   C2A 6865   5.803  12.151   6.169 -0.0987 -0.1884 -0.1578
  762PNCE   C3A 6866   5.677  12.136   6.504  0.1370  0.1943  0.0920
  762PNCE   C1B 6867   6.019  11.647   5.393 -0.0570  0.3130  0.3531
  762PNCE   C2B 6868   6.025  11.568   5.822 -0.3468 -0.0095 -0.1266
  762PNCE   C3B 6869   6.128  11.829   6.233  0.2215  0.1717  0.2732
  762PNCE   D4B 6870   6.157  12.153   6.490  0.0579  0.3368  0.0136
  762PNCE   C5B 6871   6.272  12.400   6.585 -0.2070 -0.0610  0.1530
  762PNCE   C6B 6872   6.247  12.880   6.645  0.2145  0.0692  0.1181
  763PNCE   AM1 6873   0.542   2.620   4.991  0.0044 -0.1344 -0.3446
  763PNCE   AM2 6874   0.800   2.731   4.783 -0.0032 -0.2399  0.1704
  763PNCE   T1A 6875   0.532   2.861   5.470  0.1664  0.0360  0.0537
  763PNCE   C2A 6876   0.643   3.067   5.835  0.0913 -0.4019 -0.2959
  763PNCE   C3A 6877   0.761   3.453   5.785 -0.3825 -0.1571 -0.2510
  763PNCE   C1B 6878   1.030   2.859   5.100  0.3533  0.2810 -0.0013
  763PNCE   C2B 6879   1.023   2.963   5.494  0.2272  0.2399  0.2843
  763PNCE   C3B 6880   1.160   3.019   5.807  0.0447  0.2719 -0.2754
  763PNCE   D4B 6881   1.040   3.078   6.218 -0.0655  0.2854  0.2792
  763PNCE   C5B 6882   0.646   3.234   6.318 -0.1219  0.2314 -0.3555
  763PNCE   C6B 6883   0.614   3.363   6.690 -0.2016 -0.0272 -0.1344
  764CHOL   ROH 6884   9.240  11.016   7.334 -0.1676  0.0107  0.2199
  764CHOL    R1 6885   9.320  11.247   7.477 -0.0573  0.0356  0.1184
  764CHOL    R2 6886   9.483  11.235   7.700 -0.0364  0.0584  0.1011
  764CHOL    R3 6887   9.634  11.412   7.560  0.0192 -0.0555  0.0150
  764CHOL    R4 6888   9.743  11.420   7.832 -0.1881  0.2794  0.0982
  764CHOL    R5 6889   9.675  11.590   7.714 -0.1504  0.1322 -0.1482
  764CHOL    C1 6890  10.037  11.694   7.776 -0.2242  0.3012  0.0155
  764CHOL    C2 6891  10.287  11.752   8.101  0.1672 -0.2265 -0.0222
  765PNCE   AM1 6892   6.645  13.896   4.345 -0.1851  0.0027 -0.1196
  765PNCE   AM2 6893   6.512  13.702   4.662 -0.0538  0.1441  0.1528
  765PNCE   T1A 6894   6.833  14.196   4.543  0.0560  0.0509  0.3065
  765PNCE   C2A 6895   6.890  14.537   4.621 -0.0535 -0.0523 -0.0978
  765PNCE   C3A 6896   6.714  14.863   4.920  0.0909 -0.2865  0.4286
  765PNCE   C1B 6897   6.628  14.026   4.964  0.1648  0.3207 -0.2958
  765PNCE   C2B 6898   6.812  14.426   5.083  0.0970  0.0361 -0.0823
  765PNCE   C3B 6899   6.792  14.771   5.541 -0.0836 -0.1633 -0.0398
  765PNCE   D4B 6900   7.085  15.128   5.563  0.1253 -0.0042  0.1565
  765PNCE   C5B 6901   7.020  15.208   6.006 -0.0863 -0.0952  0.0654
  765PNCE   C6B 6902   7.260  15.421   6.312  0.2888 -0.1608 -0.0623
  766PNCE   AM1 6903   1.873   8.557   5.089  0.0488  0.0160  0.1031
  766PNCE   AM2 6904   1.535   8.567   4.957 -0.0678 -0.0002  0.1731
  766PNCE   T1A 6905   2.043   8.251   5.286 -0.2316  0.2063  0.3251
  766PNCE   C2A 6906   1.988   7.790   5.498 -0.1052  0.1014 -0.0108
  766PNCE   C3A 6907   2.142   7.492   5.773 -0.1059 -0.0488 -0.0019
  766PNCE   C1B 6908   1.323   8.628   5.335  0.1088 -0.1384  0.3211
  766PNCE   C2B 6909   1.335   8.836   5.766 -0.1011  0.3221 -0.0312
  766PNCE   C3B 6910   1.253   8.895   6.199  0.0601  0.2197 -0.0742
  766PNCE   D4B 6911   1.052   9.138   6.562  0.0713 -0.1548 -0.0250
  766PNCE   C5B 6912   0.572   9.190   6.609  0.0385 -0.2103  0.4890
  766PNCE   C6B 6913   0.298   9.015   6.448  0.0103 -0.1023  0.1033
  767CHOL   ROH 6914   4.504   6.325   8.173  0.0263  0.1357 -0.0555
  767CHOL    R1 6915   4.516   6.214   7.913  0.0015 -0.0881  0.0370
  767CHOL    R2 6916   4.336   6.025   7.823 -0.0742 -0.0863  0.1797
  767CHOL    R3 6917   4.300   6.202   7.620  0.0221 -0.2377  0.0280
  767CHOL    R4 6918   4.183   5.952   7.522 -0.2858 -0.2045  0.3132
  767CHOL    R5 6919   4.334   6.072   7.422 -0.2033 -0.4578  0.1310
  767CHOL    C1 6920   4.060   6.075   7.156 -0.3186 -0.4155  0.2486
  767CHOL    C2 6921   4.027   6.189   6.817 -0.1814  0.1265 -0.5316
  768XCA    COO 6922   7.435   7.065   8.632  0.1863 -0.3058  0.0920
  768XCA     C1 6923   7.627   7.243   8.374  0.1978 -0.1552  0.1122
  768XCA     C2 6924   7.560   7.685   8.207 -0.0426  0.3533  0.0704
  768XCA     C3 6925   7.241   7.916   7.872  0.0336  0.3006  0.0346
  768XCA     C4 6926   7.368   8.239   7.654 -0.1891 -0.0053 -0.1478
  768XCA     C5 6927   7.677   8.371   7.740 -0.3651 -0.0163 -0.1693
  768XCA     C6 6928   7.940   8.766   7.515 -0.0443 -0.2350  0.0753
  769XCA    COO 6929   5.542   7.122   8.342  0.0028  0.4162 -0.1027
  769XCA     C1 6930   5.339   6.916   8.085  0.1855 -0.0211  0.1488
  769XCA     C2 6931   5.288   6.768   7.651 -0.2946  0.3461 -0.0383
  769XCA     C3 6932   5.289   6.523   7.257 -0.0555 -0.0484 -0.0869
  769XCA     C4 6933   5.380   6.152   6.925  0.1826  0.2605 -0.1503
  769XCA     C5 6934   5.437   6.124   6.583 -0.1128  0.0006 -0.1282
  769XCA     C6 6935   5.227   6.248   6.239  0.0654 -0.1192  0.2448
  770PNCE   AM1 6936   0.130  15.321   5.035 -0.1811 -0.0367 -0.1980
  770PNCE   AM2 6937   0.100  15.697   4.982 -0.1345  0.1916 -0.1047
  770PNCE   T1A 6938   0.421  15.565   5.359 -0.0321  0.1019  0.0193
  770PNCE   C2A 6939   0.692  15.460   5.640 -0.3606 -0.2026 -0.1205
  770PNCE   C3A 6940   1.094  15.212   5.755 -0.0944  0.2620 -0.1545
  770PNCE   C1B 6941  -0.084  15.613   5.426  0.3171 -0.4224 -0.0806
  770PNCE   C2B 6942  -0.192  15.656   5.913  0.0610  0.1777 -0.0678
  770PNCE   C3B 6943  -0.425  15.938   6.181  0.0000 -0.1807  0.0634
  770PNCE   D4B 6944  -0.546  16.152   6.548 -0.1688  0.0118 -0.0243
  770PNCE   C5B 6945  -0.700  16.545   6.559 -0.2470  0.2566 -0.0632
  770PNCE   C6B 6946  -0.731  16.911   6.781 -0.1317  0.0360  0.0729
  771PNCE   AM1 6947  15.175   5.685   4.716 -0.1551  0.2326 -0.2852
  771PNCE   AM2 6948  14.942   5.769   4.906  0.3893  0.0965  0.0239
  771PNCE   T1A 6949  15.478   5.632   4.949 -0.0701  0.1852 -0.0977
  771PNCE   C2A 6950  15.678   5.692   5.395  0.2427  0.0643 -0.0499
  771PNCE   C3A 6951  16.119   5.659   5.483 -0.2151 -0.1194  0.4842
  771PNCE   C1B 6952  15.145   5.928   5.263 -0.0855 -0.2484 -0.0333
  771PNCE   C2B 6953  15.470   6.181   5.295 -0.0094 -0.1093 -0.1346
  771PNCE   C3B 6954  15.733   6.415   5.653 -0.0466  0.0031  0.1886
  771PNCE   D4B 6955  15.738   6.698   5.936  0.1547  0.1358 -0.2483
  771PNCE   C5B 6956  15.646   7.115   6.006 -0.2228 -0.2064 -0.1184
  771PNCE   C6B 6957  15.328   7.413   5.912 -0.1376  0.2246  0.0308
  772CHOL   ROH 6958   8.100   9.510   8.030 -0.0382 -0.0524  0.1667
  772CHOL    R1 6959   7.840   9.451   7.936 -0.1229  0.0292  0.3444
  772CHOL    R2 6960   7.624   9.615   7.984  0.0327  0.2900  0.1815
  772CHOL    R3 6961   7.597   9.607   7.714 -0.0643 -0.0864  0.1976
  772CHOL    R4 6962   7.328   9.668   7.813  0.0566  0.4885  0.2000
  772CHOL    R5 6963   7.383   9.506   7.678 -0.2380  0.1882  0.4269
  772CHOL    C1 6964   7.131   9.691   7.460 -0.0205  0.2506  0.2259
  772CHOL    C2 6965   6.827   9.752   7.220 -0.1549 -0.1338  0.1316
  773PNCE   AM1 6966  12.038  12.206   5.226  0.0277  0.1922 -0.2656
  773PNCE   AM2 6967  11.944  11.879   5.415 -0.2030 -0.1273 -0.0065
  773PNCE   T1A 6968  11.782  12.280   5.604 -0.1451 -0.4037 -0.1772
  773PNCE   C2A 6969  11.481  12.228   6.002 -0.0362 -0.0053 -0.0413
  773PNCE   C3A 6970  11.380  12.333   6.444 -0.2855  0.0659 -0.0932
  773PNCE   C1B 6971  12.032  11.889   5.881 -0.1854  0.0990 -0.2460
  773PNCE   C2B 6972  11.879  12.058   6.247  0.1199  0.0160 -0.1160
  773PNCE   C3B 6973  11.871  12.103   6.617  0.0906  0.0615  0.2104
  773PNCE   D4B 6974  11.778  12.291   6.904  0.0615  0.0391  0.0484
  773PNCE   C5B 6975  11.779  12.505   7.307  0.0526 -0.1125  0.2570
  773PNCE   C6B 6976  11.797  12.838   7.585 -0.0822  0.2291  0.1684
  774CHOL   ROH 6977  10.537  11.434   6.302  0.1021 -0.1160  0.0262
  774CHOL    R1 6978  10.745  11.546   6.457  0.0598 -0.0289  0.0208
  774CHOL    R2 6979  10.908  11.748   6.363  0.0147 -0.0040 -0.0074
  774CHOL    R3 6980  10.828  11.874   6.591 -0.0389  0.0208 -0.0400
  774CHOL    R4 6981  11.062  12.025   6.501  0.0571 -0.0656  0.0697
  774CHOL    R5 6982  11.031  11.938   6.699 -0.0636 -0.0587  0.0532
  774CHOL    C1 6983  11.076  12.305   6.795  0.0315 -0.0782  0.0839
  774CHOL    C2 6984  11.048  12.209   7.162  0.1207  0.0089 -0.2606
  775CHOL   ROH 6985   0.991  14.322   5.244  0.0362  0.0153  0.1723
  775CHOL    R1 6986   0.871  14.367   5.497 -0.0760  0.0279  0.1160
  775CHOL    R2 6987   0.614  14.283   5.556 -0.0941  0.0198  0.0086
  775CHOL    R3 6988   0.737  14.161   5.766 -0.1829  0.0427  0.0762
  775CHOL    R4 6989   0.453  14.167   5.839 -0.2256  0.0169 -0.0651
  775CHOL    R5 6990   0.620  14.242   5.958 -0.2895  0.0422  0.0156
  775CHOL    C1 6991   0.475  13.986   6.202 -0.3857  0.0368 -0.0445
  775CHOL    C2 6992   0.207  13.727   6.516 -0.0172 -0.3716  0.0155
  776CHOL   ROH 6993  10.130  10.856   7.111  0.1488 -0.0421  0.1267
  776CHOL    R1 6994  10.139  10.922   7.386  0.0525 -0.0058  0.1219
  776CHOL    R2 6995  10.306  11.118   7.485  0.0879 -0.0579  0.1682
  776CHOL    R3 6996  10.075  11.217   7.589  0.0806  0.0504  0.0492
  776CHOL    R4 6997  10.266  11.224   7.812 -0.0415 -0.0758  0.1582
  776CHOL    R5 6998  10.068  11.131   7.812 -0.0909  0.0272  0.0358
  776CHOL    C1 6999  10.025  11.379   8.099 -0.1237  0.0154  0.0406
  776CHOL    C2 7000   9.923  11.411   8.534 -0.0632 -0.6926 -0.1839
  777CHOL   ROH 7001   2.843   5.399   5.016  0.2060  0.1742 -0.0954
  777CHOL    R1 7002   2.960   5.247   5.224  0.2132  0.0843 -0.1644
  777CHOL    R2 7003   3.199   5.317   5.345  0.1860  0.0678 -0.0980
  777CHOL    R3 7004   3.051   5.300   5.572  0.1621 -0.0858 -0.1241
  777CHOL    R4 7005   3.315   5.393   5.661  0.0790  0.0952 -0.0652
  777CHOL    R5 7006   3.206   5.221   5.737  0.1958 -0.0015 -0.1154
  777CHOL    C1 7007   3.244   5.422   6.059 -0.0057 -0.0331 -0.0707
  777CHOL    C2 7008   3.173   5.643   6.275 -0.0519 -0.0364  0.1161
  778PNCE   AM1 7009  15.467   4.129   4.687  0.3025 -0.2417 -0.0892
  778PNCE   AM2 7010  15.331   4.434   4.544 -0.1328 -0.3020  0.0920
  778PNCE   T1A 7011  15.852   4.049   4.748 -0.0355 -0.4216 -0.5517
  778PNCE   C2A 7012  16.092   3.913   5.117 -0.0401  0.1876 -0.0983
  778PNCE   C3A 7013  16.310   3.853   5.513 -0.1271 -0.1448  0.2955
  778PNCE   C1B 7014  15.502   4.586   5.013 -0.1961 -0.1336  0.2056
  778PNCE   C2B 7015  15.568   4.584   5.422  0.4064  0.1471 -0.1610
  778PNCE   C3B 7016  15.362   4.371   5.729  0.1501  0.1041 -0.0624
  778PNCE   D4B 7017  15.333   4.090   6.000 -0.1254  0.3536 -0.0622
  778PNCE   C5B 7018  15.614   3.791   5.976  0.0769 -0.2500 -0.2749
  778PNCE   C6B 7019  15.963   3.716   5.935  0.4542  0.0367  0.0309
  779XCA    COO 7020  12.716  12.202   9.260 -0.3209  0.2139 -0.0055
  779XCA     C1 7021  12.997  11.945   8.911  0.1266 -0.3538 -0.0156
  779XCA     C2 7022  12.960  11.662   8.590  0.1828  0.1584  0.1633
  779XCA     C3 7023  12.933  11.333   8.408  0.3102  0.1892  0.1794
  779XCA     C4 7024  13.023  10.958   8.175 -0.2084  0.0481 -0.0128
  779XCA     C5 7025  12.706  10.831   7.870  0.0598  0.2934 -0.0833
  779XCA     C6 7026  12.458  10.858   7.470 -0.0230 -0.0061  0.1122
  780PNCE   AM1 7027   9.742   5.407   4.629 -0.3024  0.0746 -0.0067
  780PNCE   AM2 7028   9.772   5.141   4.385  0.1301  0.1903 -0.0941
  780PNCE   T1A 7029   9.705   5.287   5.012 -0.1786 -0.0578 -0.0527
  780PNCE   C2A 7030   9.788   5.038   5.370 -0.3027  0.0123  0.0554
  780PNCE   C3A 7031   9.717   4.790   5.698 -0.1672  0.0727 -0.2171
  780PNCE   C1B 7032   9.547   4.930   4.596 -0.1969  0.0491 -0.1154
  780PNCE   C2B 7033   9.427   4.838   4.987  0.1429  0.2481  0.3484
  780PNCE   C3B 7034   9.278   4.960   5.418  0.0207 -0.0539  0.0533
  780PNCE   D4B 7035   9.311   5.156   5.790  0.5067 -0.0411  0.1133
  780PNCE   C5B 7036   9.620   5.539   5.794  0.0729  0.4449 -0.2208
  780PNCE   C6B 7037   9.515   5.949   5.608  0.0945 -0.2209 -0.4278
  781PNCE   AM1 7038   2.058   3.114   4.499  0.4078  0.0234  0.2447
  781PNCE   AM2 7039   2.182   2.779   4.439 -0.0100 -0.0926  0.1273
  781PNCE   T1A 7040   2.289   3.287   4.858 -0.0803  0.4010  0.1212
  781PNCE   C2A 7041   2.438   3.390   5.303  0.1404 -0.2586 -0.0855
  781PNCE   C3A 7042   2.651   3.582   5.670 -0.1966  0.0452 -0.0723
  781PNCE   C1B 7043   2.264   2.727   4.827  0.2051  0.0255  0.0908
  781PNCE   C2B 7044   2.523   2.875   5.122 -0.1666 -0.4760 -0.0563
  781PNCE   C3B 7045   2.642   2.957   5.512 -0.1299  0.1538  0.5365
  781PNCE   D4B 7046   3.112   2.936   5.601 -0.1880 -0.1860 -0.3873
  781PNCE   C5B 7047   3.397   3.162   5.824  0.1060  0.1572  0.3665
  781PNCE   C6B 7048   3.654   3.509   5.818 -0.0533  0.1139 -0.2979
  782PNCE   AM1 7049   0.585  14.249   5.098 -0.0719  0.0160 -0.2459
  782PNCE   AM2 7050   0.893  13.910   5.003 -0.1440 -0.0712 -0.2592
  782PNCE   T1A 7051   0.636  14.680   5.114 -0.1230 -0.1603 -0.0204
  782PNCE   C2A 7052   0.633  15.086   5.181 -0.0741  0.1954 -0.0783
  782PNCE   C3A 7053   0.923  15.363   5.268  0.1895 -0.0173  0.1378
  782PNCE   C1B 7054   0.858  13.865   5.421 -0.0490 -0.1750  0.0275
  782PNCE   C2B 7055   1.161  13.893   5.735  0.1462 -0.0849  0.0419
  782PNCE   C3B 7056   1.333  13.772   6.116  0.0917 -0.1564 -0.0166
  782PNCE   D4B 7057   1.290  13.748   6.551  0.0134 -0.1081  0.1142
  782PNCE   C5B 7058   1.577  14.114   6.613  0.2786 -0.3831  0.0850
  782PNCE   C6B 7059   1.808  14.479   6.564  0.1007 -0.3072 -0.1726
  783PNCE   AM1 7060  11.986   7.912   5.723 -0.1242  0.0889 -0.1654
  783PNCE   AM2 7061  11.703   8.151   5.736  0.1132 -0.3959  0.3880
  783PNCE   T1A 7062  12.164   7.855   6.082  0.3418  0.0745 -0.0629
  783PNCE   C2A 7063  12.182   7.850   6.512  0.1863 -0.0269  0.3894
  783PNCE   C3A 7064  12.072   7.771   6.925 -0.3738 -0.0630 -0.1600
  783PNCE   C1B 7065  11.724   8.048   6.150  0.1584 -0.0679 -0.1907
  783PNCE   C2B 7066  11.655   8.061   6.546 -0.0413 -0.3316  0.0500
  783PNCE   C3B 7067  11.696   8.090   7.003 -0.1897  0.2034  0.0602
  783PNCE   D4B 7068  11.852   8.050   7.382  0.1197  0.0637  0.2570
  783PNCE   C5B 7069  12.263   7.794   7.458 -0.1307 -0.0418  0.3179
  783PNCE   C6B 7070  12.727   7.794   7.225  0.0971  0.0656  0.1642
  784CHOL   ROH 7071  14.915   7.038   5.084 -0.0771  0.0886  0.1514
  784CHOL    R1 7072  15.149   7.076   5.239 -0.0170  0.1450  0.0485
  784CHOL    R2 7073  15.378   7.193   5.137 -0.0848  0.1943 -0.0561
  784CHOL    R3 7074  15.349   7.359   5.350 -0.0328  0.1934 -0.0488
  784CHOL    R4 7075  15.639   7.342   5.307 -0.0374  0.0320  0.0153
  784CHOL    R5 7076  15.533   7.304   5.494 -0.0975  0.0785 -0.0132
  784CHOL    C1 7077  15.764   7.586   5.606  0.0393 -0.0633  0.0637
  784CHOL    C2 7078  15.864   7.589   5.947 -0.0640  0.1066  0.1020
  785PNCE   AM1 7079  13.339  13.657   4.973  0.4961  0.0365  0.1009
  785PNCE   AM2 7080  13.721  13.658   5.127 -0.1471 -0.0508  0.1013
  785PNCE   T1A 7081  13.195  13.470   5.376 -0.1889 -0.2422 -0.2272
  785PNCE   C2A 7082  13.083  13.199   5.766  0.1966 -0.0084 -0.0901
  785PNCE   C3A 7083  13.262  13.189   6.173  0.1121 -0.3056 -0.2056
  785PNCE   C1B 7084  14.128  13.556   5.351 -0.2203 -0.1813 -0.1092
  785PNCE   C2B 7085  14.143  13.264   5.707  0.0028 -0.1481 -0.2303
  785PNCE   C3B 7086  14.227  12.910   6.076 -0.2199 -0.2450 -0.0045
  785PNCE   D4B 7087  14.370  12.696   6.415 -0.0023  0.0095  0.3560
  785PNCE   C5B 7088  14.789  12.822   6.360  0.0592  0.3369  0.4302
  785PNCE   C6B 7089  15.082  13.072   6.497  0.1727 -0.2312 -0.1935
  786XCA    COO 7090   4.473   9.000   8.037  0.3958 -0.1092  0.2345
  786XCA     C1 7091   4.452   8.894   7.581  0.1334  0.0069  0.0061
  786XCA     C2 7092   4.296   9.127   7.200  0.0074  0.2062 -0.0012
  786XCA     C3 7093   4.003   9.113   6.880  0.2855 -0.0295  0.1795
  786XCA     C4 7094   3.950   8.971   6.462 -0.4122 -0.0970  0.0983
  786XCA     C5 7095   3.673   8.799   6.060 -0.1356 -0.1393  0.1808
  786XCA     C6 7096   3.445   8.504   6.034  0.0455  0.0764 -0.1116
  787CHOL   ROH 7097  13.007   7.961   6.864  0.1263  0.0249  0.0093
  787CHOL    R1 7098  13.215   8.016   7.049  0.0320 -0.0392  0.1366
  787CHOL    R2 7099  13.206   7.932   7.312 -0.0454 -0.2455  0.0727
  787CHOL    R3 7100  13.446   7.821   7.251  0.0194 -0.1114  0.0807
  787CHOL    R4 7101  13.474   7.908   7.529 -0.0057 -0.0215  0.0507
  787CHOL    R5 7102  13.606   7.959   7.364 -0.0545  0.0169  0.0267
  787CHOL    C1 7103  13.855   7.790   7.599  0.0781  0.2349  0.0454
  787CHOL    C2 7104  14.162   7.834   7.705  0.0813  0.3811  0.4475
  788CHOL   ROH 7105  12.898   9.023   7.676 -0.2073  0.1186 -0.1420
  788CHOL    R1 7106  13.133   8.881   7.610 -0.0875  0.3258 -0.1701
  788CHOL    R2 7107  13.149   8.605   7.621  0.2840  0.3504  0.2438
  788CHOL    R3 7108  13.231   8.632   7.363 -0.0303  0.0679  0.1059
  788CHOL    R4 7109  13.369   8.392   7.461  0.3134  0.3347  0.3061
  788CHOL    R5 7110  13.462   8.566   7.368  0.0433  0.3003 -0.0499
  788CHOL    C1 7111  13.575   8.294   7.126  0.0356  0.0604  0.2128
  788CHOL    C2 7112  14.068   8.257   7.199  0.0107 -0.0457  0.0160
  789XCA    COO 7113   1.001   3.263   4.811 -0.1776  0.1709  0.2817
  789XCA     C1 7114   1.373   3.244   5.101  0.2765 -0.0631 -0.1046
  789XCA     C2 7115   1.544   2.946   5.442  0.2717  0.0438  0.0078
  789XCA     C3 7116   1.745   3.084   5.818 -0.0534 -0.1077 -0.0290
  789XCA     C4 7117   1.778   3.461   5.964 -0.1892 -0.1504  0.3504
  789XCA     C5 7118   1.721   3.871   5.834  0.1516  0.3629  0.1938
  789XCA     C6 7119   1.501   4.274   5.729  0.0870  0.1262  0.0288
  790XCA    COO 7120   6.658   2.753   2.673  0.2656  0.0793  0.1756
  790XCA     C1 7121   6.714   2.875   3.186  0.2388 -0.4793  0.1456
  790XCA     C2 7122   6.753   2.877   3.669  0.1616 -0.4982  0.0964
  790XCA     C3 7123   6.673   2.712   4.075 -0.2804  0.1021 -0.2161
  790XCA     C4 7124   6.655   2.514   4.395 -0.0680 -0.2007 -0.0019
  790XCA     C5 7125   6.487   2.342   4.768  0.0843  0.0897  0.0858
  790XCA     C6 7126   6.272   1.928   4.795  0.3653 -0.1240 -0.0301
  791CHOL   ROH 7127   6.150   3.512   7.419 -0.0262  0.2197  0.0713
  791CHOL    R1 7128   5.976   3.338   7.280  0.1327  0.1425 -0.0329
  791CHOL    R2 7129   5.705   3.385   7.257  0.0783 -0.1254  0.0539
  791CHOL    R3 7130   5.755   3.360   6.991  0.0577  0.1336  0.0227
  791CHOL    R4 7131   5.462   3.361   7.012  0.0535 -0.1338  0.0788
  791CHOL    R5 7132   5.585   3.211   6.913  0.1696  0.0481 -0.0664
  791CHOL    C1 7133   5.368   3.324   6.619  0.0198  0.1044  0.0639
  791CHOL    C2 7134   5.080   3.062   6.443  0.0678  0.2038  0.1844
  792PNCE   AM1 7135   0.934   1.507   4.630  0.2783 -0.2787 -0.2889
  792PNCE   AM2 7136   1.086   1.736   4.651 -0.2865 -0.1167  0.1995
  792PNCE   T1A 7137   0.755   1.693   5.059 -0.0325 -0.1481  0.1489
  792PNCE   C2A 7138   0.654   1.827   5.513  0.0442 -0.1041 -0.0628
  792PNCE   C3A 7139   0.535   1.704   5.846  0.2313 -0.0075  0.3703
  792PNCE   C1B 7140   1.232   1.544   5.057  0.1711 -0.0447 -0.2171
  792PNCE   C2B 7141   1.538   1.610   5.420  0.1922  0.2475 -0.2799
  792PNCE   C3B 7142   1.714   1.344   5.661  0.0271  0.1723  0.2956
  792PNCE   D4B 7143   1.972   1.632   5.917  0.1509  0.1830 -0.0813
  792PNCE   C5B 7144   2.417   1.442   5.965 -0.2244 -0.1125 -0.0048
  792PNCE   C6B 7145   2.674   1.117   6.225 -0.2076  0.1012 -0.2478
  793XCA    COO 7146   8.054  14.654   4.936  0.1979  0.0394  0.0365
  793XCA     C1 7147   7.857  14.513   5.281 -0.0963 -0.0791  0.1452
  793XCA     C2 7148   7.741  14.176   5.485 -0.2684  0.0941  0.0406
  793XCA     C3 7149   8.012  13.879   5.835 -0.0029  0.0377 -0.4187
  793XCA     C4 7150   8.121  13.971   6.273 -0.4575 -0.0405 -0.3565
  793XCA     C5 7151   8.161  14.176   6.642  0.3054  0.0956  0.2408
  793XCA     C6 7152   8.369  13.971   6.966 -0.1285 -0.0875  0.1639
  794CHOL   ROH 7153   7.714  10.377   5.608 -0.0194  0.0192  0.1464
  794CHOL    R1 7154   7.619  10.231   5.831 -0.3634 -0.0975 -0.0647
  794CHOL    R2 7155   7.399  10.064   5.817 -0.2662 -0.2311 -0.5285
  794CHOL    R3 7156   7.573   9.880   5.915 -0.3266 -0.1466 -0.2668
  794CHOL    R4 7157   7.315   9.809   6.034 -0.3957 -0.1664 -0.5050
  794CHOL    R5 7158   7.501   9.845   6.141 -0.5318 -0.0803 -0.3358
  794CHOL    C1 7159   7.430   9.488   6.254 -0.5278 -0.0493 -0.2458
  794CHOL    C2 7160   7.425   9.217   6.437 -0.1208 -0.1569  0.2754
  795PNCE   AM1 7161   9.353   6.222   5.094  0.3704  0.1504  0.0956
  795PNCE   AM2 7162   9.285   6.554   5.131  0.3504 -0.0164  0.1322
  795PNCE   T1A 7163   9.082   6.164   5.512 -0.0406  0.3807  0.0019
  795PNCE   C2A 7164   9.009   6.213   5.958  0.0435  0.1864 -0.1919
  795PNCE   C3A 7165   8.765   6.009   6.222  0.3909 -0.2768 -0.5678
  795PNCE   C1B 7166   9.120   6.829   5.604  0.0614 -0.2275 -0.0899
  795PNCE   C2B 7167   9.172   6.708   5.987 -0.2548  0.1121  0.1091
  795PNCE   C3B 7168   9.243   6.485   6.418 -0.0464 -0.0825  0.0862
  795PNCE   D4B 7169   9.404   6.220   6.594 -0.2238  0.0616 -0.0377
  795PNCE   C5B 7170   9.585   6.254   7.036  0.1476  0.0882 -0.2483
  795PNCE   C6B 7171   9.877   6.642   7.218 -0.1316 -0.3289 -0.0883
  796XCA    COO 7172   5.968   9.817   9.105  0.0393  0.0151 -0.0067
  796XCA     C1 7173   5.999   9.678   8.685  0.0928  0.0299 -0.0705
  796XCA     C2 7174   5.902   9.843   8.358  0.0217  0.0386  0.0230
  796XCA     C3 7175   6.079  10.045   8.045 -0.2684  0.1299 -0.0488
  796XCA     C4 7176   6.284  10.105   7.759 -0.1481 -0.0552  0.1379
  796XCA     C5 7177   6.430  10.337   7.404 -0.0018  0.1327  0.0467
  796XCA     C6 7178   6.816  10.398   7.104 -0.2501  0.1225 -0.0044
  797XCA    COO 7179  11.948   6.970   5.787  0.1260 -0.1477  0.2383
  797XCA     C1 7180  12.060   6.992   6.197  0.2760 -0.1107 -0.1469
  797XCA     C2 7181  11.983   6.896   6.590  0.1231 -0.0551 -0.2455
  797XCA     C3 7182  11.985   6.777   6.994  0.0156  0.2433 -0.3842
  797XCA     C4 7183  11.884   6.635   7.258 -0.1937 -0.1656 -0.2830
  797XCA     C5 7184  11.730   6.458   7.635 -0.1038  0.4439 -0.3911
  797XCA     C6 7185  11.259   6.446   7.698  0.1775  0.1083  0.0015
  798PNCE   AM1 7186   9.143   9.720   5.725  0.1336 -0.3559  0.1039
  798PNCE   AM2 7187   9.271   9.399   5.678  0.1702  0.0720  0.0497
  798PNCE   T1A 7188   8.769   9.717   6.029 -0.0702  0.2523  0.1809
  798PNCE   C2A 7189   8.351   9.713   6.262  0.2253  0.3161 -0.3210
  798PNCE   C3A 7190   8.344   9.923   6.741 -0.1089 -0.3039  0.1362
  798PNCE   C1B 7191   9.025   9.143   5.997 -0.3920  0.0993  0.1590
  798PNCE   C2B 7192   8.906   8.940   6.379 -0.1843  0.0407  0.0446
  798PNCE   C3B 7193   8.705   8.930   6.800 -0.0905  0.0378  0.0440
  798PNCE   D4B 7194   8.560   9.104   7.143  0.1597  0.0907 -0.2421
  798PNCE   C5B 7195   8.443   8.950   7.537 -0.0506  0.1198  0.1640
  798PNCE   C6B 7196   8.229   8.988   7.950 -0.0625  0.0813 -0.0599
  799CHOL   ROH 7197  13.796   1.863   8.313  0.1716 -0.2458 -0.0337
  799CHOL    R1 7198  13.882   2.009   8.086 -0.0244 -0.0608  0.0081
  799CHOL    R2 7199  14.119   1.954   7.955  0.0634  0.3083 -0.0002
  799CHOL    R3 7200  13.956   1.935   7.738  0.0936  0.1361 -0.0089
  799CHOL    R4 7201  14.224   1.974   7.626  0.0698  0.3033  0.0015
  799CHOL    R5 7202  14.047   2.092   7.581 -0.0114  0.1622 -0.0417
  799CHOL    C1 7203  14.134   1.967   7.231  0.1019  0.1386 -0.0057
  799CHOL    C2 7204  14.072   1.765   6.845 -0.0445  0.0028 -0.3457
  800PNCE   AM1 7205  14.158  15.702   4.831 -0.2223  0.3966  0.0246
  800PNCE   AM2 7206  14.226  15.477   5.090  0.0409 -0.2207  0.1006
  800PNCE   T1A 7207  14.404  15.877   5.377 -0.1039  0.0496 -0.2374
  800PNCE   C2A 7208  14.707  16.033   5.698  0.3073  0.0363  0.1539
  800PNCE   C3A 7209  14.847  16.188   6.155  0.1853  0.2452 -0.1323
  800PNCE   C1B 7210  14.188  15.206   5.543  0.0221 -0.1828 -0.1813
  800PNCE   C2B 7211  14.143  14.987   6.001 -0.0906  0.3001  0.1391
  800PNCE   C3B 7212  14.414  15.063   6.318 -0.0617  0.1307 -0.0619
  800PNCE   D4B 7213  14.313  15.210   6.744  0.2586 -0.2242 -0.1063
  800PNCE   C5B 7214  14.532  15.617   6.839 -0.0090 -0.2428 -0.1347
  800PNCE   C6B 7215  14.990  15.791   6.904  0.0233  0.0155  0.1814
  801CHOL   ROH 7216   0.139  14.979   5.284  0.1410  0.0260 -0.0210
  801CHOL    R1 7217   0.237  15.093   5.524 -0.0491  0.0475  0.0482
  801CHOL    R2 7218   0.083  15.258   5.684 -0.2037 -0.0022 -0.0452
  801CHOL    R3 7219   0.151  15.079   5.877 -0.2774  0.0106 -0.0076
  801CHOL    R4 7220   0.067  15.319   6.024 -0.1101  0.0995 -0.0585
  801CHOL    R5 7221   0.255  15.211   6.047 -0.1702 -0.0057 -0.0613
  801CHOL    C1 7222   0.121  15.186   6.403 -0.1249  0.1707 -0.0310
  801CHOL    C2 7223   0.075  15.285   6.757  0.0537  0.0276  0.0815
  802CHOL   ROH 7224   8.558  14.318   6.645 -0.0901  0.0179 -0.0401
  802CHOL    R1 7225   8.756  14.301   6.847 -0.1313  0.0728  0.0070
  802CHOL    R2 7226   9.021  14.246   6.790 -0.1421 -0.0996  0.0903
  802CHOL    R3 7227   9.064  14.476   6.930 -0.0613 -0.0118 -0.0779
  802CHOL    R4 7228   9.325  14.342   6.923 -0.1605 -0.2151  0.2158
  802CHOL    R5 7229   9.220  14.413   7.101 -0.2268  0.0180  0.0821
  802CHOL    C1 7230   9.543  14.613   7.132 -0.0954 -0.1999  0.1309
  802CHOL    C2 7231   9.854  14.579   7.404 -0.1165 -0.1509  0.1854
  803PNCE   AM1 7232   6.627   5.373   3.693  0.0110  0.2272  0.0284
  803PNCE   AM2 7233   6.453   5.647   3.464  0.1899  0.0516 -0.0665
  803PNCE   T1A 7234   6.848   5.535   3.931 -0.0614 -0.4110  0.2016
  803PNCE   C2A 7235   7.149   5.477   4.183 -0.0741 -0.1158  0.0050
  803PNCE   C3A 7236   7.279   5.387   4.570  0.1872  0.2469  0.0854
  803PNCE   C1B 7237   6.390   5.853   3.875 -0.2714  0.2195 -0.0379
  803PNCE   C2B 7238   6.088   5.793   4.186  0.0573 -0.3052  0.3588
  803PNCE   C3B 7239   5.979   5.849   4.636  0.3337  0.1393  0.0876
  803PNCE   D4B 7240   5.622   5.883   4.897 -0.0093 -0.0644  0.1763
  803PNCE   C5B 7241   5.461   5.912   5.283 -0.2457  0.1999  0.1871
  803PNCE   C6B 7242   5.308   5.851   5.733 -0.0234 -0.6322 -0.0586
  804PNCE   AM1 7243   9.823  13.484   5.231  0.0510 -0.1257  0.1046
  804PNCE   AM2 7244   9.653  13.267   5.272 -0.4980  0.1389 -0.1038
  804PNCE   T1A 7245  10.083  13.646   5.559  0.1515  0.2252 -0.2112
  804PNCE   C2A 7246  10.049  13.859   5.913 -0.0414 -0.5477 -0.0120
  804PNCE   C3A 7247  10.330  14.150   6.145  0.2893 -0.0880  0.0294
  804PNCE   C1B 7248   9.786  13.261   5.690 -0.0368  0.4106  0.1856
  804PNCE   C2B 7249   9.531  13.470   5.980  0.0277 -0.1664  0.0019
  804PNCE   C3B 7250   9.723  13.804   6.287  0.1776  0.1855  0.0117
  804PNCE   D4B 7251   9.988  13.923   6.575  0.1169 -0.0848  0.0393
  804PNCE   C5B 7252  10.340  14.176   6.681 -0.0649  0.0272  0.2228
  804PNCE   C6B 7253  10.549  14.596   6.868 -0.0582 -0.2143  0.1932
  805XCA    COO 7254  13.991  10.727   9.280 -0.0061  0.2049 -0.0395
  805XCA     C1 7255  13.894  10.607   8.876 -0.4416 -0.1356  0.0838
  805XCA     C2 7256  13.885  10.599   8.496  0.0793 -0.0956  0.1409
  805XCA     C3 7257  13.988  10.591   8.076 -0.2896  0.1762 -0.2973
  805XCA     C4 7258  13.987  10.630   7.747 -0.0870  0.2886 -0.3532
  805XCA     C5 7259  13.798  10.796   7.408 -0.0509 -0.0034  0.1088
  805XCA     C6 7260  13.580  11.034   7.159 -0.1741 -0.0255  0.1784
  806PNCE   AM1 7261  12.430  11.907   5.280  0.0107  0.4305 -0.2761
  806PNCE   AM2 7262  12.559  11.552   5.286  0.0032 -0.0691 -0.0652
  806PNCE   T1A 7263  12.385  12.165   5.603 -0.2114  0.0249 -0.2266
  806PNCE   C2A 7264  12.109  12.503   5.922 -0.2829 -0.2040 -0.1436
  806PNCE   C3A 7265  11.860  12.547   6.225  0.0360  0.1661  0.2421
  806PNCE   C1B 7266  12.656  11.717   5.719 -0.1319 -0.1641 -0.1319
  806PNCE   C2B 7267  12.923  11.637   6.089  0.1820  0.0712 -0.0349
  806PNCE   C3B 7268  13.132  11.709   6.555 -0.0573  0.0229  0.2538
  806PNCE   D4B 7269  13.473  11.557   6.872  0.1915 -0.2093 -0.0988
  806PNCE   C5B 7270  13.836  11.645   7.170  0.0183  0.3753 -0.1758
  806PNCE   C6B 7271  14.204  11.693   7.476 -0.2449 -0.0100  0.4222
  807PNCE   AM1 7272  11.329   2.909   4.398 -0.1330 -0.0159  0.2371
  807PNCE   AM2 7273  11.580   2.686   4.533  0.1007 -0.1556  0.2431
  807PNCE   T1A 7274  11.099   2.929   4.780 -0.0530 -0.0404  0.2675
  807PNCE   C2A 7275  11.124   2.969   5.274 -0.0702  0.0908  0.1632
  807PNCE   C3A 7276  11.426   3.189   5.660 -0.1860  0.0179 -0.1612
  807PNCE   C1B 7277  11.505   2.429   4.956 -0.2867  0.1495 -0.2446
  807PNCE   C2B 7278  11.404   2.558   5.400  0.1825 -0.0430 -0.3101
  807PNCE   C3B 7279  11.252   2.734   5.757 -0.1128 -0.1888  0.0313
  807PNCE   D4B 7280  11.347   2.981   6.072  0.2133  0.2372 -0.2389
  807PNCE   C5B 7281  11.828   3.117   5.998  0.0886 -0.2820 -0.1770
  807PNCE   C6B 7282  12.305   3.227   5.950 -0.1189 -0.0617  0.2905
  808PNCE   AM1 7283   8.833  12.733   5.069 -0.1835  0.1426 -0.0360
  808PNCE   AM2 7284   8.834  12.858   5.388  0.0854 -0.0451 -0.0756
  808PNCE   T1A 7285   9.238  12.628   5.248 -0.1338 -0.0933 -0.2757
  808PNCE   C2A 7286   9.461  12.460   5.645 -0.2434 -0.1188 -0.2815
  808PNCE   C3A 7287   9.608  12.375   6.051  0.1451  0.1180 -0.0680
  808PNCE   C1B 7288   8.552  13.086   5.668 -0.2344 -0.1638 -0.1036
  808PNCE   C2B 7289   8.310  13.082   6.104  0.0519  0.0302 -0.0505
  808PNCE   C3B 7290   7.934  12.938   6.094  0.2015  0.0507 -0.2090
  808PNCE   D4B 7291   7.603  13.120   6.279  0.1483  0.1439  0.1967
  808PNCE   C5B 7292   7.496  12.861   6.524 -0.0098  0.0647 -0.1742
  808PNCE   C6B 7293   7.156  12.670   6.714 -0.4304 -0.0369  0.0743
  809CHOL   ROH 7294   3.051  12.339   6.521  0.1155 -0.0386 -0.1439
  809CHOL    R1 7295   3.220  12.522   6.657 -0.0974  0.1470 -0.1192
  809CHOL    R2 7296   3.496  12.498   6.656 -0.0830  0.0998  0.4025
  809CHOL    R3 7297   3.485  12.754   6.566  0.0958 -0.0341 -0.0210
  809CHOL    R4 7298   3.705  12.752   6.761 -0.2938  0.2637  0.4283
  809CHOL    R5 7299   3.533  12.887   6.759 -0.2944  0.2702 -0.1263
  809CHOL    C1 7300   3.817  13.141   6.737 -0.2485  0.2333  0.0458
  809CHOL    C2 7301   4.254  13.368   6.657 -0.3471 -0.2469 -0.1900
  810PNCE   AM1 7302  15.241   9.407   4.735  0.3336 -0.1833  0.2550
  810PNCE   AM2 7303  15.368   9.084   4.794 -0.0268  0.0140  0.2557
  810PNCE   T1A 7304  15.283   9.324   5.210  0.0314  0.4590 -0.1880
  810PNCE   C2A 7305  15.574   9.156   5.509  0.1142 -0.3661 -0.1664
  810PNCE   C3A 7306  15.750   9.038   5.909 -0.0715 -0.1684 -0.0434
  810PNCE   C1B 7307  15.749   9.108   4.993 -0.0216 -0.3099  0.0198
  810PNCE   C2B 7308  15.938   9.453   5.282  0.2076  0.0404 -0.1121
  810PNCE   C3B 7309  15.955   9.476   5.730  0.0132 -0.1264  0.0564
  810PNCE   D4B 7310  16.024   9.499   6.240 -0.1924  0.1217  0.0833
  810PNCE   C5B 7311  15.906   9.580   6.600 -0.1759 -0.2962  0.0394
  810PNCE   C6B 7312  16.056   9.778   6.942 -0.0106 -0.0953 -0.0021
  811PNCE   AM1 7313   1.549  10.408   4.311  0.1784  0.3072 -0.1941
  811PNCE   AM2 7314   1.645  10.723   4.156 -0.0917  0.2133  0.0291
  811PNCE   T1A 7315   1.407  10.322   4.769 -0.1983  0.1442 -0.2366
  811PNCE   C2A 7316   1.276  10.261   5.200 -0.0475 -0.0000 -0.1346
  811PNCE   C3A 7317   0.964  10.466   5.573 -0.0077 -0.0734 -0.1752
  811PNCE   C1B 7318   1.609  10.861   4.620  0.0513  0.1648 -0.0417
  811PNCE   C2B 7319   1.658  10.846   5.082  0.0136 -0.3307 -0.0550
  811PNCE   C3B 7320   1.628  10.916   5.528 -0.0149 -0.3378  0.2283
  811PNCE   D4B 7321   1.574  11.171   5.907 -0.0451 -0.1314  0.2008
  811PNCE   C5B 7322   1.255  11.268   6.169  0.1148  0.0701 -0.0869
  811PNCE   C6B 7323   0.890  11.453   6.228  0.2063 -0.2851  0.3639
  812CHOL   ROH 7324  15.726   5.933   7.723  0.1969 -0.0031  0.0320
  812CHOL    R1 7325  15.981   5.959   7.601  0.1523  0.0212 -0.0575
  812CHOL    R2 7326  16.018   5.935   7.329  0.0716 -0.0556 -0.0626
  812CHOL    R3 7327  16.135   6.179   7.355  0.0202 -0.0183 -0.1768
  812CHOL    R4 7328  16.272   6.056   7.127 -0.0177 -0.0594 -0.1780
  812CHOL    R5 7329  16.366   6.141   7.305  0.0148  0.0216 -0.2331
  812CHOL    C1 7330  16.529   6.355   7.035 -0.1179 -0.0265 -0.3524
  812CHOL    C2 7331  16.726   6.603   7.069 -0.2103 -0.1967  0.3332
  813PNCE   AM1 7332   8.049  12.905   5.625  0.0721 -0.1439 -0.0493
  813PNCE   AM2 7333   7.828  12.954   5.338 -0.2293 -0.0742 -0.0152
  813PNCE   T1A 7334   7.793  12.488   5.825 -0.0376  0.2112 -0.2188
  813PNCE   C2A 7335   7.676  12.379   6.255 -0.0471 -0.0711 -0.1531
  813PNCE   C3A 7336   7.703  12.071   6.491  0.3642  0.0268 -0.0365
  813PNCE   C1B 7337   7.590  12.888   5.616 -0.0387  0.1298 -0.1619
  813PNCE   C2B 7338   7.401  12.738   6.028 -0.0812  0.3270 -0.1274
  813PNCE   C3B 7339   7.014  12.920   6.293  0.1961  0.1737  0.0392
  813PNCE   D4B 7340   6.705  13.035   6.347  0.2007  0.1178 -0.0982
  813PNCE   C5B 7341   6.808  13.456   6.322 -0.1032  0.0627  0.2131
  813PNCE   C6B 7342   6.616  13.729   6.046 -0.1671 -0.0403 -0.1666
  814CHOL   ROH 7343  14.442   7.715   5.178  0.0106  0.0904  0.0027
  814CHOL    R1 7344  14.397   7.796   5.445 -0.1033  0.0793 -0.0129
  814CHOL    R2 7345  14.174   7.720   5.588 -0.0217 -0.1674 -0.0141
  814CHOL    R3 7346  14.358   7.633   5.769  0.0731  0.0822  0.0109
  814CHOL    R4 7347  14.113   7.674   5.925 -0.1052 -0.5450 -0.0754
  814CHOL    R5 7348  14.310   7.759   5.967 -0.2950 -0.1586  0.0843
  814CHOL    C1 7349  14.250   7.567   6.291 -0.0647 -0.5305 -0.0877
  814CHOL    C2 7350  14.319   7.699   6.650 -0.1800  0.1558 -0.0164
  815XCA    COO 7351   0.989   2.209   4.818 -0.1238 -0.4396 -0.0439
  815XCA     C1 7352   1.300   2.042   5.118 -0.0192 -0.2707  0.1730
  815XCA     C2 7353   1.182   1.907   5.472  0.0004 -0.1551 -0.3968
  815XCA     C3 7354   1.034   2.128   5.779  0.4622  0.2113 -0.4893
  815XCA     C4 7355   0.566   2.178   5.969  0.4000  0.1272 -0.0248
  815XCA     C5 7356   0.310   2.502   6.093  0.1075 -0.2148  0.2765
  815XCA     C6 7357   0.147   2.785   6.413  0.1960 -0.0895  0.0921
  816PNCE   AM1 7358  14.231   6.514   5.693  0.3987  0.1214  0.1062
  816PNCE   AM2 7359  14.256   6.152   5.715  0.0856  0.1514 -0.0116
  816PNCE   T1A 7360  14.197   6.586   6.118  0.0521  0.2591 -0.4048
  816PNCE   C2A 7361  14.219   6.636   6.581 -0.1477 -0.4363 -0.0771
  816PNCE   C3A 7362  14.410   6.345   6.984 -0.0529 -0.0298  0.1257
  816PNCE   C1B 7363  14.380   6.108   6.083  0.0810  0.1733 -0.1572
  816PNCE   C2B 7364  14.561   6.262   6.485 -0.2154  0.1286  0.1096
  816PNCE   C3B 7365  14.884   6.327   6.806 -0.1297  0.0351  0.1393
  816PNCE   D4B 7366  15.186   6.668   6.874  0.1777  0.1474  0.1563
  816PNCE   C5B 7367  15.235   7.010   6.617  0.0775 -0.0118  0.1852
  816PNCE   C6B 7368  15.301   6.845   6.154  0.1779  0.0001  0.2672
  817PNCE   AM1 7369   6.065   6.742   4.013 -0.2060  0.1246 -0.0379
  817PNCE   AM2 7370   6.033   6.403   4.030 -0.0109 -0.1864  0.0935
  817PNCE   T1A 7371   6.286   6.663   4.399 -0.1330  0.2781  0.0158
  817PNCE   C2A 7372   6.434   6.500   4.888  0.0032  0.2496  0.0135
  817PNCE   C3A 7373   6.389   6.379   5.238  0.4468 -0.0623 -0.3677
  817PNCE   C1B 7374   6.283   6.193   4.427  0.0224  0.0633 -0.3775
  817PNCE   C2B 7375   6.420   5.935   4.759 -0.1569 -0.0949  0.1458
  817PNCE   C3B 7376   6.357   5.769   5.163  0.1579  0.2304  0.0168
  817PNCE   D4B 7377   6.144   5.766   5.536 -0.1063  0.1151 -0.0638
  817PNCE   C5B 7378   6.234   5.452   5.895  0.3284  0.0140 -0.0364
  817PNCE   C6B 7379   6.031   5.218   6.228  0.6070  0.2065  0.2892
  818CHOL   ROH 7380   2.455   1.978   7.515 -0.0612  0.0610  0.1672
  818CHOL    R1 7381   2.407   1.844   7.271  0.1311  0.0739  0.1213
  818CHOL    R2 7382   2.207   1.656   7.241  0.3538 -0.1501  0.0374
  818CHOL    R3 7383   2.131   1.816   7.035  0.1973 -0.1796  0.0698
  818CHOL    R4 7384   2.004   1.558   6.979  0.2558 -0.2283  0.1404
  818CHOL    R5 7385   2.132   1.672   6.844  0.1526 -0.1868  0.0723
  818CHOL    C1 7386   1.815   1.651   6.633  0.0519 -0.3017  0.2308
  818CHOL    C2 7387   1.650   1.749   6.263 -0.0841  0.1409 -0.2173
  819CHOL   ROH 7388  14.297  13.641   8.051  0.1045  0.3229  0.0892
  819CHOL    R1 7389  14.374  13.603   7.782  0.1610  0.1518  0.1285
  819CHOL    R2 7390  14.290  13.769   7.577  0.0766 -0.0677 -0.0198
  819CHOL    R3 7391  14.556  13.792   7.529  0.0687  0.0654 -0.0038
  819CHOL    R4 7392  14.428  13.909   7.294  0.0284  0.0703  0.0241
  819CHOL    R5 7393  14.578  13.751   7.294  0.0985  0.1385 -0.0128
  819CHOL    C1 7394  14.758  14.013   7.083 -0.0071  0.2756  0.0646
  819CHOL    C2 7395  15.026  14.051   6.789 -0.0968  0.0543 -0.1123
  820CHOL   ROH 7396   5.681   6.628   4.263 -0.2730 -0.0917 -0.0712
  820CHOL    R1 7397   5.849   6.514   4.460 -0.1764 -0.1780 -0.2010
  820CHOL    R2 7398   5.868   6.616   4.717  0.2150 -0.0728 -0.2644
  820CHOL    R3 7399   5.806   6.361   4.788  0.0147  0.0250 -0.0791
  820CHOL    R4 7400   6.003   6.448   4.987  0.0655  0.0217 -0.1295
  820CHOL    R5 7401   6.013   6.268   4.864 -0.0621 -0.0784  0.0041
  820CHOL    C1 7402   6.023   6.110   5.211 -0.2097  0.1687  0.1230
  820CHOL    C2 7403   5.939   6.192   5.579 -0.0469 -0.1071 -0.3127
  821CHOL   ROH 7404   7.120   9.730   9.266 -0.0443 -0.0959  0.0258
  821CHOL    R1 7405   7.196   9.774   8.996 -0.0524 -0.1366  0.0175
  821CHOL    R2 7406   7.460   9.793   8.917 -0.0605  0.1600  0.0586
  821CHOL    R3 7407   7.388   9.596   8.744  0.2216 -0.0237  0.1410
  821CHOL    R4 7408   7.667   9.656   8.676  0.1428  0.3607  0.1153
  821CHOL    R5 7409   7.498   9.655   8.539  0.1366  0.0554  0.1148
  821CHOL    C1 7410   7.720   9.392   8.373  0.5259  0.3052  0.2257
  821CHOL    C2 7411   8.014   9.056   8.384  0.3207  0.1866  0.0019
  822CHOL   ROH 7412  10.525   8.624   7.836 -0.0328  0.0056  0.0967
  822CHOL    R1 7413  10.660   8.441   7.668  0.1269  0.1436  0.0715
  822CHOL    R2 7414  10.920   8.360   7.714  0.0801  0.1000  0.2594
  822CHOL    R3 7415  10.810   8.111   7.703  0.0824  0.1085 -0.0585
  822CHOL    R4 7416  11.099   8.065   7.690  0.1030  0.1135  0.2612
  822CHOL    R5 7417  10.950   7.991   7.550  0.2685  0.2189  0.0197
  822CHOL    C1 7418  11.101   7.661   7.667  0.1185  0.1293 -0.0362
  822CHOL    C2 7419  11.415   7.360   7.660 -0.0475  0.1887  0.0051
  823PNCE   AM1 7420   3.295   8.065   4.769  0.0048  0.3609  0.0044
  823PNCE   AM2 7421   3.249   8.412   4.678  0.2268 -0.0375  0.0567
  823PNCE   T1A 7422   3.324   7.825   5.180 -0.3602 -0.1431 -0.1929
  823PNCE   C2A 7423   3.223   7.656   5.708 -0.3119 -0.0248  0.0509
  823PNCE   C3A 7424   3.135   7.205   5.611 -0.0161 -0.2820  0.2160
  823PNCE   C1B 7425   3.396   8.511   5.151  0.2593  0.0295  0.0036
  823PNCE   C2B 7426   3.354   8.171   5.499 -0.1051 -0.1823 -0.1553
  823PNCE   C3B 7427   3.453   8.015   5.946 -0.3055  0.1610 -0.1254
  823PNCE   D4B 7428   3.862   7.690   5.888 -0.2402  0.0014  0.0831
  823PNCE   C5B 7429   3.811   7.332   5.690 -0.1450 -0.0425  0.2503
  823PNCE   C6B 7430   3.969   6.938   5.876  0.0053 -0.0198 -0.0566
  824PNCE   AM1 7431   0.278   0.424   5.044  0.1503 -0.0426 -0.2105
  824PNCE   AM2 7432  -0.100   0.538   4.966  0.0048 -0.1471  0.1149
  824PNCE   T1A 7433   0.279   0.404   5.463  0.0153 -0.1649 -0.0201
  824PNCE   C2A 7434   0.422   0.169   5.741 -0.1045 -0.1742 -0.0327
  824PNCE   C3A 7435   0.585  -0.096   6.107  0.4214  0.2817 -0.3793
  824PNCE   C1B 7436  -0.226   0.510   5.332 -0.1112 -0.1268 -0.3081
  824PNCE   C2B 7437  -0.469   0.131   5.574  0.0474 -0.2740 -0.0684
  824PNCE   C3B 7438  -0.702  -0.045   5.875  0.0182 -0.2274  0.2628
  824PNCE   D4B 7439  -1.080  -0.055   6.122  0.1255 -0.1011  0.0765
  824PNCE   C5B 7440  -1.365   0.297   6.177  0.4849 -0.0431  0.2435
  824PNCE   C6B 7441  -1.417   0.716   6.255  0.0794  0.3815  0.0622
  825XCA    COO 7442   1.283  14.464   8.752  0.1592 -0.0079 -0.0161
  825XCA     C1 7443   1.392  14.155   8.457 -0.0041  0.1180  0.0465
  825XCA     C2 7444   1.492  13.964   8.058 -0.0519 -0.2236 -0.0959
  825XCA     C3 7445   1.657  13.716   7.717 -0.1352 -0.0819  0.0780
  825XCA     C4 7446   1.867  13.525   7.359  0.1643  0.0521  0.0884
  825XCA     C5 7447   2.117  13.586   7.088 -0.2410  0.0439 -0.1697
  825XCA     C6 7448   2.382  13.635   6.709  0.0378 -0.0466  0.0135
  826XCA    COO 7449  14.778  14.531   4.796  0.1424 -0.1487 -0.1868
  826XCA     C1 7450  15.030  14.679   5.181  0.0661  0.2262  0.0932
  826XCA     C2 7451  14.999  14.845   5.551  0.2142 -0.0075  0.1202
  826XCA     C3 7452  15.087  14.655   5.903 -0.2894  0.2338  0.2332
  826XCA     C4 7453  15.105  14.603   6.325 -0.3908 -0.1320  0.1878
  826XCA     C5 7454  14.767  14.718   6.565  0.3233 -0.2126 -0.1570
  826XCA     C6 7455  14.608  14.773   6.887 -0.1688 -0.1861  0.2305
  827XCA    COO 7456   1.952   5.071   4.588 -0.2681  0.0956 -0.0255
  827XCA     C1 7457   1.742   5.222   4.968  0.0779 -0.1197  0.1735
  827XCA     C2 7458   1.568   5.039   5.344 -0.1648 -0.0442  0.0549
  827XCA     C3 7459   1.646   4.922   5.785  0.1683  0.0330 -0.0401
  827XCA     C4 7460   1.771   4.627   6.108  0.0107 -0.0488 -0.0508
  827XCA     C5 7461   1.690   4.185   6.239 -0.4736  0.0222 -0.0282
  827XCA     C6 7462   2.065   3.815   6.336  0.0859 -0.3367  0.0738
  828PNCE   AM1 7463  11.501   4.960   5.669  0.3385 -0.3187  0.2477
  828PNCE   AM2 7464  11.763   4.854   5.468  0.2470  0.3183 -0.0131
  828PNCE   T1A 7465  11.687   4.755   6.030  0.1941 -0.0540  0.1802
  828PNCE   C2A 7466  11.927   4.720   6.544 -0.0439 -0.3738 -0.0720
  828PNCE   C3A 7467  11.756   4.972   6.948  0.0978 -0.2625 -0.0511
  828PNCE   C1B 7468  11.813   4.459   5.546 -0.0046  0.0333  0.0244
  828PNCE   C2B 7469  11.444   4.151   5.471  0.0297 -0.2219 -0.0994
  828PNCE   C3B 7470  11.248   3.989   5.769  0.2001  0.2183  0.3730
  828PNCE   D4B 7471  10.963   4.053   5.902 -0.2250  0.3033  0.1343
  828PNCE   C5B 7472  10.836   4.315   6.261 -0.1136  0.0360  0.2360
  828PNCE   C6B 7473  10.732   4.178   6.676 -0.2908  0.0017  0.2096
  829PNCE   AM1 7474   5.143   7.131   4.206  0.0833 -0.1169 -0.0640
  829PNCE   AM2 7475   5.088   6.828   4.119 -0.0780  0.1015 -0.4965
  829PNCE   T1A 7476   5.403   6.873   4.580 -0.0088  0.2171  0.0373
  829PNCE   C2A 7477   5.393   6.521   4.846 -0.2198 -0.0786  0.1525
  829PNCE   C3A 7478   5.512   6.406   5.287 -0.3024 -0.1226  0.1843
  829PNCE   C1B 7479   4.983   6.557   4.579  0.1528  0.0567  0.1123
  829PNCE   C2B 7480   4.694   6.211   4.656  0.2705 -0.0824  0.4427
  829PNCE   C3B 7481   4.587   5.951   4.955  0.0077 -0.0470 -0.1207
  829PNCE   D4B 7482   4.462   5.593   5.199  0.0503 -0.0937 -0.0410
  829PNCE   C5B 7483   4.094   5.308   5.008  0.1069 -0.1917  0.1771
  829PNCE   C6B 7484   3.926   4.897   5.105  0.1147  0.0279 -0.0395
  830PNCE   AM1 7485   3.664  10.852   4.965  0.0776  0.0651 -0.2311
  830PNCE   AM2 7486   3.360  10.679   5.133 -0.2550  0.1265 -0.3133
  830PNCE   T1A 7487   3.933  10.990   5.245  0.1123 -0.1138 -0.0560
  830PNCE   C2A 7488   4.172  11.115   5.675  0.1322 -0.3793 -0.2825
  830PNCE   C3A 7489   4.248  11.149   5.998 -0.0683  0.2144 -0.4102
  830PNCE   C1B 7490   3.106  10.707   5.603 -0.1446 -0.1823 -0.0325
  830PNCE   C2B 7491   3.251  10.780   6.021  0.0226  0.0363  0.0369
  830PNCE   C3B 7492   3.560  10.789   6.338 -0.1843  0.0723  0.3158
  830PNCE   D4B 7493   3.523  10.472   6.660  0.0917 -0.1632  0.0077
  830PNCE   C5B 7494   3.847  10.316   6.892 -0.0861  0.0041 -0.0201
  830PNCE   C6B 7495   3.961  10.013   7.190  0.0177 -0.0929  0.2557
  831PNCE   AM1 7496  10.026   5.757   4.903  0.2209 -0.0457 -0.3100
  831PNCE   AM2 7497   9.882   6.076   5.034  0.0038  0.2998  0.1635
  831PNCE   T1A 7498   9.523   5.765   4.896  0.4164 -0.2130 -0.0869
  831PNCE   C2A 7499   9.044   5.769   5.053 -0.0523  0.2162 -0.0386
  831PNCE   C3A 7500   8.660   5.712   5.257 -0.1518 -0.1422 -0.3041
  831PNCE   C1B 7501   9.963   6.187   5.444 -0.0896 -0.1634 -0.1746
  831PNCE   C2B 7502   9.967   5.892   5.868 -0.0810  0.0078  0.1970
  831PNCE   C3B 7503   9.980   5.775   6.304 -0.2798  0.0132 -0.2544
  831PNCE   D4B 7504   9.963   5.476   6.626 -0.1633  0.4312  0.2880
  831PNCE   C5B 7505   9.639   5.162   6.885 -0.1217  0.2483  0.2013
  831PNCE   C6B 7506   9.470   4.911   7.195  0.0250 -0.0245  0.0375
  832XCA    COO 7507  13.773   6.361   5.561  0.0519  0.3614  0.1974
  832XCA     C1 7508  13.774   6.418   5.999  0.3750 -0.0058  0.0292
  832XCA     C2 7509  13.906   6.294   6.373 -0.1919  0.1627 -0.1262
  832XCA     C3 7510  14.066   6.190   6.700 -0.0529  0.1612  0.1732
  832XCA     C4 7511  14.038   6.045   7.083 -0.0554  0.1698 -0.0502
  832XCA     C5 7512  13.812   5.878   7.465 -0.1614  0.0318 -0.2160
  832XCA     C6 7513  13.675   5.532   7.676  0.2078 -0.3051 -0.2503
  833PNCE   AM1 7514  13.017  10.492   5.345  0.0640  0.0226 -0.2095
  833PNCE   AM2 7515  13.009  10.691   5.637  0.1885  0.1375  0.0237
  833PNCE   T1A 7516  13.420  10.534   5.482  0.0309 -0.2126  0.0623
  833PNCE   C2A 7517  13.823  10.413   5.660  0.2062 -0.1641 -0.3934
  833PNCE   C3A 7518  13.817  10.459   6.174  0.2317  0.2028  0.1113
  833PNCE   C1B 7519  13.021  10.876   6.012 -0.0219  0.2164  0.0363
  833PNCE   C2B 7520  13.176  11.237   6.225 -0.0003 -0.0847 -0.0292
  833PNCE   C3B 7521  13.550  11.405   6.349 -0.1119  0.0265  0.1772
  833PNCE   D4B 7522  13.842  11.695   6.147 -0.0059 -0.0114  0.1258
  833PNCE   C5B 7523  13.826  12.027   6.040 -0.4307  0.1601 -0.4249
  833PNCE   C6B 7524  13.498  12.370   6.289 -0.0773  0.0512  0.0370
  834PNCE   AM1 7525   2.472   1.147   4.557  0.1319 -0.1755  0.1947
  834PNCE   AM2 7526   2.724   1.393   4.539 -0.2782 -0.1692 -0.1574
  834PNCE   T1A 7527   2.354   1.557   4.826  0.0639 -0.2432 -0.1616
  834PNCE   C2A 7528   2.418   1.759   5.136  0.1200 -0.2025  0.2172
  834PNCE   C3A 7529   2.560   1.662   5.502 -0.0264  0.1909 -0.0383
  834PNCE   C1B 7530   2.682   1.243   5.018 -0.2705 -0.2242  0.3433
  834PNCE   C2B 7531   2.794   1.184   5.446 -0.1705  0.3970 -0.2464
  834PNCE   C3B 7532   2.869   1.368   5.819  0.0856 -0.0145  0.1913
  834PNCE   D4B 7533   3.124   1.486   6.179 -0.1757  0.1133  0.0395
  834PNCE   C5B 7534   2.936   1.508   6.623  0.1331  0.1993  0.2817
  834PNCE   C6B 7535   3.095   1.425   7.050  0.0736  0.1038 -0.4774
  835CHOL   ROH 7536  13.235   5.271   5.465  0.0058  0.0862  0.1971
  835CHOL    R1 7537  13.292   5.113   5.692  0.1370 -0.0092  0.0993
  835CHOL    R2 7538  13.549   5.074   5.786  0.1628  0.2263  0.1282
  835CHOL    R3 7539  13.443   5.165   6.019  0.0003 -0.0600  0.1720
  835CHOL    R4 7540  13.650   4.974   6.101  0.1104  0.0174  0.0807
  835CHOL    R5 7541  13.441   4.974   6.162  0.0840 -0.1937 -0.0005
  835CHOL    C1 7542  13.609   5.002   6.504 -0.0727 -0.3731  0.0941
  835CHOL    C2 7543  13.722   4.751   6.552  0.0825  0.0515 -0.2233
  836CHOL   ROH 7544   6.341   6.389   5.810 -0.0917  0.0822  0.1012
  836CHOL    R1 7545   6.558   6.208   5.800 -0.0415  0.1443  0.0313
  836CHOL    R2 7546   6.742   6.208   5.595 -0.0607  0.2474  0.0084
  836CHOL    R3 7547   6.921   6.230   5.798 -0.0487  0.2485 -0.0033
  836CHOL    R4 7548   7.072   6.106   5.579 -0.1212  0.0383  0.0710
  836CHOL    R5 7549   7.053   6.031   5.783 -0.1692  0.1617  0.1089
  836CHOL    C1 7550   7.432   6.068   5.761 -0.1451 -0.0826  0.0964
  836CHOL    C2 7551   7.619   5.781   5.837 -0.1797  0.0925  0.1900
  837PNCE   AM1 7552  12.563   6.162   5.344  0.2020 -0.4739  0.3637
  837PNCE   AM2 7553  12.222   6.107   5.335  0.3064 -0.1843 -0.4494
  837PNCE   T1A 7554  12.465   6.222   5.791  0.1794  0.1483 -0.1353
  837PNCE   C2A 7555  12.358   6.073   6.250 -0.3013 -0.2306  0.1525
  837PNCE   C3A 7556  12.112   5.898   6.635  0.2804 -0.1133  0.0733
  837PNCE   C1B 7557  12.116   5.828   5.670  0.0589  0.0415  0.2248
  837PNCE   C2B 7558  12.081   5.671   6.057 -0.1554 -0.1499 -0.0887
  837PNCE   C3B 7559  12.412   5.571   6.343  0.1686 -0.0052 -0.1284
  837PNCE   D4B 7560  12.636   5.346   6.666 -0.2013  0.3812  0.0255
  837PNCE   C5B 7561  12.627   5.073   6.880 -0.1954  0.2193 -0.0235
  837PNCE   C6B 7562  12.373   4.629   6.783  0.0596  0.1234 -0.2071
  838PNCE   AM1 7563   0.834   7.297   4.360 -0.0125 -0.0292 -0.1298
  838PNCE   AM2 7564   0.787   7.691   4.456  0.0632  0.2348 -0.1510
  838PNCE   T1A 7565   0.791   7.181   4.784  0.1352  0.3529 -0.1027
  838PNCE   C2A 7566   0.750   7.079   5.185  0.1384  0.0450 -0.0239
  838PNCE   C3A 7567   0.741   7.000   5.637 -0.1109  0.1287 -0.0906
  838PNCE   C1B 7568   0.441   7.614   4.888 -0.1822  0.1645  0.0909
  838PNCE   C2B 7569   0.358   7.412   5.310 -0.1449  0.0409  0.3221
  838PNCE   C3B 7570   0.285   7.219   5.680  0.1066  0.1703 -0.0385
  838PNCE   D4B 7571   0.510   7.211   6.033 -0.1724 -0.5304  0.2862
  838PNCE   C5B 7572   0.283   7.405   6.396  0.2211 -0.0488  0.1750
  838PNCE   C6B 7573   0.372   7.373   6.739  0.0918  0.1270  0.0425
  839PNCE   AM1 7574   5.866  15.091   8.544  0.2537 -0.0389  0.0158
  839PNCE   AM2 7575   5.895  15.443   8.466 -0.0330  0.2981 -0.0107
  839PNCE   T1A 7576   5.805  14.912   8.297  0.4520  0.1031 -0.1421
  839PNCE   C2A 7577   6.025  14.595   7.990 -0.3423  0.1058 -0.2525
  839PNCE   C3A 7578   6.081  14.510   7.594  0.1536  0.1453  0.2348
  839PNCE   C1B 7579   6.116  15.205   8.099  0.0866 -0.1768  0.0101
  839PNCE   C2B 7580   6.449  15.216   7.772  0.0547  0.0006 -0.2049
  839PNCE   C3B 7581   6.652  15.430   7.444  0.1777 -0.2777  0.0069
  839PNCE   D4B 7582   6.873  15.479   7.092 -0.1468 -0.0344  0.3024
  839PNCE   C5B 7583   7.189  15.188   6.808  0.1833 -0.1176 -0.1284
  839PNCE   C6B 7584   7.020  14.971   6.423  0.1884 -0.1197 -0.1017
  840XCA    COO 7585  11.722   4.805   8.911  0.2997  0.0727 -0.3471
  840XCA     C1 7586  12.051   4.844   8.606  0.1817 -0.3156  0.2434
  840XCA     C2 7587  12.293   4.916   8.193  0.0628 -0.4057 -0.0797
  840XCA     C3 7588  12.806   4.917   8.076  0.1514  0.2056  0.2324
  840XCA     C4 7589  13.043   5.215   7.865  0.0357 -0.3052 -0.0315
  840XCA     C5 7590  13.132   5.604   7.547  0.1640 -0.1572 -0.3961
  840XCA     C6 7591  13.391   5.662   7.225  0.0860 -0.0879 -0.0605
  841CHOL   ROH 7592  10.368  11.883   6.237  0.0235 -0.1235  0.2049
  841CHOL    R1 7593  10.397  11.957   6.509  0.0576 -0.0339  0.1768
  841CHOL    R2 7594  10.511  12.196   6.587 -0.1400  0.0922  0.0773
  841CHOL    R3 7595  10.278  12.225   6.724 -0.1159 -0.0963  0.1616
  841CHOL    R4 7596  10.477  12.373   6.882 -0.2303  0.3382 -0.0768
  841CHOL    R5 7597  10.344  12.216   6.955  0.0182  0.2177  0.1430
  841CHOL    C1 7598  10.239  12.503   7.183 -0.2603  0.3045 -0.0875
  841CHOL    C2 7599  10.132  12.678   7.444  0.2482  0.1535  0.0447
  842PNCE   AM1 7600   7.023  10.760   5.127 -0.1374 -0.0063  0.0105
  842PNCE   AM2 7601   7.066  11.093   5.092 -0.3242  0.2994  0.0403
  842PNCE   T1A 7602   6.694  10.443   5.229  0.0653 -0.1429 -0.2325
  842PNCE   C2A 7603   6.532  10.115   5.545  0.3654 -0.3125 -0.1986
  842PNCE   C3A 7604   6.442   9.786   5.930 -0.1608  0.0407 -0.3043
  842PNCE   C1B 7605   7.171  11.129   5.574  0.3247 -0.1145  0.0961
  842PNCE   C2B 7606   6.910  10.988   5.890 -0.0020 -0.2261  0.0783
  842PNCE   C3B 7607   6.609  10.845   6.197 -0.0854 -0.0643 -0.2075
  842PNCE   D4B 7608   6.272  10.664   6.389  0.1841  0.1301 -0.3586
  842PNCE   C5B 7609   5.848  10.540   6.335 -0.0994 -0.0979 -0.1468
  842PNCE   C6B 7610   5.720  10.137   6.421  0.0493 -0.1215  0.0825
  843CHOL   ROH 7611  15.161  11.976   4.775 -0.1190 -0.0434  0.0614
  843CHOL    R1 7612  15.196  11.795   4.990  0.1661 -0.0066  0.0507
  843CHOL    R2 7613  15.349  11.856   5.212  0.0226  0.2503  0.0885
  843CHOL    R3 7614  15.121  11.791   5.346  0.1043 -0.1693  0.0350
  843CHOL    R4 7615  15.333  11.781   5.549  0.0669  0.2419  0.0884
  843CHOL    R5 7616  15.191  11.622   5.502  0.3756 -0.0303  0.0632
  843CHOL    C1 7617  15.111  11.676   5.871  0.1694 -0.1568  0.0381
  843CHOL    C2 7618  14.815  11.417   6.034 -0.0279 -0.1639  0.2506
  844XCA    COO 7619   0.681  13.416   5.169 -0.1187 -0.1427  0.2416
  844XCA     C1 7620   0.793  13.276   5.628  0.1181  0.1154 -0.2015
  844XCA     C2 7621   0.653  13.232   6.008  0.2946 -0.2044  0.1680
  844XCA     C3 7622   0.528  13.285   6.426 -0.2003 -0.1265 -0.2130
  844XCA     C4 7623   0.347  13.297   6.739  0.1809 -0.1877 -0.3283
  844XCA     C5 7624  -0.072  13.374   6.883 -0.0370  0.1179  0.0242
  844XCA     C6 7625  -0.523  13.486   6.824 -0.1355 -0.3814  0.0475
  845PNCE   AM1 7626   2.941   9.901   5.041 -0.1856  0.1336 -0.2797
  845PNCE   AM2 7627   3.136  10.175   5.078  0.0618  0.1388  0.1503
  845PNCE   T1A 7628   3.007   9.845   5.517  0.2924 -0.0011  0.2281
  845PNCE   C2A 7629   2.821   9.810   5.955  0.0239  0.3483  0.2555
  845PNCE   C3A 7630   2.771   9.879   6.387 -0.1922  0.0801  0.1095
  845PNCE   C1B 7631   3.375  10.288   5.475  0.1063  0.2444 -0.0960
  845PNCE   C2B 7632   3.503   9.983   5.757  0.1296 -0.0337 -0.2457
  845PNCE   C3B 7633   3.922   9.753   5.664 -0.0345 -0.2133  0.1546
  845PNCE   D4B 7634   4.088   9.377   5.761 -0.1299  0.0023  0.3202
  845PNCE   C5B 7635   4.138   9.238   6.126 -0.1791 -0.0570 -0.0336
  845PNCE   C6B 7636   4.232   9.397   6.539 -0.1091 -0.1912 -0.0183
  846CHOL   ROH 7637   4.098  13.035   8.673 -0.1910  0.0032 -0.0628
  846CHOL    R1 7638   4.328  12.963   8.524 -0.1551 -0.0816  0.0308
  846CHOL    R2 7639   4.313  12.830   8.283 -0.1103  0.0025 -0.0220
  846CHOL    R3 7640   4.464  13.039   8.195  0.0538 -0.0530  0.1223
  846CHOL    R4 7641   4.553  12.809   8.035  0.0153 -0.0509  0.1033
  846CHOL    R5 7642   4.679  12.943   8.153  0.0242 -0.1565  0.2113
  846CHOL    C1 7643   4.834  12.994   7.808  0.2423 -0.1340  0.3118
  846CHOL    C2 7644   5.187  13.141   7.738 -0.1469  0.2398 -0.1249
  847XCA    COO 7645   9.847   5.825   8.561  0.0756  0.1083  0.3084
  847XCA     C1 7646  10.143   5.777   8.140 -0.0875 -0.3298  0.1286
  847XCA     C2 7647  10.442   5.615   7.916  0.3124  0.0429  0.0642
  847XCA     C3 7648  10.693   5.728   7.612  0.1605 -0.2071  0.2824
  847XCA     C4 7649  10.735   5.713   7.163  0.1940  0.4612  0.0313
  847XCA     C5 7650  10.930   5.834   6.776 -0.0845  0.1463  0.2070
  847XCA     C6 7651  10.775   5.991   6.346 -0.2872 -0.0497  0.3170
  848CHOL   ROH 7652   5.947   9.345   8.449  0.1346  0.0430 -0.0092
  848CHOL    R1 7653   6.161   9.425   8.282  0.1334 -0.1643 -0.1143
  848CHOL    R2 7654   6.207   9.312   8.034 -0.1993 -0.0945 -0.2157
  848CHOL    R3 7655   6.198   9.570   7.951  0.1001 -0.0298 -0.0591
  848CHOL    R4 7656   6.373   9.435   7.757 -0.0873 -0.1245 -0.1617
  848CHOL    R5 7657   6.420   9.615   7.872  0.1443 -0.2481 -0.0598
  848CHOL    C1 7658   6.462   9.750   7.517  0.2591 -0.0813  0.0168
  848CHOL    C2 7659   6.336   9.740   7.096 -0.3255  0.3723  0.0686
  849CHOL   ROH 7660  15.644   0.419   8.178 -0.1845 -0.1630  0.2914
  849CHOL    R1 7661  15.371   0.366   8.131 -0.2405  0.1828  0.1975
  849CHOL    R2 7662  15.199   0.553   8.023  0.1306  0.2664 -0.2800
  849CHOL    R3 7663  15.149   0.356   7.842 -0.0425 -0.0007  0.0488
  849CHOL    R4 7664  14.928   0.546   7.808  0.1642  0.1827 -0.3200
  849CHOL    R5 7665  14.911   0.331   7.845 -0.0712  0.2578  0.0501
  849CHOL    C1 7666  14.724   0.356   7.514  0.0212 -0.1169 -0.0344
  849CHOL    C2 7667  14.551   0.279   7.126 -0.0593  0.0522  0.2334
  850CHOL   ROH 7668  13.966   5.143   5.588 -0.0931 -0.1122 -0.0874
  850CHOL    R1 7669  14.002   5.297   5.823  0.1192 -0.1011 -0.1249
  850CHOL    R2 7670  13.806   5.324   6.015  0.1611  0.1962 -0.1142
  850CHOL    R3 7671  14.001   5.236   6.182  0.0635 -0.0192 -0.1122
  850CHOL    R4 7672  13.787   5.326   6.360  0.1003  0.0523 -0.1164
  850CHOL    R5 7673  13.996   5.388   6.366  0.1402 -0.1019 -0.0455
  850CHOL    C1 7674  13.960   5.244   6.717 -0.0269 -0.2336 -0.1159
  850CHOL    C2 7675  13.943   4.938   7.034  0.1130 -0.2413 -0.1838
  851PNCE   AM1 7676   0.982   4.467   4.699 -0.0141  0.2184  0.0114
  851PNCE   AM2 7677   0.837   4.755   4.699  0.2992 -0.0156  0.2835
  851PNCE   T1A 7678   0.849   4.426   5.150  0.2032 -0.2148  0.1407
  851PNCE   C2A 7679   0.576   4.582   5.524 -0.1100 -0.2575 -0.0289
  851PNCE   C3A 7680   0.244   4.617   5.719  0.0832  0.0072 -0.1715
  851PNCE   C1B 7681   0.423   4.614   4.738  0.0841  0.0797 -0.0146
  851PNCE   C2B 7682   0.181   4.358   5.167  0.0001 -0.3297 -0.2209
  851PNCE   C3B 7683   0.182   4.105   5.586 -0.1169 -0.2053 -0.0063
  851PNCE   D4B 7684   0.093   4.238   6.027 -0.1255  0.0871  0.2320
  851PNCE   C5B 7685   0.205   4.030   6.389 -0.0455 -0.0005 -0.1544
  851PNCE   C6B 7686   0.302   3.664   6.402 -0.0179  0.2122 -0.3373
  852XCA    COO 7687  11.806  13.819   5.095  0.0109  0.2509 -0.1025
  852XCA     C1 7688  11.960  13.561   5.460 -0.2981  0.0197 -0.0442
  852XCA     C2 7689  12.184  13.379   5.725 -0.3290 -0.0792  0.2241
  852XCA     C3 7690  12.297  12.987   5.848  0.1280  0.1346 -0.3071
  852XCA     C4 7691  12.564  12.645   5.701  0.1779  0.0758 -0.0994
  852XCA     C5 7692  12.596  12.409   6.028 -0.0689 -0.0490  0.1827
  852XCA     C6 7693  12.494  11.966   6.083  0.0869  0.0563  0.3467
  853PNCE   AM1 7694  14.675   9.715   4.885 -0.3010  0.3284 -0.2881
  853PNCE   AM2 7695  14.426   9.789   5.098 -0.0932  0.0050  0.1441
  853PNCE   T1A 7696  14.840   9.569   5.379  0.0008  0.5051 -0.1005
  853PNCE   C2A 7697  14.993   9.653   5.729 -0.1464  0.1449  0.3551
  853PNCE   C3A 7698  15.438   9.452   5.876  0.0129 -0.1387 -0.0572
  853PNCE   C1B 7699  14.531   9.875   5.497  0.1176 -0.2638  0.0283
  853PNCE   C2B 7700  14.488  10.100   5.884 -0.0424 -0.2048  0.1621
  853PNCE   C3B 7701  14.370  10.107   6.340 -0.0150 -0.0183  0.1828
  853PNCE   D4B 7702  14.328   9.916   6.757  0.2730 -0.1323 -0.0602
  853PNCE   C5B 7703  14.061   9.515   6.734 -0.2364  0.2417  0.0810
  853PNCE   C6B 7704  13.899   9.188   6.414  0.1742  0.1350 -0.1070
  854CHOL   ROH 7705   8.774   1.814   7.608  0.4031  0.1493  0.2825
  854CHOL    R1 7706   9.046   1.789   7.535  0.3484 -0.2176  0.1821
  854CHOL    R2 7707   9.164   1.545   7.482 -0.0272 -0.3742  0.0101
  854CHOL    R3 7708   9.233   1.665   7.248  0.0696 -0.3449  0.0539
  854CHOL    R4 7709   9.376   1.410   7.245  0.0863 -0.3274  0.0847
  854CHOL    R5 7710   9.463   1.607   7.217  0.0845 -0.3231  0.1456
  854CHOL    C1 7711   9.563   1.444   6.887  0.2435 -0.2726  0.1692
  854CHOL    C2 7712   9.517   1.113   6.717 -0.0657  0.2588  0.1211
  855PNCE   AM1 7713   9.023   2.914   3.769  0.0010 -0.2605  0.1474
  855PNCE   AM2 7714   9.202   3.158   3.594 -0.0152 -0.2624  0.0691
  855PNCE   T1A 7715   8.590   3.129   3.929  0.2048 -0.0098  0.1014
  855PNCE   C2A 7716   8.113   3.205   3.807  0.0546  0.1460  0.1652
  855PNCE   C3A 7717   7.662   3.272   3.937  0.0269  0.3607  0.0716
  855PNCE   C1B 7718   9.216   3.235   4.081  0.0382  0.0447 -0.3631
  855PNCE   C2B 7719   9.172   3.674   4.436  0.0461  0.2106 -0.2179
  855PNCE   C3B 7720   9.143   3.725   4.857 -0.0006  0.0304 -0.0435
  855PNCE   D4B 7721   9.079   3.645   5.301 -0.2550 -0.0595  0.0795
  855PNCE   C5B 7722   9.243   3.979   5.596 -0.1901 -0.0531 -0.2522
  855PNCE   C6B 7723   9.408   4.271   5.933 -0.2566 -0.3726  0.0239
  856CHOL   ROH 7724   6.598   1.047   7.135  0.0163  0.2406 -0.0148
  856CHOL    R1 7725   6.643   0.812   6.985  0.0889  0.1991  0.0717
  856CHOL    R2 7726   6.443   0.629   6.930  0.1198  0.1783  0.0388
  856CHOL    R3 7727   6.521   0.670   6.673  0.2279  0.1039  0.0587
  856CHOL    R4 7728   6.465   0.382   6.690 -0.0395  0.1481  0.0538
  856CHOL    R5 7729   6.649   0.475   6.619  0.0683 -0.0179  0.1013
  856CHOL    C1 7730   6.551   0.275   6.309 -0.0309  0.0606  0.0812
  856CHOL    C2 7731   6.338   0.171   6.003  0.0023  0.1770 -0.3291
  857CHOL   ROH 7732   0.011   4.170   6.862 -0.1907  0.1015  0.0719
  857CHOL    R1 7733  -0.145   4.340   6.698 -0.1131  0.0837 -0.0216
  857CHOL    R2 7734  -0.106   4.361   6.425 -0.0774 -0.0544 -0.0266
  857CHOL    R3 7735  -0.371   4.301   6.416 -0.0988  0.0374 -0.0269
  857CHOL    R4 7736  -0.333   4.496   6.202 -0.0179 -0.0170 -0.0650
  857CHOL    R5 7737  -0.478   4.508   6.364 -0.0223  0.0666 -0.0733
  857CHOL    C1 7738  -0.714   4.519   6.064 -0.0032  0.0910 -0.0878
  857CHOL    C2 7739  -0.929   4.638   5.712  0.1124  0.1516 -0.0443
  858CHOL   ROH 7740   7.324  13.834   8.915  0.0412  0.1674  0.0178
  858CHOL    R1 7741   7.155  13.749   8.705  0.0905  0.3467 -0.0970
  858CHOL    R2 7742   7.197  13.819   8.442  0.4859  0.1121 -0.1026
  858CHOL    R3 7743   7.189  13.550   8.402  0.0373  0.0932  0.0594
  858CHOL    R4 7744   7.219  13.664   8.134  0.6579 -0.1190  0.0220
  858CHOL    R5 7745   7.065  13.524   8.199  0.2858  0.2070 -0.1122
  858CHOL    C1 7746   7.224  13.322   7.917  0.3370 -0.2713  0.2469
  858CHOL    C2 7747   7.274  13.143   7.487 -0.2848 -0.1139  0.1489
  859CHOL   ROH 7748  10.844   6.073   5.822  0.0328  0.1464  0.0877
  859CHOL    R1 7749  10.891   6.314   5.961  0.0064  0.2117 -0.0142
  859CHOL    R2 7750  10.722   6.533   5.942 -0.0693  0.1552 -0.0343
  859CHOL    R3 7751  10.718   6.513   6.213  0.0306  0.2466 -0.0259
  859CHOL    R4 7752  10.623   6.784   6.157 -0.1336  0.1743 -0.0869
  859CHOL    R5 7753  10.787   6.729   6.290 -0.0613  0.3089 -0.1219
  859CHOL    C1 7754  10.561   6.912   6.537 -0.0775  0.2712 -0.1098
  859CHOL    C2 7755  10.480   7.190   6.756 -0.3589  0.0450  0.2273
  860PNCE   AM1 7756   3.644   1.000   4.567  0.0352  0.0444  0.2437
  860PNCE   AM2 7757   3.434   0.636   4.500 -0.3440 -0.1808  0.2514
  860PNCE   T1A 7758   3.481   0.932   4.986  0.1397 -0.1097  0.4157
  860PNCE   C2A 7759   3.225   0.781   5.335 -0.0120 -0.0425 -0.0025
  860PNCE   C3A 7760   2.887   0.628   5.514 -0.0715  0.0498  0.1122
  860PNCE   C1B 7761   3.232   0.483   4.874  0.2843  0.0384  0.1465
  860PNCE   C2B 7762   2.962   0.246   5.149  0.0699  0.1085 -0.1706
  860PNCE   C3B 7763   2.628   0.150   5.514 -0.2769 -0.1088  0.5504
  860PNCE   D4B 7764   2.401  -0.061   5.845  0.1101  0.0085  0.0100
  860PNCE   C5B 7765   2.380  -0.479   5.998 -0.3007 -0.0628 -0.0363
  860PNCE   C6B 7766   2.330  -0.905   5.844  0.0153  0.2756  0.0395
  861PNCE   AM1 7767   9.137   7.742   4.328  0.3078  0.1063 -0.1983
  861PNCE   AM2 7768   9.199   8.085   4.542  0.0512 -0.2618 -0.3080
  861PNCE   T1A 7769   8.897   7.343   4.641 -0.0514 -0.2284 -0.0233
  861PNCE   C2A 7770   8.714   7.379   5.052 -0.1067  0.0358 -0.1592
  861PNCE   C3A 7771   8.704   7.286   5.481  0.0722  0.0017  0.0038
  861PNCE   C1B 7772   9.139   7.834   4.834 -0.0951 -0.0805  0.0224
  861PNCE   C2B 7773   8.855   7.825   5.110 -0.0087 -0.1633 -0.2163
  861PNCE   C3B 7774   8.579   7.783   5.487 -0.2641  0.0702  0.1134
  861PNCE   D4B 7775   8.591   7.625   5.885  0.0578  0.1417  0.1220
  861PNCE   C5B 7776   8.991   7.726   6.080 -0.1386 -0.0334 -0.1415
  861PNCE   C6B 7777   9.408   7.910   6.070 -0.1175 -0.2411 -0.0731
  862XCA    COO 7778   4.436  13.451   8.684 -0.0609  0.1828  0.3316
  862XCA     C1 7779   4.406  13.510   8.226  0.0587  0.1147  0.0797
  862XCA     C2 7780   4.549  13.355   7.863 -0.0343  0.0524 -0.1078
  862XCA     C3 7781   4.733  13.286   7.441  0.1252 -0.2656  0.2336
  862XCA     C4 7782   4.914  12.869   7.233 -0.1477  0.0424 -0.0104
  862XCA     C5 7783   4.929  12.303   7.305  0.1274  0.0117 -0.2188
  862XCA     C6 7784   5.032  12.122   6.934  0.1351  0.0548 -0.2662
  863CHOL   ROH 7785   9.851  10.029   6.636 -0.1497 -0.0018  0.2118
  863CHOL    R1 7786   9.974   9.926   6.869 -0.1165  0.0826  0.2306
  863CHOL    R2 7787  10.248   9.892   6.890 -0.1344 -0.1229  0.1161
  863CHOL    R3 7788  10.217  10.044   7.113  0.1042  0.0804  0.0166
  863CHOL    R4 7789  10.415   9.841   7.188 -0.2674 -0.2390  0.1738
  863CHOL    R5 7790  10.231   9.888   7.294 -0.2076  0.1644  0.1201
  863CHOL    C1 7791  10.484   9.955   7.571 -0.1209 -0.1157  0.1140
  863CHOL    C2 7792  10.393   9.979   7.993 -0.0904 -0.2351  0.0737
  864PNCE   AM1 7793   8.801  11.982   5.337  0.2027  0.0274  0.3399
  864PNCE   AM2 7794   8.913  12.309   5.301 -0.1518  0.1899 -0.0902
  864PNCE   T1A 7795   9.076  11.984   5.684 -0.1031  0.1133 -0.0743
  864PNCE   C2A 7796   9.158  12.110   6.095  0.0075 -0.0729  0.0154
  864PNCE   C3A 7797   9.433  12.256   6.558 -0.0565  0.0282 -0.2841
  864PNCE   C1B 7798   8.983  12.530   5.692  0.2818  0.1765 -0.3461
  864PNCE   C2B 7799   9.126  12.641   6.030  0.0401  0.1039 -0.0491
  864PNCE   C3B 7800   9.243  12.704   6.406 -0.1005  0.0550  0.1218
  864PNCE   D4B 7801   9.417  12.813   6.780  0.1917 -0.0189  0.1771
  864PNCE   C5B 7802   9.334  12.442   7.060 -0.0171 -0.1394 -0.3697
  864PNCE   C6B 7803   9.028  12.208   6.896  0.1693  0.1557 -0.2121
  865PNCE   AM1 7804  13.364   7.114   5.468 -0.0074  0.0540 -0.0770
  865PNCE   AM2 7805  13.687   7.053   5.397 -0.2186 -0.0293 -0.1340
  865PNCE   T1A 7806  13.377   7.198   5.984  0.0216  0.3636  0.3550
  865PNCE   C2A 7807  13.460   7.248   6.373 -0.0181  0.2141  0.0512
  865PNCE   C3A 7808  13.400   7.103   6.854 -0.2337 -0.2344  0.2789
  865PNCE   C1B 7809  13.906   7.284   5.828  0.2584 -0.2963  0.0507
  865PNCE   C2B 7810  14.064   7.161   6.299 -0.0059 -0.1747  0.1637
  865PNCE   C3B 7811  14.398   7.115   6.510 -0.5224  0.0452 -0.0650
  865PNCE   D4B 7812  14.768   7.256   6.700 -0.2178  0.1120  0.2506
  865PNCE   C5B 7813  14.838   7.151   7.004 -0.0895  0.0630 -0.0902
  865PNCE   C6B 7814  14.982   7.257   7.446  0.0033 -0.0697  0.0465
  866PNCE   AM1 7815  14.865  15.099   4.842  0.0096 -0.1128 -0.0421
  866PNCE   AM2 7816  14.870  15.501   4.896  0.0943  0.0102  0.3137
  866PNCE   T1A 7817  14.663  15.041   5.212  0.0588  0.0352  0.0865
  866PNCE   C2A 7818  14.539  14.655   5.443 -0.1055  0.1151 -0.0971
  866PNCE   C3A 7819  14.330  14.554   5.820  0.1270 -0.4372  0.1592
  866PNCE   C1B 7820  15.144  15.367   5.344 -0.1460 -0.1102  0.2606
  866PNCE   C2B 7821  15.268  15.288   5.733  0.2541 -0.2234 -0.3091
  866PNCE   C3B 7822  15.380  15.234   6.152  0.2362  0.1161  0.1904
  866PNCE   D4B 7823  15.496  14.898   6.212 -0.0739  0.1415 -0.4366
  866PNCE   C5B 7824  15.829  14.765   6.299  0.0517 -0.0058  0.1598
  866PNCE   C6B 7825  16.032  14.450   6.210 -0.1324 -0.0202 -0.0671
  867CHOL   ROH 7826  11.177   5.216   5.558 -0.0577 -0.0722 -0.1496
  867CHOL    R1 7827  10.925   5.270   5.675 -0.1014 -0.1420 -0.2097
  867CHOL    R2 7828  10.707   5.103   5.644 -0.0171 -0.2617 -0.1669
  867CHOL    R3 7829  10.705   5.110   5.916 -0.0574 -0.1423 -0.1701
  867CHOL    R4 7830  10.431   5.036   5.841 -0.0096 -0.3176 -0.1754
  867CHOL    R5 7831  10.490   5.201   5.971 -0.1123 -0.2287 -0.2400
  867CHOL    C1 7832  10.268   5.004   6.211 -0.0430 -0.2380 -0.1834
  867CHOL    C2 7833  10.110   4.908   6.658  0.0736  0.0398 -0.0830
  868PNCE   AM1 7834  14.968   8.983   5.173 -0.0743  0.2454 -0.2745
  868PNCE   AM2 7835  14.793   9.157   5.011  0.0346 -0.1208  0.0042
  868PNCE   T1A 7836  15.094   9.192   5.636  0.0398 -0.1762  0.0382
  868PNCE   C2A 7837  15.242   9.051   6.034 -0.0667  0.0856 -0.2004
  868PNCE   C3A 7838  15.558   9.282   6.361 -0.0927  0.0857  0.0788
  868PNCE   C1B 7839  14.542   9.151   5.435 -0.0102 -0.2663  0.0832
  868PNCE   C2B 7840  14.561   9.018   5.785  0.3218  0.0898  0.2728
  868PNCE   C3B 7841  14.494   9.002   6.240  0.0283 -0.1571  0.0188
  868PNCE   D4B 7842  14.295   9.031   6.591 -0.2639  0.0647  0.0635
  868PNCE   C5B 7843  14.236   8.885   6.972 -0.0281  0.1985 -0.0885
  868PNCE   C6B 7844  14.346   8.950   7.316 -0.1397  0.1402  0.1510
  869PNCE   AM1 7845   1.284  12.002   4.643 -0.0165  0.1473 -0.0427
  869PNCE   AM2 7846   0.971  12.136   4.624  0.1453  0.2347 -0.1079
  869PNCE   T1A 7847   1.475  11.988   4.967  0.1686 -0.0482  0.3287
  869PNCE   C2A 7848   1.318  11.923   5.380 -0.1520 -0.0249  0.0400
  869PNCE   C3A 7849   1.256  11.858   5.840  0.1630 -0.2383  0.0549
  869PNCE   C1B 7850   1.029  12.267   4.998  0.0019 -0.1587 -0.1622
  869PNCE   C2B 7851   0.895  12.323   5.440  0.1505 -0.1558  0.3232
  869PNCE   C3B 7852   1.007  12.292   5.825 -0.1494 -0.1678 -0.3633
  869PNCE   D4B 7853   1.062  12.419   6.254 -0.2545 -0.0073 -0.2327
  869PNCE   C5B 7854   1.188  12.904   6.351  0.0837  0.1671  0.1619
  869PNCE   C6B 7855   1.539  13.140   6.523  0.0384 -0.0205  0.0404
  870XCA    COO 7856  12.919  11.909   5.333  0.2221  0.2718 -0.2544
  870XCA     C1 7857  13.158  11.917   5.724  0.1274  0.0253  0.3233
  870XCA     C2 7858  13.340  11.855   6.121  0.2170 -0.1336 -0.0193
  870XCA     C3 7859  13.595  11.914   6.527  0.3967  0.0607  0.1154
  870XCA     C4 7860  13.856  12.103   6.952  0.4309 -0.1953 -0.0036
  870XCA     C5 7861  13.925  12.369   7.221  0.2995  0.0511 -0.3009
  870XCA     C6 7862  13.719  12.722   7.289 -0.0030 -0.0849 -0.0485
  871CHOL   ROH 7863   2.296   2.654   5.902 -0.0380 -0.1389  0.0628
  871CHOL    R1 7864   2.024   2.731   5.895  0.0075  0.0180 -0.0252
  871CHOL    R2 7865   1.840   2.615   5.724 -0.0269  0.0423 -0.0007
  871CHOL    R3 7866   1.702   2.571   5.954 -0.1005  0.2360 -0.0057
  871CHOL    R4 7867   1.496   2.615   5.751 -0.0432 -0.2102 -0.1802
  871CHOL    R5 7868   1.515   2.720   5.941 -0.2234  0.0676 -0.3044
  871CHOL    C1 7869   1.166   2.573   5.982 -0.1219 -0.1754 -0.2892
  871CHOL    C2 7870   0.875   2.633   5.836  0.1214  0.0155 -0.0433
  872CHOL   ROH 7871   9.274   6.801   8.362 -0.0493 -0.0828 -0.2720
  872CHOL    R1 7872   9.265   7.082   8.327  0.0305 -0.0528 -0.0717
  872CHOL    R2 7873   9.179   7.199   8.092  0.2182  0.1386 -0.0505
  872CHOL    R3 7874   9.010   7.332   8.258  0.1256  0.0445 -0.0696
  872CHOL    R4 7875   9.016   7.494   8.014  0.0987  0.0746 -0.0441
  872CHOL    R5 7876   9.055   7.563   8.217  0.0268  0.0685 -0.0316
  872CHOL    C1 7877   8.762   7.790   8.125 -0.0578 -0.0509 -0.0583
  872CHOL    C2 7878   8.686   8.228   8.206  0.0263  0.1063  0.0709
  873XCA    COO 7879   9.338   2.723   4.151  0.0670 -0.3065 -0.3727
  873XCA     C1 7880   9.254   2.711   4.562 -0.1309  0.2266  0.2714
  873XCA     C2 7881   9.184   2.978   4.799  0.0193 -0.1180  0.0692
  873XCA     C3 7882   9.343   2.803   5.151  0.3045  0.1185  0.0745
  873XCA     C4 7883   9.085   2.468   5.415 -0.2923  0.1657  0.0021
  873XCA     C5 7884   8.784   2.285   5.715 -0.0029 -0.1311 -0.4737
  873XCA     C6 7885   8.460   1.964   5.662  0.0854 -0.2548 -0.1267
  874CHOL   ROH 7886   4.038  10.530   4.788 -0.1609  0.0459 -0.1455
  874CHOL    R1 7887   4.221  10.502   5.002 -0.1907 -0.2377 -0.1541
  874CHOL    R2 7888   4.347  10.718   5.119  0.1299 -0.4270 -0.1433
  874CHOL    R3 7889   4.243  10.614   5.347 -0.0142 -0.2939 -0.1457
  874CHOL    R4 7890   4.446  10.804   5.439  0.0716 -0.3858 -0.1357
  874CHOL    R5 7891   4.431  10.594   5.495 -0.0749 -0.3617 -0.0745
  874CHOL    C1 7892   4.405  10.757   5.839 -0.0976 -0.2369 -0.1334
  874CHOL    C2 7893   4.429  10.583   6.120 -0.3045  0.0125 -0.1295
  875PNCE   AM1 7894   4.824  15.733   4.365 -0.2682  0.0391 -0.2256
  875PNCE   AM2 7895   4.539  15.688   4.558  0.2028  0.1699  0.0499
  875PNCE   T1A 7896   5.132  16.038   4.580  0.1780 -0.1217 -0.1786
  875PNCE   C2A 7897   5.311  16.164   5.066  0.0641  0.4006 -0.0560
  875PNCE   C3A 7898   5.714  16.160   5.321 -0.0803 -0.1416 -0.3419
  875PNCE   C1B 7899   4.829  15.643   4.919 -0.0684  0.0781 -0.0334
  875PNCE   C2B 7900   4.900  15.672   5.354 -0.2191 -0.0094 -0.0166
  875PNCE   C3B 7901   4.766  15.907   5.769 -0.0690 -0.1541  0.0225
  875PNCE   D4B 7902   4.746  16.203   6.161  0.2881  0.1355  0.0580
  875PNCE   C5B 7903   4.839  15.897   6.519 -0.1162  0.0736  0.2422
  875PNCE   C6B 7904   4.858  15.745   6.954 -0.1357  0.4055  0.3317
  876CHOL   ROH 7905   8.355   9.490   9.264 -0.1739  0.1949  0.1648
  876CHOL    R1 7906   8.503   9.667   9.099 -0.2994  0.0631 -0.0956
  876CHOL    R2 7907   8.758   9.752   9.163 -0.4619  0.5622 -0.0647
  876CHOL    R3 7908   8.817   9.657   8.916 -0.1390  0.1113  0.1713
  876CHOL    R4 7909   9.011   9.871   8.961 -0.4431  0.4557 -0.1038
  876CHOL    R5 7910   8.878   9.851   8.790 -0.2810 -0.0670 -0.1856
  876CHOL    C1 7911   9.214   9.851   8.611 -0.1290 -0.0297  0.0949
  876CHOL    C2 7912   9.450  10.026   8.848  0.0643 -0.0225  0.0416
  877CHOL   ROH 7913   9.502   2.727   8.167  0.0637  0.1949 -0.0249
  877CHOL    R1 7914   9.724   2.846   8.038  0.1172 -0.0994 -0.2112
  877CHOL    R2 7915   9.773   2.814   7.768 -0.2836  0.0109 -0.2991
  877CHOL    R3 7916   9.775   3.086   7.769  0.2009  0.0177 -0.0937
  877CHOL    R4 7917   9.863   3.011   7.499 -0.2605  0.0480 -0.2659
  877CHOL    R5 7918   9.967   3.144   7.637  0.1533 -0.2323 -0.2851
  877CHOL    C1 7919   9.917   3.381   7.342  0.2078  0.0760 -0.0539
  877CHOL    C2 7920   9.934   3.365   6.976  0.1882 -0.2960  0.1428
  878CHOL   ROH 7921  13.918  11.863   5.264  0.1459  0.0891  0.0730
  878CHOL    R1 7922  14.072  11.638   5.339  0.1252  0.0764  0.0745
  878CHOL    R2 7923  14.089  11.550   5.601  0.0156  0.0032  0.0546
  878CHOL    R3 7924  14.008  11.314   5.493  0.0773  0.0267 -0.0466
  878CHOL    R4 7925  14.119  11.242   5.754 -0.3036  0.0012  0.1195
  878CHOL    R5 7926  14.175  11.156   5.562 -0.0673 -0.0293  0.1947
  878CHOL    C1 7927  14.060  10.841   5.743 -0.4316  0.0220  0.0624
  878CHOL    C2 7928  14.327  10.599   6.012  0.1248  0.2735 -0.1139
  879CHOL   ROH 7929   6.122  14.061   4.700  0.2035  0.1354  0.0559
  879CHOL    R1 7930   6.123  14.184   4.955  0.1363  0.0800  0.0844
  879CHOL    R2 7931   5.972  14.408   5.013  0.1681  0.1084  0.0762
  879CHOL    R3 7932   5.880  14.253   5.216  0.0512  0.0834  0.0037
  879CHOL    R4 7933   5.924  14.517   5.337  0.2402 -0.0051  0.1247
  879CHOL    R5 7934   6.005  14.327   5.407  0.0991 -0.0945  0.0403
  879CHOL    C1 7935   5.810  14.436   5.717  0.1724 -0.0946  0.0847
  879CHOL    C2 7936   5.862  14.564   6.074  0.2329  0.0718 -0.1099
  880CHOL   ROH 7937   1.110   8.438   4.877  0.0276  0.0425  0.0163
  880CHOL    R1 7938   0.916   8.534   5.059 -0.0764  0.0102 -0.0779
  880CHOL    R2 7939   0.692   8.386   5.129  0.0387 -0.1249 -0.0097
  880CHOL    R3 7940   0.783   8.430   5.382 -0.0372  0.1271 -0.0220
  880CHOL    R4 7941   0.508   8.337   5.417  0.0703 -0.2250 -0.0053
  880CHOL    R5 7942   0.594   8.520   5.498 -0.1751 -0.0598 -0.0886
  880CHOL    C1 7943   0.485   8.349   5.822  0.0174 -0.0467 -0.0142
  880CHOL    C2 7944   0.391   8.644   6.014 -0.0171  0.1397  0.2369
  881PNCE   AM1 7945  14.562   3.892   4.709 -0.0190 -0.1574 -0.4100
  881PNCE   AM2 7946  14.707   4.145   4.593  0.0557 -0.0327  0.3440
  881PNCE   T1A 7947  14.477   4.076   5.100 -0.2000 -0.2613 -0.1059
  881PNCE   C2A 7948  14.361   4.095   5.569  0.0747  0.1413  0.0338
  881PNCE   C3A 7949  14.368   4.435   5.949  0.1199  0.1283  0.1435
  881PNCE   C1B 7950  15.037   4.370   4.867 -0.0871 -0.1993  0.1514
  881PNCE   C2B 7951  15.219   4.179   5.288  0.4701 -0.1037 -0.1818
  881PNCE   C3B 7952  15.237   3.846   5.585 -0.0761  0.3592 -0.2961
  881PNCE   D4B 7953  15.050   3.607   5.952  0.0548  0.3951 -0.1236
  881PNCE   C5B 7954  15.377   3.415   6.237  0.2020  0.1017  0.0799
  881PNCE   C6B 7955  15.326   3.215   6.646 -0.0785 -0.0191  0.2075
  882XCA    COO 7956   2.811   4.900   8.178 -0.1040 -0.0837 -0.1004
  882XCA     C1 7957   2.593   5.070   7.805  0.0132 -0.0167  0.1901
  882XCA     C2 7958   2.261   5.150   7.503  0.0596 -0.1145  0.2792
  882XCA     C3 7959   2.007   5.030   7.113  0.0667  0.0642 -0.0144
  882XCA     C4 7960   1.786   5.148   6.814 -0.0614  0.1594  0.0770
  882XCA     C5 7961   1.446   5.239   6.509 -0.2151  0.0435  0.1819
  882XCA     C6 7962   1.084   5.400   6.427 -0.0123 -0.1957 -0.0562
  883XCA    COO 7963  12.266  15.385   9.067  0.2429 -0.0062 -0.3454
  883XCA     C1 7964  12.213  15.149   8.662  0.0078  0.0505  0.0678
  883XCA     C2 7965  12.048  14.877   8.370 -0.0329  0.0058  0.0164
  883XCA     C3 7966  12.219  14.729   8.031 -0.2236 -0.1597  0.1320
  883XCA     C4 7967  12.518  14.793   7.680  0.0546  0.1121 -0.3517
  883XCA     C5 7968  12.634  14.650   7.229  0.3217  0.0206  0.1547
  883XCA     C6 7969  12.344  14.492   7.026 -0.1027  0.0108 -0.1175
  884PNCE   AM1 7970   1.980  15.242   4.139  0.1386 -0.2315  0.0773
  884PNCE   AM2 7971   1.969  15.501   4.224 -0.0149 -0.0170  0.1045
  884PNCE   T1A 7972   2.016  15.203   4.579 -0.3301 -0.0106  0.1513
  884PNCE   C2A 7973   2.083  15.254   4.994 -0.1105  0.0556  0.3958
  884PNCE   C3A 7974   2.197  15.282   5.492  0.0149  0.0341 -0.1465
  884PNCE   C1B 7975   1.929  15.978   4.425  0.2416 -0.0162  0.0508
  884PNCE   C2B 7976   2.034  16.376   4.637  0.0309  0.1339 -0.3593
  884PNCE   C3B 7977   2.092  16.336   5.063  0.0376  0.3344  0.3411
  884PNCE   D4B 7978   1.897  16.590   5.408 -0.0956 -0.0281  0.0899
  884PNCE   C5B 7979   1.964  16.334   5.718 -0.0954 -0.3024  0.2890
  884PNCE   C6B 7980   1.954  16.074   6.020 -0.1594  0.2891  0.1301
  885CHOL   ROH 7981   1.338   5.716   6.776 -0.0180 -0.0521 -0.1268
  885CHOL    R1 7982   1.259   5.481   6.914  0.0393  0.0009 -0.0020
  885CHOL    R2 7983   1.294   5.450   7.186 -0.0807  0.2118  0.0404
  885CHOL    R3 7984   1.027   5.398   7.182 -0.0518  0.0654 -0.0599
  885CHOL    R4 7985   1.112   5.330   7.454 -0.1251  0.1651 -0.0104
  885CHOL    R5 7986   1.003   5.201   7.316  0.0012  0.0777 -0.0314
  885CHOL    C1 7987   0.756   5.212   7.607 -0.1238  0.0003 -0.1340
  885CHOL    C2 7988   0.856   5.090   7.872  0.1676 -0.2397 -0.2639
  886XCA    COO 7989  14.208   1.109   8.273 -0.2963  0.1103 -0.1017
  886XCA     C1 7990  14.089   1.472   8.003  0.2908 -0.5656 -0.0108
  886XCA     C2 7991  14.015   1.533   7.546  0.1928 -0.0804  0.0546
  886XCA     C3 7992  13.759   1.542   7.169 -0.1216  0.2913  0.1218
  886XCA     C4 7993  13.580   1.475   6.821 -0.0247 -0.0379 -0.0269
  886XCA     C5 7994  13.151   1.669   6.737  0.2396  0.1128  0.2167
  886XCA     C6 7995  12.895   1.728   6.491  0.0410  0.2380  0.1788
  887PNCE   AM1 7996   2.922   0.840   4.650 -0.2860 -0.2747 -0.0951
  887PNCE   AM2 7997   3.170   1.092   4.641 -0.1654  0.2010  0.0061
  887PNCE   T1A 7998   2.585   0.672   4.794  0.1879 -0.0712  0.1621
  887PNCE   C2A 7999   2.384   0.265   4.755  0.1308 -0.0584  0.0068
  887PNCE   C3A 8000   2.128   0.014   4.856  0.0124 -0.2866  0.1893
  887PNCE   C1B 8001   3.156   1.264   5.044 -0.1162 -0.2071 -0.2931
  887PNCE   C2B 8002   3.330   1.287   5.456 -0.0829  0.2691 -0.1912
  887PNCE   C3B 8003   3.558   1.421   5.788  0.0716  0.3080 -0.3115
  887PNCE   D4B 8004   3.762   1.132   6.053  0.0846  0.0879 -0.0044
  887PNCE   C5B 8005   4.026   0.757   5.884 -0.2314  0.1963 -0.2871
  887PNCE   C6B 8006   4.255   0.349   5.922  0.1494 -0.0989 -0.0533
  888PNCE   AM1 8007   1.840  14.009   5.230 -0.2785  0.0144  0.0953
  888PNCE   AM2 8008   1.581  13.795   5.020  0.0408 -0.0193 -0.0159
  888PNCE   T1A 8009   2.155  13.977   5.540 -0.0798  0.2221  0.0737
  888PNCE   C2A 8010   2.095  13.954   5.895 -0.0978  0.1218  0.0156
  888PNCE   C3A 8011   2.050  13.980   6.415 -0.0570  0.0045 -0.0496
  888PNCE   C1B 8012   1.600  13.650   5.472  0.1329  0.1066  0.0533
  888PNCE   C2B 8013   1.696  13.642   5.847  0.0688  0.0122  0.1199
  888PNCE   C3B 8014   1.764  13.573   6.321 -0.2462  0.0639  0.0348
  888PNCE   D4B 8015   1.728  13.638   6.761  0.0205 -0.0660 -0.4163
  888PNCE   C5B 8016   1.407  13.380   7.071  0.2006  0.0025 -0.1373
  888PNCE   C6B 8017   1.257  12.994   6.931  0.3203 -0.0973  0.1584
  889PNCE   AM1 8018  12.667   1.869   4.858 -0.0126 -0.0741  0.3384
  889PNCE   AM2 8019  12.601   2.178   5.030  0.0418 -0.0308 -0.0024
  889PNCE   T1A 8020  12.843   1.533   5.024  0.0869 -0.2176 -0.0996
  889PNCE   C2A 8021  12.837   1.235   5.224 -0.1217  0.1306 -0.1242
  889PNCE   C3A 8022  12.500   0.988   5.234  0.2397 -0.0540  0.0474
  889PNCE   C1B 8023  12.416   2.281   5.461 -0.1082  0.0174  0.1974
  889PNCE   C2B 8024  12.425   2.447   5.920  0.2132 -0.0921  0.1211
  889PNCE   C3B 8025  12.586   2.841   6.090 -0.0676 -0.3249 -0.0387
  889PNCE   D4B 8026  12.395   3.043   6.423 -0.2237 -0.1087  0.3136
  889PNCE   C5B 8027  12.485   3.320   6.703 -0.0659 -0.3233  0.2389
  889PNCE   C6B 8028  12.846   3.523   6.853 -0.0184 -0.0966 -0.1003
  890CHOL   ROH 8029   8.866  10.763   5.770 -0.1504  0.1407  0.1331
  890CHOL    R1 8030   8.854  10.654   6.031 -0.1509  0.0717  0.1058
  890CHOL    R2 8031   8.917  10.800   6.257  0.0459 -0.0430  0.1353
  890CHOL    R3 8032   8.670  10.721   6.338  0.0058  0.1346  0.1850
  890CHOL    R4 8033   8.797  10.827   6.580  0.1544 -0.0455  0.1750
  890CHOL    R5 8034   8.705  10.630   6.556 -0.0102  0.0413  0.1438
  890CHOL    C1 8035   8.495  10.768   6.844  0.1799  0.1196  0.2448
  890CHOL    C2 8036   8.399  10.781   7.231  0.0432  0.0293  0.1836
  891PNCE   AM1 8037   9.474   0.270   8.374  0.0768 -0.0736  0.0950
  891PNCE   AM2 8038   9.452  -0.097   8.289 -0.3274 -0.0541 -0.2030
  891PNCE   T1A 8039   9.906   0.119   8.298 -0.1896  0.2965 -0.0105
  891PNCE   C2A 8040  10.151  -0.036   7.996 -0.1402 -0.0751 -0.2827
  891PNCE   C3A 8041  10.208  -0.438   7.971 -0.0309 -0.3568 -0.0558
  891PNCE   C1B 8042   9.725  -0.313   7.995  0.2097 -0.3446 -0.2869
  891PNCE   C2B 8043   9.805  -0.628   7.669  0.1427 -0.3085  0.0156
  891PNCE   C3B 8044  10.163  -0.871   7.715 -0.0941 -0.0781  0.1152
  891PNCE   D4B 8045  10.403  -1.278   7.515 -0.0720 -0.1491  0.0731
  891PNCE   C5B 8046  10.172  -1.553   7.147  0.1884  0.0943 -0.1826
  891PNCE   C6B 8047  10.182  -1.911   7.065 -0.1557 -0.3255  0.0164
  892PNCE   AM1 8048   0.471   1.348   4.819  0.2055  0.0118  0.2843
  892PNCE   AM2 8049   0.625   1.182   5.070  0.2775 -0.0233  0.1617
  892PNCE   T1A 8050   0.318   1.736   4.896 -0.2507  0.1050 -0.2032
  892PNCE   C2A 8051   0.417   2.137   5.090  0.1623 -0.0637 -0.0007
  892PNCE   C3A 8052   0.604   2.367   5.479  0.0335  0.4142 -0.0030
  892PNCE   C1B 8053   0.385   1.285   5.478  0.3951  0.1219 -0.0846
  892PNCE   C2B 8054   0.189   1.763   5.388  0.0794  0.1638 -0.2029
  892PNCE   C3B 8055   0.200   2.065   5.685 -0.0350  0.3435  0.0400
  892PNCE   D4B 8056   0.090   2.004   6.065 -0.3406 -0.6130 -0.1497
  892PNCE   C5B 8057   0.432   1.985   6.435  0.0646 -0.2469  0.0674
  892PNCE   C6B 8058   0.534   1.680   6.748 -0.3777 -0.0515  0.1482
  893CHOL   ROH 8059  15.395  14.685   7.789 -0.0075 -0.1203  0.0088
  893CHOL    R1 8060  15.249  14.535   7.598 -0.0188 -0.0985  0.0005
  893CHOL    R2 8061  15.332  14.507   7.336 -0.0215 -0.0893 -0.0001
  893CHOL    R3 8062  15.308  14.242   7.391 -0.0415 -0.0913 -0.0169
  893CHOL    R4 8063  15.418  14.252   7.119 -0.1305 -0.0799 -0.0556
  893CHOL    R5 8064  15.240  14.144   7.183 -0.1261 -0.0608 -0.0051
  893CHOL    C1 8065  15.447  13.855   7.044 -0.2126 -0.0762 -0.1036
  893CHOL    C2 8066  15.477  13.894   6.663  0.0322  0.2085  0.0405
  894XCA    COO 8067  11.015  11.881   9.467 -0.0896 -0.1270 -0.2227
  894XCA     C1 8068  11.160  11.881   9.055  0.4083  0.1573 -0.1891
  894XCA     C2 8069  11.095  11.669   8.629  0.0582 -0.1274  0.0897
  894XCA     C3 8070  10.827  11.499   8.351  0.1219 -0.3001  0.0071
  894XCA     C4 8071  10.648  11.355   7.950 -0.0649 -0.1426 -0.2090
  894XCA     C5 8072  10.706  11.010   7.775 -0.3071 -0.1533  0.0872
  894XCA     C6 8073  10.860  10.708   7.521 -0.0310  0.0681  0.2830
  895PNCE   AM1 8074   5.446   8.412   5.006 -0.2402 -0.0583  0.0801
  895PNCE   AM2 8075   5.240   8.582   5.132 -0.1298  0.0238 -0.0695
  895PNCE   T1A 8076   5.881   8.396   5.095  0.2663  0.1350 -0.2648
  895PNCE   C2A 8077   6.168   8.321   5.392  0.0117  0.0209 -0.1440
  895PNCE   C3A 8078   6.416   8.197   5.826  0.0028  0.3639 -0.1152
  895PNCE   C1B 8079   5.159   8.375   5.577  0.1150 -0.1244 -0.1157
  895PNCE   C2B 8080   4.893   8.289   5.916  0.2409  0.2377  0.0791
  895PNCE   C3B 8081   4.852   7.799   5.968 -0.1705  0.4534  0.3409
  895PNCE   D4B 8082   4.652   7.474   5.795  0.1967 -0.0179 -0.1012
  895PNCE   C5B 8083   4.283   7.376   6.039  0.1326 -0.0350 -0.1375
  895PNCE   C6B 8084   3.981   7.354   6.310  0.0848 -0.1513  0.1824
  896XCA    COO 8085  12.135   3.726   4.629 -0.1098  0.0926 -0.0129
  896XCA     C1 8086  12.139   3.722   5.076  0.0878  0.0171 -0.0071
  896XCA     C2 8087  12.324   3.749   5.505 -0.3285 -0.0573 -0.1235
  896XCA     C3 8088  12.193   3.722   5.968  0.0990  0.2778  0.0507
  896XCA     C4 8089  11.828   3.655   6.258 -0.2050  0.0985  0.0021
  896XCA     C5 8090  11.672   3.456   6.491  0.1606 -0.1980  0.2071
  896XCA     C6 8091  11.706   3.293   6.970  0.1829  0.0980 -0.0445
  897CHOL   ROH 8092   3.870   2.196   7.567  0.1490  0.2102  0.0484
  897CHOL    R1 8093   3.927   2.402   7.381  0.0653  0.1759 -0.0190
  897CHOL    R2 8094   3.999   2.350   7.119  0.0147  0.1175 -0.0298
  897CHOL    R3 8095   3.791   2.516   7.064 -0.0394  0.0621 -0.0159
  897CHOL    R4 8096   3.939   2.497   6.812 -0.0141  0.1512 -0.0062
  897CHOL    R5 8097   3.884   2.680   6.915 -0.0825  0.1181  0.0203
  897CHOL    C1 8098   3.710   2.738   6.581 -0.0817  0.1187  0.0205
  897CHOL    C2 8099   3.677   2.854   6.201  0.4233 -0.4836 -0.0164
  898CHOL   ROH 8100  14.752   4.324   9.140  0.1993  0.0747 -0.0023
  898CHOL    R1 8101  14.598   4.292   8.905  0.0997  0.0650  0.0632
  898CHOL    R2 8102  14.554   4.497   8.726  0.0298  0.0582  0.0662
  898CHOL    R3 8103  14.653   4.319   8.546 -0.0468  0.0432  0.0395
  898CHOL    R4 8104  14.509   4.515   8.384  0.1113  0.1672  0.0609
  898CHOL    R5 8105  14.481   4.299   8.381 -0.0220  0.1891  0.0001
  898CHOL    C1 8106  14.575   4.358   8.016  0.0869  0.2165  0.0327
  898CHOL    C2 8107  14.730   4.248   7.711  0.1914 -0.0180 -0.3442
  899CHOL   ROH 8108   8.612   7.308   8.283  0.0628 -0.0928  0.0102
  899CHOL    R1 8109   8.622   7.308   8.000 -0.0450 -0.1208  0.0061
  899CHOL    R2 8110   8.426   7.424   7.845 -0.0091  0.0294  0.0750
  899CHOL    R3 8111   8.637   7.558   7.736  0.0602 -0.1498 -0.0170
  899CHOL    R4 8112   8.451   7.517   7.513 -0.0535 -0.0434  0.0508
  899CHOL    R5 8113   8.662   7.461   7.518 -0.0902 -0.2074 -0.0126
  899CHOL    C1 8114   8.663   7.696   7.217 -0.0142 -0.2541 -0.0497
  899CHOL    C2 8115   8.757   8.021   6.873 -0.1671  0.0131  0.0426
  900CHOL   ROH 8116   1.128   6.147   4.499 -0.0490  0.2873  0.0324
  900CHOL    R1 8117   1.039   6.239   4.751 -0.0954  0.1505  0.0664
  900CHOL    R2 8118   0.807   6.146   4.870  0.0064 -0.0863  0.0810
  900CHOL    R3 8119   0.974   6.093   5.079  0.0856  0.0184  0.0458
  900CHOL    R4 8120   0.706   6.020   5.176  0.1668 -0.2982  0.0492
  900CHOL    R5 8121   0.847   6.156   5.272  0.0355 -0.1790  0.0807
  900CHOL    C1 8122   0.804   5.897   5.549  0.3346 -0.3233 -0.0023
  900CHOL    C2 8123   0.799   5.704   5.812  0.0546 -0.0412 -0.0168
  901CHOL   ROH 8124   1.709   4.717   8.173 -0.2584  0.2649  0.0634
  901CHOL    R1 8125   1.723   4.567   7.933 -0.1885 -0.0312  0.2501
  901CHOL    R2 8126   1.519   4.400   7.850 -0.3340  0.1808  0.2037
  901CHOL    R3 8127   1.535   4.547   7.622  0.1582 -0.1063  0.0379
  901CHOL    R4 8128   1.335   4.341   7.563 -0.4140  0.3489  0.2170
  901CHOL    R5 8129   1.514   4.386   7.446 -0.2237 -0.2699  0.2141
  901CHOL    C1 8130   1.244   4.444   7.182  0.0015  0.1771  0.0692
  901CHOL    C2 8131   0.899   4.665   7.170 -0.0805  0.1860  0.1121
  902PNCE   AM1 8132  14.192   7.323   5.449  0.1046  0.2623  0.2763
  902PNCE   AM2 8133  14.152   6.978   5.437 -0.1276  0.0109  0.0655
  902PNCE   T1A 8134  14.579   7.280   5.506  0.0834 -0.3843 -0.1688
  902PNCE   C2A 8135  14.903   7.085   5.706  0.2631  0.0034 -0.1455
  902PNCE   C3A 8136  15.387   6.894   5.635 -0.0654 -0.0128  0.2428
  902PNCE   C1B 8137  14.315   7.030   5.873 -0.3422 -0.0220 -0.2301
  902PNCE   C2B 8138  14.665   7.325   6.154  0.3857 -0.2504  0.0856
  902PNCE   C3B 8139  14.987   7.258   6.224 -0.0079  0.2993  0.1812
  902PNCE   D4B 8140  15.413   7.431   6.402 -0.0890 -0.4553 -0.0805
  902PNCE   C5B 8141  15.706   7.086   6.540 -0.0732  0.2518  0.2247
  902PNCE   C6B 8142  16.067   6.914   6.389 -0.0019  0.0157  0.0749
  903CHOL   ROH 8143   3.981   6.211   6.362 -0.0182  0.0374 -0.0967
  903CHOL    R1 8144   4.185   6.405   6.381 -0.0563  0.0650  0.0402
  903CHOL    R2 8145   4.451   6.339   6.413 -0.0474  0.0957  0.0298
  903CHOL    R3 8146   4.483   6.495   6.192 -0.0521  0.2321  0.1247
  903CHOL    R4 8147   4.756   6.442   6.286 -0.0506  0.1794  0.0894
  903CHOL    R5 8148   4.668   6.638   6.247 -0.0542  0.2024  0.2102
  903CHOL    C1 8149   4.963   6.649   6.006 -0.0569  0.3561  0.2131
  903CHOL    C2 8150   5.272   6.768   5.726  0.0651  0.1375  0.0457
  904PNCE   AM1 8151  12.890   1.072   8.617  0.0912 -0.2589  0.1381
  904PNCE   AM2 8152  12.993   0.781   8.800  0.1581 -0.0074  0.3458
  904PNCE   T1A 8153  12.683   0.951   8.171  0.1347  0.0520 -0.0937
  904PNCE   C2A 8154  12.449   0.919   7.735 -0.1086  0.4340 -0.1891
  904PNCE   C3A 8155  12.677   1.119   7.335  0.2458 -0.0354  0.1930
  904PNCE   C1B 8156  13.119   0.613   8.380  0.4053 -0.0669  0.0972
  904PNCE   C2B 8157  13.189   0.737   8.003 -0.2283 -0.0174 -0.2771
  904PNCE   C3B 8158  13.584   0.666   7.809 -0.0700  0.0949 -0.1029
  904PNCE   D4B 8159  13.903   0.703   7.478 -0.0161  0.0564  0.1076
  904PNCE   C5B 8160  13.916   0.818   7.009 -0.0994  0.0642 -0.0292
  904PNCE   C6B 8161  14.021   0.947   6.613  0.0077 -0.1611  0.3256
  905CHOL   ROH 8162  12.367   8.739   6.222  0.3019 -0.3866  0.0395
  905CHOL    R1 8163  12.412   8.662   6.491  0.2535 -0.2203  0.0963
  905CHOL    R2 8164  12.498   8.840   6.685 -0.0044 -0.0470  0.0556
  905CHOL    R3 8165  12.277   8.751   6.817  0.0179 -0.1965 -0.0050
  905CHOL    R4 8166  12.431   8.897   7.019 -0.0731 -0.2004  0.0692
  905CHOL    R5 8167  12.358   8.692   7.034  0.0171 -0.2409 -0.0161
  905CHOL    C1 8168  12.186   8.847   7.338 -0.0923 -0.4302  0.0201
  905CHOL    C2 8169  12.330   8.894   7.666  0.0912  0.1318  0.0842
  906PNCE   AM1 8170   5.137   7.714   4.910 -0.0000  0.1190  0.3729
  906PNCE   AM2 8171   4.998   7.385   4.918 -0.0183 -0.0448 -0.3852
  906PNCE   T1A 8172   5.471   7.416   5.224  0.0043  0.2342 -0.2515
  906PNCE   C2A 8173   5.375   7.330   5.578 -0.0785 -0.0440 -0.0511
  906PNCE   C3A 8174   5.161   7.317   5.944 -0.0517 -0.0336  0.0349
  906PNCE   C1B 8175   4.953   6.986   4.855 -0.3640  0.0225  0.1131
  906PNCE   C2B 8176   5.011   6.593   5.211 -0.0778 -0.0712  0.4316
  906PNCE   C3B 8177   4.714   6.551   5.645  0.1850 -0.1994  0.0477
  906PNCE   D4B 8178   4.512   6.828   5.799  0.0660  0.0108 -0.1055
  906PNCE   C5B 8179   4.760   7.034   6.064  0.3505 -0.0240 -0.0522
  906PNCE   C6B 8180   5.004   6.933   6.334  0.0947  0.0692  0.1802
  907PNCE   AM1 8181   2.782  14.084   4.950 -0.3205 -0.3059  0.1287
  907PNCE   AM2 8182   3.023  13.849   4.918 -0.1125 -0.0304  0.0633
  907PNCE   T1A 8183   2.456  14.204   5.258 -0.3737 -0.4891  0.1748
  907PNCE   C2A 8184   2.480  14.370   5.618 -0.0845  0.2771  0.3313
  907PNCE   C3A 8185   2.755  14.368   5.941 -0.2498 -0.2197  0.1239
  907PNCE   C1B 8186   2.834  13.755   5.285  0.3228 -0.2566  0.3205
  907PNCE   C2B 8187   2.602  13.839   5.672  0.1132  0.0467  0.0935
  907PNCE   C3B 8188   2.530  13.923   6.115 -0.3647 -0.0331 -0.1850
  907PNCE   D4B 8189   2.763  13.745   6.449  0.1460 -0.0220 -0.0008
  907PNCE   C5B 8190   3.187  13.697   6.285  0.3206  0.0363  0.0280
  907PNCE   C6B 8191   3.484  13.790   6.107  0.3387 -0.1618 -0.1161
  908PNCE   AM1 8192   8.435  12.575   5.676  0.1705  0.0212 -0.1738
  908PNCE   AM2 8193   8.438  12.264   5.614 -0.1333 -0.2188 -0.0211
  908PNCE   T1A 8194   8.605  12.716   6.024 -0.3010  0.0613 -0.3400
  908PNCE   C2A 8195   8.759  12.880   6.389  0.0724 -0.2543  0.2295
  908PNCE   C3A 8196   8.976  13.068   6.641  0.1263 -0.1883  0.2573
  908PNCE   C1B 8197   8.630  12.240   6.016  0.0105  0.2424  0.1208
  908PNCE   C2B 8198   8.851  12.365   6.427 -0.0901  0.0654  0.1669
  908PNCE   C3B 8199   8.878  12.632   6.796 -0.1147  0.0370  0.0827
  908PNCE   D4B 8200   9.039  12.824   7.194  0.1926 -0.1656 -0.0092
  908PNCE   C5B 8201   9.085  13.167   7.099  0.2191  0.0634  0.1000
  908PNCE   C6B 8202   8.715  13.489   7.021 -0.1752  0.0876  0.1118
  909PNCE   AM1 8203  10.494   6.923   5.247  0.1498  0.0261 -0.2253
  909PNCE   AM2 8204  10.864   7.033   5.279  0.0336  0.2667  0.1818
  909PNCE   T1A 8205  10.474   6.652   5.593  0.1450  0.0793 -0.0325
  909PNCE   C2A 8206  10.366   6.252   5.804  0.0320  0.1573 -0.1212
  909PNCE   C3A 8207  10.299   6.191   6.212  0.0103 -0.3264  0.0435
  909PNCE   C1B 8208  10.577   7.202   5.675 -0.0102 -0.0711 -0.0219
  909PNCE   C2B 8209  10.237   7.174   5.933  0.1249 -0.1948 -0.0101
  909PNCE   C3B 8210  10.151   7.104   6.377 -0.3909 -0.2287 -0.0048
  909PNCE   D4B 8211  10.052   6.944   6.785 -0.2838  0.1361 -0.1390
  909PNCE   C5B 8212  10.399   6.757   7.016 -0.2400  0.0706 -0.0516
  909PNCE   C6B 8213  10.249   6.563   7.495 -0.0146 -0.1608 -0.0702
  910XCA    COO 8214  10.454   1.638   9.181 -0.1399 -0.2142  0.3035
  910XCA     C1 8215  10.756   1.236   9.127  0.0211 -0.0102  0.1218
  910XCA     C2 8216  10.829   1.011   8.708  0.0655 -0.2290  0.2566
  910XCA     C3 8217  10.954   0.986   8.354 -0.1619  0.0638  0.1130
  910XCA     C4 8218  11.062   1.045   7.936 -0.0346  0.1172 -0.1174
  910XCA     C5 8219  11.461   1.130   7.796  0.1963  0.0872  0.4862
  910XCA     C6 8220  11.925   1.235   7.609 -0.1537  0.0227 -0.1739
  911PNCE   AM1 8221  12.745   3.025   4.882 -0.0852  0.0876 -0.1793
  911PNCE   AM2 8222  13.008   3.184   4.762  0.0590 -0.1354  0.3415
  911PNCE   T1A 8223  12.825   2.719   5.204 -0.0820 -0.0493 -0.0808
  911PNCE   C2A 8224  12.860   2.347   5.619  0.2671 -0.3232  0.0438
  911PNCE   C3A 8225  12.908   2.440   5.982 -0.0726  0.0202 -0.2375
  911PNCE   C1B 8226  13.271   2.943   5.079 -0.1532  0.0755  0.0895
  911PNCE   C2B 8227  13.351   2.540   5.250  0.2088  0.0146 -0.1614
  911PNCE   C3B 8228  13.354   2.388   5.667 -0.2343 -0.0298  0.0914
  911PNCE   D4B 8229  13.503   2.603   5.944  0.0559 -0.3618  0.2724
  911PNCE   C5B 8230  13.149   2.982   6.139  0.0339 -0.1497  0.0365
  911PNCE   C6B 8231  12.867   3.181   6.349  0.1721  0.2693  0.2712
  912CHOL   ROH 8232  14.506   3.419   5.172 -0.0024 -0.1585 -0.2320
  912CHOL    R1 8233  14.347   3.229   5.309 -0.0664 -0.0672 -0.1766
  912CHOL    R2 8234  14.164   3.300   5.503 -0.0494  0.0508 -0.1957
  912CHOL    R3 8235  13.992   3.159   5.347 -0.0891  0.0630 -0.1615
  912CHOL    R4 8236  13.912   3.095   5.621  0.1108 -0.1251 -0.1552
  912CHOL    R5 8237  13.960   2.953   5.463  0.0707 -0.0139 -0.2603
  912CHOL    C1 8238  13.604   2.843   5.542  0.1670 -0.2161 -0.0994
  912CHOL    C2 8239  13.170   2.874   5.621  0.3124  0.2859  0.1165
  913CHOL   ROH 8240  13.191   8.407   5.755 -0.0548 -0.2096  0.0340
  913CHOL    R1 8241  13.054   8.427   6.002  0.0139  0.0170  0.0568
  913CHOL    R2 8242  13.067   8.231   6.195 -0.2177  0.0258  0.0875
  913CHOL    R3 8243  13.144   8.437   6.354  0.0941 -0.0484  0.0381
  913CHOL    R4 8244  13.068   8.225   6.541 -0.1571  0.0834  0.0878
  913CHOL    R5 8245  12.993   8.429   6.540  0.1184  0.1870  0.0697
  913CHOL    C1 8246  13.141   8.415   6.891  0.1709  0.0473  0.0417
  913CHOL    C2 8247  12.875   8.400   7.224  0.0737 -0.1433  0.1006
  914CHOL   ROH 8248  10.594   0.644   8.684  0.2765 -0.0268 -0.0238
  914CHOL    R1 8249  10.803   0.580   8.505  0.2402 -0.0810 -0.0469
  914CHOL    R2 8250  10.901   0.324   8.475  0.1605 -0.1084 -0.0682
  914CHOL    R3 8251  10.845   0.367   8.212  0.1491 -0.0800 -0.0612
  914CHOL    R4 8252  11.077   0.188   8.211 -0.0559 -0.3545 -0.0900
  914CHOL    R5 8253  11.060   0.379   8.107  0.1427 -0.3455 -0.1127
  914CHOL    C1 8254  11.127   0.149   7.810 -0.1925 -0.4711 -0.0960
  914CHOL    C2 8255  11.117  -0.128   7.548 -0.0368 -0.3053  0.0211
  915XCA    COO 8256  14.168   9.532   5.501  0.0305 -0.1864 -0.2380
  915XCA     C1 8257  14.419   9.520   5.797  0.0412  0.1260 -0.0948
  915XCA     C2 8258  14.788   9.356   6.131 -0.2529 -0.0504 -0.0724
  915XCA     C3 8259  14.986   9.156   6.496 -0.1102  0.1340 -0.0309
  915XCA     C4 8260  15.341   8.894   6.625 -0.1153 -0.1213 -0.2396
  915XCA     C5 8261  15.598   8.624   6.834 -0.0558 -0.0244 -0.1802
  915XCA     C6 8262  15.653   8.182   6.801 -0.1920 -0.3091 -0.2337
  916PNCE   AM1 8263   1.729  13.338   4.775 -0.4547 -0.0140 -0.0435
  916PNCE   AM2 8264   2.111  13.271   4.778  0.1571  0.0988  0.0224
  916PNCE   T1A 8265   1.594  13.167   5.231 -0.0471  0.2129  0.0345
  916PNCE   C2A 8266   1.778  13.173   5.643 -0.1211 -0.0919  0.0374
  916PNCE   C3A 8267   1.822  13.164   6.084 -0.1955 -0.1627 -0.1845
  916PNCE   C1B 8268   2.057  12.994   5.065  0.1538  0.1386  0.0302
  916PNCE   C2B 8269   2.261  12.859   5.357 -0.0409 -0.2751 -0.0477
  916PNCE   C3B 8270   2.357  12.782   5.739 -0.1328  0.0737 -0.0248
  916PNCE   D4B 8271   2.387  13.034   6.136  0.1175  0.1215 -0.0608
  916PNCE   C5B 8272   2.651  13.222   6.439  0.2104 -0.1690 -0.0133
  916PNCE   C6B 8273   2.882  13.449   6.809  0.1243  0.1973 -0.0222
  917CHOL   ROH 8274   9.661   0.807   8.689  0.2822  0.1854  0.1028
  917CHOL    R1 8275   9.827   0.665   8.509  0.2165  0.1058  0.1049
  917CHOL    R2 8276   9.739   0.581   8.261  0.1323  0.0147  0.1646
  917CHOL    R3 8277   9.958   0.717   8.173  0.1134 -0.0316  0.0425
  917CHOL    R4 8278   9.888   0.538   7.952 -0.0438 -0.0183  0.0833
  917CHOL    R5 8279  10.083   0.554   8.048  0.0125 -0.0574 -0.0241
  917CHOL    C1 8280  10.179   0.639   7.689 -0.1641 -0.0810 -0.0787
  917CHOL    C2 8281  10.352   0.256   7.493  0.2508  0.0904  0.0620
  918CHOL   ROH 8282   3.990   5.793   6.137 -0.1368  0.1329 -0.0008
  918CHOL    R1 8283   4.202   5.764   6.323 -0.0007  0.1234 -0.1544
  918CHOL    R2 8284   4.290   5.972   6.482 -0.0312  0.0617 -0.0521
  918CHOL    R3 8285   4.244   5.796   6.683  0.2030 -0.1216 -0.1544
  918CHOL    R4 8286   4.449   5.978   6.788  0.0982 -0.0307 -0.1166
  918CHOL    R5 8287   4.460   5.760   6.781  0.2746 -0.0165 -0.2753
  918CHOL    C1 8288   4.498   5.816   7.156  0.3933 -0.2566 -0.2501
  918CHOL    C2 8289   4.712   5.598   7.175 -0.0893  0.0336 -0.1751
  919CHOL   ROH 8290   9.565   1.179   8.481  0.1064 -0.3725  0.0104
  919CHOL    R1 8291   9.704   1.031   8.283  0.0326 -0.3473 -0.0602
  919CHOL    R2 8292   9.584   0.948   8.049  0.0340 -0.0333 -0.1764
  919CHOL    R3 8293   9.793   1.077   7.934  0.2081 -0.1439  0.0089
  919CHOL    R4 8294   9.705   0.883   7.732 -0.0339  0.2277 -0.2581
  919CHOL    R5 8295   9.907   0.907   7.810 -0.0031 -0.1332 -0.2096
  919CHOL    C1 8296   9.972   0.967   7.439  0.0902  0.2757 -0.1318
  919CHOL    C2 8297  10.003   0.630   7.228  0.1985  0.2196  0.0791
  920CHOL   ROH 8298   3.246  11.276   7.293  0.1702  0.0345 -0.0623
  920CHOL    R1 8299   2.974  11.234   7.356  0.1705 -0.0026 -0.0878
  920CHOL    R2 8300   2.881  11.221   7.616  0.1282  0.1188 -0.0998
  920CHOL    R3 8301   2.711  11.415   7.531  0.0878  0.0249 -0.2370
  920CHOL    R4 8302   2.565  11.275   7.744  0.1153  0.1313 -0.1366
  920CHOL    R5 8303   2.494  11.312   7.540  0.1093 -0.0224 -0.1686
  920CHOL    C1 8304   2.220  11.489   7.738  0.0699  0.0503 -0.2867
  920CHOL    C2 8305   1.961  11.595   8.042  0.1526  0.2198 -0.2413
  921PNCE   AM1 8306  13.825   3.121   4.814 -0.2670 -0.0646  0.1097
  921PNCE   AM2 8307  13.449   3.354   4.864 -0.1661 -0.1583  0.2227
  921PNCE   T1A 8308  13.768   2.748   5.110 -0.2671 -0.1310 -0.2765
  921PNCE   C2A 8309  13.910   2.516   5.406 -0.0964 -0.1797 -0.1713
  921PNCE   C3A 8310  13.939   2.555   5.768 -0.0963 -0.0777  0.0760
  921PNCE   C1B 8311  13.561   3.281   5.365 -0.0614 -0.1341 -0.0070
  921PNCE   C2B 8312  13.414   3.319   5.693  0.2400  0.3228  0.1067
  921PNCE   C3B 8313  13.568   3.354   6.074  0.2938  0.2545  0.1577
  921PNCE   D4B 8314  13.386   3.330   6.492  0.2162  0.1984  0.4699
  921PNCE   C5B 8315  13.141   3.123   6.793 -0.0451  0.1888  0.1308
  921PNCE   C6B 8316  13.122   2.849   7.043  0.1054 -0.1234  0.1170
  922CHOL   ROH 8317   8.108   9.124   5.250  0.0008  0.0431  0.0087
  922CHOL    R1 8318   8.002   9.130   5.513 -0.0387  0.1775 -0.0097
  922CHOL    R2 8319   7.741   9.204   5.566 -0.1163 -0.0150 -0.1128
  922CHOL    R3 8320   7.733   8.964   5.693  0.0903  0.0853  0.1000
  922CHOL    R4 8321   7.516   9.121   5.814 -0.2110 -0.0734 -0.2170
  922CHOL    R5 8322   7.678   9.019   5.920 -0.1608  0.2266  0.0089
  922CHOL    C1 8323   7.376   8.846   6.078 -0.0724 -0.0133 -0.0779
  922CHOL    C2 8324   6.989   8.954   6.139  0.1705 -0.1801  0.0948
  923PNCE   AM1 8325  10.245   7.429   5.295  0.2370 -0.1359 -0.1034
  923PNCE   AM2 8326  10.103   7.789   5.115 -0.0978 -0.2083  0.0139
  923PNCE   T1A 8327  10.434   7.658   5.573 -0.3855  0.1434 -0.1297
  923PNCE   C2A 8328  10.383   7.815   5.915 -0.1120  0.1075  0.0985
  923PNCE   C3A 8329  10.319   8.267   6.035 -0.0621 -0.2401  0.2100
  923PNCE   C1B 8330   9.967   7.736   5.526 -0.2503  0.2284  0.0821
  923PNCE   C2B 8331   9.566   7.667   5.685  0.0093 -0.2062 -0.0275
  923PNCE   C3B 8332   9.326   7.347   5.971  0.1607 -0.0255  0.2263
  923PNCE   D4B 8333   8.956   7.187   5.983  0.0349  0.0728  0.1556
  923PNCE   C5B 8334   8.745   7.309   6.385 -0.0276 -0.2416  0.0363
  923PNCE   C6B 8335   8.486   7.042   6.683  0.1762  0.0327 -0.2290
  924PNCE   AM1 8336   0.288   2.881   4.572  0.0294 -0.0832 -0.1598
  924PNCE   AM2 8337   0.497   3.132   4.639  0.0399  0.0263 -0.1103
  924PNCE   T1A 8338   0.100   2.863   4.987 -0.3543 -0.2226 -0.0189
  924PNCE   C2A 8339   0.143   3.151   5.300  0.1167  0.0164  0.2582
  924PNCE   C3A 8340   0.306   3.385   5.539  0.4810 -0.1200 -0.1411
  924PNCE   C1B 8341   0.597   3.130   5.095 -0.1370 -0.2359 -0.2399
  924PNCE   C2B 8342   0.925   3.398   5.305 -0.0073 -0.2366  0.0443
  924PNCE   C3B 8343   1.080   3.853   5.549 -0.1174 -0.2173  0.0607
  924PNCE   D4B 8344   0.866   4.227   5.648 -0.1093 -0.0189  0.1316
  924PNCE   C5B 8345   0.665   4.536   6.012  0.3954  0.0338 -0.1535
  924PNCE   C6B 8346   0.592   4.903   6.322  0.2572 -0.1740  0.1516
  925CHOL   ROH 8347  12.771   6.585   5.980  0.1565  0.0748  0.1647
  925CHOL    R1 8348  12.723   6.430   6.211  0.0329  0.0324  0.1111
  925CHOL    R2 8349  12.915   6.389   6.406  0.0028 -0.1920  0.0947
  925CHOL    R3 8350  12.722   6.485   6.571  0.0826 -0.0923  0.1312
  925CHOL    R4 8351  12.865   6.287   6.733  0.1599  0.0028  0.1818
  925CHOL    R5 8352  12.650   6.295   6.697  0.1418 -0.0180  0.2807
  925CHOL    C1 8353  12.655   6.319   7.078  0.3264  0.2099  0.2667
  925CHOL    C2 8354  12.752   6.413   7.501  0.0296  0.0759 -0.0416
  926CHOL   ROH 8355   4.718  12.950   5.404  0.0552 -0.0174 -0.0305
  926CHOL    R1 8356   4.902  13.086   5.571  0.1300 -0.1279 -0.0199
  926CHOL    R2 8357   4.844  13.154   5.832  0.1138  0.0059 -0.0509
  926CHOL    R3 8358   5.074  13.019   5.884 -0.0214 -0.1890  0.0490
  926CHOL    R4 8359   5.021  13.173   6.128  0.2065  0.1400 -0.1147
  926CHOL    R5 8360   5.206  13.174   6.012  0.1791 -0.1932 -0.1552
  926CHOL    C1 8361   5.340  13.058   6.350  0.1336  0.0352 -0.0581
  926CHOL    C2 8362   5.352  13.073   6.708 -0.0145  0.1301  0.2454
  927PNCE   AM1 8363   2.330   5.452   4.895  0.1731  0.4158  0.2566
  927PNCE   AM2 8364   2.448   5.328   4.693 -0.2904 -0.2475 -0.3732
  927PNCE   T1A 8365   2.137   5.375   5.268  0.2555 -0.1802 -0.3951
  927PNCE   C2A 8366   1.715   5.464   5.563  0.4501  0.0006  0.0229
  927PNCE   C3A 8367   1.343   5.711   5.783  0.3760  0.0867 -0.1132
  927PNCE   C1B 8368   2.630   4.984   4.999 -0.0199 -0.0339  0.1125
  927PNCE   C2B 8369   2.715   4.764   5.351  0.2426 -0.2169  0.0589
  927PNCE   C3B 8370   2.833   4.874   5.672  0.4067 -0.0652  0.1453
  927PNCE   D4B 8371   2.615   4.863   6.081 -0.1285 -0.2978  0.0500
  927PNCE   C5B 8372   2.370   5.126   6.042 -0.5349  0.1407  0.0406
  927PNCE   C6B 8373   2.175   5.273   5.763  0.2718 -0.0508  0.1152
  928CHOL   ROH 8374  13.272  10.982   5.301 -0.1492 -0.0830  0.1717
  928CHOL    R1 8375  13.394  11.059   5.545 -0.0587  0.0264  0.0933
  928CHOL    R2 8376  13.397  10.896   5.768  0.0552  0.1099  0.1561
  928CHOL    R3 8377  13.665  10.937   5.755  0.0446  0.1423  0.0275
  928CHOL    R4 8378  13.608  10.905   6.041  0.2077  0.0110  0.0429
  928CHOL    R5 8379  13.714  11.071   5.948  0.1384  0.0615  0.0590
  928CHOL    C1 8380  13.983  10.949   6.188  0.2865 -0.0162 -0.1437
  928CHOL    C2 8381  13.962  10.807   6.604  0.1355  0.2420 -0.0262
  929CHOL   ROH 8382   0.611  11.810   4.819 -0.1691 -0.1891 -0.2496
  929CHOL    R1 8383   0.434  11.760   5.034 -0.0431 -0.1154 -0.1274
  929CHOL    R2 8384   0.488  11.573   5.231  0.0395 -0.0982 -0.1350
  929CHOL    R3 8385   0.446  11.784   5.397  0.1955 -0.0641 -0.1366
  929CHOL    R4 8386   0.448  11.550   5.573  0.0589 -0.0641 -0.1303
  929CHOL    R5 8387   0.291  11.701   5.560  0.1558  0.0404 -0.1186
  929CHOL    C1 8388   0.384  11.734   5.928  0.2167 -0.0123 -0.1290
  929CHOL    C2 8389   0.253  11.472   6.070  0.0806  0.1189  0.2794
  930CHOL   ROH 8390  11.350   4.483   5.773  0.2026  0.3832  0.1231
  930CHOL    R1 8391  11.250   4.584   6.017 -0.0392  0.1336  0.1326
  930CHOL    R2 8392  11.259   4.853   6.082  0.0064  0.0568  0.4638
  930CHOL    R3 8393  10.992   4.819   6.120 -0.0582  0.1227  0.1099
  930CHOL    R4 8394  11.054   5.072   6.253 -0.1389  0.0336  0.3232
  930CHOL    R5 8395  10.953   4.901   6.342 -0.3099  0.0191  0.1077
  930CHOL    C1 8396  10.685   5.168   6.389 -0.2842  0.0818 -0.0909
  930CHOL    C2 8397  10.607   5.417   6.759  0.3928  0.1523 -0.0473
  931CHOL   ROH 8398   3.708   0.820   7.088  0.1453  0.1346 -0.1006
  931CHOL    R1 8399   3.550   0.896   6.866  0.1129  0.0505 -0.1079
  931CHOL    R2 8400   3.440   1.149   6.841  0.0050  0.0072 -0.1304
  931CHOL    R3 8401   3.569   1.145   6.602  0.0115  0.0371 -0.1259
  931CHOL    R4 8402   3.447   1.411   6.617  0.0593  0.0468 -0.0815
  931CHOL    R5 8403   3.425   1.267   6.455  0.0426  0.0877 -0.1076
  931CHOL    C1 8404   3.572   1.561   6.261  0.0970  0.0979 -0.0488
  931CHOL    C2 8405   3.596   1.928   6.285 -0.1778 -0.1523  0.1698
  932XCA    COO 8406   8.743  11.151   9.503  0.2004 -0.0769  0.0391
  932XCA     C1 8407   8.828  11.097   9.060  0.0304  0.1592  0.1295
  932XCA     C2 8408   8.798  11.098   8.609  0.1799  0.2232  0.1045
  932XCA     C3 8409   8.987  11.278   8.229 -0.1579  0.0484  0.2795
  932XCA     C4 8410   9.185  11.550   7.902  0.4147  0.0693  0.2205
  932XCA     C5 8411   9.252  11.790   7.454  0.0757 -0.0486  0.5234
  932XCA     C6 8412   9.477  11.942   7.155  0.1361 -0.4447  0.4392
  933XCA    COO 8413   0.179  15.193   8.447  0.5617  0.3684  0.1575
  933XCA     C1 8414   0.135  15.204   8.065 -0.2674 -0.0878 -0.1397
  933XCA     C2 8415   0.142  15.181   7.662  0.0689  0.0760  0.0279
  933XCA     C3 8416   0.257  15.163   7.178  0.2791  0.0645 -0.2758
  933XCA     C4 8417   0.519  15.130   6.939 -0.1685  0.2339 -0.2599
  933XCA     C5 8418   0.505  14.844   6.630  0.2313  0.1395 -0.1869
  933XCA     C6 8419   0.724  14.413   6.385  0.2776  0.0198  0.2641
  934CHOL   ROH 8420   0.267   5.746   6.779  0.1681 -0.2605  0.2237
  934CHOL    R1 8421   0.434   5.904   6.614 -0.0598 -0.1089  0.1335
  934CHOL    R2 8422   0.369   6.163   6.542 -0.2156 -0.0772  0.3688
  934CHOL    R3 8423   0.615   6.219   6.644 -0.1132 -0.0786  0.1314
  934CHOL    R4 8424   0.513   6.477   6.549 -0.2580 -0.0572  0.3513
  934CHOL    R5 8425   0.704   6.386   6.497 -0.2973 -0.0011  0.1080
  934CHOL    C1 8426   0.826   6.713   6.650 -0.1866 -0.0468  0.1183
  934CHOL    C2 8427   0.938   7.055   6.949  0.0537  0.0986 -0.2280
  935PNCE   AM1 8428   1.527   9.320   4.258 -0.0949 -0.0737  0.1801
  935PNCE   AM2 8429   1.149   9.360   4.401  0.2001 -0.0494  0.2345
  935PNCE   T1A 8430   1.486   9.471   4.707 -0.0051  0.2912  0.0479
  935PNCE   C2A 8431   1.555   9.524   5.173 -0.0552  0.0677  0.0385
  935PNCE   C3A 8432   1.662   9.484   5.698 -0.0054  0.0193  0.3463
  935PNCE   C1B 8433   0.988   9.356   4.769 -0.2095 -0.2498 -0.0917
  935PNCE   C2B 8434   0.767   9.505   5.148  0.1054  0.2105 -0.2236
  935PNCE   C3B 8435   0.720   9.531   5.549  0.2633  0.0767  0.1037
  935PNCE   D4B 8436   0.685   9.695   5.941  0.5033 -0.3290 -0.0137
  935PNCE   C5B 8437   0.316   9.915   5.959  0.0686 -0.0272 -0.1997
  935PNCE   C6B 8438   0.269  10.108   6.389 -0.1743 -0.0309  0.2548
  936CHOL   ROH 8439   1.140  10.669   4.544  0.2620  0.0386  0.0124
  936CHOL    R1 8440   1.225  10.735   4.806  0.2086  0.0956  0.0156
  936CHOL    R2 8441   1.168  10.978   4.924  0.1828  0.1211 -0.0477
  936CHOL    R3 8442   1.065  10.822   5.121  0.1439  0.1625 -0.0355
  936CHOL    R4 8443   1.240  11.012   5.260  0.1716  0.1451 -0.0479
  936CHOL    R5 8444   1.246  10.795   5.276  0.1304  0.1461 -0.0231
  936CHOL    C1 8445   1.186  10.885   5.642  0.1284  0.1977 -0.0364
  936CHOL    C2 8446   0.982  10.898   5.898 -0.2639 -0.0599  0.1680
  937PNCE   AM1 8447   4.973   0.734   4.023 -0.1036 -0.2007 -0.2340
  937PNCE   AM2 8448   4.953   0.380   3.854  0.1787 -0.0736 -0.5481
  937PNCE   T1A 8449   5.513   0.799   3.950 -0.0566  0.1433  0.1642
  937PNCE   C2A 8450   6.004   0.838   3.846 -0.0878  0.1751  0.1543
  937PNCE   C3A 8451   6.402   0.832   3.913 -0.0365 -0.2866  0.0595
  937PNCE   C1B 8452   5.330   0.190   4.125 -0.1755  0.1397 -0.0888
  937PNCE   C2B 8453   5.608   0.093   4.365 -0.0609  0.1471 -0.1415
  937PNCE   C3B 8454   5.765   0.228   4.765 -0.0270 -0.1347  0.0531
  937PNCE   D4B 8455   6.060   0.331   5.008  0.0219 -0.1814  0.2062
  937PNCE   C5B 8456   6.525   0.354   5.164  0.0609 -0.3845 -0.0115
  937PNCE   C6B 8457   7.010   0.241   5.072  0.0504 -0.2453  0.0375
  938XCA    COO 8458  14.538  13.152   5.029 -0.1627 -0.0961  0.1255
  938XCA     C1 8459  14.785  12.804   5.257  0.1448  0.0926  0.1309
  938XCA     C2 8460  15.086  12.693   5.485 -0.1781  0.0203  0.0316
  938XCA     C3 8461  15.360  12.647   5.828  0.0362  0.1519  0.0240
  938XCA     C4 8462  15.644  12.360   6.056 -0.0902 -0.1223  0.0273
  938XCA     C5 8463  15.928  12.208   6.313 -0.2661  0.2064 -0.1089
  938XCA     C6 8464  16.189  11.854   6.337 -0.3638 -0.0037  0.0789
  939CHOL   ROH 8465   1.898   6.019   5.855  0.0860  0.1991  0.0596
  939CHOL    R1 8466   1.627   6.068   5.920  0.0350  0.1144 -0.0843
  939CHOL    R2 8467   1.551   6.222   6.137 -0.1298 -0.1185  0.0281
  939CHOL    R3 8468   1.410   6.359   5.950  0.0001  0.0741  0.0684
  939CHOL    R4 8469   1.238   6.358   6.186 -0.0736  0.0166  0.0156
  939CHOL    R5 8470   1.183   6.293   5.986 -0.0471  0.1704 -0.0435
  939CHOL    C1 8471   0.923   6.567   6.039  0.0810  0.2760  0.0460
  939CHOL    C2 8472   0.703   6.791   6.121 -0.0071  0.0347 -0.2069
  940CHOL   ROH 8473   2.149   2.367   7.783 -0.0742  0.0010  0.1968
  940CHOL    R1 8474   2.181   2.247   7.528  0.0309 -0.0798  0.2476
  940CHOL    R2 8475   2.142   2.386   7.292 -0.1455 -0.2273  0.1890
  940CHOL    R3 8476   2.394   2.298   7.237 -0.0526  0.0215  0.2032
  940CHOL    R4 8477   2.279   2.365   6.976 -0.1861 -0.2860  0.1751
  940CHOL    R5 8478   2.370   2.176   7.033  0.0443 -0.1476  0.2897
  940CHOL    C1 8479   2.594   2.271   6.739 -0.1224 -0.0866  0.1803
  940CHOL    C2 8480   2.756   2.558   6.515 -0.0623  0.2793  0.4263
  941CHOL   ROH 8481   7.018   1.069   3.510 -0.0730 -0.1038 -0.1013
  941CHOL    R1 8482   6.847   1.212   3.685 -0.0257 -0.1277 -0.0338
  941CHOL    R2 8483   6.941   1.402   3.862  0.0177 -0.1119 -0.0685
  941CHOL    R3 8484   6.757   1.561   3.740 -0.0520 -0.1407 -0.0005
  941CHOL    R4 8485   6.839   1.712   3.977  0.2651  0.0274 -0.2159
  941CHOL    R5 8486   6.635   1.660   3.920  0.1824  0.0602  0.0492
  941CHOL    C1 8487   6.607   2.041   3.930  0.3439  0.0815 -0.2378
  941CHOL    C2 8488   6.350   2.327   3.950 -0.1905 -0.2553  0.4861
  942PNCE   AM1 8489   7.676  10.983   5.534 -0.1697  0.1799 -0.1166
  942PNCE   AM2 8490   7.468  10.826   5.407 -0.3355 -0.0125 -0.0667
  942PNCE   T1A 8491   7.629  11.176   5.875 -0.0218  0.0153  0.0593
  942PNCE   C2A 8492   7.619  11.458   6.244 -0.1084  0.0562  0.2151
  942PNCE   C3A 8493   7.486  11.610   6.559 -0.0845 -0.1860  0.3450
  942PNCE   C1B 8494   7.390  10.722   5.870  0.0454 -0.0396 -0.1829
  942PNCE   C2B 8495   7.378  10.298   6.237  0.2001  0.3147 -0.1339
  942PNCE   C3B 8496   7.214  10.359   6.690  0.0974 -0.2637 -0.2698
  942PNCE   D4B 8497   7.123  10.756   6.946  0.2235 -0.1285 -0.0777
  942PNCE   C5B 8498   6.858  10.961   6.799 -0.1039 -0.0094 -0.0646
  942PNCE   C6B 8499   6.829  11.219   6.402 -0.2256  0.1709 -0.0203
  943PNCE   AM1 8500  14.458   7.856   9.134  0.1822 -0.0537 -0.1777
  943PNCE   AM2 8501  14.371   7.484   9.115 -0.0729 -0.0165 -0.2820
  943PNCE   T1A 8502  14.318   7.972   8.684 -0.1140 -0.0506 -0.3456
  943PNCE   C2A 8503  14.319   7.923   8.319  0.0897  0.0312  0.1220
  943PNCE   C3A 8504  14.575   7.904   7.982 -0.2518 -0.0491 -0.3919
  943PNCE   C1B 8505  14.191   7.415   8.669  0.1144 -0.1784 -0.2467
  943PNCE   C2B 8506  14.078   7.193   8.271 -0.1510  0.1574  0.2515
  943PNCE   C3B 8507  13.729   7.052   7.975  0.0445  0.0895  0.2749
  943PNCE   D4B 8508  13.416   7.261   7.685  0.2665 -0.0644 -0.0192
  943PNCE   C5B 8509  13.594   7.348   7.219 -0.0347  0.1432  0.0656
  943PNCE   C6B 8510  13.916   7.164   6.930 -0.1907 -0.1269  0.2535
  944PNCE   AM1 8511   7.650   0.717   4.035  0.1537  0.0241 -0.2449
  944PNCE   AM2 8512   7.924   0.647   4.294  0.2094  0.1292 -0.5647
  944PNCE   T1A 8513   7.374   0.420   4.226  0.3194  0.0495 -0.1879
  944PNCE   C2A 8514   7.389   0.257   4.702 -0.0302 -0.1571 -0.1229
  944PNCE   C3A 8515   7.404  -0.147   4.880  0.1686  0.0652  0.1756
  944PNCE   C1B 8516   7.816   0.538   4.831  0.1990  0.2084  0.1991
  944PNCE   C2B 8517   7.573   0.369   5.141  0.0392 -0.1054  0.0083
  944PNCE   C3B 8518   7.260   0.177   5.446 -0.1381 -0.2066 -0.0983
  944PNCE   D4B 8519   7.041  -0.057   5.662  0.3348  0.0131 -0.1345
  944PNCE   C5B 8520   6.541  -0.062   5.524 -0.3483 -0.0872 -0.1246
  944PNCE   C6B 8521   6.107   0.135   5.482  0.1146  0.2070 -0.0176
  945CHOL   ROH 8522  13.248   8.822   6.240 -0.3058 -0.0545 -0.0940
  945CHOL    R1 8523  13.376   8.728   6.474 -0.3014 -0.0210 -0.0830
  945CHOL    R2 8524  13.573   8.871   6.604 -0.2386 -0.0417 -0.1568
  945CHOL    R3 8525  13.411   8.838   6.819 -0.2172  0.0759 -0.1217
  945CHOL    R4 8526  13.656   8.956   6.929 -0.2031  0.1342 -0.2104
  945CHOL    R5 8527  13.559   8.773   6.996 -0.1984  0.1700 -0.1009
  945CHOL    C1 8528  13.552   8.974   7.320 -0.1623  0.3471 -0.2088
  945CHOL    C2 8529  13.547   9.166   7.651 -0.2504  0.2123 -0.1111
  946CHOL   ROH 8530   9.029   4.106   3.816  0.2973  0.0873  0.1645
  946CHOL    R1 8531   9.110   4.152   4.083  0.1350 -0.1048  0.2498
  946CHOL    R2 8532   8.992   4.344   4.243  0.2462 -0.0027  0.2103
  946CHOL    R3 8533   8.957   4.134   4.413 -0.1682 -0.0170  0.1175
  946CHOL    R4 8534   8.931   4.372   4.582  0.2829 -0.0311  0.2194
  946CHOL    R5 8535   9.064   4.203   4.616 -0.0405 -0.3103  0.1547
  946CHOL    C1 8536   8.862   4.192   4.939 -0.0846 -0.0609  0.1377
  946CHOL    C2 8537   8.755   4.134   5.372  0.0045  0.1423 -0.1313
  947XCA    COO 8538   2.006   2.350   4.645 -0.0364 -0.3991 -0.0864
  947XCA     C1 8539   1.866   2.303   5.082 -0.0745 -0.0467 -0.4062
  947XCA     C2 8540   1.652   2.297   5.393  0.0383 -0.1158  0.2219
  947XCA     C3 8541   1.539   2.163   5.728 -0.0351  0.1143 -0.1251
  947XCA     C4 8542   1.465   2.232   6.090 -0.1814  0.3729  0.0110
  947XCA     C5 8543   1.699   2.225   6.471 -0.1504 -0.1108  0.0699
  947XCA     C6 8544   2.057   2.106   6.683 -0.0710  0.0696  0.3022
  948PNCE   AM1 8545  15.275   4.987   4.535  0.2090  0.0512 -0.0818
  948PNCE   AM2 8546  15.130   4.929   4.838 -0.4035  0.6062 -0.1266
  948PNCE   T1A 8547  15.602   5.091   4.888  0.1398 -0.0970 -0.0249
  948PNCE   C2A 8548  15.597   5.158   5.323  0.4152  0.0751  0.0889
  948PNCE   C3A 8549  15.871   5.287   5.599 -0.3178  0.3160 -0.1058
  948PNCE   C1B 8550  15.157   5.313   5.124  0.1788  0.1360 -0.3950
  948PNCE   C2B 8551  15.184   5.467   5.551 -0.1841 -0.0086 -0.1367
  948PNCE   C3B 8552  15.150   5.713   5.770 -0.0584 -0.2067  0.2393
  948PNCE   D4B 8553  15.169   5.941   6.182  0.0512  0.2112  0.0928
  948PNCE   C5B 8554  14.901   5.942   6.518  0.0317  0.0479  0.2476
  948PNCE   C6B 8555  14.607   5.868   6.821  0.3307  0.0097  0.0447
  949XCA    COO 8556   4.562   8.488   4.838  0.0786 -0.1228  0.2491
  949XCA     C1 8557   4.793   8.334   5.169 -0.0046 -0.1854  0.1881
  949XCA     C2 8558   4.701   8.031   5.474 -0.2073  0.0042  0.4806
  949XCA     C3 8559   4.931   7.568   5.397 -0.2387  0.2727  0.5870
  949XCA     C4 8560   4.934   7.148   5.457 -0.0454 -0.2428 -0.1842
  949XCA     C5 8561   5.334   6.963   5.220 -0.0549 -0.0690  0.0035
  949XCA     C6 8562   5.731   6.819   5.120 -0.1143 -0.1083 -0.1068
  950CHOL   ROH 8563  14.706   5.264   7.974  0.0147 -0.0697 -0.1069
  950CHOL    R1 8564  14.680   5.126   7.729  0.0371 -0.0268 -0.1342
  950CHOL    R2 8565  14.442   5.116   7.589  0.0106 -0.1207 -0.0878
  950CHOL    R3 8566  14.595   5.210   7.385 -0.0806  0.0107 -0.0960
  950CHOL    R4 8567  14.370   5.075   7.253  0.0434 -0.2061 -0.0842
  950CHOL    R5 8568  14.582   5.039   7.217  0.0761 -0.0102 -0.0862
  950CHOL    C1 8569  14.471   5.140   6.866 -0.0231 -0.1324 -0.0899
  950CHOL    C2 8570  14.351   5.155   6.536 -0.1245 -0.1224 -0.0678
  951CHOL   ROH 8571  11.908   6.926   9.401  0.2821  0.0204 -0.1419
  951CHOL    R1 8572  11.911   6.797   9.150  0.4300 -0.0649 -0.0956
  951CHOL    R2 8573  11.832   6.922   8.917  0.0969 -0.2954 -0.1046
  951CHOL    R3 8574  12.077   6.845   8.829  0.2165  0.1391 -0.1801
  951CHOL    R4 8575  11.924   6.903   8.585 -0.0980 -0.4589 -0.1531
  951CHOL    R5 8576  12.032   6.718   8.631  0.3438 -0.1896 -0.0119
  951CHOL    C1 8577  12.209   6.820   8.309 -0.0992 -0.1460 -0.2521
  951CHOL    C2 8578  12.088   6.742   8.005  0.0962 -0.2255  0.0099
  952XCA    COO 8579   3.457   9.279   8.475 -0.1281  0.2061  0.1598
  952XCA     C1 8580   3.490   9.434   8.015  0.0138 -0.1296  0.0162
  952XCA     C2 8581   3.285   9.584   7.676  0.1332 -0.1047 -0.1877
  952XCA     C3 8582   3.022   9.896   7.369 -0.1335 -0.1861 -0.0621
  952XCA     C4 8583   2.608   9.911   7.150 -0.0526  0.2680 -0.0454
  952XCA     C5 8584   2.277   9.758   7.112 -0.3054 -0.3351  0.1849
  952XCA     C6 8585   1.849   9.735   6.920 -0.0386  0.2300  0.1608
  953CHOL   ROH 8586   3.938   7.498   7.908  0.1238  0.1960 -0.1829
  953CHOL    R1 8587   3.788   7.294   7.781 -0.0952  0.2844 -0.0735
  953CHOL    R2 8588   3.618   7.344   7.570  0.0282  0.3418 -0.1631
  953CHOL    R3 8589   3.765   7.151   7.447 -0.1702  0.0623  0.0252
  953CHOL    R4 8590   3.510   7.153   7.302 -0.0821  0.3552 -0.1285
  953CHOL    R5 8591   3.607   6.980   7.393 -0.3848  0.2601  0.0197
  953CHOL    C1 8592   3.587   6.862   7.031 -0.3326  0.1007  0.0685
  953CHOL    C2 8593   3.753   6.667   6.753  0.4027 -0.0486 -0.3828
  954PNCE   AM1 8594  12.706  10.502   6.001 -0.2155 -0.0042  0.1666
  954PNCE   AM2 8595  12.383  10.397   5.880  0.0300 -0.2180  0.0804
  954PNCE   T1A 8596  12.879  10.660   6.406  0.0498 -0.0155  0.1337
  954PNCE   C2A 8597  13.023  10.744   6.775 -0.0708  0.1196  0.1841
  954PNCE   C3A 8598  12.781  10.944   7.073 -0.1382  0.1394  0.4023
  954PNCE   C1B 8599  12.402  10.553   6.344 -0.2057 -0.3717 -0.0507
  954PNCE   C2B 8600  12.501  10.793   6.709  0.2844  0.4062  0.0834
  954PNCE   C3B 8601  12.411  11.240   6.836 -0.3165  0.0720  0.0974
  954PNCE   D4B 8602  12.438  11.338   7.204 -0.0940 -0.2269 -0.1258
  954PNCE   C5B 8603  12.758  11.306   7.550  0.2287 -0.0818 -0.0800
  954PNCE   C6B 8604  12.801  11.362   7.965  0.1648 -0.2346  0.1781
  955XCA    COO 8605  11.259   6.369   5.300 -0.0629  0.1042 -0.0973
  955XCA     C1 8606  11.311   6.183   5.723  0.1513 -0.1877 -0.1064
  955XCA     C2 8607  11.293   6.286   6.179 -0.1951 -0.1556  0.0166
  955XCA     C3 8608  11.067   6.346   6.479  0.2160  0.1646 -0.2656
  955XCA     C4 8609  10.657   6.369   6.663 -0.0613  0.2326 -0.3847
  955XCA     C5 8610  10.346   5.988   6.650 -0.2145  0.2549 -0.0134
  955XCA     C6 8611  10.229   5.733   7.005  0.1895  0.2265 -0.0787
  956PNCE   AM1 8612  12.057   1.348   4.742 -0.3408  0.0322  0.1229
  956PNCE   AM2 8613  11.856   1.135   4.719  0.0337  0.0397 -0.0126
  956PNCE   T1A 8614  12.282   1.430   5.138 -0.1630  0.0842  0.1863
  956PNCE   C2A 8615  12.410   1.331   5.590  0.0257 -0.0376 -0.1984
  956PNCE   C3A 8616  12.778   0.953   5.687 -0.3423  0.2573 -0.3723
  956PNCE   C1B 8617  11.958   1.023   5.096 -0.0561 -0.1226 -0.2147
  956PNCE   C2B 8618  11.980   1.092   5.561  0.0150 -0.0095 -0.1570
  956PNCE   C3B 8619  11.895   1.288   5.899  0.1638  0.2235  0.0543
  956PNCE   D4B 8620  11.728   1.106   6.268  0.2951 -0.4067  0.0561
  956PNCE   C5B 8621  11.557   1.354   6.534  0.2127 -0.1969  0.0129
  956PNCE   C6B 8622  11.282   1.604   6.470 -0.0830  0.0778 -0.1193
  957CHOL   ROH 8623  10.113  15.646   5.000  0.0445  0.0450  0.0183
  957CHOL    R1 8624  10.109  15.602   5.280  0.0485  0.0691  0.0221
  957CHOL    R2 8625   9.874  15.598   5.426  0.0416 -0.0232  0.0087
  957CHOL    R3 8626   9.966  15.355   5.506  0.1469  0.0256  0.0372
  957CHOL    R4 8627   9.944  15.512   5.753  0.0628  0.0406  0.0211
  957CHOL    R5 8628  10.121  15.406   5.682  0.1152  0.1129  0.0409
  957CHOL    C1 8629  10.072  15.234   6.019  0.1741  0.1235  0.0550
  957CHOL    C2 8630  10.134  15.134   6.392 -0.0046 -0.1624 -0.1126
  958PNCE   AM1 8631  13.686  15.301   5.369  0.0243  0.1272 -0.1848
  958PNCE   AM2 8632  13.689  15.605   5.199 -0.0835 -0.0167 -0.0510
  958PNCE   T1A 8633  13.751  15.397   5.774  0.4773  0.3228  0.1174
  958PNCE   C2A 8634  13.635  15.505   6.163 -0.0207  0.1210 -0.0230
  958PNCE   C3A 8635  13.601  15.809   6.503 -0.0658 -0.2742  0.1027
  958PNCE   C1B 8636  13.940  15.782   5.442 -0.1666 -0.0945  0.2666
  958PNCE   C2B 8637  14.166  15.674   5.799  0.1739 -0.2320 -0.0484
  958PNCE   C3B 8638  14.140  15.466   6.198  0.1765 -0.0531 -0.1349
  958PNCE   D4B 8639  14.071  15.777   6.453  0.0632 -0.0569  0.0077
  958PNCE   C5B 8640  13.990  15.713   6.910  0.0652  0.0794 -0.1755
  958PNCE   C6B 8641  14.046  16.109   7.159 -0.0698  0.1708 -0.1960
  959CHOL   ROH 8642   8.858  14.810   8.052  0.0651 -0.2981  0.2253
  959CHOL    R1 8643   8.846  14.613   7.849 -0.1065 -0.1738  0.1110
  959CHOL    R2 8644   9.047  14.428   7.809 -0.1100 -0.1168 -0.2123
  959CHOL    R3 8645   8.844  14.249   7.834 -0.0554 -0.1653 -0.1134
  959CHOL    R4 8646   9.082  14.085   7.781 -0.0440 -0.1096 -0.2159
  959CHOL    R5 8647   8.894  14.080   7.671 -0.0916 -0.1586 -0.1286
  959CHOL    C1 8648   8.912  13.717   7.788  0.0456 -0.1508 -0.1253
  959CHOL    C2 8649   8.711  13.427   7.897 -0.0894  0.0885  0.1678
  960CHOL   ROH 8650  14.036   1.405   4.825  0.2815 -0.0146  0.0180
  960CHOL    R1 8651  14.097   1.546   5.063 -0.0838  0.2148 -0.0159
  960CHOL    R2 8652  13.901   1.649   5.229 -0.3772 -0.3461  0.0166
  960CHOL    R3 8653  14.032   1.504   5.418  0.1196  0.0594  0.0043
  960CHOL    R4 8654  13.856   1.683   5.570 -0.2972 -0.3558  0.0276
  960CHOL    R5 8655  14.071   1.660   5.596 -0.2077  0.2329 -0.0696
  960CHOL    C1 8656  13.952   1.567   5.946  0.2158  0.0192  0.0224
  960CHOL    C2 8657  13.568   1.663   6.227 -0.0043 -0.1408  0.3459
  961PNCE   AM1 8658   4.740   5.142   3.965 -0.0425 -0.0294  0.0429
  961PNCE   AM2 8659   4.834   4.840   3.943 -0.0908  0.2047 -0.1583
  961PNCE   T1A 8660   4.510   4.965   4.392  0.0110 -0.0329  0.3150
  961PNCE   C2A 8661   4.496   5.058   4.839 -0.0583  0.0181 -0.0875
  961PNCE   C3A 8662   4.454   5.077   5.341  0.0437 -0.0711  0.1414
  961PNCE   C1B 8663   4.947   4.709   4.274  0.1091  0.1637 -0.1538
  961PNCE   C2B 8664   4.812   4.617   4.721  0.3639  0.1076 -0.0943
  961PNCE   C3B 8665   4.802   4.280   5.034 -0.0344 -0.2615 -0.2049
  961PNCE   D4B 8666   4.888   3.974   5.336 -0.1791  0.3155 -0.0269
  961PNCE   C5B 8667   5.257   3.648   5.349 -0.0921  0.1309  0.0155
  961PNCE   C6B 8668   5.559   3.604   5.649 -0.1441 -0.0859 -0.1629
  962CHOL   ROH 8669  13.106   3.645   5.298  0.2411 -0.2130  0.0037
  962CHOL    R1 8670  13.208   3.695   5.557  0.1345 -0.2442  0.0522
  962CHOL    R2 8671  13.072   3.848   5.743  0.1927 -0.0138 -0.0885
  962CHOL    R3 8672  13.104   3.628   5.899 -0.1714 -0.0025  0.0116
  962CHOL    R4 8673  13.019   3.838   6.085  0.2904  0.2621 -0.0629
  962CHOL    R5 8674  13.196   3.712   6.103  0.0635 -0.0687 -0.0642
  962CHOL    C1 8675  13.019   3.625   6.430  0.0056  0.4334  0.0460
  962CHOL    C2 8676  13.258   3.827   6.713 -0.0149  0.0778  0.0059
  963PNCE   AM1 8677  12.004  10.028   6.041  0.2583 -0.0608  0.2393
  963PNCE   AM2 8678  11.700  10.128   6.018  0.0450  0.0760  0.2498
  963PNCE   T1A 8679  11.768   9.967   6.492 -0.0994 -0.0645  0.1712
  963PNCE   C2A 8680  11.524   9.848   6.815  0.0812 -0.0282 -0.0508
  963PNCE   C3A 8681  11.286   9.636   7.161  0.4264  0.2074 -0.1710
  963PNCE   C1B 8682  11.292  10.091   6.383  0.0965 -0.1636  0.0905
  963PNCE   C2B 8683  11.092  10.136   6.801 -0.0153  0.4520 -0.0129
  963PNCE   C3B 8684  11.290  10.129   7.195  0.1534  0.0734 -0.1475
  963PNCE   D4B 8685  11.339  10.471   7.476 -0.2089  0.2966  0.1625
  963PNCE   C5B 8686  11.170  10.632   7.868 -0.2986 -0.2581 -0.4001
  963PNCE   C6B 8687  11.499  10.708   8.219  0.4006 -0.0113  0.0541
  964CHOL   ROH 8688  12.998   8.185   7.557 -0.1321 -0.1240 -0.1362
  964CHOL    R1 8689  13.065   8.023   7.779  0.0239  0.1590  0.0286
  964CHOL    R2 8690  13.004   7.755   7.792 -0.2559  0.2321  0.5520
  964CHOL    R3 8691  13.270   7.728   7.839 -0.2053  0.0299  0.1862
  964CHOL    R4 8692  13.145   7.514   7.995 -0.1420  0.0701  0.2855
  964CHOL    R5 8693  13.284   7.665   8.070  0.0650 -0.0513  0.1497
  964CHOL    C1 8694  13.478   7.349   8.158 -0.0280 -0.2141 -0.2130
  964CHOL    C2 8695  13.560   7.109   8.495  0.1820  0.2280 -0.1241
  965XCA    COO 8696   6.428   4.056   2.836  0.1806 -0.3203 -0.2354
  965XCA     C1 8697   6.459   4.128   3.314  0.0893 -0.0856 -0.1601
  965XCA     C2 8698   6.683   4.162   3.754  0.1853 -0.0753 -0.0655
  965XCA     C3 8699   6.619   4.105   4.267 -0.7394  0.0602 -0.2072
  965XCA     C4 8700   6.680   4.015   4.687 -0.0846 -0.0597 -0.2021
  965XCA     C5 8701   6.917   4.026   5.106  0.1364 -0.2243 -0.1280
  965XCA     C6 8702   6.879   4.046   5.574 -0.0758 -0.0159 -0.0846
  966XCA    COO 8703   3.222   9.737   8.508 -0.0647 -0.2190  0.2641
  966XCA     C1 8704   3.195   9.939   8.037 -0.0711 -0.1119  0.1102
  966XCA     C2 8705   3.127  10.276   7.755 -0.0252  0.3119 -0.3068
  966XCA     C3 8706   3.038  10.688   7.657  0.0023  0.2980 -0.2218
  966XCA     C4 8707   2.727  10.876   7.224  0.1090 -0.1861  0.2147
  966XCA     C5 8708   2.502  11.217   7.099  0.1194 -0.0469  0.2159
  966XCA     C6 8709   2.294  11.635   7.174  0.0228 -0.2779  0.0652
  967PNCE   AM1 8710   9.839   1.027   4.615  0.0206  0.0559 -0.1383
  967PNCE   AM2 8711  10.221   1.007   4.548  0.1163 -0.1252 -0.1372
  967PNCE   T1A 8712  10.016   0.828   4.996 -0.3401 -0.1184 -0.0722
  967PNCE   C2A 8713  10.082   0.771   5.403 -0.1155 -0.1163 -0.0816
  967PNCE   C3A 8714  10.058   0.789   5.805 -0.0006  0.0449  0.1210
  967PNCE   C1B 8715  10.132   1.323   4.917  0.0834 -0.5185 -0.1228
  967PNCE   C2B 8716   9.979   1.462   5.290  0.0983 -0.1382 -0.4096
  967PNCE   C3B 8717  10.112   1.636   5.611  0.1554 -0.1355  0.4382
  967PNCE   D4B 8718  10.118   1.451   6.102  0.0280 -0.4963 -0.1457
  967PNCE   C5B 8719  10.087   1.774   6.379  0.3568  0.0464 -0.1174
  967PNCE   C6B 8720   9.710   1.833   6.605 -0.2700 -0.1248  0.0643
  968PNCE   AM1 8721   0.215   6.806   3.927  0.1531 -0.1022  0.0412
  968PNCE   AM2 8722   0.534   6.896   4.274  0.0270 -0.0079 -0.2290
  968PNCE   T1A 8723  -0.019   7.032   4.150 -0.0594  0.0066 -0.3836
  968PNCE   C2A 8724  -0.159   7.264   4.559 -0.0380  0.1620  0.2227
  968PNCE   C3A 8725  -0.052   7.645   4.776 -0.2834 -0.0147  0.2200
  968PNCE   C1B 8726   0.350   6.973   4.665  0.2198 -0.0172  0.0403
  968PNCE   C2B 8727   0.195   6.987   5.051 -0.1304 -0.1329 -0.0166
  968PNCE   C3B 8728   0.265   6.788   5.402 -0.3416  0.0684 -0.2026
  968PNCE   D4B 8729   0.446   6.611   5.689 -0.1323 -0.2164  0.1466
  968PNCE   C5B 8730   0.786   6.326   5.699  0.1790  0.3481  0.2981
  968PNCE   C6B 8731   0.808   6.066   6.146  0.2005  0.2274  0.0547
  969PNCE   AM1 8732   9.181  13.160   5.164  0.0871  0.0212 -0.1059
  969PNCE   AM2 8733   8.831  13.290   5.158 -0.0460  0.0306  0.1041
  969PNCE   T1A 8734   9.187  13.194   5.526  0.0328  0.1093 -0.1452
  969PNCE   C2A 8735   9.003  13.102   5.954  0.0064  0.2554 -0.0573
  969PNCE   C3A 8736   8.759  13.392   6.300  0.2549  0.1207  0.2281
  969PNCE   C1B 8737   8.820  13.465   5.582  0.1209 -0.0503 -0.0531
  969PNCE   C2B 8738   9.083  13.580   5.839  0.0619 -0.1554 -0.0460
  969PNCE   C3B 8739   9.144  13.705   6.260  0.0913  0.1412  0.0515
  969PNCE   D4B 8740   9.191  14.012   6.431 -0.1025 -0.1405 -0.0206
  969PNCE   C5B 8741   9.517  14.006   6.696  0.0313  0.1692  0.1690
  969PNCE   C6B 8742   9.637  13.688   7.080  0.2032 -0.2963 -0.1932
  970CHOL   ROH 8743   9.114   8.921   5.609  0.3701 -0.1074 -0.2156
  970CHOL    R1 8744   9.171   8.687   5.758  0.1909 -0.0757 -0.0977
  970CHOL    R2 8745   9.152   8.678   6.033  0.0409  0.0364 -0.1148
  970CHOL    R3 8746   8.990   8.465   5.983 -0.0190  0.0774 -0.1071
  970CHOL    R4 8747   9.100   8.414   6.251  0.1624 -0.0442 -0.1799
  970CHOL    R5 8748   9.105   8.279   6.079  0.0374  0.0219 -0.2550
  970CHOL    C1 8749   8.917   8.061   6.330  0.1770 -0.0527 -0.2106
  970CHOL    C2 8750   8.603   7.918   6.366 -0.1483 -0.0520  0.0078
  971PNCE   AM1 8751   0.447  12.216   4.573 -0.4216  0.0795 -0.1714
  971PNCE   AM2 8752   0.617  12.527   4.687 -0.4657  0.0930 -0.2981
  971PNCE   T1A 8753   0.199  12.450   4.933  0.0291 -0.1937  0.3507
  971PNCE   C2A 8754   0.091  12.720   5.208 -0.0184  0.1879  0.1388
  971PNCE   C3A 8755   0.085  12.633   5.619 -0.1646 -0.1137 -0.1669
  971PNCE   C1B 8756   0.750  12.669   5.072  0.1498  0.2686  0.0102
  971PNCE   C2B 8757   0.631  12.749   5.474 -0.0999  0.1467  0.2118
  971PNCE   C3B 8758   0.903  12.790   5.926 -0.0544 -0.1357  0.0645
  971PNCE   D4B 8759   0.699  12.798   6.281 -0.3187  0.1082 -0.2269
  971PNCE   C5B 8760   0.796  12.910   6.728  0.0313  0.0523 -0.1609
  971PNCE   C6B 8761   0.837  12.765   7.181  0.1344 -0.0637  0.2053
  972CHOL   ROH 8762   6.552   0.396   5.597  0.0791 -0.1172 -0.0378
  972CHOL    R1 8763   6.828   0.351   5.637  0.0911 -0.1509 -0.1588
  972CHOL    R2 8764   7.018   0.549   5.600  0.0884 -0.1477 -0.1453
  972CHOL    R3 8765   7.089   0.482   5.854  0.1803 -0.2590 -0.1991
  972CHOL    R4 8766   7.330   0.603   5.738  0.0650  0.0258 -0.1572
  972CHOL    R5 8767   7.316   0.407   5.834  0.2437 -0.0548 -0.2849
  972CHOL    C1 8768   7.579   0.572   6.056  0.1376  0.0222 -0.2145
  972CHOL    C2 8769   7.987   0.685   5.931  0.1257  0.1449 -0.0441
  973PNCE   AM1 8770  14.865  12.513   4.787  0.0027 -0.1963  0.0526
  973PNCE   AM2 8771  14.879  12.297   4.617  0.0643  0.3544  0.0194
  973PNCE   T1A 8772  14.534  12.422   5.064  0.0103  0.0016 -0.1693
  973PNCE   C2A 8773  14.422  12.442   5.496  0.1861  0.2746 -0.1455
  973PNCE   C3A 8774  14.570  12.820   5.758  0.4229 -0.2861  0.1546
  973PNCE   C1B 8775  14.741  11.941   4.940 -0.3005 -0.4439 -0.0849
  973PNCE   C2B 8776  14.436  11.992   5.303  0.3266 -0.1335  0.4025
  973PNCE   C3B 8777  14.164  12.010   5.617  0.2395  0.0621  0.4705
  973PNCE   D4B 8778  13.788  12.342   5.600 -0.1730  0.3454  0.1498
  973PNCE   C5B 8779  13.939  12.815   5.580 -0.3016  0.1462  0.1466
  973PNCE   C6B 8780  13.673  13.371   5.546  0.3168  0.2604  0.0077
  974XCA    COO 8781  15.050   8.257   4.847 -0.1578 -0.1870  0.0715
  974XCA     C1 8782  15.000   8.458   5.163 -0.3443  0.2371  0.0930
  974XCA     C2 8783  14.817   8.673   5.547  0.3280 -0.0574  0.2133
  974XCA     C3 8784  14.831   8.569   5.877 -0.1827 -0.1758  0.0622
  974XCA     C4 8785  15.027   8.616   6.301 -0.1234  0.1807 -0.1456
  974XCA     C5 8786  15.316   8.344   6.479 -0.0200  0.0930  0.1650
  974XCA     C6 8787  15.219   7.916   6.643  0.0717  0.3715  0.1785
  975CHOL   ROH 8788   5.085   4.747   7.737 -0.0752  0.0936  0.0251
  975CHOL    R1 8789   5.123   4.979   7.579 -0.0582  0.0544 -0.0292
  975CHOL    R2 8790   5.298   4.987   7.366 -0.0049  0.0127  0.0119
  975CHOL    R3 8791   5.079   5.072   7.230  0.0203 -0.0460 -0.0661
  975CHOL    R4 8792   5.302   5.217   7.107  0.0133  0.0864  0.0773
  975CHOL    R5 8793   5.120   5.304   7.189 -0.0628 -0.0164  0.0177
  975CHOL    C1 8794   5.098   5.429   6.829  0.0476  0.0742  0.0422
  975CHOL    C2 8795   5.042   5.542   6.514  0.0634 -0.2260 -0.0937
  976XCA    COO 8796  11.347  12.852   9.451  0.2061 -0.4534 -0.1409
  976XCA     C1 8797  11.248  12.752   9.007 -0.2771  0.0819  0.3935
  976XCA     C2 8798  11.387  12.773   8.586 -0.1426 -0.1656  0.1651
  976XCA     C3 8799  11.633  12.515   8.434 -0.1766  0.0864  0.0149
  976XCA     C4 8800  11.874  12.326   8.092  0.0131  0.2227  0.2173
  976XCA     C5 8801  11.981  12.206   7.702 -0.2902  0.1828 -0.1477
  976XCA     C6 8802  12.128  11.809   7.523  0.0109  0.1154  0.1920
  977PNCE   AM1 8803   7.529  12.056   5.777  0.3283 -0.1147 -0.0124
  977PNCE   AM2 8804   7.495  12.164   5.516 -0.0161 -0.0277 -0.0836
  977PNCE   T1A 8805   7.279  11.900   6.146 -0.2788  0.2342  0.1630
  977PNCE   C2A 8806   7.004  11.754   6.400  0.1261  0.0117  0.5593
  977PNCE   C3A 8807   7.006  11.516   6.807  0.0027  0.3710  0.1494
  977PNCE   C1B 8808   7.217  12.519   5.522  0.1650  0.0931 -0.1987
  977PNCE   C2B 8809   6.841  12.844   5.701 -0.0443  0.0958  0.0856
  977PNCE   C3B 8810   6.748  13.271   5.798 -0.4313 -0.0275  0.0937
  977PNCE   D4B 8811   7.037  13.632   5.731  0.4044  0.0591 -0.1734
  977PNCE   C5B 8812   7.102  13.830   6.136  0.3137  0.3758  0.1971
  977PNCE   C6B 8813   7.189  14.142   6.396 -0.0294 -0.0630 -0.0515
  978XCA    COO 8814   1.823   6.109   4.675  0.0965 -0.2991 -0.2031
  978XCA     C1 8815   1.454   6.247   4.997  0.0254  0.0233 -0.1058
  978XCA     C2 8816   1.208   6.598   5.274  0.0533  0.1384  0.0256
  978XCA     C3 8817   1.234   6.721   5.673 -0.1751  0.0884 -0.1513
  978XCA     C4 8818   1.373   6.846   6.114  0.2202  0.4524 -0.1453
  978XCA     C5 8819   1.122   6.976   6.388  0.0433  0.2974  0.0211
  978XCA     C6 8820   0.717   7.177   6.472 -0.1993  0.1130  0.0052
  979PNCE   AM1 8821  11.577   7.665   5.629  0.0812 -0.2203 -0.3865
  979PNCE   AM2 8822  11.900   7.431   5.529  0.0228 -0.2237 -0.1343
  979PNCE   T1A 8823  11.246   7.926   5.810 -0.0565 -0.2743 -0.1577
  979PNCE   C2A 8824  11.201   8.102   6.272 -0.1676 -0.1259 -0.0505
  979PNCE   C3A 8825  11.187   8.109   6.678 -0.1015  0.4982 -0.3327
  979PNCE   C1B 8826  11.924   7.465   5.990  0.4049  0.1171 -0.0864
  979PNCE   C2B 8827  11.765   7.597   6.320 -0.1662  0.0108 -0.0558
  979PNCE   C3B 8828  11.620   7.557   6.753  0.0721 -0.1132  0.0390
  979PNCE   D4B 8829  11.493   7.698   7.177  0.0433  0.1685 -0.2653
  979PNCE   C5B 8830  11.009   7.418   7.267 -0.2436 -0.0348 -0.0496
  979PNCE   C6B 8831  10.618   7.406   7.171 -0.2507  0.0204 -0.2752
  980PNCE   AM1 8832  14.641   5.289   4.988  0.2014  0.0092 -0.1919
  980PNCE   AM2 8833  14.392   5.243   5.141 -0.3571  0.2875 -0.1935
  980PNCE   T1A 8834  14.804   5.079   5.433 -0.0559  0.0110  0.0532
  980PNCE   C2A 8835  14.903   5.135   5.889  0.1694 -0.0037 -0.2666
  980PNCE   C3A 8836  15.157   4.921   6.120 -0.0885 -0.1129 -0.0152
  980PNCE   C1B 8837  14.443   5.355   5.642  0.1513  0.0346 -0.0025
  980PNCE   C2B 8838  14.432   5.155   6.038  0.4973 -0.1615  0.0280
  980PNCE   C3B 8839  14.613   4.833   6.178 -0.1296  0.2065  0.0134
  980PNCE   D4B 8840  14.704   4.496   6.468  0.1012  0.2053  0.2626
  980PNCE   C5B 8841  14.636   4.697   6.904 -0.1587 -0.2038  0.1700
  980PNCE   C6B 8842  14.348   4.595   7.033 -0.2036  0.1883 -0.0432
  981PNCE   AM1 8843   3.329   1.909   4.258 -0.3413  0.1475 -0.1202
  981PNCE   AM2 8844   3.340   1.562   4.382 -0.0523  0.0491  0.1827
  981PNCE   T1A 8845   3.418   2.310   4.425 -0.3717  0.0729  0.0168
  981PNCE   C2A 8846   3.494   2.520   4.782  0.4608 -0.0560 -0.1035
  981PNCE   C3A 8847   3.404   2.722   5.161  0.2382 -0.2388 -0.1057
  981PNCE   C1B 8848   3.454   1.675   4.847 -0.0722 -0.2377 -0.0214
  981PNCE   C2B 8849   3.657   1.734   5.167 -0.0565  0.0792  0.0545
  981PNCE   C3B 8850   3.991   1.773   5.453 -0.3304  0.0596  0.0783
  981PNCE   D4B 8851   4.202   2.150   5.699 -0.0560 -0.4754 -0.0233
  981PNCE   C5B 8852   3.971   2.485   5.480  0.1075 -0.0460 -0.3168
  981PNCE   C6B 8853   3.902   2.627   5.091  0.0382 -0.0967  0.0022
  982CHOL   ROH 8854  12.830   5.005   5.581 -0.0491  0.1219 -0.0635
  982CHOL    R1 8855  12.831   4.932   5.854 -0.0942  0.2239 -0.0353
  982CHOL    R2 8856  13.048   4.812   5.975 -0.2253 -0.0201 -0.0327
  982CHOL    R3 8857  13.024   5.018   6.151  0.0803  0.0841 -0.1071
  982CHOL    R4 8858  13.110   4.791   6.315 -0.3316 -0.0069 -0.0123
  982CHOL    R5 8859  12.936   4.917   6.349 -0.1314  0.2971 -0.0904
  982CHOL    C1 8860  13.123   4.972   6.677 -0.1065  0.0987 -0.0703
  982CHOL    C2 8861  13.398   4.826   6.945  0.0591  0.3873  0.0198
  983PNCE   AM1 8862   5.142  12.835   4.775  0.2180 -0.1483  0.0954
  983PNCE   AM2 8863   4.916  12.996   5.022 -0.1944 -0.0866  0.0645
  983PNCE   T1A 8864   5.336  12.828   5.216  0.0552 -0.2227  0.1411
  983PNCE   C2A 8865   5.387  13.019   5.580 -0.0735 -0.0510  0.1510
  983PNCE   C3A 8866   5.374  13.430   5.689  0.2956  0.1304 -0.0407
  983PNCE   C1B 8867   4.887  13.406   5.203  0.0398  0.3748  0.0822
  983PNCE   C2B 8868   4.909  13.601   5.609 -0.1556 -0.2351  0.3219
  983PNCE   C3B 8869   4.895  13.572   6.015 -0.1430  0.0604  0.0361
  983PNCE   D4B 8870   4.625  13.313   6.337  0.1951  0.1255 -0.0993
  983PNCE   C5B 8871   4.603  12.908   6.226  0.3387  0.0617 -0.0678
  983PNCE   C6B 8872   4.888  12.616   6.106 -0.4106 -0.0985  0.3045
  984XCA    COO 8873   5.550  11.290   8.785  0.1430 -0.0475 -0.0599
  984XCA     C1 8874   5.838  10.949   8.569  0.0661 -0.3076  0.0087
  984XCA     C2 8875   6.069  11.027   8.135 -0.2902  0.2413  0.0545
  984XCA     C3 8876   6.325  11.127   7.829  0.1191 -0.0673  0.3426
  984XCA     C4 8877   6.367  11.479   7.557  0.0855 -0.1137 -0.1373
  984XCA     C5 8878   6.537  11.860   7.590  0.1888  0.1641  0.1261
  984XCA     C6 8879   6.546  11.975   7.170 -0.1735 -0.0777  0.1060
  985CHOL   ROH 8880  15.402   8.208   5.163 -0.0054 -0.2136 -0.0453
  985CHOL    R1 8881  15.564   8.108   5.373  0.1466  0.0458 -0.0341
  985CHOL    R2 8882  15.733   8.270   5.521 -0.2018  0.3473  0.0501
  985CHOL    R3 8883  15.596   8.165   5.731 -0.0517  0.0182 -0.0101
  985CHOL    R4 8884  15.801   8.335   5.853 -0.3513  0.3259  0.0857
  985CHOL    R5 8885  15.764   8.125   5.897  0.0033  0.2351 -0.0095
  985CHOL    C1 8886  15.713   8.275   6.244 -0.2974  0.0046  0.0499
  985CHOL    C2 8887  15.963   8.416   6.516  0.1241 -0.1465 -0.1448
  986CHOL   ROH 8888  10.623  10.514   6.426 -0.0335 -0.0791  0.1752
  986CHOL    R1 8889  10.504  10.701   6.603 -0.0643  0.1484 -0.0788
  986CHOL    R2 8890  10.518  10.675   6.878 -0.4698  0.2670 -0.0403
  986CHOL    R3 8891  10.619  10.927   6.864 -0.1577  0.1461 -0.0357
  986CHOL    R4 8892  10.524  10.900   7.140 -0.4864  0.3633 -0.1220
  986CHOL    R5 8893  10.471  11.058   7.000 -0.1523  0.3743 -0.2437
  986CHOL    C1 8894  10.623  11.267   7.281 -0.2029  0.3057 -0.1652
  986CHOL    C2 8895  10.904  11.412   7.506 -0.3283 -0.4119 -0.0074
  987XCA    COO 8896  13.259   5.730   9.983  0.1610  0.0590 -0.0724
  987XCA     C1 8897  13.377   5.942   9.615  0.0957  0.0615  0.0298
  987XCA     C2 8898  13.608   5.920   9.213  0.0072 -0.1313 -0.3242
  987XCA     C3 8899  13.825   6.140   8.921 -0.1042  0.0881  0.0270
  987XCA     C4 8900  13.804   6.185   8.522  0.1666  0.2746 -0.0333
  987XCA     C5 8901  13.483   6.279   8.163 -0.4173  0.4849 -0.0400
  987XCA     C6 8902  13.182   6.308   7.966 -0.0072 -0.1843 -0.0314
  988PNCE   AM1 8903   2.074   7.231   4.972  0.1337  0.1744 -0.2856
  988PNCE   AM2 8904   1.750   7.111   4.916  0.0550 -0.1646  0.2080
  988PNCE   T1A 8905   1.813   7.347   5.416  0.0555  0.1600 -0.0416
  988PNCE   C2A 8906   1.594   7.395   5.770 -0.0322 -0.0757  0.3490
  988PNCE   C3A 8907   1.508   7.387   6.133  0.0834  0.0524  0.3206
  988PNCE   C1B 8908   1.751   6.818   5.247 -0.0619 -0.3504 -0.1546
  988PNCE   C2B 8909   1.736   6.899   5.680 -0.2624 -0.1417  0.1840
  988PNCE   C3B 8910   1.811   7.022   6.056 -0.2399  0.0464 -0.0254
  988PNCE   D4B 8911   2.052   7.349   6.246 -0.3267 -0.0086 -0.0108
  988PNCE   C5B 8912   2.010   7.504   6.576 -0.3622 -0.5213  0.1960
  988PNCE   C6B 8913   2.272   7.715   6.835 -0.4149  0.0568 -0.1209
  989CHOL   ROH 8914   0.032   8.446   5.162 -0.3255 -0.0732  0.1635
  989CHOL    R1 8915   0.235   8.609   5.272 -0.2473 -0.0339 -0.0330
  989CHOL    R2 8916   0.195   8.876   5.331 -0.2676 -0.0588  0.0791
  989CHOL    R3 8917   0.282   8.801   5.578  0.0450 -0.0943 -0.0386
  989CHOL    R4 8918   0.334   9.090   5.565 -0.5061  0.0197  0.1521
  989CHOL    R5 8919   0.478   8.934   5.614 -0.1749  0.2476 -0.0717
  989CHOL    C1 8920   0.497   9.144   5.932 -0.3516  0.0320  0.0841
  989CHOL    C2 8921   0.798   9.266   6.148 -0.3403  0.3721  0.0926
  990CHOL   ROH 8922   7.055   0.395   3.729  0.0654 -0.0620  0.0531
  990CHOL    R1 8923   6.896   0.577   3.877  0.0422 -0.1825  0.1799
  990CHOL    R2 8924   6.981   0.689   4.115  0.2137 -0.0013  0.0415
  990CHOL    R3 8925   6.924   0.922   3.988 -0.1977 -0.1092  0.0153
  990CHOL    R4 8926   6.876   0.979   4.271  0.2115 -0.0151  0.0646
  990CHOL    R5 8927   6.737   1.011   4.107 -0.0845 -0.2155  0.2732
  990CHOL    C1 8928   6.761   1.367   4.243 -0.1759 -0.1245  0.0535
  990CHOL    C2 8929   6.628   1.499   4.521 -0.1018 -0.0975  0.1713
  991CHOL   ROH 8930  10.718  15.275   7.677 -0.0266  0.0511 -0.0983
  991CHOL    R1 8931  10.482  15.192   7.546 -0.0095  0.0102 -0.1034
  991CHOL    R2 8932  10.464  15.174   7.270 -0.0105  0.0383 -0.1054
  991CHOL    R3 8933  10.384  14.920   7.325  0.0514  0.0124 -0.1336
  991CHOL    R4 8934  10.295  14.968   7.050 -0.1176  0.0853 -0.0675
  991CHOL    R5 8935  10.171  14.900   7.216 -0.0116  0.0212 -0.0142
  991CHOL    C1 8936  10.121  14.610   6.973 -0.1220  0.0884 -0.0720
  991CHOL    C2 8937   9.869  14.398   6.804 -0.1012  0.4439 -0.0346
  992CHOL   ROH 8938   8.192   6.145   7.263 -0.0878  0.1296 -0.1498
  992CHOL    R1 8939   8.296   6.325   7.072  0.0046 -0.0362 -0.2563
  992CHOL    R2 8940   8.443   6.549   7.142 -0.1832  0.1200 -0.3654
  992CHOL    R3 8941   8.626   6.443   6.971  0.0439  0.0180 -0.0689
  992CHOL    R4 8942   8.657   6.733   6.943  0.0582  0.0016 -0.2214
  992CHOL    R5 8943   8.623   6.590   6.782  0.2711 -0.1070 -0.1739
  992CHOL    C1 8944   8.954   6.740   6.667  0.4118 -0.1630  0.1407
  992CHOL    C2 8945   9.113   6.999   6.451  0.0907 -0.2282 -0.1451
  993CHOL   ROH 8946   9.474   3.091   6.794  0.0192  0.0644 -0.0986
  993CHOL    R1 8947   9.560   3.310   6.636 -0.0738  0.1271 -0.0632
  993CHOL    R2 8948   9.439   3.558   6.647 -0.1056  0.1067  0.0628
  993CHOL    R3 8949   9.692   3.643   6.695 -0.0984  0.1272 -0.0089
  993CHOL    R4 8950   9.539   3.888   6.642 -0.1426  0.1185  0.0845
  993CHOL    R5 8951   9.723   3.826   6.543 -0.1698  0.1562  0.0117
  993CHOL    C1 8952   9.836   4.162   6.685 -0.1575  0.1447  0.0299
  993CHOL    C2 8953   9.693   4.273   6.288 -0.0914 -0.2310  0.0407
  994CHOL   ROH 8954   1.530  13.745   8.547 -0.1810  0.1888 -0.0876
  994CHOL    R1 8955   1.636  13.523   8.406 -0.0247  0.1606  0.0714
  994CHOL    R2 8956   1.551  13.454   8.152 -0.1174 -0.1963  0.1949
  994CHOL    R3 8957   1.816  13.471   8.094 -0.1696  0.0455  0.0053
  994CHOL    R4 8958   1.705  13.299   7.884 -0.1345 -0.2351  0.2073
  994CHOL    R5 8959   1.873  13.252   8.014  0.0080  0.0418  0.1329
  994CHOL    C1 8960   2.043  13.224   7.674 -0.1934 -0.0306  0.0365
  994CHOL    C2 8961   2.232  13.079   7.413  0.1177  0.0716 -0.1225
  995PNCE   AM1 8962  12.058   8.621   9.933 -0.0928  0.6170  0.0409
  995PNCE   AM2 8963  12.154   8.556   9.697  0.1124 -0.0868  0.0769
  995PNCE   T1A 8964  11.701   8.481   9.682  0.1422 -0.4298 -0.0214
  995PNCE   C2A 8965  11.651   8.514   9.271 -0.3353 -0.0835 -0.0384
  995PNCE   C3A 8966  11.607   8.667   8.880 -0.1429 -0.0338 -0.0024
  995PNCE   C1B 8967  12.173   8.574   9.277 -0.0288  0.1401  0.2283
  995PNCE   C2B 8968  12.108   8.602   8.898 -0.4071 -0.0983  0.0916
  995PNCE   C3B 8969  12.034   8.803   8.491 -0.1158  0.1764 -0.4133
  995PNCE   D4B 8970  12.265   9.176   8.150  0.0473 -0.3087  0.0266
  995PNCE   C5B 8971  12.132   9.584   8.223  0.0197  0.2623  0.1523
  995PNCE   C6B 8972  11.766   9.751   8.375  0.6825  0.4601 -0.0739
  996CHOL   ROH 8973   4.389  11.348   4.864  0.1181  0.3648  0.2599
  996CHOL    R1 8974   4.484  11.235   5.105 -0.0364  0.1346  0.2198
  996CHOL    R2 8975   4.716  11.322   5.230  0.1465 -0.2818  0.2243
  996CHOL    R3 8976   4.550  11.351   5.444  0.2038 -0.0547  0.2365
  996CHOL    R4 8977   4.810  11.293   5.562  0.1011 -0.4379  0.2217
  996CHOL    R5 8978   4.624  11.188   5.601 -0.0386 -0.1628  0.2241
  996CHOL    C1 8979   4.709  11.303   5.954  0.1285 -0.3156  0.2315
  996CHOL    C2 8980   4.635  11.334   6.400  0.1577 -0.0352  0.0152
  997PNCE   AM1 8981   6.358  10.772   5.205 -0.1105  0.0735 -0.2926
  997PNCE   AM2 8982   6.589  11.023   5.387  0.1409  0.0953 -0.0281
  997PNCE   T1A 8983   6.031  10.464   5.430 -0.3567  0.0123  0.0818
  997PNCE   C2A 8984   6.044  10.128   5.713 -0.0599  0.3366 -0.1888
  997PNCE   C3A 8985   5.867   9.800   6.068 -0.0549 -0.1094 -0.3385
  997PNCE   C1B 8986   6.461  10.697   5.694 -0.0076  0.2278 -0.1258
  997PNCE   C2B 8987   6.315  10.382   6.004 -0.0287  0.2126 -0.1624
  997PNCE   C3B 8988   6.257  10.123   6.300 -0.1656  0.1062 -0.1695
  997PNCE   D4B 8989   6.066   9.856   6.667 -0.0058 -0.1224 -0.2007
  997PNCE   C5B 8990   6.107   9.351   6.759  0.1967  0.2022  0.2089
  997PNCE   C6B 8991   6.094   8.968   7.089 -0.0293 -0.0982  0.0868
  998PNCE   AM1 8992   8.492  13.700   4.851  0.0255  0.1147 -0.5452
  998PNCE   AM2 8993   8.133  13.378   4.996  0.0557 -0.0636  0.0812
  998PNCE   T1A 8994   8.864  13.860   4.980  0.0493 -0.2173  0.0366
  998PNCE   C2A 8995   8.953  14.001   5.466 -0.4121  0.1139  0.0921
  998PNCE   C3A 8996   8.817  14.118   5.877 -0.0602 -0.2415 -0.2700
  998PNCE   C1B 8997   8.258  13.361   5.417  0.2217 -0.2823  0.1381
  998PNCE   C2B 8998   8.419  13.613   5.840  0.3209  0.4580 -0.1361
  998PNCE   C3B 8999   8.570  13.823   6.218 -0.3839  0.3106  0.1054
  998PNCE   D4B 9000   8.758  13.877   6.694 -0.1302  0.1853  0.0163
  998PNCE   C5B 9001   9.160  13.630   6.761 -0.0453  0.3197 -0.1943
  998PNCE   C6B 9002   9.483  13.450   6.676 -0.1415  0.1198 -0.0425
  999CHOL   ROH 9003  14.179   6.540   8.779  0.0281  0.0813  0.1025
  999CHOL    R1 9004  14.284   6.539   8.516 -0.1089  0.1587  0.0465
  999CHOL    R2 9005  14.449   6.338   8.422 -0.0205  0.2731 -0.0427
  999CHOL    R3 9006  14.264   6.323   8.224 -0.1151  0.1505  0.0525
  999CHOL    R4 9007  14.494   6.173   8.122 -0.1754  0.0540  0.0511
  999CHOL    R5 9008  14.392   6.337   8.022 -0.2054 -0.0049 -0.0190
  999CHOL    C1 9009  14.347   6.063   7.761 -0.3544 -0.1886  0.1949
  999CHOL    C2 9010  14.380   5.949   7.451  0.3480 -0.0275  0.3869
 1000CHOL   ROH 9011   8.372   7.182   6.059  0.0968  0.1246 -0.2891
 1000CHOL    R1 9012   8.453   6.922   6.138  0.0795  0.0998 -0.3564
 1000CHOL    R2 9013   8.702   6.819   6.075  0.1716  0.2064 -0.1518
 1000CHOL    R3 9014   8.717   6.779   6.343 -0.1027  0.0435 -0.1551
 1000CHOL    R4 9015   8.770   6.516   6.225  0.0928  0.1243 -0.2776
 1000CHOL    R5 9016   8.620   6.563   6.377 -0.0865 -0.0097 -0.3999
 1000CHOL    C1 9017   8.825   6.301   6.565 -0.2106 -0.0764 -0.3539
 1000CHOL    C2 9018   9.047   5.924   6.650  0.2322 -0.1519 -0.0592
 1001XCA    COO 9019  12.968   2.163   8.674  0.1606  0.0728  0.1176
 1001XCA     C1 9020  12.939   2.100   8.243 -0.0353  0.0999  0.1046
 1001XCA     C2 9021  13.050   1.960   7.851 -0.1272  0.0050 -0.2775
 1001XCA     C3 9022  13.018   2.025   7.437 -0.0725 -0.1016  0.0603
 1001XCA     C4 9023  13.151   2.288   7.246 -0.2257  0.1989  0.0404
 1001XCA     C5 9024  13.282   2.421   6.858 -0.3630 -0.1026  0.1848
 1001XCA     C6 9025  13.138   2.684   6.503 -0.0899  0.1400  0.2782
 1002CHOL   ROH 9026  15.665  13.317   8.304 -0.0870 -0.1366  0.0402
 1002CHOL    R1 9027  15.454  13.334   8.116  0.0208  0.1820 -0.0595
 1002CHOL    R2 9028  15.469  13.492   7.890  0.4027  0.0998 -0.1034
 1002CHOL    R3 9029  15.410  13.259   7.762  0.0531  0.1595 -0.0577
 1002CHOL    R4 9030  15.421  13.460   7.549  0.5381  0.0683 -0.1194
 1002CHOL    R5 9031  15.257  13.323   7.590  0.2648  0.3784 -0.1664
 1002CHOL    C1 9032  15.338  13.222   7.231  0.2887  0.1058 -0.0858
 1002CHOL    C2 9033  15.344  12.981   6.865 -0.1232 -0.0301 -0.0944
 1003PNCE   AM1 9034   1.039  10.245   4.413 -0.2652  0.2801 -0.1094
 1003PNCE   AM2 9035   1.159   9.909   4.369  0.0402 -0.2773 -0.1549
 1003PNCE   T1A 9036   0.853  10.397   4.785  0.2916 -0.0458 -0.1177
 1003PNCE   C2A 9037   0.673  10.602   5.187 -0.0079  0.0520  0.1329
 1003PNCE   C3A 9038   0.563  10.740   5.602 -0.2325 -0.1475  0.3691
 1003PNCE   C1B 9039   1.115   9.847   4.809  0.1235 -0.0947 -0.0085
 1003PNCE   C2B 9040   1.167   9.758   5.211  0.1074  0.1998  0.0612
 1003PNCE   C3B 9041   1.408   9.869   5.551 -0.3532 -0.2439 -0.0086
 1003PNCE   D4B 9042   1.569   9.838   6.022 -0.1331  0.0430  0.2247
 1003PNCE   C5B 9043   1.551  10.231   6.134 -0.1512 -0.0602 -0.1000
 1003PNCE   C6B 9044   1.613  10.735   6.110  0.2504  0.3226 -0.1579
 1004CHOL   ROH 9045   6.120  13.348   8.076  0.1203  0.1743  0.1834
 1004CHOL    R1 9046   6.295  13.149   8.176  0.2216  0.1763  0.0115
 1004CHOL    R2 9047   6.226  12.882   8.184  0.2118  0.1868  0.1243
 1004CHOL    R3 9048   6.458  12.851   8.046  0.0570  0.1465 -0.1348
 1004CHOL    R4 9049   6.377  12.578   8.116  0.3921  0.1832  0.5077
 1004CHOL    R5 9050   6.570  12.671   8.156  0.3736  0.4533  0.0753
 1004CHOL    C1 9051   6.683  12.373   7.946  0.3519  0.1434  0.4876
 1004CHOL    C2 9052   6.936  12.265   7.707  0.1763  0.0280 -0.0687
 1005PNCE   AM1 9053   4.186   1.123   3.898 -0.1898 -0.0246 -0.1160
 1005PNCE   AM2 9054   3.873   1.158   4.089  0.0237 -0.1954  0.1809
 1005PNCE   T1A 9055   4.332   1.009   4.304  0.2452  0.0697  0.1445
 1005PNCE   C2A 9056   4.272   1.225   4.768 -0.0006 -0.1310 -0.0173
 1005PNCE   C3A 9057   4.145   1.689   4.957 -0.2492 -0.4387  0.3194
 1005PNCE   C1B 9058   3.985   1.424   4.453 -0.5522 -0.1131  0.1105
 1005PNCE   C2B 9059   3.878   1.784   4.597 -0.0469 -0.0158  0.2790
 1005PNCE   C3B 9060   3.832   2.105   4.909 -0.0144 -0.3433 -0.3114
 1005PNCE   D4B 9061   4.218   2.261   5.143  0.3485  0.0389 -0.0943
 1005PNCE   C5B 9062   4.497   1.976   5.331  0.0010 -0.1422  0.0331
 1005PNCE   C6B 9063   4.493   1.553   5.380  0.0028 -0.2692  0.3214
 1006PNCE   AM1 9064   5.229   4.175   3.634  0.2309  0.2366 -0.1632
 1006PNCE   AM2 9065   5.059   3.868   3.765 -0.0410 -0.0085  0.0850
 1006PNCE   T1A 9066   5.381   4.428   3.892 -0.0264 -0.0566 -0.0292
 1006PNCE   C2A 9067   5.724   4.619   4.148  0.1350  0.0540  0.0174
 1006PNCE   C3A 9068   5.870   4.625   4.554 -0.0870  0.2713  0.0899
 1006PNCE   C1B 9069   4.965   3.646   4.090  0.1352 -0.0423  0.3235
 1006PNCE   C2B 9070   4.903   3.501   4.544  0.0527 -0.2187  0.2655
 1006PNCE   C3B 9071   4.666   3.805   4.848  0.1296  0.1446  0.3049
 1006PNCE   D4B 9072   4.302   3.910   5.170  0.1135  0.2101  0.0363
 1006PNCE   C5B 9073   4.449   4.231   5.405 -0.2064 -0.0256 -0.0347
 1006PNCE   C6B 9074   4.235   4.547   5.233  0.1618 -0.1155  0.2894
 1007PNCE   AM1 9075  13.196   4.173   4.955  0.0108  0.0191 -0.1845
 1007PNCE   AM2 9076  13.500   4.345   4.960  0.0886  0.0170  0.2479
 1007PNCE   T1A 9077  13.202   4.224   5.379 -0.1215 -0.1463 -0.0538
 1007PNCE   C2A 9078  13.367   4.502   5.666 -0.2491 -0.4650 -0.1331
 1007PNCE   C3A 9079  13.641   4.769   5.435  0.1427 -0.1864 -0.2615
 1007PNCE   C1B 9080  13.685   4.282   5.332  0.0379  0.0373  0.1375
 1007PNCE   C2B 9081  13.869   4.248   5.752 -0.1627 -0.4346  0.1327
 1007PNCE   C3B 9082  13.901   4.678   5.858  0.1478  0.1770  0.4634
 1007PNCE   D4B 9083  14.106   4.808   6.120 -0.3525  0.1709 -0.1179
 1007PNCE   C5B 9084  14.192   4.727   6.488 -0.2031  0.1952 -0.0966
 1007PNCE   C6B 9085  14.193   4.303   6.593  0.0738 -0.0039  0.0343
 1008CHOL   ROH 9086   3.991   2.506   6.345 -0.1252 -0.0502 -0.1956
 1008CHOL    R1 9087   3.752   2.360   6.304 -0.1427 -0.0034 -0.2568
 1008CHOL    R2 9088   3.515   2.424   6.432 -0.1302 -0.0299 -0.2291
 1008CHOL    R3 9089   3.418   2.430   6.178 -0.1370  0.0892 -0.2251
 1008CHOL    R4 9090   3.187   2.364   6.344 -0.0953 -0.1843 -0.2597
 1008CHOL    R5 9091   3.258   2.252   6.171 -0.0222 -0.0164 -0.3452
 1008CHOL    C1 9092   2.904   2.334   6.054 -0.0814 -0.1624 -0.2737
 1008CHOL    C2 9093   2.741   2.539   5.722 -0.0240 -0.0454 -0.1317
 1009CHOL   ROH 9094  13.575   6.977   9.296  0.1901  0.0892 -0.1913
 1009CHOL    R1 9095  13.337   6.909   9.158  0.0585 -0.0682  0.1062
 1009CHOL    R2 9096  13.301   6.960   8.889 -0.4019  0.1222  0.1988
 1009CHOL    R3 9097  13.246   6.694   8.879 -0.1092  0.0622  0.0586
 1009CHOL    R4 9098  13.186   6.793   8.609 -0.4270  0.1920  0.1664
 1009CHOL    R5 9099  13.052   6.679   8.738 -0.2045 -0.0529  0.1947
 1009CHOL    C1 9100  13.068   6.446   8.436 -0.1667  0.1762  0.0160
 1009CHOL    C2 9101  12.920   6.038   8.315 -0.1035 -0.3606  0.1198
 1010CHOL   ROH 9102   9.509  12.903   5.604 -0.0951 -0.0763  0.0305
 1010CHOL    R1 9103   9.466  12.979   5.873 -0.0556  0.0795 -0.0056
 1010CHOL    R2 9104   9.544  12.822   6.086 -0.2081  0.1038  0.0743
 1010CHOL    R3 9105   9.673  13.048   6.165 -0.0212  0.0307 -0.0199
 1010CHOL    R4 9106   9.662  12.880   6.406 -0.3148  0.2178  0.0930
 1010CHOL    R5 9107   9.594  13.087   6.387 -0.0965  0.2726 -0.0899
 1010CHOL    C1 9108   9.852  13.127   6.665 -0.2014  0.2154  0.0155
 1010CHOL    C2 9109  10.016  13.443   6.783  0.0572  0.1285  0.2382
 1011XCA    COO 9110   5.048   7.103   8.506 -0.1226  0.0403 -0.2338
 1011XCA     C1 9111   4.839   6.750   8.325  0.0773  0.0864  0.1105
 1011XCA     C2 9112   4.948   6.522   7.956 -0.0637 -0.2704  0.1033
 1011XCA     C3 9113   4.811   6.429   7.488 -0.0932 -0.4022 -0.1728
 1011XCA     C4 9114   4.824   6.647   7.046 -0.0181 -0.0492 -0.1002
 1011XCA     C5 9115   4.572   6.806   6.674 -0.1576 -0.3653  0.1167
 1011XCA     C6 9116   4.208   6.645   6.745  0.0282  0.1733 -0.0489
 1012PNCE   AM1 9117  13.753   7.645   5.376 -0.1776 -0.1801  0.1575
 1012PNCE   AM2 9118  13.453   7.589   5.485  0.0101 -0.3112  0.0754
 1012PNCE   T1A 9119  13.605   8.070   5.572  0.0768 -0.1629  0.1487
 1012PNCE   C2A 9120  13.536   8.200   6.087 -0.0609  0.2705 -0.0182
 1012PNCE   C3A 9121  13.553   8.103   6.638 -0.0151  0.1363  0.1456
 1012PNCE   C1B 9122  13.609   7.694   5.931  0.0258  0.0696  0.1689
 1012PNCE   C2B 9123  13.745   7.765   6.272 -0.3092 -0.0143  0.1667
 1012PNCE   C3B 9124  13.831   7.667   6.742 -0.1042  0.1042 -0.1758
 1012PNCE   D4B 9125  13.929   7.748   7.152 -0.1073  0.0667  0.1687
 1012PNCE   C5B 9126  14.406   7.896   7.255 -0.0473  0.1023  0.0409
 1012PNCE   C6B 9127  14.827   7.693   7.211  0.0755  0.1354  0.0174
 1013CHOL   ROH 9128   7.794  12.247   9.027 -0.0366 -0.0315  0.0403
 1013CHOL    R1 9129   7.877  12.147   8.775  0.0770 -0.0565  0.0872
 1013CHOL    R2 9130   7.701  12.099   8.569  0.1401 -0.2856  0.0844
 1013CHOL    R3 9131   7.869  12.262   8.430  0.0182 -0.1937  0.0423
 1013CHOL    R4 9132   7.725  12.110   8.224  0.0136 -0.2388  0.0763
 1013CHOL    R5 9133   7.941  12.128   8.245  0.0145 -0.1424  0.0026
 1013CHOL    C1 9134   7.897  12.268   7.893 -0.1744 -0.1252  0.0321
 1013CHOL    C2 9135   7.860  12.285   7.503 -0.1100 -0.3653  0.1228
 1014PNCE   AM1 9136   3.173   6.069   4.048 -0.1380  0.1594 -0.1574
 1014PNCE   AM2 9137   2.850   6.042   4.136  0.4765 -0.1350  0.2477
 1014PNCE   T1A 9138   3.348   6.430   4.280  0.4529  0.1354 -0.0068
 1014PNCE   C2A 9139   3.543   6.865   4.383 -0.2795 -0.0625 -0.3179
 1014PNCE   C3A 9140   3.712   7.106   4.778  0.3937  0.0833  0.0663
 1014PNCE   C1B 9141   2.869   6.225   4.581 -0.2443 -0.3216  0.2261
 1014PNCE   C2B 9142   2.786   6.452   4.975  0.1506 -0.0691  0.0129
 1014PNCE   C3B 9143   2.571   6.546   5.320 -0.2813  0.3516  0.3769
 1014PNCE   D4B 9144   2.556   6.579   5.783  0.0988 -0.1715  0.1548
 1014PNCE   C5B 9145   2.587   6.293   6.174 -0.2381 -0.0967  0.0936
 1014PNCE   C6B 9146   2.683   6.322   6.623  0.0911 -0.1969  0.3625
 1015XCA    COO 9147   9.048   3.647   3.824 -0.2575  0.1639 -0.1963
 1015XCA     C1 9148   8.808   3.823   4.089  0.2341  0.0454  0.1379
 1015XCA     C2 9149   8.656   3.808   4.546  0.1005 -0.0173 -0.2380
 1015XCA     C3 9150   8.625   3.731   4.996 -0.0989  0.1314  0.2335
 1015XCA     C4 9151   8.295   3.811   5.428  0.0580  0.2970  0.0616
 1015XCA     C5 9152   7.823   3.790   5.324 -0.0393 -0.1817  0.0526
 1015XCA     C6 9153   7.613   3.697   5.000  0.4023 -0.1674 -0.0315
 1016CHOL   ROH 9154  13.936  11.991   8.668  0.0657  0.3021 -0.0401
 1016CHOL    R1 9155  13.980  12.057   8.396  0.2570  0.4364  0.0209
 1016CHOL    R2 9156  13.777  12.057   8.208  0.4666  0.0513 -0.2199
 1016CHOL    R3 9157  13.863  12.311   8.163  0.0088  0.2457 -0.0676
 1016CHOL    R4 9158  13.664  12.263   7.955  0.3468 -0.1350 -0.3209
 1016CHOL    R5 9159  13.868  12.331   7.925  0.2566  0.2898 -0.0617
 1016CHOL    C1 9160  13.679  12.622   7.765 -0.1528 -0.0612 -0.2368
 1016CHOL    C2 9161  13.711  13.060   7.673 -0.0036 -0.2375  0.0677
 1017XCA    COO 9162   2.889   4.090   4.316 -0.3383 -0.0935  0.1349
 1017XCA     C1 9163   3.144   4.175   4.757 -0.0289  0.2492 -0.2304
 1017XCA     C2 9164   3.327   4.233   5.184  0.4117  0.0925 -0.0740
 1017XCA     C3 9165   3.576   4.442   5.552 -0.3072  0.2423  0.3337
 1017XCA     C4 9166   3.983   4.680   5.703  0.2036  0.2567  0.0118
 1017XCA     C5 9167   4.221   5.071   5.760  0.1482  0.1511  0.1068
 1017XCA     C6 9168   4.213   5.597   5.717 -0.0688  0.2585  0.2806
 1018CHOL   ROH 9169   5.234  12.284   5.287  0.0467  0.0608 -0.0564
 1018CHOL    R1 9170   5.163  12.193   5.546 -0.0195  0.0333 -0.0844
 1018CHOL    R2 9171   5.350  12.106   5.730 -0.0591  0.1080 -0.0122
 1018CHOL    R3 9172   5.232  12.292   5.889 -0.1945  0.0598 -0.0544
 1018CHOL    R4 9173   5.319  12.081   6.073 -0.0381  0.1540 -0.0070
 1018CHOL    R5 9174   5.118  12.164   6.056 -0.1029  0.0075 -0.0268
 1018CHOL    C1 9175   5.190  12.242   6.422 -0.1531  0.1356 -0.0435
 1018CHOL    C2 9176   4.935  12.527   6.636 -0.0439 -0.0744  0.1318
 1019PNCE   AM1 9177  14.796   1.907   4.824 -0.0576  0.1307  0.2243
 1019PNCE   AM2 9178  14.841   1.592   4.759  0.0924 -0.0956  0.1400
 1019PNCE   T1A 9179  15.097   1.938   5.016  0.1667  0.1651 -0.1708
 1019PNCE   C2A 9180  15.492   2.150   4.947  0.1465  0.1008 -0.0445
 1019PNCE   C3A 9181  15.823   2.412   4.791  0.1039  0.2331 -0.1790
 1019PNCE   C1B 9182  14.539   1.559   5.054 -0.0147 -0.0696 -0.0295
 1019PNCE   C2B 9183  14.477   1.471   5.430  0.1646  0.0775 -0.0235
 1019PNCE   C3B 9184  14.539   1.473   5.940 -0.2431 -0.2502  0.1303
 1019PNCE   D4B 9185  14.898   1.710   6.158  0.1057 -0.1460  0.0477
 1019PNCE   C5B 9186  15.203   1.611   6.427  0.1173  0.0443  0.0342
 1019PNCE   C6B 9187  15.389   1.249   6.503 -0.0301 -0.0972 -0.1298
 1020XCA    COO 9188   0.588  14.892   8.390 -0.1698 -0.1882 -0.1225
 1020XCA     C1 9189   0.709  14.754   8.019  0.1717 -0.0374  0.2080
 1020XCA     C2 9190   0.887  14.576   7.650 -0.2532  0.1312 -0.0679
 1020XCA     C3 9191   0.989  14.420   7.291 -0.0447  0.0020 -0.0017
 1020XCA     C4 9192   1.178  14.182   6.991 -0.0216 -0.2342 -0.1763
 1020XCA     C5 9193   1.035  14.129   6.593 -0.2161 -0.0184 -0.2657
 1020XCA     C6 9194   1.028  14.195   6.116 -0.1124  0.0477  0.2173
 1021PNCE   AM1 9195   1.889   6.755   4.515 -0.0402 -0.0448  0.1472
 1021PNCE   AM2 9196   1.919   6.613   4.681  0.0213  0.0594 -0.0633
 1021PNCE   T1A 9197   1.421   6.785   4.735  0.2100 -0.0231 -0.0661
 1021PNCE   C2A 9198   0.897   6.625   4.869 -0.1137  0.3037 -0.0577
 1021PNCE   C3A 9199   0.692   6.566   5.239 -0.1852 -0.0215 -0.0786
 1021PNCE   C1B 9200   2.006   6.354   5.119 -0.0075  0.2273 -0.1729
 1021PNCE   C2B 9201   2.191   6.314   5.608  0.1116  0.1390  0.1926
 1021PNCE   C3B 9202   2.545   6.088   5.730 -0.2054 -0.1914  0.0431
 1021PNCE   D4B 9203   2.930   5.859   5.823  0.1026 -0.3009 -0.2477
 1021PNCE   C5B 9204   3.408   5.844   5.842 -0.2006 -0.2407  0.1805
 1021PNCE   C6B 9205   3.868   6.008   5.765 -0.0530  0.1320  0.1185
 1022XCA    COO 9206   3.323   3.876   4.407 -0.2937 -0.0677 -0.0742
 1022XCA     C1 9207   3.258   3.549   4.750 -0.0050 -0.1312  0.2350
 1022XCA     C2 9208   3.440   3.302   5.026 -0.1815  0.0059 -0.2778
 1022XCA     C3 9209   3.659   3.119   5.362 -0.1075  0.0771 -0.1353
 1022XCA     C4 9210   3.873   3.050   5.623 -0.0031  0.1488  0.1738
 1022XCA     C5 9211   4.276   2.892   5.764  0.0183  0.1359 -0.2888
 1022XCA     C6 9212   4.364   2.594   6.075 -0.2438  0.0165 -0.0193
 1023CHOL   ROH 9213   5.235   9.970   8.608 -0.0953  0.0488 -0.0530
 1023CHOL    R1 9214   5.277  10.024   8.333 -0.1460 -0.0166 -0.0745
 1023CHOL    R2 9215   5.530  10.047   8.223 -0.1626  0.1690 -0.0862
 1023CHOL    R3 9216   5.438   9.856   8.053  0.0035  0.0181 -0.0094
 1023CHOL    R4 9217   5.619  10.020   7.890 -0.0183  0.0051 -0.0354
 1023CHOL    R5 9218   5.412   9.971   7.844  0.0287 -0.1272 -0.0903
 1023CHOL    C1 9219   5.584   9.826   7.536  0.2216 -0.2323  0.0662
 1023CHOL    C2 9220   5.559   9.612   7.230  0.1732 -0.0006  0.0564
 1024XCA    COO 9221  15.324   8.257   8.876 -0.1911 -0.0587  0.3479
 1024XCA     C1 9222  15.341   7.824   8.704 -0.3540  0.0556 -0.1797
 1024XCA     C2 9223  15.480   7.828   8.189  0.0539  0.0220  0.2600
 1024XCA     C3 9224  15.780   7.869   7.745  0.3492  0.0229  0.1094
 1024XCA     C4 9225  15.737   8.001   7.314 -0.2070 -0.0293  0.2457
 1024XCA     C5 9226  15.983   8.393   7.125 -0.0446 -0.0261  0.2203
 1024XCA     C6 9227  16.079   8.781   6.883 -0.2631 -0.3510 -0.2507
 1025CHOL   ROH 9228  13.078   1.417   8.015  0.0839 -0.1313  0.1194
 1025CHOL    R1 9229  13.160   1.185   7.876 -0.0017 -0.1233  0.0532
 1025CHOL    R2 9230  12.982   1.022   7.741 -0.0505  0.0357 -0.0856
 1025CHOL    R3 9231  13.152   1.066   7.533  0.0556  0.0285 -0.0002
 1025CHOL    R4 9232  13.078   0.783   7.510  0.0373  0.0463 -0.0596
 1025CHOL    R5 9233  13.280   0.864   7.517  0.0394  0.0191  0.0438
 1025CHOL    C1 9234  13.293   0.685   7.180  0.1882  0.0456  0.0357
 1025CHOL    C2 9235  13.197   0.560   6.867  0.1226 -0.1301 -0.0608
 1026CHOL   ROH 9236   1.231   0.163   4.761 -0.0550  0.0714  0.0487
 1026CHOL    R1 9237   1.170   0.071   5.022 -0.1309  0.2225  0.0829
 1026CHOL    R2 9238   1.320  -0.122   5.151 -0.3579  0.0778  0.1089
 1026CHOL    R3 9239   1.337   0.066   5.346 -0.0928  0.1053  0.0660
 1026CHOL    R4 9240   1.393  -0.187   5.482 -0.6356 -0.0038  0.1585
 1026CHOL    R5 9241   1.243  -0.040   5.539 -0.3985  0.3117  0.0507
 1026CHOL    C1 9242   1.452  -0.048   5.858 -0.5483 -0.0255  0.1473
 1026CHOL    C2 9243   1.586   0.032   6.159 -0.0459 -0.3803  0.2596
 1027PNCE   AM1 9244  13.056   5.970   6.102  0.2955  0.0760 -0.1093
 1027PNCE   AM2 9245  13.000   5.767   5.656  0.0424  0.0762  0.0785
 1027PNCE   T1A 9246  12.814   5.846   6.455  0.0473 -0.0009  0.2322
 1027PNCE   C2A 9247  12.582   5.850   6.812 -0.1909  0.0051 -0.1454
 1027PNCE   C3A 9248  12.259   5.544   7.017 -0.0411 -0.1200 -0.2483
 1027PNCE   C1B 9249  12.557   5.602   5.860  0.1347  0.2478 -0.0959
 1027PNCE   C2B 9250  12.482   5.201   5.909  0.0458  0.2077 -0.0715
 1027PNCE   C3B 9251  12.417   4.945   6.345  0.0342 -0.0404 -0.1861
 1027PNCE   D4B 9252  12.171   5.141   6.727  0.4337  0.2770  0.1580
 1027PNCE   C5B 9253  11.820   5.418   6.712 -0.2310  0.0855  0.1449
 1027PNCE   C6B 9254  11.723   5.698   7.069  0.0123 -0.2775 -0.1700
 1028CHOL   ROH 9255   1.008  13.017   5.301 -0.0470 -0.0273  0.1407
 1028CHOL    R1 9256   1.136  12.841   5.482 -0.0616  0.0596  0.2347
 1028CHOL    R2 9257   1.410  12.840   5.521 -0.0509 -0.0403  0.1231
 1028CHOL    R3 9258   1.340  12.872   5.782  0.0744  0.2048  0.1310
 1028CHOL    R4 9259   1.615  12.771   5.790 -0.0969 -0.3256  0.0889
 1028CHOL    R5 9260   1.442  12.687   5.894 -0.2428  0.0421  0.1744
 1028CHOL    C1 9261   1.668  12.761   6.192 -0.0061 -0.2617  0.0764
 1028CHOL    C2 9262   1.883  12.759   6.525 -0.2290 -0.4531 -0.1975
 1029PNCE   AM1 9263   8.836   0.081   4.459  0.0212 -0.1706  0.0303
 1029PNCE   AM2 9264   8.717  -0.177   4.442 -0.0982  0.0324  0.0100
 1029PNCE   T1A 9265   9.024  -0.058   4.882 -0.0349  0.2687  0.2372
 1029PNCE   C2A 9266   9.182  -0.211   5.360  0.0211  0.2610 -0.2990
 1029PNCE   C3A 9267   9.474  -0.056   5.647  0.0121 -0.1240 -0.0884
 1029PNCE   C1B 9268   8.383  -0.032   4.751 -0.0885  0.1546  0.0758
 1029PNCE   C2B 9269   8.463  -0.015   5.173 -0.1174  0.0201 -0.0659
 1029PNCE   C3B 9270   8.720  -0.203   5.377  0.1472 -0.0387 -0.1948
 1029PNCE   D4B 9271   8.732  -0.502   5.718 -0.3575 -0.0021  0.0270
 1029PNCE   C5B 9272   9.135  -0.675   5.899  0.1943  0.1459  0.1200
 1029PNCE   C6B 9273   9.152  -0.811   6.282  0.1192  0.0765 -0.0308
 1030XCA    COO 9274   7.443   2.119   6.681 -0.1737 -0.1489  0.2940
 1030XCA     C1 9275   7.221   1.724   6.579  0.0188 -0.2139 -0.0664
 1030XCA     C2 9276   7.193   1.307   6.247 -0.0486 -0.0170  0.0568
 1030XCA     C3 9277   7.349   0.919   6.312 -0.0175 -0.0352 -0.0151
 1030XCA     C4 9278   7.103   0.474   6.416 -0.0971 -0.2299 -0.4108
 1030XCA     C5 9279   6.930   0.083   6.198  0.0522  0.0557 -0.0726
 1030XCA     C6 9280   6.676  -0.155   6.003  0.0641 -0.0097 -0.1764
 1031CHOL   ROH 9281   2.925   3.213   5.909  0.2340  0.0645  0.1114
 1031CHOL    R1 9282   2.655   3.219   5.996  0.2446  0.1329  0.1408
 1031CHOL    R2 9283   2.501   2.991   6.018  0.1028  0.2000 -0.1101
 1031CHOL    R3 9284   2.464   3.079   6.272  0.1831 -0.0682 -0.0017
 1031CHOL    R4 9285   2.200   2.983   6.189  0.1153  0.1899 -0.0887
 1031CHOL    R5 9286   2.247   3.180   6.270  0.2445  0.0704  0.1343
 1031CHOL    C1 9287   1.991   3.062   6.527  0.1980 -0.0678  0.0255
 1031CHOL    C2 9288   1.791   2.694   6.445 -0.0596 -0.0116 -0.2468
 1032PNCE   AM1 9289   2.706   6.874   4.652  0.1689  0.1458 -0.0076
 1032PNCE   AM2 9290   2.422   6.744   4.465  0.0001 -0.1961  0.1490
 1032PNCE   T1A 9291   2.893   6.927   5.015  0.1154 -0.2228 -0.2342
 1032PNCE   C2A 9292   3.090   6.676   5.440 -0.2971  0.1985  0.2122
 1032PNCE   C3A 9293   3.063   6.270   5.605  0.0203 -0.0318  0.2820
 1032PNCE   C1B 9294   2.312   6.311   4.687 -0.0125 -0.2857  0.0503
 1032PNCE   C2B 9295   2.290   5.949   4.916  0.0891 -0.2697  0.0606
 1032PNCE   C3B 9296   2.303   5.908   5.241 -0.2153 -0.2219 -0.0198
 1032PNCE   D4B 9297   2.192   5.760   5.624  0.2701 -0.0338  0.1580
 1032PNCE   C5B 9298   2.258   5.757   6.100  0.2809 -0.0664  0.0707
 1032PNCE   C6B 9299   2.416   5.378   6.397 -0.0198  0.0220 -0.1489
 1033PNCE   AM1 9300   9.330   0.937   4.509 -0.2192  0.0961 -0.0756
 1033PNCE   AM2 9301   9.082   1.205   4.445 -0.3691  0.1056  0.0942
 1033PNCE   T1A 9302   8.998   0.648   4.639 -0.1719  0.1583  0.0055
 1033PNCE   C2A 9303   8.764   0.418   4.883  0.2058  0.1183  0.1138
 1033PNCE   C3A 9304   8.503   0.473   5.169 -0.0521  0.0572  0.0236
 1033PNCE   C1B 9305   8.878   1.306   4.780  0.0792 -0.1168 -0.0672
 1033PNCE   C2B 9306   8.756   1.412   5.154  0.0795  0.1173 -0.2225
 1033PNCE   C3B 9307   8.715   1.644   5.458  0.1276 -0.0432  0.0978
 1033PNCE   D4B 9308   8.970   1.809   5.831 -0.1513  0.0401  0.0268
 1033PNCE   C5B 9309   8.681   1.705   6.174 -0.0048 -0.2685  0.3416
 1033PNCE   C6B 9310   8.759   1.448   6.595 -0.1165 -0.1972  0.1499
 1034PNCE   AM1 9311   7.785  14.796   4.505  0.0140 -0.1651 -0.0060
 1034PNCE   AM2 9312   7.931  14.971   4.300 -0.2403  0.0156  0.2362
 1034PNCE   T1A 9313   7.656  15.245   4.650  0.0280  0.1178 -0.0314
 1034PNCE   C2A 9314   7.866  15.655   4.665  0.1476 -0.0044 -0.0830
 1034PNCE   C3A 9315   7.800  15.916   4.299  0.1040 -0.2835 -0.0840
 1034PNCE   C1B 9316   7.604  15.247   4.183 -0.0371 -0.0046 -0.2546
 1034PNCE   C2B 9317   7.276  15.509   4.389  0.2457 -0.0533  0.1008
 1034PNCE   C3B 9318   6.817  15.419   4.369 -0.1464 -0.3758  0.2252
 1034PNCE   D4B 9319   6.395  15.275   4.627  0.0385 -0.1798  0.0518
 1034PNCE   C5B 9320   6.244  14.848   4.820  0.1061 -0.0764  0.4347
 1034PNCE   C6B 9321   6.372  14.454   4.733 -0.1640 -0.0165 -0.0869
 1035CHOL   ROH 9322   4.553  14.450   8.258 -0.0346 -0.0454 -0.1200
 1035CHOL    R1 9323   4.535  14.334   8.001 -0.0293  0.1026 -0.1882
 1035CHOL    R2 9324   4.605  14.471   7.772  0.2308  0.1475 -0.0865
 1035CHOL    R3 9325   4.765  14.255   7.730  0.0250 -0.0029 -0.1121
 1035CHOL    R4 9326   4.803  14.424   7.492  0.2124  0.0082 -0.0766
 1035CHOL    R5 9327   4.747  14.213   7.494  0.0052  0.0605 -0.1223
 1035CHOL    C1 9328   5.068  14.194   7.290  0.0085 -0.2141 -0.0948
 1035CHOL    C2 9329   5.200  14.016   6.948 -0.1737 -0.0839  0.0284
 1036PNCE   AM1 9330   2.411   7.646   4.528  0.2624  0.0870 -0.0170
 1036PNCE   AM2 9331   2.343   7.965   4.462  0.3884 -0.0176  0.1800
 1036PNCE   T1A 9332   2.750   7.389   4.739 -0.1741 -0.1021 -0.0115
 1036PNCE   C2A 9333   3.178   7.128   4.700  0.1442  0.2852  0.1953
 1036PNCE   C3A 9334   3.244   6.729   4.772 -0.0982  0.0407 -0.2246
 1036PNCE   C1B 9335   2.395   8.058   4.926 -0.0539 -0.0906 -0.1520
 1036PNCE   C2B 9336   2.491   7.966   5.355 -0.0814 -0.0323 -0.1308
 1036PNCE   C3B 9337   2.599   7.649   5.606 -0.0281  0.0587 -0.0012
 1036PNCE   D4B 9338   2.588   7.534   6.006  0.1625  0.0858 -0.3264
 1036PNCE   C5B 9339   2.999   7.381   6.165  0.1724  0.0615  0.0831
 1036PNCE   C6B 9340   3.419   7.566   6.132 -0.0982  0.0421  0.0167
 1037XCA    COO 9341  13.427   3.010   8.708  0.1759 -0.1972  0.2236
 1037XCA     C1 9342  13.157   3.073   8.310  0.1904 -0.0299  0.4063
 1037XCA     C2 9343  12.728   3.169   8.239  0.2219  0.0498 -0.0245
 1037XCA     C3 9344  12.335   3.281   8.062 -0.1261 -0.4940  0.0223
 1037XCA     C4 9345  12.163   3.136   7.710 -0.1917  0.1229 -0.2550
 1037XCA     C5 9346  11.877   3.011   7.351  0.1889 -0.0904  0.0501
 1037XCA     C6 9347  11.584   2.699   7.007  0.2805 -0.1477  0.0059
 1038PNCE   AM1 9348   8.895  14.830   4.392 -0.0062  0.0281  0.2052
 1038PNCE   AM2 9349   8.571  15.017   4.289  0.2348 -0.1192 -0.0018
 1038PNCE   T1A 9350   9.091  14.798   4.773 -0.0991  0.0706  0.1378
 1038PNCE   C2A 9351   9.387  14.553   4.881  0.1189 -0.0994  0.0074
 1038PNCE   C3A 9352   9.321  14.159   5.149  0.2359  0.0399 -0.0397
 1038PNCE   C1B 9353   8.672  15.250   4.803  0.0859  0.0126 -0.1710
 1038PNCE   C2B 9354   8.902  15.222   5.092  0.2145  0.0895 -0.2016
 1038PNCE   C3B 9355   9.189  14.918   5.255 -0.0205 -0.0015  0.0838
 1038PNCE   D4B 9356   9.625  14.694   5.371 -0.1290  0.0772  0.0603
 1038PNCE   C5B 9357   9.534  14.747   5.904 -0.2272 -0.1278  0.3194
 1038PNCE   C6B 9358   9.675  14.859   6.325 -0.0751 -0.1415  0.2331
 1039CHOL   ROH 9359   7.175  14.708   5.045 -0.0314  0.0891  0.0869
 1039CHOL    R1 9360   7.195  14.693   5.327 -0.0013  0.0917  0.0850
 1039CHOL    R2 9361   7.397  14.555   5.455  0.0189  0.1014  0.0650
 1039CHOL    R3 9362   7.436  14.793   5.580  0.0209  0.1044  0.0588
 1039CHOL    R4 9363   7.585  14.599   5.741 -0.0127  0.1022  0.0856
 1039CHOL    R5 9364   7.434  14.738   5.814 -0.0110  0.1160  0.0609
 1039CHOL    C1 9365   7.731  14.848   6.026 -0.0292  0.1053  0.0918
 1039CHOL    C2 9366   8.107  14.956   6.225 -0.4094 -0.0090 -0.0002
 1040CHOL   ROH 9367  13.299  12.300   5.827  0.0891  0.0181  0.0686
 1040CHOL    R1 9368  13.112  12.335   6.036 -0.0075 -0.0942  0.0037
 1040CHOL    R2 9369  12.972  12.124   6.148  0.1758 -0.2020  0.0460
 1040CHOL    R3 9370  13.076  12.221   6.380  0.0190 -0.0034  0.0353
 1040CHOL    R4 9371  12.852  12.050   6.464  0.1400 -0.1436  0.0456
 1040CHOL    R5 9372  12.885  12.258   6.519 -0.0526 -0.0935 -0.0443
 1040CHOL    C1 9373  12.880  12.098   6.865 -0.0282  0.0768  0.0353
 1040CHOL    C2 9374  12.666  12.260   7.186 -0.2502 -0.0012 -0.0215
 1041CHOL   ROH 9375   7.788   6.197   7.290  0.3482 -0.0114  0.0271
 1041CHOL    R1 9376   7.890   6.226   7.027  0.1123 -0.0730 -0.0743
 1041CHOL    R2 9377   7.793   6.081   6.813 -0.2065  0.0059  0.0084
 1041CHOL    R3 9378   7.759   6.327   6.703 -0.1371  0.0373  0.0582
 1041CHOL    R4 9379   7.713   6.140   6.482 -0.1142  0.0992  0.0028
 1041CHOL    R5 9380   7.852   6.307   6.483 -0.0868  0.0744  0.0772
 1041CHOL    C1 9381   7.635   6.405   6.186  0.0046  0.1829  0.0464
 1041CHOL    C2 9382   7.667   6.438   5.850  0.0351 -0.1204 -0.1643
 1042PNCE   AM1 9383   5.693   2.256   3.480  0.0468  0.2652  0.2461
 1042PNCE   AM2 9384   6.068   2.247   3.470 -0.0828 -0.0452  0.0453
 1042PNCE   T1A 9385   5.820   2.225   3.949  0.1261  0.0194 -0.0857
 1042PNCE   C2A 9386   5.662   2.376   4.322  0.0339 -0.1014  0.1892
 1042PNCE   C3A 9387   5.499   2.726   4.601  0.1633  0.0904  0.0402
 1042PNCE   C1B 9388   6.137   1.989   3.657 -0.0711  0.2370  0.1308
 1042PNCE   C2B 9389   6.170   1.839   4.093  0.0959  0.3631 -0.2681
 1042PNCE   C3B 9390   6.510   1.910   4.347  0.3064  0.1046 -0.2325
 1042PNCE   D4B 9391   6.817   2.026   4.453 -0.2130  0.1173  0.1580
 1042PNCE   C5B 9392   6.894   2.009   4.860  0.1331 -0.1974  0.0461
 1042PNCE   C6B 9393   6.952   2.255   5.162  0.0162 -0.0744  0.0440
 1043PNCE   AM1 9394   8.663   7.919   4.534 -0.3561 -0.1986 -0.0585
 1043PNCE   AM2 9395   8.419   7.983   4.377 -0.1447  0.2457 -0.0109
 1043PNCE   T1A 9396   8.387   8.017   4.876  0.0878  0.1825  0.4213
 1043PNCE   C2A 9397   8.213   7.964   5.255  0.0596  0.1962 -0.1292
 1043PNCE   C3A 9398   7.928   8.047   5.668 -0.3977 -0.2705 -0.2480
 1043PNCE   C1B 9399   8.401   7.516   4.640  0.0088  0.0235 -0.1775
 1043PNCE   C2B 9400   8.214   7.472   5.098 -0.1550  0.0884 -0.2678
 1043PNCE   C3B 9401   8.169   7.424   5.565  0.0030  0.2103 -0.0770
 1043PNCE   D4B 9402   7.782   7.192   5.779 -0.2999 -0.5554  0.0111
 1043PNCE   C5B 9403   7.817   6.986   6.134 -0.1020 -0.3479  0.1487
 1043PNCE   C6B 9404   8.004   7.037   6.432  0.0708 -0.0465 -0.1022
 1044PNCE   AM1 9405   1.836  12.620   4.602  0.3176  0.2233  0.0357
 1044PNCE   AM2 9406   1.661  12.865   4.749 -0.2011 -0.0575 -0.3017
 1044PNCE   T1A 9407   1.801  12.359   5.061  0.0628 -0.2617  0.1148
 1044PNCE   C2A 9408   1.849  12.543   5.478  0.0567 -0.2902 -0.5191
 1044PNCE   C3A 9409   1.995  12.528   5.920  0.1132 -0.3009  0.0222
 1044PNCE   C1B 9410   1.346  12.725   5.049  0.1996 -0.1173 -0.1464
 1044PNCE   C2B 9411   1.393  12.394   5.382 -0.2597  0.1203 -0.0957
 1044PNCE   C3B 9412   1.593  12.221   5.732 -0.1044  0.1322  0.0813
 1044PNCE   D4B 9413   1.623  12.243   6.157 -0.0277 -0.4128 -0.1352
 1044PNCE   C5B 9414   1.524  12.416   6.458  0.0609 -0.1787 -0.0889
 1044PNCE   C6B 9415   1.203  12.418   6.858  0.3024 -0.2231 -0.2316
 1045CHOL   ROH 9416  13.415   1.792   8.415  0.0444  0.0035 -0.1694
 1045CHOL    R1 9417  13.387   1.834   8.137 -0.0222 -0.0543 -0.1720
 1045CHOL    R2 9418  13.580   1.758   7.954 -0.0071  0.0236 -0.1930
 1045CHOL    R3 9419  13.374   1.625   7.839  0.0463 -0.1086 -0.1364
 1045CHOL    R4 9420  13.563   1.669   7.621 -0.0965  0.1165 -0.2130
 1045CHOL    R5 9421  13.352   1.723   7.622 -0.1396 -0.0567 -0.0944
 1045CHOL    C1 9422  13.359   1.493   7.318 -0.0985  0.0465 -0.1715
 1045CHOL    C2 9423  13.122   1.281   7.122  0.1085  0.0122  0.0596
 1046CHOL   ROH 9424   4.417  15.709   4.987 -0.1526  0.2572 -0.0609
 1046CHOL    R1 9425   4.427  15.650   5.263  0.0370 -0.1657 -0.1485
 1046CHOL    R2 9426   4.259  15.769   5.447  0.5067 -0.0326  0.2242
 1046CHOL    R3 9427   4.200  15.512   5.513 -0.0005 -0.0123 -0.0993
 1046CHOL    R4 9428   4.142  15.665   5.755  0.2610 -0.2010  0.0762
 1046CHOL    R5 9429   4.271  15.491   5.740 -0.0730 -0.4359 -0.1136
 1046CHOL    C1 9430   4.019  15.363   5.996 -0.3580 -0.2800 -0.3136
 1046CHOL    C2 9431   3.829  15.384   6.341  0.0214  0.2976 -0.1437
 1047PNCE   AM1 9432   3.825   7.987   7.756 -0.0840  0.0690 -0.2291
 1047PNCE   AM2 9433   3.607   7.839   8.032 -0.1692  0.1055 -0.1406
 1047PNCE   T1A 9434   3.596   7.829   7.403  0.0535  0.3029 -0.1938
 1047PNCE   C2A 9435   3.603   7.587   7.039 -0.1008  0.3740 -0.0937
 1047PNCE   C3A 9436   3.748   7.261   6.786  0.0764 -0.3151  0.2383
 1047PNCE   C1B 9437   3.306   7.611   7.761  0.1774 -0.0502  0.3060
 1047PNCE   C2B 9438   3.090   7.526   7.349  0.3844 -0.1364  0.2102
 1047PNCE   C3B 9439   2.892   7.361   7.014  0.4556  0.3613 -0.0137
 1047PNCE   D4B 9440   2.750   7.357   6.639 -0.1451 -0.1435 -0.2797
 1047PNCE   C5B 9441   2.651   7.641   6.498 -0.3709  0.1805 -0.0582
 1047PNCE   C6B 9442   2.637   8.119   6.593 -0.0245  0.2566 -0.3033
 1048CHOL   ROH 9443   2.782  10.516   5.331 -0.0151 -0.1783 -0.0534
 1048CHOL    R1 9444   2.753  10.409   5.592 -0.0490 -0.1349 -0.0393
 1048CHOL    R2 9445   2.950  10.259   5.714 -0.0763 -0.1388  0.0001
 1048CHOL    R3 9446   2.923  10.444   5.912 -0.0717 -0.1052 -0.0305
 1048CHOL    R4 9447   3.080  10.228   6.033 -0.0649 -0.0828  0.0011
 1048CHOL    R5 9448   2.896  10.314   6.111 -0.0633 -0.0714 -0.0072
 1048CHOL    C1 9449   3.130  10.383   6.404 -0.0541 -0.0186 -0.0271
 1048CHOL    C2 9450   2.986  10.600   6.710  0.0320 -0.1759  0.0593
 1049CHOL   ROH 9451   2.894   8.852   5.305  0.1489  0.0168  0.1821
 1049CHOL    R1 9452   2.872   8.958   5.567  0.1521 -0.0424  0.2057
 1049CHOL    R2 9453   2.672   9.135   5.640  0.2334  0.0406  0.2110
 1049CHOL    R3 9454   2.625   8.952   5.835  0.0956  0.0161  0.1572
 1049CHOL    R4 9455   2.439   9.169   5.892  0.2162  0.1250  0.1851
 1049CHOL    R5 9456   2.582   9.081   6.030  0.1489 -0.0010  0.1854
 1049CHOL    C1 9457   2.259   9.016   6.222  0.0769  0.1511  0.1195
 1049CHOL    C2 9458   2.201   8.854   6.595  0.0459  0.0008  0.1216
 1050CHOL   ROH 9459  14.282   1.078   5.173  0.1211 -0.2107  0.0323
 1050CHOL    R1 9460  14.159   1.048   5.426 -0.0165 -0.0164 -0.0100
 1050CHOL    R2 9461  14.304   1.015   5.659 -0.1467 -0.2196  0.0401
 1050CHOL    R3 9462  14.157   1.228   5.743  0.1349  0.0051 -0.0194
 1050CHOL    R4 9463  14.261   1.107   5.989 -0.0339 -0.0814  0.0178
 1050CHOL    R5 9464  14.052   1.152   5.944  0.0213  0.1917 -0.0024
 1050CHOL    C1 9465  14.098   1.361   6.260  0.2962  0.2100 -0.0511
 1050CHOL    C2 9466  13.928   1.526   6.430 -0.2929  0.0584 -0.1730
 1051CHOL   ROH 9467   9.397  10.687   9.478  0.1317 -0.0955 -0.0457
 1051CHOL    R1 9468   9.229  10.707   9.252  0.1281  0.0352 -0.0337
 1051CHOL    R2 9469   9.247  10.914   9.070  0.2640  0.0336 -0.0295
 1051CHOL    R3 9470   9.271  10.712   8.890  0.1088  0.0202 -0.0351
 1051CHOL    R4 9471   9.218  10.949   8.727 -0.0468 -0.0019 -0.0093
 1051CHOL    R5 9472   9.108  10.762   8.722 -0.0436 -0.0035  0.1066
 1051CHOL    C1 9473   9.224  10.780   8.359 -0.3735 -0.0351 -0.0027
 1051CHOL    C2 9474   9.545  10.690   8.182  0.1618  0.0638  0.1464
 1052CHOL   ROH 9475   4.612   7.458   7.398 -0.0911  0.1244  0.2088
 1052CHOL    R1 9476   4.474   7.543   7.167 -0.1063  0.1069  0.2112
 1052CHOL    R2 9477   4.559   7.757   7.013 -0.0503  0.0219  0.1220
 1052CHOL    R3 9478   4.546   7.574   6.811 -0.1710 -0.0399  0.1848
 1052CHOL    R4 9479   4.515   7.834   6.679 -0.0510 -0.0684  0.1012
 1052CHOL    R5 9480   4.381   7.662   6.662 -0.1431 -0.0042  0.1757
 1052CHOL    C1 9481   4.477   7.707   6.295 -0.1646 -0.1790  0.1480
 1052CHOL    C2 9482   4.347   7.908   5.872  0.1325 -0.0648 -0.1698
 1053CHOL   ROH 9483   5.307   0.609   4.328 -0.1789 -0.0232  0.1422
 1053CHOL    R1 9484   5.527   0.602   4.506 -0.1457 -0.0306  0.1019
 1053CHOL    R2 9485   5.645   0.830   4.607 -0.0770 -0.0310  0.0310
 1053CHOL    R3 9486   5.596   0.712   4.846 -0.0596  0.0296  0.0642
 1053CHOL    R4 9487   5.787   0.925   4.907 -0.0813  0.0582  0.0048
 1053CHOL    R5 9488   5.808   0.714   4.958 -0.0612  0.0774  0.0605
 1053CHOL    C1 9489   5.824   0.869   5.307 -0.0675  0.1671  0.0207
 1053CHOL    C2 9490   6.192   0.634   5.460  0.1262 -0.1171 -0.0613
 1054PNCE   AM1 9491  11.566  14.215   4.722  0.1255  0.0162  0.1485
 1054PNCE   AM2 9492  11.579  14.286   4.994  0.1047 -0.2533 -0.0092
 1054PNCE   T1A 9493  11.206  13.909   5.005  0.0588  0.2979  0.0768
 1054PNCE   C2A 9494  10.731  13.754   5.020  0.2580 -0.1424  0.2134
 1054PNCE   C3A 9495  10.345  13.834   5.201 -0.2022 -0.2374 -0.2143
 1054PNCE   C1B 9496  11.693  14.403   5.389 -0.2021  0.2269  0.1861
 1054PNCE   C2B 9497  11.750  14.401   5.826 -0.0640  0.0871 -0.0975
 1054PNCE   C3B 9498  12.063  14.415   6.136 -0.0058 -0.0862  0.0617
 1054PNCE   D4B 9499  12.311  14.517   6.461 -0.0549 -0.0876 -0.0033
 1054PNCE   C5B 9500  12.700  14.563   6.334 -0.2251 -0.3053 -0.1491
 1054PNCE   C6B 9501  13.001  14.199   6.149  0.3252  0.1815  0.0811
 1055CHOL   ROH 9502  13.597   0.890   4.902  0.0805  0.0277 -0.0385
 1055CHOL    R1 9503  13.702   0.909   5.165  0.0526  0.1379 -0.0353
 1055CHOL    R2 9504  13.760   1.151   5.285 -0.1253  0.1942 -0.0663
 1055CHOL    R3 9505  13.598   1.055   5.481 -0.0679  0.1084 -0.0597
 1055CHOL    R4 9506  13.759   1.263   5.612 -0.2206  0.2530 -0.0862
 1055CHOL    R5 9507  13.736   1.057   5.677 -0.0743  0.2428 -0.0521
 1055CHOL    C1 9508  13.606   1.239   5.986 -0.2223  0.2067 -0.0917
 1055CHOL    C2 9509  13.650   1.002   6.281 -0.3024 -0.0582 -0.0768
 1056PNCE   AM1 9510   1.670   3.811   4.362  0.0114 -0.1799  0.0187
 1056PNCE   AM2 9511   1.907   4.105   4.402  0.1402 -0.0449 -0.1609
 1056PNCE   T1A 9512   1.787   3.532   4.674 -0.0459  0.1372 -0.1836
 1056PNCE   C2A 9513   1.891   3.421   5.108  0.1135 -0.2787  0.2277
 1056PNCE   C3A 9514   1.940   3.535   5.462  0.0499 -0.0764 -0.1443
 1056PNCE   C1B 9515   2.174   3.979   4.722  0.1435  0.1090 -0.0031
 1056PNCE   C2B 9516   2.243   3.755   5.028 -0.1857 -0.0074  0.1361
 1056PNCE   C3B 9517   2.310   3.893   5.420  0.0574 -0.1230 -0.2730
 1056PNCE   D4B 9518   2.291   3.918   5.813 -0.3917  0.2694 -0.0348
 1056PNCE   C5B 9519   2.680   4.138   5.998 -0.0098 -0.0314  0.0745
 1056PNCE   C6B 9520   2.891   4.470   6.156 -0.0506 -0.0458 -0.3531
 1057CHOL   ROH 9521   5.189   9.367   8.372  0.2420  0.0004 -0.0519
 1057CHOL    R1 9522   5.214   9.519   8.134  0.2220 -0.0904 -0.1125
 1057CHOL    R2 9523   5.284   9.405   7.892 -0.0332 -0.2246 -0.1276
 1057CHOL    R3 9524   5.055   9.525   7.807  0.0140 -0.0485 -0.0121
 1057CHOL    R4 9525   5.230   9.525   7.572 -0.0515 -0.0490 -0.0598
 1057CHOL    R5 9526   5.129   9.697   7.659  0.0757 -0.0266  0.0450
 1057CHOL    C1 9527   4.984   9.707   7.306 -0.0180  0.2186  0.0883
 1057CHOL    C2 9528   5.084   9.806   6.919 -0.1531  0.1034  0.0907
 1058PNCE   AM1 9529   4.682  14.211   4.476  0.0398  0.0785  0.0930
 1058PNCE   AM2 9530   4.501  13.877   4.552  0.0413 -0.0046  0.0719
 1058PNCE   T1A 9531   4.565  14.235   4.907 -0.2281  0.0082  0.0722
 1058PNCE   C2A 9532   4.671  14.346   5.400  0.0417 -0.0121  0.2246
 1058PNCE   C3A 9533   4.637  14.460   5.729 -0.0561 -0.4472  0.1316
 1058PNCE   C1B 9534   4.458  13.770   5.013  0.0009  0.3217 -0.1920
 1058PNCE   C2B 9535   4.472  13.841   5.363 -0.0028 -0.2078 -0.1989
 1058PNCE   C3B 9536   4.423  13.758   5.824 -0.0956  0.3120 -0.2557
 1058PNCE   D4B 9537   4.526  14.068   6.077  0.1211  0.1380 -0.0097
 1058PNCE   C5B 9538   4.748  14.429   6.235 -0.2942  0.0816  0.3083
 1058PNCE   C6B 9539   5.116  14.657   6.179  0.0449 -0.0698  0.1028
 1059CHOL   ROH 9540   9.336   1.307   4.853 -0.0507  0.0532  0.1219
 1059CHOL    R1 9541   9.225   1.392   5.100 -0.1132  0.0196  0.1070
 1059CHOL    R2 9542   9.116   1.216   5.282 -0.0672 -0.0200  0.1058
 1059CHOL    R3 9543   9.291   1.335   5.453 -0.1286  0.0563  0.1140
 1059CHOL    R4 9544   9.092   1.208   5.627 -0.0592 -0.0423  0.1048
 1059CHOL    R5 9545   9.153   1.417   5.631 -0.1626 -0.0185  0.1158
 1059CHOL    C1 9546   9.242   1.314   5.988 -0.1121  0.0165  0.1120
 1059CHOL    C2 9547   9.163   1.084   6.373  0.3563  0.0427  0.2720
 1060PNCE   AM1 9548  10.941   4.804   4.808 -0.1632  0.1848 -0.1710
 1060PNCE   AM2 9549  11.013   4.950   5.181 -0.1392 -0.1798 -0.3545
 1060PNCE   T1A 9550  10.549   4.861   5.110  0.2358  0.0404  0.0188
 1060PNCE   C2A 9551  10.240   4.745   5.536  0.0361 -0.2199  0.1040
 1060PNCE   C3A 9552  10.212   4.587   5.920 -0.1730  0.0302  0.1377
 1060PNCE   C1B 9553  11.091   4.803   5.417 -0.2392  0.0952 -0.0969
 1060PNCE   C2B 9554  10.788   4.590   5.799 -0.1844 -0.0750 -0.0786
 1060PNCE   C3B 9555  10.502   4.217   5.827 -0.1468  0.0027 -0.0110
 1060PNCE   D4B 9556  10.083   4.022   5.936 -0.1014 -0.3296 -0.0247
 1060PNCE   C5B 9557  10.008   3.629   5.961 -0.0680  0.0352  0.1461
 1060PNCE   C6B 9558  10.187   3.243   6.106 -0.0961  0.0611 -0.1470
 1061PNCE   AM1 9559  10.623   2.568   3.905  0.0939 -0.2417  0.0821
 1061PNCE   AM2 9560  10.702   2.280   4.085 -0.2191  0.2844 -0.1696
 1061PNCE   T1A 9561  10.200   2.500   4.113 -0.0475  0.2146 -0.2825
 1061PNCE   C2A 9562  10.075   2.220   4.521 -0.1990  0.0473 -0.1921
 1061PNCE   C3A 9563  10.069   1.760   4.699 -0.0920 -0.2613  0.1188
 1061PNCE   C1B 9564  10.553   2.379   4.453 -0.2152  0.1777 -0.0966
 1061PNCE   C2B 9565  10.422   2.177   4.830  0.1465  0.1023 -0.1077
 1061PNCE   C3B 9566  10.422   1.885   5.162 -0.3008 -0.1399  0.1177
 1061PNCE   D4B 9567  10.478   2.077   5.599 -0.0325  0.0693  0.1540
 1061PNCE   C5B 9568  10.806   2.101   5.772 -0.0818 -0.0909 -0.1270
 1061PNCE   C6B 9569  11.152   2.356   6.041 -0.0465  0.1350 -0.0946
 1062CHOL   ROH 9570  11.546  11.776   5.803 -0.1398 -0.0847  0.0449
 1062CHOL    R1 9571  11.474  11.697   6.066 -0.0664 -0.0017  0.0902
 1062CHOL    R2 9572  11.655  11.694   6.275 -0.0079  0.0619  0.0395
 1062CHOL    R3 9573  11.468  11.851   6.395  0.0286  0.1012  0.0448
 1062CHOL    R4 9574  11.630  11.746   6.616 -0.0922 -0.0748  0.0553
 1062CHOL    R5 9575  11.414  11.735   6.597 -0.0940  0.0384 -0.0222
 1062CHOL    C1 9576  11.442  11.924   6.927 -0.1072 -0.1175  0.0694
 1062CHOL    C2 9577  11.756  11.895   7.246 -0.1264  0.2128 -0.2117
 1063PNCE   AM1 9578   8.374   5.143   3.593  0.3526 -0.0473  0.0848
 1063PNCE   AM2 9579   8.154   4.973   3.677  0.1196  0.0667 -0.1128
 1063PNCE   T1A 9580   8.631   4.935   3.884  0.2044 -0.2392 -0.3232
 1063PNCE   C2A 9581   8.625   4.855   4.314 -0.1935 -0.0660  0.0954
 1063PNCE   C3A 9582   8.622   4.884   4.826  0.0429 -0.2312 -0.1198
 1063PNCE   C1B 9583   8.123   4.651   4.053 -0.2007 -0.1880  0.2255
 1063PNCE   C2B 9584   7.998   4.598   4.436 -0.1742 -0.0152  0.3289
 1063PNCE   C3B 9585   8.041   4.734   4.803 -0.1845 -0.1859  0.2272
 1063PNCE   D4B 9586   8.209   4.819   5.197  0.2595 -0.3228  0.0607
 1063PNCE   C5B 9587   7.832   5.007   5.429 -0.0550  0.2048  0.3741
 1063PNCE   C6B 9588   7.589   5.256   5.782  0.0492 -0.2779  0.0812
 1064CHOL   ROH 9589   4.541   8.540   7.798  0.1283  0.1616 -0.2233
 1064CHOL    R1 9590   4.375   8.473   7.579  0.0222  0.0381 -0.1085
 1064CHOL    R2 9591   4.220   8.244   7.574  0.0662 -0.0079  0.0633
 1064CHOL    R3 9592   4.019   8.420   7.525  0.0054 -0.0659  0.1135
 1064CHOL    R4 9593   3.955   8.188   7.360 -0.0403 -0.1075  0.2208
 1064CHOL    R5 9594   3.972   8.394   7.292 -0.1182 -0.1350  0.1543
 1064CHOL    C1 9595   3.612   8.321   7.188 -0.1595 -0.2200  0.3597
 1064CHOL    C2 9596   3.545   8.084   6.893  0.2798 -0.0717  0.1722
 1065PNCE   AM1 9597  11.000   1.021   5.075  0.0174 -0.0283  0.0141
 1065PNCE   AM2 9598  10.873   0.784   4.921  0.2553 -0.1488 -0.0890
 1065PNCE   T1A 9599  10.968   1.094   5.500  0.0811  0.0865 -0.1992
 1065PNCE   C2A 9600  10.893   1.216   5.992 -0.1681  0.1679  0.1971
 1065PNCE   C3A 9601  10.679   1.372   6.370 -0.1623  0.0803  0.0766
 1065PNCE   C1B 9602  10.765   0.650   5.294  0.3037  0.1748  0.1723
 1065PNCE   C2B 9603  10.620   0.637   5.725 -0.1616 -0.2942  0.2220
 1065PNCE   C3B 9604  10.412   0.497   6.086 -0.0172 -0.1124 -0.1929
 1065PNCE   D4B 9605  10.233   0.408   6.431  0.2523 -0.1449  0.0543
 1065PNCE   C5B 9606   9.999   0.685   6.672  0.2761  0.0546  0.0822
 1065PNCE   C6B 9607   9.648   0.669   6.820  0.0415 -0.0270 -0.2536
 1066XCA    COO 9608   3.517  15.006   8.306  0.0737  0.0971 -0.0790
 1066XCA     C1 9609   3.449  14.878   7.877  0.3196 -0.1092 -0.0582
 1066XCA     C2 9610   3.319  14.875   7.395 -0.4432 -0.2043  0.1457
 1066XCA     C3 9611   3.185  14.722   6.988 -0.0588  0.2396 -0.3704
 1066XCA     C4 9612   3.409  14.527   6.624 -0.1155  0.0541 -0.0979
 1066XCA     C5 9613   3.580  14.692   6.163  0.0298 -0.2119 -0.1727
 1066XCA     C6 9614   3.774  14.656   5.739  0.0586  0.3261 -0.2897
 1067PNCE   AM1 9615  13.427   0.006   5.682 -0.2755 -0.0612  0.0309
 1067PNCE   AM2 9616  13.100   0.240   5.517 -0.0765 -0.0917  0.2056
 1067PNCE   T1A 9617  13.704   0.201   5.961 -0.0276  0.0727  0.1629
 1067PNCE   C2A 9618  13.900   0.460   6.168  0.1263 -0.0316 -0.3605
 1067PNCE   C3A 9619  14.220   0.473   6.657 -0.0606 -0.2038  0.1287
 1067PNCE   C1B 9620  13.550   0.557   5.577  0.2286 -0.0790 -0.2323
 1067PNCE   C2B 9621  13.833   0.565   5.680 -0.2136 -0.1327 -0.0137
 1067PNCE   C3B 9622  14.244   0.525   5.726 -0.0138  0.2697 -0.1744
 1067PNCE   D4B 9623  14.567   0.707   5.848 -0.2392  0.1977 -0.2251
 1067PNCE   C5B 9624  14.706   1.061   6.089  0.2140 -0.1460 -0.0951
 1067PNCE   C6B 9625  14.931   1.235   6.265  0.2313  0.0985  0.0015
 1068PNCE   AM1 9626   8.198   3.968   3.558 -0.0026  0.0152  0.3495
 1068PNCE   AM2 9627   8.038   4.066   3.210  0.1072 -0.3467 -0.1008
 1068PNCE   T1A 9628   8.297   4.089   3.982  0.4015  0.0862 -0.0744
 1068PNCE   C2A 9629   8.153   3.944   4.501 -0.0249 -0.0829  0.2281
 1068PNCE   C3A 9630   8.114   3.717   4.906  0.3051 -0.0731 -0.0178
 1068PNCE   C1B 9631   7.796   3.713   3.325 -0.3076  0.2572 -0.2457
 1068PNCE   C2B 9632   7.898   3.647   3.756 -0.0434 -0.1231 -0.0148
 1068PNCE   C3B 9633   7.858   3.921   4.087  0.1619 -0.0725 -0.0399
 1068PNCE   D4B 9634   7.746   4.303   4.062  0.2064  0.3243 -0.0888
 1068PNCE   C5B 9635   7.538   4.436   4.507 -0.0639 -0.0270 -0.2087
 1068PNCE   C6B 9636   7.598   4.607   4.997  0.0562  0.1604  0.1199
 1069PNCE   AM1 9637  11.099  14.249   4.632 -0.1763 -0.2270 -0.1386
 1069PNCE   AM2 9638  11.153  14.502   4.794  0.2556 -0.3686  0.0941
 1069PNCE   T1A 9639  10.716  14.295   4.957  0.1852 -0.0903 -0.2135
 1069PNCE   C2A 9640  10.726  14.134   5.293 -0.3626  0.2643 -0.3161
 1069PNCE   C3A 9641  11.019  13.940   5.525 -0.1339 -0.1472  0.5008
 1069PNCE   C1B 9642  11.074  14.456   5.283 -0.1201 -0.0061  0.0769
 1069PNCE   C2B 9643  11.266  14.382   5.662 -0.1180 -0.1326 -0.1142
 1069PNCE   C3B 9644  11.182  14.303   6.107 -0.1002  0.1273  0.0901
 1069PNCE   D4B 9645  10.934  14.161   6.463 -0.2039  0.1374 -0.0964
 1069PNCE   C5B 9646  10.808  13.756   6.643 -0.1871 -0.2237  0.1095
 1069PNCE   C6B 9647  10.548  13.419   6.916 -0.0194  0.0174  0.0422
 1070PNCE   AM1 9648   6.861   4.547   3.432 -0.0071  0.0014  0.4595
 1070PNCE   AM2 9649   6.779   4.807   3.551 -0.2063 -0.1851 -0.0408
 1070PNCE   T1A 9650   7.063   4.067   3.403  0.3035  0.2584  0.1490
 1070PNCE   C2A 9651   7.214   3.717   3.274 -0.0883  0.3149 -0.2518
 1070PNCE   C3A 9652   7.459   3.424   3.545 -0.1693 -0.1158  0.1972
 1070PNCE   C1B 9653   6.658   4.596   3.970  0.0889 -0.0987  0.0710
 1070PNCE   C2B 9654   6.781   4.599   4.368 -0.1255 -0.0553 -0.0725
 1070PNCE   C3B 9655   6.997   4.504   4.698 -0.2118  0.0317 -0.1028
 1070PNCE   D4B 9656   7.356   4.187   4.907  0.1142  0.0665  0.4493
 1070PNCE   C5B 9657   7.461   4.170   5.410 -0.0104  0.2310 -0.1466
 1070PNCE   C6B 9658   7.384   4.101   5.892 -0.0528  0.1288  0.1173
 1071CHOL   ROH 9659   4.875   7.790   7.653  0.0519  0.0109 -0.0022
 1071CHOL    R1 9660   4.830   7.767   7.375  0.1380 -0.2134 -0.0016
 1071CHOL    R2 9661   4.886   7.971   7.197 -0.4181 -0.0914 -0.0712
 1071CHOL    R3 9662   5.032   7.779   7.073  0.1512  0.2587  0.0221
 1071CHOL    R4 9663   4.996   7.987   6.870 -0.6008 -0.0067 -0.1281
 1071CHOL    R5 9664   4.948   7.776   6.849  0.0594 -0.1900  0.0606
 1071CHOL    C1 9665   5.196   7.816   6.562 -0.1727  0.3711 -0.0736
 1071CHOL    C2 9666   4.916   7.970   6.434 -0.1712 -0.1316  0.0213
 1072PNCE   AM1 9667  11.410   4.085   4.435  0.0291 -0.0208 -0.5404
 1072PNCE   AM2 9668  11.623   3.881   4.461  0.0211  0.0250 -0.4064
 1072PNCE   T1A 9669  11.212   3.998   4.828 -0.2082  0.0833 -0.0770
 1072PNCE   C2A 9670  10.873   3.940   5.148  0.0053 -0.0957 -0.1152
 1072PNCE   C3A 9671  10.686   3.808   5.584  0.0575  0.3045  0.0015
 1072PNCE   C1B 9672  11.618   3.663   4.823 -0.1038 -0.2239  0.0071
 1072PNCE   C2B 9673  11.427   3.475   5.152  0.2092  0.2014  0.0068
 1072PNCE   C3B 9674  11.143   3.564   5.401  0.0351 -0.2365 -0.1232
 1072PNCE   D4B 9675  10.987   3.536   5.845  0.0741  0.2166 -0.2486
 1072PNCE   C5B 9676  10.627   3.523   6.048 -0.2453 -0.1593  0.1444
 1072PNCE   C6B 9677  10.526   3.899   6.179 -0.0032  0.2612 -0.1198
 1073XCA    COO 9678  12.538   7.342   6.294 -0.3895 -0.0139  0.0302
 1073XCA     C1 9679  12.177   7.359   6.549  0.0348 -0.3990 -0.1681
 1073XCA     C2 9680  11.989   7.275   6.969 -0.0148 -0.0270  0.0273
 1073XCA     C3 9681  11.915   7.410   7.397  0.0396 -0.1316 -0.1716
 1073XCA     C4 9682  11.913   7.595   7.803  0.4669  0.0141 -0.0979
 1073XCA     C5 9683  12.254   7.679   7.943  0.2357  0.2053  0.0087
 1073XCA     C6 9684  12.664   7.543   8.122  0.2003  0.0045  0.2791
 1074XCA    COO 9685   6.944   6.437   3.530  0.0960 -0.0378 -0.1321
 1074XCA     C1 9686   6.817   6.664   3.923  0.0870  0.1762  0.1044
 1074XCA     C2 9687   6.813   6.599   4.306 -0.0934  0.2470 -0.0125
 1074XCA     C3 9688   6.808   6.292   4.581 -0.0451 -0.2409 -0.2939
 1074XCA     C4 9689   6.767   6.119   5.049 -0.1383 -0.0855  0.1281
 1074XCA     C5 9690   6.815   5.798   5.307  0.0486  0.0687  0.0448
 1074XCA     C6 9691   6.667   5.765   5.713  0.2480  0.0172 -0.3198
 1075XCA    COO 9692  15.296   5.395   6.088  0.0188  0.1080 -0.0883
 1075XCA     C1 9693  15.344   5.601   6.462  0.4363  0.1354 -0.1510
 1075XCA     C2 9694  15.399   6.027   6.685 -0.1714 -0.0369  0.0294
 1075XCA     C3 9695  15.837   6.119   6.909  0.2078  0.0071  0.1347
 1075XCA     C4 9696  16.063   6.492   6.995  0.1239  0.1708  0.5602
 1075XCA     C5 9697  16.201   6.908   6.928  0.0660  0.1615 -0.0936
 1075XCA     C6 9698  16.233   7.149   7.135 -0.2619 -0.1100 -0.0812
 1076PNCE   AM1 9699  13.571   2.421   4.705 -0.1074  0.1753 -0.1907
 1076PNCE   AM2 9700  13.538   2.418   4.411 -0.1534  0.0092  0.0862
 1076PNCE   T1A 9701  13.668   2.147   5.051  0.2119  0.0802  0.0819
 1076PNCE   C2A 9702  13.609   2.057   5.391  0.2001  0.0613  0.1863
 1076PNCE   C3A 9703  13.737   2.033   5.898  0.1287 -0.0934  0.1926
 1076PNCE   C1B 9704  13.374   1.973   4.482 -0.1115  0.0682  0.0416
 1076PNCE   C2B 9705  13.277   1.826   4.953 -0.1820 -0.0070 -0.0867
 1076PNCE   C3B 9706  13.149   1.824   5.430  0.0487 -0.1018  0.0774
 1076PNCE   D4B 9707  12.933   1.416   5.662  0.1988  0.0805 -0.2767
 1076PNCE   C5B 9708  12.961   1.529   6.055 -0.0033 -0.4766 -0.3162
 1076PNCE   C6B 9709  13.216   1.352   6.261  0.1521 -0.1940  0.0506
 1077CHOL   ROH 9710   7.958  11.699   6.129 -0.2154  0.1676  0.2546
 1077CHOL    R1 9711   8.078  11.774   6.374 -0.2265  0.0563  0.2964
 1077CHOL    R2 9712   8.036  11.635   6.610 -0.0703 -0.1820  0.1959
 1077CHOL    R3 9713   8.307  11.624   6.614 -0.0599  0.0300  0.1198
 1077CHOL    R4 9714   8.231  11.649   6.895  0.0021 -0.1918  0.1459
 1077CHOL    R5 9715   8.371  11.776   6.787 -0.1290 -0.0232  0.1846
 1077CHOL    C1 9716   8.599  11.646   7.064  0.0539  0.0015  0.0453
 1077CHOL    C2 9717   8.836  11.906   7.230 -0.0434 -0.0765 -0.2722
 1078CHOL   ROH 9718  10.045  15.179   5.090 -0.1202 -0.0849 -0.0438
 1078CHOL    R1 9719  10.020  14.963   5.271  0.0231 -0.1026 -0.0428
 1078CHOL    R2 9720  10.236  14.854   5.405  0.0756  0.1511  0.0864
 1078CHOL    R3 9721  10.084  14.906   5.625 -0.1074 -0.0015 -0.0017
 1078CHOL    R4 9722  10.267  14.691   5.708  0.2177  0.3295  0.1692
 1078CHOL    R5 9723  10.049  14.690   5.724  0.2059 -0.0228  0.0735
 1078CHOL    C1 9724  10.143  14.644   6.091  0.1285  0.2901  0.1347
 1078CHOL    C2 9725  10.232  14.654   6.487 -0.2644  0.4214  0.0516
 1079XCA    COO 9726   6.258   7.506   4.752 -0.0850  0.2025 -0.0973
 1079XCA     C1 9727   6.429   7.349   5.038 -0.0259 -0.1601  0.1213
 1079XCA     C2 9728   6.369   7.347   5.448  0.0315  0.2915  0.0663
 1079XCA     C3 9729   6.581   7.247   5.744 -0.0432 -0.1299 -0.0494
 1079XCA     C4 9730   6.973   7.182   5.872 -0.1503  0.0113  0.0588
 1079XCA     C5 9731   7.312   7.474   6.058  0.4114  0.2089 -0.0806
 1079XCA     C6 9732   7.773   7.675   6.012 -0.0305 -0.3168 -0.1256
 1080PNCE   AM1 9733  14.054   5.634   5.579  0.3295 -0.2702  0.1603
 1080PNCE   AM2 9734  13.870   5.876   5.435  0.0271 -0.1055 -0.1379
 1080PNCE   T1A 9735  14.221   5.632   6.033 -0.1535  0.0738  0.2865
 1080PNCE   C2A 9736  14.369   5.727   6.389  0.2524  0.2952  0.0710
 1080PNCE   C3A 9737  14.180   5.657   6.753 -0.1679  0.5261 -0.1879
 1080PNCE   C1B 9738  13.582   5.560   5.712  0.0468 -0.0673 -0.0899
 1080PNCE   C2B 9739  13.490   5.601   6.128 -0.0793 -0.0758 -0.2262
 1080PNCE   C3B 9740  13.332   5.854   6.455  0.3470  0.0658  0.3087
 1080PNCE   D4B 9741  13.137   5.954   6.931 -0.0343 -0.0911  0.0251
 1080PNCE   C5B 9742  13.022   6.092   7.283 -0.3716 -0.1976 -0.0339
 1080PNCE   C6B 9743  13.242   6.423   7.367 -0.1818 -0.1112 -0.1611
 1081CHOL   ROH 9744   6.046   3.860   7.646  0.0065 -0.0232 -0.1375
 1081CHOL    R1 9745   5.849   3.831   7.445  0.0629 -0.0773 -0.1863
 1081CHOL    R2 9746   5.835   3.998   7.226  0.0729 -0.0820 -0.1947
 1081CHOL    R3 9747   5.844   3.765   7.087  0.1709 -0.0831 -0.1860
 1081CHOL    R4 9748   5.728   3.958   6.899 -0.1248 -0.1970 -0.1170
 1081CHOL    R5 9749   5.643   3.766   6.956  0.0783 -0.2633 -0.0445
 1081CHOL    C1 9750   5.674   3.716   6.579 -0.1480 -0.2649 -0.0637
 1081CHOL    C2 9751   5.509   3.684   6.292  0.0572  0.0315 -0.1711
 1082PNCE   AM1 9752  11.005   5.369   4.919  0.3935  0.1008 -0.2443
 1082PNCE   AM2 9753  10.922   5.323   4.685 -0.2083 -0.0380  0.1361
 1082PNCE   T1A 9754  10.738   5.336   5.247 -0.1386 -0.1130 -0.0684
 1082PNCE   C2A 9755  10.574   5.545   5.667  0.2431 -0.1643 -0.1575
 1082PNCE   C3A 9756  10.535   5.797   5.946  0.0144 -0.3848  0.1778
 1082PNCE   C1B 9757  10.496   5.240   4.688 -0.2145 -0.0898 -0.2551
 1082PNCE   C2B 9758  10.051   4.954   4.721  0.0205 -0.3312  0.1558
 1082PNCE   C3B 9759  10.080   4.764   5.037  0.0085 -0.1967 -0.1798
 1082PNCE   D4B 9760   9.778   4.482   5.146  0.0233 -0.0365 -0.2972
 1082PNCE   C5B 9761   9.799   4.374   5.530  0.1731 -0.2076 -0.1769
 1082PNCE   C6B 9762   9.751   3.875   5.659 -0.1138 -0.2052 -0.1641
 1083CHOL   ROH 9763   1.105   3.228   7.682  0.0011 -0.0188 -0.0004
 1083CHOL    R1 9764   1.281   3.226   7.460 -0.1238 -0.0230 -0.1008
 1083CHOL    R2 9765   1.230   3.368   7.229 -0.1547  0.1387  0.0013
 1083CHOL    R3 9766   1.478   3.470   7.276 -0.0565 -0.0602 -0.0774
 1083CHOL    R4 9767   1.392   3.595   7.025 -0.0422  0.0242 -0.0377
 1083CHOL    R5 9768   1.577   3.486   7.058 -0.1175 -0.1249 -0.1091
 1083CHOL    C1 9769   1.718   3.823   6.950  0.1156 -0.2291 -0.1343
 1083CHOL    C2 9770   1.806   3.996   6.696 -0.2347  0.0938 -0.1087
 1084XCA    COO 9771  10.893  12.838   9.773 -0.4669 -0.0314 -0.0802
 1084XCA     C1 9772  10.659  12.737   9.436 -0.1101  0.0082 -0.2270
 1084XCA     C2 9773  10.736  12.903   9.044 -0.1486  0.1336 -0.0331
 1084XCA     C3 9774  10.879  12.797   8.622 -0.0864 -0.3060 -0.1664
 1084XCA     C4 9775  11.041  12.814   8.216 -0.3417 -0.0478  0.1569
 1084XCA     C5 9776  11.045  12.894   7.806  0.0932  0.1014  0.1611
 1084XCA     C6 9777  11.322  13.091   7.436 -0.1127  0.2891 -0.0370
 1085PNCE   AM1 9778   7.207  11.646   5.655 -0.1653  0.2055  0.0073
 1085PNCE   AM2 9779   7.009  11.995   5.578  0.1304  0.0312 -0.1247
 1085PNCE   T1A 9780   7.151  11.397   6.061 -0.2257  0.0639 -0.1538
 1085PNCE   C2A 9781   7.315  11.132   6.497  0.0693  0.1204  0.1884
 1085PNCE   C3A 9782   7.151  10.784   6.330 -0.0019  0.1884  0.1411
 1085PNCE   C1B 9783   6.805  11.956   5.959  0.1488  0.0237 -0.3892
 1085PNCE   C2B 9784   6.754  12.159   6.443 -0.3484 -0.0513 -0.0088
 1085PNCE   C3B 9785   6.786  12.574   6.492  0.0095  0.1256 -0.1630
 1085PNCE   D4B 9786   6.772  12.931   6.826 -0.1170  0.1731  0.2107
 1085PNCE   C5B 9787   6.698  13.369   6.793  0.1752 -0.0995  0.1782
 1085PNCE   C6B 9788   6.856  13.803   6.659 -0.0917  0.0896 -0.0681
 1086PNCE   AM1 9789   4.475  10.136   5.009  0.2447 -0.2368  0.1599
 1086PNCE   AM2 9790   4.117   9.977   5.095 -0.2273  0.0200  0.0269
 1086PNCE   T1A 9791   4.800   9.996   5.292 -0.0968 -0.0542  0.2399
 1086PNCE   C2A 9792   5.129  10.210   5.592  0.1837 -0.0204  0.2974
 1086PNCE   C3A 9793   5.020  10.397   5.939  0.2113  0.0476 -0.1619
 1086PNCE   C1B 9794   4.110  10.167   5.454 -0.0188 -0.0353  0.1801
 1086PNCE   C2B 9795   3.998  10.202   5.962 -0.0577  0.0498 -0.1983
 1086PNCE   C3B 9796   3.589  10.308   6.157 -0.2341 -0.0546  0.2431
 1086PNCE   D4B 9797   3.353   9.892   6.211  0.3370  0.0597 -0.0466
 1086PNCE   C5B 9798   3.199   9.588   6.503  0.1560 -0.1211 -0.1556
 1086PNCE   C6B 9799   3.282   9.533   7.008 -0.0789 -0.1242  0.0161
 1087CHOL   ROH 9800   4.509   0.320   4.773  0.0350  0.2506  0.0821
 1087CHOL    R1 9801   4.728   0.333   4.952  0.0658  0.0797  0.0599
 1087CHOL    R2 9802   4.801   0.566   5.079  0.2578  0.0239  0.0612
 1087CHOL    R3 9803   4.777   0.414   5.304  0.1627  0.0330  0.0565
 1087CHOL    R4 9804   4.933   0.649   5.388  0.4930 -0.1714  0.0156
 1087CHOL    R5 9805   4.988   0.439   5.415  0.2414 -0.2433 -0.0286
 1087CHOL    C1 9806   4.987   0.555   5.779  0.5407 -0.2767 -0.0152
 1087CHOL    C2 9807   5.220   0.609   6.154  0.0357 -0.3278  0.1875
 1088CHOL   ROH 9808   8.899   3.390   4.712  0.1403  0.2087  0.0517
 1088CHOL    R1 9809   8.876   3.371   4.994  0.0743  0.1597  0.0427
 1088CHOL    R2 9810   8.809   3.136   5.122 -0.1026  0.1761 -0.0250
 1088CHOL    R3 9811   9.038   3.183   5.260 -0.0986 -0.0059  0.0349
 1088CHOL    R4 9812   8.916   2.954   5.395 -0.2988  0.0518 -0.0289
 1088CHOL    R5 9813   8.980   3.140   5.488 -0.1870 -0.0027  0.0168
 1088CHOL    C1 9814   9.193   2.892   5.685 -0.4094 -0.1915  0.0251
 1088CHOL    C2 9815   9.343   2.532   5.960  0.1051 -0.0410  0.2453
 1089XCA    COO 9816   4.508   1.104   7.549 -0.0401  0.0411 -0.3655
 1089XCA     C1 9817   4.635   0.824   7.190 -0.5170  0.1006 -0.0884
 1089XCA     C2 9818   4.786   1.008   6.826 -0.0179 -0.3287  0.0124
 1089XCA     C3 9819   4.714   0.974   6.421 -0.2980  0.0279 -0.2731
 1089XCA     C4 9820   4.421   1.180   6.146  0.2943 -0.3344  0.1076
 1089XCA     C5 9821   4.300   1.182   5.709  0.3147  0.1196  0.1264
 1089XCA     C6 9822   4.199   1.154   5.246  0.0629 -0.1014 -0.1774
 1090CHOL   ROH 9823   6.494   4.003   6.420  0.3357  0.1945  0.0830
 1090CHOL    R1 9824   6.381   4.081   6.173  0.1773 -0.1059  0.0562
 1090CHOL    R2 9825   6.372   4.345   6.090 -0.3143 -0.1473 -0.0442
 1090CHOL    R3 9826   6.498   4.246   5.870 -0.1381 -0.0004 -0.0120
 1090CHOL    R4 9827   6.429   4.523   5.799 -0.5597 -0.1127 -0.0740
 1090CHOL    R5 9828   6.380   4.344   5.685 -0.2736 -0.2175 -0.0440
 1090CHOL    C1 9829   6.581   4.535   5.423 -0.5372  0.0453 -0.0612
 1090CHOL    C2 9830   6.616   4.912   5.129 -0.1182  0.7748 -0.1672
 1091XCA    COO 9831  15.628   6.016   8.774  0.3440 -0.1533 -0.2431
 1091XCA     C1 9832  15.418   5.958   8.372 -0.4561  0.0484 -0.2796
 1091XCA     C2 9833  15.423   5.537   8.130 -0.2071 -0.3045 -0.0634
 1091XCA     C3 9834  15.635   5.302   7.727 -0.2810 -0.1031  0.0016
 1091XCA     C4 9835  15.683   5.062   7.302  0.0704  0.1008  0.0294
 1091XCA     C5 9836  15.634   4.753   6.800  0.1761 -0.1686  0.1886
 1091XCA     C6 9837  15.714   4.801   6.392  0.2687  0.1173 -0.1201
 1092CHOL   ROH 9838  15.121  13.368   4.890  0.1728 -0.2030 -0.1075
 1092CHOL    R1 9839  15.080  13.400   5.168  0.2961 -0.0650 -0.1034
 1092CHOL    R2 9840  14.926  13.226   5.317  0.0890  0.1896 -0.0088
 1092CHOL    R3 9841  15.150  13.209   5.470  0.1140 -0.0819 -0.0713
 1092CHOL    R4 9842  14.934  13.114   5.644  0.0485  0.1648 -0.0165
 1092CHOL    R5 9843  15.077  13.272   5.689  0.2489 -0.0050 -0.0485
 1092CHOL    C1 9844  15.150  13.033   5.978  0.0485 -0.1045 -0.0796
 1092CHOL    C2 9845  15.282  12.647   6.332  0.1470  0.2284 -0.1150
 1093XCA    COO 9846  15.325   9.873   4.659 -0.0740 -0.0646 -0.1694
 1093XCA     C1 9847  15.379  10.110   4.972 -0.1807  0.2177 -0.0936
 1093XCA     C2 9848  15.315  10.428   5.311 -0.0861  0.1449 -0.2063
 1093XCA     C3 9849  14.998  10.650   5.550 -0.1574  0.1746  0.0443
 1093XCA     C4 9850  14.892  10.560   5.957  0.1476 -0.0584 -0.0140
 1093XCA     C5 9851  14.748  10.420   6.333 -0.0013  0.0378 -0.0801
 1093XCA     C6 9852  14.528  10.553   6.656 -0.0889 -0.0393  0.1200
 1094PNCE   AM1 9853   9.762  10.301   6.021  0.0009  0.1722  0.0118
 1094PNCE   AM2 9854   9.904  10.612   6.037  0.3560  0.0291  0.1300
 1094PNCE   T1A 9855   9.597  10.346   6.509  0.4253  0.0904  0.0065
 1094PNCE   C2A 9856   9.433  10.005   6.788  0.2753  0.1355  0.0683
 1094PNCE   C3A 9857   9.164  10.134   7.056  0.3711 -0.0943  0.1353
 1094PNCE   C1B 9858  10.078  10.594   6.457 -0.1839  0.4899  0.1522
 1094PNCE   C2B 9859  10.113  10.413   6.867  0.1273 -0.3175  0.0613
 1094PNCE   C3B 9860  10.134  10.416   7.378 -0.0989 -0.2772 -0.1529
 1094PNCE   D4B 9861   9.921  10.163   7.706  0.0794  0.1674  0.0003
 1094PNCE   C5B 9862   9.985  10.371   8.219 -0.0324 -0.0515 -0.2259
 1094PNCE   C6B 9863  10.222  10.300   8.563  0.0387 -0.3600 -0.1562
 1095XCA    COO 9864   6.161  15.547   3.682 -0.0755  0.0417 -0.0944
 1095XCA     C1 9865   6.302  15.703   4.064 -0.1514 -0.1456  0.0572
 1095XCA     C2 9866   6.300  15.857   4.483 -0.0134  0.1884 -0.1073
 1095XCA     C3 9867   6.611  15.823   4.724  0.1932  0.1281 -0.0835
 1095XCA     C4 9868   6.761  15.478   4.922  0.1267 -0.1441  0.0102
 1095XCA     C5 9869   6.562  15.275   5.147 -0.3145 -0.0764 -0.3229
 1095XCA     C6 9870   6.538  15.141   5.597 -0.1614  0.0607  0.0470
 1096XCA    COO 9871  12.941  12.404   8.768  0.2269 -0.1414 -0.0159
 1096XCA     C1 9872  13.242  12.315   8.409 -0.4646  0.0804 -0.3108
 1096XCA     C2 9873  13.346  12.579   8.046  0.2947  0.0410  0.0376
 1096XCA     C3 9874  13.232  12.773   7.610  0.0739  0.0348  0.3847
 1096XCA     C4 9875  13.215  12.609   7.194 -0.0510 -0.0882 -0.0001
 1096XCA     C5 9876  12.969  12.589   6.832 -0.1448 -0.1826 -0.1382
 1096XCA     C6 9877  12.671  12.684   6.559  0.0374 -0.0541  0.0774
 1097PNCE   AM1 9878   2.628   8.478   4.915  0.3983 -0.0993  0.0994
 1097PNCE   AM2 9879   2.867   8.465   4.970 -0.0924  0.1733  0.3379
 1097PNCE   T1A 9880   2.445   8.671   5.379 -0.1215  0.1709  0.3202
 1097PNCE   C2A 9881   2.283   8.651   5.856 -0.0592  0.1424  0.2928
 1097PNCE   C3A 9882   2.255   8.466   6.263 -0.2232  0.0829 -0.3084
 1097PNCE   C1B 9883   2.914   8.240   5.263 -0.1315  0.0833  0.0530
 1097PNCE   C2B 9884   2.916   8.074   5.681  0.0097  0.2131 -0.0125
 1097PNCE   C3B 9885   2.920   7.892   6.086 -0.1414 -0.0251 -0.2016
 1097PNCE   D4B 9886   3.211   7.940   6.388 -0.0986  0.0052 -0.2395
 1097PNCE   C5B 9887   3.593   8.066   6.396  0.0323 -0.0937 -0.3399
 1097PNCE   C6B 9888   4.011   7.965   6.270 -0.0736 -0.0423 -0.1408
 1098PNCE   AM1 9889  15.405  12.517   5.176  0.1758  0.2699  0.0006
 1098PNCE   AM2 9890  15.233  12.307   5.077 -0.4133 -0.0182  0.1134
 1098PNCE   T1A 9891  15.346  12.280   5.543  0.1373  0.3102 -0.2309
 1098PNCE   C2A 9892  15.154  12.096   5.997 -0.0777 -0.0104 -0.0456
 1098PNCE   C3A 9893  14.937  11.817   6.263 -0.0022  0.1437  0.0401
 1098PNCE   C1B 9894  14.907  12.202   5.421 -0.3248 -0.0513  0.0422
 1098PNCE   C2B 9895  14.693  11.888   5.730  0.0085 -0.0518  0.1910
 1098PNCE   C3B 9896  14.448  11.741   6.049  0.2385 -0.0681  0.3109
 1098PNCE   D4B 9897  14.219  11.455   6.214 -0.1673  0.0295 -0.1115
 1098PNCE   C5B 9898  14.445  11.120   6.079 -0.0258  0.1586 -0.0920
 1098PNCE   C6B 9899  14.527  10.902   5.696 -0.0470 -0.1675  0.0789
 1099PNCE   AM1 9900   3.574   3.650   3.753  0.5061  0.3891  0.2340
 1099PNCE   AM2 9901   3.771   3.955   4.040  0.0961 -0.1094 -0.1414
 1099PNCE   T1A 9902   3.485   3.470   4.131  0.1813 -0.0040  0.1063
 1099PNCE   C2A 9903   3.595   3.298   4.506  0.1228 -0.2410 -0.1517
 1099PNCE   C3A 9904   3.641   2.975   4.653 -0.1359 -0.1070  0.0922
 1099PNCE   C1B 9905   3.945   3.636   4.308 -0.2804 -0.1629  0.0698
 1099PNCE   C2B 9906   4.386   3.341   4.454  0.1256  0.0025 -0.0056
 1099PNCE   C3B 9907   4.545   3.276   4.848 -0.0438  0.1925 -0.0619
 1099PNCE   D4B 9908   4.934   3.481   5.022 -0.1109  0.2961  0.0171
 1099PNCE   C5B 9909   5.343   3.532   4.832  0.0229 -0.0857  0.4085
 1099PNCE   C6B 9910   5.456   3.769   4.535 -0.3375  0.1698 -0.0984
 1100CHOL   ROH 9911   4.007  13.937   4.684 -0.0396 -0.0313  0.0644
 1100CHOL    R1 9912   4.078  14.096   4.907  0.2033 -0.0352 -0.0066
 1100CHOL    R2 9913   3.904  14.147   5.116  0.2319  0.4222 -0.0786
 1100CHOL    R3 9914   4.107  14.048   5.267  0.0065  0.1093  0.0290
 1100CHOL    R4 9915   4.009  14.280   5.416  0.5472  0.5180 -0.2282
 1100CHOL    R5 9916   4.215  14.243   5.356  0.4678 -0.0357 -0.1899
 1100CHOL    C1 9917   4.261  14.266   5.734  0.5192  0.2802 -0.2142
 1100CHOL    C2 9918   4.142  14.380   6.068  0.3489  0.1100  0.0514
 1101XCA    COO 9919   7.667   6.663   8.204 -0.2578 -0.2487  0.1473
 1101XCA     C1 9920   7.888   7.016   8.042  0.1869 -0.0305 -0.2597
 1101XCA     C2 9921   8.106   7.349   8.248 -0.4184  0.0455  0.4290
 1101XCA     C3 9922   8.273   7.723   8.106  0.0713 -0.0070  0.2497
 1101XCA     C4 9923   8.440   7.986   7.781 -0.1153  0.0662  0.1668
 1101XCA     C5 9924   8.587   8.205   7.403  0.1204 -0.0077 -0.1052
 1101XCA     C6 9925   8.619   8.503   7.029  0.1709 -0.1451  0.0450
 1102PNCE   AM1 9926   4.638   1.430   3.464  0.0441 -0.1111  0.0100
 1102PNCE   AM2 9927   4.541   1.718   3.612 -0.1841 -0.0418 -0.0463
 1102PNCE   T1A 9928   4.652   1.329   3.954  0.1959 -0.1821 -0.0322
 1102PNCE   C2A 9929   4.496   1.532   4.385  0.0244 -0.0127  0.0773
 1102PNCE   C3A 9930   4.588   1.581   4.789  0.2473  0.2026 -0.2597
 1102PNCE   C1B 9931   4.945   1.745   3.928 -0.1024 -0.4035  0.1799
 1102PNCE   C2B 9932   5.063   1.504   4.304  0.2614 -0.2199 -0.1007
 1102PNCE   C3B 9933   5.106   1.526   4.711  0.2121 -0.0205 -0.1544
 1102PNCE   D4B 9934   5.119   1.411   5.116 -0.0445  0.0658 -0.0089
 1102PNCE   C5B 9935   5.488   1.280   5.333  0.1948  0.1869  0.1657
 1102PNCE   C6B 9936   5.876   1.565   5.353 -0.4294  0.1846 -0.0961
 1103CHOL   ROH 9937   6.436   1.487   7.207 -0.0688  0.1117 -0.0692
 1103CHOL    R1 9938   6.347   1.366   6.968 -0.0677  0.0547 -0.0412
 1103CHOL    R2 9939   6.490   1.379   6.732 -0.1503  0.1499 -0.0896
 1103CHOL    R3 9940   6.468   1.108   6.741  0.0288  0.1343 -0.0795
 1103CHOL    R4 9941   6.334   1.186   6.491 -0.1909  0.0500  0.0157
 1103CHOL    R5 9942   6.250   1.064   6.651 -0.0031 -0.0069  0.0691
 1103CHOL    C1 9943   6.223   0.819   6.359 -0.0464 -0.0228  0.0864
 1103CHOL    C2 9944   6.175   0.647   5.994 -0.2745 -0.0081  0.2808
 1104XCA    COO 9945  10.834  12.132   5.515  0.3459  0.1511  0.0100
 1104XCA     C1 9946  10.622  12.468   5.469  0.0086  0.1615 -0.0166
 1104XCA     C2 9947  10.820  12.855   5.570 -0.0104  0.0529  0.1528
 1104XCA     C3 9948  11.106  13.240   5.749  0.0187 -0.4292  0.1130
 1104XCA     C4 9949  11.224  13.608   5.839  0.0991  0.0612 -0.2517
 1104XCA     C5 9950  11.295  13.858   6.180  0.0148  0.0820 -0.2829
 1104XCA     C6 9951  11.467  14.053   6.514  0.3064 -0.0305  0.1555
 1105CHOL   ROH 9952  15.101   1.277   8.123  0.1511  0.1675 -0.0099
 1105CHOL    R1 9953  15.056   1.441   7.896  0.1500  0.0919 -0.0643
 1105CHOL    R2 9954  15.238   1.461   7.689  0.0989 -0.0639 -0.1250
 1105CHOL    R3 9955  15.024   1.391   7.537  0.0280 -0.0431 -0.0361
 1105CHOL    R4 9956  15.158   1.603   7.384  0.1241 -0.2188 -0.2049
 1105CHOL    R5 9957  14.948   1.598   7.443  0.1303 -0.0587 -0.1588
 1105CHOL    C1 9958  14.910   1.620   7.064  0.0723 -0.2895 -0.1682
 1105CHOL    C2 9959  14.692   1.618   6.798  0.2550 -0.1347  0.1989
 1106PNCE   AM1 9960  12.405   4.292   9.544 -0.0638 -0.2195  0.0325
 1106PNCE   AM2 9961  12.150   4.279   9.386  0.0081  0.0200  0.0102
 1106PNCE   T1A 9962  12.565   4.602   9.349  0.1428  0.3483  0.3591
 1106PNCE   C2A 9963  12.604   4.950   9.094 -0.0223  0.1025 -0.0481
 1106PNCE   C3A 9964  12.931   5.066   8.906  0.5210  0.1674 -0.4049
 1106PNCE   C1B 9965  12.162   4.692   9.094 -0.2444  0.1185  0.1280
 1106PNCE   C2B 9966  12.164   5.183   9.108 -0.1659 -0.1844 -0.1952
 1106PNCE   C3B 9967  12.194   5.543   8.938  0.2551  0.0257 -0.0137
 1106PNCE   D4B 9968  11.960   5.869   8.808  0.1017  0.0158 -0.2394
 1106PNCE   C5B 9969  11.646   6.053   9.158 -0.1053 -0.3284  0.1340
 1106PNCE   C6B 9970  11.586   6.014   9.557  0.1375  0.0620 -0.1946
 1107CHOL   ROH 9971  13.989  11.540   6.613 -0.2048  0.2695  0.1330
 1107CHOL    R1 9972  14.111  11.779   6.523 -0.0952  0.1897  0.0648
 1107CHOL    R2 9973  14.260  11.942   6.689 -0.2344  0.3001  0.0849
 1107CHOL    R3 9974  14.449  11.911   6.496 -0.0540  0.1328  0.2851
 1107CHOL    R4 9975  14.496  12.179   6.604 -0.2298  0.2739  0.0258
 1107CHOL    R5 9976  14.467  12.127   6.395 -0.0296  0.0257  0.0540
 1107CHOL    C1 9977  14.812  12.288   6.375 -0.0576  0.1016  0.1794
 1107CHOL    C2 9978  15.053  12.330   6.694 -0.2765  0.1601 -0.2779
 1108CHOL   ROH 9979   0.113   2.756   8.272  0.1989  0.1698 -0.2827
 1108CHOL    R1 9980  -0.131   2.702   8.139  0.1714  0.0653 -0.1915
 1108CHOL    R2 9981  -0.356   2.859   8.170  0.0573 -0.1366  0.0369
 1108CHOL    R3 9982  -0.345   2.873   7.899 -0.0946  0.0620  0.0381
 1108CHOL    R4 9983  -0.620   2.948   7.965 -0.1114 -0.1639  0.2384
 1108CHOL    R5 9984  -0.558   2.793   7.826 -0.0812 -0.0268  0.0957
 1108CHOL    C1 9985  -0.762   3.013   7.591 -0.3521  0.0067  0.3571
 1108CHOL    C2 9986  -0.759   2.953   7.120 -0.1985 -0.0601  0.1087
 1109CHOL   ROH 9987   7.857   2.277   3.525  0.0829 -0.1753  0.1473
 1109CHOL    R1 9988   7.952   2.373   3.774 -0.0888 -0.0258  0.1571
 1109CHOL    R2 9989   8.210   2.466   3.809 -0.0269 -0.2609  0.3419
 1109CHOL    R3 9990   8.083   2.687   3.903  0.0962 -0.0291 -0.0168
 1109CHOL    R4 9991   8.344   2.689   4.037 -0.0216 -0.1459  0.2270
 1109CHOL    R5 9992   8.149   2.700   4.133 -0.1071  0.1517  0.0353
 1109CHOL    C1 9993   8.303   3.026   4.257  0.0970  0.1386 -0.1767
 1109CHOL    C2 9994   8.622   3.228   4.426 -0.2738  0.0226 -0.1238
 1110PNCE   AM1 9995  14.087   9.910   9.401 -0.1797 -0.0345  0.2016
 1110PNCE   AM2 9996  13.901  10.247   9.293  0.2291 -0.1692  0.0239
 1110PNCE   T1A 9997  13.958   9.672   9.025  0.4249 -0.0662 -0.3313
 1110PNCE   C2A 9998  13.614   9.492   8.847  0.1446 -0.1447 -0.2143
 1110PNCE   C3A 9999  13.214   9.640   8.826 -0.1804 -0.1182 -0.1317
 1110PNCE   C1B10000  13.811  10.123   8.856  0.1113  0.6863  0.0563
 1110PNCE   C2B10001  13.479  10.235   8.530  0.2469  0.4866  0.2258
 1110PNCE   C3B10002  13.495  10.174   8.066  0.1557  0.2047  0.2685
 1110PNCE   D4B10003  13.547  10.334   7.640  0.2029 -0.1549 -0.2504
 1110PNCE   C5B10004  13.451   9.946   7.306 -0.1192 -0.0848  0.1882
 1110PNCE   C6B10005  13.321  10.089   7.060  0.0202  0.0312  0.1761
 1111XCA    COO10006   2.198  14.373   8.783 -0.2543 -0.1996 -0.0143
 1111XCA     C110007   2.178  14.319   8.327 -0.0555 -0.2591 -0.2564
 1111XCA     C210008   1.937  14.313   8.049 -0.2960 -0.2258  0.4344
 1111XCA     C310009   1.985  14.605   7.742  0.1062 -0.0836 -0.2043
 1111XCA     C410010   1.859  14.937   7.410  0.2906 -0.1951  0.3142
 1111XCA     C510011   2.163  14.984   7.063  0.0188 -0.1046  0.1579
 1111XCA     C610012   2.248  14.925   6.634  0.1328  0.0311  0.2655
 1112CHOL   ROH10013   5.286   1.987   3.716  0.1060  0.0923 -0.0690
 1112CHOL    R110014   5.379   2.045   3.977 -0.0651  0.1882 -0.0286
 1112CHOL    R210015   5.214   2.148   4.174 -0.2601  0.0066 -0.0965
 1112CHOL    R310016   5.303   1.933   4.315 -0.0855  0.0992 -0.0615
 1112CHOL    R410017   5.244   2.136   4.518 -0.0887  0.1491 -0.1050
 1112CHOL    R510018   5.432   2.028   4.493 -0.0441  0.2309 -0.1571
 1112CHOL    C110019   5.345   1.928   4.851  0.1749  0.3191 -0.0772
 1112CHOL    C210020   5.423   1.838   5.259  0.1643 -0.1068  0.0845
 1113CHOL   ROH10021  14.629   6.745   5.661 -0.0636  0.1151  0.0312
 1113CHOL    R110022  14.688   6.679   5.930 -0.1384 -0.1457 -0.0113
 1113CHOL    R210023  14.811   6.856   6.103  0.2304 -0.4591  0.0767
 1113CHOL    R310024  14.595   6.804   6.259  0.1451 -0.1424  0.0672
 1113CHOL    R410025  14.813   6.851   6.448  0.2136 -0.5401  0.0739
 1113CHOL    R510026  14.683   6.677   6.442 -0.0671 -0.3235  0.0384
 1113CHOL    C110027  14.612   6.799   6.796  0.1237 -0.2900  0.0634
 1113CHOL    C210028  14.300   6.890   7.066  0.1149 -0.2960 -0.1300
 1114XCA    COO10029   8.990   0.870   7.918 -0.4657 -0.4711 -0.0773
 1114XCA     C110030   8.803   1.051   7.558 -0.1226  0.0328  0.1233
 1114XCA     C210031   8.923   0.806   7.254  0.1100 -0.1237 -0.1028
 1114XCA     C310032   8.880   0.420   7.011  0.0642  0.0407  0.0355
 1114XCA     C410033   9.115   0.034   6.917  0.2643 -0.0660 -0.2557
 1114XCA     C510034   9.393  -0.195   6.949 -0.1506  0.3704 -0.0265
 1114XCA     C610035   9.757  -0.325   6.675 -0.3330  0.2911  0.3539
 1115CHOL   ROH10036  10.449   0.586   4.970 -0.2233 -0.0906  0.0869
 1115CHOL    R110037  10.382   0.358   5.125  0.0722 -0.0964  0.2139
 1115CHOL    R210038  10.450   0.335   5.391 -0.0707  0.2350  0.2872
 1115CHOL    R310039  10.183   0.290   5.422 -0.0229 -0.2149  0.1228
 1115CHOL    R410040  10.294   0.267   5.692 -0.1891  0.2586  0.2318
 1115CHOL    R510041  10.170   0.120   5.590  0.1529 -0.0717  0.2816
 1115CHOL    C110042   9.953   0.187   5.896 -0.2131 -0.1501  0.0451
 1115CHOL    C210043   9.735   0.063   6.077  0.0915 -0.3943  0.1290
 1116XCA    COO10044   4.604  10.562   4.644  0.1218 -0.1062  0.0214
 1116XCA     C110045   4.773  10.502   5.034 -0.2522  0.2273  0.0101
 1116XCA     C210046   4.887  10.717   5.310 -0.0130  0.0144 -0.3392
 1116XCA     C310047   4.850  10.826   5.702  0.0005 -0.1672 -0.1506
 1116XCA     C410048   4.782  10.901   6.155 -0.1017 -0.3172  0.0405
 1116XCA     C510049   4.895  10.761   6.611  0.2333 -0.0213 -0.1304
 1116XCA     C610050   5.190  10.911   6.836  0.1160  0.1852  0.1846
 1117PNCE   AM110051   8.259  10.881   5.611 -0.3915  0.4711 -0.2563
 1117PNCE   AM210052   8.534  11.010   5.659 -0.1102 -0.1259  0.2695
 1117PNCE   T1A10053   8.301  10.813   6.048 -0.2140  0.0457  0.0591
 1117PNCE   C2A10054   8.268  10.883   6.468  0.0044 -0.2300 -0.0615
 1117PNCE   C3A10055   8.282  11.186   6.804  0.1614  0.0028  0.1779
 1117PNCE   C1B10056   8.694  11.151   6.007 -0.0131 -0.0246  0.2124
 1117PNCE   C2B10057   8.616  11.313   6.399 -0.1497  0.3294 -0.1551
 1117PNCE   C3B10058   8.762  11.296   6.800 -0.2901  0.0553  0.1176
 1117PNCE   D4B10059   8.879  10.976   7.012  0.0884 -0.1612 -0.0003
 1117PNCE   C5B10060   9.255  10.639   7.087  0.0524 -0.0560 -0.0133
 1117PNCE   C6B10061   9.688  10.394   7.113 -0.3005  0.2006 -0.2263
 1118PNCE   AM110062  12.480  15.660   5.406 -0.1757  0.1584  0.0382
 1118PNCE   AM210063  12.600  15.933   5.604 -0.4396  0.1946 -0.0356
 1118PNCE   T1A10064  12.726  15.294   5.406  0.0948  0.0337  0.1722
 1118PNCE   C2A10065  12.874  14.985   5.763  0.1487 -0.1854  0.2935
 1118PNCE   C3A10066  12.817  15.093   6.198 -0.1800 -0.1142 -0.1606
 1118PNCE   C1B10067  12.377  15.713   5.985 -0.1905 -0.2921 -0.0974
 1118PNCE   C2B10068  12.414  15.487   6.416  0.1122  0.1661  0.1816
 1118PNCE   C3B10069  12.230  15.307   6.680  0.0798 -0.2613  0.1326
 1118PNCE   D4B10070  11.809  15.188   6.957 -0.0210 -0.0954 -0.3917
 1118PNCE   C5B10071  11.727  14.799   7.066 -0.3121 -0.0717  0.2756
 1118PNCE   C6B10072  11.552  14.506   6.843 -0.0750 -0.1866  0.3638
 1119PNCE   AM110073   8.828   6.882   4.849  0.1203  0.2538 -0.1507
 1119PNCE   AM210074   9.046   7.053   5.085 -0.0395 -0.0343 -0.0032
 1119PNCE   T1A10075   8.836   6.626   5.238 -0.2412  0.1291 -0.0058
 1119PNCE   C2A10076   8.737   6.533   5.670  0.1440 -0.0223 -0.0035
 1119PNCE   C3A10077   8.457   6.311   5.873  0.1005 -0.0092 -0.1027
 1119PNCE   C1B10078   9.128   7.465   5.312  0.1263 -0.3267  0.0883
 1119PNCE   C2B10079   9.085   7.803   5.632  0.0807  0.0485 -0.0620
 1119PNCE   C3B10080   8.735   8.038   5.863  0.0124  0.0930  0.1676
 1119PNCE   D4B10081   8.335   8.324   5.762 -0.1810 -0.0793  0.0958
 1119PNCE   C5B10082   8.172   8.780   5.834  0.0519  0.1025  0.2543
 1119PNCE   C6B10083   8.176   9.080   5.979 -0.0591 -0.4201  0.0650
 1120PNCE   AM110084   6.601  11.553   5.200 -0.1043  0.1396  0.3257
 1120PNCE   AM210085   6.899  11.565   5.278  0.1135  0.0761  0.3303
 1120PNCE   T1A10086   6.518  11.838   5.479 -0.0497 -0.2536 -0.3916
 1120PNCE   C2A10087   6.340  12.054   5.835 -0.0276  0.2810  0.3466
 1120PNCE   C3A10088   6.408  12.385   6.106  0.2805 -0.0674 -0.0163
 1120PNCE   C1B10089   6.689  11.444   5.771 -0.1088  0.1463 -0.2966
 1120PNCE   C2B10090   6.562  11.544   6.119 -0.2048 -0.0765 -0.3929
 1120PNCE   C3B10091   6.435  11.656   6.558 -0.2007  0.2791  0.1419
 1120PNCE   D4B10092   6.420  11.519   7.084 -0.1022  0.1122 -0.0720
 1120PNCE   C5B10093   6.177  11.087   7.120 -0.0015  0.1337 -0.0416
 1120PNCE   C6B10094   6.389  10.692   7.006  0.2189 -0.2157  0.0850
 1121PNCE   AM110095   1.281  14.245   4.899 -0.2141 -0.0212 -0.0223
 1121PNCE   AM210096   1.575  14.393   5.043 -0.0104 -0.0581  0.2684
 1121PNCE   T1A10097   1.292  14.030   5.299 -0.1633  0.1764  0.2509
 1121PNCE   C2A10098   1.578  14.106   5.604 -0.0673  0.1449  0.0731
 1121PNCE   C3A10099   1.686  14.142   6.101 -0.4583  0.0452  0.1122
 1121PNCE   C1B10100   1.488  14.606   5.489 -0.0143 -0.2326 -0.1830
 1121PNCE   C2B10101   1.506  14.583   5.945  0.3248 -0.0523 -0.0296
 1121PNCE   C3B10102   1.299  14.806   6.271  0.4222  0.1043 -0.0413
 1121PNCE   D4B10103   1.294  15.121   6.545  0.1950  0.0589  0.1458
 1121PNCE   C5B10104   1.143  15.545   6.391 -0.0179 -0.1204  0.0141
 1121PNCE   C6B10105   1.048  15.617   5.998 -0.1252 -0.1951 -0.0857
 1122CHOL   ROH10106   8.708  15.488   8.490  0.1361 -0.1057 -0.0245
 1122CHOL    R110107   8.825  15.432   8.238  0.1829 -0.2603  0.0295
 1122CHOL    R210108   8.782  15.194   8.104 -0.0491 -0.2200  0.0194
 1122CHOL    R310109   8.707  15.359   7.902  0.2411 -0.1297 -0.0185
 1122CHOL    R410110   8.729  15.097   7.776 -0.1652 -0.1865  0.0291
 1122CHOL    R510111   8.826  15.280   7.711  0.1376 -0.3519  0.0101
 1122CHOL    C110112   8.626  15.196   7.397  0.0398 -0.0823 -0.0010
 1122CHOL    C210113   8.573  15.002   7.169 -0.0834 -0.0318  0.0652
 1123CHOL   ROH10114   6.589   9.351   4.912 -0.3487 -0.1369 -0.1969
 1123CHOL    R110115   6.459   9.401   5.159 -0.2108 -0.1460 -0.1211
 1123CHOL    R210116   6.409   9.657   5.251 -0.1066 -0.1477 -0.0537
 1123CHOL    R310117   6.153   9.565   5.268 -0.1187 -0.0935  0.0621
 1123CHOL    R410118   6.162   9.793   5.451  0.0561 -0.1943  0.1820
 1123CHOL    R510119   6.095   9.591   5.498  0.0379 -0.2037  0.1154
 1123CHOL    C110120   5.779   9.786   5.583  0.1395 -0.1704  0.4279
 1123CHOL    C210121   5.577  10.072   5.487 -0.2196  0.0001 -0.1373
 1124XCA    COO10122   5.642   5.591   3.973  0.1785 -0.1644  0.2123
 1124XCA     C110123   5.420   5.544   4.280 -0.0047 -0.0015 -0.0014
 1124XCA     C210124   5.340   5.415   4.732  0.1336 -0.1452  0.2333
 1124XCA     C310125   5.393   5.340   5.121 -0.0317 -0.1021 -0.2116
 1124XCA     C410126   5.368   5.186   5.545  0.0422 -0.0348  0.0036
 1124XCA     C510127   5.506   4.976   5.965 -0.1740  0.4696 -0.0028
 1124XCA     C610128   5.427   4.806   6.310  0.4149 -0.2731 -0.1143
 1125CHOL   ROH10129  12.372  11.769   9.169 -0.1945 -0.3113 -0.0226
 1125CHOL    R110130  12.471  11.720   8.909 -0.1796 -0.1925 -0.0395
 1125CHOL    R210131  12.366  11.524   8.745 -0.1612 -0.1252 -0.1285
 1125CHOL    R310132  12.339  11.730   8.570 -0.1625 -0.0514 -0.0432
 1125CHOL    R410133  12.431  11.505   8.406 -0.0722  0.0371 -0.1222
 1125CHOL    R510134  12.522  11.703   8.417 -0.1164  0.0545 -0.0107
 1125CHOL    C110135  12.443  11.687   8.044 -0.0215  0.2009 -0.0384
 1125CHOL    C210136  12.309  11.434   7.735  0.1077  0.0566 -0.0254
 1126PNCE   AM110137   3.298  15.171   4.751 -0.2055  0.1441  0.2246
 1126PNCE   AM210138   3.614  15.354   4.712  0.0861  0.0713 -0.3779
 1126PNCE   T1A10139   3.193  14.833   5.023  0.2188  0.0776  0.4130
 1126PNCE   C2A10140   3.336  14.478   5.196 -0.4134  0.0298 -0.3398
 1126PNCE   C3A10141   2.954  14.187   5.478  0.5185 -0.3945  0.2678
 1126PNCE   C1B10142   3.580  15.173   5.206 -0.0739 -0.1452  0.0887
 1126PNCE   C2B10143   3.372  14.930   5.515 -0.0939 -0.0427 -0.2165
 1126PNCE   C3B10144   3.254  14.573   5.738 -0.0564  0.0310  0.4620
 1126PNCE   D4B10145   3.256  14.182   5.929  0.0352  0.3906  0.2490
 1126PNCE   C5B10146   3.075  13.801   5.816 -0.1606  0.1527 -0.0038
 1126PNCE   C6B10147   2.802  13.470   6.018 -0.1149  0.2640  0.0690
 1127CHOL   ROH10148   7.336  10.378   5.230 -0.1819  0.1635 -0.0870
 1127CHOL    R110149   7.265  10.461   5.491 -0.0988  0.0740 -0.0356
 1127CHOL    R210150   7.011  10.550   5.555 -0.1149 -0.0738  0.1059
 1127CHOL    R310151   7.027  10.357   5.746  0.0805 -0.1028  0.0624
 1127CHOL    R410152   6.842  10.554   5.857 -0.0931 -0.2939  0.1234
 1127CHOL    R510153   7.021  10.476   5.953 -0.0102 -0.1519  0.0895
 1127CHOL    C110154   6.759  10.376   6.211  0.1029 -0.4495  0.0928
 1127CHOL    C210155   6.721  10.508   6.574 -0.0378 -0.3181  0.2095
 1128PNCE   AM110156   0.228   5.864   4.764 -0.2540  0.0420 -0.2765
 1128PNCE   AM210157  -0.185   6.066   4.754  0.0480  0.0350 -0.0398
 1128PNCE   T1A10158   0.244   5.394   5.058  0.5085 -0.2972 -0.0583
 1128PNCE   C2A10159   0.409   5.032   5.209 -0.1032 -0.3096 -0.0117
 1128PNCE   C3A10160   0.841   4.934   5.258  0.2328 -0.0812  0.0611
 1128PNCE   C1B10161  -0.509   6.368   4.773 -0.2337 -0.2225 -0.0376
 1128PNCE   C2B10162  -0.695   6.622   5.149 -0.0208 -0.2160  0.0210
 1128PNCE   C3B10163  -0.607   6.527   5.406 -0.0529  0.0660 -0.2835
 1128PNCE   D4B10164  -0.443   6.416   5.852  0.2437  0.0892 -0.1712
 1128PNCE   C5B10165  -0.222   6.062   5.892 -0.0533  0.5518  0.2289
 1128PNCE   C6B10166  -0.008   5.628   5.923  0.0597 -0.0303  0.3544
 1129CHOL   ROH10167   1.835  11.276   6.274 -0.0785  0.1867  0.0074
 1129CHOL    R110168   1.696  11.084   6.428  0.1340  0.0640  0.0501
 1129CHOL    R210169   1.703  11.081   6.704  0.1219  0.1461  0.0508
 1129CHOL    R310170   1.433  11.086   6.679  0.1132 -0.1748  0.0336
 1129CHOL    R410171   1.481  10.947   6.933  0.2624  0.1438  0.1874
 1129CHOL    R510172   1.361  10.875   6.766  0.3422 -0.1666  0.2565
 1129CHOL    C110173   1.098  10.875   7.043  0.3360 -0.1588  0.2507
 1129CHOL    C210174   0.819  10.655   7.202  0.0927 -0.0538  0.0262
 1130PNCE   AM110175   6.764   3.339   7.115 -0.0028 -0.0358  0.4168
 1130PNCE   AM210176   6.401   3.147   7.247 -0.2213  0.0955  0.0351
 1130PNCE   T1A10177   6.684   3.465   6.691  0.0773  0.0549  0.0677
 1130PNCE   C2A10178   6.701   3.620   6.257  0.1445  0.4339 -0.1136
 1130PNCE   C3A10179   6.426   3.776   5.814  0.0385  0.0002 -0.3643
 1130PNCE   C1B10180   6.174   3.207   6.877  0.0292 -0.0552  0.2335
 1130PNCE   C2B10181   5.884   3.118   6.529 -0.2166  0.1133  0.1636
 1130PNCE   C3B10182   5.543   3.033   6.299 -0.1868 -0.2308  0.2611
 1130PNCE   D4B10183   5.328   3.268   6.020 -0.3080  0.0139  0.3619
 1130PNCE   C5B10184   5.114   3.676   5.822 -0.4721  0.0296  0.0755
 1130PNCE   C6B10185   5.275   4.065   5.603 -0.0253 -0.1073 -0.0545
 1131PNCE   AM110186   5.969   8.761   4.750 -0.3087  0.2471  0.2708
 1131PNCE   AM210187   6.215   8.613   4.786  0.0226 -0.1944 -0.1731
 1131PNCE   T1A10188   6.124   8.828   5.200  0.1572 -0.0044  0.1078
 1131PNCE   C2A10189   6.186   9.129   5.448  0.4299  0.0402  0.1585
 1131PNCE   C3A10190   6.067   9.265   5.795  0.5148 -0.0390 -0.3768
 1131PNCE   C1B10191   6.430   8.351   4.948 -0.1873 -0.3073 -0.1847
 1131PNCE   C2B10192   6.754   8.252   5.167 -0.0051 -0.0976 -0.3198
 1131PNCE   C3B10193   6.837   8.154   5.587 -0.1662  0.0950  0.2532
 1131PNCE   D4B10194   6.901   8.027   5.936  0.0582 -0.0143  0.0699
 1131PNCE   C5B10195   6.765   7.523   6.125  0.2257 -0.2239 -0.2017
 1131PNCE   C6B10196   6.877   7.211   6.340 -0.0357  0.0346 -0.1633
 1132PNCE   AM110197  10.565  15.316   4.758 -0.2357  0.2413 -0.4509
 1132PNCE   AM210198  10.439  15.030   4.598  0.0594  0.0544 -0.1342
 1132PNCE   T1A10199  10.558  15.178   5.207 -0.1640  0.0492 -0.2333
 1132PNCE   C2A10200  10.644  15.164   5.674  0.0981 -0.0345  0.0501
 1132PNCE   C3A10201  10.487  15.006   5.998 -0.2266  0.1521  0.0500
 1132PNCE   C1B10202  10.415  14.745   5.010 -0.0264 -0.2587  0.1986
 1132PNCE   C2B10203  10.662  14.669   5.383 -0.1071  0.0893 -0.0639
 1132PNCE   C3B10204  10.743  14.590   5.811 -0.1854 -0.0455  0.0788
 1132PNCE   D4B10205  10.774  14.560   6.219  0.1439  0.1379 -0.1561
 1132PNCE   C5B10206  10.616  14.929   6.481 -0.0779  0.0771  0.1119
 1132PNCE   C6B10207  10.736  15.084   6.826  0.0447  0.0960  0.1330
 1133PNCE   AM110208  11.753  15.226   4.738  0.2622 -0.0439  0.1799
 1133PNCE   AM210209  11.743  15.515   4.915  0.3253  0.2733  0.1241
 1133PNCE   T1A10210  12.033  15.056   5.025  0.3905  0.1399  0.1935
 1133PNCE   C2A10211  12.232  15.152   5.400 -0.2456 -0.4394 -0.1051
 1133PNCE   C3A10212  12.479  15.267   5.840  0.0297 -0.0415  0.1497
 1133PNCE   C1B10213  11.481  15.428   5.260 -0.2385 -0.1806 -0.0232
 1133PNCE   C2B10214  11.502  15.285   5.685 -0.0692 -0.1300 -0.0809
 1133PNCE   C3B10215  11.428  15.179   6.269 -0.2837  0.4146  0.3947
 1133PNCE   D4B10216  11.496  14.983   6.636  0.2804  0.2008  0.1724
 1133PNCE   C5B10217  11.169  15.112   6.949  0.1337 -0.1893  0.0656
 1133PNCE   C6B10218  10.927  15.239   7.288 -0.0374 -0.3100  0.0717
 1134PNCE   AM110219   3.293  10.954   4.677 -0.3582 -0.2039 -0.0342
 1134PNCE   AM210220   2.941  10.894   4.862 -0.1737  0.1245  0.3357
 1134PNCE   T1A10221   3.390  11.177   5.110  0.1609 -0.0768  0.0619
 1134PNCE   C2A10222   3.453  11.130   5.506  0.2122 -0.1564  0.1070
 1134PNCE   C3A10223   3.689  11.209   5.944  0.0933  0.1019  0.2047
 1134PNCE   C1B10224   2.733  11.002   5.168 -0.3490  0.1831 -0.0440
 1134PNCE   C2B10225   2.657  11.029   5.540  0.1115 -0.0198  0.2542
 1134PNCE   C3B10226   2.535  11.230   5.889 -0.2042  0.1797 -0.0162
 1134PNCE   D4B10227   2.440  11.221   6.274  0.1729  0.0128  0.2169
 1134PNCE   C5B10228   2.762  11.330   6.647 -0.1053  0.3473 -0.2144
 1134PNCE   C6B10229   2.989  11.128   6.922 -0.1205  0.3147 -0.5524
 1135CHOL   ROH10230  13.174   0.865   4.687 -0.2784  0.0649 -0.1170
 1135CHOL    R110231  13.116   0.929   4.957 -0.0108  0.3163 -0.1143
 1135CHOL    R210232  13.090   0.736   5.153 -0.3863  0.4478 -0.0266
 1135CHOL    R310233  13.279   0.885   5.279  0.0364  0.0577 -0.1715
 1135CHOL    R410234  13.135   0.750   5.495 -0.0979  0.3773 -0.0592
 1135CHOL    R510235  13.171   0.964   5.477  0.3493  0.3082 -0.0932
 1135CHOL    C110236  13.339   0.898   5.813  0.4667 -0.0299 -0.2142
 1135CHOL    C210237  13.424   0.607   6.081  0.1968 -0.1937 -0.1494
 1136PNCE   AM110238   8.741  14.144   4.472  0.0287 -0.0545 -0.2481
 1136PNCE   AM210239   8.468  14.204   4.713  0.1086  0.0232 -0.1545
 1136PNCE   T1A10240   8.979  14.300   4.785 -0.0963  0.3318  0.2232
 1136PNCE   C2A10241   8.934  14.455   5.252 -0.2316 -0.0475  0.1814
 1136PNCE   C3A10242   8.828  14.751   5.513  0.0149 -0.0353  0.1458
 1136PNCE   C1B10243   8.477  14.311   5.098 -0.1662 -0.0273  0.1597
 1136PNCE   C2B10244   8.322  14.652   5.359  0.2288  0.0544  0.1423
 1136PNCE   C3B10245   7.898  14.969   5.515  0.1884  0.1361 -0.1626
 1136PNCE   D4B10246   7.527  15.189   5.749  0.0392 -0.1992 -0.1409
 1136PNCE   C5B10247   7.486  15.594   5.829 -0.1135 -0.1189  0.0440
 1136PNCE   C6B10248   7.466  15.853   6.161 -0.0802  0.2039 -0.1643
 1137CHOL   ROH10249   2.934  11.899   8.797 -0.1240  0.1853  0.0556
 1137CHOL    R110250   3.007  11.934   8.526  0.0589  0.1520  0.0994
 1137CHOL    R210251   2.847  11.849   8.317  0.2148  0.0987  0.0030
 1137CHOL    R310252   2.872  12.107   8.236  0.2364  0.0887 -0.0239
 1137CHOL    R410253   2.838  11.955   7.988  0.0123  0.0837  0.0019
 1137CHOL    R510254   2.999  12.095   8.034  0.0907  0.0385 -0.1167
 1137CHOL    C110255   2.856  12.259   7.721 -0.0853  0.0655 -0.0240
 1137CHOL    C210256   2.970  12.487   7.491 -0.3711  0.1156 -0.2065
 1138PNCE   AM110257  13.785   9.512   4.855 -0.2058  0.0255  0.1022
 1138PNCE   AM210258  13.901   9.761   5.089  0.3126  0.0949 -0.2525
 1138PNCE   T1A10259  13.816   9.301   5.249 -0.0592 -0.0966 -0.1198
 1138PNCE   C2A10260  13.590   9.155   5.601  0.1034  0.1991  0.1139
 1138PNCE   C3A10261  13.550   8.686   5.708  0.1203 -0.1439  0.1608
 1138PNCE   C1B10262  13.994   9.950   5.492 -0.0251  0.1109 -0.1445
 1138PNCE   C2B10263  14.018   9.991   5.931  0.0883  0.0629 -0.1641
 1138PNCE   C3B10264  13.910   9.886   6.395 -0.1007 -0.2935  0.1300
 1138PNCE   D4B10265  13.621   9.798   6.708 -0.0388  0.1309 -0.0700
 1138PNCE   C5B10266  13.506   9.384   6.632 -0.3142  0.0450  0.2547
 1138PNCE   C6B10267  13.210   9.202   6.483  0.1835  0.1347 -0.0255
 1139PNCE   AM110268   3.984   0.550   4.327 -0.0133 -0.2692 -0.0993
 1139PNCE   AM210269   4.090   0.274   4.541 -0.1431 -0.0191  0.0379
 1139PNCE   T1A10270   4.154   0.703   4.781 -0.0206  0.0100 -0.0894
 1139PNCE   C2A10271   3.936   0.612   5.157 -0.3589 -0.1977 -0.2125
 1139PNCE   C3A10272   3.876   0.301   5.477  0.0861  0.0117 -0.1585
 1139PNCE   C1B10273   3.995  -0.054   4.693 -0.1733  0.0584 -0.3374
 1139PNCE   C2B10274   3.880  -0.153   5.214 -0.2517 -0.4022  0.1899
 1139PNCE   C3B10275   3.680  -0.185   5.569 -0.0335  0.0654 -0.1498
 1139PNCE   D4B10276   3.650  -0.608   5.940  0.3444  0.0669  0.0892
 1139PNCE   C5B10277   3.291  -0.703   6.083  0.0627  0.0201  0.2590
 1139PNCE   C6B10278   3.103  -1.058   6.198  0.2954 -0.2712  0.1310
 1140XCA    COO10279  14.739  13.364   4.512  0.2483  0.0794  0.1409
 1140XCA     C110280  14.751  13.560   4.861  0.1005 -0.0691  0.1754
 1140XCA     C210281  14.719  13.620   5.311 -0.0271 -0.0635  0.3391
 1140XCA     C310282  14.616  13.462   5.653  0.3928 -0.1306 -0.1022
 1140XCA     C410283  14.740  13.221   6.071  0.0955 -0.2481  0.2816
 1140XCA     C510284  14.585  13.303   6.501 -0.1145 -0.1306 -0.2067
 1140XCA     C610285  14.164  13.287   6.599  0.2669 -0.1824  0.0346
 1141CHOL   ROH10286   3.213   9.572   5.203 -0.2291  0.2153  0.0036
 1141CHOL    R110287   3.150   9.401   5.419 -0.2696  0.1516 -0.0578
 1141CHOL    R210288   3.225   9.457   5.679 -0.1807 -0.0027 -0.0491
 1141CHOL    R310289   2.960   9.426   5.729 -0.1868  0.1152 -0.0036
 1141CHOL    R410290   3.086   9.427   5.994 -0.1250 -0.0626 -0.0299
 1141CHOL    R510291   2.952   9.274   5.915 -0.2233  0.0402 -0.0655
 1141CHOL    C110292   2.755   9.380   6.224 -0.0982  0.0134  0.0239
 1141CHOL    C210293   2.528   9.209   6.515  0.0589  0.3127 -0.0583
 1142PNCE   AM110294   6.800   8.028   4.105 -0.1916 -0.0727 -0.1344
 1142PNCE   AM210295   6.904   7.739   4.040 -0.0776 -0.0735  0.1312
 1142PNCE   T1A10296   7.131   7.967   4.429 -0.1299  0.3899 -0.1167
 1142PNCE   C2A10297   7.376   7.569   4.712 -0.0668 -0.1320  0.1538
 1142PNCE   C3A10298   7.358   7.422   5.116 -0.1811  0.0008  0.1401
 1142PNCE   C1B10299   7.049   7.487   4.359  0.0014 -0.0474 -0.0345
 1142PNCE   C2B10300   6.884   7.305   4.816  0.1991 -0.1213  0.2753
 1142PNCE   C3B10301   6.874   7.185   5.306 -0.0096  0.0670  0.0842
 1142PNCE   D4B10302   6.816   6.758   5.396  0.1424  0.0936 -0.2619
 1142PNCE   C5B10303   6.829   6.641   5.852 -0.1636  0.0512  0.2542
 1142PNCE   C6B10304   6.515   6.897   6.140  0.2096 -0.1183  0.2121
 1143PNCE   AM110305  14.982   3.519   5.054 -0.0891 -0.1059 -0.0259
 1143PNCE   AM210306  15.008   3.856   4.932  0.4102 -0.0184  0.2332
 1143PNCE   T1A10307  14.950   3.342   5.500 -0.4057 -0.2631  0.1373
 1143PNCE   C2A10308  14.845   3.085   5.857  0.0779 -0.4047  0.1710
 1143PNCE   C3A10309  14.967   3.078   6.333 -0.3401  0.3898 -0.2668
 1143PNCE   C1B10310  14.800   3.805   5.344  0.2759  0.0111 -0.3087
 1143PNCE   C2B10311  14.562   3.611   5.748  0.1218 -0.3188  0.0121
 1143PNCE   C3B10312  14.392   3.807   6.019  0.0333  0.1220  0.2177
 1143PNCE   D4B10313  14.016   3.939   6.224 -0.1083  0.1093 -0.0976
 1143PNCE   C5B10314  13.872   4.318   6.228 -0.0461 -0.1614  0.0207
 1143PNCE   C6B10315  13.457   4.529   6.172 -0.2023  0.0369  0.1383
 1144CHOL   ROH10316  12.747   1.101   6.218 -0.0324  0.0147  0.0208
 1144CHOL    R110317  12.698   1.298   6.415 -0.1388 -0.0360  0.0458
 1144CHOL    R210318  12.567   1.242   6.652 -0.1129 -0.1357  0.0378
 1144CHOL    R310319  12.789   1.352   6.763 -0.1712 -0.0331  0.0536
 1144CHOL    R410320  12.574   1.415   6.951 -0.1931 -0.2261  0.0924
 1144CHOL    R510321  12.712   1.557   6.860 -0.2886 -0.1115  0.1257
 1144CHOL    C110322  12.786   1.619   7.229 -0.2946 -0.1825  0.1389
 1144CHOL    C210323  12.942   1.551   7.564  0.1266 -0.2033  0.2613
 1145CHOL   ROH10324   7.471   2.975   6.530 -0.0877  0.1156 -0.0451
 1145CHOL    R110325   7.376   3.123   6.308 -0.0542  0.1429 -0.0455
 1145CHOL    R210326   7.439   3.390   6.269 -0.0802  0.1747  0.0132
 1145CHOL    R310327   7.523   3.301   6.027  0.0003  0.2111  0.0315
 1145CHOL    R410328   7.400   3.560   5.971 -0.1652  0.0949 -0.0185
 1145CHOL    R510329   7.352   3.371   5.875 -0.0197  0.0650  0.0046
 1145CHOL    C110330   7.456   3.576   5.570 -0.1391  0.0826 -0.0197
 1145CHOL    C210331   7.193   3.711   5.455  0.1704  0.0351  0.1271
 1146PNCE   AM110332  11.560   5.189   5.069 -0.3493 -0.3081  0.0154
 1146PNCE   AM210333  11.585   5.302   5.327 -0.0088  0.0721  0.3061
 1146PNCE   T1A10334  11.478   4.730   5.090  0.0889  0.1177  0.2429
 1146PNCE   C2A10335  11.098   4.419   5.077 -0.0070  0.3759  0.1927
 1146PNCE   C3A10336  10.716   4.338   5.384  0.0319  0.4505 -0.0965
 1146PNCE   C1B10337  11.579   5.693   5.556  0.1012 -0.5635  0.1283
 1146PNCE   C2B10338  11.614   5.836   5.917 -0.1896  0.2742  0.0242
 1146PNCE   C3B10339  11.320   5.817   6.235  0.0735  0.0355 -0.0179
 1146PNCE   D4B10340  11.401   5.569   6.609 -0.1440 -0.4251 -0.0863
 1146PNCE   C5B10341  11.084   5.340   6.666 -0.0389  0.1225 -0.1645
 1146PNCE   C6B10342  10.942   4.949   6.869 -0.1615 -0.1725  0.2307
 1147CHOL   ROH10343   2.357   5.942   7.913 -0.1021 -0.1646  0.0118
 1147CHOL    R110344   2.436   5.939   7.641 -0.2153  0.0464 -0.0275
 1147CHOL    R210345   2.439   6.166   7.484  0.0329  0.2393  0.2318
 1147CHOL    R310346   2.697   6.092   7.438 -0.0828 -0.0682  0.0591
 1147CHOL    R410347   2.601   6.192   7.180 -0.0501  0.2819  0.1926
 1147CHOL    R510348   2.693   5.998   7.218 -0.2945  0.1278 -0.0177
 1147CHOL    C110349   2.937   6.138   6.960 -0.2071  0.0181  0.0076
 1147CHOL    C210350   3.158   6.009   6.735 -0.2316  0.0054 -0.0328
 1148CHOL   ROH10351   9.197   5.079   7.804  0.0894 -0.1629 -0.1793
 1148CHOL    R110352   9.371   5.152   7.592  0.0389 -0.1126 -0.2050
 1148CHOL    R210353   9.293   5.317   7.385  0.0124  0.0040 -0.1077
 1148CHOL    R310354   9.511   5.460   7.460  0.0733 -0.0879 -0.1105
 1148CHOL    R410355   9.461   5.542   7.183 -0.0702  0.1492 -0.0150
 1148CHOL    R510356   9.648   5.467   7.264 -0.0356  0.0564 -0.1821
 1148CHOL    C110357   9.763   5.807   7.136 -0.0612  0.1475  0.0362
 1148CHOL    C210358  10.015   6.187   7.259  0.0243 -0.3147  0.3762
 1149XCA    COO10359   7.976   8.386   8.820 -0.0114 -0.0471 -0.0928
 1149XCA     C110360   7.736   8.614   8.569  0.0869 -0.0888  0.1920
 1149XCA     C210361   7.815   8.706   8.039  0.2780 -0.3310 -0.3167
 1149XCA     C310362   7.627   9.046   7.730 -0.1902 -0.1016  0.0635
 1149XCA     C410363   7.681   9.236   7.374  0.1136  0.1997 -0.0962
 1149XCA     C510364   8.113   9.261   7.082  0.1506 -0.1639 -0.1723
 1149XCA     C610365   8.237   8.884   6.907 -0.1831 -0.1582  0.0640
 1150PNCE   AM110366   6.530   4.484   7.968  0.2535  0.0010 -0.4748
 1150PNCE   AM210367   6.289   4.248   7.903 -0.1743 -0.2231  0.0785
 1150PNCE   T1A10368   6.353   4.715   7.626 -0.1788  0.1241 -0.0251
 1150PNCE   C2A10369   6.125   4.898   7.193  0.0838 -0.0154  0.0665
 1150PNCE   C3A10370   5.770   5.094   7.034  0.0931  0.1190  0.0188
 1150PNCE   C1B10371   6.154   4.287   7.460  0.4102 -0.0099  0.0076
 1150PNCE   C2B10372   6.179   4.247   6.979  0.2582 -0.0114  0.0931
 1150PNCE   C3B10373   6.118   4.133   6.613  0.0778 -0.0798 -0.0175
 1150PNCE   D4B10374   5.862   4.189   6.304  0.2423  0.1077 -0.0825
 1150PNCE   C5B10375   5.837   3.963   5.946 -0.0980  0.1403  0.1472
 1150PNCE   C6B10376   5.954   4.082   5.567 -0.0765 -0.1216  0.1305
 1151XCA    COO10377   9.774  11.141   5.990  0.3531  0.2154 -0.1055
 1151XCA     C110378   9.798  11.022   6.365 -0.1444  0.0385 -0.2539
 1151XCA     C210379  10.102  11.079   6.695  0.0051 -0.3625 -0.1249
 1151XCA     C310380  10.039  11.325   7.152  0.0495  0.4855  0.0524
 1151XCA     C410381   9.955  11.646   7.281  0.0612 -0.1341  0.0601
 1151XCA     C510382  10.165  12.014   7.423  0.0960 -0.1700 -0.1887
 1151XCA     C610383  10.551  12.189   7.377 -0.0782  0.0375  0.1560
 1152CHOL   ROH10384   6.781   7.615   8.566 -0.2592  0.1972  0.0661
 1152CHOL    R110385   6.746   7.592   8.286 -0.2215  0.1161  0.0672
 1152CHOL    R210386   6.612   7.782   8.136 -0.1671  0.0938 -0.0134
 1152CHOL    R310387   6.842   7.783   7.991 -0.1449  0.0088  0.0220
 1152CHOL    R410388   6.655   7.947   7.836 -0.0587  0.0914  0.0015
 1152CHOL    R510389   6.768   7.775   7.764 -0.1154  0.0490  0.0108
 1152CHOL    C110390   6.896   8.043   7.524  0.0252  0.0102  0.0434
 1152CHOL    C210391   7.087   8.340   7.288 -0.1948 -0.4006  0.1947
 1153PNCE   AM110392   6.212  13.711   5.050  0.0914  0.2519 -0.3204
 1153PNCE   AM210393   6.134  13.352   5.094 -0.0211  0.1404  0.1123
 1153PNCE   T1A10394   6.191  13.855   5.526 -0.1969 -0.1016  0.1024
 1153PNCE   C2A10395   6.323  14.111   5.883 -0.1403 -0.3028  0.3846
 1153PNCE   C3A10396   6.363  14.486   6.259  0.0460  0.0385  0.0883
 1153PNCE   C1B10397   5.706  13.648   5.199 -0.2369 -0.0366  0.0269
 1153PNCE   C2B10398   5.573  14.040   5.492 -0.3300 -0.1909 -0.1440
 1153PNCE   C3B10399   5.756  14.021   5.840  0.0174  0.0418  0.0689
 1153PNCE   D4B10400   5.941  14.070   6.142  0.1179  0.0974 -0.0950
 1153PNCE   C5B10401   5.954  13.797   6.466 -0.3080  0.3210 -0.0545
 1153PNCE   C6B10402   5.737  13.992   6.842 -0.5813  0.2186  0.0687
 1154XCA    COO10403   3.673  10.160   5.012 -0.1702 -0.0401  0.3252
 1154XCA     C110404   3.787  10.469   5.252 -0.0279 -0.4091  0.1553
 1154XCA     C210405   3.915  10.625   5.702  0.0908  0.2493 -0.1545
 1154XCA     C310406   3.992  10.774   6.145  0.0798 -0.0421 -0.1509
 1154XCA     C410407   3.989  10.653   6.500 -0.1705  0.1745 -0.2021
 1154XCA     C510408   4.239  10.592   6.880  0.2033 -0.4474 -0.3636
 1154XCA     C610409   4.507  10.333   6.788  0.2033 -0.1999  0.2997
 1155CHOL   ROH10410   4.723   4.584   7.333  0.0747 -0.0516 -0.0142
 1155CHOL    R110411   4.879   4.723   7.142  0.0014 -0.0547 -0.0757
 1155CHOL    R210412   4.937   4.617   6.894  0.0673 -0.1402 -0.0199
 1155CHOL    R310413   4.831   4.851   6.805 -0.0600 -0.2416 -0.1408
 1155CHOL    R410414   5.051   4.793   6.619  0.2120 -0.0432  0.0998
 1155CHOL    R510415   5.021   4.978   6.731 -0.0901 -0.0636  0.0683
 1155CHOL    C110416   5.018   5.115   6.375  0.1768 -0.0819  0.0561
 1155CHOL    C210417   5.100   5.340   5.998  0.1061  0.0435 -0.1496
 1156CHOL   ROH10418   5.003   4.398   5.809  0.0446 -0.0855  0.2833
 1156CHOL    R110419   4.783   4.242   5.724 -0.0016  0.0393  0.1683
 1156CHOL    R210420   4.751   3.977   5.798 -0.0621 -0.0168 -0.0498
 1156CHOL    R310421   4.508   4.064   5.883 -0.0336 -0.0260  0.0417
 1156CHOL    R410422   4.478   3.773   5.858 -0.0694 -0.0136 -0.0727
 1156CHOL    R510423   4.351   3.925   5.767 -0.0744  0.0383  0.0190
 1156CHOL    C110424   4.091   3.736   5.974 -0.0468 -0.0204 -0.0002
 1156CHOL    C210425   4.239   3.386   5.853  0.3068  0.1316  0.1537
 1157CHOL   ROH10426  11.586  10.476   6.296  0.0085 -0.2397 -0.1949
 1157CHOL    R110427  11.529  10.491   6.573 -0.0218 -0.3360 -0.1960
 1157CHOL    R210428  11.614  10.299   6.753  0.2408 -0.2316 -0.2069
 1157CHOL    R310429  11.721  10.513   6.881 -0.0600 -0.0876 -0.1875
 1157CHOL    R410430  11.696  10.308   7.088  0.0398 -0.0777 -0.1599
 1157CHOL    R510431  11.618  10.511   7.097 -0.1846 -0.1545 -0.2448
 1157CHOL    C110432  11.844  10.514   7.405 -0.3598  0.1470 -0.1142
 1157CHOL    C210433  11.658  10.649   7.740 -0.1623 -0.0840 -0.3940
 1158PNCE   AM110434  15.273  14.178   4.728  0.0394 -0.1472 -0.1452
 1158PNCE   AM210435  15.394  14.409   4.961  0.1597 -0.1516  0.0938
 1158PNCE   T1A10436  15.176  13.900   4.978 -0.0884 -0.1437  0.0626
 1158PNCE   C2A10437  15.198  13.744   5.427  0.1284  0.0626 -0.2919
 1158PNCE   C3A10438  14.977  13.755   5.794  0.1287  0.0834 -0.2492
 1158PNCE   C1B10439  15.474  14.115   5.342  0.0314 -0.0896  0.1398
 1158PNCE   C2B10440  15.277  14.136   5.821  0.1011 -0.1825  0.0900
 1158PNCE   C3B10441  15.098  14.085   6.285 -0.0968 -0.0116  0.1071
 1158PNCE   D4B10442  14.939  13.707   6.432 -0.1616  0.3632  0.0359
 1158PNCE   C5B10443  14.418  13.770   6.614 -0.2385 -0.5396 -0.2923
 1158PNCE   C6B10444  14.212  13.949   6.871  0.0157  0.0513  0.1680
 1159CHOL   ROH10445   7.926   9.620   7.290 -0.1492  0.3028  0.3686
 1159CHOL    R110446   7.661   9.669   7.203 -0.1978  0.1153  0.4063
 1159CHOL    R210447   7.558   9.558   6.972 -0.0490  0.2851  0.2544
 1159CHOL    R310448   7.362   9.471   7.139  0.0287 -0.1480  0.1308
 1159CHOL    R410449   7.254   9.431   6.868 -0.0960  0.5472  0.0600
 1159CHOL    R510450   7.159   9.540   7.032 -0.0215  0.1337  0.3953
 1159CHOL    C110451   6.893   9.274   6.965 -0.0504  0.2931 -0.1692
 1159CHOL    C210452   6.571   9.053   6.966  0.1118  0.0181  0.0295
 1160XCA    COO10453  11.437  13.667   5.403 -0.1406  0.2310  0.1471
 1160XCA     C110454  11.643  13.895   5.730  0.2331 -0.0598  0.1767
 1160XCA     C210455  11.756  14.030   6.115 -0.0894  0.2307 -0.4105
 1160XCA     C310456  12.070  13.980   6.358  0.1300 -0.2319  0.1739
 1160XCA     C410457  12.395  14.031   6.657 -0.1574 -0.2357 -0.2001
 1160XCA     C510458  12.481  13.837   7.066 -0.1685 -0.0329  0.1730
 1160XCA     C610459  12.581  13.891   7.522  0.1056 -0.0928 -0.1118
 1161CHOL   ROH10460  14.552   4.029   6.382  0.0890 -0.1173  0.3993
 1161CHOL    R110461  14.753   4.003   6.580 -0.0050  0.0222  0.5117
 1161CHOL    R210462  15.018   4.067   6.532  0.0811 -0.3919  0.4561
 1161CHOL    R310463  14.985   4.224   6.752  0.2137  0.0833  0.1548
 1161CHOL    R410464  15.261   4.129   6.770  0.0683 -0.3535  0.4627
 1161CHOL    R510465  15.107   4.113   6.924 -0.0542  0.1836  0.4304
 1161CHOL    C110466  15.371   4.312   7.115  0.1854  0.1150  0.1837
 1161CHOL    C210467  15.498   4.517   7.237  0.1518  0.3351 -0.1762
 1162CHOL   ROH10468  10.508   1.062   4.908  0.0900 -0.0002  0.0875
 1162CHOL    R110469  10.548   1.124   5.181  0.2611 -0.1014  0.0878
 1162CHOL    R210470  10.341   1.196   5.349  0.4121  0.2163  0.1516
 1162CHOL    R310471  10.437   0.992   5.502  0.1212  0.0312  0.0942
 1162CHOL    R410472  10.326   1.183   5.695  0.3530  0.1125  0.1449
 1162CHOL    R510473  10.527   1.100   5.695  0.2430 -0.1587  0.1437
 1162CHOL    C110474  10.407   0.984   6.038  0.0454 -0.1218  0.0873
 1162CHOL    C210475  10.394   0.983   6.403  0.3156 -0.4532  0.0072
 1163CHOL   ROH10476   8.001   7.811   4.507  0.0737  0.1216 -0.0978
 1163CHOL    R110477   8.004   7.774   4.788 -0.0223  0.1318 -0.0957
 1163CHOL    R210478   7.824   7.898   4.957 -0.1814  0.0076 -0.1802
 1163CHOL    R310479   7.777   7.644   5.040 -0.0398 -0.0229 -0.1873
 1163CHOL    R410480   7.709   7.812   5.271  0.1132 -0.0719 -0.0902
 1163CHOL    R510481   7.846   7.642   5.269  0.1640 -0.0405 -0.2417
 1163CHOL    C110482   7.597   7.523   5.532  0.4174 -0.1469 -0.0444
 1163CHOL    C210483   7.347   7.220   5.555 -0.1696 -0.2549  0.0323
 1164CHOL   ROH10484   3.553   4.414   6.711 -0.1714 -0.1898  0.2060
 1164CHOL    R110485   3.507   4.640   6.547  0.0590 -0.1391  0.2100
 1164CHOL    R210486   3.309   4.646   6.355  0.2232 -0.0199  0.0486
 1164CHOL    R310487   3.234   4.872   6.487  0.2044 -0.0099  0.0232
 1164CHOL    R410488   3.085   4.881   6.234  0.0600 -0.1507  0.0901
 1164CHOL    R510489   3.214   5.037   6.315  0.0457 -0.0699 -0.0243
 1164CHOL    C110490   2.885   5.229   6.288 -0.0527 -0.2175  0.0904
 1164CHOL    C210491   2.783   5.424   5.939  0.1033 -0.0005 -0.1211
 1165CHOL   ROH10492  11.195  13.263   9.642 -0.3238 -0.1657 -0.0213
 1165CHOL    R110493  11.029  13.262   9.412 -0.2095 -0.0261 -0.1058
 1165CHOL    R210494  11.069  13.435   9.200  0.0947 -0.1112 -0.1238
 1165CHOL    R310495  11.073  13.205   9.055 -0.0904 -0.1492 -0.0722
 1165CHOL    R410496  11.072  13.418   8.855  0.1994 -0.1878 -0.1195
 1165CHOL    R510497  10.934  13.250   8.866  0.0213 -0.0453 -0.1312
 1165CHOL    C110498  11.078  13.192   8.518  0.0865 -0.2680 -0.0686
 1165CHOL    C210499  11.409  13.181   8.259  0.4393 -0.0115 -0.0373
 1166PNCE   AM110500  11.233   1.316   4.724  0.2715 -0.1726  0.2591
 1166PNCE   AM210501  11.000   1.496   4.702 -0.1209 -0.1396 -0.1554
 1166PNCE   T1A10502  11.195   1.485   5.260  0.1415 -0.0505  0.0357
 1166PNCE   C2A10503  11.165   1.535   5.631 -0.2110  0.1069 -0.0822
 1166PNCE   C3A10504  11.040   1.710   5.999  0.0193 -0.0003  0.3067
 1166PNCE   C1B10505  10.686   1.476   4.989 -0.3109 -0.3181 -0.1881
 1166PNCE   C2B10506  10.692   1.487   5.377 -0.1142 -0.1429  0.0799
 1166PNCE   C3B10507  10.614   1.589   5.775  0.1004 -0.0089  0.0353
 1166PNCE   D4B10508  10.492   1.822   6.120 -0.1277  0.2894 -0.1326
 1166PNCE   C5B10509  10.120   2.107   5.958 -0.3249  0.0858 -0.0024
 1166PNCE   C6B10510   9.879   2.185   5.669 -0.0234  0.0732  0.3492
 1167XCA    COO10511  13.574   9.674   5.593 -0.2217 -0.1744  0.2569
 1167XCA     C110512  13.916   9.489   5.911  0.1686 -0.0564 -0.1272
 1167XCA     C210513  14.277   9.533   6.256  0.0539 -0.2234 -0.0808
 1167XCA     C310514  14.732   9.763   6.378 -0.0691 -0.0357  0.1893
 1167XCA     C410515  15.116   9.630   6.601 -0.0829  0.1207  0.1974
 1167XCA     C510516  15.359   9.400   6.872  0.0593 -0.0452 -0.1621
 1167XCA     C610517  15.769   9.166   6.856  0.1652 -0.0873 -0.2490
 1168PNCE   AM110518   8.195  10.859   9.595  0.1643  0.3590 -0.2953
 1168PNCE   AM210519   8.083  11.242   9.569  0.2493  0.0470 -0.0342
 1168PNCE   T1A10520   8.281  10.999   9.189  0.3759  0.1969 -0.0141
 1168PNCE   C2A10521   8.241  10.969   8.837  0.0929  0.1701  0.2998
 1168PNCE   C3A10522   8.348  10.757   8.513 -0.2855 -0.1583  0.0067
 1168PNCE   C1B10523   7.832  11.190   9.100  0.1058  0.0137 -0.1808
 1168PNCE   C2B10524   7.941  11.294   8.614  0.0250 -0.2061 -0.1583
 1168PNCE   C3B10525   8.103  11.062   8.265 -0.3845  0.0693  0.1973
 1168PNCE   D4B10526   8.358  10.883   7.921 -0.0442  0.0863 -0.0664
 1168PNCE   C5B10527   8.851  11.052   7.770  0.0250 -0.0018 -0.0634
 1168PNCE   C6B10528   9.238  10.854   7.777  0.2159 -0.2083  0.0723
 1169PNCE   AM110529  15.208   1.286   4.933  0.1298  0.1567 -0.1211
 1169PNCE   AM210530  15.436   1.007   4.885 -0.1552 -0.1854  0.0420
 1169PNCE   T1A10531  15.041   1.482   5.255  0.2873  0.3676 -0.0734
 1169PNCE   C2A10532  14.881   1.702   5.589  0.2317 -0.0818  0.1940
 1169PNCE   C3A10533  14.632   2.021   5.833  0.0631 -0.2213  0.1422
 1169PNCE   C1B10534  15.482   1.045   5.357 -0.2015 -0.0186  0.2131
 1169PNCE   C2B10535  15.650   1.324   5.587  0.0683 -0.0265 -0.0478
 1169PNCE   C3B10536  15.823   1.556   5.851 -0.1911  0.0904 -0.1199
 1169PNCE   D4B10537  15.767   1.590   6.297 -0.0214 -0.1718 -0.1657
 1169PNCE   C5B10538  16.109   1.436   6.397  0.2762  0.0272  0.0508
 1169PNCE   C6B10539  16.467   1.603   6.274  0.0959  0.0106 -0.1681
 1170XCA    COO10540  10.447   0.051   4.595  0.0490 -0.1378 -0.0639
 1170XCA     C110541  10.606  -0.014   5.137 -0.0723 -0.3223 -0.3545
 1170XCA     C210542  10.521  -0.157   5.519  0.0935  0.3796 -0.1540
 1170XCA     C310543  10.377  -0.092   5.980  0.1150 -0.1582  0.2737
 1170XCA     C410544  10.120  -0.143   6.391  0.0510  0.0510  0.3388
 1170XCA     C510545   9.791   0.149   6.584  0.0913 -0.2085 -0.0316
 1170XCA     C610546   9.788   0.201   6.951 -0.0546 -0.0117  0.1868
 1171CHOL   ROH10547   4.884   1.122   4.401 -0.0623  0.1245  0.0768
 1171CHOL    R110548   4.769   1.175   4.654 -0.0547  0.0165  0.1038
 1171CHOL    R210549   4.679   0.975   4.822 -0.0440 -0.0569  0.0252
 1171CHOL    R310550   4.845   1.095   5.000 -0.0394 -0.1266  0.0674
 1171CHOL    R410551   4.643   0.960   5.165 -0.0744 -0.1285  0.0189
 1171CHOL    R510552   4.700   1.170   5.175 -0.0397 -0.1419  0.0722
 1171CHOL    C110553   4.778   1.063   5.533 -0.0878 -0.2356  0.0547
 1171CHOL    C210554   4.881   1.046   5.827  0.1513  0.0721 -0.2055
 1172CHOL   ROH10555  10.908   3.092   6.184  0.0996 -0.1436 -0.1531
 1172CHOL    R110556  11.039   3.305   6.316 -0.0228 -0.1613  0.0029
 1172CHOL    R210557  11.251   3.442   6.203  0.2276 -0.2791  0.3018
 1172CHOL    R310558  11.096   3.659   6.255  0.2231 -0.2029 -0.0132
 1172CHOL    R410559  11.365   3.768   6.215  0.3398 -0.3233  0.4405
 1172CHOL    R510560  11.236   3.802   6.387  0.0490 -0.2365  0.2073
 1172CHOL    C110561  11.287   4.161   6.271  0.4010 -0.2775  0.2256
 1172CHOL    C210562  11.523   4.435   6.354  0.1751 -0.1202 -0.0465
 1173PNCE   AM110563   6.144   7.237   4.332  0.0495  0.2698 -0.0241
 1173PNCE   AM210564   5.888   7.024   4.600  0.0535  0.0772  0.0582
 1173PNCE   T1A10565   6.488   7.036   4.155 -0.0164 -0.3226  0.2072
 1173PNCE   C2A10566   6.954   7.098   4.147  0.1123 -0.3134 -0.1397
 1173PNCE   C3A10567   7.268   6.847   4.013 -0.1014  0.0333  0.0393
 1173PNCE   C1B10568   6.166   6.972   4.782  0.4942  0.2375 -0.1220
 1173PNCE   C2B10569   6.317   6.877   5.187  0.1019  0.0496 -0.0265
 1173PNCE   C3B10570   6.300   6.849   5.639  0.1030 -0.0831  0.2725
 1173PNCE   D4B10571   6.120   7.149   5.945 -0.4611  0.0037  0.0187
 1173PNCE   C5B10572   6.344   7.288   6.396  0.1503 -0.0812  0.1023
 1173PNCE   C6B10573   6.383   7.183   6.837  0.0974  0.1633 -0.1128
 1174CHOL   ROH10574  15.679  10.997   8.807 -0.0101 -0.2358 -0.0018
 1174CHOL    R110575  15.523  10.902   8.591  0.0502 -0.1999 -0.0617
 1174CHOL    R210576  15.365  11.068   8.437 -0.1021 -0.2093  0.0805
 1174CHOL    R310577  15.505  10.958   8.232 -0.0260  0.0646 -0.0183
 1174CHOL    R410578  15.305  11.130   8.103 -0.2398 -0.0736  0.1291
 1174CHOL    R510579  15.340  10.918   8.062 -0.0190 -0.0129 -0.0057
 1174CHOL    C110580  15.401  11.063   7.715 -0.2484  0.2625  0.0647
 1174CHOL    C210581  15.123  11.113   7.468 -0.1221 -0.0179  0.0582
 1175CHOL   ROH10582   6.271   2.774   3.444  0.1456 -0.0881 -0.0456
 1175CHOL    R110583   6.320   2.741   3.721  0.1414 -0.0748 -0.0424
 1175CHOL    R210584   6.247   2.930   3.908  0.0534 -0.1033 -0.0392
 1175CHOL    R310585   6.119   2.720   4.024  0.1273 -0.1590 -0.0594
 1175CHOL    R410586   6.143   2.921   4.237 -0.2326 -0.0556 -0.1264
 1175CHOL    R510587   6.208   2.713   4.247 -0.0668  0.0081  0.0211
 1175CHOL    C110588   5.962   2.718   4.538 -0.3297 -0.0801 -0.1961
 1175CHOL    C210589   5.856   3.085   4.694 -0.1784  0.0977  0.0029
 1176XCA    COO10590   1.396  14.933   8.863  0.1093  0.0532  0.1988
 1176XCA     C110591   1.145  14.817   8.460  0.0875 -0.1870  0.1217
 1176XCA     C210592   1.146  15.029   8.071 -0.1658 -0.2118  0.3607
 1176XCA     C310593   1.058  15.117   7.725 -0.0393 -0.0579  0.0572
 1176XCA     C410594   1.202  15.051   7.315  0.3599 -0.1659  0.0678
 1176XCA     C510595   1.060  15.367   6.929 -0.0014  0.2347  0.0248
 1176XCA     C610596   0.687  15.478   6.608  0.3112  0.1024 -0.0364
 1177XCA    COO10597   5.632  10.058   8.783 -0.2912  0.0417  0.0614
 1177XCA     C110598   5.679  10.399   8.520  0.1204 -0.4446  0.1482
 1177XCA     C210599   5.789  10.453   8.016  0.1139 -0.0079 -0.1136
 1177XCA     C310600   5.765  10.816   7.703 -0.1818 -0.2684  0.0625
 1177XCA     C410601   5.928  11.160   7.567 -0.0665 -0.2110 -0.1787
 1177XCA     C510602   5.950  11.488   7.191  0.1000 -0.1693  0.0433
 1177XCA     C610603   6.052  11.815   6.888 -0.0326  0.0871 -0.0703
 1178XCA    COO10604  13.011   9.574   5.883  0.0450  0.3921  0.0130
 1178XCA     C110605  13.047   9.772   6.252 -0.2030  0.0825  0.0039
 1178XCA     C210606  13.082   9.714   6.699  0.3633 -0.2224 -0.0878
 1178XCA     C310607  13.305   9.560   7.050 -0.2035  0.0180 -0.1199
 1178XCA     C410608  13.691   9.422   7.098  0.1404  0.0171  0.0849
 1178XCA     C510609  13.958   9.259   7.338  0.1040  0.0767  0.1959
 1178XCA     C610610  14.178   9.363   7.722  0.0105  0.3271 -0.0315
 1179XCA    COO10611   5.855  12.918   5.126 -0.3282 -0.0529 -0.0188
 1179XCA     C110612   5.956  12.944   5.544  0.3332 -0.1778  0.3296
 1179XCA     C210613   5.746  13.150   5.936  0.2500 -0.0485 -0.0951
 1179XCA     C310614   5.749  13.216   6.368 -0.0415  0.0835  0.1691
 1179XCA     C410615   5.956  13.264   6.750  0.0075  0.1469  0.2447
 1179XCA     C510616   5.866  13.094   7.118  0.0167 -0.4716  0.4786
 1179XCA     C610617   5.637  12.916   7.517 -0.0294 -0.0340 -0.1350
 1180CHOL   ROH10618   7.224   3.055   6.887  0.2425  0.0017 -0.0350
 1180CHOL    R110619   7.024   3.135   6.703  0.1851 -0.1024 -0.0180
 1180CHOL    R210620   7.080   3.293   6.483  0.0817 -0.0589 -0.0099
 1180CHOL    R310621   6.958   3.090   6.349  0.1879 -0.1197 -0.0170
 1180CHOL    R410622   7.020   3.288   6.142 -0.2647  0.1015  0.0429
 1180CHOL    R510623   6.826   3.200   6.182 -0.1219 -0.1634  0.1902
 1180CHOL    C110624   6.872   3.095   5.818 -0.3667  0.1379  0.0670
 1180CHOL    C210625   6.478   3.247   5.882  0.2409  0.2314  0.1306
 1181PNCE   AM110626   1.638   0.632   4.279  0.0586  0.3453  0.1076
 1181PNCE   AM210627   1.627   0.962   4.411  0.1322  0.0481  0.0621
 1181PNCE   T1A10628   1.515   0.487   4.721 -0.1213 -0.2884 -0.2059
 1181PNCE   C2A10629   1.345   0.492   5.199 -0.1666 -0.5583  0.0673
 1181PNCE   C3A10630   1.134   0.793   5.399  0.2448 -0.0921  0.1399
 1181PNCE   C1B10631   1.697   0.927   4.886 -0.0593  0.1865 -0.0119
 1181PNCE   C2B10632   1.470   1.128   5.190 -0.3549  0.1224  0.1934
 1181PNCE   C3B10633   1.135   1.318   5.467  0.0661  0.0306 -0.3085
 1181PNCE   D4B10634   0.963   1.383   5.816  0.0564 -0.2774  0.1213
 1181PNCE   C5B10635   1.115   1.286   6.195  0.1007 -0.1361  0.2784
 1181PNCE   C6B10636   1.201   0.934   6.370  0.0519  0.1596  0.2561
 1182CHOL   ROH10637   2.070   3.204   7.651  0.0009 -0.1109  0.1274
 1182CHOL    R110638   2.093   3.279   7.379 -0.1455  0.0150  0.1495
 1182CHOL    R210639   2.001   3.521   7.283 -0.0359  0.1339  0.3493
 1182CHOL    R310640   2.255   3.546   7.191 -0.0843 -0.0073  0.1685
 1182CHOL    R410641   2.097   3.725   7.021 -0.0424  0.4676  0.5976
 1182CHOL    R510642   2.231   3.566   6.954 -0.2772  0.4152  0.2132
 1182CHOL    C110643   2.392   3.866   6.782 -0.0917  0.5293  0.5725
 1182CHOL    C210644   2.642   4.024   6.506 -0.0268  0.2506  0.1829
 1183PNCE   AM110645   2.532  15.026   4.349 -0.3566 -0.0549  0.0032
 1183PNCE   AM210646   2.442  14.717   4.450 -0.3675 -0.0134  0.1849
 1183PNCE   T1A10647   2.587  15.113   4.842 -0.1636 -0.2611 -0.1160
 1183PNCE   C2A10648   2.757  15.194   5.322  0.1213 -0.2067  0.2346
 1183PNCE   C3A10649   2.740  15.296   5.621 -0.2709  0.0050 -0.0219
 1183PNCE   C1B10650   2.343  14.567   4.906  0.0153 -0.0299 -0.0184
 1183PNCE   C2B10651   2.061  14.480   5.287 -0.2466 -0.4166  0.4252
 1183PNCE   C3B10652   1.982  14.442   5.764 -0.0626 -0.2546 -0.1003
 1183PNCE   D4B10653   2.223  14.434   6.183  0.2495 -0.1719  0.0173
 1183PNCE   C5B10654   2.522  14.670   6.295  0.0081  0.1877 -0.1165
 1183PNCE   C6B10655   2.888  14.576   6.628  0.0670  0.1301  0.4461
 1184PNCE   AM110656  11.077  10.536   6.313  0.0687  0.0178 -0.4894
 1184PNCE   AM210657  11.294  10.739   6.129  0.2946 -0.2155  0.1451
 1184PNCE   T1A10658  10.982  10.602   6.725  0.0727 -0.0359  0.1055
 1184PNCE   C2A10659  11.065  10.709   7.084 -0.0993  0.1453 -0.1000
 1184PNCE   C3A10660  11.009  11.089   7.150 -0.3000 -0.1141  0.2388
 1184PNCE   C1B10661  11.355  10.931   6.521  0.0033 -0.0589 -0.0311
 1184PNCE   C2B10662  11.489  10.911   6.850 -0.1839  0.0547  0.0844
 1184PNCE   C3B10663  11.529  11.004   7.319 -0.2699 -0.0584  0.2950
 1184PNCE   D4B10664  11.170  11.073   7.683 -0.0022  0.0765  0.0361
 1184PNCE   C5B10665  11.334  11.248   8.000 -0.2982  0.0756 -0.2243
 1184PNCE   C6B10666  11.455  11.511   8.309 -0.1649 -0.0214  0.1293
 1185PNCE   AM110667  13.074  10.083   5.831 -0.1599 -0.1563  0.2677
 1185PNCE   AM210668  13.162   9.940   5.486  0.3367  0.0318 -0.3163
 1185PNCE   T1A10669  13.292  10.486   6.047 -0.3517  0.2204 -0.2425
 1185PNCE   C2A10670  13.361  10.752   6.405 -0.0262 -0.2372 -0.4079
 1185PNCE   C3A10671  13.418  11.063   6.712  0.1042 -0.0518  0.2340
 1185PNCE   C1B10672  13.528  10.082   5.343 -0.0527 -0.2983  0.0888
 1185PNCE   C2B10673  13.866  10.375   5.125  0.0178 -0.2308  0.1038
 1185PNCE   C3B10674  14.045  10.747   5.267 -0.1715  0.0288 -0.1003
 1185PNCE   D4B10675  14.375  11.092   5.153 -0.1192  0.2512 -0.0496
 1185PNCE   C5B10676  14.801  11.043   5.208  0.2540 -0.2410  0.1592
 1185PNCE   C6B10677  15.129  10.870   5.005 -0.4261 -0.1451  0.3401
 1186XCA    COO10678   6.138   5.636   7.648 -0.2953 -0.0863  0.1554
 1186XCA     C110679   6.096   5.390   7.252  0.1933 -0.0801  0.1433
 1186XCA     C210680   6.240   5.270   6.853  0.0718 -0.2239 -0.0103
 1186XCA     C310681   6.317   5.004   6.601 -0.0455  0.1579 -0.1875
 1186XCA     C410682   6.404   4.868   6.200 -0.2060  0.0770  0.0741
 1186XCA     C510683   6.242   4.985   5.805 -0.2534  0.1636 -0.1928
 1186XCA     C610684   6.116   4.671   5.444 -0.3540  0.3116 -0.0873
 1187CHOL   ROH10685  14.120  11.586   8.977 -0.2216 -0.3974 -0.0133
 1187CHOL    R110686  14.038  11.495   8.723 -0.2512 -0.2732 -0.0494
 1187CHOL    R210687  13.838  11.618   8.578 -0.1100 -0.0603 -0.0708
 1187CHOL    R310688  14.028  11.628   8.384 -0.0558 -0.1959 -0.0256
 1187CHOL    R410689  13.782  11.554   8.243 -0.0930  0.0680 -0.0985
 1187CHOL    R510690  13.972  11.448   8.237 -0.1915 -0.1101 -0.0788
 1187CHOL    C110691  13.928  11.526   7.866 -0.0322  0.0154 -0.0723
 1187CHOL    C210692  13.597  11.516   7.564 -0.0520 -0.1300  0.1239
 1188XCA    COO10693  11.729   6.173   5.489 -0.0615 -0.1443  0.0030
 1188XCA     C110694  11.902   6.224   5.922 -0.1535  0.4166  0.1253
 1188XCA     C210695  11.824   6.097   6.323  0.0333 -0.0139  0.3692
 1188XCA     C310696  11.627   6.024   6.695  0.0020 -0.0661  0.2146
 1188XCA     C410697  11.290   6.078   6.909 -0.2540  0.4167 -0.0203
 1188XCA     C510698  11.001   6.420   7.000 -0.3887  0.0179  0.1033
 1188XCA     C610699  10.835   6.547   7.469  0.3487 -0.1520  0.0049
 1189XCA    COO10700   1.347   2.139   8.401  0.0561  0.1258 -0.2105
 1189XCA     C110701   1.306   2.307   7.936  0.0939  0.0337  0.0883
 1189XCA     C210702   1.226   2.233   7.394  0.3947 -0.0429 -0.1904
 1189XCA     C310703   0.933   2.516   7.240  0.2989  0.0615  0.2719
 1189XCA     C410704   0.510   2.512   7.022 -0.2729 -0.3014  0.1398
 1189XCA     C510705   0.061   2.616   6.977  0.1123 -0.1007  0.2105
 1189XCA     C610706  -0.227   2.822   6.828 -0.1457 -0.5168 -0.1325
 1190PNCE   AM110707   7.448   9.567   5.058  0.0109  0.0531  0.0280
 1190PNCE   AM210708   7.055   9.581   5.065 -0.1095 -0.2230 -0.0707
 1190PNCE   T1A10709   7.792   9.568   5.315 -0.1042 -0.0529 -0.2411
 1190PNCE   C2A10710   7.938   9.660   5.713 -0.3101  0.5141 -0.3137
 1190PNCE   C3A10711   7.833   9.457   6.066  0.1638 -0.3246 -0.1687
 1190PNCE   C1B10712   6.808   9.585   5.471 -0.1741 -0.2459 -0.2877
 1190PNCE   C2B10713   6.632   9.338   5.673  0.1980  0.1544  0.0937
 1190PNCE   C3B10714   6.489   9.084   6.004 -0.1582  0.1338 -0.2152
 1190PNCE   D4B10715   6.229   9.411   6.260 -0.1157  0.2055 -0.2395
 1190PNCE   C5B10716   6.473   9.703   6.421  0.1526 -0.0546  0.1470
 1190PNCE   C6B10717   6.753   9.767   6.707 -0.4041 -0.1405 -0.0451
 1191PNCE   AM110718   9.192  11.135   5.824 -0.1364 -0.0789 -0.1424
 1191PNCE   AM210719   9.377  10.849   5.743 -0.1034 -0.2709  0.0071
 1191PNCE   T1A10720   9.195  11.206   6.263  0.2115 -0.2350  0.0628
 1191PNCE   C2A10721   9.234  11.007   6.608 -0.0796  0.3620  0.1033
 1191PNCE   C3A10722   9.661  10.823   6.800 -0.1345 -0.1568 -0.1265
 1191PNCE   C1B10723   9.331  10.597   6.129 -0.1322  0.1467  0.2510
 1191PNCE   C2B10724   9.120  10.539   6.578 -0.1784  0.2591  0.0278
 1191PNCE   C3B10725   8.777  10.432   6.979  0.0261 -0.1037 -0.1034
 1191PNCE   D4B10726   8.458  10.280   7.109  0.0826  0.0990 -0.0831
 1191PNCE   C5B10727   8.322  10.016   7.498 -0.3503 -0.2878 -0.2092
 1191PNCE   C6B10728   8.001   9.889   7.742  0.1121 -0.2049  0.0419
 1192CHOL   ROH10729  14.623  14.801   6.022 -0.0539  0.1889  0.2284
 1192CHOL    R110730  14.575  15.000   5.827 -0.0119  0.1508  0.1806
 1192CHOL    R210731  14.585  15.270   5.884  0.2798  0.1622  0.0615
 1192CHOL    R310732  14.762  15.275   5.678  0.1337 -0.0794 -0.0759
 1192CHOL    R410733  14.651  15.547   5.688  0.4755  0.0755  0.0013
 1192CHOL    R510734  14.658  15.415   5.514  0.1756  0.0475 -0.0037
 1192CHOL    C110735  14.856  15.712   5.380  0.4524 -0.2019 -0.1627
 1192CHOL    C210736  14.940  16.067   5.193  0.0787  0.2563  0.1738
 1193PNCE   AM110737   1.180   8.875   4.701  0.0609 -0.0986 -0.0524
 1193PNCE   AM210738   1.472   8.979   4.636  0.1657 -0.0366 -0.0105
 1193PNCE   T1A10739   1.211   9.139   5.115  0.1433  0.0244 -0.1288
 1193PNCE   C2A10740   1.188   9.253   5.460  0.2623 -0.1099 -0.0265
 1193PNCE   C3A10741   1.153   9.513   5.773  0.0015 -0.3204 -0.0839
 1193PNCE   C1B10742   1.761   9.087   4.994  0.1252 -0.1403  0.1246
 1193PNCE   C2B10743   1.695   8.991   5.442 -0.3539 -0.2586 -0.2082
 1193PNCE   C3B10744   1.836   8.643   5.601 -0.2130 -0.1202  0.1286
 1193PNCE   D4B10745   1.650   8.469   5.978 -0.0407 -0.1489  0.0064
 1193PNCE   C5B10746   1.676   8.727   6.409  0.1118 -0.2417 -0.3517
 1193PNCE   C6B10747   1.562   9.059   6.657 -0.1168  0.0141  0.0058
 1194CHOL   ROH10748   3.548   6.288   5.551  0.0790 -0.0296 -0.2054
 1194CHOL    R110749   3.484   6.358   5.817 -0.0375 -0.0428 -0.2300
 1194CHOL    R210750   3.670   6.353   6.021 -0.1289 -0.0574 -0.1492
 1194CHOL    R310751   3.589   6.610   6.057 -0.1395 -0.0578 -0.1678
 1194CHOL    R410752   3.811   6.575   6.245  0.0066  0.0258 -0.3147
 1194CHOL    R510753   3.611   6.647   6.293  0.0271  0.0123 -0.1908
 1194CHOL    C110754   3.818   6.945   6.410  0.0756  0.0739 -0.4287
 1194CHOL    C210755   4.252   6.855   6.284 -0.1283 -0.0828 -0.2471
 1195CHOL   ROH10756  10.744  13.304   7.433 -0.0435 -0.0260  0.0935
 1195CHOL    R110757  10.495  13.439   7.419 -0.0741 -0.1017 -0.1183
 1195CHOL    R210758  10.283  13.345   7.268 -0.0366 -0.3596 -0.0139
 1195CHOL    R310759  10.149  13.366   7.504 -0.0656 -0.0669 -0.0523
 1195CHOL    R410760   9.959  13.461   7.302 -0.0438 -0.3236 -0.1982
 1195CHOL    R510761  10.021  13.567   7.482 -0.0683 -0.0942 -0.3208
 1195CHOL    C110762   9.645  13.547   7.542 -0.0753 -0.0278 -0.3416
 1195CHOL    C210763   9.280  13.547   7.450  0.1936  0.1957 -0.1943
 1196CHOL   ROH10764   3.774  14.315   6.412 -0.0791 -0.0196 -0.0078
 1196CHOL    R110765   3.529  14.198   6.331 -0.0674 -0.1733  0.1712
 1196CHOL    R210766   3.347  14.094   6.511 -0.0907  0.1506  0.3425
 1196CHOL    R310767   3.175  14.262   6.384 -0.0751 -0.0768  0.0091
 1196CHOL    R410768   3.003  14.090   6.547 -0.0816  0.3357  0.4622
 1196CHOL    R510769   2.985  14.125   6.333 -0.1336 -0.1423  0.3755
 1196CHOL    C110770   2.642  14.244   6.449 -0.0615  0.2300  0.2191
 1196CHOL    C210771   2.376  14.271   6.670 -0.1508 -0.0016  0.1991
 1197CHOL   ROH10772   4.910  11.800   8.512  0.1132 -0.0974  0.0647
 1197CHOL    R110773   4.872  11.845   8.235  0.1350 -0.2721  0.0328
 1197CHOL    R210774   4.968  12.070   8.106 -0.2340 -0.1359 -0.0103
 1197CHOL    R310775   5.086  11.888   7.943  0.1759  0.0153  0.1004
 1197CHOL    R410776   5.124  12.144   7.807 -0.3771  0.0374 -0.0442
 1197CHOL    R510777   5.035  11.964   7.722  0.0126 -0.2158  0.0519
 1197CHOL    C110778   5.324  12.016   7.479 -0.0756  0.2802  0.0400
 1197CHOL    C210779   5.516  12.159   7.336  0.0627 -0.0441  0.3357
 1198PNCE   AM110780  12.182   8.377   5.881  0.2223 -0.0268 -0.0539
 1198PNCE   AM210781  12.465   8.224   6.034 -0.0403  0.0655  0.0147
 1198PNCE   T1A10782  12.035   8.330   6.340  0.2393 -0.1399  0.1403
 1198PNCE   C2A10783  12.042   8.388   6.764  0.0625  0.0964  0.0252
 1198PNCE   C3A10784  11.970   8.486   7.140 -0.0730 -0.0653  0.1902
 1198PNCE   C1B10785  12.539   8.217   6.407  0.3361  0.0216 -0.1490
 1198PNCE   C2B10786  12.608   8.196   6.829 -0.0935 -0.0386 -0.1422
 1198PNCE   C3B10787  12.408   8.212   7.154 -0.0336  0.0069 -0.3311
 1198PNCE   D4B10788  12.346   8.352   7.464  0.1052 -0.0917 -0.1350
 1198PNCE   C5B10789  11.942   8.547   7.588  0.2307  0.3271 -0.0986
 1198PNCE   C6B10790  11.941   8.836   7.950 -0.0935  0.1539 -0.0034
 1199PNCE   AM110791  12.204   8.992   5.829 -0.1380  0.1738  0.0610
 1199PNCE   AM210792  12.351   9.255   6.095  0.2080  0.0452 -0.2275
 1199PNCE   T1A10793  11.970   8.969   6.062  0.1074 -0.0956 -0.0947
 1199PNCE   C2A10794  11.887   8.829   6.478  0.0396  0.2553 -0.1288
 1199PNCE   C3A10795  11.826   8.895   6.904  0.0485  0.3292  0.1692
 1199PNCE   C1B10796  12.301   9.216   6.513 -0.1286  0.2794  0.0036
 1199PNCE   C2B10797  12.210   9.250   6.912  0.2190  0.0130 -0.1308
 1199PNCE   C3B10798  12.218   9.301   7.322 -0.2469  0.0632  0.2081
 1199PNCE   D4B10799  12.014   9.297   7.679  0.0857 -0.2115 -0.4621
 1199PNCE   C5B10800  11.540   9.328   7.775 -0.0663 -0.1390 -0.1827
 1199PNCE   C6B10801  11.168   9.395   7.599  0.0398  0.4193  0.0962
 1200CHOL   ROH10802   5.038   9.257   4.919 -0.1212 -0.0232 -0.0083
 1200CHOL    R110803   5.161   9.201   5.168 -0.1810  0.0286  0.0340
 1200CHOL    R210804   5.021   9.205   5.407 -0.2847 -0.1214 -0.0214
 1200CHOL    R310805   5.121   8.954   5.433 -0.1003 -0.0485 -0.0246
 1200CHOL    R410806   5.118   9.061   5.706  0.1045  0.0603 -0.0544
 1200CHOL    R510807   5.289   8.974   5.603  0.0605  0.1282 -0.1953
 1200CHOL    C110808   5.267   8.741   5.904  0.5042  0.2345 -0.0766
 1200CHOL    C210809   5.579   8.627   6.083 -0.5372 -0.1368 -0.0895
 1201CHOL   ROH10810   7.159   8.603   8.681  0.0539 -0.1617 -0.2778
 1201CHOL    R110811   7.038   8.590   8.425 -0.1346 -0.0438 -0.1966
 1201CHOL    R210812   6.783   8.684   8.376 -0.1333  0.0688  0.0120
 1201CHOL    R310813   6.908   8.827   8.182 -0.2185  0.0741 -0.0399
 1201CHOL    R410814   6.631   8.806   8.091 -0.2464  0.0068  0.0451
 1201CHOL    R510815   6.809   8.751   7.978 -0.2661  0.0302 -0.0029
 1201CHOL    C110816   6.660   9.011   7.743 -0.3924 -0.0243  0.0157
 1201CHOL    C210817   6.443   8.865   7.520  0.1285 -0.0533 -0.0154
 1202XCA    COO10818   5.460   9.027   4.730  0.0126 -0.0053 -0.1054
 1202XCA     C110819   5.604   8.885   5.067  0.3117  0.0579  0.1342
 1202XCA     C210820   5.622   8.668   5.421  0.0247  0.0072  0.2461
 1202XCA     C310821   5.698   8.223   5.613 -0.0543  0.0046  0.0768
 1202XCA     C410822   5.881   8.093   5.928 -0.1127 -0.0353  0.0570
 1202XCA     C510823   6.086   8.174   6.223 -0.4845 -0.3403 -0.0562
 1202XCA     C610824   6.211   8.572   6.180 -0.1699 -0.2600 -0.1951
 1203PNCE   AM110825  12.606   0.491   6.054  0.0097 -0.2849  0.0780
 1203PNCE   AM210826  12.887   0.602   6.184 -0.0650 -0.2457  0.0472
 1203PNCE   T1A10827  12.511   0.287   6.415  0.2461  0.1543 -0.2379
 1203PNCE   C2A10828  12.242   0.109   6.751  0.3169 -0.1312 -0.1212
 1203PNCE   C3A10829  12.194   0.149   7.197 -0.0725  0.1886  0.3667
 1203PNCE   C1B10830  13.007   0.347   6.416 -0.0105 -0.1154 -0.0867
 1203PNCE   C2B10831  13.085  -0.054   6.383  0.2833  0.0148 -0.0094
 1203PNCE   C3B10832  12.969  -0.393   6.625 -0.0557  0.0892  0.3821
 1203PNCE   D4B10833  13.084  -0.841   6.655  0.0945 -0.0401 -0.0958
 1203PNCE   C5B10834  12.989  -0.859   7.055 -0.1460  0.1409  0.1075
 1203PNCE   C6B10835  13.107  -0.511   7.197 -0.1799 -0.1010  0.1294
 1204CHOL   ROH10836   4.140   0.267   5.002 -0.0074  0.0945  0.0323
 1204CHOL    R110837   4.353   0.330   5.177 -0.0908 -0.1612  0.2321
 1204CHOL    R210838   4.418   0.590   5.244  0.2830 -0.2252  0.1253
 1204CHOL    R310839   4.391   0.498   5.498 -0.1678 -0.0118  0.1658
 1204CHOL    R410840   4.487   0.773   5.529  0.6145 -0.2398  0.0590
 1204CHOL    R510841   4.575   0.594   5.617  0.0464 -0.4660  0.2307
 1204CHOL    C110842   4.502   0.793   5.934  0.3845 -0.0478  0.0585
 1204CHOL    C210843   4.358   0.705   6.315  0.1928 -0.0391 -0.0033
 1205CHOL   ROH10844  12.301  12.810   8.380 -0.2359  0.0745 -0.0318
 1205CHOL    R110845  12.293  12.838   8.099 -0.2409  0.0749 -0.0309
 1205CHOL    R210846  12.464  12.702   7.931 -0.1543  0.1815 -0.0236
 1205CHOL    R310847  12.233  12.621   7.813 -0.1000  0.0454 -0.0404
 1205CHOL    R410848  12.441  12.582   7.608 -0.0385  0.0812  0.0038
 1205CHOL    R510849  12.255  12.695   7.585 -0.0895 -0.0046 -0.0595
 1205CHOL    C110850  12.210  12.436   7.308  0.0799 -0.1048  0.0040
 1205CHOL    C210851  12.168  12.212   7.130  0.3752  0.1691 -0.0969
 1206PNCE   AM110852   7.712  13.396   5.417  0.1828  0.0148 -0.1957
 1206PNCE   AM210853   7.440  13.623   5.244  0.0302 -0.0152 -0.0673
 1206PNCE   T1A10854   7.883  13.376   5.861 -0.1996  0.1203 -0.1508
 1206PNCE   C2A10855   7.964  13.507   6.275  0.1563  0.0884  0.0537
 1206PNCE   C3A10856   7.933  13.673   6.707  0.0040 -0.0683  0.0856
 1206PNCE   C1B10857   7.491  13.756   5.712  0.3065  0.1765 -0.0845
 1206PNCE   C2B10858   7.519  13.668   6.099 -0.1581  0.2160 -0.1258
 1206PNCE   C3B10859   7.398  13.713   6.537 -0.1509  0.1106  0.1387
 1206PNCE   D4B10860   7.440  13.742   6.881  0.1748  0.1091  0.2921
 1206PNCE   C5B10861   7.066  13.785   7.140  0.0308 -0.0760 -0.0785
 1206PNCE   C6B10862   6.574  14.000   7.077 -0.1001 -0.0465 -0.1495
 1207CHOL   ROH10863  14.647   3.551   6.845 -0.1057 -0.2004  0.0599
 1207CHOL    R110864  14.454   3.661   7.020 -0.1178 -0.1578  0.0211
 1207CHOL    R210865  14.190   3.577   7.023 -0.1094 -0.1949  0.0604
 1207CHOL    R310866  14.240   3.538   7.287 -0.0935 -0.0844  0.0733
 1207CHOL    R410867  13.958   3.616   7.276 -0.1363 -0.2615  0.0453
 1207CHOL    R510868  14.113   3.708   7.398 -0.1984 -0.1314  0.0202
 1207CHOL    C110869  13.869   3.602   7.671 -0.1372 -0.1966  0.0486
 1207CHOL    C210870  13.487   3.696   7.553  0.2578  0.1427 -0.2368
 1208PNCE   AM110871   4.367   7.407   4.881  0.0494  0.2866  0.1023
 1208PNCE   AM210872   4.599   7.412   4.656  0.1245  0.2998  0.1244
 1208PNCE   T1A10873   4.573   7.246   5.165 -0.1172 -0.0096 -0.0009
 1208PNCE   C2A10874   4.574   6.858   5.277 -0.0563  0.1581 -0.3854
 1208PNCE   C3A10875   4.534   6.473   5.123 -0.2214 -0.0233  0.3552
 1208PNCE   C1B10876   4.454   6.930   4.756 -0.0814 -0.0028 -0.0689
 1208PNCE   C2B10877   4.099   6.659   4.926  0.0797  0.1826 -0.2281
 1208PNCE   C3B10878   4.173   6.198   4.696  0.1134 -0.2323 -0.0859
 1208PNCE   D4B10879   4.143   5.757   4.759  0.1260 -0.0172 -0.3321
 1208PNCE   C5B10880   3.810   5.472   4.531 -0.2335 -0.1400 -0.2648
 1208PNCE   C6B10881   3.378   5.517   4.446 -0.2169 -0.2608  0.1699
 1209XCA    COO10882   1.597   0.794   8.543  0.1589  0.0959  0.0374
 1209XCA     C110883   1.791   0.525   8.270 -0.1061  0.0564 -0.0272
 1209XCA     C210884   1.810   0.225   7.933  0.1532 -0.1222 -0.2769
 1209XCA     C310885   1.898   0.092   7.493 -0.1359  0.3815  0.0248
 1209XCA     C410886   1.950  -0.112   7.036 -0.1629 -0.2932 -0.2383
 1209XCA     C510887   2.160  -0.292   6.768 -0.0298 -0.2796 -0.2442
 1209XCA     C610888   2.474  -0.381   6.530  0.0663  0.2309 -0.1384
 1210PNCE   AM110889   1.625   5.459   4.549  0.1813  0.0264 -0.1308
 1210PNCE   AM210890   1.936   5.640   4.556  0.1369  0.0778  0.3295
 1210PNCE   T1A10891   1.408   5.698   4.824 -0.1980 -0.0851 -0.3698
 1210PNCE   C2A10892   1.352   5.723   5.245  0.0018 -0.1825  0.0963
 1210PNCE   C3A10893   1.240   6.134   5.454 -0.0645 -0.0282 -0.0325
 1210PNCE   C1B10894   1.834   5.709   4.988  0.0729  0.0258  0.0787
 1210PNCE   C2B10895   1.792   5.991   5.369  0.0581  0.0659  0.3362
 1210PNCE   C3B10896   1.695   6.409   5.574 -0.0060 -0.0716  0.0483
 1210PNCE   D4B10897   1.848   6.555   5.951 -0.2456  0.0170  0.1453
 1210PNCE   C5B10898   2.107   6.219   6.228 -0.0705 -0.1388 -0.0509
 1210PNCE   C6B10899   2.202   5.943   6.581 -0.2938 -0.1697  0.3200
 1211PNCE   AM110900   6.969  10.252   4.855  0.0158 -0.0304 -0.0450
 1211PNCE   AM210901   7.221   9.990   4.879 -0.1742  0.0979  0.1109
 1211PNCE   T1A10902   6.569  10.058   5.033 -0.0071  0.1318 -0.4335
 1211PNCE   C2A10903   6.096  10.082   5.120 -0.0244  0.2145  0.2450
 1211PNCE   C3A10904   5.760   9.826   5.067  0.1932  0.1288  0.0529
 1211PNCE   C1B10905   7.013  10.028   5.340  0.2572 -0.2174 -0.2572
 1211PNCE   C2B10906   6.921   9.916   5.830 -0.1029  0.2785  0.0717
 1211PNCE   C3B10907   6.986   9.955   6.304 -0.2885  0.2271 -0.0303
 1211PNCE   D4B10908   7.296   9.814   6.570 -0.1381 -0.0266 -0.0711
 1211PNCE   C5B10909   7.600  10.086   6.774  0.1229 -0.1003 -0.0189
 1211PNCE   C6B10910   7.949  10.044   7.064  0.0813 -0.1861  0.1257
 1212CHOL   ROH10911   8.615   3.255   6.431  0.0354  0.1562  0.0502
 1212CHOL    R110912   8.450   3.392   6.246 -0.0796  0.1694  0.1613
 1212CHOL    R210913   8.353   3.647   6.293  0.2244  0.3020  0.0996
 1212CHOL    R310914   8.469   3.700   6.053 -0.0352  0.0062 -0.0998
 1212CHOL    R410915   8.284   3.924   6.099  0.2582  0.2332 -0.0118
 1212CHOL    R510916   8.292   3.796   5.922 -0.1112  0.0936  0.0657
 1212CHOL    C110917   8.353   4.136   5.760  0.0343 -0.0845 -0.2637
 1212CHOL    C210918   8.303   4.527   5.754  0.0868  0.0347 -0.0801
 1213PNCE   AM110919   6.130   3.711   3.084  0.2010 -0.1589 -0.3227
 1213PNCE   AM210920   6.551   3.671   3.171  0.1176  0.2736  0.1338
 1213PNCE   T1A10921   6.088   3.861   3.495 -0.1522  0.0335  0.0154
 1213PNCE   C2A10922   6.194   3.769   4.012  0.1899  0.3066  0.0341
 1213PNCE   C3A10923   6.285   3.821   4.431  0.0714  0.0167  0.2071
 1213PNCE   C1B10924   6.558   3.738   3.583 -0.0056  0.3526 -0.0606
 1213PNCE   C2B10925   6.715   3.711   3.957 -0.2653 -0.1342 -0.1067
 1213PNCE   C3B10926   6.862   3.625   4.409  0.1337 -0.3270  0.1816
 1213PNCE   D4B10927   6.605   3.512   4.839 -0.1040  0.0559 -0.0607
 1213PNCE   C5B10928   6.420   3.756   5.081  0.0947 -0.0174  0.1179
 1213PNCE   C6B10929   6.324   4.240   5.217  0.2229 -0.0648  0.1777
 1214PNCE   AM110930  14.550   9.926   9.317  0.0647  0.2853  0.1349
 1214PNCE   AM210931  14.929   9.872   9.382 -0.4014 -0.0926 -0.2279
 1214PNCE   T1A10932  14.383   9.827   8.974  0.1021 -0.1557  0.1736
 1214PNCE   C2A10933  14.079   9.770   8.611  0.0364 -0.3351  0.2369
 1214PNCE   C3A10934  13.727   9.788   8.362 -0.0708 -0.2880  0.0965
 1214PNCE   C1B10935  14.890   9.885   8.898  0.0717 -0.1413  0.0102
 1214PNCE   C2B10936  14.664   9.959   8.365 -0.0337 -0.0962 -0.0530
 1214PNCE   C3B10937  14.609   9.882   7.964  0.0381  0.0597 -0.1534
 1214PNCE   D4B10938  14.319   9.841   7.587 -0.0428  0.0064  0.0620
 1214PNCE   C5B10939  14.456  10.028   7.252  0.0570  0.0470  0.1098
 1214PNCE   C6B10940  14.679  10.434   7.175 -0.1365  0.2374  0.0064
 1215XCA    COO10941   9.390  11.792   9.597 -0.0612 -0.0620  0.2812
 1215XCA     C110942   9.505  11.847   9.220  0.0048 -0.3513  0.0681
 1215XCA     C210943   9.527  11.550   9.061 -0.1991 -0.0610  0.0700
 1215XCA     C310944   9.574  11.182   8.879 -0.1117  0.0591 -0.0233
 1215XCA     C410945   9.711  10.928   8.538  0.0863 -0.1348 -0.0903
 1215XCA     C510946  10.046  10.927   8.320 -0.0743 -0.0340  0.0539
 1215XCA     C610947  10.300  10.848   8.079 -0.0084  0.1449 -0.0102
 1216CHOL   ROH10948   7.978  14.469   8.675 -0.1043 -0.0171  0.0058
 1216CHOL    R110949   7.973  14.321   8.433 -0.1710 -0.0020 -0.0023
 1216CHOL    R210950   7.781  14.361   8.239 -0.0512  0.2187 -0.0773
 1216CHOL    R310951   7.997  14.395   8.078  0.0517 -0.0128  0.0085
 1216CHOL    R410952   7.802  14.252   7.911 -0.0509  0.2025 -0.0715
 1216CHOL    R510953   8.008  14.192   7.950 -0.1251 -0.0269  0.0086
 1216CHOL    C110954   8.017  14.220   7.570  0.0460 -0.0243  0.0125
 1216CHOL    C210955   7.919  14.453   7.210 -0.0937 -0.0241  0.0420
 1217CHOL   ROH10956   0.121  11.514   5.023 -0.0560  0.0129  0.0925
 1217CHOL    R110957  -0.030  11.553   5.260  0.0189  0.0258  0.1386
 1217CHOL    R210958  -0.194  11.358   5.366 -0.2012  0.1422  0.0202
 1217CHOL    R310959  -0.047  11.401   5.590 -0.1178 -0.1891  0.0350
 1217CHOL    R410960  -0.315  11.331   5.688 -0.3243  0.4838  0.0068
 1217CHOL    R510961  -0.200  11.509   5.741  0.1162  0.2164 -0.0022
 1217CHOL    C110962  -0.247  11.356   6.087 -0.3180  0.3718  0.0129
 1217CHOL    C210963  -0.487  11.387   6.355  0.3987 -0.1523  0.0497
 1218CHOL   ROH10964   6.673   7.967   8.770  0.2030  0.0378 -0.0467
 1218CHOL    R110965   6.523   8.154   8.619  0.2423  0.0445 -0.0773
 1218CHOL    R210966   6.616   8.264   8.384  0.1980 -0.1376 -0.1811
 1218CHOL    R310967   6.381   8.171   8.285  0.0955 -0.0541 -0.0212
 1218CHOL    R410968   6.467   8.373   8.091  0.1471 -0.2337 -0.1917
 1218CHOL    R510969   6.274   8.364   8.192  0.1809 -0.0448 -0.1030
 1218CHOL    C110970   6.160   8.349   7.828  0.0213 -0.2114 -0.0478
 1218CHOL    C210971   6.063   8.573   7.512  0.1105 -0.1173  0.0990
 1219CHOL   ROH10972  12.265   4.878   7.118  0.0251 -0.0475  0.0934
 1219CHOL    R110973  12.257   5.141   7.222  0.2655 -0.0538  0.1393
 1219CHOL    R210974  12.020   5.272   7.278  0.3580  0.3114 -0.2305
 1219CHOL    R310975  12.132   5.303   7.523  0.0041  0.0589 -0.0285
 1219CHOL    R410976  12.035   5.570   7.451  0.6351  0.2555 -0.1567
 1219CHOL    R510977  12.237   5.518   7.513  0.4346 -0.1371  0.1845
 1219CHOL    C110978  12.150   5.774   7.782  0.4644 -0.0141  0.0759
 1219CHOL    C210979  12.107   6.130   7.924  0.1699  0.1079  0.1173
 1220XCA    COO10980  10.896   9.613   6.028 -0.0785 -0.1341 -0.0970
 1220XCA     C110981  11.024   9.245   6.161  0.2596 -0.3098 -0.2768
 1220XCA     C210982  10.808   9.139   6.548  0.3827  0.0011 -0.0119
 1220XCA     C310983  10.698   9.310   6.966 -0.0437 -0.3819  0.1096
 1220XCA     C410984  10.610   9.231   7.329 -0.0677  0.0539  0.0634
 1220XCA     C510985  10.339   9.091   7.526  0.1447  0.2229 -0.1108
 1220XCA     C610986  10.046   8.661   7.674 -0.1181  0.0230  0.2415
 1221CHOL   ROH10987   3.509   3.709   5.358 -0.0748 -0.1947  0.3136
 1221CHOL    R110988   3.775   3.644   5.287 -0.1034 -0.1158  0.1292
 1221CHOL    R210989   3.992   3.712   5.444 -0.0098 -0.0091 -0.0445
 1221CHOL    R310990   4.046   3.446   5.428  0.0725  0.0062 -0.0307
 1221CHOL    R410991   4.307   3.573   5.469  0.0168  0.0778  0.1239
 1221CHOL    R510992   4.254   3.435   5.309  0.1440  0.0715  0.0838
 1221CHOL    C110993   4.542   3.242   5.468  0.1095  0.1428  0.2349
 1221CHOL    C210994   4.772   3.446   5.506  0.0535 -0.2488 -0.2416
 1222PNCE   AM110995   4.475   5.937   4.302 -0.1998  0.5145  0.0373
 1222PNCE   AM210996   4.199   5.787   4.268 -0.0594  0.3220 -0.1683
 1222PNCE   T1A10997   4.876   6.286   4.209  0.0200  0.1370 -0.1438
 1222PNCE   C2A10998   5.305   6.335   4.331 -0.2331  0.1513  0.1346
 1222PNCE   C3A10999   5.626   6.080   4.356  0.0593 -0.1237 -0.3818
 1222PNCE   C1B11000   3.817   5.977   4.521  0.2307  0.0125  0.1752
 1222PNCE   C2B11001   3.448   6.035   4.594  0.0924 -0.1856  0.0710
 1222PNCE   C3B11002   3.237   6.095   5.037 -0.2724 -0.2208  0.1623
 1222PNCE   D4B11003   3.236   5.854   5.316  0.1348 -0.2691  0.1648
 1222PNCE   C5B11004   2.803   5.701   5.397  0.1428 -0.0681  0.1804
 1222PNCE   C6B11005   2.575   5.297   5.462 -0.2302 -0.2427 -0.0903
 1223PNCE   AM111006  15.541   8.220   4.681 -0.1908  0.1463  0.1140
 1223PNCE   AM211007  15.352   7.923   4.645 -0.1623  0.1342 -0.0216
 1223PNCE   T1A11008  16.020   8.130   4.890 -0.0924 -0.2401  0.2694
 1223PNCE   C2A11009  16.137   7.928   5.253  0.3841  0.0522  0.0316
 1223PNCE   C3A11010  16.088   7.951   5.598 -0.0051 -0.2205  0.0697
 1223PNCE   C1B11011  15.371   7.769   5.150 -0.0933 -0.0454  0.0579
 1223PNCE   C2B11012  15.339   7.806   5.672 -0.2993 -0.3479  0.1589
 1223PNCE   C3B11013  15.409   7.878   6.135  0.0788  0.0026  0.1246
 1223PNCE   D4B11014  15.761   7.834   6.526  0.2256  0.2351 -0.1877
 1223PNCE   C5B11015  15.696   7.566   6.901  0.0048  0.1125  0.3857
 1223PNCE   C6B11016  15.720   7.213   7.048  0.1253 -0.1017 -0.1612
 1224PNCE   AM111017   2.628  13.199   4.634 -0.1663  0.2368 -0.3416
 1224PNCE   AM211018   2.763  13.415   4.717  0.0425 -0.1160 -0.1712
 1224PNCE   T1A11019   2.657  12.824   5.031 -0.0495 -0.2335 -0.0812
 1224PNCE   C2A11020   2.745  12.636   5.345  0.0239  0.0873  0.1021
 1224PNCE   C3A11021   2.746  12.500   5.895  0.0104 -0.0664  0.0865
 1224PNCE   C1B11022   3.046  13.169   5.033  0.2058  0.1165  0.0790
 1224PNCE   C2B11023   3.132  12.937   5.355 -0.1279  0.2123 -0.0254
 1224PNCE   C3B11024   3.249  12.806   5.743 -0.2141  0.2343 -0.1019
 1224PNCE   D4B11025   3.303  13.238   5.947  0.3171 -0.0251 -0.1769
 1224PNCE   C5B11026   3.366  13.559   5.506 -0.0676  0.1307 -0.1851
 1224PNCE   C6B11027   3.499  13.501   5.064  0.0593  0.0499  0.3033
 1225XCA    COO11028   5.188   8.049   5.230  0.1378  0.0727  0.4150
 1225XCA     C111029   5.342   7.855   5.560  0.1422 -0.2480 -0.0232
 1225XCA     C211030   5.350   7.835   6.070 -0.1358 -0.0924  0.0643
 1225XCA     C311031   5.452   7.449   6.355  0.0931  0.3479 -0.0946
 1225XCA     C411032   5.488   7.051   6.570  0.0940 -0.1258 -0.1514
 1225XCA     C511033   5.229   6.657   6.692 -0.1283 -0.1380 -0.2231
 1225XCA     C611034   4.920   6.331   6.731  0.0726 -0.0590 -0.3039
 1226CHOL   ROH11035   5.407   9.485   4.883 -0.1241  0.1334 -0.0156
 1226CHOL    R111036   5.555   9.357   5.088 -0.1465  0.0405 -0.0565
 1226CHOL    R211037   5.600   9.474   5.334 -0.0419 -0.0052 -0.0516
 1226CHOL    R311038   5.492   9.243   5.428 -0.1380  0.0377 -0.0563
 1226CHOL    R411039   5.650   9.347   5.651  0.0615 -0.1323 -0.1178
 1226CHOL    R511040   5.664   9.148   5.564 -0.1199 -0.1160 -0.1849
 1226CHOL    C111041   5.578   9.056   5.924  0.0315 -0.1660 -0.1608
 1226CHOL    C211042   5.783   9.166   6.273  0.1616 -0.1329 -0.2290
 1227CHOL   ROH11043  10.838  13.464   9.754 -0.1108 -0.1603  0.1323
 1227CHOL    R111044  10.652  13.430   9.544  0.0088  0.0886 -0.0193
 1227CHOL    R211045  10.659  13.581   9.312  0.5141 -0.0388 -0.1002
 1227CHOL    R311046  10.666  13.337   9.192  0.1576 -0.1232  0.0411
 1227CHOL    R411047  10.591  13.522   8.978  0.2864 -0.1603 -0.0337
 1227CHOL    R511048  10.484  13.342   9.037  0.0902  0.0047  0.1246
 1227CHOL    C111049  10.556  13.260   8.672 -0.1810 -0.3101  0.1375
 1227CHOL    C211050  10.565  13.123   8.360 -0.0296  0.1426  0.3298
 1228XCA    COO11051   3.342   7.638   4.416 -0.1292  0.0393  0.3306
 1228XCA     C111052   3.461   7.586   4.757  0.1296  0.0460 -0.1151
 1228XCA     C211053   3.747   7.486   5.188 -0.0841  0.0444  0.1576
 1228XCA     C311054   3.998   7.049   5.253 -0.5462 -0.0639 -0.2450
 1228XCA     C411055   4.138   6.646   5.458  0.1939 -0.0715 -0.0702
 1228XCA     C511056   4.294   6.239   5.475 -0.2433 -0.0869  0.0495
 1228XCA     C611057   4.582   5.959   5.537 -0.1615 -0.0623 -0.1599
 1229CHOL   ROH11058   6.215   5.413   4.021 -0.0981 -0.0954  0.0158
 1229CHOL    R111059   6.356   5.379   4.263 -0.1109 -0.0997  0.0220
 1229CHOL    R211060   6.289   5.513   4.495 -0.0287  0.0086 -0.0203
 1229CHOL    R311061   6.280   5.262   4.600 -0.1647  0.0464  0.0622
 1229CHOL    R411062   6.267   5.440   4.832  0.1996  0.1401  0.0258
 1229CHOL    R511063   6.408   5.277   4.801  0.0298 -0.0012 -0.0516
 1229CHOL    C111064   6.245   5.162   5.126  0.2049  0.2521  0.1301
 1229CHOL    C211065   6.337   5.315   5.422 -0.0806 -0.0146 -0.0847
 1230CHOL   ROH11066   1.038  14.679   6.597 -0.1118 -0.1380 -0.1125
 1230CHOL    R111067   1.274  14.583   6.720 -0.0811  0.0006 -0.0610
 1230CHOL    R211068   1.458  14.751   6.839 -0.1572  0.1187 -0.1032
 1230CHOL    R311069   1.420  14.588   7.053 -0.1094  0.1758 -0.0509
 1230CHOL    R411070   1.709  14.636   7.048 -0.0923  0.0352 -0.2258
 1230CHOL    R511071   1.610  14.442   7.052 -0.1812  0.0849 -0.1333
 1230CHOL    C111072   1.819  14.416   7.370 -0.0097  0.0403 -0.2480
 1230CHOL    C211073   1.933  14.112   7.552  0.0313 -0.0051  0.1006
 1231CHOL   ROH11074   0.016  14.453   5.192 -0.0027 -0.1290  0.0197
 1231CHOL    R111075   0.224  14.447   5.384  0.1382  0.0236 -0.1243
 1231CHOL    R211076   0.390  14.662   5.429 -0.0390  0.1749 -0.1868
 1231CHOL    R311077   0.309  14.630   5.687  0.1708  0.0306 -0.1365
 1231CHOL    R411078   0.555  14.791   5.705  0.0151  0.3052 -0.2799
 1231CHOL    R511079   0.513  14.604   5.810  0.2931  0.2316 -0.2849
 1231CHOL    C111080   0.574  14.836   6.107  0.2435  0.2457 -0.2870
 1231CHOL    C211081   0.856  15.155   6.293 -0.0526  0.3731 -0.0017
 1232XCA    COO11082  14.865   3.033   4.903 -0.0844  0.2501 -0.2268
 1232XCA     C111083  14.802   2.863   5.339  0.0486  0.1759 -0.0612
 1232XCA     C211084  14.761   2.436   5.656  0.0582 -0.1272 -0.1850
 1232XCA     C311085  14.453   2.451   6.014 -0.0926  0.1433 -0.2888
 1232XCA     C411086  13.955   2.492   6.266  0.1578  0.1720 -0.1152
 1232XCA     C511087  13.486   2.346   6.363  0.0369  0.2251 -0.0345
 1232XCA     C611088  13.052   2.190   6.493 -0.0959 -0.2205  0.0957
 1233PNCE   AM111089   6.473   3.936   7.456  0.1662  0.1520 -0.2605
 1233PNCE   AM211090   6.848   3.829   7.364 -0.0860 -0.1569 -0.1771
 1233PNCE   T1A11091   6.609   4.008   6.901 -0.0148 -0.1541  0.1686
 1233PNCE   C2A11092   6.897   4.150   6.580 -0.2479 -0.0770  0.0897
 1233PNCE   C3A11093   6.935   4.079   6.169 -0.0215  0.0644  0.2694
 1233PNCE   C1B11094   7.048   3.744   6.912 -0.1017 -0.2497  0.0205
 1233PNCE   C2B11095   7.258   3.781   6.446 -0.0166 -0.1998  0.2295
 1233PNCE   C3B11096   7.643   3.820   6.264 -0.0859 -0.1715 -0.1898
 1233PNCE   D4B11097   7.938   4.186   6.217 -0.2164  0.0535 -0.1195
 1233PNCE   C5B11098   7.838   4.690   6.277 -0.0290  0.1665 -0.0376
 1233PNCE   C6B11099   7.604   4.947   6.181 -0.1344 -0.0271  0.0997
 1234PNCE   AM111100   9.304   2.358   3.817  0.0423  0.2300  0.3171
 1234PNCE   AM211101   9.589   2.208   4.050 -0.0881 -0.2081  0.0019
 1234PNCE   T1A11102   9.160   2.195   4.204 -0.0810  0.0285  0.0329
 1234PNCE   C2A11103   8.873   2.227   4.567  0.0653  0.1414 -0.0217
 1234PNCE   C3A11104   8.543   2.294   4.771 -0.0431  0.0758  0.0456
 1234PNCE   C1B11105   9.729   2.594   4.415  0.2978  0.0684 -0.0385
 1234PNCE   C2B11106   9.710   2.876   4.752  0.2425  0.4221 -0.0112
 1234PNCE   C3B11107   9.895   3.021   5.131 -0.0726 -0.0017 -0.0079
 1234PNCE   D4B11108   9.980   3.002   5.638 -0.0525 -0.0626  0.2790
 1234PNCE   C5B11109   9.684   3.106   5.988 -0.2007 -0.0816  0.1087
 1234PNCE   C6B11110   9.259   3.074   6.135  0.1235 -0.3714 -0.2061
 1235PNCE   AM111111   4.099   8.776   5.047 -0.0657  0.0446 -0.1551
 1235PNCE   AM211112   3.959   9.111   5.016  0.3202  0.2206 -0.2130
 1235PNCE   T1A11113   4.107   8.893   5.418  0.0895 -0.2460  0.2007
 1235PNCE   C2A11114   4.256   8.855   5.820 -0.0300  0.1735 -0.0768
 1235PNCE   C3A11115   4.343   8.731   6.227 -0.3202 -0.0219  0.0333
 1235PNCE   C1B11116   4.099   9.427   5.277  0.0594  0.2696 -0.4224
 1235PNCE   C2B11117   4.397   9.757   5.422  0.3399  0.0649  0.1130
 1235PNCE   C3B11118   4.523  10.202   5.782  0.0085  0.0058 -0.1463
 1235PNCE   D4B11119   4.618  10.160   6.261 -0.1657 -0.1601 -0.3484
 1235PNCE   C5B11120   4.160  10.158   6.425 -0.1297 -0.3753 -0.3474
 1235PNCE   C6B11121   3.675   9.956   6.550  0.0310 -0.1260  0.0449
 1236PNCE   AM111122   5.582  14.944   3.889  0.4209  0.1533  0.0497
 1236PNCE   AM211123   5.232  14.909   4.093 -0.1247  0.1513 -0.0261
 1236PNCE   T1A11124   5.630  15.072   4.286 -0.1759 -0.1679 -0.1869
 1236PNCE   C2A11125   5.696  15.134   4.713  0.1221 -0.3030  0.0732
 1236PNCE   C3A11126   5.925  14.980   5.178  0.3594 -0.1524 -0.3135
 1236PNCE   C1B11127   5.329  14.834   4.590  0.0511 -0.1456  0.1626
 1236PNCE   C2B11128   5.349  15.074   5.060  0.4608  0.1243  0.2086
 1236PNCE   C3B11129   5.238  15.287   5.394  0.1499  0.1355 -0.0329
 1236PNCE   D4B11130   5.649  15.223   5.593 -0.0867  0.1863  0.1076
 1236PNCE   C5B11131   6.035  14.921   5.639 -0.3602  0.3914 -0.0435
 1236PNCE   C6B11132   6.272  14.577   5.760  0.2443 -0.1593 -0.1795
 1237CHOL   ROH11133   2.503   4.416   6.400  0.0150  0.0154  0.0047
 1237CHOL    R111134   2.538   4.633   6.579 -0.0455  0.0552 -0.0355
 1237CHOL    R211135   2.784   4.747   6.628 -0.0808  0.0962 -0.0248
 1237CHOL    R311136   2.656   4.976   6.559 -0.0972  0.0743 -0.0791
 1237CHOL    R411137   2.904   5.066   6.685 -0.0607  0.1104 -0.1311
 1237CHOL    R511138   2.702   5.128   6.739 -0.0664  0.1267 -0.1179
 1237CHOL    C111139   2.854   5.467   6.653 -0.0643  0.0982 -0.2440
 1237CHOL    C211140   2.698   5.852   6.505 -0.0136  0.2177  0.0964
 1238XCA    COO11141   1.627  13.031   8.494 -0.2447  0.1073  0.0929
 1238XCA     C111142   1.783  12.763   8.114 -0.0249  0.0507  0.1111
 1238XCA     C211143   1.895  12.718   7.698 -0.1813 -0.0845  0.2032
 1238XCA     C311144   1.975  12.539   7.341 -0.0244 -0.0888  0.0931
 1238XCA     C411145   2.154  12.713   6.983  0.1511 -0.0871 -0.2858
 1238XCA     C511146   2.418  12.786   6.603 -0.4346 -0.1188  0.4968
 1238XCA     C611147   2.628  12.675   6.378  0.0993  0.0943 -0.0383
 1239XCA    COO11148  15.699  12.156   4.443 -0.0927  0.3120  0.3102
 1239XCA     C111149  15.684  11.956   4.923  0.3644  0.0224 -0.0182
 1239XCA     C211150  15.794  12.033   5.270  0.1735 -0.0212  0.0921
 1239XCA     C311151  15.734  11.974   5.770  0.0030 -0.0987 -0.2097
 1239XCA     C411152  15.538  11.776   6.117 -0.5311 -0.1977  0.1538
 1239XCA     C511153  15.711  11.742   6.544 -0.1558  0.3922  0.1384
 1239XCA     C611154  15.820  11.563   6.951 -0.1604 -0.0663  0.2707
 1240PNCE   AM111155  12.100  12.712   5.472 -0.0483 -0.2707  0.3799
 1240PNCE   AM211156  11.918  13.056   5.419 -0.1359  0.1951 -0.0164
 1240PNCE   T1A11157  11.761  12.771   5.753 -0.1513 -0.1000  0.3952
 1240PNCE   C2A11158  11.321  12.827   5.998 -0.5065  0.2177  0.0131
 1240PNCE   C3A11159  11.099  12.772   6.352 -0.0419  0.1286 -0.0453
 1240PNCE   C1B11160  11.704  13.262   5.781 -0.0175 -0.0427  0.0673
 1240PNCE   C2B11161  11.747  13.436   6.130 -0.0919 -0.0230  0.1507
 1240PNCE   C3B11162  11.663  13.582   6.536  0.0552 -0.0685  0.0699
 1240PNCE   D4B11163  11.555  13.485   6.957 -0.4203 -0.0632 -0.2056
 1240PNCE   C5B11164  11.655  13.069   7.000  0.1931  0.0454  0.0413
 1240PNCE   C6B11165  11.961  12.724   6.918  0.0744  0.0549 -0.2025
 1241CHOL   ROH11166  12.105  12.560   8.615 -0.1269  0.0118  0.0443
 1241CHOL    R111167  12.294  12.420   8.458 -0.1528 -0.0277  0.0483
 1241CHOL    R211168  12.229  12.195   8.311 -0.2211  0.0463 -0.0344
 1241CHOL    R311169  12.336  12.338   8.106 -0.1058  0.0589  0.0332
 1241CHOL    R411170  12.323  12.063   8.006 -0.1095  0.0750 -0.0129
 1241CHOL    R511171  12.499  12.192   8.010 -0.0882  0.0447  0.0836
 1241CHOL    C111172  12.479  12.120   7.636  0.0636  0.1035  0.0630
 1241CHOL    C211173  12.673  11.864   7.520 -0.0343  0.1926 -0.2370
 1242PNCE   AM111174   4.095   8.059   4.663  0.1842 -0.4424  0.0692
 1242PNCE   AM211175   4.080   8.370   4.756  0.0348  0.0024 -0.0826
 1242PNCE   T1A11176   4.137   7.857   5.078  0.0669  0.1815 -0.1481
 1242PNCE   C2A11177   4.292   7.688   5.421 -0.4371 -0.0352  0.1414
 1242PNCE   C3A11178   4.334   7.212   5.588  0.0782  0.0144  0.0727
 1242PNCE   C1B11179   4.278   8.298   5.216 -0.2224 -0.1216 -0.0754
 1242PNCE   C2B11180   4.369   8.418   5.643  0.1590 -0.0929  0.2995
 1242PNCE   C3B11181   4.463   8.285   6.130  0.0130 -0.0892 -0.0154
 1242PNCE   D4B11182   4.383   8.327   6.564 -0.0764 -0.0674 -0.1406
 1242PNCE   C5B11183   4.668   8.263   6.829  0.0822 -0.2451  0.2981
 1242PNCE   C6B11184   4.954   8.414   6.863  0.0926  0.2010 -0.0909
 1243XCA    COO11185   3.350   4.844   4.159  0.3135 -0.0506  0.1335
 1243XCA     C111186   3.627   4.981   4.536 -0.1738 -0.0928 -0.0394
 1243XCA     C211187   3.963   4.931   4.578  0.0974  0.4877 -0.0293
 1243XCA     C311188   4.299   4.639   4.748  0.3987  0.1197  0.2060
 1243XCA     C411189   4.406   4.290   4.670 -0.0576  0.1861  0.1757
 1243XCA     C511190   4.262   3.921   4.618  0.0218 -0.1556 -0.0462
 1243XCA     C611191   4.108   3.638   4.835  0.2553  0.2973  0.1499
 1244PNCE   AM111192  10.112   3.420   3.745  0.0886 -0.0545  0.0287
 1244PNCE   AM211193  10.337   3.402   3.857 -0.0821 -0.2102 -0.2167
 1244PNCE   T1A11194   9.669   3.412   3.757  0.1335 -0.3084  0.2514
 1244PNCE   C2A11195   9.557   3.688   4.154  0.1700 -0.2147  0.1625
 1244PNCE   C3A11196   9.529   4.000   4.442 -0.1042 -0.0984 -0.3921
 1244PNCE   C1B11197  10.232   3.088   4.195 -0.2602 -0.0403 -0.2078
 1244PNCE   C2B11198  10.282   2.806   4.481 -0.2955  0.0681 -0.1619
 1244PNCE   C3B11199  10.114   2.622   4.825 -0.0018 -0.2399 -0.2605
 1244PNCE   D4B11200   9.741   2.509   5.069  0.0943 -0.1547  0.1814
 1244PNCE   C5B11201   9.532   2.301   5.312 -0.1346 -0.1948 -0.1193
 1244PNCE   C6B11202   9.375   2.101   5.744  0.0485  0.0085  0.2567
 1245PNCE   AM111203  12.999   7.481   6.087  0.3236 -0.0007 -0.0409
 1245PNCE   AM211204  12.907   7.113   6.037 -0.0239 -0.1893 -0.1348
 1245PNCE   T1A11205  12.971   7.285   6.513 -0.1142  0.2843  0.2007
 1245PNCE   C2A11206  12.810   7.129   6.805 -0.1013 -0.3341  0.1628
 1245PNCE   C3A11207  12.686   7.009   7.262 -0.0160 -0.2931 -0.1986
 1245PNCE   C1B11208  13.086   6.886   6.299 -0.3438  0.1215 -0.1947
 1245PNCE   C2B11209  13.191   6.696   6.632 -0.3069 -0.3531  0.1582
 1245PNCE   C3B11210  13.045   6.684   6.913  0.0394 -0.1470  0.0260
 1245PNCE   D4B11211  13.191   6.914   7.338 -0.2857 -0.2351 -0.0981
 1245PNCE   C5B11212  13.278   6.754   7.742  0.1413 -0.0161 -0.1242
 1245PNCE   C6B11213  13.372   6.756   8.107 -0.0391 -0.1092  0.0139
 1246PNCE   AM111214  14.420   8.729   5.219  0.1439  0.0795  0.0178
 1246PNCE   AM211215  14.602   8.545   4.898 -0.1683 -0.0232 -0.1396
 1246PNCE   T1A11216  14.279   8.620   5.625  0.1084  0.0261  0.0426
 1246PNCE   C2A11217  14.346   8.530   5.924  0.2900  0.1471 -0.2236
 1246PNCE   C3A11218  14.354   8.555   6.397  0.2188 -0.3592 -0.2453
 1246PNCE   C1B11219  14.538   8.271   5.330 -0.1841  0.1709 -0.0235
 1246PNCE   C2B11220  14.572   8.139   5.767  0.0818 -0.0771 -0.4051
 1246PNCE   C3B11221  14.552   8.173   6.214 -0.2833  0.0687 -0.0864
 1246PNCE   D4B11222  14.827   8.228   6.568 -0.1769 -0.2220  0.3058
 1246PNCE   C5B11223  14.811   8.138   6.994  0.0561  0.1038  0.2194
 1246PNCE   C6B11224  14.770   8.043   7.567  0.1121 -0.0799 -0.1941
 1247CHOL   ROH11225   2.994   2.150   4.495 -0.1315 -0.4014  0.1058
 1247CHOL    R111226   3.101   2.241   4.741 -0.0396 -0.2897  0.0256
 1247CHOL    R211227   3.083   2.094   4.974 -0.0454 -0.1370  0.1208
 1247CHOL    R311228   3.353   2.128   4.978 -0.0305 -0.2411  0.0405
 1247CHOL    R411229   3.277   2.096   5.260 -0.0464  0.3864  0.1283
 1247CHOL    R511230   3.393   2.260   5.174  0.0240  0.1657 -0.2285
 1247CHOL    C111231   3.644   2.128   5.430 -0.0330  0.5934  0.0574
 1247CHOL    C211232   3.725   2.242   5.860  0.0212 -0.0367 -0.0885
 1248XCA    COO11233   4.536   2.397   8.311 -0.0387 -0.1510  0.1110
 1248XCA     C111234   4.550   2.515   7.897  0.2336 -0.0087  0.2091
 1248XCA     C211235   4.325   2.707   7.569  0.3551 -0.0619 -0.0415
 1248XCA     C311236   4.124   2.865   7.280  0.0075 -0.1023 -0.0403
 1248XCA     C411237   3.998   3.082   7.013  0.0671 -0.1971  0.0530
 1248XCA     C511238   3.892   3.236   6.649 -0.0583 -0.1115 -0.4317
 1248XCA     C611239   3.870   3.295   6.210 -0.3977 -0.2366 -0.2286
 1249XCA    COO11240  11.433   8.282  10.196  0.0553  0.0439  0.0445
 1249XCA     C111241  11.203   8.424   9.751 -0.1018 -0.1443 -0.0590
 1249XCA     C211242  11.166   8.522   9.339 -0.0863  0.3346 -0.0858
 1249XCA     C311243  11.126   8.617   8.906 -0.3337  0.0198 -0.3025
 1249XCA     C411244  11.207   8.703   8.461 -0.1379 -0.6285  0.1560
 1249XCA     C511245  11.520   8.931   8.286 -0.1950  0.1022 -0.0692
 1249XCA     C611246  11.747   9.289   8.275  0.0166  0.0369 -0.1378
 1250CHOL   ROH11247  11.000   3.789   4.340 -0.0143 -0.2530 -0.1772
 1250CHOL    R111248  10.921   3.574   4.506 -0.0781 -0.1674 -0.0958
 1250CHOL    R211249  11.079   3.481   4.713 -0.0121 -0.2680 -0.1909
 1250CHOL    R311250  10.854   3.525   4.860  0.1215 -0.0652 -0.0421
 1250CHOL    R411251  11.008   3.328   5.014  0.0138 -0.2636 -0.1825
 1250CHOL    R511252  10.800   3.310   4.951 -0.0483 -0.0314 -0.0595
 1250CHOL    C111253  10.756   3.279   5.329  0.1543 -0.0707 -0.0378
 1250CHOL    C211254  10.487   3.312   5.638  0.2748 -0.0404  0.0205
 1251XCA    COO11255  14.723   6.148   5.126  0.0314 -0.0076 -0.1122
 1251XCA     C111256  14.846   6.168   5.620  0.1054  0.4655 -0.3251
 1251XCA     C211257  14.860   6.299   6.068 -0.1182 -0.1272 -0.0955
 1251XCA     C311258  15.105   6.477   6.396 -0.2677  0.1237 -0.0129
 1251XCA     C411259  15.538   6.456   6.325 -0.0441 -0.2520  0.0701
 1251XCA     C511260  15.762   6.542   6.534 -0.3936  0.1187 -0.0271
 1251XCA     C611261  15.681   6.721   6.991  0.0837  0.1435  0.1413
 1252CHOL   ROH11262  10.536  12.716   5.968  0.0680  0.0277  0.2176
 1252CHOL    R111263  10.610  12.930   6.137  0.1009  0.0379  0.1923
 1252CHOL    R211264  10.850  13.065   6.111  0.1125  0.0209  0.1567
 1252CHOL    R311265  10.688  13.283   6.098  0.1230  0.0269  0.1503
 1252CHOL    R411266  10.955  13.392   6.152  0.1268  0.0231  0.0971
 1252CHOL    R511267  10.774  13.430   6.267  0.1491  0.0468  0.1143
 1252CHOL    C111268  10.864  13.787   6.165  0.1452  0.0300  0.0562
 1252CHOL    C211269  10.776  14.085   5.912  0.0767  0.0046  0.0512
 1253CHOL   ROH11270   1.751   9.372   8.698  0.0636  0.0525  0.0546
 1253CHOL    R111271   1.759   9.388   8.415 -0.0934  0.0810  0.0505
 1253CHOL    R211272   1.562   9.279   8.254 -0.1708  0.0725  0.1460
 1253CHOL    R311273   1.552   9.531   8.152 -0.2562  0.0822  0.1791
 1253CHOL    R411274   1.414   9.364   7.954  0.0261  0.0236  0.0334
 1253CHOL    R511275   1.580   9.500   7.916 -0.0352  0.1424  0.1976
 1253CHOL    C111276   1.317   9.649   7.683  0.0606  0.0040 -0.0011
 1253CHOL    C211277   1.022   9.617   7.456  0.3469  0.2148  0.0664
 1254XCA    COO11278   6.029   4.292   3.107 -0.1667 -0.1368 -0.0780
 1254XCA     C111279   5.731   4.275   3.489 -0.0490 -0.2440  0.0627
 1254XCA     C211280   5.770   4.106   3.896  0.2606  0.2078 -0.0116
 1254XCA     C311281   5.831   4.104   4.354  0.2119  0.3979 -0.2082
 1254XCA     C411282   5.972   4.166   4.733  0.1351 -0.0271 -0.1286
 1254XCA     C511283   5.848   4.344   5.139 -0.2042 -0.3132 -0.0821
 1254XCA     C611284   5.653   4.455   5.508  0.1663  0.0820  0.2591
 1255PNCE   AM111285   7.719   4.717   3.703  0.0732  0.2215 -0.2100
 1255PNCE   AM211286   7.754   4.372   3.511 -0.1728 -0.0399  0.1022
 1255PNCE   T1A11287   7.782   5.035   4.030  0.1575  0.0191 -0.0502
 1255PNCE   C2A11288   8.032   5.332   4.042  0.2266  0.2275  0.1952
 1255PNCE   C3A11289   8.107   5.761   4.003  0.0548  0.0209  0.0100
 1255PNCE   C1B11290   7.614   4.023   3.648 -0.0630  0.3931 -0.0403
 1255PNCE   C2B11291   7.251   3.848   3.793 -0.1101  0.0119  0.0641
 1255PNCE   C3B11292   7.236   3.569   4.065  0.1488 -0.1138 -0.1289
 1255PNCE   D4B11293   7.399   3.548   4.491  0.0213 -0.0237 -0.0421
 1255PNCE   C5B11294   7.615   3.951   4.568 -0.0456 -0.1690 -0.1301
 1255PNCE   C6B11295   7.849   4.164   4.886 -0.0082  0.0193  0.3694
 1256CHOL   ROH11296   2.830  10.884   5.967  0.0409  0.2043 -0.1973
 1256CHOL    R111297   2.798  10.760   6.219  0.0712  0.1288 -0.2305
 1256CHOL    R211298   2.790  10.903   6.456  0.1656  0.0525 -0.1814
 1256CHOL    R311299   2.555  10.770   6.490  0.1402  0.1008 -0.1668
 1256CHOL    R411300   2.604  10.904   6.747  0.2138  0.0473 -0.1504
 1256CHOL    R511301   2.564  10.692   6.717  0.1596  0.0603 -0.1806
 1256CHOL    C111302   2.275  10.780   6.949  0.2180  0.0896 -0.1186
 1256CHOL    C211303   2.177  10.630   7.300  0.1418  0.0051 -0.0390
 1257XCA    COO11304   6.478   6.327   3.669  0.1473  0.4774  0.1210
 1257XCA     C111305   6.665   6.168   4.097  0.0150  0.0405  0.2073
 1257XCA     C211306   6.696   5.818   4.328  0.0372 -0.2294 -0.5361
 1257XCA     C311307   6.705   5.565   4.651  0.1115  0.2203 -0.0954
 1257XCA     C411308   6.753   5.388   5.055 -0.0454 -0.1028  0.4387
 1257XCA     C511309   6.816   5.336   5.520 -0.0810 -0.3669  0.0579
 1257XCA     C611310   6.969   5.061   5.846  0.0896  0.0341 -0.1537
 1258PNCE   AM111311   3.678   3.024   3.688  0.0720  0.1211  0.0303
 1258PNCE   AM211312   3.969   2.888   3.541 -0.0586 -0.0394 -0.5583
 1258PNCE   T1A11313   3.939   3.385   3.848 -0.1955  0.4418  0.0302
 1258PNCE   C2A11314   4.302   3.535   3.962 -0.0649  0.0151  0.3973
 1258PNCE   C3A11315   4.577   3.833   4.260  0.1968  0.1046 -0.1940
 1258PNCE   C1B11316   4.383   3.025   3.781  0.0017 -0.0184 -0.0962
 1258PNCE   C2B11317   4.707   3.231   4.031  0.1556  0.2152 -0.0684
 1258PNCE   C3B11318   4.790   3.046   4.450 -0.0868  0.3762  0.2552
 1258PNCE   D4B11319   4.961   2.984   4.766  0.3320 -0.0827 -0.1385
 1258PNCE   C5B11320   4.903   3.024   5.240  0.0373  0.0535 -0.0811
 1258PNCE   C6B11321   5.211   3.202   5.562  0.1466 -0.0629 -0.0861
 1259CHOL   ROH11322  11.722   1.306   7.194 -0.0150  0.0017  0.1980
 1259CHOL    R111323  11.675   1.130   6.978 -0.0084  0.1293  0.0906
 1259CHOL    R211324  11.562   0.880   7.012  0.0645  0.0773 -0.0521
 1259CHOL    R311325  11.385   0.969   6.826  0.0059  0.1502  0.0386
 1259CHOL    R411326  11.378   0.677   6.801  0.2768  0.1580 -0.3194
 1259CHOL    R511327  11.414   0.821   6.640  0.1690  0.3955 -0.1443
 1259CHOL    C111328  11.105   0.644   6.503  0.3455  0.2734 -0.3899
 1259CHOL    C211329  10.827   0.733   6.281 -0.1141 -0.0854  0.1387
 1260XCA    COO11330  10.054  12.094   5.867  0.1473  0.0120 -0.0422
 1260XCA     C111331   9.719  11.957   6.234 -0.1227  0.3399  0.1749
 1260XCA     C211332   9.307  11.812   6.467  0.0088 -0.2403  0.2145
 1260XCA     C311333   9.211  11.524   6.877  0.0652 -0.0262  0.0195
 1260XCA     C411334   8.952  11.414   7.304  0.1790 -0.4492 -0.2780
 1260XCA     C511335   8.609  11.180   7.346 -0.0800 -0.1168 -0.0440
 1260XCA     C611336   8.194  11.309   7.302  0.3981  0.1185 -0.1003
 1261XCA    COO11337   8.628   3.644   7.555  0.2289  0.1154  0.1376
 1261XCA     C111338   9.046   3.717   7.382 -0.3321 -0.2612 -0.2364
 1261XCA     C211339   9.447   3.675   7.108 -0.2380  0.3850  0.0764
 1261XCA     C311340   9.884   3.841   7.100 -0.0305  0.2319  0.0486
 1261XCA     C411341   9.905   4.176   7.161 -0.2867  0.0488  0.0814
 1261XCA     C511342   9.906   4.609   7.009  0.2171  0.0291  0.0922
 1261XCA     C611343   9.640   4.649   6.610  0.1910  0.0067 -0.3347
 1262PNCE   AM111344   7.319  13.860   4.634 -0.4170 -0.1164 -0.0351
 1262PNCE   AM211345   7.057  13.734   4.892 -0.0696  0.2752  0.1892
 1262PNCE   T1A11346   7.540  14.088   4.753  0.0931  0.0404 -0.1214
 1262PNCE   C2A11347   7.576  14.535   4.895  0.1857 -0.1265  0.1234
 1262PNCE   C3A11348   7.523  14.987   5.191 -0.0532 -0.2873  0.3479
 1262PNCE   C1B11349   7.276  14.112   5.218 -0.3812 -0.0257 -0.3450
 1262PNCE   C2B11350   7.222  14.190   5.671  0.0370 -0.1122 -0.3735
 1262PNCE   C3B11351   7.522  14.167   6.048  0.0972 -0.3991  0.0858
 1262PNCE   D4B11352   7.673  14.132   6.473 -0.0803  0.0752  0.4330
 1262PNCE   C5B11353   7.586  14.327   6.774  0.0152 -0.0525 -0.2387
 1262PNCE   C6B11354   7.272  14.673   6.798 -0.2662 -0.2047 -0.3442
 1263XCA    COO11355   9.499   8.570   9.597 -0.2036  0.0263 -0.2000
 1263XCA     C111356   9.400   8.923   9.243  0.0986 -0.2163 -0.0530
 1263XCA     C211357   9.635   9.077   8.988  0.2924  0.0586  0.0665
 1263XCA     C311358   9.897   9.113   8.662 -0.1537  0.2563 -0.0497
 1263XCA     C411359  10.167   9.303   8.465  0.0503 -0.2858 -0.0368
 1263XCA     C511360  10.406   9.448   8.079 -0.0159 -0.1836 -0.3843
 1263XCA     C611361  10.469   9.526   7.653  0.0628 -0.2168  0.2757
 1264XCA    COO11362  12.043   5.203   5.352  0.0311 -0.1982 -0.0035
 1264XCA     C111363  11.925   5.274   5.699  0.4415  0.4078 -0.0830
 1264XCA     C211364  11.607   5.333   5.929 -0.2515  0.1894  0.0150
 1264XCA     C311365  11.560   5.179   6.317 -0.2139 -0.0134  0.1613
 1264XCA     C411366  11.374   4.883   6.570 -0.3100  0.0657 -0.2137
 1264XCA     C511367  11.140   4.504   6.708 -0.1946  0.0627  0.0009
 1264XCA     C611368  10.845   4.469   7.072  0.0824  0.0551  0.2816
 1265WN      WN11369   1.395  14.032  12.963  0.2236  0.1165 -0.1799
 1266WN      WN11370   2.383   0.377   9.480 -0.0974  0.1337  0.0040
 1267WN      WN11371  14.403  10.618  11.800  0.3173 -0.1011  0.2407
 1268WN      WN11372   5.001   3.194   2.555  0.0869 -0.1618 -0.0742
 1269WN      WN11373  14.474   9.230  12.406  0.2456 -0.1946 -0.0952
 1270WN      WN11374   8.194   9.947  10.501 -0.1768 -0.0760 -0.2721
 1271WN      WN11375  13.953  12.724   1.349  0.1675 -0.1530  0.0339
 1272WN      WN11376  14.847   7.827   1.071 -0.0316  0.0764  0.0020
 1273WN      WN11377   9.644   3.886   8.419  0.1527  0.1394  0.0252
 1274WN      WN11378   2.163   2.021   3.014  0.2156  0.0774  0.2335
 1275WN      WN11379  10.919   2.664   2.623  0.2435 -0.2319 -0.4516
 1276WN      WN11380   5.098  10.458   4.488  0.2458  0.0700 -0.1598
 1277WN      WN11381  11.742  15.370   0.472 -0.0180  0.2548  0.0378
 1278WN      WN11382   3.736  13.876  13.288 -0.0417 -0.0857  0.2227
 1279WN      WN11383   6.023  14.618   3.716  0.4437  0.0597  0.1890
 1280WN      WN11384  15.124   6.769  11.064 -0.0942 -0.2207 -0.1030
 1281WN      WN11385  15.637   2.776  13.488 -0.1311  0.0133  0.2569
 1282WN      WN11386   0.911  13.795  13.007  0.0456  0.3439 -0.0332
 1283WN      WN11387   3.894   7.185   1.132 -0.1709  0.0630 -0.0285
 1284WN      WN11388  10.889   3.964   2.750 -0.0474 -0.0559 -0.2509
 1285WN      WN11389  14.992   2.146   1.835 -0.0196 -0.1128 -0.0247
 1286WN      WN11390  13.005   9.840  12.393  0.1628 -0.2835 -0.0280
 1287WN      WN11391   5.299   5.839   8.523 -0.1738 -0.1241 -0.1113
 1288WN      WN11392   4.935   2.069   3.350  0.1947  0.4698  0.0850
 1289WN      WN11393  11.012   7.702  13.038  0.2338  0.0678 -0.3055
 1290WN      WN11394   9.631   5.623  12.415 -0.1488 -0.0872 -0.0072
 1291WN      WN11395   3.223   7.573   0.726  0.2750 -0.0041  0.0549
 1292WN      WN11396   4.806  14.140   9.524  0.1340 -0.0226  0.1451
 1293WN      WN11397   6.426   3.305  12.096  0.1589 -0.2295 -0.1138
 1294WN      WN11398  11.631   4.507   0.706  0.2396 -0.0614  0.3607
 1295WN      WN11399   6.504  15.042   2.401 -0.0544  0.0217  0.2175
 1296WN      WN11400   8.978   7.274   1.028  0.1468  0.0774 -0.0315
 1297WN      WN11401   5.963   3.233   2.957  0.4647 -0.0956  0.2828
 1298WN      WN11402   3.263   7.716   8.351  0.0644 -0.0576 -0.0332
 1299WN      WN11403  11.334   6.071   0.004  0.1250 -0.2504 -0.0711
 1300WN      WN11404   4.950  12.962  13.164  0.0255  0.0482  0.2023
 1301WN      WN11405   7.398   0.736   8.135  0.0463  0.3045  0.0598
 1302WN      WN11406   8.836   5.179   1.258  0.0297 -0.0297  0.0426
 1303WN      WN11407   5.547  15.300  12.397 -0.0457  0.0446 -0.0355
 1304WN      WN11408  15.737  12.784  13.101 -0.0660  0.1793 -0.1625
 1305WN      WN11409   1.242  14.274   3.989 -0.4989  0.1073  0.3798
 1306WN      WN11410   7.842   8.021   1.778  0.2858  0.1019 -0.1721
 1307WN      WN11411  15.228   2.464  12.979  0.2351 -0.1796 -0.0931
 1308WN      WN11412  13.173  11.143   3.205 -0.0588  0.0158  0.0559
 1309WN      WN11413  12.340   0.400   9.464 -0.2193 -0.1016  0.1998
 1310WN      WN11414   9.633  13.967   2.077 -0.1672  0.2567  0.0148
 1311WN      WN11415   5.541   6.790   2.190  0.0522 -0.2013  0.1188
 1312WN      WN11416   3.605   2.891   1.869 -0.1499 -0.0531  0.2422
 1313WN      WN11417   2.765   5.813   9.823  0.1998  0.1815 -0.1211
 1314WN      WN11418  10.401  12.254  12.710  0.1447 -0.0684  0.1749
 1315WN      WN11419   6.653   6.205  11.050  0.1680  0.1564  0.1574
 1316WN      WN11420  12.714   1.758   8.876  0.0141  0.1095  0.0840
 1317WN      WN11421  10.139  11.690   0.157 -0.3321  0.0212 -0.0967
 1318WN      WN11422  13.573   4.698  11.110  0.2824 -0.1335  0.3467
 1319WN      WN11423   9.336   4.671  12.296 -0.3320 -0.0383  0.3225
 1320WN      WN11424   2.051   9.839   0.460  0.0401  0.2206  0.0573
 1321WN      WN11425   9.307   1.263   0.559 -0.0940  0.1176 -0.1625
 1322WN      WN11426  15.509  14.434   3.097 -0.1141 -0.1246 -0.2084
 1323WN      WN11427   4.749   4.206   3.303 -0.0777 -0.2875 -0.0054
 1324WN      WN11428   5.962  13.611  11.244 -0.0431  0.0387 -0.0073
 1325WN      WN11429   1.559   4.968   1.694 -0.0370  0.1702 -0.0329
 1326WN      WN11430   8.984  11.142   4.893  0.1350  0.0034  0.3432
 1327WN      WN11431   0.444   1.257  13.144  0.1316 -0.3457 -0.1405
 1328WN      WN11432   3.388  14.191   2.728  0.0086  0.2615  0.3074
 1329WN      WN11433  10.633  14.474   2.884  0.0323  0.2752 -0.0248
 1330WN      WN11434   4.806  13.682  13.619  0.0965  0.0593 -0.0025
 1331WN      WN11435   7.937  15.126   0.711  0.3504  0.4708  0.1815
 1332WN      WN11436   4.428   9.618   1.118 -0.3378 -0.4272  0.3591
 1333WN      WN11437   4.541   2.315   8.819 -0.0187 -0.0441 -0.0900
 1334WN      WN11438   5.160   5.704   0.358 -0.1398  0.2018  0.4019
 1335WN      WN11439  12.220   6.218   2.286 -0.0989  0.5285  0.1554
 1336WN      WN11440   2.496   4.719   9.473  0.2754 -0.2755  0.0649
 1337WN      WN11441   4.312   6.302  12.227  0.0603  0.1487  0.2106
 1338WN      WN11442  14.462   1.306  13.338 -0.1214 -0.0211  0.0162
 1339WN      WN11443  12.502   2.083   9.232  0.1900 -0.0839  0.1750
 1340WN      WN11444  11.636  10.395  13.085  0.1773 -0.1640  0.2003
 1341WN      WN11445   0.567   4.109  10.993  0.1499  0.1025 -0.1977
 1342WN      WN11446   4.326   3.584   0.571 -0.0480 -0.2709  0.1783
 1343WN      WN11447   5.138   3.797   8.426  0.0797 -0.1752  0.3946
 1344WN      WN11448   0.452   6.941   1.035 -0.0244  0.2562  0.0698
 1345WN      WN11449   9.593   0.936  13.727 -0.0462  0.1233 -0.2757
 1346WN      WN11450  13.645  13.129  10.602 -0.0368 -0.0688 -0.0368
 1347WN      WN11451   1.417  12.292  12.022 -0.0962  0.2372 -0.1358
 1348WN      WN11452   9.524   2.432  13.101  0.0547  0.1743  0.1021
 1349WN      WN11453   4.072  13.186   3.577  0.0732 -0.3619 -0.1236
 1350WN      WN11454  14.075   9.667  10.258  0.1328  0.1673 -0.1470
 1351WN      WN11455   1.404   4.190  11.164 -0.1190  0.1942  0.2399
 1352WN      WN11456   1.856  10.098   2.459 -0.0224  0.0270 -0.0377
 1353WN      WN11457   8.966   9.353  13.007  0.0862 -0.5127  0.3785
 1354WN      WN11458   7.277   6.332   2.693  0.0350 -0.0904  0.2628
 1355WN      WN11459  14.082   7.686   4.368 -0.2660 -0.0867  0.3071
 1356WN      WN11460   9.060   0.965  12.199  0.0259  0.2215  0.2560
 1357WN      WN11461   6.831   9.467   1.396 -0.0752  0.0776  0.2713
 1358WN      WN11462  11.532   3.671  11.983  0.3216 -0.1258 -0.1907
 1359WN      WN11463  11.406   0.122  10.897  0.0542 -0.2222 -0.3029
 1360WN      WN11464   8.089   4.497   8.186  0.1097 -0.0990  0.0341
 1361WN      WN11465  13.691   0.122  13.762  0.1531  0.0623 -0.0663
 1362WN      WN11466  10.680   9.257  11.883 -0.2341  0.0810  0.4487
 1363WN      WN11467   8.401   4.437  12.761  0.3171 -0.0105  0.2496
 1364WN      WN11468   8.683   1.129   9.634  0.0209 -0.3169  0.0193
 1365WN      WN11469  11.333  11.469  12.265 -0.2469 -0.2093 -0.4368
 1366WN      WN11470   1.605   6.565   1.637  0.1518  0.1911  0.2020
 1367WN      WN11471  11.905  11.717   2.660  0.0106  0.1911  0.0416
 1368WN      WN11472  11.437   6.151   3.056  0.1543 -0.2354  0.3472
 1369WN      WN11473   2.592   6.705   0.615  0.2080  0.0217 -0.5107
 1370WN      WN11474   9.527   8.486   1.307  0.2820 -0.1055 -0.0062
 1371WN      WN11475   2.962   0.360   4.338  0.0777  0.2905  0.2981
 1372WN      WN11476   1.214  13.326   0.869  0.1176 -0.0726  0.1325
 1373WN      WN11477  15.704  10.640   9.948  0.0837 -0.1177 -0.1564
 1374WN      WN11478  11.392   0.640  13.680  0.0608 -0.0462 -0.3092
 1375WN      WN11479   4.881   1.312   8.940 -0.2133 -0.1025 -0.1741
 1376WN      WN11480  10.285   2.354   8.545 -0.2947  0.0913  0.0565
 1377WN      WN11481  11.616  11.271   2.457  0.0140 -0.3116 -0.0770
 1378WN      WN11482   1.620  14.704  12.818 -0.0433  0.1226 -0.0234
 1379WN      WN11483   2.569  10.212   3.210 -0.1753 -0.0916  0.1953
 1380WN      WN11484  11.513   6.451  11.388 -0.0988  0.1233 -0.1915
 1381WN      WN11485  10.581   1.070   1.125 -0.2938  0.0579 -0.0905
 1382WN      WN11486   4.043   9.342   2.959 -0.2037 -0.2171 -0.2748
 1383WN      WN11487   6.366   5.856   1.512 -0.0993  0.0144  0.1187
 1384WN      WN11488   1.123   5.299   9.180 -0.3312  0.0666  0.0609
 1385WN      WN11489   0.419   1.020   8.893  0.0453  0.2960 -0.1622
 1386WN      WN11490   9.427   5.259   9.997 -0.0562 -0.1210 -0.0411
 1387WN      WN11491   9.101   8.698  11.852  0.1947 -0.2604 -0.0676
 1388WN      WN11492  12.529   4.861   0.044 -0.3274 -0.1768 -0.1690
 1389WN      WN11493   0.731   1.492   4.099 -0.1759 -0.3311 -0.0037
 1390WN      WN11494  14.143  12.529  12.216  0.1400  0.2738 -0.1763
 1391WN      WN11495   7.751   5.064   0.093 -0.1154  0.2141  0.0244
 1392WN      WN11496   7.280  13.033   2.084  0.1580 -0.2182  0.1807
 1393WN      WN11497  15.178   0.479   0.929 -0.0332 -0.0636  0.2238
 1394WN      WN11498  14.102   0.738  12.865 -0.3462 -0.0693 -0.1831
 1395WN      WN11499   3.866   1.393  12.544  0.0758 -0.2164  0.1146
 1396WN      WN11500   7.707  10.142  13.186 -0.1759  0.1078  0.0692
 1397WN      WN11501   1.300  14.744  10.692 -0.2041  0.2606 -0.2214
 1398WN      WN11502  11.824  13.232  10.096  0.0302 -0.2705 -0.2499
 1399WN      WN11503   9.410  14.218   2.737 -0.0266 -0.1449  0.4319
 1400WN      WN11504  10.759  10.107  10.231 -0.3014  0.4658  0.1185
 1401WN      WN11505  10.054   7.834   4.234  0.2679 -0.0408  0.1146
 1402WN      WN11506   2.601   1.964  12.395 -0.4192 -0.0007 -0.0075
 1403WN      WN11507   8.107   5.867   2.917 -0.0104  0.1191 -0.0088
 1404WN      WN11508   7.067  14.506  11.440  0.1113  0.0920 -0.2776
 1405WN      WN11509   8.522  13.093   4.792  0.2137  0.0998  0.1786
 1406WN      WN11510   4.895   2.948   0.285 -0.0066  0.0613  0.0055
 1407WN      WN11511  13.982   9.734  12.984 -0.1183  0.0609  0.0724
 1408WN      WN11512  12.489   4.738  11.373 -0.1105 -0.0889  0.1513
 1409WN      WN11513   7.926   6.091  11.783  0.0737  0.2148  0.1639
 1410WN      WN11514   9.649   2.767   9.877 -0.4402 -0.0340  0.3190
 1411WN      WN11515  13.151  14.552   0.060 -0.2163 -0.0880  0.0056
 1412WN      WN11516  12.691   7.596  13.543 -0.0509  0.0290  0.0516
 1413WN      WN11517   6.901   1.905   2.158  0.0154 -0.0699 -0.1495
 1414WN      WN11518   0.666  12.488   3.532  0.0765 -0.2547  0.4336
 1415WN      WN11519  13.339   0.240   0.362 -0.0253  0.0298 -0.0688
 1416WN      WN11520   9.783   2.721  13.654  0.0790 -0.1109  0.0502
 1417WN      WN11521   8.538   4.864  11.160  0.0342 -0.1151 -0.0004
 1418WN      WN11522  13.669   6.208   5.093  0.0274  0.1766  0.0045
 1419WN      WN11523   4.918   4.935  12.292 -0.0502 -0.1390  0.2138
 1420WN      WN11524  15.241   8.108   2.845  0.1010 -0.1890  0.1898
 1421WN      WN11525   3.033   3.649  10.845 -0.0138  0.2171  0.1372
 1422WN      WN11526   3.338  13.133   0.451 -0.1715 -0.0486  0.2178
 1423WN      WN11527   8.799   3.423   3.428  0.0043  0.0421 -0.0430
 1424WN      WN11528  13.321   0.692  13.730  0.1749  0.0592  0.1100
 1425WN      WN11529   1.762  15.025  12.368 -0.0712  0.0457  0.0857
 1426WN      WN11530   9.760  15.596  11.425 -0.0485  0.0456  0.0355
 1427WN      WN11531  13.112  14.740   4.495 -0.1954 -0.3817  0.0214
 1428WN      WN11532   3.678   9.142   4.032  0.1446 -0.2075 -0.3244
 1429WN      WN11533  12.890  12.333  10.450  0.0916  0.1405 -0.2749
 1430WN      WN11534   8.321   3.729   2.386 -0.2565  0.1307  0.0555
 1431WN      WN11535   5.157   7.104   2.296 -0.0441  0.1467 -0.0020
 1432WN      WN11536  15.498  10.871  12.519  0.1821  0.0489  0.2594
 1433WN      WN11537   8.932  11.729  12.800 -0.0160 -0.3089  0.0757
 1434WN      WN11538   2.219   1.881   3.975 -0.1344 -0.0537  0.1729
 1435WN      WN11539   1.771   5.763   1.229 -0.2238 -0.1622 -0.0618
 1436WN      WN11540   2.409  13.172   8.984 -0.0601 -0.0091  0.4037
 1437WN      WN11541   8.501   1.171   0.194  0.0349 -0.0804 -0.0946
 1438WN      WN11542   6.594  15.089  13.595  0.1584 -0.2878 -0.1117
 1439WN      WN11543   2.119  15.677   9.404 -0.0045  0.0526  0.2724
 1440WN      WN11544   4.804   2.627  12.507  0.1007  0.0524  0.0120
 1441WN      WN11545   5.169   0.576   3.393 -0.0880 -0.1415  0.0657
 1442WN      WN11546  13.163   4.142  12.751 -0.0711  0.0430  0.1140
 1443WN      WN11547   5.641   1.728   0.507  0.1338  0.0541  0.1278
 1444WN      WN11548   3.009   9.875  13.570  0.1141 -0.0624 -0.1626
 1445WN      WN11549  15.173   1.384   8.757  0.0819 -0.2939 -0.1711
 1446WN      WN11550   6.311  13.698  12.018  0.0633 -0.2315  0.3317
 1447WN      WN11551   0.126   2.734  12.960  0.0193 -0.2310 -0.1107
 1448WN      WN11552   8.349  14.259   1.063  0.2517  0.1498 -0.2993
 1449WN      WN11553   1.978   7.760  10.836  0.1721  0.1309 -0.1996
 1450WN      WN11554  11.243   1.141   2.733 -0.1135 -0.2715 -0.1178
 1451WN      WN11555   2.446   1.095   2.432 -0.3614  0.0901 -0.0179
 1452WN      WN11556   5.109   3.731   9.691 -0.1609  0.2909  0.1332
 1453WN      WN11557  10.420   2.773   2.930  0.2535 -0.0881  0.0896
 1454WN      WN11558   9.956  14.951   0.155  0.3129  0.0513 -0.1292
 1455WN      WN11559   0.163   2.523   9.684  0.0683  0.1261 -0.0817
 1456WN      WN11560   7.941  10.989   1.374 -0.1019  0.1331  0.1093
 1457WN      WN11561  12.298  12.305  10.355 -0.1110 -0.3097 -0.0693
 1458WN      WN11562   7.706   3.525   9.358  0.0773 -0.0652  0.1711
 1459WN      WN11563  15.643   1.881  12.012 -0.3877 -0.0831 -0.1798
 1460WN      WN11564   8.144  15.604   9.960 -0.4287 -0.1517 -0.0565
 1461WN      WN11565   1.817  12.206  10.494  0.2114 -0.1083  0.0821
 1462WN      WN11566  12.855  11.083   2.840 -0.1115 -0.3182 -0.0130
 1463WN      WN11567   3.632   9.663   5.063 -0.2000 -0.1976  0.0176
 1464WN      WN11568  14.775   9.526   9.594  0.0448  0.3115 -0.0643
 1465WN      WN11569   1.186   0.081   3.775 -0.2630  0.4394  0.0347
 1466WN      WN11570  14.289  14.040   9.808  0.0146 -0.0046  0.0621
 1467WN      WN11571   5.099  14.880   0.470  0.1566  0.0603  0.0017
 1468WN      WN11572   3.623   0.211  10.052  0.0917  0.0265  0.0504
 1469WN      WN11573  11.512  11.843  11.493 -0.1580  0.0316 -0.3750
 1470WN      WN11574   5.671  14.127  12.523 -0.1965 -0.2194  0.0128
 1471WN      WN11575   5.236  10.551   1.824 -0.1565  0.0418 -0.3795
 1472WN      WN11576   4.664   1.801   8.923 -0.0064  0.3227 -0.0540
 1473WN      WN11577  14.783  12.943   0.899 -0.0840  0.0236  0.2200
 1474WN      WN11578   8.159   1.842   9.673 -0.3991  0.1009  0.1285
 1475WN      WN11579  12.715  10.784  12.178 -0.1255 -0.1082  0.0078
 1476WN      WN11580   0.961   5.690   1.727 -0.1623 -0.0531 -0.0237
 1477WN      WN11581   5.836  15.561  13.148  0.2037  0.0623 -0.1222
 1478WN      WN11582   3.808   8.403   1.509 -0.3574 -0.1116  0.5357
 1479WN      WN11583   2.417  11.970   2.317  0.0209  0.1575  0.0057
 1480WN      WN11584  15.628  13.956  12.233 -0.1307 -0.2034  0.1615
 1481WN      WN11585   2.255   8.149   3.422 -0.0231  0.1753  0.0731
 1482WN      WN11586   6.459  14.184  10.095 -0.1225  0.0047 -0.1196
 1483WN      WN11587  11.906   5.486  11.961 -0.0938  0.3954  0.3975
 1484WN      WN11588  13.058   4.857   2.790 -0.0612 -0.0236  0.0910
 1485WN      WN11589   6.781  11.817   9.684 -0.2519 -0.0955 -0.1730
 1486WN      WN11590   5.770   6.015  11.235  0.3518  0.2063 -0.0683
 1487WN      WN11591   4.302   0.925   9.518 -0.0512 -0.1040 -0.0100
 1488WN      WN11592   7.474   6.928   1.904  0.1085  0.4511 -0.3193
 1489WN      WN11593   4.109   7.634   8.741 -0.0976 -0.2234 -0.2438
 1490WN      WN11594   1.427   3.663   9.829  0.1286  0.2129  0.1251
 1491WN      WN11595   7.330  15.228   1.079 -0.2580 -0.0682 -0.2914
 1492WN      WN11596   8.950  10.492   0.814  0.1343 -0.0904 -0.0147
 1493WN      WN11597   9.369  11.549   5.566  0.1606  0.1634  0.0837
 1494WN      WN11598   1.632   8.120  10.709  0.0198 -0.1702  0.1735
 1495WN      WN11599   2.185  11.561   9.486  0.2589  0.1453 -0.1101
 1496WN      WN11600   6.958   7.770  11.471  0.2770  0.0452 -0.1491
 1497WN      WN11601  15.713   6.962   0.367  0.0233 -0.0433  0.1504
 1498WN      WN11602   1.878   2.458   9.515  0.2737 -0.0422  0.0582
 1499WN      WN11603   2.080   1.924   1.758 -0.1697  0.2468 -0.0676
 1500WN      WN11604   8.236   1.840  10.193 -0.0518 -0.0422 -0.2826
 1501WN      WN11605   5.537   5.065   1.716 -0.3252  0.0012 -0.3145
 1502WN      WN11606   6.507   7.061   0.406 -0.2854 -0.2116  0.3277
 1503WN      WN11607  14.109   0.780  13.342 -0.0615 -0.1426  0.1088
 1504WN      WN11608   0.755   1.921   3.756 -0.0481  0.2385  0.3027
 1505WN      WN11609   4.598   8.114  13.682 -0.0603 -0.2197 -0.0063
 1506WN      WN11610   5.794   2.009  10.820  0.1347  0.1098  0.0590
 1507WN      WN11611   4.437   6.750   0.313 -0.1005  0.1207 -0.0124
 1508WN      WN11612  12.017  14.115   0.212  0.0198 -0.0101 -0.1958
 1509WN      WN11613   7.264  15.159  11.925  0.2702 -0.0335  0.1966
 1510WN      WN11614   8.108   2.142   8.206 -0.2043  0.1015  0.0587
 1511WN      WN11615   1.884  10.929  13.063  0.1062  0.3650  0.0270
 1512WN      WN11616   8.090  12.194  12.538  0.3694 -0.1187 -0.1735
 1513WN      WN11617   1.105   5.988   3.986 -0.3241  0.1107 -0.1317
 1514WN      WN11618   6.602   1.473  11.811 -0.2737  0.2600 -0.1021
 1515WN      WN11619   1.759   0.919   0.543  0.1154  0.0034  0.0514
 1516WN      WN11620  11.397   9.578   0.844  0.1826  0.1285  0.0184
 1517WN      WN11621   3.670   5.837  10.627  0.2588 -0.0335  0.2809
 1518WN      WN11622   7.499  12.448   3.603  0.0322 -0.0119 -0.2625
 1519WN      WN11623   1.673   6.781   3.994 -0.1315  0.0651 -0.1645
 1520WN      WN11624  14.762   9.365  13.117  0.0802 -0.4332  0.0137
 1521WN      WN11625  12.022   7.382   2.601 -0.0754  0.0467  0.3404
 1522WN      WN11626   8.427   0.894   2.246  0.0345 -0.1034 -0.2025
 1523WN      WN11627   9.053   9.046   1.569 -0.3249 -0.1718  0.2192
 1524WN      WN11628  13.470   1.303  10.063  0.3379 -0.0700  0.1089
 1525WN      WN11629   2.240  13.366   2.747  0.0294 -0.3200  0.3473
 1526WN      WN11630   8.515  12.052   3.064  0.4099 -0.1255 -0.3233
 1527WN      WN11631   5.624   2.125  13.163  0.1179  0.1704 -0.2501
 1528WN      WN11632   3.366  10.713   4.246  0.1366  0.3043 -0.2366
 1529WN      WN11633  12.540  14.987   4.995 -0.0150  0.0969 -0.0651
 1530WN      WN11634  15.668   1.762   0.827 -0.1820 -0.1856  0.2718
 1531WN      WN11635   5.102  13.269   2.835 -0.1031  0.2836 -0.1007
 1532WN      WN11636  15.652  13.616  10.587  0.1667 -0.0858  0.0539
 1533WN      WN11637  15.200   8.619   9.539 -0.3224 -0.2574  0.2805
 1534WN      WN11638   1.675  13.268  12.334  0.0833  0.1909  0.0553
 1535WN      WN11639  13.846   3.112   3.999  0.3142 -0.1008  0.0685
 1536WN      WN11640   1.082   6.046  11.048 -0.3027 -0.3628 -0.2565
 1537WN      WN11641   4.045  10.278  10.644  0.1305  0.0022 -0.0122
 1538WN      WN11642   1.676   6.491  13.099  0.0666 -0.3606  0.0464
 1539WN      WN11643  11.016   3.593  11.867  0.0078  0.2453  0.1705
 1540WN      WN11644   3.541  14.572   2.358 -0.0183  0.1072  0.0908
 1541WN      WN11645  15.415   0.603  13.552  0.0492 -0.1713  0.0327
 1542WN      WN11646   7.360   4.931  10.947 -0.0949 -0.2784 -0.0000
 1543WN      WN11647  13.686   1.844   0.911  0.0617  0.0281  0.3060
 1544WN      WN11648  10.367   9.710   3.796  0.1843 -0.1927  0.3156
 1545WN      WN11649  10.145   9.185   5.402 -0.0228 -0.1378 -0.1718
 1546WN      WN11650   6.438  11.842   2.863  0.2518  0.0906 -0.0442
 1547WN      WN11651  13.154   0.435  12.000  0.0737 -0.0861 -0.3496
 1548WN      WN11652   1.660   4.577  10.798 -0.1551  0.0957  0.3801
 1549WN      WN11653  15.353   1.989   9.594  0.2379 -0.2862  0.0323
 1550WN      WN11654   9.458  14.739   0.453 -0.0758 -0.0817 -0.0752
 1551WN      WN11655   1.199  11.130   0.394  0.1665 -0.2022 -0.0364
 1552WN      WN11656   3.597   7.746  13.772 -0.3373  0.2747  0.1304
 1553WN      WN11657   5.542  12.119  13.143  0.0827 -0.2248  0.0438
 1554WN      WN11658   5.597   3.562   2.813 -0.0870 -0.0178 -0.0316
 1555WN      WN11659   9.034   9.195   0.515  0.1448  0.2108 -0.0284
 1556WN      WN11660   8.927   3.898   3.387  0.2831  0.0840 -0.0441
 1557WN      WN11661   9.861   4.115   2.635 -0.0228 -0.1375 -0.1095
 1558WN      WN11662   6.836  10.798  10.019  0.0112 -0.1658  0.1207
 1559WN      WN11663  11.856   3.457   3.586 -0.1538 -0.0204  0.1112
 1560WN      WN11664   8.467   1.792   9.026  0.1399  0.0338 -0.0054
 1561WN      WN11665   3.318   0.284   3.949  0.2334  0.2575  0.1687
 1562WN      WN11666   1.798   6.965   1.436  0.1383  0.0440  0.1623
 1563WN      WN11667   1.902   0.445   9.317  0.2216 -0.0526  0.3142
 1564WN      WN11668  12.119  12.629  12.528  0.1328 -0.1489  0.1332
 1565WN      WN11669  12.925  14.444   9.968 -0.0734 -0.0145 -0.2846
 1566WN      WN11670   7.104   0.805  12.292 -0.1463 -0.0054  0.0548
 1567WN      WN11671   1.708   4.183   9.738 -0.1028 -0.2632 -0.1544
 1568WN      WN11672  15.051   0.877  12.969 -0.1367 -0.3245 -0.2981
 1569WN      WN11673   4.701   3.328   9.853 -0.0409  0.2559 -0.0731
 1570WN      WN11674   4.506   5.766  12.102  0.2306  0.0736  0.0033
 1571WN      WN11675   1.748   1.730  11.969 -0.1790  0.1585 -0.0247
 1572WN      WN11676  15.403   4.152   3.553  0.0906 -0.0578  0.3286
 1573WN      WN11677   0.410  10.152  12.290 -0.2658 -0.1068 -0.0929
 1574WN      WN11678  14.634   4.367  11.118  0.2125  0.2341  0.3270
 1575WN      WN11679   3.808   3.433   3.313 -0.3283  0.4916 -0.1340
 1576WN      WN11680  15.495  11.293  12.912 -0.2435  0.0908  0.3314
 1577WN      WN11681   9.247   5.096   8.322 -0.0779  0.0155 -0.1365
 1578WN      WN11682   2.688   5.736  11.258 -0.0090  0.1275 -0.0879
 1579WN      WN11683   8.524  14.762   2.522 -0.3013  0.2530  0.0326
 1580WN      WN11684   7.333  10.873  13.246  0.0348 -0.0621  0.0365
 1581WN      WN11685   1.821   7.772  13.266  0.2745 -0.1778 -0.1813
 1582WN      WN11686   5.399  11.160   9.281 -0.1489 -0.2737  0.0013
 1583WN      WN11687  10.857  10.413   4.122 -0.1327 -0.1003 -0.3028
 1584WN      WN11688   7.604   7.990   0.779 -0.0161 -0.2426 -0.1260
 1585WN      WN11689  14.531   7.937  10.988  0.0064 -0.3383  0.0474
 1586WN      WN11690   0.684  11.915   4.316 -0.2566  0.2109 -0.0365
 1587WN      WN11691  15.398   3.749   0.568  0.1661  0.2854 -0.1817
 1588WN      WN11692  11.098   1.075   3.245 -0.0962  0.0162 -0.2094
 1589WN      WN11693   4.503  11.706  12.938 -0.0242  0.0043  0.1063
 1590WN      WN11694   4.640   4.405   0.671  0.0161  0.2021  0.0943
 1591WN      WN11695  12.980   8.559  13.355 -0.2003 -0.1883 -0.2770
 1592WN      WN11696   2.652  10.142   1.471 -0.0541 -0.0557 -0.1433
 1593WN      WN11697   9.941   2.310  13.362  0.1905 -0.0541 -0.1290
 1594WN      WN11698   4.937  13.928   0.978  0.0642 -0.2485  0.1689
 1595WN      WN11699  11.809   6.905   2.439  0.1925  0.0237 -0.2632
 1596WN      WN11700   0.496   6.239   1.186  0.3452 -0.0597  0.1228
 1597WN      WN11701   2.056  10.773  12.350 -0.3146  0.0592  0.1742
 1598WN      WN11702   5.020  14.919  13.387 -0.3564  0.0713  0.0241
 1599WN      WN11703  12.531   8.729  11.598  0.0908 -0.0724 -0.0290
 1600WN      WN11704   4.080   6.238   1.590 -0.0699  0.2042 -0.0164
 1601WN      WN11705   6.706  10.288   4.363 -0.1161  0.3108  0.0789
 1602WN      WN11706   0.131  14.442  13.148 -0.3145  0.3081  0.2040
 1603WN      WN11707  13.592  10.386  12.914  0.3343 -0.0245  0.1018
 1604WN      WN11708   3.229  10.811  10.267  0.0782  0.0498  0.2531
 1605WN      WN11709   0.477   7.684   9.948 -0.5080  0.2313 -0.0551
 1606WN      WN11710  11.178   4.058   1.995 -0.0314 -0.3244 -0.0400
 1607WN      WN11711  15.475   5.517   2.740  0.1242 -0.1432 -0.0465
 1608WN      WN11712   5.945   2.545  13.258 -0.3777  0.3385 -0.1966
 1609WN      WN11713   0.029  15.638   3.279 -0.0410  0.2713 -0.2068
 1610WN      WN11714   9.315   9.338   3.932  0.0784  0.0011 -0.3625
 1611WN      WN11715   8.150  15.633  11.909 -0.1772 -0.0704 -0.1723
 1612WN      WN11716  15.200   2.137   2.363 -0.0436  0.2207 -0.1037
 1613WN      WN11717   2.689   1.757  11.028  0.1422  0.0941 -0.1224
 1614WN      WN11718   1.459   1.014   3.590  0.1673 -0.0102  0.1325
 1615WN      WN11719   2.710  11.059  12.735 -0.1407  0.0890  0.1239
 1616WN      WN11720   5.953  13.960   0.553 -0.0041 -0.0381  0.0670
 1617WN      WN11721   2.631   1.402   9.084 -0.1432  0.0932 -0.0663
 1618WN      WN11722   2.016   7.238   3.252  0.1362 -0.1401  0.0518
 1619WN      WN11723   1.765  12.726  13.096 -0.1281  0.2077  0.1294
 1620WN      WN11724   7.393   8.251  10.948 -0.0898 -0.0696  0.2832
 1621WN      WN11725  15.641   5.203  13.501  0.1477 -0.0691 -0.0073
 1622WN      WN11726   1.431   5.695  12.794  0.1405  0.0563 -0.0891
 1623WN      WN11727  11.032   1.672  12.853  0.1602 -0.3110 -0.1499
 1624WN      WN11728   3.118   4.182   0.594 -0.0501 -0.2831 -0.0593
 1625WN      WN11729  13.946   1.154  12.499 -0.0529 -0.1216  0.0809
 1626WN      WN11730   7.197  11.923   5.055 -0.2820  0.3836  0.2641
 1627WN      WN11731   0.442  10.719  12.552 -0.2820 -0.0935  0.1402
 1628WN      WN11732  14.036  14.983   4.063  0.0262 -0.0352  0.1856
 1629WN      WN11733   1.624   8.175   1.231  0.1327  0.0601  0.0149
 1630WN      WN11734   0.714   1.087   1.967 -0.1140 -0.0776  0.0439
 1631WN      WN11735  10.315  13.741   1.357  0.0859  0.3294  0.0568
 1632WN      WN11736   0.413  12.641   1.823  0.2602  0.1399  0.2192
 1633WN      WN11737   5.259  10.915   9.707 -0.1327  0.0363 -0.2483
 1634WN      WN11738  15.084  15.108   1.853  0.1916  0.3005  0.1403
 1635WN      WN11739  14.745  11.526  13.568  0.3286 -0.4955 -0.0820
 1636WN      WN11740  11.875   8.572   2.257  0.1219  0.0527 -0.3200
 1637WN      WN11741   5.382  14.989   9.528 -0.4549 -0.1888 -0.1535
 1638WN      WN11742   3.403   1.671   2.878 -0.0959 -0.0662  0.1316
 1639WN      WN11743   0.003   1.240   4.581  0.0394  0.0982 -0.4354
 1640WN      WN11744   1.898   9.511  13.131 -0.2626 -0.1432 -0.1104
 1641WN      WN11745  14.058   8.449  12.526  0.3055 -0.2399  0.0941
 1642WN      WN11746   9.638   4.859   9.170 -0.0550 -0.1953 -0.0086
 1643WN      WN11747   1.874   2.909   0.196 -0.0866 -0.0933  0.0112
 1644WN      WN11748   4.321  13.600  10.622  0.0113 -0.1821 -0.0110
 1645WN      WN11749  10.090   9.135   4.474  0.0464 -0.0644  0.2702
 1646WN      WN11750   4.084   0.522  12.095  0.0222  0.3249  0.0493
 1647WN      WN11751   0.108   4.561  10.596 -0.1516 -0.0665 -0.0022
 1648WN      WN11752   5.883  14.113  10.247  0.1981  0.1407  0.0444
 1649WN      WN11753   2.147  14.887  13.684  0.1736 -0.0972  0.1731
 1650WN      WN11754   2.040  12.026   9.621  0.3580  0.0484 -0.1492
 1651WN      WN11755  15.673   1.010  11.755 -0.0367  0.4112 -0.1522
 1652WN      WN11756   9.271   6.087   9.956  0.1369 -0.0255  0.1369
 1653WN      WN11757   5.281   3.203  10.902 -0.2166  0.1613  0.1660
 1654WN      WN11758   5.350   9.347   9.820 -0.1121  0.2276 -0.0048
 1655WN      WN11759  12.942  14.203   1.136 -0.0163  0.1525  0.2867
 1656WN      WN11760   8.964  12.076   1.731 -0.0562  0.0136 -0.1359
 1657WN      WN11761   4.011   3.061   9.139 -0.2184 -0.0123  0.0325
 1658WN      WN11762   9.098  12.007   9.917 -0.0727  0.2410  0.3955
 1659WN      WN11763   7.475   5.222   2.070  0.0448 -0.4060 -0.0502
 1660WN      WN11764   5.542   7.275   8.824  0.1490 -0.0304 -0.0468
 1661WN      WN11765  11.344   3.692  13.327 -0.0244  0.1415  0.1034
 1662WN      WN11766  11.318  15.657   2.102 -0.2280  0.2496  0.0571
 1663WN      WN11767  14.266   6.732  13.053 -0.4142 -0.3153 -0.2399
 1664WN      WN11768  13.998  14.281   9.475 -0.4074 -0.1023 -0.0575
 1665WN      WN11769   7.410   4.942   1.674 -0.1009  0.3034  0.2492
 1666WN      WN11770   0.300   0.013   9.930 -0.0329  0.0604  0.2426
 1667WN      WN11771   1.704  10.559   3.201 -0.1393 -0.0368 -0.0786
 1668WN      WN11772  11.505  11.477   1.151 -0.0670  0.1091  0.1452
 1669WN      WN11773  14.941   3.524   1.798  0.0124  0.4386  0.0927
 1670WN      WN11774   6.441  14.574   2.205  0.1368 -0.1222 -0.1610
 1671WN      WN11775   4.037   6.718   0.726 -0.2850  0.0430 -0.1374
 1672WN      WN11776   1.474   8.140   9.056 -0.2331 -0.0807 -0.0128
 1673WN      WN11777   7.927   7.652   2.650 -0.1718 -0.0990  0.0423
 1674WN      WN11778   1.681  13.689   9.512  0.1026  0.0374 -0.1469
 1675WN      WN11779   2.619   8.621  11.745  0.3663  0.2036 -0.1422
 1676WN      WN11780  12.199  11.469  11.176  0.0391 -0.1874  0.0723
 1677WN      WN11781   3.545   9.429   2.491  0.1419 -0.0448 -0.4061
 1678WN      WN11782   7.923   4.728   1.180 -0.0558 -0.1222  0.1435
 1679WN      WN11783   5.669   8.895   3.459  0.1194  0.0471  0.1039
 1680WN      WN11784   5.698   9.601  12.130 -0.1576 -0.0088 -0.0790
 1681WN      WN11785   5.306  10.342  11.723 -0.1488 -0.1127 -0.1274
 1682WN      WN11786  14.121  15.383  10.495  0.2059 -0.1168 -0.1134
 1683WN      WN11787   6.660   6.913   2.218  0.2021  0.1142  0.1514
 1684WN      WN11788  14.913   7.925   3.183  0.0402  0.1702 -0.3743
 1685WN      WN11789  14.695   8.499   1.208  0.4324  0.2095 -0.1211
 1686WN      WN11790   4.703   0.273   2.873 -0.1418 -0.0110  0.0003
 1687WN      WN11791  13.514  13.951   2.514 -0.3764  0.2247  0.0126
 1688WN      WN11792   9.069   1.773   0.651 -0.0039 -0.1615 -0.0690
 1689WN      WN11793  13.578  13.727  10.199 -0.0657 -0.1258  0.0802
 1690WN      WN11794  11.709  12.471   3.823  0.0377 -0.1893  0.2817
 1691WN      WN11795   5.278   5.275   9.135 -0.1751  0.0735  0.0107
 1692WN      WN11796   2.303  14.853  10.929  0.0373 -0.1138  0.2985
 1693WN      WN11797   9.113   0.963   1.699 -0.0935 -0.0458 -0.0812
 1694WN      WN11798   9.686   3.749  11.954  0.0679 -0.1032  0.1558
 1695WN      WN11799  10.243   8.358   3.662  0.1337  0.5463 -0.2068
 1696WN      WN11800   5.016   9.475  12.945 -0.1045  0.2386  0.0198
 1697WN      WN11801   0.894   8.277  12.451  0.1263  0.0196 -0.0482
 1698WN      WN11802   4.468   1.426  11.846  0.0445  0.3470  0.1883
 1699WN      WN11803  12.365   1.501  13.264  0.0675 -0.0544 -0.2629
 1700WN      WN11804   3.689   1.784  13.760 -0.1930  0.2596  0.4861
 1701WN      WN11805   9.074   9.254  11.062  0.0375  0.0369  0.1164
 1702WN      WN11806   3.286   8.701   1.113  0.0091  0.1641  0.0371
 1703WN      WN11807   1.320   8.567  13.199  0.0337  0.0846 -0.1503
 1704WN      WN11808   3.314   8.221  10.879 -0.0010 -0.0910  0.0693
 1705WN      WN11809   7.387   8.403   1.507 -0.0514  0.1983  0.1288
 1706WN      WN11810   5.955   2.490   0.655 -0.1690  0.0684  0.2166
 1707WN      WN11811  12.606  15.333  11.520 -0.0226 -0.0562  0.3241
 1708WN      WN11812  11.388   4.043   9.596  0.1722 -0.1007  0.0153
 1709WN      WN11813   6.343   8.591  11.690 -0.0798 -0.1704  0.2369
 1710WN      WN11814  11.887   7.104  10.638 -0.0603 -0.0908  0.0773
 1711WN      WN11815   4.594   8.354   3.844  0.2972  0.0964  0.0462
 1712WN      WN11816   4.331   8.288  12.075  0.0282 -0.2520  0.1350
 1713WN      WN11817  10.053   5.374   0.460 -0.0340 -0.5400 -0.1181
 1714WN      WN11818   4.197   2.601   2.723 -0.0099 -0.0221 -0.0516
 1715WN      WN11819  14.414   8.747  10.107 -0.2672  0.0381 -0.0344
 1716WN      WN11820  14.819   1.371  12.981 -0.1016 -0.1028  0.1465
 1717WN      WN11821  13.520   6.092   4.564  0.1596 -0.2389  0.2266
 1718WN      WN11822   7.937   7.074   9.164 -0.1056  0.1179 -0.0245
 1719WN      WN11823   7.194  13.377   1.068 -0.1001  0.1679 -0.0701
 1720WN      WN11824   7.747   3.084  13.201 -0.0506  0.0578 -0.0151
 1721WN      WN11825   5.639   1.384   3.066  0.0695  0.2595  0.1427
 1722WN      WN11826   6.649  11.316   2.858  0.2579 -0.0234 -0.0135
 1723WN      WN11827  11.747  14.116  12.837 -0.1243  0.0460 -0.2039
 1724WN      WN11828  12.935  13.420   4.539 -0.1170 -0.4854 -0.0470
 1725WN      WN11829   1.071  13.100   9.664 -0.1480 -0.0911 -0.0010
 1726WN      WN11830   4.536   4.389   2.011 -0.0447 -0.2894  0.1766
 1727WN      WN11831  12.284  15.272  10.643  0.0212  0.1253  0.0529
 1728WN      WN11832  15.329   7.320  11.005 -0.1345 -0.1493 -0.1863
 1729WN      WN11833   3.371  10.233  12.362 -0.0196 -0.0645  0.1567
 1730WN      WN11834  14.033  10.000   1.523  0.1354  0.0356 -0.4034
 1731WN      WN11835   6.034  13.954  12.919  0.1236  0.1555  0.0020
 1732WN      WN11836  14.187   9.088   2.504  0.2269  0.2613 -0.0083
 1733WN      WN11837   3.043   4.324  12.501  0.0395 -0.0199 -0.5319
 1734WN      WN11838  15.172  15.157   9.895  0.0253 -0.1079 -0.3502
 1735WN      WN11839   3.612   6.644   1.014 -0.1627  0.1355 -0.1522
 1736WN      WN11840  13.313   7.503  11.514  0.1678 -0.1580  0.3439
 1737WN      WN11841   8.896   9.620  12.077 -0.0746 -0.1948 -0.2611
 1738WN      WN11842   5.763  11.648  12.727  0.1104 -0.2606 -0.1889
 1739WN      WN11843  13.705   9.385   0.499 -0.1990  0.0624  0.0601
 1740WN      WN11844  12.372  12.187  10.830 -0.1962  0.1160  0.0235
 1741WN      WN11845   7.315   2.725  12.589 -0.0814  0.0541 -0.1249
 1742WN      WN11846   2.222   4.399   0.296  0.1597  0.0364 -0.0771
 1743WN      WN11847   0.276   1.107   2.773  0.2081  0.1646  0.0701
 1744WN      WN11848   6.076  11.823  13.641  0.4733 -0.1674  0.0969
 1745WN      WN11849   4.459   6.463   0.739  0.0946  0.1402 -0.1323
 1746WN      WN11850   5.064   8.473   2.950  0.2450  0.0011 -0.0920
 1747WN      WN11851  10.253   2.944   3.564 -0.3854 -0.0207 -0.0854
 1748WN      WN11852  13.031   3.801  11.792 -0.1047 -0.1462 -0.2038
 1749WN      WN11853   4.305   6.774  10.305 -0.1821  0.2525 -0.2795
 1750WN      WN11854   9.197   2.299   8.220 -0.0168  0.1443 -0.0918
 1751WN      WN11855   4.678  14.038  11.405 -0.1783 -0.1921  0.1145
 1752WN      WN11856   3.807  13.518   1.402  0.3483 -0.0222 -0.0661
 1753WN      WN11857  14.729   6.310  12.893  0.2053  0.0009  0.4822
 1754WN      WN11858  14.461  15.341   4.623  0.1733  0.0573  0.0937
 1755WN      WN11859  13.331   2.935   2.655  0.1148  0.0587  0.1037
 1756WN      WN11860   2.971   6.810   4.191 -0.0517 -0.1412  0.1117
 1757WN      WN11861   5.660  13.476   9.796  0.2101 -0.2902  0.1847
 1758WN      WN11862   7.305  12.003   0.963 -0.0312  0.0511  0.3447
 1759WN      WN11863   6.110  14.502   2.784 -0.2132 -0.0279 -0.3281
 1760WN      WN11864   6.343   6.377   0.688 -0.2577 -0.2577 -0.0277
 1761WN      WN11865   4.756   0.715   8.657 -0.0190  0.4794  0.1099
 1762WN      WN11866   8.061   6.940   2.010  0.0764  0.1605 -0.0247
 1763WN      WN11867  12.760   3.883  12.512 -0.0899 -0.2472 -0.0278
 1764WN      WN11868   1.787   5.975  13.760 -0.2428  0.0399  0.2347
 1765WN      WN11869   8.079   2.747  11.657  0.0199  0.2150 -0.3079
 1766WN      WN11870  14.563   1.075   2.820 -0.0061  0.1715 -0.0616
 1767WN      WN11871   2.446   4.122  10.905  0.3443  0.1834 -0.1223
 1768WN      WN11872  15.366   7.407  10.492 -0.2472  0.2018 -0.1044
 1769WN      WN11873   1.336  11.529  10.759  0.3032 -0.0787 -0.1840
 1770WN      WN11874   3.392   7.361  12.781  0.2522  0.2271 -0.0521
 1771WN      WN11875   4.012   2.201  11.452  0.0805 -0.0368 -0.0086
 1772WN      WN11876   1.744   7.118   0.404  0.2087 -0.1029 -0.2697
 1773WN      WN11877   7.757   0.039   0.353  0.1479  0.0925 -0.0177
 1774WN      WN11878   1.788   1.485   4.161  0.2065 -0.4993  0.1958
 1775WN      WN11879  13.963   1.225   4.358 -0.1935  0.3428  0.0221
 1776WN      WN11880   5.387   2.841   9.995 -0.0061 -0.2292  0.0703
 1777WN      WN11881  12.634   6.495  11.975  0.0831  0.0244  0.0355
 1778WN      WN11882   3.490  13.500   2.302  0.0696 -0.1031  0.1400
 1779WN      WN11883   0.778   6.649   2.692 -0.3854 -0.1448  0.0657
 1780WN      WN11884  15.470   0.746   4.432 -0.2541  0.0728  0.0910
 1781WN      WN11885   4.127   7.799   3.182  0.0183  0.3186 -0.2345
 1782WN      WN11886  13.186   4.393   0.810 -0.1881  0.2349  0.1207
 1783WN      WN11887   8.668   2.039   0.675 -0.2024 -0.0848  0.0688
 1784WN      WN11888   5.274   3.480  11.344  0.0676  0.4688  0.0021
 1785WN      WN11889   4.602  10.107  11.102  0.1238 -0.1536  0.1461
 1786WN      WN11890  13.147   4.019  11.174 -0.0036 -0.2504  0.0672
 1787WN      WN11891  14.115   2.755   2.639 -0.0781 -0.0702 -0.0758
 1788WN      WN11892   2.265  10.527  10.155 -0.1781 -0.0077 -0.1481
 1789WN      WN11893   0.620  11.051   2.805  0.2799 -0.0016 -0.3537
 1790WN      WN11894   0.971   0.497   4.070  0.0569  0.2765 -0.1244
 1791WN      WN11895   9.613   7.457  12.542 -0.2361  0.2282  0.1352
 1792WN      WN11896   9.626   1.577  11.896 -0.0907 -0.1254 -0.0106
 1793WN      WN11897   5.287   2.725   9.536 -0.3920  0.0650 -0.0643
 1794WN      WN11898   7.708   6.209   3.124  0.1356 -0.0304 -0.0348
 1795WN      WN11899  15.420   1.348  11.434  0.3461 -0.0149  0.1260
 1796WN      WN11900   5.266  10.052   2.520 -0.2783  0.1890 -0.0558
 1797WN      WN11901   7.882  12.537   0.928  0.2023 -0.0720 -0.0633
 1798WN      WN11902  14.801   7.761   9.633  0.2551  0.2095 -0.1461
 1799WN      WN11903  12.704  13.247   0.322  0.1947  0.0658 -0.2493
 1800WN      WN11904  10.164  11.171  10.043  0.1906  0.1415  0.2060
 1801WN      WN11905   4.267   1.929  11.830  0.0052 -0.0043  0.0213
 1802WN      WN11906   9.296  13.953   1.652  0.0804 -0.2494  0.0559
 1803WN      WN11907   0.278  10.265   3.009  0.2451 -0.0758 -0.0214
 1804WN      WN11908  15.568  13.052  11.091  0.1923  0.1161  0.1602
 1805WN      WN11909  14.055   9.854  11.568  0.2291 -0.0156 -0.2602
 1806WN      WN11910   3.639   6.938  12.343  0.0442  0.1716 -0.1366
 1807WN      WN11911   0.364  14.507   3.151  0.1265 -0.0765  0.1132
 1808WN      WN11912  14.555   1.893   0.367  0.2506 -0.1712  0.1495
 1809WN      WN11913   2.173  12.899   2.158  0.0686 -0.0741 -0.2085
 1810WN      WN11914  12.676   4.003  13.464 -0.0152  0.2823  0.0516
 1811WN      WN11915  15.199  13.758  10.532 -0.0216  0.0351  0.1568
 1812WN      WN11916   9.189  10.741  13.709  0.1226 -0.2504 -0.1373
 1813WN      WN11917   6.212   5.072   0.795  0.0807 -0.0363 -0.0454
 1814WN      WN11918   1.439  12.420  13.302 -0.2639 -0.0486  0.3860
 1815WN      WN11919   4.699   3.078  10.260  0.0279 -0.2280 -0.0047
 1816WN      WN11920   5.188  12.732  11.400 -0.1818  0.0338 -0.0133
 1817WN      WN11921   0.848   3.584  11.674 -0.0087  0.1132  0.0785
 1818WN      WN11922   0.813   3.214  12.067 -0.4058 -0.0714 -0.2792
 1819WN      WN11923  14.994   3.483  10.966  0.1065  0.1281  0.0618
 1820WN      WN11924   7.018   2.290  11.784  0.1067  0.0239 -0.1297
 1821WN      WN11925   6.487   6.572   3.195 -0.1184 -0.1234 -0.3833
 1822WN      WN11926   6.915   0.788  11.030 -0.0434  0.2649  0.4017
 1823WN      WN11927   9.350   2.783   2.207 -0.1365  0.2531  0.0829
 1824WN      WN11928   3.129   1.965  11.414 -0.2992 -0.2304  0.1344
 1825WN      WN11929  13.988   9.616   4.213 -0.1458  0.1783  0.2130
 1826WN      WN11930  13.132   6.874   1.029  0.2535 -0.0020 -0.1120
 1827WN      WN11931   4.768   2.891   1.852  0.2287 -0.1072  0.0248
 1828WN      WN11932   8.633   8.279  12.563  0.1454  0.2794  0.0848
 1829WN      WN11933  10.569   5.035  13.367 -0.0866  0.0051  0.3662
 1830WN      WN11934  12.597   5.110  13.375  0.2763 -0.1403  0.0958
 1831WN      WN11935   4.812  11.541   4.443  0.1291  0.1917  0.3206
 1832WN      WN11936   6.728  14.632   1.768 -0.2677  0.0300  0.1166
 1833WN      WN11937   0.978   6.705   4.392 -0.0638  0.0184  0.0573
 1834WN      WN11938   3.538   6.893   8.512  0.0428  0.1614 -0.0742
 1835WN      WN11939  13.523   0.361   3.374 -0.2258  0.0326 -0.1317
 1836WN      WN11940   8.162  10.056   2.409  0.1439 -0.0001 -0.2123
 1837WN      WN11941  12.221   6.237  13.763  0.0817 -0.0538 -0.1804
 1838WN      WN11942   4.203  15.261   2.378 -0.1183  0.1330  0.0011
 1839WN      WN11943   8.473   6.554   3.330 -0.1820  0.0590 -0.0804
 1840WN      WN11944  14.272   9.309   5.085 -0.0277  0.1280  0.1765
 1841WN      WN11945  13.094  12.553   9.657  0.1779  0.2035 -0.2725
 1842WN      WN11946   6.653   8.375  11.329 -0.0201  0.0764  0.0165
 1843WN      WN11947   4.726   7.157  13.445 -0.0883 -0.0223  0.2514
 1844WN      WN11948   4.946  10.858  12.775 -0.2688  0.0287 -0.4472
 1845WN      WN11949  12.755   4.827  12.191  0.2735 -0.4300  0.0895
 1846WN      WN11950  12.949   4.537  11.261  0.3730 -0.0433 -0.2069
 1847WN      WN11951  13.454   7.366   5.046 -0.2119 -0.2783 -0.1258
 1848WN      WN11952   2.082  15.214   9.679 -0.1268  0.0808 -0.1168
 1849WN      WN11953  11.877  10.498   5.683 -0.2820  0.0450 -0.0082
 1850WN      WN11954  14.460   7.426  13.176  0.0299  0.0312 -0.0974
 1851WN      WN11955   3.765  12.096   0.836 -0.1840 -0.2864 -0.1744
 1852WN      WN11956   6.141   4.539   0.934 -0.0108  0.0372 -0.2487
 1853WN      WN11957  13.667   1.414  11.302 -0.2589 -0.0215  0.0958
 1854WN      WN11958  14.548  13.142   2.737 -0.2053 -0.2089 -0.1167
 1855WN      WN11959  10.698   9.388  12.451 -0.3831 -0.0820  0.4306
 1856WN      WN11960   6.468  13.761  13.035  0.1268 -0.1441 -0.1059
 1857WN      WN11961   9.346   0.456  13.751 -0.1744 -0.4320  0.2162
 1858WN      WN11962  10.665  13.863  11.114 -0.1480 -0.1209  0.0345
 1859WN      WN11963   7.706   9.826   3.793  0.1155  0.1860  0.1013
 1860WN      WN11964  11.631  10.140   5.407  0.1223 -0.3395 -0.0592
 1861WN      WN11965   5.173   5.357   1.858 -0.1314  0.0702 -0.0080
 1862WN      WN11966  14.821   4.505   2.929 -0.0063  0.1100  0.2001
 1863WN      WN11967   2.075   0.189   8.554  0.1687  0.1802 -0.1031
 1864WN      WN11968  14.937   9.376  10.059  0.0946 -0.2259  0.3577
 1865WN      WN11969  10.322   2.193   1.645 -0.1367  0.1035 -0.0773
 1866WN      WN11970   3.258   4.192   1.149  0.0300  0.0125  0.1552
 1867WN      WN11971   1.360  11.053  12.971  0.2746 -0.0110 -0.1955
 1868WN      WN11972   8.215   8.045   1.371 -0.1575  0.2693  0.1355
 1869WN      WN11973   1.580   7.532   0.038  0.1071 -0.4315  0.3154
 1870WN      WN11974  10.696   8.914   0.336 -0.1181  0.0891 -0.4401
 1871WN      WN11975   7.382   2.339  13.490 -0.0973 -0.1731  0.0975
 1872WN      WN11976   9.785  12.193  11.556  0.1210  0.1092 -0.0216
 1873WN      WN11977   8.199  13.126   3.807 -0.0503 -0.1509  0.3682
 1874WN      WN11978   5.069  13.361   4.651 -0.0360 -0.0221  0.3102
 1875WN      WN11979   4.715   3.510  11.181  0.0211 -0.0396 -0.0554
 1876WN      WN11980   9.095  14.414   0.208 -0.2690 -0.2198 -0.0859
 1877WN      WN11981   6.671  13.133  11.216  0.0040 -0.1688 -0.2287
 1878WN      WN11982   5.694   5.139   3.207  0.0697  0.2577  0.0106
 1879WN      WN11983   5.058   5.941   2.023 -0.0200  0.0839 -0.0678
 1880WN      WN11984   6.280  11.695  11.437 -0.1670 -0.0612  0.1072
 1881WN      WN11985  11.176   8.209   1.654 -0.1217  0.1972  0.0348
 1882WN      WN11986  14.514  14.016  10.355  0.0194 -0.1297  0.1000
 1883WN      WN11987   1.133   9.594  10.740  0.3183 -0.2549 -0.0381
 1884WN      WN11988   9.883  14.385   3.569 -0.1195  0.1792 -0.2758
 1885WN      WN11989  13.885  15.641  12.553 -0.1895 -0.1522  0.1307
 1886WN      WN11990   2.677   1.501   8.107  0.0023  0.1075 -0.4447
 1887WN      WN11991   6.041   6.883  11.202  0.1920  0.2779 -0.0321
 1888WN      WN11992  13.912   0.258  12.146 -0.0544  0.1081 -0.1008
 1889WN      WN11993  13.468   4.501  13.057 -0.0374  0.1176 -0.0141
 1890WN      WN11994  10.310   0.052   2.671 -0.2442 -0.0010 -0.3641
 1891WN      WN11995   5.786   8.130   1.866  0.0379  0.0045 -0.2953
 1892WN      WN11996   7.554   2.123   9.156 -0.0164  0.2274 -0.0651
 1893WN      WN11997   0.142   1.885  12.505  0.0645  0.1446  0.0676
 1894WN      WN11998   0.740  13.020   1.044 -0.3053  0.0840  0.0725
 1895WN      WN11999   7.381   2.162   3.086 -0.1055 -0.0611 -0.0422
 1896WN      WN12000   8.869  14.042  11.566 -0.1341  0.2130 -0.0463
 1897WN      WN12001  12.023  12.384   3.391 -0.1223 -0.1986  0.0225
 1898WN      WN12002   3.007   1.935  10.586  0.1609  0.0315 -0.0584
 1899WN      WN12003   9.046  15.177  11.850 -0.2751  0.3695  0.0920
 1900WN      WN12004   2.524   5.366  10.867 -0.2320 -0.1361 -0.0598
 1901WN      WN12005   8.453  13.026   4.293  0.0259 -0.1084  0.2932
 1902WN      WN12006  10.707   1.236  11.638 -0.0259 -0.0636  0.2018
 1903WN      WN12007   5.695  12.691   0.750 -0.1488  0.5868  0.2303
 1904WN      WN12008   8.240   7.307  11.367 -0.2384  0.0579 -0.1253
 1905WN      WN12009  15.333   4.206   2.337  0.0076 -0.1734 -0.0500
 1906WN      WN12010  12.854  10.371   2.477 -0.1166 -0.3175  0.0772
 1907WN      WN12011   2.214  11.366  13.186  0.1122  0.0856 -0.1546
 1908WN      WN12012   7.343  14.003   9.784  0.5521  0.2499 -0.2377
 1909WN      WN12013   5.278   0.786   2.673  0.0597  0.0276 -0.0960
 1910WN      WN12014   5.011   9.767  11.177  0.2715  0.0532  0.1582
 1911WN      WN12015  11.007   0.343  10.170  0.1365  0.0421  0.3995
 1912WN      WN12016   8.535   9.242  11.288  0.2707  0.2858  0.1375
 1913WN      WN12017   7.705   9.412   3.113 -0.1297  0.0022 -0.1516
 1914WN      WN12018   6.935   4.748   7.751  0.1210 -0.0295 -0.2715
 1915WN      WN12019  10.425  10.151  11.064 -0.3927  0.1458  0.0170
 1916WN      WN12020   7.334   9.582   4.545  0.0626 -0.1309 -0.1831
 1917WN      WN12021  14.793   4.293  10.578  0.0780 -0.1275 -0.1256
 1918WN      WN12022   2.291  10.365  13.102 -0.2681 -0.0154  0.2208
 1919WN      WN12023  11.262  13.971  13.652  0.2326  0.1023 -0.1058
 1920WN      WN12024   3.072  12.852  12.228  0.0861  0.3732 -0.3425
 1921WN      WN12025   0.512   1.302   1.490 -0.0771 -0.2262  0.1561
 1922WN      WN12026  11.126  11.149   4.439 -0.0792 -0.0985 -0.0768
 1923WN      WN12027   1.930  14.933   0.535 -0.1138  0.2309 -0.0807
 1924WN      WN12028   6.357   0.190   0.179 -0.1958  0.4494 -0.3314
 1925WN      WN12029  11.933   8.372  10.369  0.0360 -0.0101  0.3155
 1926WN      WN12030  13.447   0.807   3.551  0.0186 -0.0678  0.0068
 1927WN      WN12031  14.469   9.127   0.760  0.0344 -0.0307 -0.1852
 1928WN      WN12032  13.338   9.466   4.616 -0.1990  0.1945 -0.1409
 1929WN      WN12033   0.926  10.516  12.742  0.0799 -0.1254  0.0302
 1930WN      WN12034   6.015   5.266  11.819 -0.2969  0.1016 -0.3598
 1931WN      WN12035  12.875  12.269   2.375 -0.0325 -0.0098 -0.0202
 1932WN      WN12036   9.475   8.446   4.296 -0.0507 -0.3134 -0.0106
 1933WN      WN12037   9.993   0.134   1.657  0.0676 -0.0460 -0.0470
 1934WN      WN12038   3.918   1.509  11.626  0.0497  0.0898 -0.0727
 1935WN      WN12039  12.838   1.322  11.066  0.3310  0.0748  0.0303
 1936WN      WN12040  12.820   9.513   0.847  0.0358 -0.0882 -0.3051
 1937WN      WN12041  10.252   7.455  11.391 -0.0765  0.0092  0.0353
 1938WN      WN12042   2.527   7.651   2.530  0.2859 -0.2921 -0.1932
 1939WN      WN12043   2.995  14.254   3.846 -0.2779 -0.1732 -0.1860
 1940WN      WN12044   7.078   8.423   9.623  0.3860 -0.0555 -0.1296
 1941WN      WN12045   4.185  12.156  10.545  0.2084  0.0997 -0.0757
 1942WN      WN12046  14.832   1.330   1.378 -0.1151  0.0300 -0.1646
 1943WN      WN12047  11.463   7.204   1.614  0.1021  0.1655  0.2784
 1944WN      WN12048   2.501  14.941  13.215 -0.1258  0.3950 -0.0133
 1945WN      WN12049   4.880   8.913   2.797  0.0369 -0.2950 -0.1937
 1946WN      WN12050  13.247   9.326   2.245 -0.0027  0.0072 -0.0735
 1947WN      WN12051   4.349   3.054  11.097  0.0666 -0.2339  0.1725
 1948WN      WN12052  10.737  12.445   2.280  0.0423  0.1191  0.0100
 1949WN      WN12053   2.237   4.518  10.133  0.0280 -0.2263 -0.0844
 1950WN      WN12054   4.105  12.845   1.771  0.1269  0.1392 -0.3055
 1951WN      WN12055   4.840   0.979  10.265 -0.2797  0.2256  0.3405
 1952WN      WN12056  14.831   6.633  11.961 -0.1412 -0.1233  0.1470
 1953WN      WN12057  14.161  14.404  10.640  0.1649 -0.2460 -0.1218
 1954WN      WN12058  11.914   7.206   4.418 -0.1229 -0.0083  0.1024
 1955WN      WN12059   7.714  10.815   2.029 -0.2406 -0.0589  0.0620
 1956WN      WN12060   2.626   4.213   3.945  0.1231 -0.2844  0.1429
 1957WN      WN12061   3.489   6.864   3.409 -0.0103 -0.0339 -0.1063
 1958WN      WN12062   3.738  14.863   0.872  0.2100 -0.2290 -0.0975
 1959WN      WN12063  14.895   2.258   0.325 -0.1762  0.0657  0.3110
 1960WN      WN12064   2.919   1.155   2.305  0.0057  0.2711 -0.0261
 1961WN      WN12065   3.806   4.755   9.952  0.2103  0.3855  0.1794
 1962WN      WN12066   9.737  15.648  10.259  0.0181  0.2694 -0.1408
 1963WN      WN12067  12.469  13.263  10.645 -0.0158 -0.2131 -0.2924
 1964WN      WN12068   8.281  12.093  11.990  0.2969  0.2830 -0.1608
 1965WN      WN12069   4.990   7.973   8.568 -0.0063 -0.3774 -0.2032
 1966WN      WN12070  11.210  13.177   0.908  0.0113 -0.3283 -0.1040
 1967WN      WN12071   4.191   6.640   8.409  0.2331  0.0373 -0.0647
 1968WN      WN12072  14.293   5.458   4.626  0.0157 -0.0747 -0.2175
 1969WN      WN12073   5.498  15.679  13.444 -0.0529 -0.0498 -0.0071
 1970WN      WN12074  14.467   9.561   4.111  0.0781  0.0630 -0.0479
 1971WN      WN12075  13.509   8.023  12.263  0.0336  0.0902  0.1109
 1972WN      WN12076   1.623  13.763  12.509  0.1415 -0.0968  0.1181
 1973WN      WN12077  14.564   3.260   4.007  0.1419 -0.2423 -0.2458
 1974WN      WN12078   9.827   3.258   9.953  0.0303  0.0616 -0.0894
 1975WN      WN12079   9.322   9.758   4.777  0.1254 -0.0751 -0.1123
 1976WN      WN12080  12.780   2.950   3.246 -0.0321 -0.1024 -0.0758
 1977WN      WN12081   4.838   2.076  11.128  0.4966 -0.0291  0.0496
 1978WN      WN12082  10.503   2.586   9.894 -0.2672  0.3097  0.0650
 1979WN      WN12083   1.239   2.322   3.878  0.1787 -0.1651 -0.0637
 1980WN      WN12084   7.635   4.530  12.818 -0.5275  0.0858  0.0382
 1981WN      WN12085   5.523   7.931   8.360  0.0215 -0.1301  0.3806
 1982WN      WN12086  11.370  12.958  10.447 -0.2537 -0.1024  0.2223
 1983WN      WN12087  14.726  12.755   3.700 -0.0012  0.3473 -0.0785
 1984WN      WN12088   1.942  14.696   9.802 -0.1272 -0.4081  0.2017
 1985WN      WN12089   9.025   6.646   2.733  0.1236 -0.1055  0.0390
 1986WN      WN12090  15.174  14.428   1.730 -0.1160  0.5357  0.1132
 1987WN      WN12091   4.156   7.237   0.617  0.1599  0.1468  0.0693
 1988WN      WN12092   2.629   3.642   9.047  0.2466  0.0313 -0.1036
 1989WN      WN12093   9.942  11.898   1.817  0.1255 -0.0936 -0.2444
 1990WN      WN12094   1.235  13.588   4.719  0.0525 -0.2956  0.3856
 1991WN      WN12095   6.202   1.684   0.496  0.2725 -0.1277  0.2340
 1992WN      WN12096   2.323   1.632   2.362 -0.0928 -0.1084 -0.0984
 1993WN      WN12097  14.168   1.522  11.127  0.1122  0.0918 -0.0971
 1994WN      WN12098   0.482   1.560  12.681 -0.1550  0.1669  0.0694
 1995WN      WN12099   7.952   8.795   2.302 -0.1060  0.1380  0.1386
 1996WN      WN12100   8.707   8.344  11.208  0.2014 -0.0255 -0.1591
 1997WN      WN12101  12.241   5.713  12.295 -0.0142  0.0093 -0.0304
 1998WN      WN12102  12.524   2.319  11.176  0.2461 -0.0150 -0.4286
 1999WN      WN12103   3.252  11.801   2.261  0.0212 -0.1451  0.1876
 2000WN      WN12104  12.458   2.176   3.071  0.2397 -0.0760 -0.1205
 2001WN      WN12105   0.472  13.759  10.570  0.0462  0.4138  0.0225
 2002WN      WN12106  10.096   9.754   5.292  0.3419  0.0750  0.2080
 2003WN      WN12107  15.703   9.679   1.694 -0.0968  0.3774  0.2659
 2004WN      WN12108  15.068   9.244  12.747 -0.1455 -0.1613  0.0037
 2005WN      WN12109   3.464   4.987   3.286  0.1753  0.0108 -0.1815
 2006WN      WN12110   0.672  12.234   1.750  0.4403  0.1820 -0.1679
 2007WN      WN12111   3.386   6.821   9.030 -0.2385  0.1661 -0.0368
 2008WN      WN12112   5.129   8.294   3.846  0.1532  0.1563  0.0483
 2009WN      WN12113   1.326  12.623   2.745  0.0153  0.0065 -0.0995
 2010WN      WN12114   3.356   6.429   8.618  0.4518 -0.3019 -0.2246
 2011WN      WN12115   5.427   9.117  12.633  0.0451 -0.0418 -0.0133
 2012WN      WN12116  15.223   4.762  13.461 -0.0935  0.0539  0.0893
 2013WN      WN12117   9.058  12.901   1.029 -0.1379  0.1411  0.4190
 2014WN      WN12118   9.746  13.204  10.054  0.0704 -0.1371 -0.2641
 2015WN      WN12119   7.509  14.643   9.605 -0.0266  0.3145 -0.3841
 2016WN      WN12120   2.349   3.148   1.177 -0.1203 -0.0939 -0.0317
 2017WN      WN12121  11.029   2.764   0.499  0.0763  0.2157  0.0219
 2018WN      WN12122   0.773  13.947   9.405  0.0384 -0.0880  0.5182
 2019WN      WN12123  13.293   9.713   1.080  0.0882 -0.0902  0.2084
 2020WN      WN12124   9.044  12.943   1.509 -0.1590 -0.2975  0.0106
 2021WN      WN12125  14.369   1.643   0.937  0.2749 -0.2402  0.1399
 2022WN      WN12126   2.345  14.859   9.426  0.1147 -0.4080  0.1992
 2023WN      WN12127   2.000   1.382  12.412  0.0520 -0.0975 -0.0468
 2024WN      WN12128  14.420  13.294  10.985  0.0724 -0.0948  0.0389
 2025WN      WN12129   8.730  14.724   9.865  0.1823 -0.2309 -0.1179
 2026WN      WN12130  12.539  13.814   3.549 -0.1665 -0.2629 -0.0673
 2027WN      WN12131   6.007   3.619  10.251 -0.1721 -0.0145  0.0058
 2028WN      WN12132   9.078   3.551   9.282  0.3372  0.3331 -0.4894
 2029WN      WN12133   0.316   2.202  10.657  0.1927  0.0815  0.2013
 2030WN      WN12134  14.819   2.739  10.660  0.2134 -0.0193  0.0813
 2031WN      WN12135   7.964  10.200   0.317 -0.0054 -0.1483  0.2661
 2032WN      WN12136  15.266  13.938   1.601 -0.1242 -0.1371 -0.1114
 2033WN      WN12137   2.477  14.323  13.500 -0.2336  0.0291 -0.2223
 2034WN      WN12138   2.114  14.342  10.716 -0.3386 -0.2914 -0.2227
 2035WN      WN12139   0.198   6.082   9.836  0.1649 -0.0963  0.2735
 2036WN      WN12140   1.346  10.460  10.303 -0.0833 -0.1013  0.0443
 2037WN      WN12141   7.868   8.315  10.495  0.0225 -0.1420  0.2336
 2038WN      WN12142   4.402   9.120   3.253 -0.3377 -0.0834 -0.1500
 2039WN      WN12143   1.043  13.412   9.236  0.1105 -0.0686 -0.2303
 2040WN      WN12144  14.857   5.034   2.883  0.0352 -0.3248 -0.2602
 2041WN      WN12145  14.165  13.328   4.736 -0.0013 -0.3784 -0.0183
 2042WN      WN12146   5.915  12.942   3.092  0.1377  0.1497 -0.1534
 2043WN      WN12147  12.932  11.213   3.660  0.1573  0.3215  0.0896
 2044WN      WN12148  12.753   7.615   3.343 -0.2642 -0.1805 -0.1943
 2045WN      WN12149  11.934   3.260   0.170  0.2808  0.1217 -0.3743
 2046WN      WN12150   0.012  13.196   9.961  0.0038 -0.2499 -0.1215
 2047WN      WN12151  10.424  11.592  11.365  0.1124  0.1303  0.0298
 2048WN      WN12152   4.668  11.523   3.088 -0.0559 -0.1533  0.0488
 2049WN      WN12153  12.223   0.048   1.054 -0.0121 -0.2765  0.0748
 2050WN      WN12154  15.259  11.597  11.473  0.1053 -0.0908 -0.2341
 2051WN      WN12155  13.174   5.787   0.968 -0.1646 -0.1334  0.1499
 2052WN      WN12156   4.415  13.846   4.032  0.2888 -0.1263 -0.0429
 2053WN      WN12157   6.698  11.653   1.933 -0.3216  0.4835 -0.2655
 2054WN      WN12158  12.134   6.775  13.760 -0.0966 -0.1275 -0.2665
 2055WN      WN12159  10.382   8.403   5.078  0.2735  0.2342 -0.2368
 2056WN      WN12160   7.928   8.342  12.579 -0.0838 -0.2283 -0.0452
 2057WN      WN12161  12.168   2.222  10.345 -0.1935 -0.2623 -0.0112
 2058WN      WN12162   8.408  10.463   0.343 -0.0763  0.2055  0.1123
 2059WN      WN12163  15.043  15.016   0.942  0.2445 -0.5896 -0.1059
 2060WN      WN12164   2.111   4.495   8.252 -0.5768 -0.2727 -0.0369
 2061WN      WN12165   4.606   9.906   0.354 -0.1456  0.0046 -0.1004
 2062WN      WN12166   8.041   5.412   1.274  0.1854 -0.3543  0.0881
 2063WN      WN12167  14.899   2.595  11.416  0.2514 -0.0018 -0.1453
 2064WN      WN12168   4.322   2.937   1.522 -0.1030  0.2616  0.0189
 2065WN      WN12169   4.700   5.414   9.991  0.2538  0.1878 -0.0269
 2066WN      WN12170   7.092   6.707   1.265 -0.2822 -0.2749 -0.0698
 2067WN      WN12171   2.086   3.567   2.872  0.1575 -0.0445 -0.0731
 2068WN      WN12172   5.001  10.091   0.080  0.0485  0.0948 -0.0903
 2069WN      WN12173   0.703   9.068   0.457 -0.0974 -0.0902  0.0090
 2070WN      WN12174  14.000   0.217  10.424  0.3113 -0.0653 -0.1040
 2071WN      WN12175   1.866  14.483  12.363 -0.1625  0.0833 -0.6609
 2072WN      WN12176   5.404  14.241  10.125  0.1020  0.0984 -0.1833
 2073WN      WN12177   5.119   6.929  12.669 -0.4644  0.1789 -0.2682
 2074WN      WN12178   3.696  15.166   0.468  0.0276  0.1935  0.0547
 2075WN      WN12179   8.485   7.359  12.126 -0.0102  0.2245  0.0985
 2076WN      WN12180   3.412   7.883   3.759 -0.0938  0.2576 -0.1432
 2077WN      WN12181   1.217  10.058  10.582  0.1137 -0.1835 -0.2809
 2078WN      WN12182  12.779   9.525   5.004  0.1769 -0.1547  0.1010
 2079WN      WN12183   4.297   5.880   3.317 -0.1249 -0.1311  0.0535
 2080WN      WN12184   2.842  12.227  10.516  0.0662  0.1751 -0.3417
 2081WN      WN12185  11.402   4.998   1.498  0.3342 -0.1346  0.0300
 2082WN      WN12186   2.225  10.127  10.451 -0.0072 -0.2919 -0.1648
 2083WN      WN12187  14.700   4.605   0.478 -0.1777  0.3220  0.1398
 2084WN      WN12188  14.474   2.302  11.420 -0.0133 -0.2151 -0.0733
 2085WN      WN12189  12.834  12.808  10.736  0.1171 -0.2111  0.1373
 2086WN      WN12190  11.018   2.279   0.544  0.3154 -0.1345 -0.1465
 2087WN      WN12191   5.864  11.091   1.744  0.2390  0.0402 -0.1263
 2088WN      WN12192   8.102   7.752  13.706 -0.0875 -0.1601  0.0089
 2089WN      WN12193  15.622  10.082   3.343 -0.0812  0.3200  0.0219
 2090WN      WN12194   1.655   0.212   2.240  0.5307 -0.2492  0.1017
 2091WN      WN12195  13.735   1.833   3.555 -0.2674 -0.2359 -0.1093
 2092WN      WN12196   8.667   1.255  12.066 -0.1002  0.0461 -0.3975
 2093WN      WN12197   8.225   1.552  10.953 -0.0650  0.1472 -0.2163
 2094WN      WN12198   1.628   7.580   3.374 -0.0932  0.3613 -0.3860
 2095WN      WN12199   7.247   5.116   8.055 -0.0424  0.0001  0.1443
 2096WN      WN12200  10.601   1.871  12.201 -0.1116  0.0262  0.1442
 2097WN      WN12201   3.183  14.980  11.160 -0.2910 -0.0825  0.1114
 2098WN      WN12202   5.971   8.677   2.629 -0.3088 -0.0136  0.2148
 2099WN      WN12203  12.650   9.437  13.145 -0.1953 -0.4571 -0.3797
 2100WN      WN12204  13.846   3.142   2.504  0.1935  0.1998  0.3511
 2101WN      WN12205   4.395   7.944   2.706 -0.1900 -0.0725  0.0135
 2102WN      WN12206   5.798  12.172  12.672 -0.1763  0.1810 -0.0563
 2103WN      WN12207  11.563   3.478   2.714 -0.0018  0.0050 -0.1789
 2104WN      WN12208   8.334   2.370   2.136 -0.2171  0.4444 -0.0595
 2105WN      WN12209   8.540   0.257  11.972  0.2652  0.0430 -0.1463
 2106WN      WN12210   5.050  11.120  12.353 -0.1865 -0.0343  0.0466
 2107WN      WN12211  11.929  13.819   0.598 -0.3503  0.0501 -0.0044
 2108WN      WN12212   8.060  11.770  11.130  0.2026  0.1878  0.0314
 2109WN      WN12213   2.591  10.791   9.086 -0.1734  0.0045  0.0378
 2110WN      WN12214   1.486   2.185   4.636 -0.1601  0.2047  0.1948
 2111WN      WN12215   3.993  12.481  12.534  0.0539  0.1605  0.3595
 2112WN      WN12216   8.355  11.412   2.910  0.0372  0.0637  0.1498
 2113WN      WN12217   2.462  13.935  10.729 -0.1031 -0.0739 -0.2498
 2114WN      WN12218   9.359   1.836   0.997  0.0468 -0.2727  0.4105
 2115WN      WN12219  13.036   1.192   2.239  0.0043  0.3225 -0.0671
 2116WN      WN12220   8.814   9.259   2.331  0.0550 -0.1439 -0.0990
 2117WN      WN12221   6.439  12.880  13.482 -0.0293  0.1393 -0.0323
 2118WN      WN12222   9.043   5.604  10.072 -0.3392  0.0310  0.0627
 2119WN      WN12223  14.469  14.249   1.284 -0.0451  0.1553  0.1005
 2120WN      WN12224   5.680   0.410   2.605  0.0018  0.0032  0.0182
 2121WN      WN12225  10.280   9.508  11.568 -0.4169 -0.0228  0.0406
 2122WN      WN12226   6.843   9.423   2.928  0.0972  0.1837 -0.1274
 2123WN      WN12227   1.563   6.456   2.893  0.1114 -0.2177  0.0761
 2124WN      WN12228   1.327   0.232   4.251 -0.0397 -0.0003  0.1790
 2125WN      WN12229   3.359   1.671  11.846  0.0198 -0.0226  0.0134
 2126WN      WN12230   2.844  14.370   4.340 -0.0910  0.3104  0.2988
 2127WN      WN12231  11.663   6.020  11.833  0.0536  0.3129  0.1335
 2128WN      WN12232  14.683   0.122  13.624  0.1751  0.2236  0.4158
 2129WN      WN12233   1.924   8.898   3.384  0.1475  0.1422  0.1685
 2130WN      WN12234   4.850   0.815   2.957 -0.0214 -0.0587 -0.0288
 2131WN      WN12235   9.600   8.007   2.232 -0.1562 -0.1108  0.0798
 2132WN      WN12236   9.909   7.110   3.908 -0.2904  0.1452  0.0253
 2133WN      WN12237   0.739   4.650   1.257 -0.0009  0.0841 -0.1285
 2134WN      WN12238   8.976  11.352  11.843  0.0737 -0.1748 -0.3813
 2135WN      WN12239   2.734   9.902   9.673 -0.0989 -0.1308 -0.0426
 2136WN      WN12240  11.425  11.424  11.766 -0.0977  0.0693 -0.1255
 2137WN      WN12241  13.884  13.360   1.731 -0.0156  0.0793  0.0471
 2138WN      WN12242  12.261   0.245   0.180  0.0526  0.0517  0.2404
 2139WN      WN12243   1.942  10.489  12.771  0.1752 -0.3006 -0.2167
 2140WN      WN12244  14.773  13.954  12.599 -0.1051 -0.1422 -0.1055
 2141WN      WN12245  12.548   9.461  13.756  0.3218  0.1937 -0.2369
 2142WN      WN12246  12.306   7.982   2.651 -0.0271  0.1889  0.4465
 2143WN      WN12247  11.156   0.751   0.429  0.2627  0.4236 -0.1261
 2144WN      WN12248  11.411  11.076  10.480 -0.2118 -0.0599 -0.0074
 2145WN      WN12249  14.316   9.687   1.835 -0.1092  0.1910  0.0944
 2146WN      WN12250  11.620  12.558   5.241  0.0687  0.1661 -0.2218
 2147WN      WN12251   1.390   2.712   9.910  0.2009  0.1379 -0.2534
 2148WN      WN12252  15.620  12.342   9.730 -0.0072  0.2422  0.0682
 2149WN      WN12253  10.835  12.717   0.144 -0.0069 -0.2385  0.0380
 2150WN      WN12254  13.343  10.293   2.800  0.0129 -0.2596  0.0507
 2151WN      WN12255   6.239   9.434   2.903  0.0240  0.0884  0.2169
 2152WN      WN12256   4.088  15.142   1.807  0.0082 -0.0630  0.1368
 2153WN      WN12257  11.496   7.432  11.536  0.1656 -0.0891  0.0916
 2154WN      WN12258  12.355  11.162  11.987 -0.4571  0.0513 -0.0160
 2155WN      WN12259   9.211   1.717   1.458  0.2107 -0.0144 -0.3019
 2156WN      WN12260  10.305   9.198   4.866 -0.1369 -0.0945 -0.1494
 2157WN      WN12261  11.507   7.475   4.565  0.4449  0.1928 -0.1726
 2158WN      WN12262  12.590   9.069   4.520 -0.1533 -0.1859  0.1958
 2159WN      WN12263   4.284   4.397   3.720 -0.0422 -0.1003 -0.0891
 2160WN      WN12264  14.975   1.464  10.071 -0.1937 -0.1883  0.0906
 2161WN      WN12265   0.280  10.848   1.467  0.0765  0.0361  0.1302
 2162WN      WN12266  10.592   3.064  10.264 -0.0151  0.2740 -0.1079
 2163WN      WN12267   9.506   9.570  12.946  0.0702 -0.2946 -0.0774
 2164WN      WN12268   9.382   8.668   2.866  0.1060 -0.0896 -0.0266
 2165WN      WN12269   0.371  10.256  11.723 -0.0872  0.2428 -0.3489
 2166WN      WN12270  15.132  12.320  12.143 -0.0105 -0.0425 -0.0407
 2167WN      WN12271   2.740   8.249   4.270 -0.0704  0.1847  0.2431
 2168WN      WN12272   3.793   4.893   8.586 -0.0021 -0.2011 -0.0639
 2169WN      WN12273   8.386   6.734  13.055  0.0301 -0.0326 -0.4271
 2170WN      WN12274   7.428  11.446   5.171 -0.0219 -0.1519  0.1103
 2171WN      WN12275   4.917   1.853   1.814 -0.1022  0.3085 -0.0789
 2172WN      WN12276   3.525  11.183   0.047 -0.2110  0.0575  0.1438
 2173WN      WN12277  13.580   8.538   2.223 -0.1929  0.0501 -0.0724
 2174WN      WN12278  11.697   6.582   5.171  0.0679  0.0757 -0.0557
 2175WN      WN12279   2.368  15.707  13.067  0.1859  0.0374  0.2417
 2176WN      WN12280   5.345  10.037   0.959  0.0732  0.1677 -0.2381
 2177WN      WN12281  11.692   6.068   0.424 -0.0661 -0.1135 -0.3472
 2178WN      WN12282   2.364  11.727   9.915 -0.0581  0.1012 -0.1994
 2179WN      WN12283  10.337  15.170  13.708 -0.4689 -0.4226  0.0407
 2180WN      WN12284  13.018  11.333   9.797 -0.2509 -0.0920  0.0826
 2181WN      WN12285  10.233   2.101  10.739 -0.0535  0.0393  0.0848
 2182WN      WN12286  15.024   9.933  11.512  0.2246  0.1339  0.2942
 2183WN      WN12287  12.497  10.274   1.375 -0.0857  0.5013  0.1900
 2184WN      WN12288   8.563  12.428  12.236 -0.0357 -0.0150 -0.2175
 2185WN      WN12289  11.880   2.474   4.146 -0.0442 -0.1390 -0.3657
 2186WN      WN12290   8.080  11.019   3.576  0.2532  0.0375  0.3855
 2187WN      WN12291   6.194   4.468   0.379 -0.0828 -0.0388  0.1135
 2188WN      WN12292   1.402   9.252   2.622  0.1267 -0.0966 -0.1152
 2189WN      WN12293   7.885   1.377   9.728  0.0515 -0.3526  0.0124
 2190WN      WN12294  12.356  12.586   9.666  0.0186  0.0668 -0.0052
 2191WN      WN12295  11.012   0.186  11.771  0.3901 -0.3558  0.0080
 2192WN      WN12296  11.631   5.458   4.300  0.0116  0.2975 -0.1819
 2193WN      WN12297   1.708  15.041   0.941  0.0292 -0.1477 -0.0069
 2194WN      WN12298   0.264  13.694  10.075 -0.0704  0.3846 -0.1773
 2195WN      WN12299   9.703   6.876  11.749 -0.0884 -0.0687 -0.1266
 2196WN      WN12300   4.269   6.372   0.029 -0.0247  0.0596  0.0883
 2197WN      WN12301   8.308   8.544  10.800 -0.0222  0.0694 -0.1295
 2198WN      WN12302   2.597  12.157   3.444 -0.1491  0.1307 -0.2585
 2199WN      WN12303  11.833  12.775   9.662 -0.0925  0.0166  0.0691
 2200WN      WN12304  10.720  13.905   2.903  0.1424 -0.2102  0.0338
 2201WN      WN12305   5.740  10.466   3.331 -0.1268  0.1095 -0.5300
 2202WN      WN12306   4.238  14.966   1.243  0.0882 -0.3530 -0.1999
 2203WN      WN12307   2.328   5.701   0.604 -0.1330  0.0452  0.2390
 2204WN      WN12308  13.561  13.753   4.113  0.0532 -0.2153  0.3134
 2205WN      WN12309  14.316  10.038   3.969  0.0912 -0.0471 -0.2808
 2206WN      WN12310   8.181   4.547   8.652 -0.0050 -0.2532 -0.0942
 2207WN      WN12311   7.830   3.097   9.114 -0.2154  0.2585  0.1288
 2208WN      WN12312   2.931   9.347  13.757  0.3950  0.0865  0.0033
 2209WN      WN12313   3.577   4.542   1.268  0.0449  0.0641 -0.0403
 2210WN      WN12314  13.971  14.422  11.476  0.0917  0.0420  0.2352
 2211WN      WN12315   5.784  11.345   0.490 -0.0266 -0.3022 -0.1712
 2212WN      WN12316  10.335   3.360   9.855 -0.3078 -0.1300 -0.0820
 2213WN      WN12317   9.987   9.359   2.733  0.3219  0.0986 -0.0771
 2214WN      WN12318   4.795   7.155   2.783  0.1377 -0.0571 -0.1677
 2215WN      WN12319  14.262   6.518  11.985  0.0677  0.3127 -0.0796
 2216WN      WN12320   7.552   8.742   2.634  0.1462 -0.1787 -0.1701
 2217WN      WN12321  13.374   0.648   0.815  0.0696 -0.0621 -0.0867
 2218WN      WN12322   1.708   1.799   2.145  0.0267 -0.2723  0.1333
 2219WN      WN12323   6.331   4.556   2.619  0.3848  0.1828 -0.2330
 2220WN      WN12324   2.033  12.050  12.485  0.2245  0.0501 -0.0775
 2221WN      WN12325   0.750  10.975   1.673  0.2942 -0.1635 -0.0636
 2222WN      WN12326   1.859   8.150   4.599 -0.0113  0.0487  0.0660
 2223WN      WN12327  11.049   5.894   4.516 -0.0599  0.3505 -0.1029
 2224WN      WN12328   8.420   6.932  10.100 -0.3531 -0.2202  0.0061
 2225WN      WN12329   2.171   9.749   2.831 -0.2770 -0.0904  0.2097
 2226WN      WN12330  10.326  11.924  10.303 -0.0843  0.2137 -0.2125
 2227WN      WN12331   7.907   3.978  11.173 -0.0338 -0.0208 -0.0158
 2228WN      WN12332   6.436  13.419   3.981  0.2222  0.0450 -0.3237
 2229WN      WN12333   6.438  14.380  12.003 -0.2587  0.0480  0.1586
 2230WN      WN12334   9.565   7.082   9.941  0.2433  0.1589 -0.2101
 2231WN      WN12335  15.336  11.356   9.213 -0.2078 -0.0026  0.0798
 2232WN      WN12336   0.837  15.434   1.956  0.1579 -0.2874  0.1274
 2233WN      WN12337  14.718   5.664   0.408 -0.1811 -0.1434 -0.0769
 2234WN      WN12338  14.579  14.299   9.497  0.2469 -0.0112  0.0237
 2235WN      WN12339   1.940  14.245   1.649 -0.2815 -0.1530  0.0412
 2236WN      WN12340  13.242  14.879  12.641  0.1369  0.0711  0.1644
 2237WN      WN12341   1.199   4.713   4.050 -0.1022  0.0367 -0.0436
 2238WN      WN12342   6.890  15.417  13.264 -0.2425  0.1069  0.1782
 2239WN      WN12343   7.195  15.501   8.382  0.2714 -0.0697  0.0459
 2240WN      WN12344  10.414  10.213   3.953 -0.0443 -0.0436 -0.2414
 2241WN      WN12345   5.280   4.227  11.541 -0.2502 -0.3616  0.1505
 2242WN      WN12346   1.635  14.943  11.876 -0.0749  0.0810  0.0936
 2243WN      WN12347   5.502   4.921   9.819 -0.3732  0.1793 -0.0274
 2244WN      WN12348  14.418   8.500   4.483  0.1422 -0.1168 -0.1090
 2245WN      WN12349   8.371   7.332  13.503 -0.3126 -0.3729  0.0965
 2246WN      WN12350   0.807  12.268   2.245 -0.0049  0.1074  0.1057
 2247WN      WN12351   4.348   4.542   9.407  0.1002 -0.1104 -0.1572
 2248WN      WN12352   2.746   7.168   2.697 -0.1711  0.0450 -0.2634
 2249WN      WN12353  15.088   2.396  10.435  0.0545 -0.1361  0.1377
 2250WN      WN12354   4.486   1.243   9.979  0.2326  0.0590  0.0161
 2251WN      WN12355   3.744  13.306   9.955 -0.0878  0.1091  0.1631
 2252WN      WN12356  13.932   8.182   4.083  0.2636  0.1005 -0.0401
 2253WN      WN12357   7.146  14.680  13.658 -0.1234 -0.4673 -0.0673
 2254WN      WN12358   6.021   3.085   9.904  0.1763  0.1375  0.2955
 2255WN      WN12359   1.700   0.911   9.575  0.0212 -0.0621 -0.2904
 2256WN      WN12360   4.108   3.607   8.144 -0.3009  0.0049 -0.0374
 2257WN      WN12361   2.105   4.042   3.840  0.0443  0.0476 -0.0839
 2258WN      WN12362   0.917  12.817  13.433 -0.0063  0.1280 -0.1759
 2259WN      WN12363  14.082   1.130  11.488  0.0661  0.0746  0.1319
 2260WN      WN12364  13.398   6.150  12.792  0.1933 -0.0814  0.0250
 2261WN      WN12365   3.095   8.801  12.926  0.2215  0.2347 -0.0438
 2262WN      WN12366  15.608  12.858   2.679 -0.0722 -0.0014 -0.2632
 2263WN      WN12367   6.781  12.714   2.914 -0.3099  0.0764 -0.3043
 2264WN      WN12368   9.472  15.418   1.485  0.3591  0.0723 -0.3462
 2265WN      WN12369   5.988   1.846   9.192  0.2005  0.2363 -0.2687
 2266WN      WN12370  11.452   1.603   1.075 -0.1030 -0.1205 -0.2639
 2267WN      WN12371   4.186   0.060   0.229  0.0108  0.0905 -0.0601
 2268WN      WN12372  10.622  11.961   3.628  0.1694 -0.2445  0.1523
 2269WN      WN12373   2.879  14.224   0.609  0.3464  0.1155 -0.1100
 2270WN      WN12374   0.856   5.722  12.118  0.1672  0.0963  0.0197
 2271WN      WN12375   7.165  10.155   3.448 -0.0185  0.1485 -0.2927
 2272WN      WN12376  14.247   2.984   4.278  0.1032  0.2952 -0.3633
 2273WN      WN12377  11.797   1.916   1.989 -0.1962 -0.1031  0.0090
 2274WN      WN12378   3.967  12.358   1.592 -0.1520  0.3560 -0.3127
 2275WN      WN12379   9.806   3.238  12.171 -0.0324  0.1852  0.2939
 2276WN      WN12380  10.543   2.374   0.617 -0.0227  0.0410 -0.2172
 2277WN      WN12381   9.446  12.085   1.780  0.0606  0.1011  0.0989
 2278WN      WN12382   0.082  14.879   2.103  0.2053 -0.2319  0.0135
 2279WN      WN12383  14.397   0.310  13.210  0.1058 -0.2234 -0.3093
 2280WN      WN12384  11.418   2.138   2.370 -0.0144 -0.1169 -0.1999
 2281WN      WN12385  11.473   8.458   5.388 -0.0919 -0.0224 -0.2493
 2282WN      WN12386   3.295  15.712   9.217  0.1691  0.2482  0.0933
 2283WN      WN12387   3.970   5.053   9.571  0.1939 -0.0821  0.3304
 2284WN      WN12388   6.296   5.202   2.602 -0.4636 -0.0660  0.3767
 2285WN      WN12389   2.898   0.923  10.097  0.3340  0.0546 -0.0871
 2286WN      WN12390  15.511   0.668  10.016  0.1749  0.1302 -0.1291
 2287WN      WN12391   7.877   6.837  13.048  0.2397  0.1038 -0.2293
 2288WN      WN12392  13.948   4.314  11.698 -0.0075 -0.3004 -0.0812
 2289WN      WN12393   2.451   4.877  10.450  0.2154 -0.0073  0.0555
 2290WN      WN12394   7.940   0.366   2.676 -0.1026 -0.1945 -0.1493
 2291WN      WN12395   6.528   4.415   1.799  0.0905 -0.1587  0.1146
 2292WN      WN12396   5.455   9.420  10.656  0.0138  0.2600 -0.2505
 2293WN      WN12397   0.828  14.402   3.286 -0.0060  0.0062  0.0941
 2294WN      WN12398   3.160   1.271   8.919 -0.0479  0.0717  0.1403
 2295WN      WN12399  14.786   2.626  13.754 -0.1702  0.0345  0.0437
 2296WN      WN12400   7.721   6.195  10.100  0.2146 -0.3810 -0.0349
 2297WN      WN12401   8.455   6.993   0.155 -0.0735 -0.1235 -0.2090
 2298WN      WN12402  14.650   0.693   3.181 -0.2167 -0.1896  0.1405
 2299WN      WN12403   2.323   3.229   3.156  0.0761  0.0042  0.0280
 2300WN      WN12404   7.167   5.618  10.645  0.3747  0.1730 -0.1331
 2301WN      WN12405  10.232   4.041   2.308  0.2317 -0.0014 -0.0094
 2302WN      WN12406   5.303   0.051   9.961 -0.1832 -0.5394 -0.0861
 2303WN      WN12407   7.387   1.837  13.651  0.0049  0.1352 -0.1073
 2304WN      WN12408  11.280  10.288   5.130  0.1534 -0.0431 -0.2278
 2305WN      WN12409   6.303  10.348  11.505  0.1455 -0.2468  0.0483
 2306WN      WN12410   0.252  14.212   1.664 -0.2494  0.2089 -0.2410
 2307WN      WN12411   8.854   8.115   4.110  0.1057  0.0008  0.0249
 2308WN      WN12412   8.576  12.246  12.869 -0.0642 -0.3337 -0.0208
 2309WN      WN12413  15.627   2.132   2.610 -0.3909  0.2297 -0.0917
 2310WN      WN12414  10.786  11.596  12.171 -0.1622  0.1067  0.3296
 2311WN      WN12415   8.730   4.287   2.442  0.0174 -0.2140 -0.2084
 2312WN      WN12416   6.823   9.941   9.644 -0.0578  0.2527 -0.0631
 2313WN      WN12417   8.738   5.028   0.225 -0.1214 -0.1690  0.0902
 2314WN      WN12418   0.589   5.268   9.239 -0.0773  0.1279 -0.0423
 2315WN      WN12419   8.429   3.850  11.205 -0.0360 -0.2553  0.0340
 2316WN      WN12420  11.416   7.798  13.320  0.0038  0.3198 -0.2423
 2317WN      WN12421   0.677   7.754   2.159  0.1362 -0.0137 -0.1001
 2318WN      WN12422   3.008  10.631   3.910 -0.2554  0.1829  0.2296
 2319WN      WN12423   4.725   7.492   8.628 -0.0422 -0.1551  0.1117
 2320WN      WN12424  12.931  15.253   4.283  0.1249 -0.0033  0.0109
 2321WN      WN12425   9.651   3.779  10.852  0.1267  0.1157 -0.2600
 2322WN      WN12426   8.966  12.876   9.852 -0.4613 -0.0232  0.3067
 2323WN      WN12427  11.154   6.865   1.868  0.1401 -0.1236  0.2167
 2324WN      WN12428   1.287   3.106  12.004  0.1266 -0.0066 -0.0780
 2325WN      WN12429   4.335  14.763   2.563 -0.1262 -0.0929 -0.1767
 2326WN      WN12430  15.095  11.148  12.396 -0.0926  0.2116  0.0643
 2327WN      WN12431  13.916  13.735  12.373  0.0365  0.0187  0.2341
 2328WN      WN12432  15.148   9.055  11.780 -0.4770  0.0746  0.2732
 2329WN      WN12433  15.241   6.189   0.974 -0.1725  0.1157  0.3996
 2330WN      WN12434  14.074   6.161   1.676  0.0858 -0.1194  0.0311
 2331WN      WN12435  14.964   7.558  12.333  0.1087 -0.4097 -0.2090
 2332WN      WN12436  15.251   8.795  12.698 -0.2815  0.0237 -0.0603
 2333WN      WN12437   0.638  12.870   2.968 -0.1079  0.2562  0.1701
 2334WN      WN12438   6.873   4.522   9.683 -0.1704 -0.1798  0.1891
 2335WN      WN12439  10.841   0.105   2.732 -0.1847 -0.0368 -0.1339
 2336WN      WN12440   1.557   8.745   2.507 -0.4246  0.1214 -0.3531
 2337WN      WN12441  14.328  14.756   1.413 -0.0465 -0.1073 -0.0990
 2338WN      WN12442   4.778   0.324   1.521  0.0376 -0.1310  0.1103
 2339WN      WN12443   5.315   2.877   8.527 -0.1160  0.0741 -0.0378
 2340WN      WN12444   2.819   3.746   0.726  0.1909 -0.2982  0.3372
 2341WN      WN12445  10.823  15.204   9.592 -0.1066  0.4013 -0.0271
 2342WN      WN12446  10.051   7.392   1.732 -0.1622 -0.1039  0.2540
 2343WN      WN12447   2.665   2.484   0.281  0.1743 -0.0298  0.1442
 2344WN      WN12448  14.766   0.937   0.997 -0.3602  0.0184  0.2232
 2345WN      WN12449   8.654   5.684  10.663 -0.0825 -0.0108  0.2887
 2346WN      WN12450   0.307   4.261   4.327 -0.1017 -0.0335  0.3221
 2347WN      WN12451   9.632  11.614   2.195  0.0555 -0.0127 -0.2021
 2348WN      WN12452   8.842   7.595   3.688 -0.2000  0.1287  0.0521
 2349WN      WN12453   5.221   1.742   0.075  0.0159  0.0601 -0.0670
 2350WN      WN12454  14.691  11.203  11.944  0.3151  0.0600 -0.0373
 2351WN      WN12455  10.921   5.271   2.250  0.3715  0.1035  0.0854
 2352WN      WN12456   8.378   0.069  13.348 -0.2896  0.0343 -0.2760
 2353WN      WN12457   2.468   5.980   3.242  0.1594 -0.1999  0.0058
 2354PP      PP12458  13.505   5.336  13.131 -0.4738 -0.1659 -0.1259
 2355PP      PP12459  13.628   7.526  12.865 -0.0141 -0.0326 -0.1423
 2356PP      PP12460  10.555  11.394  10.786  0.2224 -0.3677 -0.1931
 2357PP      PP12461   5.842  13.660   1.668 -0.2689  0.1407  0.0818
 2358PP      PP12462   1.104   0.282   0.100 -0.1150 -0.0073 -0.1099
 2359PP      PP12463  15.464   7.468   9.973  0.1697  0.0348 -0.0937
 2360PP      PP12464   7.674   2.993  11.435 -0.0342  0.3423 -0.1223
 2361PP      PP12465  11.618   4.346   3.137  0.0781  0.0054  0.0183
 2362PP      PP12466   6.823  12.309   9.749  0.0762 -0.0858  0.3527
 2363PP      PP12467  11.192  14.744   1.203 -0.3804 -0.4008 -0.2636
 2364PP      PP12468   2.317   9.273  13.418 -0.0033  0.0936 -0.0485
 2365PP      PP12469  14.392   8.097   1.338 -0.1461 -0.0277  0.3786
 2366PP      PP12470  10.327  14.347   1.573  0.2312  0.4403 -0.0019
 2367PP      PP12471   3.825   7.051   2.529 -0.3082 -0.3357  0.3294
 2368PP      PP12472   5.406   2.449   2.134 -0.1196  0.1485 -0.1563
 2369PP      PP12473   2.701   9.600  13.241 -0.2952  0.2244  0.0274
 2370PP      PP12474   4.604  11.383  12.353  0.1571 -0.2682  0.4244
 2371PP      PP12475  14.156  14.888  10.288  0.1962 -0.1960  0.2416
 2372PP      PP12476  12.960  13.961   9.396 -0.0821 -0.4602  0.1765
 2373PP      PP12477   8.130   2.348   1.418  0.3628  0.2908 -0.3854
 2374PP      PP12478   5.763   8.916  10.562 -0.0549  0.1974  0.1992
 2375PP      PP12479   0.728  15.610  13.249 -0.0290 -0.1311 -0.2628
 2376PP      PP12480   0.703   3.970  13.289 -0.2849  0.1139 -0.1219
 2377PP      PP12481   4.140  14.319   0.231 -0.1783 -0.2017 -0.0118
 2378PP      PP12482   0.066   0.316   1.771 -0.0066  0.3719  0.0953
 2379PP      PP12483   5.999   0.068   2.397 -0.1388  0.1149  0.3881
 2380PP      PP12484   3.887   1.767  10.168  0.1558 -0.1122 -0.2360
 2381PP      PP12485   5.916  15.551   8.951 -0.0212  0.4289  0.0237
 2382PP      PP12486  15.560  11.027   9.690  0.4046 -0.2070 -0.4955
 2383PP      PP12487   0.712   1.035   0.694  0.0745  0.2293  0.2944
 2384PP      PP12488  13.651  15.684   4.489  0.1331 -0.1448  0.0625
 2385PP      PP12489  10.270   7.365   0.881  0.1487  0.1199  0.0749
 2386PP      PP12490   5.644   4.327   9.906 -0.1904  0.1268  0.4189
 2387PP      PP12491   8.715   7.075   2.703 -0.1118  0.2124  0.2835
 2388PP      PP12492  14.039  13.888  10.279  0.1385 -0.1753  0.0983
 2389PP      PP12493   7.548  11.329   9.438 -0.1712 -0.0678  0.0784
 2390PP      PP12494  15.660  13.141  11.917 -0.1522 -0.2397 -0.0891
 2391PP      PP12495   0.280   3.985   1.218 -0.0064  0.1980 -0.2797
 2392PP      PP12496  11.917   2.808  11.522  0.0497  0.0011  0.0766
 2393PP      PP12497   7.660   8.703   3.419 -0.1363  0.2795  0.1395
 2394PP      PP12498   6.386   8.882   2.353 -0.0573  0.0617 -0.0799
 2395PP      PP12499  14.721  14.239   1.718 -0.2683  0.3360  0.1991
 2396PP      PP12500  13.089   3.915   3.097  0.0058 -0.0218 -0.0590
 2397PP      PP12501   4.105   6.223   0.462  0.2319 -0.0267  0.3790
 2398PP      PP12502  12.507  14.815   3.417 -0.1025  0.0646 -0.0353
 2399PP      PP12503   7.950   1.414   7.787  0.0179 -0.1091 -0.2282
 2400PP      PP12504  11.991  12.378   9.915  0.2311  0.0020 -0.0390
 2401PP      PP12505  11.875   1.499   1.422  0.0211 -0.1974 -0.0732
 2402PP      PP12506   8.466  15.327  13.614 -0.1153  0.2667  0.1096
 2403PP      PP12507   7.996  13.915   1.547 -0.0128 -0.1499  0.3620
 2404PP      PP12508  11.097   6.398   2.781  0.1213 -0.1946  0.0843
 2405PP      PP12509  13.411  10.802   1.371  0.1634  0.0423 -0.2157
 2406PP      PP12510  15.536  14.840   9.880 -0.1884  0.3451 -0.0075
 2407PP      PP12511  14.379   0.926   9.886  0.2049 -0.0030  0.0428
 2408PP      PP12512   9.528  15.177  11.400 -0.0752  0.0350  0.1567
 2409PP      PP12513  10.715  14.087   3.744  0.3253 -0.0857  0.0542
 2410PP      PP12514   8.082  12.008   4.739  0.0054 -0.1021  0.3902
 2411PP      PP12515   1.482   3.594  13.678 -0.2214 -0.1249  0.1784
 2412PP      PP12516   5.329   7.912   3.546 -0.2437 -0.0417 -0.1193
 2413PP      PP12517   3.558   1.048  12.751  0.1682 -0.1579  0.0660
 2414PP      PP12518  12.410   6.849   3.624  0.0890  0.1567  0.0582
 2415PP      PP12519   3.518   4.654  11.734 -0.0403 -0.3264  0.1626
 2416PP      PP12520   2.167   2.553   4.022  0.0168  0.1207 -0.0692
 2417PP      PP12521   9.297  12.416   4.540  0.1473  0.0693 -0.1739
 2418PP      PP12522   4.313  14.239   3.294 -0.3411 -0.2840  0.2724
 2419PP      PP12523   0.697  10.182   3.956  0.1115  0.0662  0.2489
 2420PP      PP12524  10.599   3.266  11.730 -0.1289  0.0169  0.0429
 2421PP      PP12525   7.136  13.598   1.987 -0.0350  0.2701 -0.0183
 2422PP      PP12526  14.299   3.516   9.178  0.4320  0.3823 -0.2743
 2423PP      PP12527   3.543   7.476   2.572  0.0711  0.1769  0.0803
 2424PP      PP12528   9.093   0.443  10.868  0.2286 -0.0448 -0.3564
 2425PP      PP12529  15.221  12.467   9.342  0.0426 -0.0600 -0.0808
 2426PP      PP12530  15.472   9.513   3.344  0.2243  0.1722 -0.2593
 2427PP      PP12531   9.062  10.916   1.827  0.0012 -0.0262  0.0361
 2428PP      PP12532   5.626   3.336   9.975 -0.2370 -0.0540  0.0513
 2429PP      PP12533   0.814   3.477   4.335  0.1304 -0.1204 -0.1142
 2430PP      PP12534   0.616   4.976   1.685 -0.0128 -0.0374 -0.0660
 2431PP      PP12535   4.716  13.416  13.158  0.1241 -0.2286  0.1206
 2432PP      PP12536   9.616   3.910   2.284  0.0188 -0.1521 -0.0382
 2433PP      PP12537  13.810   7.411  10.297 -0.1829  0.1532 -0.1471
 2434PP      PP12538  12.805   2.932  11.827  0.2787  0.1008  0.2480
 2435PP      PP12539  12.227  13.958   3.211  0.0017 -0.0388  0.1064
 2436PP      PP12540   3.903   0.667  10.175  0.2910 -0.1779  0.0970
 2437PP      PP12541  15.341  12.780  13.447 -0.2066  0.0287  0.2487
 2438PP      PP12542   0.807  13.160   2.073  0.1944 -0.1593  0.1829
 2439PP      PP12543   8.035   0.696   9.450  0.0325 -0.0434 -0.2255
 2440PP      PP12544   0.119   2.590  10.212  0.2986  0.0035 -0.3186
 2441PP      PP12545   1.401   2.610   0.263 -0.0438  0.0851 -0.3317
 2442PP      PP12546   8.531   8.566  11.876  0.1231  0.1371  0.1079
 2443PP      PP12547   8.578  10.801   0.677  0.0437 -0.0214  0.1542
 2444PP      PP12548  10.819   1.950   4.520  0.0027  0.0932 -0.1991
 2445PP      PP12549   4.349  10.567  13.321  0.1391 -0.3558 -0.2539
 2446PP      PP12550   8.286  10.963   3.001 -0.0173 -0.3377  0.2199
 2447PP      PP12551  12.462   4.940   9.923 -0.1465  0.1862 -0.0408
 2448PP      PP12552  11.490   0.638  10.329  0.1879 -0.0030  0.1522
 2449PP      PP12553   8.434   5.523  10.232  0.2171  0.0523 -0.0117
 2450PP      PP12554   2.261   4.171   1.026 -0.2756 -0.2389  0.1589
 2451PP      PP12555   0.706  13.675   3.672 -0.3317 -0.0460 -0.1224
 2452PP      PP12556   5.051   4.005   2.090  0.0006  0.1163 -0.3574
 2453PP      PP12557  10.861   1.533   1.117 -0.2493  0.3135 -0.5275
 2454PP      PP12558   6.481   9.348   1.916 -0.1956 -0.1537  0.2423
 2455PP      PP12559   5.002   6.859   0.346  0.0548 -0.0726  0.1590
 2456PP      PP12560  11.263   3.151   3.598  0.0487  0.1601 -0.0524
 2457PP      PP12561  10.789   5.044   1.092  0.0660  0.2559 -0.0862
 2458PP      PP12562   1.709   8.087  11.273 -0.0378  0.3722  0.2226
 2459PP      PP12563  15.520   0.202  12.328 -0.0862  0.0719 -0.0694
 2460PP      PP12564  14.537  12.882  11.258 -0.1834 -0.0323 -0.2077
 2461PP      PP12565  14.469  14.710   1.963 -0.0684 -0.1228  0.1440
 2462PP      PP12566  12.341   0.976   4.476 -0.2664 -0.2392 -0.1285
 2463PP      PP12567   5.135   9.617   8.969  0.0412  0.0862 -0.1571
 2464PP      PP12568   9.340   6.360   2.443  0.7965 -0.0426  0.2327
 2465PP      PP12569   5.034  13.452  11.923 -0.0164 -0.1514 -0.0592
 2466PP      PP12570   9.593  14.452   0.084 -0.1069 -0.1471  0.0157
 2467PP      PP12571   8.650   2.400   2.502  0.2203 -0.1723  0.1584
 2468PP      PP12572   6.510   5.611  11.667  0.0672 -0.2158  0.0704
 2469PP      PP12573   3.139  11.189   4.076 -0.0976  0.1146 -0.0647
 2470PP      PP12574  15.137   7.598   3.657 -0.0714 -0.1749  0.0809
 2471PP      PP12575   1.860   1.950   9.152 -0.1341 -0.0808  0.1071
 2472PP      PP12576   8.846   3.233   8.258  0.1356 -0.2974 -0.1490
 2473PP      PP12577   3.426   9.376   0.254  0.1217  0.1838  0.0689
 2474PP      PP12578  13.362   6.496   2.712  0.0250  0.4539  0.2801
 2475PP      PP12579  15.599   3.951   0.165 -0.0935  0.0022  0.0210
 2476PP      PP12580  10.484   5.563  12.677 -0.1319  0.0728  0.0892
 2477PP      PP12581   2.485   9.763  13.652 -0.1755  0.0370 -0.2088
 2478PP      PP12582   1.512   2.116   2.606  0.1388 -0.2311 -0.0518
 2479PP      PP12583   9.557   4.870   3.451  0.0394  0.0949  0.0632
 2480PP      PP12584  11.507  12.791   1.502 -0.1742 -0.1802 -0.1119
 2481PP      PP12585  12.152  15.571   2.257  0.0401  0.1404  0.0525
 2482PP      PP12586   1.842  10.212  10.146 -0.1019  0.2197  0.0722
 2483PP      PP12587   5.479   4.544   3.137  0.5008 -0.1827  0.3719
 2484PP      PP12588   4.714  10.527  12.389 -0.4402 -0.2324  0.1635
 2485PP      PP12589  12.521   0.348   1.380 -0.2808  0.0545  0.1960
 2486PP      PP12590  15.440   9.262   3.775 -0.1100  0.1068 -0.0651
 2487PP      PP12591  12.919   2.037   2.807 -0.0638 -0.0283  0.0977
 2488PP      PP12592   7.712   2.334   0.178 -0.0207  0.3419 -0.0877
 2489PP      PP12593   8.858  13.160   2.007  0.0533  0.0329  0.2006
 2490PP      PP12594   7.023  10.689   0.908  0.2681  0.2450 -0.1094
 2491PP      PP12595   2.159   1.029  10.652 -0.2015  0.0887  0.0137
 2492PP      PP12596  13.356  10.359  10.065  0.0283  0.0684 -0.1378
 2493PP      PP12597  10.758  15.546   2.050 -0.0107 -0.1087  0.0995
 2494PP      PP12598   4.872   5.160   3.470  0.0959 -0.3222 -0.3147
 2495PP      PP12599   8.547  14.639   3.517  0.2602 -0.2268  0.3023
 2496PP      PP12600   7.503   7.750  11.284  0.0996 -0.0955 -0.0827
 2497PP      PP12601   5.778   5.957   9.982 -0.1207  0.1977  0.0047
 2498PP      PP12602  12.083  14.397   0.923  0.0918  0.3065  0.1901
 2499PP      PP12603   2.629   5.265   0.812 -0.0089 -0.5175  0.2355
 2500PP      PP12604   2.321   4.423   2.055 -0.1361 -0.1307 -0.1648
 2501PP      PP12605  10.849   0.159   1.566  0.1150  0.0835 -0.2875
 2502PP      PP12606   4.260  11.632  10.360  0.0728  0.5254 -0.0976
 2503PP      PP12607  15.478  11.802  12.905  0.0723 -0.3034  0.0562
 2504PP      PP12608   1.609  15.595   3.501  0.4208  0.2131  0.1962
 2505PP      PP12609  14.033  11.607   2.378  0.2662 -0.1510 -0.0106
 2506PP      PP12610   3.087   8.187   3.096 -0.0842 -0.2000 -0.2288
 2507PP      PP12611   4.296   4.910  13.578 -0.0018  0.0805 -0.0532
 2508PP      PP12612  15.411   2.944  12.875  0.0368 -0.1812 -0.1047
 2509PP      PP12613  14.799  15.201   0.437 -0.0802 -0.0050 -0.1604
 2510PP      PP12614   4.015  10.927   0.300  0.0321  0.0323 -0.2597
 2511PP      PP12615  10.511   2.386   2.631  0.1310  0.1248 -0.2015
 2512PP      PP12616   2.487   8.745   3.317  0.3386 -0.2528  0.1055
 2513PP      PP12617   3.960   9.478   4.281 -0.0886  0.1389 -0.0520
 2514PP      PP12618   6.947   7.265   2.027  0.1079 -0.1258  0.6735
 2515PP      PP12619   9.445   6.476  13.763  0.0527  0.1861 -0.2210
 2516PP      PP12620   4.358   5.564  10.312 -0.1347 -0.4088 -0.0322
 2517PP      PP12621   0.982   8.628   1.963  0.0751  0.2318 -0.1750
 2518PP      PP12622  10.912   4.282   9.540 -0.3729 -0.0459 -0.0970
 2519PP      PP12623  12.387   0.227   2.518 -0.0645  0.0956 -0.2091
 2520PP      PP12624  13.005   7.457   5.032 -0.1997  0.2757 -0.0950
 2521PP      PP12625  11.871  14.021  10.930  0.2427  0.2499  0.1181
 2522PP      PP12626  14.880   2.243   0.989 -0.0428 -0.1458 -0.0456
 2523PP      PP12627   4.012   1.675   2.978 -0.0313 -0.0322  0.0802
 2524PP      PP12628  12.098   9.859   2.492 -0.2899  0.0022 -0.4214
 2525PP      PP12629   3.327  11.566   3.191 -0.2435 -0.3078  0.1153
 2526PP      PP12630   6.556   2.600   7.976  0.3186 -0.1969 -0.3251
 2527PP      PP12631   6.618   3.407   9.586 -0.2903 -0.1595 -0.1402
 2528PP      PP12632   7.969   7.641   1.006  0.0213 -0.0051 -0.2043
 2529PP      PP12633   7.330  12.399   0.032 -0.0828  0.3115 -0.0762
 2530PP      PP12634  12.177  12.764   4.167  0.2935  0.0674  0.2563
 2531PP      PP12635  15.454   4.333  11.288 -0.1909 -0.0576  0.2054
 2532PP      PP12636  13.349  10.130   4.004  0.2111  0.0438 -0.1951
 2533PP      PP12637   2.073   8.314   4.168  0.1659 -0.2119 -0.0763
 2534PP      PP12638   8.748  11.496   1.655 -0.2249 -0.1171  0.3741
 2535PP      PP12639   9.812   2.965   9.458  0.1417 -0.1476 -0.0911
 2536PP      PP12640   8.189   3.527  10.757 -0.0310  0.1280 -0.2759
 2537PP      PP12641  14.593   3.103  11.325  0.0996 -0.2868  0.0048
 2538PP      PP12642   8.394   8.739  13.262 -0.1770 -0.0514  0.0661
 2539PP      PP12643  15.439  14.786   8.893  0.1088 -0.1928 -0.0750
 2540PP      PP12644  13.260   2.362  11.355  0.1249 -0.0016  0.1465
 2541PP      PP12645  14.318   0.006   8.725 -0.0535 -0.0274 -0.0686
 2542PP      PP12646   8.927   1.349   3.952  0.1567 -0.2180  0.2306
 2543PP      PP12647   4.415  14.677   3.082  0.0227  0.1118 -0.1108
 2544PP      PP12648   4.288   2.803   1.020 -0.0638  0.0706  0.1322
 2545PP      PP12649   3.012   0.221   9.982  0.3680 -0.1767 -0.1325
 2546PP      PP12650  15.347   3.031   9.155 -0.3394  0.0475  0.2858
 2547PP      PP12651   4.491  11.186   4.299 -0.0232 -0.0353 -0.0854
 2548PP      PP12652   2.300   5.917  12.769  0.0134  0.0713  0.0300
 2549PP      PP12653   9.102   7.685   1.333  0.0059  0.2496  0.2439
 2550PP      PP12654   5.245  11.500   3.697 -0.0732 -0.2029  0.2338
 2551PP      PP12655   4.127   7.372  11.622  0.1928  0.3284 -0.4563
 2552PP      PP12656   6.240   1.823  11.690  0.1621  0.2297 -0.1691
 2553PP      PP12657   5.067  13.844   9.128 -0.0626 -0.0538 -0.1921
 2554PP      PP12658   2.143  11.986   3.234 -0.2216  0.0648 -0.0427
 2555PP      PP12659  11.515   7.599   9.694  0.3398  0.1068 -0.2292
 2556PP      PP12660   7.665   0.052  12.780 -0.0423 -0.0822  0.4729
 2557PP      PP12661   9.789   2.329  12.694  0.1553 -0.2397 -0.0075
 2558PP      PP12662  10.690   2.000   0.960  0.1598  0.0052  0.1640
 2559PP      PP12663   4.655  14.700   8.750 -0.2098  0.2426  0.1284
 2560PP      PP12664   9.403   1.380   0.019 -0.1056  0.0642 -0.2293
 2561PP      PP12665   0.620  15.027   9.350 -0.2157 -0.2346  0.0799
 2562PP      PP12666   7.230  11.228  10.751 -0.1907 -0.0966  0.1806
 2563PP      PP12667  13.978   4.919  10.888 -0.1114  0.1412  0.1250
 2564PP      PP12668   4.484   5.229  12.308 -0.1519 -0.1640 -0.0249
 2565PP      PP12669  11.488   9.569   4.238  0.3010  0.2350 -0.0912
 2566PP      PP12670   3.835  10.615  10.374 -0.1464  0.1853  0.0033
 2567PP      PP12671  12.477   4.582  11.835  0.0541 -0.2753  0.1153
 2568PP      PP12672  10.077  10.267  11.523  0.1132 -0.1610  0.0639
 2569PP      PP12673  14.589   6.950   4.141 -0.2137  0.3038  0.0660
 2570PP      PP12674   9.675  14.104   0.927 -0.0718  0.1498 -0.0933
 2571PP      PP12675  13.766   3.392   3.521  0.0629  0.1062 -0.1115
 2572PP      PP12676   6.030   2.264  11.564  0.0127 -0.2297  0.2120
 2573PP      PP12677  13.207   1.643   2.007 -0.0270  0.0463  0.2636
 2574PP      PP12678   1.225  12.336  12.713  0.1469  0.1947  0.1912
 2575PP      PP12679  15.448  10.193   0.706 -0.0917 -0.2559  0.0363
 2576PP      PP12680  14.969   2.763  12.154 -0.2268  0.1385 -0.5110
 2577PP      PP12681  12.834   2.917   0.720 -0.0795  0.2426  0.0404
 2578PP      PP12682   1.751   0.343  12.318  0.3333  0.2925 -0.1160
 2579PP      PP12683  15.720   8.854  10.039 -0.2669 -0.1179  0.2133
 2580PP      PP12684  15.105  10.461  10.099  0.3905  0.0845 -0.1573
 2581PP      PP12685  12.467   0.779   0.170  0.1318  0.0128  0.0399
 2582PP      PP12686   8.790   9.206   0.938 -0.2002 -0.1163 -0.1264
 2583PP      PP12687  12.080   1.085   4.049  0.0482  0.0103  0.1074
 2584PP      PP12688  11.789   6.458   2.234  0.1090  0.0097  0.4010
 2585PP      PP12689   4.017   5.034   1.958 -0.0617  0.2517 -0.1650
 2586PP      PP12690  10.131  10.189   2.685  0.0419 -0.2076  0.2855
 2587PP      PP12691   9.908   1.205  10.597 -0.2700 -0.1392  0.1573
 2588PP      PP12692  10.932   6.623   3.219  0.4924 -0.1320 -0.2327
 2589PP      PP12693  15.491  14.407   8.451 -0.2535 -0.0289  0.0595
 2590PP      PP12694   3.496  14.410   9.840 -0.0031 -0.2168  0.0190
 2591PP      PP12695  12.854   6.419  13.445 -0.2088 -0.2151 -0.1302
 2592PP      PP12696  12.900   6.732  10.907  0.0287 -0.2279  0.2395
 2593PP      PP12697  13.040   2.467   2.483 -0.2631 -0.0872 -0.1437
 2594PP      PP12698   4.743  15.195   8.858 -0.1243  0.0583 -0.0710
 2595PP      PP12699   1.178   6.835   3.650 -0.0030 -0.1876  0.1806
 2596PP      PP12700  11.963   2.419  11.225 -0.2631 -0.0285 -0.1739
 2597PP      PP12701   5.046   3.504   0.331 -0.0570  0.2821 -0.0844
 2598PP      PP12702  12.882  14.790  13.381 -0.2213  0.1829  0.0696
 2599PP      PP12703   2.265   2.541   2.524  0.0803  0.0551  0.1494
 2600PP      PP12704   1.445  13.208  10.705  0.4677  0.1003  0.2514
 2601PP      PP12705  14.414   8.201   0.185 -0.1356  0.2407 -0.2191
 2602PP      PP12706   6.771   2.236   8.375 -0.2899  0.0703 -0.1601
 2603PP      PP12707  15.394  11.167   0.116  0.2479  0.1096  0.0602
 2604PP      PP12708  15.600  14.977  12.234 -0.0757  0.0023  0.0322
 2605PP      PP12709   5.483   0.728  10.920  0.2332 -0.0639  0.0030
 2606PP      PP12710   6.225  13.209  12.679  0.1424  0.0905 -0.0848
 2607PP      PP12711   3.915  14.158   2.333 -0.3093  0.1978  0.2555
 2608PP      PP12712   2.565   9.790  11.349 -0.0764 -0.1323  0.0193
 2609PP      PP12713   6.793  10.163   2.338  0.0079  0.1043  0.4807
 2610PP      PP12714   4.800   2.476   9.653  0.0599 -0.5500  0.1157
 2611PP      PP12715  14.388  12.763  11.728 -0.1725 -0.1668  0.2994
 2612PP      PP12716  14.858   2.304   4.090 -0.2337  0.1122 -0.0925
 2613PP      PP12717   1.216   6.856  10.705  0.2562  0.0990  0.0412
 2614PP      PP12718  10.334   5.930   0.949 -0.2315  0.0763 -0.0975
 2615PP      PP12719   7.618  12.926  10.847  0.0666 -0.5079 -0.2144
 2616PP      PP12720  14.380   4.990   4.703  0.0143 -0.2708 -0.1382
 2617PP      PP12721   7.124  14.563  10.747 -0.0102 -0.0150 -0.2726
 2618PP      PP12722   6.348  11.020   1.503 -0.3614  0.4038  0.3065
 2619PP      PP12723   1.423   5.571   9.837  0.0132  0.2618  0.1183
 2620PP      PP12724   6.447   9.491  10.392  0.2126  0.0960  0.0161
 2621PP      PP12725   0.725  13.111   3.407 -0.0006 -0.0619 -0.1258
 2622PP      PP12726  12.573  11.258  13.432 -0.2924  0.2554  0.2094
 2623PP      PP12727   5.633   9.492   3.352  0.1889 -0.0199  0.0005
 2624PP      PP12728   8.368  12.546   3.062 -0.0322  0.1629 -0.4005
 2625PP      PP12729   2.533  13.996   9.202 -0.2933 -0.1100 -0.2533
 2626PP      PP12730   0.486  15.211  13.768 -0.1556  0.0979 -0.0334
 2627PP      PP12731  14.055   8.429   0.988  0.0189  0.0451 -0.1403
 2628PP      PP12732   2.887  13.114  12.670 -0.0653 -0.0106  0.3148
 2629PP      PP12733   9.060   0.609  11.857 -0.2505 -0.0547 -0.1804
 2630PP      PP12734  14.274  12.959   3.123  0.0640 -0.1889 -0.0111
 2631PP      PP12735   7.315  15.647   0.537  0.1914  0.1539 -0.1014
 2632PP      PP12736   6.186   7.339  13.393 -0.2380 -0.1804 -0.0905
 2633PP      PP12737   7.755  14.673  11.831  0.1587 -0.1088 -0.1711
 2634PP      PP12738   8.338  11.172   2.507 -0.2800 -0.1024 -0.3633
 2635PP      PP12739  11.676  10.319   3.839 -0.3569 -0.1012  0.2376
 2636PP      PP12740   6.618   1.706  13.110  0.1346  0.0792 -0.1373
 2637PP      PP12741  11.175   4.907  11.923 -0.0048  0.2107 -0.3001
 2638PP      PP12742  12.395  13.404  13.073 -0.0165 -0.0212 -0.0806
 2639PP      PP12743  13.158   3.795  10.725 -0.0676 -0.2577  0.0051
 2640PP      PP12744  14.240   5.959   3.903 -0.1109 -0.2563 -0.4602
 2641PP      PP12745  14.751   6.059  13.503  0.1611  0.0213 -0.1138
 2642PP      PP12746  14.116  15.070   0.446 -0.0334 -0.0889  0.1455
 2643PP      PP12747  13.889   8.878   5.034  0.0285 -0.0197 -0.0115
 2644PP      PP12748  13.387   0.282   9.758 -0.0127  0.0078  0.0982
 2645PP      PP12749   6.954   5.852  11.987 -0.0136 -0.0076  0.0172
 2646PP      PP12750   3.057   7.523   9.533 -0.0166  0.1435 -0.0897
 2647PP      PP12751   0.553  13.677  11.392  0.0068  0.0905 -0.0367
 2648PP      PP12752   2.217  13.870   2.913  0.1197 -0.1878  0.0943
 2649PP      PP12753  14.390  12.173   1.458 -0.1177 -0.2075 -0.1544
 2650PP      PP12754   1.698  12.328   3.468  0.1168  0.1047 -0.3441
 2651PP      PP12755   6.361   9.106   8.951 -0.1203  0.0995  0.1296
 2652PP      PP12756  14.105  14.538  13.038 -0.3023  0.0035 -0.3317
 2653PP      PP12757   9.848  11.527   5.309  0.2889 -0.0773 -0.4331
 2654PP      PP12758  11.043   3.282  12.667 -0.0767 -0.1190  0.0672
 2655PP      PP12759   7.375   7.939   9.741  0.0975 -0.0256  0.5057
 2656PP      PP12760   5.007  10.080   8.985 -0.1652  0.2264 -0.0915
 2657PP      PP12761  10.970  10.728   4.644  0.0780 -0.2057  0.0452
 2658PP      PP12762  12.078  12.804  10.147  0.0146 -0.0752  0.1760
 2659PP      PP12763  15.692   5.459  11.155 -0.2000  0.2038 -0.0709
 2660PP      PP12764   9.041  15.390  13.654  0.1258 -0.1175 -0.0904
 2661PP      PP12765   1.212  12.853   8.664 -0.1969  0.0899 -0.1265
 2662PP      PP12766   8.678   7.961  13.052 -0.0211 -0.3128  0.0787
 2663PP      PP12767   7.681   1.469   2.040  0.1737  0.2303 -0.0962
 2664PP      PP12768   0.621   4.889   2.193  0.0688 -0.2597  0.0932
 2665PP      PP12769   0.376   1.758  10.030  0.0200  0.1143  0.1757
 2666PP      PP12770   8.685  10.112   2.572  0.0396 -0.3139  0.1665
 2667PP      PP12771  15.262   0.509  11.932 -0.0024 -0.2487 -0.0280
 2668PP      PP12772  13.942   1.480   3.938 -0.1696  0.1863  0.1820
 2669PP      PP12773   7.017   7.312   8.918 -0.0359 -0.0926 -0.2861
 2670PP      PP12774   4.590  14.349   3.969  0.2350  0.0898  0.0135
 2671PP      PP12775  14.048   0.736  10.318  0.0515 -0.3147 -0.0650
 2672PP      PP12776   9.464  12.278  11.913 -0.2396 -0.2962  0.1728
 2673PP      PP12777  10.105   3.873   9.212 -0.1200 -0.0750  0.1946
 2674PP      PP12778  11.329   2.186   9.356 -0.1424  0.0961 -0.0611
 2675PP      PP12779   1.457   3.091   1.143 -0.1684 -0.0504 -0.2114
 2676PP      PP12780  10.307   6.216  13.592  0.4686 -0.0695 -0.1443
 2677PP      PP12781   7.471   8.812   9.870 -0.3588 -0.0295 -0.1634
 2678PP      PP12782   7.119  13.829   2.408  0.1821 -0.1223 -0.0530
 2679PP      PP12783  10.990  11.992   4.818 -0.2680 -0.1154 -0.1190
 2680PP      PP12784   6.636  11.794   0.812  0.0658 -0.3103  0.3387
 2681PP      PP12785  10.054   6.952  11.307 -0.3175  0.3320 -0.1175
 2682PP      PP12786  10.436  14.418  12.113 -0.0078  0.0981 -0.0179
 2683PP      PP12787   8.353   8.954  10.588  0.5710 -0.0524  0.2811
 2684PP      PP12788   1.509  15.730   0.220 -0.0553 -0.0304  0.1146
 2685PP      PP12789   7.834   0.534   8.377  0.3121  0.2458 -0.1016
 2686PP      PP12790   7.213  12.019   1.558  0.2484  0.0089  0.2073
 2687PP      PP12791   6.617  11.515   2.424 -0.0517 -0.0934 -0.1110
 2688PP      PP12792   6.143   8.749   3.767 -0.0575  0.2884  0.2673
 2689PP      PP12793   1.202  13.768  10.641 -0.0749  0.0511  0.1484
 2690PP      PP12794   1.627  13.320  11.805  0.3055  0.1478 -0.4918
 2691PP      PP12795   9.626   6.059  12.258 -0.3511  0.1099 -0.0870
 2692PP      PP12796  12.802  14.758   9.597 -0.0437 -0.1549 -0.4068
 2693PP      PP12797   0.810   5.829   1.228 -0.0335  0.1298  0.2924
 2694PP      PP12798  13.439   2.973   1.673 -0.0982  0.0403  0.0908
 2695PP      PP12799   0.551   2.262   0.250  0.0211  0.3499  0.2068
 2696PP      PP12800  15.211  15.705   2.168 -0.3311  0.1238 -0.0295
 2697PP      PP12801   4.426   6.778   8.862  0.0199 -0.2368 -0.0088
 2698PP      PP12802  11.734   4.023   0.738 -0.0022  0.2473  0.0523
 2699PP      PP12803   5.621   1.335   2.424  0.3549 -0.1075 -0.2902
 2700PP      PP12804   5.376   0.123  11.756 -0.2559  0.1448 -0.0001
 2701PP      PP12805   8.338   2.715   1.717 -0.2388 -0.1620  0.1279
 2702PP      PP12806  13.309  11.740  13.467  0.0416  0.4175 -0.2771
 2703PP      PP12807   7.850  10.579  11.228  0.0662 -0.2006  0.0669
 2704PP      PP12808  12.349   1.719   3.509  0.0676 -0.1055 -0.0444
 2705PP      PP12809   7.828  14.530   3.026 -0.0502 -0.0907 -0.0982
 2706PP      PP12810   7.920   5.486  10.131 -0.0117 -0.1516  0.1858
 2707PP      PP12811   9.126   8.461  10.894 -0.2081 -0.0156  0.0287
 2708PP      PP12812   2.721  13.854   4.480 -0.3839 -0.1588  0.0226
 2709PP      PP12813   0.204   9.534   0.641 -0.1516 -0.0373  0.0746
 2710PP      PP12814  14.572   9.986   4.501  0.1466 -0.1195 -0.0379
 2711PP      PP12815   7.366  13.919  10.473 -0.1633  0.0083 -0.2228
 2712PP      PP12816   7.953  10.824   2.687 -0.2114  0.2043 -0.1390
 2713PP      PP12817   2.139  12.174   1.180  0.0450 -0.1335 -0.1477
 2714PP      PP12818  13.115   2.182  12.797  0.0698  0.0690 -0.1323
 2715PP      PP12819   0.474   0.533  11.871  0.2657  0.2929  0.0188
 2716PP      PP12820   0.325  10.576   2.598  0.2745 -0.1976 -0.2211
 2717PP      PP12821   8.422  11.382   9.978  0.0874 -0.0228  0.1288
 2718PP      PP12822  14.753  11.269  10.983  0.2016 -0.1406  0.0568
 2719PP      PP12823   2.658  11.676   9.359 -0.2860  0.0277 -0.2839
 2720PP      PP12824  13.571  11.440  12.431  0.1570 -0.0888  0.1093
 2721PP      PP12825   6.068   6.358  12.060  0.1839  0.2212 -0.0448
 2722PP      PP12826   2.161   0.804   8.531  0.0648  0.0820 -0.1385
 2723PP      PP12827   7.682   4.273  12.407  0.0513  0.1972 -0.3237
 2724PP      PP12828  13.562   7.738   2.097 -0.0716 -0.1806 -0.1061
 2725PP      PP12829  15.225   8.605   1.561 -0.1188  0.4610  0.4639
 2726PP      PP12830   7.186  14.417   9.213 -0.0861  0.0441  0.0825
 2727PP      PP12831   8.058   1.775   7.453  0.1725 -0.3690 -0.0733
 2728PP      PP12832   6.774  15.134   9.011  0.0745  0.3022 -0.3420
 2729PP      PP12833   5.902   8.025  10.361  0.2275  0.1889 -0.0808
 2730PP      PP12834   4.427   0.899   2.696 -0.0336  0.2668  0.3286
 2731PP      PP12835  14.999   1.163  12.532 -0.0431  0.1503  0.3951
 2732PP      PP12836   5.360   4.374  12.673  0.0390  0.2096 -0.1803
 2733PP      PP12837  14.146  13.083   2.283 -0.1769  0.0396 -0.0633
 2734PP      PP12838   9.180   6.310   3.087 -0.3477  0.1002  0.1537
 2735PP      PP12839   3.470   1.111   3.666 -0.0404 -0.2968 -0.2057
 2736PP      PP12840  14.001   4.003   5.000  0.0860  0.2872 -0.0527
 2737PP      PP12841   8.150  11.810   3.805 -0.0202  0.0159  0.0950
 2738PP      PP12842   4.831   9.283  11.257  0.0531  0.0068  0.0266
 2739PP      PP12843  14.586   3.942  12.337  0.0366  0.0533 -0.3711
 2740PP      PP12844   7.723   4.120   1.526 -0.1913 -0.0070 -0.1238
 2741PP      PP12845   9.778   2.152   1.555 -0.0547 -0.1033 -0.3230
 2742PP      PP12846   2.538  15.227   2.207 -0.0316  0.0274  0.1797
 2743PP      PP12847   7.073   7.095  13.774  0.1717 -0.6025 -0.1017
 2744PP      PP12848   3.313  14.104  11.507 -0.2368 -0.3478 -0.2577
 2745PP      PP12849   7.541  10.500   2.438  0.2035 -0.1109 -0.1895
 2746PP      PP12850   7.461   6.234   2.051 -0.1464  0.1396  0.2993
 2747PP      PP12851   8.277  15.098   3.402  0.1127  0.1881 -0.2323
 2748PP      PP12852   6.673   3.688  13.172  0.0171  0.4544  0.1260
 2749PP      PP12853   1.099   7.431  12.380  0.0059 -0.0340 -0.1548
 2750PP      PP12854  13.538  11.843  11.156  0.3003 -0.1611 -0.0841
 2751PP      PP12855   3.314  14.389  12.923 -0.0959 -0.0501  0.1781
 2752PP      PP12856   7.387   9.456   1.550 -0.2558 -0.2147  0.1036
 2753PP      PP12857   1.692  12.435  12.518  0.0681 -0.1014 -0.2675
 2754PP      PP12858   4.498  13.359   4.671  0.1132 -0.2984 -0.2743
 2755PP      PP12859  14.788  11.737  12.179 -0.0982 -0.2070 -0.2498
 2756PP      PP12860   2.407   1.269  10.131 -0.2965  0.3848  0.1482
 2757PP      PP12861  14.394   2.174   0.821 -0.1797 -0.0536 -0.0904
 2758PP      PP12862   3.315   0.663   9.946 -0.1366 -0.2608  0.2849
 2759PP      PP12863  11.466  15.197  11.873  0.0065 -0.2208 -0.1598
 2760PP      PP12864   8.386   2.417  10.352  0.0769 -0.3597  0.1425
 2761PP      PP12865   7.098  15.232   0.458  0.0828  0.0821 -0.0891
 2762PP      PP12866   8.388  11.567   1.299 -0.1637 -0.1226  0.1249
 2763PP      PP12867   1.953   1.016  10.152 -0.2856  0.1822  0.1061
 2764PP      PP12868   9.631  11.206   4.372  0.0541 -0.0454 -0.1392
 2765PP      PP12869  14.107   8.922  12.597  0.1532 -0.0734 -0.0746
 2766PP      PP12870   0.820  15.040  13.315  0.0836  0.1571 -0.2113
 2767PP      PP12871   0.619   8.405   9.204  0.1097  0.3377 -0.1423
 2768PP      PP12872  11.716   6.845   1.826 -0.2908  0.0750 -0.4738
 2769PP      PP12873   0.026  11.014  13.515 -0.2920 -0.1385 -0.0547
 2770PP      PP12874   2.547   4.895   2.722  0.0135  0.0414 -0.0703
 2771PP      PP12875  14.372   6.004   0.138  0.0683 -0.0014 -0.3447
 2772PP      PP12876  11.915   8.430  10.863  0.2044 -0.1927  0.0347
 2773PP      PP12877  12.852   1.261  12.518  0.2488  0.3791 -0.3865
 2774PP      PP12878   5.653  12.665   4.312 -0.2140 -0.3526 -0.0342
 2775PP      PP12879   0.867   9.226   0.003 -0.2390  0.0332 -0.1272
 2776PP      PP12880   3.529   4.814  12.637  0.1547 -0.0547  0.0034
 2777PP      PP12881  14.616  10.262   3.513 -0.0298  0.1135 -0.0572
 2778PP      PP12882   0.044   0.736   1.173  0.1521  0.2024  0.0956
 2779PP      PP12883   9.451   3.013   8.627 -0.0553  0.0076  0.0122
 2780PP      PP12884   6.133   0.804   9.527  0.2108 -0.0551  0.3004
 2781PP      PP12885   6.542  10.470   0.923  0.0491  0.3098  0.2959
 2782PP      PP12886   0.603   3.437   2.160  0.4419  0.0435  0.1036
 2783PP      PP12887  10.090  13.691  11.230  0.2215  0.2012 -0.1689
 2784PP      PP12888   3.758   1.297   2.558 -0.1069 -0.1495 -0.2850
 2785PP      PP12889  11.281   4.516  13.475  0.0577  0.1920  0.2184
 2786PP      PP12890   9.047   3.871   1.677  0.2762  0.0325 -0.0983
 2787PP      PP12891   2.100  12.326   1.727  0.0062 -0.2447  0.2564
 2788PP      PP12892   0.865   0.648   1.906 -0.0749  0.1438 -0.1480
 2789PP      PP12893   1.631  11.550   1.956  0.0170  0.0783  0.1720
 2790PP      PP12894   0.865   1.374  10.795  0.0112  0.2107  0.0560
 2791PP      PP12895  10.072   9.874  11.890 -0.0492 -0.0497 -0.2024
 2792PP      PP12896   3.292  13.522   1.653 -0.0257  0.1644  0.0055
 2793PP      PP12897   4.261  13.212   3.155 -0.2026 -0.3410  0.4035
 2794PP      PP12898  10.095  13.153   1.974  0.1822  0.0368  0.2973
 2795PP      PP12899   8.918   4.443   9.559 -0.2081  0.0155 -0.1329
 2796PP      PP12900  13.010  10.109  10.938 -0.0691  0.0030 -0.0601
 2797PP      PP12901   1.574  11.233   3.315 -0.1557  0.2610  0.1211
 2798PP      PP12902   5.026  13.735   8.649 -0.1079 -0.1929 -0.2182
 2799PP      PP12903  13.349   8.061   2.481 -0.0987  0.0033 -0.1184
 2800PP      PP12904   2.521  14.363  11.012 -0.0487  0.0605  0.1923
 2801PP      PP12905   7.427   9.006   3.075  0.1614  0.3328 -0.2132
 2802PP      PP12906  14.796  15.214   2.598 -0.0228  0.2059 -0.0061
 2803PP      PP12907   1.957   5.301  11.698  0.0586 -0.2900  0.1273
 2804PP      PP12908   4.095  13.826   9.258  0.3667  0.0420 -0.0916
 2805PP      PP12909   2.398   6.576  11.156 -0.0894 -0.0413  0.0729
 2806PP      PP12910   5.954  14.129   3.680 -0.1929  0.0992  0.1455
 2807PP      PP12911   5.357   0.384  13.175 -0.2550 -0.0588  0.2093
 2808PP      PP12912  14.520   2.587  11.043  0.5285  0.1598 -0.0834
 2809PP      PP12913   2.444   4.183   9.297  0.0972  0.0810 -0.0083
 2810PP      PP12914  13.503   1.594   3.036 -0.3229  0.0018 -0.1493
 2811PP      PP12915  15.215  11.097  10.839  0.2137 -0.1320  0.0329
 2812PP      PP12916  12.250  11.405  13.752 -0.0844  0.0849 -0.0752
 2813PP      PP12917  13.488   2.168   1.718  0.2773  0.0619  0.0458
 2814PP      PP12918   5.735   1.383  11.536 -0.1007  0.1427 -0.3726
 2815PP      PP12919   9.437   9.170  13.334  0.0059 -0.0750  0.1652
 2816PP      PP12920  13.532   2.485  12.943 -0.1691 -0.0191  0.0036
 2817PP      PP12921   3.709   5.606   4.048 -0.0695 -0.0239 -0.0299
 2818PP      PP12922   2.203  10.300   0.478  0.0377 -0.1857  0.0621
 2819PP      PP12923   7.369   2.035   1.487  0.1393  0.0667 -0.1357
 2820PP      PP12924  12.073   1.313  13.605 -0.1161 -0.2243  0.2163
 2821PP      PP12925   0.834   3.820   9.953 -0.1281 -0.0810  0.1319
 2822PP      PP12926  10.857   6.281   3.704  0.1009 -0.0022  0.0942
 2823PP      PP12927  11.407  14.246   2.359 -0.1886 -0.0652 -0.3605
 2824PP      PP12928   2.916   3.403  13.649 -0.0163  0.0136  0.2853
 2825PP      PP12929   3.965  11.755  10.746 -0.1122 -0.0333 -0.1464
 2826PP      PP12930  12.867   2.730  11.374  0.0263 -0.2017  0.0776
 2827PP      PP12931   5.304  14.636   2.033  0.0310  0.2139  0.2971
 2828PP      PP12932  10.907   7.946   3.606 -0.2615 -0.1884 -0.0699
 2829PP      PP12933   7.802   3.379   7.348 -0.0879 -0.3253 -0.3389
 2830PP      PP12934   9.442  11.663   0.896 -0.2171 -0.2368 -0.1693
 2831PP      PP12935   9.723  10.641  11.646 -0.0297 -0.4249  0.1850
 2832PP      PP12936   0.301  10.949   9.596  0.0168 -0.0394  0.1197
 2833PP      PP12937  14.579   2.908   2.917  0.3313 -0.2017 -0.1114
 2834PP      PP12938  10.721  10.799   2.283  0.2728 -0.2896  0.0175
 2835PP      PP12939   8.210   8.584   3.487 -0.2531  0.2087 -0.1001
 2836PP      PP12940   0.364  11.994  10.723  0.0400  0.1487 -0.2271
 2837PP      PP12941   9.091   5.539  13.443 -0.0464 -0.2207  0.0628
 2838PP      PP12942   1.004  10.011   9.605 -0.0672 -0.2211 -0.2358
 2839PP      PP12943  14.295   9.156  11.512 -0.2964 -0.0828  0.1575
 2840PP      PP12944   3.017   4.191  11.615  0.0662 -0.3318 -0.2334
 2841PP      PP12945   3.570   4.523   0.764 -0.3436 -0.3490  0.2407
 2842PP      PP12946  13.412   6.704   4.424 -0.1510  0.3611 -0.0861
 2843PP      PP12947  11.837  15.516  11.985 -0.0803 -0.0106 -0.0676
 2844PP      PP12948  15.146   9.844   0.554  0.1150  0.0840 -0.0761
 2845PP      PP12949  13.389   5.139   0.266  0.0086  0.3625  0.1708
 2846PP      PP12950   0.753  15.362  11.505 -0.3608 -0.5214 -0.2099
 2847PP      PP12951   6.952  13.684   0.671  0.1710  0.2977  0.4131
 2848PP      PP12952   4.271   5.787  12.551  0.0569 -0.1087  0.1251
 2849PP      PP12953  13.317   5.853  11.320  0.1582 -0.0526  0.0091
 2850PP      PP12954  13.972   7.812   1.169 -0.1612 -0.0589 -0.0936
 2851PP      PP12955  12.401  15.519  12.611  0.1450  0.1089  0.1921
 2852PP      PP12956  12.225   8.969  11.896 -0.3313  0.0127  0.0776
 2853PP      PP12957   6.439  12.330   4.625 -0.0006  0.1021 -0.1457
 2854PP      PP12958  11.269  12.567   4.082 -0.1324 -0.0210  0.2402
 2855PP      PP12959   0.552   2.301   1.987 -0.1523 -0.2412 -0.1864
 2856PP      PP12960   9.653   1.177   0.929  0.1592 -0.0966 -0.2977
 2857PP      PP12961   2.075  10.212   3.397  0.0245 -0.1666 -0.1601
 2858PP      PP12962  15.681  10.448  12.761  0.2178 -0.1540  0.2814
 2859PP      PP12963   1.390  10.271  11.822  0.1680 -0.1630 -0.0216
 2860PP      PP12964   6.745   2.790   8.409  0.2144 -0.3026 -0.1124
 2861PP      PP12965  10.771   2.979   8.749  0.0150  0.0670 -0.2030
 2862PP      PP12966   7.045   1.672   1.576  0.0108 -0.2567 -0.2168
 2863PP      PP12967   4.863   9.392   4.083 -0.3144  0.2529  0.1083
 2864PP      PP12968  13.200   4.465  10.844 -0.2388  0.2326  0.0302
 2865PP      PP12969   3.987   0.411  10.603 -0.0672  0.2959  0.0586
 2866PP      PP12970   4.640   8.940   1.783 -0.0463 -0.0365  0.1083
 2867PP      PP12971  12.015  13.126  11.937 -0.4372 -0.0018  0.1133
 2868PP      PP12972   5.059   0.465  10.693 -0.0196 -0.2408 -0.1137
 2869PP      PP12973   1.220  15.303   0.358 -0.2028 -0.0142 -0.1074
 2870PP      PP12974   4.522  11.775   0.624  0.0995 -0.1454  0.2192
 2871PP      PP12975  11.721  14.146  13.603 -0.1111 -0.1265 -0.3552
 2872PP      PP12976   4.144   6.594   2.570 -0.3330  0.0245  0.1679
 2873PP      PP12977   9.897   8.072  10.528 -0.0048  0.2122  0.0193
 2874PP      PP12978  12.879  10.541   9.701  0.1939  0.0419 -0.1871
 2875PP      PP12979   5.299  12.757   0.406  0.0297  0.1785 -0.1881
 2876PP      PP12980  13.343  11.739   3.932 -0.4029 -0.0651  0.0542
 2877PP      PP12981   5.460  10.317  11.125  0.0544 -0.0368  0.3289
 2878PP      PP12982   2.186   8.744  12.002 -0.2487 -0.0873 -0.2105
 2879PP      PP12983   8.464   2.525  13.339 -0.0131  0.0991  0.2375
 2880PP      PP12984   8.071   2.228   6.958  0.0956  0.0204 -0.0261
 2881PP      PP12985  14.665  14.271   8.793  0.3300  0.0659 -0.0090
 2882PP      PP12986   2.815  14.828   1.246  0.5396  0.0697 -0.3918
 2883PP      PP12987   6.217  14.837  11.200 -0.2481  0.3057 -0.3781
 2884PP      PP12988  15.065   0.908  11.087 -0.0947 -0.1640 -0.2154
 2885PP      PP12989   7.865   9.205   2.596 -0.2517 -0.0492 -0.0077
 2886PP      PP12990  11.878   6.756   3.448  0.0087 -0.1292  0.0039
 2887PP      PP12991  11.709   3.761   0.131 -0.0827  0.2738 -0.3373
 2888PP      PP12992   3.642   1.731  13.239  0.0451 -0.0001  0.0418
 2889PP      PP12993  12.709   3.436  13.576  0.1754  0.0477 -0.1456
 2890PP      PP12994  14.799  15.439  11.977  0.1450  0.0597  0.0750
 2891PP      PP12995   5.158   4.642   0.590  0.0619 -0.1142 -0.3274
 2892PP      PP12996  10.334   9.402   3.151  0.0479 -0.0620 -0.0780
 2893PP      PP12997  15.140   3.453   4.214 -0.0660  0.4663  0.1018
 2894PP      PP12998   8.553   0.765  10.571 -0.1343 -0.1383  0.0539
 2895PP      PP12999   8.140   4.374  11.397 -0.2130 -0.1624  0.0966
 2896PP      PP13000   2.152  11.004   1.044  0.2494  0.0895 -0.2642
 2897PP      PP13001   8.750  10.770   2.190 -0.0363 -0.0325  0.2896
 2898PP      PP13002   1.064  13.869   1.451  0.1329  0.1367 -0.0909
 2899PP      PP13003   7.761   9.896   4.838  0.0236  0.1535 -0.2030
 2900PP      PP13004   0.106   1.225   8.398 -0.0645 -0.4177 -0.0003
 2901PP      PP13005   5.352   4.534   9.506  0.0159 -0.3293 -0.0889
 2902PP      PP13006  11.796   7.668   2.976  0.1347  0.0116 -0.3681
 2903PP      PP13007  14.696   9.748   2.540 -0.0685 -0.1166 -0.3200
 2904PP      PP13008   6.844   8.136   0.298 -0.0674  0.3161  0.0446
 2905PP      PP13009   4.924   5.630  10.352 -0.0037 -0.1915  0.1612
 2906PP      PP13010   0.045   1.578   9.487 -0.5023  0.2011 -0.0211
 2907PP      PP13011  11.287   9.612   3.454  0.1170 -0.1695 -0.3700
 2908PP      PP13012   0.762  15.473  10.871  0.1418  0.1777 -0.0284
 2909PP      PP13013   2.092   0.502   2.992 -0.0203  0.3847  0.1681
 2910PP      PP13014   3.784   7.144   9.860  0.1552  0.0200  0.2257
 2911PP      PP13015  10.496  11.233   4.216 -0.0875 -0.0468 -0.3705
 2912PP      PP13016   3.896  14.274  11.372 -0.1665  0.2246 -0.1701
 2913PP      PP13017   6.352  15.196   1.090  0.1656  0.3762 -0.2486
 2914PP      PP13018  14.911  13.797  11.607 -0.0574  0.2877 -0.0098
 2915PP      PP13019   7.035  10.966   4.586  0.0648 -0.2981  0.0748
 2916PP      PP13020  12.209   4.293   1.675  0.2851 -0.0260  0.0104
 2917PP      PP13021  11.410   1.176  10.153  0.1015 -0.3157  0.0535
 2918PP      PP13022  12.591  12.359   3.440 -0.1818 -0.0066 -0.1371
 2919PP      PP13023  14.978   1.185   4.513  0.1398 -0.0316 -0.1332
 2920PP      PP13024   3.046  10.357  13.704  0.1769 -0.2501  0.1433
 2921PP      PP13025   7.182   3.799  12.890 -0.0278  0.0490  0.0045
 2922PP      PP13026  10.949   3.587   1.904 -0.2549  0.3827  0.1360
 2923PP      PP13027   0.495   8.090   3.361  0.2504  0.3083 -0.1489
 2924PP      PP13028   4.334   0.273   1.772 -0.0082 -0.0640  0.0342
 2925PP      PP13029   4.956   6.099  10.547 -0.0069  0.1189  0.1127
 2926PP      PP13030  13.328   3.801  10.266 -0.3824  0.0878 -0.0955
 2927PP      PP13031  14.220   0.043  10.892  0.3968 -0.2226 -0.1161
 2928PP      PP13032   7.478   7.916   9.278  0.0559 -0.2915  0.2505
 2929PP      PP13033   5.037   7.632  10.239  0.0325 -0.1275 -0.1822
 2930PP      PP13034   6.368  15.500   0.656  0.3049  0.1544 -0.2638
 2931PP      PP13035  10.626   6.090   4.463  0.2209 -0.0564 -0.2966
 2932PP      PP13036   1.994   4.910   8.667  0.3588 -0.0064 -0.2809
 2933PP      PP13037  11.568  14.943   3.319 -0.1400  0.1848 -0.0352
 2934PP      PP13038   5.635   0.958   8.071 -0.2614 -0.2270  0.1905
 2935PP      PP13039   7.027   2.819   8.004  0.1209 -0.1333  0.0509
 2936PP      PP13040   6.387  13.926  10.527 -0.0886  0.0639  0.0314
 2937PP      PP13041   0.954  12.820  12.777 -0.1067  0.2546 -0.1419
 2938PP      PP13042   1.654  13.084   1.050  0.1071 -0.1152 -0.1006
 2939PP      PP13043   4.071   5.360   8.648  0.0520  0.0265 -0.3628
 2940PP      PP13044  13.019   0.296   3.293  0.1679  0.0992 -0.0351
 2941PP      PP13045   3.940   3.515   0.032 -0.0661 -0.0432  0.2746
 2942PP      PP13046   5.257   6.077   0.690 -0.1947  0.3900  0.2205
 2943PP      PP13047  10.374  12.091   9.769  0.0635 -0.1556  0.0003
 2944PP      PP13048  11.637  15.298   2.405  0.0033 -0.0786 -0.2636
 2945PP      PP13049   2.777   5.556   3.984 -0.0378  0.2585  0.0393
 2946PP      PP13050  13.546  11.026  13.755  0.0335 -0.2060 -0.0353
 2947PP      PP13051   1.203   1.713   9.793 -0.0397 -0.2034 -0.3276
 2948PP      PP13052   1.256  15.146  12.719 -0.3173  0.2959  0.1836
 2949PP      PP13053  12.057   6.297   1.822 -0.1535  0.0526 -0.0026
 2950PP      PP13054   5.126  13.209  11.148 -0.0091  0.2538  0.0403
 2951PP      PP13055   7.423   8.845   9.301  0.1919  0.0644  0.1124
 2952PP      PP13056   3.976  13.663   3.893  0.2757 -0.0934  0.1836
 2953PP      PP13057  15.231   1.561   1.054 -0.1017  0.0611  0.2331
 2954PP      PP13058   5.117   8.371   9.572  0.1233 -0.0531 -0.3392
 2955PP      PP13059  12.729   2.573   1.156  0.0463 -0.0828  0.1397
 2956PP      PP13060   7.037   0.889  12.754 -0.1457 -0.1879 -0.0965
 2957PP      PP13061  14.280   7.182   0.565  0.3712 -0.0098  0.2197
 2958PP      PP13062   0.344   3.368  12.201  0.0776 -0.0897  0.0951
 2959PP      PP13063   9.087   9.120   3.114 -0.1202  0.0515  0.0473
 2960PP      PP13064   4.836   6.228   2.690  0.3438  0.2451  0.0036
 2961PP      PP13065   6.017   1.290   8.169  0.1165  0.0048  0.1974
 2962PP      PP13066   5.221   1.073   3.168 -0.1455 -0.1907  0.1062
 2963PP      PP13067   2.201  10.113  11.335  0.2364 -0.1744  0.0279
 2964PP      PP13068   3.229  15.237  11.616 -0.1236 -0.0289 -0.1973
 2965PP      PP13069   7.825  13.268  10.550  0.1051  0.4395  0.3005
 2966PP      PP13070  11.303   1.754   4.427 -0.1881  0.0412 -0.0439
 2967PP      PP13071   8.023  14.379  10.998  0.1365 -0.0583 -0.2007
 2968PP      PP13072   9.671  10.927  12.827 -0.0163 -0.0346 -0.1434
 2969PP      PP13073   8.340  13.717   1.017  0.2011  0.2574  0.1046
 2970PP      PP13074   4.158  15.152  10.814 -0.2103  0.0077 -0.2589
 2971PP      PP13075  10.535   0.360  10.346 -0.0507  0.6862 -0.2245
 2972PP      PP13076  13.282   5.611   0.272  0.0738  0.0503  0.1287
 2973PP      PP13077   3.148   8.519   2.378  0.0560 -0.0743 -0.5368
 2974PP      PP13078   9.987   4.027   8.062  0.2902  0.0723 -0.0020
 2975PP      PP13079   9.579  15.080  12.928  0.1894  0.3841  0.2002
 2976PP      PP13080  11.804  12.618  11.748 -0.1797 -0.2362  0.1768
 2977PP      PP13081   8.921  10.060   2.093 -0.1928  0.3100 -0.0760
 2978PP      PP13082   7.947   4.970  12.848 -0.2013 -0.1397 -0.0769
 2979PP      PP13083   4.498   2.028   1.618 -0.2169  0.0420  0.1702
 2980PP      PP13084  13.635  12.903  10.095  0.0671  0.0206 -0.1277
 2981PP      PP13085   6.962   5.063   0.915  0.0384 -0.1366  0.1400
 2982PP      PP13086   7.759   2.802   7.189 -0.0086 -0.0777  0.2463
 2983PP      PP13087   8.207   6.570  12.631 -0.1780  0.2648  0.4076
 2984PP      PP13088  11.801  11.398   9.813  0.0120  0.0494 -0.0857
 2985PP      PP13089   5.953  10.302  10.989 -0.1057 -0.0125 -0.3110
 2986PP      PP13090   2.721  11.404   2.249 -0.0746 -0.0755  0.0221
 2987PP      PP13091  15.626  10.472  12.174  0.1377 -0.1691  0.1716
 2988PP      PP13092  14.945   1.939  10.297 -0.0256  0.1504 -0.1493
 2989PP      PP13093   6.371  15.639  13.459  0.1911 -0.2365 -0.2252
 2990PP      PP13094   8.597   9.471   3.320 -0.1336 -0.0197 -0.0674
 2991PP      PP13095   5.406  10.079   9.259 -0.0361 -0.1316 -0.0622
 2992PP      PP13096  15.460   3.341  10.097  0.0769 -0.0277 -0.0990
 2993PP      PP13097  15.365  12.370  11.559 -0.1620 -0.1696 -0.0523
 2994PP      PP13098  11.176   8.243  12.946 -0.0024 -0.0003 -0.0295
 2995PP      PP13099   8.758   1.234   2.063  0.1184  0.1239  0.0539
 2996PP      PP13100   5.824  10.878   0.062  0.0283 -0.2512 -0.0491
 2997PP      PP13101   2.733   0.404  10.452 -0.4156  0.0563 -0.0866
 2998PP      PP13102   7.701   6.142   9.108  0.1177  0.2871 -0.0053
 2999PP      PP13103   6.910   0.282   8.317 -0.1965 -0.1201 -0.0011
 3000PP      PP13104   8.619   4.093   9.242  0.3445  0.2306 -0.0477
 3001PP      PP13105   2.900   7.786  10.280  0.0097 -0.1218 -0.0851
 3002PP      PP13106   7.958   5.308   2.123  0.0951  0.1275  0.0638
 3003PP      PP13107   8.518  15.484   2.366  0.2494  0.1113 -0.0360
 3004PP      PP13108   0.339  11.390  13.650 -0.0784  0.4113  0.2008
 3005PP      PP13109   4.955   0.969  12.613  0.3974  0.1477  0.1556
 3006PP      PP13110   8.519   9.723   2.133 -0.1508  0.0063 -0.0700
 3007PP      PP13111   3.001   1.452  10.752  0.1822  0.2384 -0.1433
 3008PP      PP13112   4.839   8.015   3.566 -0.1736 -0.0661  0.0137
 3009PP      PP13113  11.679  15.168   0.006 -0.1434 -0.2566 -0.1040
 3010PP      PP13114   9.051   7.860   2.376 -0.1767 -0.0808  0.2042
 3011PP      PP13115   2.544  13.823  12.620  0.0934 -0.1998 -0.1316
 3012PP      PP13116   8.278   3.492   2.870 -0.0239  0.0817  0.0767
 3013PP      PP13117   9.619   9.179  12.260 -0.1108  0.1465 -0.1148
 3014PP      PP13118  15.080   6.057   8.961 -0.0187 -0.2935  0.3344
 3015PP      PP13119  12.328  14.007  10.401 -0.0394  0.0481 -0.0475
 3016PP      PP13120   9.427  10.529   1.297 -0.4032  0.3284  0.1335
 3017PP      PP13121   7.358   8.099  10.492 -0.1338  0.1981  0.0486
 3018PP      PP13122   3.025  10.430   1.289 -0.0948  0.1357  0.1178
 3019PP      PP13123  14.001  13.033   3.834 -0.0817 -0.2337  0.0061
 3020PP      PP13124  10.115   6.993   0.524 -0.1712  0.0473  0.1189
 3021PP      PP13125   5.160   1.208  11.675 -0.3045  0.1364  0.1795
 3022PP      PP13126   4.641   8.062   0.382  0.1497  0.0940 -0.2259
 3023PP      PP13127  10.531  10.667   5.366  0.0806  0.0691  0.0032
 3024PP      PP13128  10.095   8.254   1.008 -0.3507  0.0213 -0.0609
 3025PP      PP13129  11.130  10.757  10.649 -0.1328  0.0025 -0.0236
 3026PP      PP13130  12.294  11.416   1.175  0.0243  0.0942  0.1903
 3027PP      PP13131   1.383   6.141   1.495  0.2104 -0.1645  0.0053
 3028PP      PP13132   5.202   8.658   2.468  0.0803 -0.2838  0.1060
 3029PP      PP13133   6.294   7.975   1.029  0.0214  0.3813 -0.0752
 3030PP      PP13134  11.380  11.632   5.300  0.0277 -0.0606  0.0355
 3031PP      PP13135   3.656   3.059   9.452  0.1720  0.1549 -0.2879
 3032PP      PP13136  12.670  12.110   3.913  0.0246  0.1826 -0.0781
 3033PP      PP13137   2.402   0.277  13.453  0.4586  0.2808 -0.2292
 3034PP      PP13138   7.522  13.457   1.649 -0.0731  0.0575 -0.2288
 3035PP      PP13139  14.879   3.639   0.251  0.0070 -0.0423  0.0597
 3036PP      PP13140  15.174   7.079   4.267 -0.3797  0.1082  0.2176
 3037PP      PP13141   3.653  13.735  11.361  0.0680  0.1199  0.2577
 3038PP      PP13142  13.579   0.857  10.392 -0.3360  0.0688  0.2847
 3039PP      PP13143   7.999   6.691   1.004 -0.1287 -0.1658 -0.4256
 3040PP      PP13144   9.046   7.508   2.701 -0.2292  0.3068  0.3256
 3041PP      PP13145  10.280   1.852   3.429  0.2436 -0.0024 -0.1731
 3042PP      PP13146   2.037   6.446  12.349 -0.0358  0.0064  0.3899
 3043PP      PP13147   7.102   7.312   3.165 -0.2913 -0.1017  0.0306
 3044PP      PP13148   8.847   2.721   1.642 -0.1508 -0.1424  0.1267
 3045PP      PP13149   6.322  14.605  13.416  0.1274 -0.2519 -0.3954
 3046PP      PP13150   4.485  14.959   2.127  0.2025  0.1083 -0.1910
 3047PP      PP13151   1.233   8.084  11.155 -0.0506 -0.3942 -0.1734
 3048PP      PP13152   1.174   7.360   3.710 -0.1938  0.0213  0.0266
 3049PP      PP13153   3.674  15.587  12.263 -0.2262  0.0012 -0.3478
 3050PP      PP13154   4.411  10.682   0.143  0.0524  0.2576 -0.1586
 3051PP      PP13155  10.280   5.172  12.908 -0.0553  0.3242 -0.0661
 3052PP      PP13156   5.082  14.494  10.416  0.0536  0.1574  0.1895
 3053PP      PP13157  14.294  12.730   9.250 -0.2014 -0.1620  0.2913
 3054PP      PP13158  10.168   5.382   2.896  0.2095  0.0074  0.0964
 3055PP      PP13159  11.274   7.524   3.414 -0.0552  0.1094 -0.1633
 3056PP      PP13160   2.685   2.957  12.049 -0.2606  0.0253 -0.2381
 3057PP      PP13161   2.971   7.226   3.291  0.0708  0.1818  0.0689
 3058PP      PP13162  13.677   9.988   3.475  0.1792 -0.1947  0.0102
 3059PP      PP13163   6.452   1.480  12.293 -0.2129  0.0892  0.2256
 3060PP      PP13164   5.205  14.972   0.970 -0.0485 -0.0255  0.2465
 3061PP      PP13165   5.398  11.596   9.677  0.2095 -0.0988 -0.4051
 3062PP      PP13166  15.603   9.195   9.579 -0.0324  0.1134 -0.3228
 3063PP      PP13167   4.156   6.690   1.194  0.1703  0.2219 -0.1238
 3064PP      PP13168   6.192   0.423  13.373 -0.0368 -0.2044 -0.0308
 3065PP      PP13169   0.808   4.090   3.244  0.0578  0.1355 -0.0336
 3066PP      PP13170   0.132   1.561   1.229 -0.0070  0.0724 -0.0770
 3067PP      PP13171   9.896   0.037   4.455 -0.2604  0.0444  0.5190
 3068PP      PP13172   0.181   1.058   9.360 -0.2666 -0.0904  0.1617
 3069PP      PP13173  10.609   3.331   2.198 -0.2538 -0.4699 -0.2293
 3070PP      PP13174  10.516   5.083  11.459 -0.0398  0.0458  0.0090
 3071PP      PP13175  10.340  13.061  12.325 -0.0834 -0.3424 -0.0687
 3072PP      PP13176   0.833   9.024  11.244  0.0281 -0.1360 -0.1031
 3073PP      PP13177   0.341   9.172   9.778  0.0006  0.1535 -0.0332
 3074PP      PP13178  10.820  14.261   0.080 -0.2826  0.0643 -0.3570
 3075PP      PP13179   3.569   7.191  13.765 -0.0597 -0.0071 -0.4072
 3076PP      PP13180   2.119  13.066  12.250 -0.0389  0.2355  0.1034
 3077PP      PP13181   1.636  12.350   0.011  0.1136 -0.0151 -0.0560
 3078PP      PP13182  15.290  14.581  12.993 -0.1909 -0.0873 -0.1144
 3079PP      PP13183   7.664   1.470  13.488  0.0300  0.1920 -0.1128
 3080PP      PP13184  10.060  10.690  10.298 -0.0731  0.2230  0.2048
 3081PP      PP13185   4.716   8.925   0.775  0.1282 -0.0899 -0.1836
 3082PP      PP13186   2.586  12.153   9.703 -0.1485 -0.0407  0.3224
 3083PP      PP13187   5.101  12.074   2.565 -0.0765 -0.1074 -0.1202
 3084PP      PP13188   9.304   9.875   1.054 -0.2700 -0.1739 -0.0927
 3085PP      PP13189  10.903  11.238  12.983  0.3273  0.0687 -0.0666
 3086PP      PP13190  12.722  10.799   3.247  0.1422  0.2409  0.0416
 3087PP      PP13191  12.394   3.137  11.590 -0.0562  0.0217 -0.1756
 3088PP      PP13192   5.746  10.620   1.647 -0.1901 -0.0685 -0.1725
 3089PP      PP13193   2.784   5.641   4.453 -0.1405  0.1127 -0.2083
 3090PP      PP13194   9.265  15.371   2.631 -0.1464  0.0123 -0.1781
 3091PP      PP13195   2.178   2.021  10.636  0.0290 -0.2264  0.1198
 3092PP      PP13196   3.505  13.139   1.212  0.0074 -0.2118 -0.0065
 3093PP      PP13197  12.307   9.446   2.214 -0.3626  0.2400 -0.1126
 3094PP      PP13198   0.258  10.829  11.330  0.0383  0.2071 -0.0473
 3095PP      PP13199  14.608   7.796  10.490  0.2624 -0.1533 -0.2201
 3096PP      PP13200  12.545   1.779  11.100 -0.2089 -0.1254 -0.1123
 3097PP      PP13201  15.508  10.583   4.697  0.0122 -0.2650 -0.2033
 3098PP      PP13202  12.070  13.728  12.841 -0.0546 -0.2152 -0.0869
 3099PP      PP13203   3.569  12.456   2.919 -0.1684 -0.0251  0.1594
 3100PP      PP13204  13.165   8.581   1.178 -0.1485  0.1180 -0.0207
 3101PP      PP13205   6.398   4.242   2.253  0.0138 -0.0274  0.3024
 3102PP      PP13206  15.067   1.480   3.979  0.1776  0.0194 -0.1791
 3103PP      PP13207   0.681  13.059   4.806 -0.3508 -0.0017 -0.1099
 3104PP      PP13208   2.040  14.988   8.558  0.0019  0.2630  0.2985
 3105PP      PP13209  13.204  15.409   1.126  0.1597  0.0428  0.2188
 3106PP      PP13210   0.406   5.861  12.407 -0.2887 -0.0307 -0.0852
 3107PP      PP13211  15.399   1.795  11.627  0.0153 -0.0056  0.0705
 3108PP      PP13212  10.991   8.974   2.018  0.1814  0.0091 -0.3270
 3109PP      PP13213  11.471  11.087   0.842 -0.3750  0.0601 -0.1903
 3110PP      PP13214   7.333   4.587  11.309 -0.0107  0.2518  0.2831
 3111PP      PP13215  13.460   2.797  10.223 -0.0565 -0.2563 -0.2588
 3112PP      PP13216   5.911   2.198   2.246  0.0506  0.2856 -0.0605
 3113PP      PP13217   0.105   6.129   4.365 -0.2993 -0.0610 -0.0625
 3114PP      PP13218  14.453  11.675   4.498  0.0571 -0.2486  0.1697
 3115PP      PP13219  13.942   3.318  12.558  0.1752 -0.0948  0.4004
 3116PP      PP13220   9.779  15.507   2.542  0.0393  0.1258 -0.3352
 3117PP      PP13221   8.745   5.032  10.693 -0.1743 -0.0641 -0.4500
 3118PP      PP13222   8.703   3.208   0.839  0.0699  0.0374 -0.1374
 3119PP      PP13223   6.799   2.776   1.101  0.2082  0.0788  0.0305
 3120PP      PP13224   0.953   8.065   9.014 -0.2474  0.2521 -0.1157
 3121PP      PP13225   5.253   8.443   8.314 -0.2151 -0.1149 -0.0317
 3122PP      PP13226   2.985   2.449  11.490 -0.3589 -0.1755  0.0422
 3123PP      PP13227   6.582   8.853   1.813  0.0167  0.2787 -0.0433
 3124PP      PP13228  14.426  15.090   3.064  0.0445 -0.0459 -0.1172
 3125PP      PP13229  10.755  10.536   3.189 -0.0797 -0.0636 -0.1970
 3126PP      PP13230   3.667   0.536   3.076 -0.4015  0.0504 -0.2874
 3127PP      PP13231   5.658  10.647  12.017  0.1306 -0.1827  0.2124
 3128PP      PP13232   6.938   8.925   2.956 -0.1825  0.0063 -0.1180
 3129PP      PP13233   6.128   8.021   1.512 -0.0930  0.0732 -0.1163
 3130PP      PP13234   5.625   2.303  12.435  0.1806 -0.1408  0.4134
 3131PP      PP13235  15.000  13.905   9.073  0.0819 -0.0027 -0.0354
 3132PP      PP13236  10.633   9.883   1.754 -0.0306 -0.0297  0.1526
 3133PP      PP13237   3.831   2.856  11.703 -0.1053  0.2351 -0.0343
 3134PP      PP13238   2.302   3.445  12.525  0.1197  0.0370 -0.0462
 3135PP      PP13239   3.992  11.363   9.341 -0.1699 -0.1500 -0.0978
 3136PP      PP13240  14.019  15.380   2.083 -0.1366 -0.0129 -0.2270
 3137PP      PP13241   2.655  11.973  12.587 -0.2293 -0.0286 -0.3358
 3138PP      PP13242   0.882   6.876   2.153  0.0250  0.1348 -0.1990
 3139PP      PP13243   5.450   6.366  10.501 -0.0968  0.0118  0.1584
 3140PP      PP13244   2.359  10.768   0.632 -0.1265  0.1103  0.1762
 3141PP      PP13245   5.608  13.588   4.693  0.0942  0.0213  0.0356
 3142PP      PP13246  15.049  10.500   3.811  0.1027 -0.0970  0.1098
 3143PP      PP13247  11.334   5.495   3.571 -0.3570  0.1884 -0.0878
 3144PP      PP13248   5.629   2.644  10.846 -0.3267 -0.2891 -0.2118
 3145PP      PP13249   8.020  15.154   9.794 -0.0397  0.2462 -0.2719
 3146PP      PP13250   2.053   4.458   8.812  0.0021 -0.0610 -0.1496
 3147PP      PP13251   3.431  10.631  13.573  0.1981 -0.2740 -0.2947
 3148PP      PP13252  10.015  12.274  10.001 -0.1808  0.1116 -0.1464
 3149PP      PP13253   0.616   0.667  12.472 -0.1478 -0.0483  0.0847
 3150PP      PP13254   9.906   3.683   8.838 -0.1130  0.0981 -0.1716
 3151PP      PP13255   1.203  14.258   2.186 -0.3278 -0.0061 -0.1084
 3152PP      PP13256  10.176   0.159   0.462  0.1666 -0.0560 -0.1466
 3153PP      PP13257   1.601   3.169   0.482 -0.0202  0.4280 -0.0570
 3154PP      PP13258   0.957   7.835  12.031 -0.0824 -0.0396 -0.1538
 3155PP      PP13259   7.767   5.942   3.723 -0.2028 -0.1630  0.0724
 3156PP      PP13260  13.530   6.499   0.903  0.1663 -0.1843 -0.0369
 3157PP      PP13261   8.033  10.482   3.666  0.0214 -0.0822  0.0789
 3158PP      PP13262   1.701   9.976  10.598 -0.2703 -0.1242  0.1159
 3159PP      PP13263   2.888   5.280  13.250  0.1934  0.0481  0.0901
 3160PP      PP13264  14.788  15.403  12.710 -0.0269  0.0837  0.1327
 3161PP      PP13265   5.154   1.618  11.438 -0.0912 -0.0862  0.1725
 3162PP      PP13266   2.187   9.918  10.015 -0.0530 -0.0063 -0.2091
 3163PP      PP13267   4.689   9.851   1.456 -0.1031 -0.0579 -0.1214
 3164PP      PP13268   0.451  12.410  10.961  0.0669  0.0956  0.2005
 3165PP      PP13269   6.994  11.641   1.288 -0.0363 -0.0726  0.1377
 3166PP      PP13270  10.551   4.702   9.450  0.0640  0.0810  0.1627
 3167PP      PP13271   7.531   9.190  10.239  0.1200  0.1730  0.1622
 3168PP      PP13272   7.267  14.003  13.140 -0.5204 -0.1875 -0.3723
 3169PP      PP13273  14.810   8.128  13.725 -0.0267 -0.0247 -0.2332
 3170PP      PP13274   2.918   2.755   0.722  0.2323  0.0029 -0.3505
 3171PP      PP13275   3.324   0.659   9.360 -0.1053  0.0825 -0.0070
 3172PP      PP13276   5.757   1.008  11.860  0.1284  0.0796  0.1543
 3173PP      PP13277  11.944  12.103  11.658 -0.4044  0.0588 -0.2887
 3174PP      PP13278   8.721  15.042   8.716  0.0551 -0.0707 -0.0647
 3175PP      PP13279  10.524   6.657   0.517 -0.1598 -0.2419 -0.0736
 3176PP      PP13280  12.574   7.702   0.361  0.2714 -0.0374 -0.0358
 3177PP      PP13281  15.350   8.183   3.349 -0.0336  0.0938  0.0757
 3178PP      PP13282   8.419   2.587  11.968 -0.0057  0.2363  0.0723
 3179PP      PP13283   1.968   6.379   2.613  0.1922  0.3242 -0.1823
 3180PP      PP13284   9.268   8.886  10.590 -0.0354 -0.2278  0.0306
 3181PP      PP13285   9.644   5.731  10.201  0.1771 -0.3329 -0.1390
 3182PP      PP13286   9.336   5.418   3.094  0.0155  0.0417  0.0260
 3183PP      PP13287   6.565   8.520  12.171  0.0970  0.0419 -0.2136
 3184PP      PP13288   6.417   5.193  11.338 -0.2660  0.1989  0.1511
 3185PP      PP13289   9.472  10.376   3.755 -0.0156  0.2899  0.1211
 3186PP      PP13290  13.506  12.071   4.506  0.0992 -0.1130  0.0298
 3187PP      PP13291   7.785  10.754   4.466  0.4213  0.4602  0.3761
 3188PP      PP13292   2.644   4.381   8.870  0.2813  0.2141 -0.1095
 3189PP      PP13293  14.550  13.583  13.654 -0.1839  0.0979 -0.1991
 3190PP      PP13294   5.196  13.035  12.741  0.2338  0.0750 -0.1349
 3191PP      PP13295   3.251   9.360  11.957  0.1599 -0.0955 -0.1131
 3192PP      PP13296   6.371  15.383  11.034  0.0209  0.0502 -0.0599
 3193PP      PP13297  13.581   7.597   3.435 -0.0927 -0.1706 -0.0028
 3194PP      PP13298   6.652  12.878   3.953  0.1665 -0.0322  0.2879
 3195PP      PP13299   8.712   9.357  10.732 -0.2495 -0.0031  0.0135
 3196PP      PP13300   6.634   8.284   1.673  0.2723 -0.3199 -0.1067
 3197PP      PP13301  11.303  11.148  11.000 -0.2983 -0.0145 -0.1618
 3198PP      PP13302  14.782   4.804   4.517  0.0350 -0.1553  0.0063
 3199PP      PP13303   9.894  12.232   0.490  0.2031 -0.4200 -0.1812
 3200PP      PP13304  11.895  13.365   3.337 -0.0251 -0.0281  0.3674
 3201PP      PP13305   2.816   0.267   0.209  0.1096  0.1548 -0.0018
 3202PP      PP13306   0.154   8.654  10.632 -0.4615  0.2462 -0.2484
 3203PP      PP13307  15.075   7.420   1.698 -0.1971  0.1969 -0.1086
 3204PP      PP13308   4.563  15.123   1.662  0.1849  0.1368  0.0251
 3205PP      PP13309   3.695   0.476   2.486  0.2492 -0.0749 -0.3621
 3206PP      PP13310  14.850   7.270   2.556  0.1218 -0.6061 -0.3617
 3207PP      PP13311   9.488   1.657  10.667 -0.2576 -0.0223 -0.4832
 3208PP      PP13312  15.322  10.215   4.254 -0.0406 -0.1623  0.0537
 3209PP      PP13313   3.181   1.449  12.291  0.2898 -0.0967 -0.1272
 3210PP      PP13314   6.794   0.625   0.387  0.0974 -0.0846  0.0351
 3211PP      PP13315   9.566   4.974   2.273 -0.0708 -0.2179  0.0616
 3212PP      PP13316  14.993   3.699   9.958 -0.0069 -0.2359 -0.2068
 3213PP      PP13317   9.333  12.195  13.539  0.0472 -0.1090 -0.2147
 3214PP      PP13318   9.534  13.104  10.503 -0.3118  0.1254 -0.2389
 3215PP      PP13319   8.022   3.594  12.803  0.0297 -0.0517 -0.0516
 3216PP      PP13320  11.135   0.217   0.667 -0.0350 -0.0617  0.0321
 3217PP      PP13321   4.464   5.332   8.385 -0.1512 -0.0754 -0.1236
 3218PP      PP13322   1.694  12.782   4.113  0.0470  0.1284 -0.1108
 3219PP      PP13323   0.962   8.393   0.365  0.1553  0.0930  0.2303
 3220PP      PP13324  12.356  11.603  12.475  0.0675 -0.1125 -0.1950
 3221PP      PP13325   4.091  13.606   4.393  0.0592  0.2341  0.0133
 3222PP      PP13326  15.510   4.899  12.167  0.0045  0.0477 -0.1421
 3223PP      PP13327  10.517  13.991   0.490 -0.0177  0.1650  0.3599
 3224PP      PP13328   0.044   9.510  13.188 -0.0196 -0.4080 -0.1282
 3225PP      PP13329   2.839  12.358   0.141  0.1847 -0.1408 -0.3733
 3226PP      PP13330  10.390   2.212   8.982  0.3290 -0.0967  0.0741
 3227PP      PP13331  10.409  13.131  11.548 -0.2761 -0.0666 -0.0776
 3228PP      PP13332   8.353  13.526   3.611  0.1268  0.2108  0.2676
 3229PP      PP13333   0.889   0.911   2.373 -0.2686 -0.1512 -0.2067
 3230PP      PP13334   8.723   0.060  12.963 -0.2181  0.1092  0.0498
 3231PP      PP13335   3.922   2.962   3.098 -0.1853  0.1274  0.2105
 3232PP      PP13336   5.398   6.420  11.627  0.0908  0.3804  0.0662
 3233PP      PP13337   7.040   3.687   0.293  0.0942  0.0277  0.3492
 3234PP      PP13338   2.989   0.140  13.453  0.1393  0.1996  0.1412
 3235PP      PP13339   5.740  15.629   0.628  0.2053  0.0363  0.1795
 3236PP      PP13340  12.058  14.942   3.246  0.1961  0.1021 -0.1334
 3237PP      PP13341   3.943  13.309  11.169  0.0218  0.0462  0.0337
 3238PP      PP13342   2.199   8.718   9.805  0.1209 -0.1614 -0.0539
 3239PP      PP13343   7.704   6.632  12.540 -0.0023 -0.3279  0.2064
 3240PP      PP13344  12.427  15.214   4.571  0.3719 -0.1992  0.1383
 3241PP      PP13345  14.239  12.628  10.277  0.0927  0.3850 -0.1182
 3242PP      PP13346  12.997   1.921   1.592 -0.1458 -0.0907  0.1162
 3243PP      PP13347  13.400   5.346  11.220 -0.1318 -0.1003 -0.1523
 3244PP      PP13348   9.547   9.076   1.312 -0.0537 -0.0680 -0.1082
 3245PP      PP13349  12.232   5.799  11.659 -0.0560  0.2477 -0.1624
 3246PP      PP13350   2.647   2.684   9.383 -0.2692 -0.1610  0.0874
 3247PP      PP13351  10.704   7.562   4.294 -0.1060 -0.1262 -0.4069
 3248PP      PP13352   2.631  15.115  11.763  0.2351 -0.0586 -0.5009
 3249PP      PP13353   3.710  14.096   0.129  0.2483 -0.0148  0.2182
 3250PP      PP13354   7.666   3.335   2.147  0.1346  0.1551 -0.2317
 3251PP      PP13355   4.627   1.180   8.040  0.0651  0.3495  0.0078
 3252PP      PP13356   4.263   9.197   0.729 -0.2585 -0.2462  0.1498
 3253PP      PP13357  13.477   6.827   3.776  0.0272 -0.2399  0.2586
 3254PP      PP13358   9.116  11.262   1.461  0.1041  0.1781 -0.1063
 3255PP      PP13359  12.818   8.283   1.036 -0.1338 -0.4407  0.1514
 3256PP      PP13360   5.042  13.768   0.525  0.1983  0.0901  0.4266
 3257PP      PP13361  15.453   3.662   2.369  0.1601 -0.1457  0.0612
 3258PP      PP13362  12.804  14.323   4.503  0.0918 -0.1819 -0.0721
 3259PP      PP13363   9.049  14.894   2.181 -0.1316  0.1072  0.0884
 3260PP      PP13364  10.750   6.605   9.638 -0.1669  0.1638 -0.1913
 3261PP      PP13365   9.672   7.376   5.180 -0.4139  0.0528 -0.3607
 3262PP      PP13366   5.614   5.999   2.947  0.3618 -0.1070  0.0936
 3263PP      PP13367   3.196   8.280  12.777 -0.1629 -0.1268  0.2006
 3264PP      PP13368  11.001  11.000  12.105  0.0256  0.3181  0.0311
 3265PP      PP13369   0.376  10.254  12.796 -0.0112 -0.3973  0.1664
 3266PP      PP13370   3.902   8.457  11.780  0.3175  0.2128  0.2365
 3267PP      PP13371  13.918   5.819   4.889 -0.0785  0.2892  0.2238
 3268PP      PP13372  15.444   8.138   9.360  0.0844 -0.1512  0.3138
 3269PP      PP13373   3.827   0.893   2.209  0.0066  0.1855 -0.1160
 3270PP      PP13374  11.984  10.716  13.301 -0.0341  0.0911  0.1367
 3271PP      PP13375   7.800  15.660   1.808  0.1504 -0.4457 -0.3004
 3272PP      PP13376   3.438   3.301   2.079  0.1892 -0.3296 -0.0145
 3273PP      PP13377   4.195  11.233  12.049  0.1066 -0.1747  0.1505
 3274PP      PP13378   8.495  13.464   2.008  0.0760  0.2678 -0.0183
 3275PP      PP13379   8.636   0.500  13.390 -0.2036  0.0777  0.1944
 3276PP      PP13380   0.062  14.742   1.181 -0.1045 -0.0969 -0.2327
 3277PP      PP13381  12.808   4.313  10.415 -0.0860  0.1942  0.1055
 3278PP      PP13382   3.409  13.440   0.782 -0.1758  0.1449 -0.0893
 3279PP      PP13383  12.513   1.628   1.490  0.0575  0.0284  0.1293
 3280PP      PP13384  14.314   7.886   2.520  0.2694  0.0710 -0.0791
 3281PP      PP13385  11.778   0.012   2.526  0.1177  0.2131  0.1141
 3282PP      PP13386  14.810   8.741  10.429 -0.3017 -0.1309 -0.2615
 3283PP      PP13387   5.228  10.577   9.210 -0.1633 -0.1386 -0.0017
 3284PP      PP13388  11.476   2.987   0.545  0.0557  0.0349 -0.1087
 3285PP      PP13389   8.818   1.715   1.885  0.4807  0.3198 -0.2133
 3286PP      PP13390  13.454  10.180   0.246 -0.2578  0.0876 -0.4291
 3287PP      PP13391  14.751  14.484  12.965  0.2511 -0.0135 -0.1909
 3288PP      PP13392   7.440   1.174   7.768  0.0820  0.1463 -0.0674
 3289PP      PP13393   9.623  12.974   2.637 -0.2028  0.3210 -0.0549
 3290PP      PP13394  13.629   2.597   2.474  0.0611  0.2320 -0.0041
 3291PP      PP13395   1.990  12.212  11.008 -0.2722 -0.1843  0.2035
 3292PP      PP13396   9.718   2.538   0.382 -0.3383  0.0638  0.0765
 3293PP      PP13397  13.010   5.341   0.586 -0.1218 -0.3038  0.0929
 3294PP      PP13398  13.232   6.076   0.398  0.1773 -0.2975  0.0578
 3295PP      PP13399  12.654   2.149   2.359 -0.2288  0.3572  0.0574
 3296PP      PP13400   8.076  15.017  10.925  0.1295 -0.0523  0.1818
 3297PP      PP13401  15.295   5.890  11.985  0.1757  0.3094 -0.1783
 3298PP      PP13402   5.818  10.127   2.464 -0.2036  0.1043  0.1008
 3299PP      PP13403   4.365   8.314   1.457  0.0760 -0.1643  0.1784
 3300PP      PP13404   6.979   7.494   1.582  0.2003 -0.2425 -0.2707
 3301PP      PP13405   7.277  14.331   3.076  0.2392 -0.0637 -0.3806
 3302PP      PP13406   1.091   1.252   3.209  0.1394 -0.0147 -0.1018
 3303PP      PP13407   3.582   4.392  13.443  0.2012 -0.0184  0.2062
 3304PP      PP13408   4.232  10.961   4.713  0.1713  0.1041 -0.2964
 3305PP      PP13409   5.860   5.989  13.330  0.1056  0.3231 -0.1928
 3306PP      PP13410   9.629   0.165   9.865 -0.0775  0.0057 -0.2002
 3307PP      PP13411   1.582  13.206   9.433  0.1586 -0.0685  0.0931
 3308PP      PP13412   6.637   8.688   9.341 -0.4314  0.5003 -0.0540
 3309PP      PP13413   3.940   4.879   3.701  0.1091  0.0162 -0.0559
 3310PP      PP13414  12.483   8.476  10.653  0.1041 -0.0895  0.1798
 3311PP      PP13415   2.224   2.937  10.252 -0.4039 -0.2316 -0.1290
 3312PP      PP13416   2.017   2.024   3.544  0.2348 -0.2799  0.2320
 3313PP      PP13417   2.736   8.904   1.295 -0.0574  0.0757  0.2455
 3314PP      PP13418  10.498  12.138   3.036  0.2013  0.1849 -0.0187
 3315PP      PP13419   9.438  11.471  12.056 -0.3767  0.2114  0.1128
 3316PP      PP13420   4.635   2.546  13.323  0.0277 -0.0575  0.1263
 3317PP      PP13421   5.131  12.334  10.996  0.3326  0.2729  0.1154
 3318PP      PP13422   7.686  10.896  12.112 -0.2935  0.2803  0.0117
 3319PP      PP13423   9.159   3.774  10.991  0.1569 -0.0861  0.0274
 3320PP      PP13424  14.576  11.033   4.429  0.2164  0.0599 -0.0983
 3321PP      PP13425  14.421   8.028   4.333  0.2687  0.2050 -0.1143
 3322PP      PP13426   6.627   8.862  11.205 -0.0222 -0.1537 -0.2088
 3323PP      PP13427   8.914  14.327  11.183 -0.3900  0.0064 -0.3225
 3324PP      PP13428   5.788   5.675   0.291 -0.2566  0.0863  0.1087
 3325PP      PP13429   1.479   1.724  12.657  0.0280  0.0925  0.1752
 3326PP      PP13430   9.772   1.423   2.806 -0.0753 -0.0036 -0.2311
 3327PP      PP13431   7.400   0.568   8.656 -0.0871  0.0773  0.1386
 3328PP      PP13432   1.777  11.927  12.038  0.0994 -0.0266 -0.1231
 3329PP      PP13433  13.483   0.451   5.080  0.3163  0.0004  0.1020
 3330PP      PP13434  10.709   4.123  11.502 -0.1541  0.1815 -0.0817
 3331PP      PP13435   3.904  10.038   0.075 -0.0438  0.0546 -0.1050
 3332PP      PP13436   5.444  10.366   9.663  0.2615 -0.1007  0.0912
 3333PP      PP13437  11.516   7.891   3.693 -0.1537 -0.0269 -0.1702
 3334PP      PP13438  13.759   6.247  13.115 -0.1373 -0.2974 -0.0165
 3335PP      PP13439   4.173   2.792  13.244 -0.0404  0.0332  0.1449
 3336PP      PP13440   6.818   2.281  13.740  0.1080  0.0985  0.2576
 3337PP      PP13441   9.419   6.261  10.377 -0.1988  0.0117  0.0747
 3338PP      PP13442   6.858  12.099   1.169  0.2164  0.0010 -0.0379
 3339PP      PP13443   1.158   0.576  10.489 -0.2728 -0.1471 -0.3078
 3340PP      PP13444   5.065   4.076  13.262 -0.1078 -0.1079 -0.1138
 3341PP      PP13445   7.569  14.465   3.468  0.2633  0.2638  0.0723
 3342PP      PP13446   8.782  10.298  11.469 -0.4476  0.0025 -0.1217
 3343PP      PP13447  12.021   6.975   5.245  0.0518  0.1936 -0.2417
 3344PP      PP13448   1.802  11.663   2.420  0.1342 -0.0188  0.1242
 3345PP      PP13449  12.567   2.106   0.978  0.2902 -0.0676  0.0996
 3346PP      PP13450   2.932   1.226   1.680 -0.0647  0.0146  0.0961
 3347PP      PP13451  15.571   5.525   1.421 -0.1136  0.2892  0.1397
 3348PP      PP13452   6.559  12.023   2.301  0.1131  0.2305 -0.0586
 3349PP      PP13453  12.512   9.525   2.667 -0.1116  0.4915 -0.0175
 3350PP      PP13454  13.427   3.097   2.188 -0.0425  0.0051  0.0296
 3351PP      PP13455   8.083   0.039   0.736  0.0045  0.0107  0.2105
 3352PP      PP13456   0.740   0.881  10.582 -0.1273 -0.0594  0.1287
 3353PP      PP13457   0.108  13.658   8.549 -0.1114  0.0537 -0.1738
 3354PP      PP13458   6.684  10.195  12.076  0.0555  0.3343 -0.1631
 3355PP      PP13459  11.943   1.459  11.886 -0.1092 -0.0346  0.2262
 3356PP      PP13460   3.990   9.289   9.954  0.1392  0.5665 -0.1175
 3357PP      PP13461   7.031   0.921  13.733 -0.0435  0.0732 -0.0176
 3358PP      PP13462   7.236  14.355   1.738  0.0276 -0.0262 -0.0593
 3359PP      PP13463   6.146   9.170   3.301 -0.0914  0.2693 -0.2416
 3360PP      PP13464   7.420  15.081  12.445  0.1258  0.2361  0.2077
 3361PP      PP13465   4.311  10.503  11.183  0.0481 -0.0328  0.0117
 3362PP      PP13466  11.574   8.800  11.025  0.3333  0.0419  0.1328
 3363PP      PP13467   7.628   4.256   1.998  0.1436  0.1143  0.1796
 3364PP      PP13468   8.999   3.678  12.859  0.1061 -0.1840  0.1171
 3365PP      PP13469  14.393   3.183   2.530  0.0950 -0.0910 -0.1761
 3366PP      PP13470  10.362   7.212   2.038 -0.2629  0.2599 -0.3099
 3367PP      PP13471   0.026   9.945  12.971  0.0451  0.0017  0.0412
 3368PP      PP13472  12.104  10.239  13.360  0.0225 -0.0246 -0.2957
 3369PP      PP13473   3.568  13.085  10.897  0.1899 -0.0267 -0.0302
 3370PP      PP13474   9.440   7.176  10.752 -0.2470  0.2207  0.0804
 3371PP      PP13475  10.331   8.457   2.565 -0.0818 -0.0623 -0.0309
 3372PP      PP13476   9.228  11.725  10.275  0.2124 -0.0835  0.0979
 3373PP      PP13477   0.039   6.824  11.739  0.1893  0.1360  0.2165
 3374PP      PP13478   4.504   6.853   9.720 -0.2517  0.0521 -0.1577
 3375PP      PP13479   0.107  14.501   3.575  0.0727 -0.0368  0.4082
 3376PP      PP13480   9.559  14.034  10.705 -0.2724  0.1243  0.0524
 3377PP      PP13481   2.576   0.293   3.237  0.2309  0.0704 -0.4559
 3378PP      PP13482  13.386   3.150  10.669 -0.0197  0.1116  0.0243
 3379PP      PP13483   3.037  12.805   3.662  0.1401 -0.1127  0.1524
 3380PP      PP13484   9.809   1.894   2.128 -0.0157  0.1410 -0.2226
 3381PP      PP13485   5.060  15.301  12.581 -0.1725 -0.0567 -0.0745
 3382PP      PP13486  12.270   2.694  10.579  0.0480  0.3759 -0.2514
 3383PP      PP13487   7.490   7.124   3.611  0.1398  0.2053  0.0897
 3384PP      PP13488   5.136  10.040   1.929 -0.0443  0.1738  0.0506
 3385PP      PP13489   7.127   4.233  11.680  0.0102  0.1775  0.1404
 3386PP      PP13490   7.007  14.807   1.319 -0.1248  0.2356 -0.1077
 3387PP      PP13491   0.764  13.561   0.193 -0.3007  0.0947  0.2229
 3388PP      PP13492  13.004   4.958  13.614 -0.1472  0.1119  0.0604
 3389PP      PP13493  14.079   2.917   9.415 -0.1796  0.1347  0.2390
 3390PP      PP13494  13.302  11.155  10.333 -0.2711 -0.3348 -0.2933
 3391PP      PP13495   9.350   2.573   9.445 -0.2516  0.5871  0.1067
 3392PP      PP13496  14.679  11.101   0.024 -0.0880  0.1271  0.1736
 3393PP      PP13497   7.991   5.985   0.414 -0.1762  0.2081 -0.0658
 3394PP      PP13498  12.119   6.173  12.052  0.0982  0.0429 -0.0276
 3395PP      PP13499   5.605   7.852   8.993 -0.2233  0.2218  0.3439
 3396PP      PP13500   2.221   4.962   3.541  0.2547 -0.0705 -0.2905
 3397PP      PP13501   7.094   8.447   9.134  0.2993  0.2813 -0.0101
 3398PP      PP13502   7.891  11.487   1.177 -0.3699 -0.1601 -0.0628
 3399PP      PP13503   7.368   4.897   9.689 -0.2594  0.0390 -0.3085
 3400PP      PP13504  10.391   9.139   1.249  0.2241 -0.0127  0.0193
 3401PP      PP13505  11.723   0.765  11.330  0.0943  0.1908  0.0923
 3402PP      PP13506  10.812   6.544   2.252  0.2089  0.1050 -0.1287
 3403PP      PP13507   4.301   6.290   3.824  0.1952  0.1256  0.2556
 3404PP      PP13508   5.780   6.108   0.481  0.2449 -0.1221  0.0335
 3405PP      PP13509   1.430   0.799  10.134 -0.1914 -0.2181 -0.2211
 3406PP      PP13510  14.878  10.986   3.947  0.3472  0.3624  0.3056
 3407PP      PP13511   9.658   2.917  10.341 -0.0357 -0.0565  0.3129
 3408PP      PP13512   6.487   2.236   1.916 -0.1488  0.0397 -0.2344
 3409PP      PP13513  15.361   6.522   3.589 -0.0056  0.2907 -0.2243
 3410PP      PP13514   9.435   9.145  12.737 -0.2057 -0.1108  0.0633
 3411PP      PP13515   5.767   2.076   8.333 -0.1744  0.1747  0.0188
 3412PP      PP13516   5.165   7.154   1.372 -0.3444  0.1496 -0.0933
 3413PP      PP13517  13.170   1.172   4.264 -0.1569 -0.0657  0.2001
 3414PP      PP13518   2.731  15.176  11.262 -0.2115 -0.1427 -0.0360
 3415PP      PP13519   9.714   6.904  13.179 -0.1160 -0.0067  0.2761
 3416PP      PP13520  14.862  13.662  10.187 -0.1009  0.0522  0.0439
 3417PP      PP13521   3.958   0.325  12.533 -0.0763 -0.0398  0.0879
 3418PP      PP13522   3.446   4.353   9.989  0.4522 -0.0700  0.1132
 3419PP      PP13523   3.626   0.713   3.995 -0.0643  0.0048  0.0162
 3420PP      PP13524   3.639  12.385  10.509 -0.0322  0.0654 -0.2415
 3421PP      PP13525  12.788   4.147  11.579  0.2949 -0.1063 -0.1061
 3422PP      PP13526  13.414   1.408  12.417  0.1039  0.3226  0.0819
 3423PP      PP13527  15.158  11.038  10.113 -0.1629 -0.2062 -0.0953
 3424PP      PP13528   4.620   7.042   4.317  0.0910 -0.0448 -0.1089
 3425PP      PP13529   9.511   8.838   4.780 -0.0969 -0.1122  0.0382
 3426PP      PP13530   7.738  11.423  10.833  0.0606  0.2481 -0.3934
 3427PP      PP13531   2.898  14.384   1.483 -0.0450 -0.3285  0.2394
 3428PP      PP13532   2.212   9.444   0.147 -0.1505  0.1386 -0.2107
 3429PP      PP13533   9.127  12.588  11.576 -0.0362  0.3195  0.2705
 3430PP      PP13534  12.641   8.128  11.910  0.1694 -0.0890  0.1873
 3431PP      PP13535   1.859   2.000  12.843  0.0257  0.2473  0.2840
 3432PP      PP13536  12.809  14.970  10.057  0.1425 -0.0156  0.0597
 3433PP      PP13537   4.196   8.736   1.573  0.1781 -0.0768 -0.4810
 3434PP      PP13538   2.402   6.386   1.281  0.1318  0.3502  0.3807
 3435PP      PP13539   0.577   7.340  12.905  0.0878  0.1805 -0.0090
 3436PP      PP13540   0.755  12.379  11.409  0.0260 -0.0751  0.0194
 3437PP      PP13541  15.302   7.594   4.170  0.3146 -0.2380 -0.4358
 3438PP      PP13542   5.691   1.900   1.334 -0.1341  0.2195  0.0992
 3439PP      PP13543   9.837   5.963   0.451 -0.1038  0.0578 -0.1162
 3440PP      PP13544  12.355  13.304   2.297 -0.0450 -0.0552  0.0269
 3441PP      PP13545   9.331   2.060  10.351  0.4270  0.0880 -0.1524
 3442PP      PP13546   3.644   3.830  10.018 -0.3752 -0.3368 -0.0110
 3443PP      PP13547   0.682   5.217   9.768 -0.2067  0.5146  0.2156
 3444PP      PP13548   5.604   3.373   1.975 -0.0291  0.1311 -0.1376
 3445PP      PP13549  11.669  12.911   4.045  0.1057  0.4009 -0.2741
 3446PP      PP13550   7.196   5.293   0.062 -0.4123  0.0255  0.0372
 3447PP      PP13551   2.532  15.083   8.524 -0.1109 -0.1103  0.0962
 3448PP      PP13552  15.664   2.318  12.705 -0.1959  0.3690 -0.3758
 3449PP      PP13553   6.919   5.197  10.438 -0.1697  0.2024  0.1351
 3450PP      PP13554  12.715   9.645   5.465 -0.1006  0.1367 -0.0416
 3451PP      PP13555   8.963  14.363   3.457 -0.4413  0.0162 -0.0126
 3452PP      PP13556  14.594   3.779  10.829 -0.0950  0.0087  0.0751
 3453PP      PP13557  14.937   2.405   3.556 -0.0499 -0.0680 -0.0675
 3454PP      PP13558  13.293   0.046   4.855  0.0005 -0.0355  0.1617
 3455PP      PP13559   7.126  10.431  12.901  0.1526  0.1410  0.1351
 3456PP      PP13560  13.558  10.421  13.490  0.2280  0.0177  0.2430
 3457PP      PP13561   4.880  15.270  11.656 -0.1317  0.0722  0.0713
 3458PP      PP13562  11.190   3.740   2.434  0.0543 -0.0963  0.2022
 3459PP      PP13563   6.521   7.208   8.964  0.0576  0.0017  0.1643
 3460PP      PP13564  15.334   2.427   4.044  0.2333 -0.1498  0.1824
 3461PP      PP13565  11.797   1.956   8.632 -0.0327 -0.1385 -0.1036
 3462PP      PP13566   8.601   9.626   9.646 -0.0933 -0.3262  0.0967
 3463PP      PP13567   4.668  15.238   3.447 -0.0154 -0.6172  0.0021
 3464PP      PP13568   8.184   4.400  13.628 -0.3155 -0.3006 -0.0746
 3465PP      PP13569  10.379  12.651   4.793 -0.0226  0.1494  0.2760
 3466PP      PP13570  12.863  13.119  10.330 -0.1433  0.3969  0.1310
 3467PP      PP13571   7.070   1.764  12.891 -0.2308  0.1169  0.0096
 3468PP      PP13572   2.574   4.356   9.785 -0.2142  0.1494  0.1805
 3469PP      PP13573   7.249   1.705  11.208 -0.4715 -0.1862  0.1088
 3470PP      PP13574   5.270   8.073   3.084 -0.1352  0.1562 -0.2009
 3471PP      PP13575   3.173  10.485  13.171  0.0406 -0.0939  0.0668
 3472PP      PP13576   5.165  14.559  12.059  0.1493 -0.1925 -0.4260
 3473PP      PP13577  10.570   9.156   2.195 -0.0299 -0.2839  0.2038
 3474PP      PP13578   2.002   8.512  10.998  0.1443 -0.1787 -0.0442
 3475PP      PP13579   2.282   5.396  11.301  0.3534 -0.0864 -0.1425
 3476PP      PP13580  13.915   5.163  12.849 -0.1029 -0.0844 -0.1331
 3477PP      PP13581  10.912  14.953   4.400 -0.0813 -0.1774 -0.2444
 3478PP      PP13582   4.205  13.759   1.560 -0.0561  0.1353 -0.1249
 3479PP      PP13583  15.327   8.899   1.959  0.2235 -0.1132  0.2033
 3480PP      PP13584  11.238  10.562  11.113  0.0346 -0.2542 -0.1777
 3481PP      PP13585  11.837   7.737  11.970 -0.0981  0.0417 -0.1469
 3482PP      PP13586   3.422  10.572  11.512  0.1419 -0.0775  0.0193
 3483PP      PP13587   0.615  10.415  11.311 -0.1093 -0.1007 -0.2264
 3484PP      PP13588   2.515   5.329   9.661  0.0990 -0.2291  0.3415
 3485PP      PP13589  13.269   1.593   9.231  0.0736  0.1551  0.0990
 3486PP      PP13590   5.029   4.254   0.323 -0.0885  0.1355 -0.2630
 3487PP      PP13591   1.539   3.614   8.394  0.3443 -0.0488 -0.0041
 3488PP      PP13592   1.217  12.869   0.160 -0.2940  0.0807  0.4666
 3489PP      PP13593   0.024  13.676  11.617 -0.1576  0.0507 -0.2417
 3490PP      PP13594  10.957   2.851   9.939  0.3292 -0.2546  0.0463
 3491PP      PP13595   8.715   4.003   9.930  0.1727 -0.0076  0.1309
 3492PP      PP13596  14.249  12.948   1.814 -0.3012 -0.1915  0.1478
 3493PP      PP13597   8.370   7.833  12.636 -0.1040 -0.1455 -0.1083
 3494PP      PP13598  14.724   7.068   4.655 -0.4029 -0.1310 -0.0200
 3495PP      PP13599  10.093  11.948  12.394  0.0416 -0.1177  0.0823
 3496PP      PP13600   8.378   6.144   2.491  0.1997  0.1164  0.0954
 3497PP      PP13601  12.327  14.966  10.250 -0.1240 -0.1256 -0.1872
 3498PP      PP13602  13.583  12.979   2.386 -0.0112 -0.1221  0.2545
 3499PP      PP13603  13.731  15.050  10.095  0.4289  0.0119 -0.1790
 3500PP      PP13604   5.244   1.884   9.859  0.2123  0.5576 -0.1636
 3501PP      PP13605  10.850  10.072   0.237 -0.0715  0.0142 -0.1487
 3502PP      PP13606  10.376  13.450   3.155  0.1828 -0.1205 -0.5370
 3503PP      PP13607  10.732   7.299   1.767 -0.0649 -0.1834  0.1637
 3504PP      PP13608  11.159  10.249   4.538 -0.1876  0.2411 -0.0557
 3505PP      PP13609   8.980   5.085   2.273  0.0220  0.3606  0.0732
 3506PP      PP13610   0.465  14.058   4.544  0.1249  0.0802 -0.0381
 3507PP      PP13611   6.459  10.274   3.404  0.0383 -0.2353  0.1621
 3508PP      PP13612   4.744   8.814   1.254 -0.2824  0.1255  0.0046
 3509PP      PP13613  12.887   6.524  10.103 -0.0373  0.0117  0.1324
 3510PP      PP13614  13.651   4.578  10.623  0.0779 -0.1827  0.0969
 3511PP      PP13615   8.720   7.416  13.061 -0.1652 -0.2223 -0.0868
 3512PP      PP13616   6.426   7.716   9.521 -0.2700 -0.0868  0.0336
 3513PP      PP13617   2.874   4.442   1.484 -0.0272 -0.3867  0.1102
 3514PP      PP13618  13.400   0.025  13.359  0.1548 -0.0235  0.2230
 3515PP      PP13619   0.203   7.861  10.912  0.0616 -0.1314  0.0492
 3516PP      PP13620  10.443   7.652   1.410 -0.0587  0.1351 -0.2042
 3517PP      PP13621   6.620  13.335  12.143  0.4939  0.1368  0.2253
 3518PP      PP13622   5.804   6.436   1.331  0.1925 -0.1773  0.2032
 3519PP      PP13623   2.676   6.984   0.205 -0.2142 -0.1945  0.2895
 3520PP      PP13624   3.710   1.698   9.359  0.0683  0.0825  0.0872
 3521PP      PP13625  12.575   2.555   9.217  0.1764  0.1762 -0.1303
 3522PP      PP13626  10.726   6.294  13.085 -0.2394  0.2140 -0.0007
 3523PP      PP13627   6.682  10.840   1.822 -0.0874 -0.0604 -0.2371
 3524PP      PP13628   0.228   5.654   9.004 -0.1120 -0.3746 -0.0199
 3525PP      PP13629   0.079   0.427   4.178  0.0027 -0.1540 -0.1310
 3526PP      PP13630   3.447  11.681   0.588 -0.0073 -0.0198  0.0961
 3527PP      PP13631   1.828   0.926  11.633  0.2170  0.0182 -0.2554
 3528PP      PP13632   9.250   7.280   4.293 -0.2128 -0.1546  0.0314
 3529PP      PP13633  14.479  12.480   2.263  0.2159 -0.0693 -0.0491
 3530PP      PP13634   8.295   8.579   1.103  0.3833 -0.0416 -0.1249
 3531PP      PP13635   2.174   7.374   1.340  0.0305  0.1105 -0.0393
 3532PP      PP13636   5.793   4.613  10.700  0.0087 -0.0623  0.0788
 3533PP      PP13637   8.151   3.827  12.153  0.1083 -0.2377 -0.1137
 3534PP      PP13638   3.295   5.760   9.857  0.0089 -0.1165 -0.0893
 3535PP      PP13639  15.573  10.518   3.018 -0.2758  0.1179  0.0705
 3536PP      PP13640   5.323   3.161  12.235  0.1472 -0.2042 -0.0114
 3537PP      PP13641   0.542  10.559  13.178  0.0399 -0.3350  0.0952
 3538PP      PP13642  10.817  14.315  11.040 -0.5654 -0.0818 -0.2766
 3539PP      PP13643  10.677   5.611   9.639  0.0446  0.0648  0.0608
 3540PP      PP13644   2.586   2.329   0.765 -0.2523  0.0662 -0.4332
 3541PP      PP13645  10.477   6.813   1.694 -0.2617 -0.1214  0.3362
 3542PP      PP13646   1.277  13.361  12.764 -0.1415 -0.0758  0.0344
 3543PP      PP13647   4.319   4.615  13.169  0.2131 -0.0825 -0.1777
 3544PP      PP13648  15.708   5.779   3.876  0.1838 -0.0060 -0.1343
 3545PP      PP13649   0.518  11.340   9.083  0.1024  0.0548  0.0245
 3546PP      PP13650   9.191  13.880   2.985 -0.1237 -0.2910 -0.1445
 3547PP      PP13651   2.766   1.750   4.170  0.3071 -0.2288 -0.1008
 3548PP      PP13652   6.223   2.201   7.620  0.2107 -0.1585 -0.2794
 3549PP      PP13653   3.397  10.720   1.313  0.0011 -0.2410  0.1012
 3550PP      PP13654   4.837  10.287   3.484  0.0642 -0.1076 -0.1228
 3551PP      PP13655  10.642   7.058  11.201  0.5802  0.2562 -0.1978
 3552PP      PP13656  15.498  13.975   8.751  0.0108 -0.2431  0.0468
 3553PP      PP13657  10.661   9.418   2.702  0.0014  0.1703 -0.1774
 3554PP      PP13658   9.841   6.605   1.225  0.0218  0.1571  0.1353
 3555PP      PP13659  13.901   9.026  11.177  0.3372  0.3586 -0.2294
 3556PP      PP13660  13.817   1.579   2.163 -0.0054 -0.0777  0.2674
 3557PP      PP13661  11.773   6.903  12.328 -0.0498  0.0869 -0.0403
 3558PP      PP13662   7.902  11.988  13.757 -0.3968 -0.0219  0.2202
 3559PP      PP13663   0.149   8.495  13.549  0.2523  0.1341  0.2148
 3560PP      PP13664   0.581   4.247   0.925 -0.2228 -0.0615 -0.1039
 3561PP      PP13665   8.747  11.165  12.833  0.2448 -0.0347 -0.3243
 3562PP      PP13666   8.560   3.210  13.008  0.0024 -0.0392  0.0594
 3563PP      PP13667   5.758  14.866  13.207  0.3663 -0.2319 -0.1110
 3564PP      PP13668  10.950   5.154   1.620  0.3888  0.0837 -0.2350
 3565PP      PP13669   8.542   9.023  11.931  0.0239 -0.1107  0.0457
 3566PP      PP13670   9.786  12.341   2.003  0.2464 -0.1556  0.3066
 3567PP      PP13671   1.697  12.102  12.887 -0.0164  0.2098 -0.1552
 3568PP      PP13672  11.358   9.887  10.324  0.0570 -0.0748 -0.2282
 3569PP      PP13673   4.481   6.294  10.641 -0.1822  0.1542 -0.1822
 3570PP      PP13674   2.234   8.256  12.093 -0.0303  0.2990 -0.1239
 3571PP      PP13675   6.477  11.681   1.511  0.3361 -0.0692 -0.3578
 3572PP      PP13676   2.218  10.178   1.840  0.0243  0.2455 -0.2738
 3573PP      PP13677  13.254  15.032   3.945 -0.2063 -0.2947  0.1031
 3574PP      PP13678   4.846  12.575  12.825  0.1604  0.0435 -0.0884
 3575PP      PP13679   6.259  15.469  10.565 -0.0321 -0.2711 -0.0896
 3576PP      PP13680  11.959   3.446   0.814 -0.1448 -0.0530  0.3448
 3577PP      PP13681  14.229   3.508   1.493 -0.0489 -0.1584 -0.1028
 3578PP      PP13682  14.185  14.616  12.198 -0.0530  0.2518  0.1067
 3579PP      PP13683   7.712   9.520  12.255 -0.1980 -0.0526  0.1658
 3580PP      PP13684  15.362   1.107  10.152  0.2052  0.2035 -0.1897
 3581PP      PP13685  10.269  12.807   4.337 -0.1406 -0.1300  0.0527
 3582PP      PP13686   4.404   5.323   3.644  0.5735 -0.3626  0.2406
 3583PP      PP13687  15.048   0.801  10.507  0.1702  0.2370  0.0881
 3584PP      PP13688   3.732   3.013   1.405 -0.0514  0.0766 -0.1332
 3585PP      PP13689   5.647   5.392  12.956 -0.0345 -0.0118 -0.1540
 3586PP      PP13690  13.417  13.341  13.412 -0.3310  0.2720 -0.5159
 3587PP      PP13691   9.622   9.553  10.922 -0.2229  0.1816  0.1503
 3588PP      PP13692   8.024  12.048  13.015 -0.0135  0.2172  0.1135
 3589PP      PP13693   4.968   5.749  11.157 -0.0238 -0.0077 -0.0398
 3590PP      PP13694   6.597  12.543   2.123 -0.0224 -0.1190  0.0645
 3591PP      PP13695   0.029  12.291   2.715  0.0195  0.2880 -0.0515
 3592PP      PP13696  10.812   2.399  10.269  0.1702 -0.0827 -0.1926
 3593PP      PP13697   5.554  10.012   2.953  0.3708 -0.1859 -0.1476
 3594PP      PP13698   6.269  10.728  11.054  0.1507 -0.0546 -0.2413
 3595PP      PP13699  13.641   3.916  11.841 -0.0025  0.1064  0.2828
 3596PP      PP13700   6.998   5.328   7.566  0.1555  0.2442 -0.1439
 3597PP      PP13701   8.097   9.854   9.462  0.0563  0.1099  0.3297
 3598PP      PP13702   0.345  11.978  13.140 -0.1109 -0.1122 -0.0306
 3599PP      PP13703   4.409   1.457   8.591  0.3820 -0.2531  0.3260
 3600PP      PP13704  12.010   0.562   2.694 -0.0939  0.1652 -0.1479
 3601PP      PP13705  15.533  12.579   0.114 -0.0495 -0.0562  0.0798
 3602PP      PP13706   6.040   1.015   2.786  0.0291 -0.0679  0.1980
 3603PP      PP13707   8.496  10.039  13.278  0.2161  0.2826  0.2108
 3604PP      PP13708   6.879   4.499   1.294  0.0278  0.2058 -0.0823
 3605PP      PP13709   4.879   9.763   9.934  0.1551  0.3237  0.0138
 3606PP      PP13710  15.624   4.998  10.792  0.0483 -0.0686  0.2820
 3607PP      PP13711   7.793   2.123   1.710  0.1537 -0.0053 -0.4494
 3608PP      PP13712   3.236   4.772   1.535 -0.0379  0.1636 -0.2117
 3609PP      PP13713   4.540   3.871   3.690  0.0887  0.0027 -0.1072
 3610PP      PP13714   5.001  14.536   4.292  0.0621  0.0239 -0.0720
 3611PP      PP13715   8.883   8.155   0.029  0.2842 -0.0964  0.1228
 3612PP      PP13716   1.499   0.234  13.493 -0.0802  0.2757 -0.0076
 3613PP      PP13717  14.551   5.038   0.314 -0.0902  0.1374  0.3334
 3614PP      PP13718  10.696  15.378  11.477 -0.4627 -0.2589  0.0192
 3615PP      PP13719   6.983   4.879   3.089 -0.1784 -0.1842 -0.2745
 3616PP      PP13720   6.409  13.813   1.411  0.1727  0.0882  0.0854
 3617PP      PP13721  10.960   7.075  12.781  0.2935  0.1000  0.4336
 3618PP      PP13722   3.948  15.596  10.304 -0.0218  0.1394  0.0541
 3619PP      PP13723  14.986   8.900   0.720 -0.1537 -0.0238  0.0846
 3620PP      PP13724  14.756   4.645  13.144  0.1831 -0.1525 -0.0462
 3621PP      PP13725   0.437  14.802   0.287 -0.3426 -0.1479  0.1353
 3622PP      PP13726  15.695   8.901   3.277  0.2557  0.0792  0.3712
 3623PP      PP13727   3.782  15.026   9.161  0.3713  0.2545  0.0635
 3624PP      PP13728   6.658  14.643   9.945 -0.1474  0.3160 -0.3178
 3625PP      PP13729   7.843   8.915  12.703  0.0354 -0.0425 -0.0111
 3626PP      PP13730   7.632   5.467  12.630  0.2690 -0.3220 -0.0336
 3627PP      PP13731   7.722  10.254  12.319 -0.0198 -0.1397 -0.1193
 3628PP      PP13732   1.706  13.380   0.010  0.0811 -0.3860  0.2464
 3629PP      PP13733  12.370   2.176   3.693 -0.0232 -0.2796 -0.1275
 3630PP      PP13734   5.330  13.040   1.718  0.1860 -0.1576  0.0478
 3631PP      PP13735   6.528  10.703   0.226  0.2178  0.2734 -0.1759
 3632PP      PP13736  12.813   1.462   3.363  0.2551 -0.1972 -0.1771
 3633PP      PP13737   6.782  11.964   4.809  0.0364  0.1631 -0.0261
 3634PP      PP13738  14.727  12.643   9.766 -0.3411 -0.0924  0.1150
 3635PP      PP13739   1.257   1.408   4.149 -0.0474  0.0737  0.0031
 3636PP      PP13740  12.584   4.574   0.883 -0.1153 -0.1924  0.0456
 3637PP      PP13741  14.774  11.723  11.663 -0.1231 -0.0129  0.0368
 3638PP      PP13742  15.204   0.449  10.934  0.2593  0.3715 -0.1244
 3639PP      PP13743  10.623   9.217  10.668  0.2648 -0.0808  0.2967
 3640PP      PP13744  15.272   1.468  12.778  0.2418 -0.4365  0.1176
 3641PP      PP13745  10.035  14.990  13.294  0.0929  0.3233  0.0361
 3642PP      PP13746  14.307  14.029   4.057  0.1795  0.0180  0.1206
 3643PP      PP13747  15.333   2.931   0.095 -0.1144 -0.1199 -0.1888
 3644PP      PP13748   4.558  10.100  12.118 -0.0038 -0.0585 -0.1721
 3645PP      PP13749  11.139   7.267   4.381  0.4393  0.1254  0.2533
 3646PP      PP13750   9.279   5.470   1.892  0.1892  0.1683 -0.2157
 3647PP      PP13751  12.957  13.483  12.595  0.1762 -0.2699  0.0133
 3648PP      PP13752   7.305  11.074   4.142 -0.2718 -0.1266 -0.0732
 3649PP      PP13753   5.253  15.602  11.169  0.1402 -0.0468  0.1481
 3650PP      PP13754  11.728   7.841   4.245 -0.1372  0.0983 -0.1060
 3651PP      PP13755  13.037   1.232  10.600 -0.0141 -0.2176 -0.0278
 3652PP      PP13756   5.345  12.502   9.783 -0.2366  0.3969 -0.1491
 3653PP      PP13757   4.078   6.873   2.156 -0.1848 -0.3871  0.0963
 3654PP      PP13758   6.718   0.353  11.516 -0.1256  0.0443 -0.2068
 3655PP      PP13759  11.654  13.881  12.012  0.2541  0.3352 -0.0265
 3656PP      PP13760   7.466   6.548   9.804  0.1294 -0.1928  0.1336
 3657PP      PP13761  11.114   0.761   1.642  0.1390  0.0218 -0.0817
 3658PP      PP13762  12.867  14.556  12.236  0.0728 -0.2069 -0.2546
 3659PP      PP13763  13.632   4.764  12.227  0.1222  0.0714  0.4606
 3660PP      PP13764  12.621  13.808  13.324 -0.2928  0.0694  0.1670
 3661PP      PP13765   3.605  11.438   2.420  0.1052  0.0088 -0.0837
 3662PP      PP13766   9.167   8.742  13.762  0.0161  0.5733 -0.0872
 3663PP      PP13767   7.814   5.490  13.078 -0.0938 -0.1913 -0.2010
 3664PP      PP13768   3.226   3.758  10.377 -0.0463  0.3117  0.0969
 3665PP      PP13769   1.645   2.762  11.816 -0.0054 -0.3058  0.2725
 3666PP      PP13770   7.532   9.817   9.398  0.4724  0.2223 -0.1855
 3667PP      PP13771   3.044   1.472  11.448 -0.1105  0.1358 -0.0697
 3668PP      PP13772   6.694  10.678   1.343  0.0592 -0.0923  0.2744
 3669PP      PP13773  14.724  15.587  13.151  0.6100  0.2069 -0.0237
 3670PP      PP13774  14.228   1.927   2.119  0.0801  0.2123  0.0147
 3671PP      PP13775   0.834   4.160  12.396 -0.0317  0.0084  0.1987
 3672PP      PP13776  10.913  14.132  13.151 -0.1483 -0.1094 -0.0735
 3673PP      PP13777  13.732   7.393  10.791 -0.1772 -0.2519  0.1256
 3674PP      PP13778   7.087   0.347   9.803  0.2832 -0.1617 -0.0789
 3675PP      PP13779   0.223  11.732   4.519  0.1023  0.1022  0.0584
 3676PP      PP13780  14.793  15.668   8.627 -0.0623  0.0940  0.2450
 3677PP      PP13781   5.715  12.016   2.481 -0.0683 -0.0939  0.1944
 3678PP      PP13782   9.952   1.578  11.519  0.4061 -0.1593  0.2387
 3679PP      PP13783   6.345   8.772  12.593 -0.1556  0.1272  0.0958
 3680PP      PP13784   5.600   1.869  11.481 -0.2681 -0.4821 -0.0556
 3681PP      PP13785   2.457   1.203   3.436 -0.1528 -0.0368  0.1707
 3682PP      PP13786   0.754   5.703  13.584  0.1802 -0.0044  0.0836
 3683PP      PP13787   9.102  13.248   4.647  0.0707 -0.0984 -0.2440
 3684PP      PP13788  12.535  10.222  11.542  0.4020 -0.1747  0.1861
 3685PP      PP13789   4.408   4.045   1.711  0.1261  0.0857 -0.2789
 3686PP      PP13790  15.205   0.528  12.625 -0.2859  0.3624  0.3398
 3687PP      PP13791   9.394   0.130  11.075 -0.0106 -0.0634  0.1622
 3688PP      PP13792  14.860   1.882   4.291  0.0192 -0.0567  0.0987
 3689PP      PP13793   4.454   3.227   8.416  0.2244 -0.0317  0.1751
 3690PP      PP13794  11.103   2.814  12.955  0.3130 -0.1885  0.0193
 3691PP      PP13795  14.037  15.297   8.733 -0.0671 -0.0396 -0.0352
 3692PP      PP13796   9.465   2.591  12.083 -0.2385  0.0508 -0.3066
 3693PP      PP13797  12.841  10.300   1.784  0.3143 -0.0887 -0.0331
 3694PP      PP13798  13.978   8.678   4.467 -0.1385  0.1713  0.0188
 3695PP      PP13799  10.665   1.294  12.708  0.0015 -0.4019 -0.1856
 3696PP      PP13800   3.191   6.203   0.285 -0.2317 -0.1311  0.0732
 3697PP      PP13801  12.678   6.713  11.391  0.2319  0.5530  0.0771
 3698PP      PP13802   2.158  15.225   1.857 -0.0012 -0.0445  0.0998
 3699PP      PP13803   3.606   7.675   8.692 -0.0096  0.0949 -0.1145
 3700PP      PP13804   5.338   2.207  10.830  0.1441  0.0612  0.2703
 3701PP      PP13805  13.047   7.517   9.854  0.0164 -0.1253  0.0069
 3702PP      PP13806  12.311   8.326   2.286 -0.0145  0.0307 -0.0096
 3703PP      PP13807   5.439  11.045  10.694 -0.0415  0.1973  0.2053
 3704PP      PP13808   9.681  12.605   5.048  0.3596  0.0036  0.0581
 3705PP      PP13809   8.686   9.292   2.803 -0.1861 -0.0091  0.4171
 3706PP      PP13810  15.498   2.620   3.015 -0.2336 -0.1178 -0.1542
 3707PP      PP13811   2.853  14.444  10.561  0.3157 -0.1850 -0.2000
 3708PP      PP13812   5.433  12.498   1.156  0.0760 -0.1880  0.1479
 3709PP      PP13813   7.533   2.897   0.282 -0.3534  0.0925  0.1994
 3710PP      PP13814   8.607   2.877   2.741  0.1056  0.2254  0.2746
 3711PP      PP13815   9.912   5.277   1.272 -0.1220 -0.0633 -0.2416
 3712PP      PP13816  15.199  12.955   5.038  0.0584  0.1243 -0.5051
 3713PP      PP13817  14.933   6.805   3.399 -0.2203 -0.2266  0.2714
 3714PP      PP13818  10.127   3.165   2.526 -0.0427 -0.2411  0.5206
 3715PP      PP13819   0.217  13.602   3.515  0.0035  0.0587 -0.2181
 3716PP      PP13820   5.597   4.717  10.271  0.0833 -0.0957  0.2737
 3717PP      PP13821   9.674  13.234  11.791  0.0567  0.0023 -0.0860
 3718PP      PP13822  13.587  12.984   9.130  0.0488  0.3053  0.0461
 3719PP      PP13823  12.403  11.811  11.442  0.2972 -0.0637  0.0561
 3720PP      PP13824  10.454  10.177   3.386 -0.0535 -0.0711  0.0403
 3721PP      PP13825   3.063  13.932  12.522  0.0736 -0.2045 -0.0537
 3722PP      PP13826   9.474   9.240   0.738  0.1222  0.0891  0.0806
 3723PP      PP13827  13.801   8.165   1.966  0.0050 -0.2773 -0.1730
 3724PP      PP13828   4.325   3.980   0.880 -0.3520 -0.1698  0.1310
 3725PP      PP13829  13.723   2.520   2.929  0.2019 -0.2170  0.1508
 3726PP      PP13830   7.536  12.959   1.059  0.2490  0.0283  0.1955
 3727PP      PP13831   4.472  14.108   1.324 -0.0256 -0.2319  0.2295
 3728PP      PP13832   4.305   6.394   9.622  0.1058 -0.0283 -0.0364
 3729PP      PP13833   2.862   8.025   1.523  0.0029  0.1173 -0.2653
 3730PP      PP13834   8.053   7.452  12.445 -0.1386  0.2947  0.1294
 3731PP      PP13835   9.919  14.063  13.651 -0.1677 -0.2842 -0.3610
 3732PP      PP13836  12.802   4.643   4.314 -0.2096  0.0076  0.1477
 3733PP      PP13837   9.977   5.054   2.582  0.2774  0.4742  0.1143
 3734PP      PP13838   6.167   4.858  11.029  0.0858 -0.0967  0.0144
 3735PP      PP13839   8.086   4.544   7.571 -0.4336 -0.0974  0.1117
 3736PP      PP13840   4.988   1.549  11.966  0.1622 -0.0994  0.0976
 3737PP      PP13841   6.707   6.842   0.813 -0.2491 -0.0637 -0.3797
 3738PP      PP13842   8.948   9.946   3.295  0.2797  0.1323  0.1161
 3739PP      PP13843   9.461  14.791   4.430 -0.0997  0.0683 -0.2698
 3740PP      PP13844  13.758   0.474   2.854 -0.1836 -0.2889  0.2693
 3741PP      PP13845   4.969   4.846  13.508 -0.0255 -0.2042  0.1158
 3742PP      PP13846  12.265   0.544  11.922  0.0756  0.1672 -0.1832
 3743PP      PP13847   5.415   2.462  10.355 -0.1394  0.2375  0.1460
 3744PP      PP13848   0.162   9.349   3.613 -0.1162  0.3644  0.4511
 3745PP      PP13849   8.429   4.752   7.860 -0.0463  0.0464 -0.0557
 3746PP      PP13850  12.568   1.646   2.943 -0.0811  0.1289  0.0560
 3747PP      PP13851   8.853  12.788   4.548 -0.1477 -0.3664 -0.1626
 3748PP      PP13852  14.051   5.088  12.370  0.0405 -0.0184 -0.1105
 3749PP      PP13853   9.935   1.404   3.337 -0.2171  0.0148  0.2038
 3750PP      PP13854   7.236  10.196  13.380  0.1575  0.1796  0.0932
 3751PP      PP13855  11.744  12.671   0.063  0.0387 -0.2745  0.0294
 3752PP      PP13856   8.990   3.224   2.142 -0.1580  0.0551 -0.1650
 3753PP      PP13857   3.795   5.052   2.409 -0.3675 -0.1966 -0.1751
 3754PP      PP13858   2.098  10.349   2.891 -0.1935 -0.0248 -0.1474
 3755PP      PP13859  13.276  14.305   9.595 -0.4196  0.0477  0.0268
 3756PP      PP13860   8.386   7.073   3.071  0.1528  0.1328 -0.3870
 3757PP      PP13861   9.652   1.545   1.793 -0.2887 -0.1091 -0.2133
 3758PP      PP13862   0.157   4.103  10.252 -0.3742  0.1353 -0.0034
 3759PP      PP13863   0.511   4.503  13.440 -0.0231 -0.2619  0.2763
 3760PP      PP13864   7.590   2.840   2.339 -0.0639  0.0616  0.2105
 3761PP      PP13865  14.409   9.575   1.167  0.1120  0.2685 -0.0007
 3762PP      PP13866   0.485   4.770   0.823 -0.0550 -0.0725 -0.0835
 3763PP      PP13867   4.149  11.031   9.798 -0.1253  0.0677 -0.3286
 3764PP      PP13868   2.283  13.506  13.130 -0.0759 -0.1050  0.0251
 3765PP      PP13869   2.262  13.216   3.869  0.1362 -0.1458 -0.2123
 3766PP      PP13870   0.365   2.973   9.673 -0.0022  0.0984 -0.2629
 3767PP      PP13871   0.650  10.564   0.812 -0.0908 -0.0225  0.1851
 3768PP      PP13872  13.581  13.033   1.248  0.0823  0.1986 -0.1039
 3769PP      PP13873   3.672   5.123  11.678 -0.0191 -0.0600 -0.0845
 3770PP      PP13874   6.825  13.346  11.683 -0.2340 -0.1969  0.0392
 3771PP      PP13875   6.992  10.509   0.332  0.0755 -0.1613  0.0453
 3772PP      PP13876   3.937   0.838   2.792 -0.2089  0.2189 -0.0221
 3773PP      PP13877  14.606  10.470  10.222 -0.2536  0.0177  0.2562
 3774PP      PP13878   3.591  11.092   0.523  0.0803 -0.1874 -0.0096
 3775PP      PP13879   4.193   6.821   9.346  0.0807 -0.0862  0.0831
 3776PP      PP13880   7.283   7.656   1.898  0.0458 -0.1179 -0.1748
 3777PP      PP13881  14.074  15.505   1.572  0.1452  0.0660 -0.2609
 3778PP      PP13882  13.879  14.618   0.614 -0.2044 -0.1369 -0.1600
 3779PP      PP13883   3.491   7.390   3.492 -0.0688 -0.1284 -0.0372
 3780PP      PP13884  11.829  12.755  13.300 -0.0918 -0.0001  0.0510
 3781PP      PP13885   1.796  14.229  12.813 -0.1015 -0.0054 -0.0671
 3782PP      PP13886   6.648   4.668  10.448 -0.2847 -0.1048 -0.3906
 3783PP      PP13887   3.541  14.882   1.954  0.3597 -0.1590  0.1042
 3784PP      PP13888   4.567   7.203   3.795 -0.1132  0.3637  0.3002
 3785PP      PP13889   7.979  13.984   2.864 -0.3144 -0.1129  0.0418
 3786PP      PP13890  13.848   4.805   4.455 -0.0806 -0.2240  0.0670
 3787PP      PP13891   6.267   9.814  13.523  0.0642  0.0338  0.0684
 3788PP      PP13892  14.846   7.368   1.260  0.1465 -0.0888 -0.3170
 3789PP      PP13893  15.198   4.613   0.487 -0.2630  0.0637  0.2891
 3790PP      PP13894   3.540  12.436  12.835  0.0360 -0.0863  0.0101
 3791PP      PP13895   0.952   6.840  13.733 -0.1056  0.2649  0.0353
 3792PP      PP13896  15.234   9.915   0.047  0.0739 -0.2283  0.0304
 3793PP      PP13897  12.200  13.288   9.675 -0.3705 -0.0859  0.1846
 3794PP      PP13898   7.571   5.897  12.987  0.2382 -0.4291 -0.0493
 3795PP      PP13899   3.494  14.524   0.524 -0.3055  0.0709 -0.1057
 3796PP      PP13900   4.966   1.303   9.558 -0.1038  0.1337 -0.0361
 3797PP      PP13901   2.829   3.970   2.784  0.2674 -0.2708 -0.0795
 3798PP      PP13902   5.945   3.321   1.248 -0.0592  0.1613  0.0467
 3799PP      PP13903   1.682  11.755   9.493  0.2610  0.1814  0.0256
 3800PP      PP13904   5.392   9.847   9.807 -0.1406  0.1906  0.1816
 3801PP      PP13905  11.765   6.417   9.949  0.1891 -0.1853  0.1305
 3802PP      PP13906   2.717   3.311   3.527  0.2546 -0.0459  0.1100
 3803PP      PP13907   3.437   2.096  10.013  0.1374  0.1127 -0.0488
 3804PP      PP13908   8.613   8.519   9.442  0.1338  0.0936  0.1630
 3805PP      PP13909   2.509   6.978  13.514  0.0683  0.1614  0.0736
 3806PP      PP13910  14.456   6.681   3.248  0.1658 -0.1612 -0.1106
 3807PP      PP13911   3.652   4.533   2.432 -0.0668 -0.0871 -0.0399
 3808PP      PP13912   1.895   9.305   3.968  0.1401  0.1203 -0.0160
 3809PP      PP13913  11.347   2.239  13.695  0.1192  0.0021  0.1847
 3810PP      PP13914   0.475   0.319   0.714  0.3861 -0.0592  0.1930
 3811PP      PP13915   7.553   1.211   8.435  0.1065 -0.1271 -0.1059
 3812PP      PP13916  10.375   5.123  10.449 -0.3373 -0.2288 -0.2806
 3813PP      PP13917  12.430   1.630  11.869 -0.0825  0.0025 -0.3337
 3814PP      PP13918  10.509  12.026   2.526  0.3104 -0.2060  0.1461
 3815PP      PP13919   8.041   5.384   7.539  0.0549 -0.1730  0.0657
 3816PP      PP13920   3.699  11.808   9.422  0.0798 -0.3333 -0.1763
 3817PP      PP13921   9.129  13.155  10.242 -0.0964  0.1630  0.4713
 3818PP      PP13922   9.958   9.149   3.250  0.2246 -0.2653 -0.1019
 3819PP      PP13923   2.129   3.316   0.428 -0.0814  0.3001  0.0395
 3820PP      PP13924  15.599   5.910  10.516 -0.1942  0.0947  0.2354
 3821PP      PP13925  11.604   1.006  10.645 -0.0499  0.1086 -0.1393
 3822PP      PP13926  12.638   5.736   1.534 -0.0008 -0.1347 -0.2458
 3823PP      PP13927  15.176   8.266   3.776  0.0951  0.2471 -0.0708
 3824PP      PP13928  11.205   5.786   0.960 -0.3076 -0.0221 -0.0826
 3825PP      PP13929   8.255  14.040  12.968  0.0883  0.0850  0.0373
 3826PP      PP13930  10.367   7.802  12.384  0.0781 -0.1441 -0.0565
 3827PP      PP13931  11.988   2.581  12.862  0.2428 -0.1257  0.3360
 3828PP      PP13932   0.262   8.497   3.221  0.2574  0.2071 -0.0725
 3829PP      PP13933  15.095   2.136  13.383 -0.3273  0.1178  0.1615
 3830PP      PP13934  13.342   1.041   8.409  0.1155 -0.2905  0.0375
 3831PP      PP13935  14.862   2.240   9.342  0.1925  0.0380  0.1573
 3832PP      PP13936   7.848  11.215   2.343 -0.3218  0.2207 -0.1620
 3833PP      PP13937   9.437   1.634  12.494  0.0339 -0.1082 -0.0237
 3834PP      PP13938  12.372  11.926   2.529 -0.1711  0.2648  0.1298
 3835PP      PP13939   3.131   7.027   3.730 -0.2207 -0.0673 -0.1515
 3836PP      PP13940  14.766   6.257   4.119 -0.0202 -0.2360  0.0377
 3837PP      PP13941   3.039   5.132   4.629 -0.2427 -0.0539  0.1074
 3838PP      PP13942  11.039   9.980   0.885 -0.0787  0.0315  0.0390
 3839PP      PP13943  15.519  12.411   0.639  0.0011 -0.1395 -0.2478
 3840PP      PP13944   7.415  10.159   0.940  0.2849  0.4029  0.2133
 3841PP      PP13945   8.143  12.414   9.437  0.0565 -0.2737 -0.3148
 3842PP      PP13946  13.167  11.247  13.459 -0.1205 -0.0818 -0.4918
 3843PP      PP13947  10.640   0.497  12.654  0.0897 -0.1746  0.0048
 3844PP      PP13948   6.383   5.352  10.843 -0.2657 -0.3208  0.0720
 3845PP      PP13949   2.624  11.766   5.016  0.2410 -0.0142  0.0798
 3846PP      PP13950   4.065   2.931   2.097 -0.0988 -0.0406 -0.2706
 3847PP      PP13951   0.960  12.110  12.323  0.0127  0.1280  0.0365
 3848PP      PP13952   0.415   1.476   1.945 -0.0063  0.1449 -0.0635
 3849PP      PP13953   0.125  14.216   2.840 -0.1128 -0.1269 -0.0507
 3850PP      PP13954  10.595   5.991   1.638  0.0908  0.1421  0.2033
 3851PP      PP13955   7.005  14.042  10.740  0.1947  0.1720  0.2448
 3852PP      PP13956   6.961   8.946   9.066  0.1347  0.1131  0.3178
 3853PP      PP13957  10.706   4.460  13.290  0.0954 -0.0100  0.2403
 3854PP      PP13958   1.835  11.804   2.898  0.2502 -0.0653  0.0432
 3855PP      PP13959   0.117   3.729   2.074 -0.2139  0.4193  0.0581
 3856PP      PP13960  10.077   6.291  12.463  0.3691 -0.1859  0.2714
 3857PP      PP13961  10.271   8.992  11.526 -0.4256  0.0712  0.2415
 3858PP      PP13962   9.773   9.724  12.374  0.3822  0.0906 -0.0248
 3859PP      PP13963   1.081   3.124   8.824  0.0010  0.0045  0.1979
 3860PP      PP13964  10.538   0.178  11.548  0.1311  0.0949  0.1438
 3861PP      PP13965   0.008   0.108  12.780  0.1472  0.0451  0.1576
 3862PP      PP13966   5.706  12.038  11.711 -0.0350  0.0237 -0.1098
 3863PP      PP13967   1.319  11.273  12.136  0.2605 -0.0722  0.0199
 3864PP      PP13968   1.983  13.152   4.284 -0.1032  0.4562  0.2248
 3865PP      PP13969   6.284  13.609   8.951 -0.1217 -0.0609 -0.0133
 3866PP      PP13970   4.241   2.107  12.360  0.0818  0.0455 -0.0350
 3867PP      PP13971  13.853  12.231  10.074 -0.1077 -0.2552 -0.2322
 3868PP      PP13972   9.553   7.484   2.605 -0.2611  0.0287  0.1864
 3869PP      PP13973  12.076   7.700   0.232  0.1727  0.2507  0.1833
 3870PP      PP13974   4.180  15.128   3.386  0.0414 -0.1694 -0.2098
 3871PP      PP13975   2.575   4.548   8.424  0.1950  0.0198  0.3823
 3872PP      PP13976   3.828  10.602  11.018 -0.0600 -0.0440 -0.0266
 3873PP      PP13977   2.045  12.606  13.742 -0.0898  0.1690  0.0782
 3874PP      PP13978   0.482  10.025   1.555 -0.1441 -0.1965 -0.2896
 3875PP      PP13979  15.292   5.678   2.239 -0.2258  0.3384  0.0935
 3876PP      PP13980   1.791   6.448  13.550 -0.1836  0.0269  0.1814
 3877PP      PP13981   7.734   8.055   1.301  0.1931  0.0326 -0.1762
 3878PP      PP13982   0.391   2.214  11.216 -0.1303 -0.0284  0.0085
 3879PP      PP13983   5.175   9.106   1.528 -0.2875 -0.1078  0.0829
 3880PP      PP13984   5.132   6.882   3.564  0.1959 -0.0137 -0.1418
 3881PP      PP13985   2.562   3.571   2.733 -0.0094  0.0465 -0.0877
 3882PP      PP13986  13.601   7.119   1.640 -0.2121  0.1635 -0.0224
 3883PP      PP13987   1.986   0.430  10.785  0.0484 -0.3325 -0.0451
 3884PP      PP13988   3.840  10.582   3.907  0.1466 -0.3441 -0.3690
 3885PP      PP13989   0.430   0.138  10.901 -0.1493 -0.0064 -0.0007
 3886PP      PP13990   7.091  13.016   9.743 -0.0354 -0.1520  0.0760
 3887PP      PP13991  13.007   8.783   0.174  0.1567  0.1319 -0.3341
 3888PP      PP13992   4.887   8.318   2.047  0.1999  0.0547  0.0728
 3889PP      PP13993   4.461   7.658   3.574  0.1033  0.0868 -0.0158
 3890PP      PP13994  13.735   3.787   4.679 -0.0116  0.3437 -0.0556
 3891PP      PP13995  11.511   1.074  12.035  0.1048 -0.3224  0.1854
 3892PP      PP13996   5.827   2.163   0.310  0.1768 -0.1214 -0.1444
 3893PP      PP13997   3.162   3.472  12.644 -0.5811 -0.0608  0.0845
 3894PP      PP13998  14.279   1.149   3.778 -0.1847  0.3000 -0.0097
 3895PP      PP13999   2.443   2.701   3.073  0.2992 -0.1029 -0.1045
 3896PP      PP14000  12.582   3.045  10.280 -0.2232 -0.2289  0.0074
 3897PP      PP14001   0.257   9.126  10.452 -0.0010 -0.3154 -0.1636
 3898PP      PP14002   3.644  10.347  11.927  0.0402 -0.2520  0.1919
 3899PP      PP14003   5.061  11.244  10.907  0.2027  0.0690 -0.0520
 3900PP      PP14004   7.946  13.592  12.681  0.3799  0.1987 -0.0624
 3901PP      PP14005   3.986   2.100  13.478 -0.2096  0.2035 -0.4307
 3902PP      PP14006   5.869   2.707  12.522 -0.0215 -0.1760  0.0327
 3903PP      PP14007   0.204   3.364   1.748 -0.2282  0.0212  0.1347
 3904PP      PP14008   8.383   3.813  10.360  0.3595  0.1109  0.1579
 3905PP      PP14009  14.541   6.117   0.640  0.1823  0.0239  0.3657
 3906PP      PP14010   9.959   6.282   9.285 -0.0827 -0.2038  0.0063
 3907PP      PP14011   9.444   8.125  13.121 -0.1159 -0.1422  0.4276
 3908PP      PP14012   2.853   4.029   9.550  0.0876  0.0486 -0.3470
 3909PP      PP14013   3.801  12.623  11.036  0.0034  0.0187  0.1095
 3910PP      PP14014   3.456  11.555   4.818  0.1448  0.2179 -0.0830
 3911PP      PP14015   7.109   9.863  13.039 -0.1053 -0.1604  0.1164
 3912PP      PP14016   0.442  14.127  13.369 -0.1226  0.2779  0.1214
 3913PP      PP14017  10.705   9.872   5.676  0.0382  0.1872 -0.1649
 3914PP      PP14018   7.493   1.049   1.697 -0.1242  0.1657 -0.1340
 3915PP      PP14019   0.668   6.817  13.242  0.0749 -0.1877 -0.3164
 3916PP      PP14020   7.884  15.326  12.606 -0.0242 -0.0084 -0.0889
 3917PP      PP14021  11.909   8.710   1.784  0.3310  0.3505  0.0819
 3918PP      PP14022   7.811   5.390   3.099 -0.0705 -0.0462  0.2833
 3919PP      PP14023   0.681   4.698   0.091  0.1343  0.4365 -0.1523
 3920PP      PP14024   5.974   7.230  11.563  0.0790  0.2843  0.1185
 3921PP      PP14025   3.401  13.778   2.919 -0.0758 -0.1751 -0.1106
 3922PP      PP14026  12.234   7.451  13.111  0.0568  0.0454  0.1652
 3923PP      PP14027   1.056   7.790   2.495  0.2206  0.0172  0.1293
 3924PP      PP14028   9.331  13.976   0.119  0.0156  0.2482 -0.0004
 3925PP      PP14029  13.997   1.115   2.199  0.1213  0.2932  0.1076
 3926PP      PP14030  15.663  10.045  11.453 -0.1811  0.3542  0.2746
 3927PP      PP14031   3.778   6.581   1.518  0.1265  0.0085  0.0543
 3928PP      PP14032  10.415   0.546   2.884  0.1068 -0.4303  0.0684
 3929PP      PP14033   2.846  13.595  12.945  0.1063  0.2947  0.1502
 3930PP      PP14034  10.037   4.899  10.733  0.1027  0.0328 -0.1001
 3931PP      PP14035  15.002   5.595  13.422 -0.3776  0.0813 -0.1014
 3932PP      PP14036   0.417   6.001  10.393 -0.0660 -0.0977 -0.1601
 3933PP      PP14037   3.966   3.662   0.851 -0.0804  0.1354 -0.0269
 3934PP      PP14038   7.751  15.286  11.704  0.1969  0.0033  0.1169
 3935PP      PP14039   7.831   0.144  13.298  0.0720  0.2287  0.1226
 3936PP      PP14040   6.280  11.231  11.175  0.1008 -0.0528  0.0971
 3937PP      PP14041  14.616   5.154  12.013 -0.1371 -0.0374  0.4451
 3938PP      PP14042  15.231   3.994  11.716 -0.0658  0.3608  0.0080
 3939PP      PP14043  11.272   5.024   0.930 -0.2662  0.1990  0.0819
 3940PP      PP14044  14.445   3.962   1.096 -0.0891  0.1158  0.3118
 3941PP      PP14045  12.542  10.648   5.416 -0.2157  0.1368  0.1229
 3942PP      PP14046   2.516  12.201   1.471  0.2346  0.2597 -0.2845
 3943PP      PP14047   2.920  11.804  13.375  0.0717 -0.1733  0.1435
 3944PP      PP14048   3.397  12.991  12.830 -0.2818  0.1998 -0.0951
 3945PP      PP14049   3.571   6.346  13.089 -0.1470  0.0515 -0.3042
 3946PP      PP14050   2.312   4.603  13.158 -0.0538  0.0395 -0.0504
 3947PP      PP14051   5.034  15.308  10.692  0.2257 -0.1303  0.2253
 3948PP      PP14052   0.058  15.620   2.782 -0.0347  0.3483  0.1777
 3949PP      PP14053   8.045   2.327  11.376  0.2422 -0.0159  0.1306
 3950PP      PP14054   2.381  10.063  11.816  0.1363 -0.0057  0.1593
 3951PP      PP14055   7.008   3.275   0.027 -0.1079  0.2754  0.0803
 3952PP      PP14056   4.618  13.738   1.885 -0.3928  0.3152 -0.0172
 3953PP      PP14057  14.827   8.543  10.945 -0.0772 -0.1374 -0.2032
 3954PP      PP14058   8.273  13.827   9.673  0.0173  0.3177  0.3143
 3955PP      PP14059   2.722   0.415  13.070 -0.0982 -0.0565 -0.3284
 3956PP      PP14060   5.293   6.132   2.500  0.2575  0.0591 -0.2970
 3957PP      PP14061   4.432   0.751   3.704  0.0383 -0.3768  0.0668
 3958PP      PP14062   7.215   5.471   0.597 -0.2298 -0.0968 -0.0025
 3959PP      PP14063   0.256   8.362  13.025  0.0977 -0.2540  0.0184
 3960PP      PP14064  10.805  15.168   0.122 -0.1682  0.1172 -0.0195
 3961PP      PP14065   8.408   8.224   0.178 -0.0948  0.0579  0.3027
 3962PP      PP14066   2.037  10.069   0.993 -0.2264  0.1316  0.1362
 3963PP      PP14067   4.303  10.710   8.709 -0.2289 -0.0705 -0.4883
 3964PP      PP14068  14.091   5.027   1.895  0.0344  0.1649 -0.1767
 3965PP      PP14069   4.154   7.264   9.114 -0.0839 -0.0340  0.3434
 3966PP      PP14070   4.570  10.658   1.099 -0.0735  0.1455 -0.1744
 3967PP      PP14071   8.088   9.551   3.421 -0.2840 -0.3315  0.1854
 3968PP      PP14072   2.428   0.977   3.868  0.3371 -0.0161  0.4407
 3969PP      PP14073  14.010  15.294  11.055 -0.1840  0.0283  0.0582
 3970PP      PP14074  12.233   0.997   9.621 -0.2805  0.6279  0.0523
 3971PP      PP14075   2.725  13.137  13.157  0.3188 -0.0037  0.4232
 3972PP      PP14076  14.969   4.701   9.332  0.2970 -0.1018  0.1349
 3973PP      PP14077   5.762   8.295   4.601  0.2008 -0.0977 -0.2774
 3974PP      PP14078  12.750   5.582  13.131 -0.0966 -0.4095 -0.0132
 3975PP      PP14079  15.738  14.088  13.636  0.2016  0.1636  0.0961
 3976PP      PP14080   4.473  12.041   1.461  0.1409  0.0238 -0.3709
 3977PP      PP14081  12.655   6.253  13.009 -0.0596 -0.2352 -0.1529
 3978PP      PP14082  10.228   3.925  10.730 -0.2231 -0.0016 -0.1207
 3979PP      PP14083   7.172   7.550   3.653  0.1581 -0.0809  0.1104
 3980PP      PP14084   3.397   1.899   1.101  0.2519  0.0035  0.0157
 3981PP      PP14085  14.228  11.998  12.922 -0.3393  0.1168  0.2136
 3982PP      PP14086   1.519   6.728   0.143  0.1853 -0.0724 -0.2357
 3983PP      PP14087   7.231  11.391  11.830 -0.2319  0.0338 -0.1961
 3984PP      PP14088   4.507  14.110   0.749 -0.1746 -0.1033 -0.3684
 3985PP      PP14089  14.211   3.749  12.652  0.0504  0.2963  0.0509
 3986PP      PP14090   8.850   5.393   9.704 -0.1242  0.2551  0.0635
 3987PP      PP14091  10.830  11.486   0.277 -0.1473  0.0769  0.0584
 3988PP      PP14092  14.960  10.818   9.130  0.1105  0.1069  0.0756
 3989PP      PP14093  14.296   9.539   4.649  0.0818 -0.3028  0.0071
 3990PP      PP14094   6.382  14.420   0.654 -0.0118  0.0929  0.0267
 3991PP      PP14095  14.407  11.863  12.501  0.0378  0.2214  0.3052
 3992PP      PP14096  15.407   4.438   0.007  0.1632 -0.1142  0.0622
 3993PP      PP14097   0.584   3.139  13.549 -0.0076  0.3255  0.4522
 3994PP      PP14098  11.819   6.487   1.413 -0.0785 -0.0080 -0.0476
 3995PP      PP14099   9.446   3.203  12.784  0.1319  0.4529 -0.1316
 3996PP      PP14100   1.246   5.106   9.955 -0.3422  0.3297 -0.2435
 3997PP      PP14101   7.081  13.232   1.622  0.1011  0.0061 -0.1601
 3998PP      PP14102  11.834  13.204   1.720  0.3612 -0.2062 -0.1051
 3999PP      PP14103   2.450  11.892   3.912 -0.0945  0.1349 -0.2296
 4000PP      PP14104   4.896   0.881   0.317  0.2097  0.2128  0.0031
 4001PP      PP14105   6.270  12.302  13.617  0.0158  0.0454  0.0689
 4002PP      PP14106   8.320   6.788   0.638  0.1311 -0.1676 -0.4340
 4003PP      PP14107   8.871  14.226  10.700  0.1123  0.0527  0.0928
 4004PP      PP14108   3.053  10.747  12.482 -0.1604  0.0032 -0.1895
 4005PP      PP14109  10.150  14.968   4.167  0.0004  0.1228 -0.2070
 4006PP      PP14110  11.159   9.892   2.362 -0.2112 -0.0374 -0.2766
 4007PP      PP14111   9.581  10.999   1.392 -0.2013  0.0369  0.1070
 4008PP      PP14112  12.856   7.363  12.688  0.2539 -0.1299 -0.1112
 4009PP      PP14113  12.659   8.288   4.212  0.1507 -0.0615  0.0350
 4010PP      PP14114  14.380   4.874   3.707  0.2235 -0.1706  0.1073
 4011PP      PP14115   5.847   7.138  12.022 -0.1545  0.0671 -0.0422
 4012PP      PP14116   3.856   5.628   8.299  0.1050  0.0477  0.0537
 4013PP      PP14117  14.219   1.621  12.378 -0.2002 -0.4339  0.0341
 4014PP      PP14118   2.961   0.096   2.132  0.0033 -0.0544 -0.1313
 4015PP      PP14119  15.198   1.867   1.424  0.2203  0.0583  0.1039
 4016PP      PP14120  15.246   1.613   3.405  0.2450 -0.3532  0.1707
 4017PP      PP14121   1.245   0.638   3.321 -0.0266 -0.1825  0.0156
 4018PP      PP14122   7.047  12.530  11.926 -0.0757  0.2993 -0.2422
 4019PP      PP14123   9.889  11.761   0.673 -0.0760 -0.0039 -0.1335
 4020PP      PP14124   1.258   2.835  10.877 -0.1757  0.3882 -0.2830
 4021PP      PP14125   3.688   8.841  10.996 -0.2670 -0.1277 -0.0672
 4022PP      PP14126  13.009   1.998   9.192  0.1239 -0.0725  0.0606
 4023PP      PP14127   3.172   8.832  11.826 -0.2401 -0.3337  0.0524
 4024PP      PP14128   3.121  13.271   2.527  0.1068 -0.0244  0.0682
 4025PP      PP14129   4.342   7.744   4.425 -0.1014 -0.0230 -0.3860
 4026PP      PP14130   5.783  12.467   0.232 -0.3246  0.0351  0.0048
 4027PP      PP14131   7.752  11.610  12.182  0.1684 -0.2386  0.0760
 4028PP      PP14132   3.857  14.726  10.488 -0.3935 -0.2559  0.1603
 4029PP      PP14133  12.926  10.432   0.842 -0.0982 -0.0838  0.1622
 4030PP      PP14134   8.151   2.198   2.617  0.0622  0.0711  0.0304
 4031PP      PP14135  11.033  12.976  10.833  0.0206 -0.1950  0.1094
 4032PP      PP14136   9.858   4.445   8.357  0.0971  0.1640  0.0595
 4033PP      PP14137   4.527  14.818   5.136 -0.5164  0.1582  0.2634
 4034PP      PP14138   6.868  12.531  10.563 -0.3115 -0.4470 -0.1679
 4035PP      PP14139   7.581   2.657   3.234  0.1488 -0.2867  0.1368
 4036PP      PP14140   4.122  12.344   0.086  0.1798  0.3840 -0.1309
 4037PP      PP14141   9.633  12.188   3.475  0.3690  0.2621 -0.1783
 4038PP      PP14142   8.291   8.137  12.240 -0.0726 -0.0484  0.1790
 4039PP      PP14143  14.657   5.382   9.890  0.1974 -0.2549 -0.0123
 4040PP      PP14144  14.295  10.458   0.931  0.0829 -0.3498 -0.2309
 4041PP      PP14145   8.770  14.085   2.871  0.0362  0.0155 -0.0613
 4042PP      PP14146  13.617  10.961   3.288 -0.3583 -0.1019  0.2913
 4043PP      PP14147   1.668   9.754  12.775 -0.0414 -0.0504  0.3478
 4044PP      PP14148   2.918   6.845   9.235  0.0152  0.0697 -0.4667
 4045PP      PP14149  13.664   7.381   2.540  0.1147  0.2440  0.3804
 4046PP      PP14150   6.424   3.651   8.690  0.1437  0.2080  0.1039
 4047PP      PP14151   0.345  15.419   3.666  0.0773  0.0924  0.1444
 4048PP      PP14152   3.316  12.976   9.977 -0.1203  0.1245 -0.0233
 4049PP      PP14153  13.918   5.863   9.657 -0.2386  0.2666  0.2783
 4050PP      PP14154   8.475   3.943  12.739 -0.1860  0.0687  0.3672
 4051PP      PP14155   7.901   6.467   0.546 -0.1555  0.1066  0.2007
 4052PP      PP14156   2.797   9.244   1.659  0.2936  0.1923  0.0506
 4053PP      PP14157  10.885   5.222   3.397 -0.0928  0.5464 -0.1693
 4054PP      PP14158   2.215   2.436   0.155  0.3404 -0.0263  0.1951
 4055PP      PP14159  12.882  10.862   0.577 -0.1597  0.0566 -0.0920
 4056PP      PP14160  11.046   8.685  13.118  0.2412 -0.1305 -0.0148
 4057PP      PP14161  13.817   2.309   3.410 -0.2076 -0.4984 -0.1627
 4058PP      PP14162  12.595  14.736   4.431  0.3695 -0.2036 -0.3252
 4059PP      PP14163   0.531   0.263   3.981  0.0454 -0.4185  0.1510
 4060PP      PP14164   2.204   5.132   3.023 -0.1862 -0.0412  0.1985
 4061PP      PP14165   3.560   5.363   1.144 -0.3461 -0.2933 -0.1068
 4062PP      PP14166   0.293   8.626   9.657  0.2034  0.1593  0.1434
 4063PP      PP14167   8.715   3.121   7.692 -0.0807 -0.0670 -0.2402
 4064PP      PP14168  11.803  12.526  12.888  0.1754 -0.2698  0.0431
 4065PP      PP14169   7.088   6.850  11.925  0.0633 -0.2384 -0.2094
 4066PP      PP14170  13.149   1.614  10.280 -0.1137 -0.0682 -0.0608
 4067PP      PP14171   0.048   2.519   4.262 -0.2131  0.1164 -0.0200
 4068PP      PP14172   5.149   0.386   0.185 -0.2190  0.0182 -0.0044
 4069PP      PP14173   9.317   3.930   3.131  0.1252 -0.1008  0.2927
 4070PP      PP14174  11.575   6.962  13.462  0.0866  0.0764  0.1619
 4071PP      PP14175   7.319  14.837   3.177  0.1974  0.0856  0.2666
 4072PP      PP14176  15.226   0.047  12.983 -0.1489 -0.2403 -0.2104
 4073PP      PP14177   2.195   6.895   2.360  0.1011  0.1446 -0.3094
 4074PP      PP14178   0.330   9.685   2.926  0.0927 -0.1877  0.0931
 4075PP      PP14179  11.828   8.785   3.614 -0.2123 -0.0027  0.3155
 4076PP      PP14180   7.777   6.564  12.036  0.0078  0.0608 -0.2923
 4077PP      PP14181   3.857   8.092   2.627 -0.1615  0.0637 -0.0164
 4078PP      PP14182   6.187   1.724  12.672 -0.0947 -0.3446 -0.0680
 4079PP      PP14183  13.187  12.230   1.979  0.2935  0.2197 -0.2449
 4080PP      PP14184   2.422   7.759  12.042  0.1145 -0.0659 -0.0417
 4081PP      PP14185   7.645  13.217  12.728 -0.1561 -0.1257 -0.1192
 4082PP      PP14186   5.566   4.354   0.416  0.3054 -0.0243 -0.2834
 4083PP      PP14187   6.687   1.051  11.614  0.0263 -0.2860  0.1750
 4084PP      PP14188   4.508   8.804   4.405  0.1301 -0.0807 -0.2063
 4085PP      PP14189  14.926  13.479   2.920  0.3792  0.2051  0.2246
 4086PP      PP14190  12.836   5.695  10.901  0.0243 -0.0438 -0.0303
 4087PP      PP14191   1.503   5.090  11.683 -0.3455 -0.3661 -0.0971
 4088PP      PP14192   0.240   2.525   2.795 -0.0469 -0.2370 -0.2885
 4089PP      PP14193   4.111  14.900   0.476  0.1523 -0.1655  0.0045
 4090PP      PP14194   6.008   1.296   9.066 -0.0803  0.0940  0.2111
 4091PP      PP14195   7.872   1.819  10.561  0.1179 -0.0429 -0.1887
 4092PP      PP14196  10.362   9.009   2.616 -0.0285  0.2270 -0.0233
 4093PP      PP14197  12.699  10.784   0.006 -0.0210  0.1571 -0.1519
 4094PP      PP14198   5.921   3.028  12.887  0.1031 -0.0436 -0.2347
 4095PP      PP14199  10.483  15.052   2.876  0.3129  0.2359 -0.0897
 4096PP      PP14200   4.228  14.678   1.720 -0.2745 -0.0327 -0.1587
 4097PP      PP14201   5.471   3.276   1.171  0.2612  0.1337  0.0926
 4098PP      PP14202   9.122  15.193  12.414 -0.2842 -0.2759 -0.0986
 4099PP      PP14203   5.875  10.915   3.137 -0.2336  0.0890  0.0996
 4100PP      PP14204   7.739   0.390   9.127  0.2596 -0.1995 -0.3229
 4101PP      PP14205   9.865  10.271   3.169  0.0998 -0.3480 -0.3213
 4102PP      PP14206   4.484   3.458   1.645  0.0198 -0.0962  0.0338
 4103PP      PP14207   6.327   2.086  10.787 -0.0236  0.1007 -0.2454
 4104PP      PP14208   0.982   2.124   9.440  0.1532  0.2919 -0.0467
 4105PP      PP14209   8.229  14.853   3.876 -0.1567  0.0597 -0.0813
 4106PP      PP14210   0.403   1.840   9.305  0.2331  0.1140 -0.1188
 4107PP      PP14211  11.896   4.038  10.343  0.1569 -0.1647 -0.0088
 4108PP      PP14212   1.246   4.655   8.135  0.1859  0.3309  0.0187
 4109PP      PP14213   8.464   6.018  11.863  0.2026 -0.0622 -0.1045
 4110PP      PP14214   4.739   2.357  12.906 -0.1713 -0.0370 -0.1203
 4111PP      PP14215  15.134   2.519   2.725 -0.0565  0.1930  0.1760
 4112PP      PP14216  14.069   9.972   1.014  0.0044  0.2882 -0.0434
 4113PP      PP14217   9.161   4.886   3.080 -0.1662 -0.0652  0.2678
 4114PP      PP14218  14.484   3.971  13.038 -0.1904 -0.0354  0.0847
 4115PP      PP14219   9.751  14.765   3.276  0.1953  0.1572 -0.1296
 4116PP      PP14220   1.098   1.449  11.207 -0.1322 -0.2740  0.1930
 4117PP      PP14221  14.732  10.672   1.074 -0.0255  0.1126  0.0151
 4118PP      PP14222  12.832  11.094   5.245  0.1624  0.3428  0.1973
 4119PP      PP14223  15.204  14.888   4.085  0.1793  0.1110 -0.0107
 4120PP      PP14224   1.497   0.239  10.784  0.2468 -0.3677  0.0286
 4121PP      PP14225  15.269   9.121   4.309 -0.0607  0.2615  0.3681
 4122PP      PP14226   1.223   2.194   3.010 -0.1640 -0.0452 -0.0926
 4123PP      PP14227   1.349   5.839   0.942 -0.1197 -0.1392 -0.0256
 4124PP      PP14228  11.470   1.684   3.996  0.3081 -0.0150  0.0129
 4125PP      PP14229   0.937   6.163  13.285  0.0162  0.0391  0.0332
 4126PP      PP14230  12.323   5.489   4.527  0.0504 -0.0838 -0.0125
 4127PP      PP14231   6.421   4.010   0.136  0.1128  0.2114 -0.1720
 4128PP      PP14232  14.770  13.201   1.895  0.2761  0.1686  0.0656
 4129PP      PP14233   6.879  14.628   3.219  0.3015  0.0201  0.1896
 4130PP      PP14234   6.753  12.083  10.772 -0.0323  0.0565  0.1393
 4131PP      PP14235   4.746  13.077  11.421 -0.0451 -0.2807 -0.2390
 4132PP      PP14236   1.303  11.635   2.408  0.2387  0.1874  0.2246
 4133PP      PP14237   2.913   0.018   2.950  0.5179  0.0066 -0.2721
 4134PP      PP14238   8.926   0.347  10.239 -0.0908 -0.2462  0.1488
 4135PP      PP14239  11.352  12.756  11.849  0.3301 -0.0838  0.0945
 4136PP      PP14240   4.993  10.619  13.229 -0.0130 -0.1903 -0.2855
 4137PP      PP14241   0.400   6.671   1.503  0.0048 -0.1021  0.0098
 4138PP      PP14242  14.330  14.564   9.072 -0.0269  0.2024 -0.0751
 4139PP      PP14243   0.554   7.628   0.131  0.2353 -0.1281 -0.0267
 4140PP      PP14244   1.856   0.934   8.956 -0.3000  0.1681 -0.4049
 4141PP      PP14245  13.134   1.285   2.792  0.1006 -0.0194  0.1734
 4142PP      PP14246   6.381  13.347  10.243  0.3078  0.1468  0.2537
 4143PP      PP14247  15.181  13.849   9.832  0.0580 -0.1285 -0.3469
 4144PP      PP14248  10.660   4.103  10.386  0.2681  0.0684  0.0795
 4145PP      PP14249   5.475   4.356  13.621 -0.2105 -0.1970 -0.0013
 4146PP      PP14250   4.542   8.071   8.993  0.2604 -0.0169 -0.0224
 4147PP      PP14251   6.173   8.673   9.158 -0.0735  0.2034  0.0796
 4148PP      PP14252   6.458   0.666  10.712  0.1419  0.0825 -0.3647
 4149PP      PP14253   2.509  10.394   9.403 -0.0935 -0.0299  0.1486
 4150PP      PP14254   2.023   2.005  12.286 -0.5025 -0.3138 -0.4092
 4151PP      PP14255   9.107  15.722   3.293 -0.0261 -0.3357  0.1185
 4152PP      PP14256   9.113  13.829   0.631  0.1421 -0.1707 -0.3096
 4153PP      PP14257  13.369  13.743   9.483 -0.3399  0.0696 -0.1668
 4154PP      PP14258   1.999   8.165   8.838  0.1921  0.0849  0.0262
 4155PP      PP14259   5.393   8.866  10.075 -0.0882  0.0125  0.1460
 4156PP      PP14260   8.225  11.678  12.324 -0.0395  0.2016 -0.4952
 4157PP      PP14261   8.900   2.046   0.233 -0.0295  0.0909  0.0221
 4158PP      PP14262   3.586   5.414   8.735 -0.0985 -0.3373 -0.2863
 4159PP      PP14263   9.750  11.437   0.284  0.2145 -0.2249 -0.1017
 4160PP      PP14264   4.181   8.985   3.832  0.0095 -0.0625 -0.0501
 4161PP      PP14265  12.088   1.694   2.799  0.1284 -0.0006 -0.3378
 4162PP      PP14266  13.930  14.497  13.513 -0.2129 -0.1538 -0.2290
 4163PP      PP14267   6.629   1.192  13.534 -0.0656  0.3407 -0.0094
 4164PP      PP14268   9.027  15.387   2.221 -0.2272 -0.0850  0.1728
 4165PP      PP14269   0.270   6.611  13.029 -0.0736  0.1192  0.2176
 4166PP      PP14270   0.672  10.197   2.242  0.0258 -0.2560  0.0852
 4167PP      PP14271   3.910  12.990  12.667  0.2351  0.0723  0.0267
 4168PP      PP14272   4.361  13.166   0.761  0.0111  0.0757  0.1679
 4169PP      PP14273  11.809  11.964   3.995  0.0844 -0.0483 -0.0161
 4170PP      PP14274   0.195  13.227  11.365 -0.2085  0.1083  0.0466
 4171PP      PP14275  13.788   1.181  13.598 -0.2778 -0.1111 -0.0890
 4172PP      PP14276  13.171   0.511  11.478  0.0239 -0.3205  0.0299
 4173PP      PP14277  14.888  11.131   1.028 -0.0837  0.0758 -0.1262
 4174PP      PP14278  12.916  12.072  13.474  0.1283  0.2696  0.1826
 4175PP      PP14279   9.925   4.379  13.401 -0.1420 -0.1173 -0.1146
 4176PP      PP14280   3.222  13.610   0.387 -0.0054  0.2290  0.1566
 4177PP      PP14281  10.245  15.189   3.313  0.0031  0.2606 -0.0505
 4178PP      PP14282   5.123   2.195  13.219 -0.2987 -0.0877  0.0734
 4179PP      PP14283   1.121  13.643   9.719  0.2072  0.3016  0.2149
 4180PP      PP14284  13.184   7.840  12.993 -0.1453  0.2209 -0.1671
 4181PP      PP14285   7.564   3.397  11.636  0.1106 -0.2712  0.0941
 4182PP      PP14286   7.636   9.467   0.294 -0.0818 -0.0292 -0.0561
 4183PP      PP14287   3.558   1.371   0.856 -0.0860 -0.0957 -0.1390
 4184PP      PP14288   0.294   1.751  13.196  0.1379  0.0985  0.2913
 4185PP      PP14289   2.068   5.698  12.047  0.0233 -0.0724  0.2055
 4186PP      PP14290   9.599  10.565  13.536  0.0084  0.0965 -0.0199
 4187PP      PP14291   2.590   8.285   3.092  0.0121 -0.1010 -0.0311
 4188PP      PP14292   9.613   0.446   2.609 -0.2777 -0.1618 -0.3021
 4189PP      PP14293   9.225   9.134   2.629  0.1419  0.1687 -0.0779
 4190PP      PP14294   7.531   7.265  10.984 -0.1013 -0.2092 -0.0425
 4191PP      PP14295   2.438  15.198   3.285  0.2554  0.1689  0.2511
 4192PP      PP14296  11.218   4.155  10.778 -0.0164  0.0779  0.1546
 4193PP      PP14297   0.262  15.171   0.703 -0.2760  0.1224 -0.3814
 4194PP      PP14298   3.085   2.612  10.723  0.1516 -0.1933  0.1323
 4195PP      PP14299   0.030   9.025   4.485 -0.4790  0.2012 -0.3007
 4196PP      PP14300  11.086  12.193  11.589  0.2154  0.2369  0.4469
 4197PP      PP14301   6.447   6.838   3.691  0.0082  0.1587  0.3448
 4198PP      PP14302   8.576  10.685  10.652  0.1259  0.1103  0.2599
 4199PP      PP14303  14.270  10.910   1.273 -0.1840 -0.2254  0.0795
 4200PP      PP14304   5.537   7.279  12.741  0.1413  0.2003  0.2711
 4201PP      PP14305   4.501  14.376   2.241  0.0844 -0.1595 -0.0250
 4202PP      PP14306   5.744  12.264   1.573 -0.2193  0.1392  0.2355
 4203PP      PP14307  15.549  10.496   3.663  0.0898 -0.2483  0.1785
 4204PP      PP14308   4.950   4.008  12.772 -0.1247  0.1285  0.1643
 4205PP      PP14309   2.067  11.909   0.126 -0.0645  0.1124  0.1471
 4206PP      PP14310  11.595  14.754   1.798 -0.4955 -0.0475  0.2934
 4207PP      PP14311   9.655  15.578   0.655 -0.1598  0.0936 -0.0779
 4208PP      PP14312   2.706  12.680   4.445  0.1265 -0.0949 -0.1560
 4209PP      PP14313  11.170  13.524  13.441 -0.0062  0.1034 -0.3676
 4210PP      PP14314   1.324   5.633  10.897  0.0256  0.1134 -0.0711
 4211PP      PP14315  11.139  14.939   1.643 -0.0546  0.2770 -0.1473
 4212PP      PP14316  13.277   4.353  10.258 -0.2094  0.2257 -0.0215
 4213PP      PP14317   5.473  12.053   9.987 -0.0554  0.0607  0.1166
 4214PP      PP14318  15.526   6.113  11.563 -0.0313 -0.0422  0.1560
 4215PP      PP14319  13.111  11.887  10.039  0.1114 -0.1488  0.0871
 4216PP      PP14320  13.429   5.204   1.856  0.0714  0.1791 -0.0660
 4217PP      PP14321   1.398   0.893   1.382 -0.1299  0.0318 -0.1058
 4218PP      PP14322  15.099   1.855  12.049 -0.0115 -0.0742 -0.4558
 4219PP      PP14323  13.729  11.102   4.082  0.2689  0.0964  0.1270
 4220PP      PP14324  14.200  14.541   3.910 -0.0759  0.1087 -0.0909
 4221PP      PP14325  12.521   3.847   1.864  0.2397  0.2429  0.0958
 4222PP      PP14326  11.415   6.489   0.375 -0.1634  0.0361  0.2717
 4223PP      PP14327  13.176   1.220   3.759 -0.3363  0.1743 -0.0264
 4224PP      PP14328  15.114  10.618   2.786 -0.1528  0.0699  0.2616
 4225PP      PP14329   8.482   0.045  12.402 -0.2011 -0.0374 -0.2916
 4226PP      PP14330   2.741   9.039  12.041 -0.0829  0.0435  0.1310
 4227PP      PP14331  12.483  11.882   0.065 -0.0350  0.3141 -0.1835
 4228PP      PP14332  13.598   3.569   9.781  0.2276  0.2172  0.0540
 4229PP      PP14333   9.208   5.401  12.107 -0.1598  0.3015  0.2529
 4230PP      PP14334   1.912   8.476   9.321 -0.4138 -0.0105  0.1406
 4231PP      PP14335   7.178  11.135   1.083 -0.0230  0.1622 -0.0325
 4232PP      PP14336   5.385  14.061   0.696  0.0689 -0.4453 -0.0596
 4233PP      PP14337   1.447   9.646   1.879 -0.1534 -0.0271 -0.2652
 4234PP      PP14338   8.890   4.582  12.592  0.2971  0.2050 -0.1096
 4235PP      PP14339  10.972   6.890   0.391 -0.1478  0.1892  0.0051
 4236PP      PP14340   5.520  15.020   8.991 -0.0874  0.1013 -0.0610
 4237PP      PP14341   2.251   1.152   8.907 -0.3570 -0.0953 -0.2446
 4238PP      PP14342  12.597  12.772   0.075  0.1717 -0.1380  0.1130
 4239PP      PP14343   9.585  13.358   4.784  0.0107  0.1964 -0.1034
 4240PP      PP14344   5.026   5.778  13.010  0.0156  0.3199 -0.1550
 4241PP      PP14345   2.774   7.811  11.508 -0.1114  0.1250  0.1241
 4242PP      PP14346   8.822   9.758   1.061  0.0615  0.1482 -0.2720
 4243PP      PP14347  13.444  14.366  11.421  0.0153  0.1158 -0.2946
 4244PP      PP14348   1.822   1.077   3.907  0.0762  0.0508 -0.3148
 4245PP      PP14349   2.298  15.008   0.921 -0.1371 -0.2219 -0.1827
 4246PP      PP14350  11.139   3.977   3.935 -0.0164 -0.3724 -0.0709
 4247PP      PP14351   7.493   5.076   3.412 -0.0465 -0.2623  0.2492
 4248PP      PP14352  11.611  10.864  11.734  0.0310 -0.1313  0.3742
 4249PP      PP14353  10.766   0.143   4.228 -0.1981  0.2282  0.1497
 4250PP      PP14354   2.619   9.922   0.354 -0.0001  0.0806  0.0389
 4251PP      PP14355   0.426   6.803   2.388  0.1117 -0.0010  0.2987
 4252PP      PP14356   2.470  15.441  12.184 -0.2556  0.1965 -0.2166
 4253PP      PP14357   4.832   4.541   2.902  0.0551 -0.0050  0.0538
 4254PP      PP14358  11.279   9.104   0.888  0.2133 -0.2019 -0.0555
 4255PP      PP14359   2.898   4.604   4.026 -0.2492  0.1194 -0.0758
 4256PP      PP14360  12.561   8.718  13.713  0.0899  0.2971  0.3785
 4257PP      PP14361  12.119  10.870   5.465  0.1334 -0.1308 -0.0038
 4258PP      PP14362   5.612   4.383   2.107  0.1559  0.0794  0.1988
 4259PP      PP14363  13.719   9.229   2.366  0.1493  0.0269  0.1386
 4260PP      PP14364   2.501   2.886  12.865  0.0889 -0.2413 -0.0741
 4261PP      PP14365  11.514  10.097   0.715  0.1286  0.2636 -0.0747
 4262PP      PP14366   5.280  14.151  13.429  0.1926 -0.2908  0.0929
 4263PP      PP14367  13.573  14.265  12.948  0.1480  0.0175  0.1527
 4264PP      PP14368   2.470  14.523   9.845  0.0904 -0.2894  0.1364
 4265PP      PP14369  11.516   9.906   4.743 -0.2809 -0.1569 -0.0963
 4266PP      PP14370   2.660   1.001  13.046 -0.3795 -0.1935 -0.1141
 4267PP      PP14371  14.497  10.779   9.432 -0.2780 -0.0597  0.3875
 4268PP      PP14372   7.569  13.404   4.771  0.0804  0.1363  0.0175
 4269PP      PP14373   1.899   2.607   9.991 -0.0765  0.2791 -0.1860
 4270PP      PP14374  11.911   3.742   1.672  0.0011 -0.2710  0.0510
 4271PP      PP14375  11.239  13.851  11.143  0.0272 -0.0790 -0.2804
 4272PP      PP14376  10.389  10.013  13.282  0.3201  0.0271 -0.2503
 4273PP      PP14377   5.567  14.069   9.340 -0.3208  0.0462  0.1217
 4274PP      PP14378  13.898   4.065   3.496 -0.1798 -0.0926  0.3049
 4275PP      PP14379   2.277   5.806   1.234  0.0897  0.1028 -0.1365
 4276PP      PP14380   1.193   6.237   3.426  0.0006  0.1629  0.0003
 4277PP      PP14381   9.893  14.819   2.171  0.0864  0.2453  0.0579
 4278PP      PP14382   9.196  12.813   2.891 -0.3242  0.0917 -0.3067
 4279PP      PP14383   9.026   5.081  12.471 -0.1570  0.0107  0.1258
 4280PP      PP14384  12.508   8.530   5.232 -0.2806  0.2729  0.1605
 4281PP      PP14385   1.606   5.136   4.215  0.1860 -0.0724  0.0357
 4282PP      PP14386   5.072  14.444   3.786 -0.1669  0.1115 -0.0525
 4283PP      PP14387   0.425  14.248   9.755 -0.0971 -0.1366 -0.3352
 4284PP      PP14388   4.157   6.829  12.398  0.2531 -0.1696 -0.1254
 4285PP      PP14389  15.155   5.635  10.224 -0.0757  0.0048 -0.0946
 4286PP      PP14390  14.710  13.318  11.425 -0.0780  0.0274 -0.0573
 4287PP      PP14391   1.275  13.508  13.247 -0.1251  0.3784  0.3532
 4288PP      PP14392   3.021   4.682  12.077 -0.0657  0.3510  0.1589
 4289PP      PP14393  13.411   4.273   3.235 -0.0770  0.1554  0.2671
 4290PP      PP14394   4.124  11.412   3.272 -0.0078  0.1416 -0.2102
 4291PP      PP14395   1.339   6.958  12.402  0.1606 -0.1369  0.1842
 4292PP      PP14396  10.295   6.699   2.216  0.1407  0.1290  0.2476
 4293PP      PP14397  12.445   5.202  12.208 -0.2062 -0.0349 -0.2388
 4294PP      PP14398   1.347   7.070  10.297  0.0722  0.0552  0.2201
 4295PP      PP14399   9.779  12.966  13.018  0.0883 -0.3123  0.0626
 4296PP      PP14400   3.785   0.821   0.133 -0.2241 -0.0763 -0.4943
 4297PP      PP14401   7.008   1.710  10.618  0.2108  0.0049  0.1232
 4298PP      PP14402   2.867   4.564   3.207  0.1012 -0.3511 -0.3032
 4299PP      PP14403   9.657  10.722   5.232 -0.0481 -0.0547 -0.0903
 4300PP      PP14404   5.682  15.683  12.154 -0.5594 -0.0040  0.1113
 4301PP      PP14405   2.630   9.915  10.261 -0.0993  0.0872  0.2070
 4302PP      PP14406   7.577   8.015  12.734  0.0010  0.1684 -0.1350
 4303PP      PP14407   7.343  15.457   2.039  0.0375  0.0130 -0.2895
 4304PP      PP14408   3.435   1.994   8.754  0.0329  0.0622  0.2070
 4305PP      PP14409   1.539   3.351   9.259  0.0549  0.2424 -0.1250
 4306PP      PP14410   3.909  10.677   0.748  0.0075  0.1501 -0.0806
 4307PP      PP14411   6.232  12.140   3.335  0.0508 -0.0386 -0.0300
 4308PP      PP14412   5.637  14.949  11.945  0.1329 -0.0045  0.1477
 4309PP      PP14413   4.219   1.492  10.425 -0.2823  0.1483 -0.2823
 4310PP      PP14414   4.688   9.490   0.655  0.0903  0.1030 -0.2569
 4311PP      PP14415   7.861   7.227   2.996  0.1061  0.2072  0.3465
 4312PP      PP14416   3.813   7.437  10.891  0.3210  0.1737  0.0749
 4313PP      PP14417   1.261   1.963  11.183 -0.1389 -0.0249  0.1236
 4314PP      PP14418  13.551  11.887  10.275  0.0889  0.0744 -0.1041
 4315PP      PP14419   1.815   7.381   9.432  0.2279  0.1858  0.0143
 4316PP      PP14420   2.371   6.324   2.885  0.1519  0.0698  0.1165
 4317PP      PP14421  12.023  13.696   3.712 -0.1370 -0.0962 -0.1282
 4318PP      PP14422   4.387   5.426  11.636 -0.2811  0.0182 -0.1064
 4319PP      PP14423  13.944   1.605   1.233  0.0557 -0.1893  0.1772
 4320PP      PP14424   7.446   2.980   2.787 -0.1620  0.1200  0.0072
 4321PP      PP14425   1.816   1.046   1.092  0.1996 -0.1643  0.0171
 4322PP      PP14426   1.973   1.360   0.303 -0.2754 -0.1640  0.2417
 4323PP      PP14427   7.937   2.463  13.477 -0.1386  0.1753  0.0597
 4324PP      PP14428   5.459  12.250   3.925 -0.4037  0.1377  0.0402
 4325PP      PP14429   7.961  15.737  10.412  0.1107 -0.1016  0.2299
 4326PP      PP14430  12.390   5.906  12.825 -0.0110 -0.1885  0.0817
 4327PP      PP14431  10.276  13.247   1.469 -0.4405 -0.0104 -0.1239
 4328PP      PP14432  13.223   9.427   0.571  0.0599 -0.0187  0.1809
 4329PP      PP14433  11.185  12.156  13.310 -0.3067  0.1365 -0.1325
 4330PP      PP14434   2.094  13.487  12.617 -0.1820  0.0455 -0.0408
 4331PP      PP14435   6.857  13.166  10.177 -0.0587 -0.0772  0.2088
 4332PP      PP14436   5.094  13.123   3.446 -0.2170 -0.2571 -0.4154
 4333PP      PP14437   3.349   0.715  11.375 -0.0906  0.3460 -0.2617
 4334PP      PP14438   9.351  10.610  12.051  0.2732  0.0945  0.1745
 4335PP      PP14439  12.435   9.286  10.305  0.1210 -0.0446  0.0719
 4336PP      PP14440   4.149  12.292   1.172 -0.0452  0.0759 -0.2444
 4337PP      PP14441   1.927  13.807   1.460  0.2202 -0.2436  0.0015
 4338PP      PP14442   4.932  14.758   2.343  0.0184 -0.0317 -0.2867
 4339PP      PP14443   3.102   9.863  12.399 -0.3033  0.0197 -0.0700
 4340PP      PP14444   0.325  11.981  12.443  0.0971  0.1281  0.2708
 4341PP      PP14445   3.819  12.970   2.221  0.0340  0.2188  0.0743
 4342PP      PP14446   3.613   1.321  12.059  0.0096 -0.1660 -0.1459
 4343PP      PP14447  11.312   7.270   0.457 -0.0996 -0.2757 -0.3720
 4344PP      PP14448  13.624  10.034  11.033  0.4448 -0.1188 -0.0975
 4345PP      PP14449  11.146   0.258   3.823 -0.1031 -0.1240 -0.1154
 4346PP      PP14450  14.518   3.754   0.581 -0.1715  0.4626  0.1431
 4347PP      PP14451   9.086   4.587   2.301  0.0091 -0.3582 -0.0879
 4348PP      PP14452   4.592   3.619  12.730  0.2069  0.2027 -0.0036
 4349PP      PP14453   4.696  12.767   0.583  0.2082  0.0224  0.1022
 4350PP      PP14454   9.690   5.061   2.971 -0.3208 -0.3306 -0.2266
 4351PP      PP14455   1.235   7.007   4.140  0.2671  0.1395  0.1800
 4352PP      PP14456   5.837   0.006   0.078 -0.2920 -0.0593 -0.1291
 4353PP      PP14457   4.675  10.369  12.892 -0.4018  0.1508  0.2391
 4354PP      PP14458   7.652   1.499   8.839  0.1080 -0.0935 -0.1973
 4355PP      PP14459  14.642   2.914   9.754  0.1829  0.2199  0.1410
 4356PP      PP14460   6.983   2.758  10.550 -0.4274 -0.0282 -0.0320
 4357PP      PP14461   5.365   7.049   2.748 -0.0959 -0.2826 -0.2184
 4358PP      PP14462   5.308   4.716   0.142  0.3964 -0.1970  0.0764
 4359PP      PP14463   1.079  14.811   9.228  0.1184 -0.2349 -0.0277
 4360PP      PP14464   8.790   1.417   7.851 -0.0721 -0.0785 -0.0462
 4361PP      PP14465   4.903   1.086  12.123  0.2090  0.1126 -0.0464
 4362PP      PP14466   1.297  13.719  11.632  0.1462  0.0550  0.0963
 4363PP      PP14467   6.653  11.134   1.043 -0.1104  0.0132  0.0470
 4364PP      PP14468   7.997   1.426   2.466 -0.0528  0.2308  0.0188
 4365PP      PP14469   7.312   0.113  13.196  0.0355  0.1636 -0.2806
 4366PP      PP14470  13.210   5.181   1.173 -0.1180  0.1154 -0.0972
 4367PP      PP14471  10.191  11.839  11.881 -0.0620  0.1765 -0.2661
 4368PP      PP14472  14.357   8.155  11.716 -0.1610 -0.2925 -0.0679
 4369PP      PP14473   0.380   0.164   9.403  0.2152  0.3045 -0.0213
 4370PP      PP14474   1.224   9.152  11.619  0.2979 -0.0399  0.3492
 4371PP      PP14475  10.475   3.276   0.084 -0.0361  0.1529 -0.0448
 4372PP      PP14476  11.808   3.732   1.185  0.0639 -0.2122  0.3528
 4373PP      PP14477   3.596  13.041   3.215  0.3045 -0.2948 -0.0865
 4374PP      PP14478  10.626   1.489   0.708 -0.2584 -0.0674 -0.0510
 4375PP      PP14479  10.423  14.292   1.055  0.0358  0.1077  0.0422
 4376PP      PP14480   8.245  10.727   2.258 -0.1311  0.3407  0.1091
 4377PP      PP14481  12.696  13.384   9.369  0.0709 -0.0784  0.0624
 4378PP      PP14482   3.738   6.859  10.362  0.2352  0.0463 -0.0719
 4379PP      PP14483   8.519   4.463  10.048  0.3167 -0.1483  0.1740
 4380PP      PP14484  12.641  15.500   1.572  0.1940 -0.1484 -0.0693
 4381PP      PP14485  15.013   6.071   2.497 -0.1961  0.1019 -0.1524
 4382PP      PP14486  14.078  13.952   2.578  0.0503  0.3289 -0.0463
 4383PP      PP14487   0.080   1.438   3.150  0.0462  0.2546  0.0892
 4384PP      PP14488   9.548   4.221  12.025  0.0389 -0.0685 -0.1791
 4385PP      PP14489   3.018  15.234  10.501  0.0259  0.0074  0.1878
 4386PP      PP14490  11.170  14.738  11.189  0.1679  0.1815 -0.0317
 4387PP      PP14491   5.558   1.279   1.273  0.1116  0.1059  0.1148
 4388PP      PP14492  11.104  13.393   2.073  0.4815 -0.2718 -0.2032
 4389PP      PP14493  13.016   8.952   0.698  0.1043  0.1208  0.0754
 4390PP      PP14494   8.962  14.937   2.716  0.1720 -0.5440 -0.1068
 4391PP      PP14495  12.166   5.290   2.485  0.2071 -0.1156 -0.0521
 4392PP      PP14496  15.672  12.008  11.639 -0.2494  0.1922  0.1614
 4393PP      PP14497  15.256   2.163   4.526 -0.0416 -0.0167 -0.2028
 4394PP      PP14498   4.265  10.217   8.744  0.2644 -0.0652  0.1301
 4395PP      PP14499   9.020   2.817   1.131 -0.2217  0.0306  0.0679
 4396PP      PP14500  12.297  11.422   4.278  0.0675  0.1032  0.0529
 4397PP      PP14501  11.105  15.221  11.112 -0.1717 -0.1401 -0.3386
 4398PP      PP14502   6.569   4.758   0.580 -0.0919 -0.1396  0.1430
 4399PP      PP14503  10.281   0.979   3.151 -0.0059  0.1924  0.0709
 4400PP      PP14504  15.349   0.104   5.096  0.1667 -0.0188  0.0573
 4401PP      PP14505  11.640  14.681   0.462 -0.0899 -0.0499 -0.1299
 4402PP      PP14506   2.172  13.306  11.823 -0.1975  0.0625 -0.2529
 4403PP      PP14507   1.301  12.024  13.614 -0.2380 -0.1117 -0.1291
 4404PP      PP14508   9.287   4.377   3.447  0.1486  0.3040 -0.0909
 4405PP      PP14509   6.834   1.757   8.098  0.2405 -0.2150 -0.0932
 4406PP      PP14510   3.907   6.105  13.496 -0.0711  0.1689  0.1885
 4407PP      PP14511   1.511   5.461   0.411 -0.0573  0.2388  0.0862
 4408PP      PP14512   4.682   4.362  13.598 -0.1694 -0.6602 -0.3726
 4409PP      PP14513   5.383   9.286   3.849 -0.3472 -0.1050  0.2121
 4410PP      PP14514  12.432  10.428  11.972 -0.0283 -0.1019  0.3238
 4411PP      PP14515  13.985   5.973   4.430 -0.2008  0.0615 -0.0077
 4412PP      PP14516   4.686  15.414  11.165  0.0623  0.3503  0.1042
 4413PP      PP14517   2.862  13.959   3.016 -0.0073  0.0861  0.1930
 4414PP      PP14518   3.978  12.014   3.947  0.2020  0.1435 -0.2417
 4415PP      PP14519   3.623   3.974   0.608  0.2145 -0.1248  0.1351
 4416PP      PP14520   7.983  14.000   3.375  0.1909 -0.2594 -0.1324
 4417PP      PP14521  11.764   8.738  11.901  0.1202 -0.4976  0.1700
 4418PP      PP14522  13.132   8.672  12.870 -0.0429  0.1938  0.4326
 4419PP      PP14523   6.739   3.094  13.442 -0.0720 -0.0503  0.2597
 4420PP      PP14524  13.717  14.715   1.491  0.0672  0.0476 -0.2044
 4421PP      PP14525   3.184   9.953   4.475  0.0733  0.1440 -0.1924
 4422PP      PP14526  15.123   2.733   0.900 -0.0389 -0.3350 -0.1060
 4423PP      PP14527  12.212   4.168   3.118  0.3036  0.1937 -0.0463
 4424PP      PP14528  12.081  15.706  10.726 -0.0641  0.1645  0.0025
 4425PP      PP14529   0.029   4.506   0.921 -0.0474 -0.0950  0.1340
 4426PP      PP14530   7.204   4.404  12.683 -0.2086 -0.0271 -0.0987
 4427PP      PP14531   6.141   2.758   9.549 -0.0222 -0.1581  0.0863
 4428PP      PP14532  11.017   5.699  10.989 -0.0952 -0.2984 -0.1244
 4429PP      PP14533  10.688   6.145  10.959  0.1587  0.1957  0.0144
 4430PP      PP14534  10.935  11.240   3.561 -0.1064  0.1545 -0.2184
 4431PP      PP14535   0.318  15.436   9.305 -0.0249 -0.2045 -0.2782
 4432PP      PP14536   8.172  13.396   9.996  0.3334 -0.1349  0.0287
 4433PP      PP14537   0.892  14.282   9.053 -0.0725  0.0703  0.0567
 4434PP      PP14538  14.457  12.406  12.643  0.0179  0.2535 -0.1235
 4435PP      PP14539  13.891  11.439   0.024 -0.0234 -0.3038 -0.1241
 4436PP      PP14540   5.807   7.506  13.644  0.1252 -0.0060  0.3360
 4437PP      PP14541   3.939   7.552   1.881 -0.1315  0.0820 -0.1609
 4438PP      PP14542   9.728  15.521   9.260  0.1960  0.0440  0.0301
 4439PP      PP14543   9.567  12.688   0.653 -0.0154  0.1506  0.0087
 4440PP      PP14544   8.214   9.501  10.776  0.3079  0.2923  0.0379
 4441PP      PP14545   2.415   6.378   4.013 -0.2466  0.0468 -0.0191
 4442PP      PP14546   8.958   6.432  10.177 -0.0868 -0.1865  0.0202
 4443PP      PP14547   6.297  13.959  13.461  0.0302  0.1194 -0.0977
 4444PP      PP14548   7.088   3.377   7.561 -0.3046  0.1232  0.0767
 4445PP      PP14549   1.864   6.030  12.954 -0.0345 -0.0200 -0.0705
 4446PP      PP14550   6.119   7.618   1.880 -0.1407 -0.3641 -0.2818
 4447PP      PP14551   4.771  14.466  11.726 -0.2615 -0.3663  0.0196
 4448PP      PP14552  12.839  12.103   2.876  0.2995  0.0889 -0.0243
 4449PP      PP14553  11.425   2.064   0.387 -0.0559  0.1600  0.2763
 4450PP      PP14554   3.585   5.874  13.176 -0.1826  0.2023  0.0373
 4451PP      PP14555  15.035  12.412   1.341 -0.2511 -0.0012  0.0622
 4452PP      PP14556   0.103   1.799  10.436  0.3538  0.1875 -0.0218
 4453PP      PP14557  11.956  14.915   0.792  0.0159 -0.0582  0.2080
 4454PP      PP14558  14.286   9.268  12.889 -0.0744  0.0596  0.0217
 4455PP      PP14559   3.642   7.212   2.083 -0.1313  0.0993  0.2005
 4456PP      PP14560   3.093   7.716  12.547  0.0694  0.1776 -0.0673
 4457PP      PP14561   9.088   1.442   3.370  0.0767  0.0701  0.1571
 4458PP      PP14562  14.716   7.095  10.878  0.0242 -0.4094 -0.0234
 4459PP      PP14563  10.915   4.963   0.569  0.1969  0.0913  0.0105
 4460PP      PP14564  12.565  15.248  13.140  0.0502  0.3047 -0.0161
 4461PP      PP14565  11.310   8.779   3.231  0.0452  0.1035  0.3372
 4462PP      PP14566   1.071   8.064   0.742  0.1289 -0.0214 -0.0548
 4463PP      PP14567   5.603   6.722   3.769  0.1188 -0.0077  0.0145
 4464PP      PP14568   3.971  12.668   3.592  0.2696  0.0215 -0.0647
 4465PP      PP14569   8.352  15.500   9.525 -0.3299 -0.1108 -0.1175
 4466PP      PP14570   4.931   3.342   1.398 -0.1848  0.0263 -0.2280
 4467PP      PP14571   3.173   7.026   2.456  0.0309 -0.0728  0.0325
 4468PP      PP14572  13.259   4.936  11.492 -0.2058 -0.0112  0.0252
 4469PP      PP14573   9.151  15.623  10.082 -0.0797 -0.0842 -0.5572
 4470PP      PP14574  13.730  12.606   3.834 -0.1658  0.1898  0.1252
 4471PP      PP14575  12.107   1.186   0.338  0.2874 -0.1326  0.0050
 4472PP      PP14576   2.201  11.894   1.877 -0.0355  0.0670  0.0246
 4473PP      PP14577   6.290   2.900   1.313 -0.0896  0.2622 -0.0801
 4474PP      PP14578   0.352  11.665   4.034 -0.0998 -0.0646  0.0193
 4475PP      PP14579   1.191  11.528   1.640  0.0135 -0.1823  0.1554
 4476PP      PP14580  10.883  12.325  12.498 -0.3622 -0.1348 -0.1731
 4477PP      PP14581   5.106   2.704  10.704  0.0062  0.1624 -0.2653
 4478PP      PP14582   3.909  14.467   2.717 -0.1188 -0.0285 -0.3492
 4479PP      PP14583   3.619   7.352   1.541 -0.0786 -0.1117  0.0332
 4480PP      PP14584   8.693   2.133  12.922 -0.0731 -0.2398  0.0222
 4481PP      PP14585  13.847   3.266  11.503 -0.0288 -0.0243  0.3125
 4482PP      PP14586   6.334   6.992  12.262 -0.0303 -0.0084  0.2443
 4483PP      PP14587   9.969   1.170  12.162  0.0255  0.0293  0.0320
 4484PP      PP14588  11.421  12.008  13.766  0.2690  0.0292  0.1902
 4485PP      PP14589   6.509  13.611  11.469 -0.1910 -0.0734  0.2336
 4486PP      PP14590  10.532   0.222   2.286 -0.0319  0.1485 -0.2962
 4487PP      PP14591   9.851   9.405   0.013 -0.4221  0.1353  0.0063
 4488PP      PP14592   2.994   5.430   8.923 -0.1177 -0.3491 -0.0719
 4489PP      PP14593   7.766   8.986  12.187 -0.2186  0.0107  0.0510
 4490PP      PP14594   5.779  14.609   4.682  0.0512 -0.0018  0.2002
 4491PP      PP14595   5.385   0.850   1.494  0.1418 -0.1061 -0.0528
 4492PP      PP14596   3.971  13.595  12.947 -0.2438 -0.2532 -0.1358
 4493PP      PP14597  15.103  10.434   0.316  0.1723 -0.0544 -0.0658
 4494PP      PP14598  15.286   7.007  13.184  0.4338  0.2307  0.1268
 4495PP      PP14599   5.438  11.569  10.854  0.0152 -0.1797 -0.1379
 4496PP      PP14600  12.424   1.089  12.692  0.2934  0.3893 -0.0643
 4497PP      PP14601   6.236   9.253  13.572  0.1652  0.0846 -0.4055
 4498PP      PP14602  10.823   8.038  13.390 -0.0404 -0.3113 -0.0793
 4499PP      PP14603  11.057   5.414  13.760 -0.0780 -0.1961  0.3156
 4500PP      PP14604   9.495   2.793   9.061  0.0802 -0.2372 -0.0919
 4501PP      PP14605   3.892   8.365   0.804  0.1247  0.1776 -0.1649
 4502PP      PP14606   1.834   0.762  12.605  0.1107 -0.0036  0.0001
 4503PP      PP14607  14.460   5.285   1.744 -0.2382 -0.1312  0.1550
 4504PP      PP14608  13.437   8.388  10.505 -0.3010  0.2062 -0.2923
 4505PP      PP14609   6.245   0.895   7.962 -0.2821  0.0745  0.1081
 4506PP      PP14610  12.658   4.132  12.970 -0.0038 -0.0390 -0.1250
 4507PP      PP14611   4.214  13.727   2.975 -0.3074 -0.0936 -0.1902
 4508PP      PP14612   7.592   1.129   2.760 -0.0018 -0.0237 -0.4302
 4509PP      PP14613   0.297  11.046   0.299  0.3862 -0.1829  0.0361
 4510PP      PP14614  10.782  11.712  10.041  0.0345  0.2431  0.2422
 4511PP      PP14615   4.988   6.522  10.832 -0.0774 -0.0138 -0.0115
 4512PP      PP14616   7.451   5.075  12.888 -0.0224  0.0760 -0.3415
 4513PP      PP14617   1.157   1.369  13.617 -0.2687 -0.0156 -0.3135
 4514PP      PP14618   5.090   0.347   8.839 -0.1105 -0.4845  0.2325
 4515PP      PP14619   8.340   9.114  13.564  0.0012  0.1825  0.2692
 4516PP      PP14620  13.044   8.771  11.269 -0.0032 -0.0771  0.0773
 4517PP      PP14621  13.182   5.305   4.272 -0.1552 -0.1660  0.1135
 4518PP      PP14622  12.964   7.400   0.232  0.1579  0.1690 -0.0398
 4519PP      PP14623  14.077  14.999   1.766  0.2407  0.2531 -0.5637
 4520PP      PP14624   3.278   4.346   8.039  0.1118  0.0135  0.0274
 4521PP      PP14625   5.335   8.422   4.384 -0.1380  0.0188  0.0318
 4522PP      PP14626   8.679   5.847   9.700 -0.0573  0.0462  0.4033
 4523PP      PP14627   9.096  12.326  12.229 -0.0064  0.2875  0.0444
 4524PP      PP14628   3.205  13.704   3.882  0.0435  0.2777  0.2261
 4525PP      PP14629  14.312  15.671  12.810 -0.1192 -0.0309 -0.0723
 4526PP      PP14630   5.794   6.487   0.021 -0.2013  0.0515 -0.0904
 4527PP      PP14631   6.036  13.453   3.242  0.1872 -0.0933  0.1355
 4528PP      PP14632   0.800   7.581   0.610 -0.1827 -0.1207 -0.2700
 4529PP      PP14633  10.960   1.206  13.240  0.5003 -0.1073 -0.1374
 4530PP      PP14634  13.431   1.058   9.048 -0.1477 -0.4898 -0.2854
 4531PP      PP14635   0.530   8.534  11.585  0.0035 -0.2837 -0.2114
 4532PP      PP14636   4.691  10.776  10.949 -0.0083  0.0232 -0.0770
 4533PP      PP14637   8.325  13.597  12.343 -0.0901  0.1931  0.1897
 4534PP      PP14638   1.856  11.157  10.308  0.0439 -0.1099  0.0236
 4535PP      PP14639  12.876   1.493   0.414  0.2739 -0.1291 -0.3023
 4536PP      PP14640  13.239  15.169  13.092 -0.0689  0.0266 -0.1343
 4537PP      PP14641  12.197   8.081  12.896 -0.0041  0.1590 -0.2556
 4538PP      PP14642  11.180   9.086   5.245 -0.2688 -0.0462 -0.3172
 4539PP      PP14643   5.384   7.983   2.583 -0.1741  0.1670 -0.3086
 4540PP      PP14644  10.204  13.672  12.512  0.0964  0.1630 -0.1529
 4541PP      PP14645  12.989  15.609  10.300 -0.0464 -0.2002 -0.0639
 4542PP      PP14646   1.401   2.996  11.332  0.1170 -0.4005 -0.6274
 4543PP      PP14647  13.176   7.514   4.538  0.1809 -0.4300  0.2504
 4544PP      PP14648  13.850   6.993   2.753  0.3806 -0.2901  0.2184
 4545PP      PP14649   7.424   0.599  10.118  0.2256 -0.1415  0.0694
 4546PP      PP14650   8.569  13.060   2.412 -0.2498 -0.0379 -0.0602
 4547PP      PP14651   9.332   6.748   3.383  0.1760  0.0048  0.2312
 4548PP      PP14652  15.033   8.982  12.310  0.2325  0.0223  0.0668
 4549PP      PP14653   6.184   6.816  10.353 -0.0760 -0.0462 -0.1857
 4550PP      PP14654  12.093   9.424   1.265 -0.3495  0.0176 -0.0951
 4551PP      PP14655   7.312   8.408   0.653  0.1582  0.1620 -0.0848
 4552PP      PP14656   4.813  15.695   8.961  0.0461  0.0709 -0.3935
 4553PP      PP14657   1.035  13.791   8.762 -0.3446 -0.0058  0.5531
 4554PP      PP14658  11.303   4.738   9.625  0.1136 -0.2807  0.3137
 4555PP      PP14659   8.009   7.758   0.484 -0.0791  0.0378  0.1336
 4556PP      PP14660  13.647  11.899  13.079 -0.1854  0.2583  0.2758
 4557PP      PP14661  12.375   4.763   1.856 -0.1072  0.4093  0.0102
 4558PP      PP14662  10.927   8.394   0.703 -0.2036 -0.3745 -0.1050
 4559PP      PP14663   4.114   0.351   3.824  0.0152 -0.2222  0.3107
 4560PP      PP14664   8.823  10.791   1.194  0.1835 -0.0932 -0.1798
 4561PP      PP14665   3.777   2.154  10.989  0.0673  0.1677  0.1634
 4562PP      PP14666   6.342  12.503  10.600 -0.0423 -0.3528 -0.0792
 4563PP      PP14667   3.589   7.950   9.195  0.4568 -0.2122 -0.0638
 4564PP      PP14668   9.293   7.244  11.805 -0.3093 -0.1149 -0.1706
 4565PP      PP14669   8.111   5.358  12.507  0.1984 -0.3491 -0.0574
 4566PP      PP14670   4.878   6.196   8.514 -0.1011 -0.0267 -0.0226
 4567PP      PP14671   6.025  10.549   4.294  0.1186  0.0525  0.0895
 4568PP      PP14672  12.303   9.391  11.045 -0.0396  0.0700 -0.2418
 4569PP      PP14673   3.453   3.096  11.823  0.1750 -0.3593 -0.0327
 4570PP      PP14674   4.645   5.633   8.035 -0.1966 -0.1325  0.2852
 4571PP      PP14675   0.522   8.003   0.513 -0.0684  0.4374 -0.0011
 4572PP      PP14676   2.102   8.167  10.561  0.0565 -0.1930  0.2046
 4573PP      PP14677  13.729   3.694   3.874 -0.0815 -0.1445 -0.0416
 4574PP      PP14678   1.315   8.914   0.128 -0.0183  0.0179 -0.1110
 4575PP      PP14679  10.705  12.175  13.209  0.2326 -0.1870 -0.3007
 4576PP      PP14680   4.951   8.600   8.667  0.1615  0.0356 -0.0556
 4577PP      PP14681   1.698   4.401   0.302 -0.0536 -0.0065  0.2319
 4578PP      PP14682  11.411   8.577  12.562 -0.0860  0.0841 -0.0824
 4579PP      PP14683  13.522   8.205   3.769  0.2640  0.2963 -0.0647
 4580PP      PP14684   6.511   2.160  12.961 -0.1443  0.0557 -0.1842
 4581PP      PP14685   9.460   4.597  13.284 -0.1098 -0.3304 -0.2180
 4582PP      PP14686   3.630   5.744  13.724  0.1781 -0.0832 -0.1278
 4583PP      PP14687  10.759  15.652  10.242 -0.0136 -0.0141  0.0197
 4584PP      PP14688   7.569   5.806   2.879 -0.3052  0.3269  0.2763
 4585PP      PP14689   1.948  15.416   1.098  0.1021  0.0030 -0.3405
 4586PP      PP14690  10.954  15.023   2.880 -0.1211  0.0187  0.0111
 4587PP      PP14691   8.803  11.590  13.343 -0.0795  0.0359 -0.0368
 4588PP      PP14692  10.755   4.518  12.136  0.1304 -0.3388 -0.4838
 4589PP      PP14693   6.524  11.705  10.919  0.0307 -0.3804 -0.0983
 4590PP      PP14694   7.756   2.988  10.346  0.1009 -0.0538 -0.0424
 4591PP      PP14695  10.146   0.745   9.404  0.0397  0.3005 -0.0455
 4592PP      PP14696   8.225   1.960   0.499  0.1547 -0.2061 -0.1987
 4593PP      PP14697   7.591   0.453   9.638 -0.0987 -0.3147 -0.0094
 4594PP      PP14698  13.121  10.892  11.163 -0.0659 -0.1899 -0.2351
 4595PP      PP14699   7.851  11.007  13.137  0.0173  0.0457  0.0618
 4596PP      PP14700   7.329  14.947  11.376  0.1337 -0.0593  0.0764
 4597PP      PP14701   4.331   0.753   9.964 -0.2300  0.4022 -0.2046
 4598PP      PP14702   1.607   4.268   3.913  0.0696 -0.1498 -0.2384
 4599PP      PP14703   6.404   4.340  12.694  0.0402 -0.2776  0.1601
 4600PP      PP14704  12.129   3.870   4.118 -0.0670  0.0731 -0.1195
 4601PP      PP14705   6.920  13.433  12.536 -0.2857  0.1125  0.2609
 4602PP      PP14706   7.158  15.182  13.644  0.0646 -0.0639  0.0607
 4603PP      PP14707  14.309  13.602  10.000 -0.3679  0.2706  0.1941
 4604PP      PP14708   9.503   8.036   9.465  0.0789 -0.2165  0.3153
 4605PP      PP14709  12.784   5.570   1.099  0.1292  0.1058  0.2083
 4606PP      PP14710  14.315   2.911  12.827 -0.0508  0.0573 -0.2787
 4607PP      PP14711   4.574  13.711  12.280 -0.0189 -0.1575  0.1085
 4608PP      PP14712   2.440   1.351  13.631  0.0997  0.3158  0.0264
 4609PP      PP14713  15.197  11.879   0.974  0.2767  0.3741  0.2184
 4610PP      PP14714   0.753   0.465   3.102 -0.4440 -0.1944 -0.0844
 4611PP      PP14715   7.375  13.907   1.533  0.1231 -0.2245 -0.2729
 4612PP      PP14716   5.459   2.617   0.218 -0.0932  0.1555  0.1031
 4613PP      PP14717  14.159   0.262   0.473 -0.0894 -0.0463  0.1387
 4614PP      PP14718   0.427   2.218   2.479 -0.0162 -0.2472  0.0825
 4615PP      PP14719   7.606   5.730  10.821  0.2268 -0.1045  0.0128
 4616PP      PP14720   4.818   4.300   1.559  0.1145  0.1023 -0.0944
 4617PP      PP14721   3.826   0.763   1.698 -0.1077  0.0422 -0.1965
 4618PP      PP14722   7.312   8.851   3.844 -0.0503 -0.1706 -0.0403
 4619PP      PP14723  13.184   9.999   1.477  0.2972 -0.0796  0.2066
 4620PP      PP14724   2.614  10.246   2.086 -0.1103 -0.1354  0.0254
 4621PP      PP14725   8.909   6.206   2.552  0.1069  0.2612  0.1337
 4622PP      PP14726  11.795   8.117   2.647  0.0878 -0.3559  0.2150
 4623PP      PP14727   2.160   7.658   9.092 -0.0711 -0.1675 -0.2075
 4624PP      PP14728  11.130   3.057  11.614  0.2360 -0.0668 -0.1576
 4625PP      PP14729  11.814  14.864   1.238 -0.0108  0.1269 -0.1883
 4626PP      PP14730  10.431  11.430   3.777 -0.5142  0.2267  0.3453
 4627PP      PP14731  13.565  13.404   3.257  0.2162  0.1146  0.1371
 4628PP      PP14732   7.860  14.063   1.049 -0.0067 -0.0343  0.1717
 4629PP      PP14733  15.365   5.022   2.804 -0.0084  0.0505  0.2156
 4630PP      PP14734   2.481   9.754   9.271  0.1947  0.0564  0.1037
 4631PP      PP14735   4.137   1.145   0.230 -0.0315  0.0213 -0.5042
 4632PP      PP14736   5.048   8.062  13.559 -0.0112 -0.1810  0.0748
 4633PP      PP14737   4.059  11.164   1.803 -0.4013 -0.1760 -0.2412
 4634PP      PP14738  12.874   7.932  12.289 -0.1064  0.1328  0.1241
 4635PP      PP14739  13.201  15.657   4.316  0.2081 -0.2071 -0.1632
 4636PP      PP14740  14.496   2.624  12.253 -0.0150  0.1414  0.0714
 4637PP      PP14741   7.472  13.241   3.193 -0.1636 -0.3599 -0.0939
 4638PP      PP14742   8.965  15.467   4.006 -0.1004 -0.1797 -0.0459
 4639PP      PP14743   6.729   9.246   0.869  0.0461  0.3320  0.0076
 4640PP      PP14744   7.445  12.729   2.929 -0.2106 -0.2103  0.1678
 4641PP      PP14745  12.399   8.990   1.611 -0.1398 -0.1219 -0.1746
 4642PP      PP14746   5.391   7.912   4.525 -0.0830 -0.5283 -0.1094
 4643PP      PP14747  11.259   6.301   2.283 -0.0886 -0.3245 -0.0061
 4644PP      PP14748   1.409   5.182  12.268  0.2504  0.0335 -0.0830
 4645PP      PP14749  12.459   5.205   4.870  0.1941  0.1191 -0.0338
 4646PP      PP14750   1.383   9.114   3.801 -0.2379  0.2338 -0.1323
 4647PP      PP14751   1.713   2.070  10.273  0.0704 -0.4318  0.0882
 4648PP      PP14752   1.679  15.523   9.560  0.0017  0.0891  0.3339
 4649PP      PP14753   6.756   1.422   7.573 -0.0018  0.2877 -0.0293
 4650PP      PP14754   9.628   1.353   3.795  0.1659  0.1563  0.0195
 4651PP      PP14755   3.492   6.491  11.995  0.2971  0.0542  0.0675
 4652PP      PP14756   9.067   0.870   9.488 -0.0333  0.1826 -0.4781
 4653PP      PP14757   8.760   6.154   8.644 -0.3368 -0.1084  0.0155
 4654PP      PP14758   8.979   9.907  13.372 -0.0813  0.0230 -0.0821
 4655PP      PP14759  11.649  14.381   1.383  0.0525 -0.0953  0.1162
 4656PP      PP14760   1.235   6.498  13.466 -0.2405 -0.2072  0.3957
 4657PP      PP14761   6.108   5.657   8.809  0.0204  0.1029  0.0966
 4658PP      PP14762   2.038   4.434   3.416 -0.5413  0.1868  0.5572
 4659PP      PP14763   0.960  14.710   1.885 -0.0421  0.2644  0.0530
 4660PP      PP14764   1.616   4.049   4.813 -0.0325 -0.2908  0.0591
 4661PP      PP14765  14.754   1.416   0.748  0.4685  0.0919 -0.0797
 4662PP      PP14766   6.463  12.928   0.737  0.3429 -0.2673 -0.1810
 4663PP      PP14767  11.183   9.360  11.616  0.0883 -0.2855 -0.2180
 4664PP      PP14768  14.574   9.751  10.230 -0.1233 -0.1778 -0.0559
 4665PP      PP14769   5.362   2.602  13.387 -0.0320  0.1082  0.0487
 4666PP      PP14770   8.854  11.313   2.093  0.0121  0.0498  0.3465
 4667PP      PP14771   0.968  11.460  13.069 -0.1328  0.1369  0.1272
 4668PP      PP14772  14.174  12.202  13.730  0.0392 -0.1017  0.1525
 4669PP      PP14773  10.536   5.896  13.256  0.1306 -0.0551 -0.0229
 4670PP      PP14774  14.544   3.228   1.652 -0.3111 -0.1008 -0.1299
 4671PP      PP14775  10.964   2.410   0.994 -0.0210 -0.2374 -0.0159
 4672PP      PP14776   9.704  13.936  12.028 -0.0906  0.0567 -0.1264
 4673PP      PP14777  15.246  15.734   0.933  0.0919 -0.0960  0.3443
 4674PP      PP14778  11.230   8.256  13.491  0.1125 -0.0010  0.0982
 4675PP      PP14779   1.995  14.650  13.226 -0.1662 -0.0696 -0.3172
 4676PP      PP14780  14.130   0.857   3.199 -0.2055  0.1679 -0.2046
 4677PP      PP14781   5.691  15.590   1.624  0.2000 -0.1797 -0.3770
 4678PP      PP14782   0.745   3.325   1.611  0.2725  0.1674 -0.2652
 4679PP      PP14783   5.005   9.494  11.632  0.1900  0.0383  0.1733
 4680PP      PP14784   2.139   4.590  11.460 -0.1519 -0.1214  0.1903
 4681PP      PP14785  12.290   8.134   0.450 -0.0042 -0.3134 -0.0901
 4682PP      PP14786   8.609  11.112   3.405  0.2864  0.1866 -0.0677
 4683PP      PP14787   7.876   6.510  10.758 -0.2030 -0.0614  0.2491
 4684PP      PP14788  11.791   5.295  13.052 -0.1126 -0.3179 -0.0249
 4685PP      PP14789  11.447  13.773   2.520  0.1157  0.0936  0.1111
 4686PP      PP14790  10.262  10.765   2.612  0.1270  0.1153  0.0515
 4687PP      PP14791   4.714   2.888   1.218 -0.0891  0.1369 -0.3304
 4688PP      PP14792   0.392  14.376   1.217  0.0800 -0.2626  0.2587
 4689PP      PP14793  13.426  10.409  11.617  0.1115 -0.2179  0.0786
 4690PP      PP14794   4.777  11.505  13.457  0.0161 -0.1237  0.0141
 4691PP      PP14795  12.741   9.156   5.511  0.1042 -0.1737  0.2067
 4692PP      PP14796   9.490   8.117  10.861 -0.2127 -0.0290 -0.0105
 4693PP      PP14797  13.915   2.428  12.437 -0.1576 -0.0858  0.2149
 4694PP      PP14798  11.427   6.736   3.116 -0.2650  0.3180  0.3296
 4695PP      PP14799   0.623   6.724  11.677  0.0924 -0.2703  0.2793
 4696PP      PP14800   1.943   7.033  13.700 -0.1046  0.0784 -0.0115
 4697PP      PP14801   6.599   8.476  13.679  0.1283 -0.0690 -0.1325
 4698PP      PP14802   7.117   0.733  11.507 -0.1786 -0.2108  0.3171
 4699PP      PP14803   8.317   6.982   9.592 -0.1149 -0.1629 -0.0551
 4700PP      PP14804  12.902   6.555   5.237  0.4748 -0.0913 -0.0002
 4701PP      PP14805   0.352  10.257  10.221 -0.1609  0.0542  0.2286
 4702PP      PP14806   3.071  12.441   4.620  0.0229 -0.2846 -0.3670
 4703PP      PP14807  11.500   9.925  12.871 -0.2097  0.0612  0.0110
 4704PP      PP14808  15.505  11.142   3.961 -0.1130  0.1788 -0.2579
 4705PP      PP14809   9.542  15.525   4.824 -0.1761 -0.0711  0.0231
 4706PP      PP14810   2.405   8.290   1.778 -0.1857 -0.1388  0.0488
 4707PP      PP14811   7.226   0.347   9.246 -0.0380 -0.4157 -0.1203
 4708PP      PP14812   9.238   0.268  12.679  0.2491 -0.1990 -0.3376
 4709PP      PP14813   7.638   4.770   2.726 -0.0080  0.1292 -0.1197
 4710PP      PP14814   5.607   2.594  12.930 -0.0636  0.0688  0.0460
 4711PP      PP14815   4.596   8.573   2.986  0.1808  0.0860  0.0233
 4712PP      PP14816   9.224   8.886   4.294  0.0606 -0.0563  0.1189
 4713PP      PP14817   9.906   0.424   3.793  0.0895  0.2035 -0.1052
 4714PP      PP14818  10.130   1.059  13.285  0.0037 -0.1018  0.0339
 4715PP      PP14819  14.529  11.185  11.468 -0.0026  0.1194 -0.2120
 4716PP      PP14820  12.460   1.079  11.885 -0.1682  0.1851 -0.3494
 4717PP      PP14821   6.246   0.974  13.335 -0.0051 -0.0674  0.0691
 4718PP      PP14822  14.634   3.909  13.595 -0.1880 -0.1931 -0.1264
 4719PP      PP14823   8.830  11.515   4.149 -0.0402 -0.2468  0.2686
 4720PP      PP14824   9.511  14.693  12.615 -0.2386  0.0367  0.0062
 4721PP      PP14825   1.676   5.466  11.238 -0.2380  0.0344 -0.0703
 4722PP      PP14826  12.335   1.233  11.159  0.1214  0.0084  0.0231
 4723PP      PP14827   7.093   8.239  13.613  0.1394  0.3013  0.2551
 4724PP      PP14828   4.495   7.709  11.428 -0.1256 -0.0876  0.0757
 4725PP      PP14829   2.768  14.827  10.891  0.1558 -0.1004 -0.0292
 4726PP      PP14830   9.448   0.142  10.573 -0.2624 -0.0897 -0.2684
 4727PP      PP14831  14.118   2.438  10.055 -0.3146  0.1157  0.4259
 4728PP      PP14832  13.075  11.667   1.729 -0.2777  0.2947  0.1032
 4729PP      PP14833   6.392   0.872   0.135 -0.1198  0.4057 -0.2154
 4730PP      PP14834   1.445   7.220   3.114 -0.1384 -0.1408  0.0742
 4731PP      PP14835   6.906  15.149   3.506  0.2209 -0.1096  0.1111
 4732PP      PP14836  11.643  12.059   3.550  0.2411 -0.2068  0.0592
 4733PP      PP14837   1.768   3.721  13.266  0.0696 -0.0176 -0.1444
 4734PP      PP14838   7.893   0.225   3.810  0.0013 -0.2853 -0.2574
 4735PP      PP14839   7.071   0.039  12.797  0.1384 -0.0606  0.4052
 4736PP      PP14840   6.996   7.141  12.760  0.2100  0.2607 -0.0001
 4737PP      PP14841  10.597   2.744   8.347  0.2221  0.3139  0.0910
 4738PP      PP14842  10.168   0.654  11.615 -0.4328  0.0868  0.1975
 4739PP      PP14843   6.226   3.007   0.408  0.0780 -0.2105 -0.1773
 4740PP      PP14844  10.951  13.108  10.208  0.4524  0.2928 -0.3961
 4741PP      PP14845   1.300  13.630   3.080  0.0080  0.0513  0.0277
 4742PP      PP14846   7.433  13.676  12.611 -0.0146 -0.0708  0.0233
 4743PP      PP14847   8.314  14.385   3.146 -0.1023 -0.2693 -0.3194
 4744PP      PP14848   8.690  12.498  11.382  0.0804  0.0715  0.0141
 4745PP      PP14849   0.039  14.918   4.774  0.0767  0.1595  0.1419
 4746PP      PP14850  12.915  15.661   9.819 -0.0302 -0.1471  0.0116
 4747PP      PP14851   2.699   4.794   0.203  0.0963 -0.1744  0.4292
 4748PP      PP14852   6.953  14.859   9.456  0.0693 -0.0633 -0.1698
 4749PP      PP14853   2.324  11.089   3.487 -0.1053  0.0028  0.0215
 4750PP      PP14854   0.305   6.779  13.606  0.2734 -0.0398  0.1007
 4751PP      PP14855   7.732   8.447   0.928 -0.0709  0.0829 -0.0106
 4752PP      PP14856  11.591   1.445  13.741 -0.0892 -0.0276  0.0100
 4753PP      PP14857   2.693   7.757   0.643 -0.0134 -0.2500 -0.1671
 4754PP      PP14858   9.163   4.317   1.927 -0.0013 -0.3577  0.3256
 4755PP      PP14859   2.327   3.424   2.159 -0.0333  0.2324 -0.1729
 4756PP      PP14860  13.875   9.114   4.013 -0.0266 -0.1270 -0.2450
 4757PP      PP14861  15.697   4.719  13.285  0.2320  0.0387 -0.1502
 4758PP      PP14862  12.717   4.443  12.563 -0.1400 -0.1528 -0.0750
 4759PP      PP14863   9.686  14.012  10.097 -0.0732  0.1576 -0.2845
 4760PP      PP14864   3.146  10.292  11.849  0.0165 -0.1505 -0.1318
 4761PP      PP14865  10.950   8.858   2.592  0.0164  0.2314 -0.1834
 4762PP      PP14866   5.517  15.041   2.300  0.2605  0.0696  0.0746
 4763PP      PP14867   6.780  15.621   1.777  0.1711  0.2170 -0.0336
 4764PP      PP14868  10.984   9.499   3.846 -0.1741 -0.1160 -0.0228
 4765PP      PP14869  15.486   0.500  13.031 -0.0785  0.0790 -0.1276
 4766PP      PP14870   4.901   9.586   1.096  0.0255 -0.2195  0.1234
 4767PP      PP14871   6.339   7.679  13.019 -0.0712 -0.1571 -0.0132
 4768PP      PP14872   9.294   6.004  13.544 -0.1287  0.1186 -0.2781
 4769PP      PP14873   9.142   9.631   0.672 -0.0729 -0.2912  0.2829
 4770PP      PP14874   4.563   8.400  10.598 -0.3570 -0.2563 -0.0563
 4771PP      PP14875  10.676  14.600   4.599 -0.1219 -0.1902  0.2296
 4772PP      PP14876   6.963   9.216  11.072 -0.1067 -0.0237 -0.3509
 4773PP      PP14877   0.663   3.957   9.375 -0.1762  0.0140 -0.0181
 4774PP      PP14878   1.820   3.454   1.684  0.0493  0.0992 -0.1181
 4775PP      PP14879  11.146  12.071  10.043  0.1357  0.2493  0.1125
 4776PP      PP14880   1.985  13.107  12.896  0.3024  0.1701 -0.2591
 4777PP      PP14881   6.906  15.260  12.680 -0.1396 -0.0107  0.0361
 4778PP      PP14882  14.116  14.859  10.814 -0.0325  0.0312 -0.2135
 4779PP      PP14883  12.708   7.147   4.673  0.2643  0.2012  0.0540
 4780PP      PP14884   5.499   7.411   2.451 -0.0410 -0.2065 -0.0828
 4781PP      PP14885   3.684   2.877   8.635  0.0775  0.1566 -0.1298
 4782PP      PP14886   5.282   9.070  11.461  0.1290 -0.1433 -0.2383
 4783PP      PP14887  14.703  10.513   3.002  0.1927  0.3628 -0.0458
 4784PP      PP14888  15.630   9.401   2.836  0.1785  0.1375  0.2127
 4785PP      PP14889   3.830   5.802   0.433  0.2577  0.0850 -0.0946
 4786PP      PP14890  12.115  10.599  10.369  0.5232  0.1740 -0.1567
 4787PP      PP14891   9.694   4.744  11.587  0.1346  0.0187  0.0465
 4788PP      PP14892   4.379  15.232   2.936  0.1299  0.2126 -0.0375
 4789PP      PP14893  12.485   0.038   1.984  0.0669 -0.2443 -0.1367
 4790PP      PP14894  12.420   7.436   3.717  0.1010 -0.0239 -0.0947
 4791PP      PP14895   6.178  10.690   1.820 -0.1890  0.1843  0.1654
 4792PP      PP14896  10.007  11.100  12.399 -0.1166 -0.4332  0.1433
 4793PP      PP14897   0.349   1.644   0.384 -0.0431  0.0972 -0.1445
 4794PP      PP14898   2.548   8.581   9.435  0.2766  0.1558  0.2094
 4795PP      PP14899  11.381  13.579  13.013 -0.0204  0.3135 -0.0979
 4796PP      PP14900  14.381   1.979   8.862  0.0427  0.0475 -0.0826
 4797PP      PP14901  11.370   1.266  11.001 -0.2978 -0.4566 -0.3735
 4798PP      PP14902   1.860  11.122  13.550 -0.2495  0.3445  0.0247
 4799PP      PP14903   4.820   1.946   0.411  0.0752  0.1913 -0.0139
 4800PP      PP14904   5.975  13.710   9.390  0.1487 -0.0362 -0.2294
 4801PP      PP14905   2.498  14.270   2.927  0.1677  0.0730  0.0312
 4802PP      PP14906   3.345   0.591  13.299  0.1432 -0.0894 -0.0154
 4803PP      PP14907  12.701  10.859   2.405 -0.0033 -0.1823 -0.0701
 4804PP      PP14908  10.491   1.417   3.409 -0.1745  0.1401 -0.0407
 4805PP      PP14909   3.180   2.782   1.598 -0.2698  0.0264 -0.0083
 4806PP      PP14910   9.390  12.051  10.812  0.3320 -0.0160  0.1285
 4807PP      PP14911   9.980   8.608   3.199  0.3515 -0.0003  0.3026
 4808PP      PP14912   3.325  10.020   8.970  0.0790 -0.0049 -0.0841
 4809PP      PP14913   1.629   1.637   0.027 -0.0651 -0.2021  0.1456
 4810PP      PP14914  11.477   6.759  10.234 -0.1115 -0.2032  0.3906
 4811PP      PP14915   5.825   3.555   0.782  0.1351  0.3225  0.1230
 4812PP      PP14916   0.246   1.826  13.672 -0.1076  0.1431  0.0297
 4813PP      PP14917  13.704   1.726  10.291 -0.0176 -0.1922  0.1017
 4814PP      PP14918   9.620  15.557   1.965  0.2119  0.1514 -0.2348
 4815PP      PP14919   1.065   4.818   2.570  0.1818 -0.3322 -0.2031
 4816PP      PP14920   9.869  13.594  10.364  0.1823 -0.0832 -0.1743
 4817PP      PP14921   8.711   4.005   0.518  0.0258  0.1116  0.4063
 4818PP      PP14922   8.790   2.988   3.224 -0.0597  0.0920  0.1882
 4819PP      PP14923   6.407  10.803   2.852 -0.0697  0.0364  0.2671
 4820PP      PP14924   1.076   4.969  10.459  0.0614 -0.0868 -0.0404
 4821PP      PP14925   6.027  15.138  11.526 -0.0691  0.2925 -0.2510
 4822PP      PP14926   1.151   6.064   9.282  0.0518 -0.0387 -0.0583
 4823PP      PP14927   1.143   6.651  13.027 -0.1075 -0.1801  0.1221
 4824PP      PP14928   2.682   4.146  12.068 -0.3201 -0.0025  0.3206
 4825PP      PP14929  13.811  15.293   3.340 -0.0203 -0.0413  0.1972
 4826PP      PP14930  14.898   6.124  12.260  0.1536  0.2952 -0.1283
 4827PP      PP14931   0.131  13.891   1.294  0.0549  0.0307 -0.4234
 4828PP      PP14932   5.150  15.118  12.068  0.1944  0.0404  0.1149
 4829PP      PP14933   6.504  12.612   0.184 -0.3308  0.2894 -0.0243
 4830PP      PP14934  14.593   8.563   0.709  0.1771  0.0936  0.0949
 4831PP      PP14935  12.570  10.767   1.831 -0.0496 -0.2900  0.5720
 4832PP      PP14936   3.483  10.003   3.015  0.0019  0.3094  0.1650
 4833PP      PP14937   9.800  10.759   2.824 -0.1402  0.0793  0.2320
 4834PP      PP14938   8.460  10.601   2.686  0.2771  0.1661  0.0768
 4835PP      PP14939  13.504   0.893  11.647 -0.0112 -0.3236 -0.1870
 4836PP      PP14940   7.200  12.824   3.662 -0.0432 -0.1434 -0.0463
 4837PP      PP14941  11.049   8.481   2.233  0.3279  0.2174 -0.1313
 4838PP      PP14942   2.363   7.114  12.787 -0.0679  0.1888 -0.4436
 4839PP      PP14943  10.555   6.776  12.938 -0.0654  0.1789  0.1615
 4840PP      PP14944   8.237   6.105  12.380 -0.1975 -0.2171  0.0016
 4841PP      PP14945  10.799   0.507   3.270 -0.3058 -0.2738 -0.1559
 4842PP      PP14946  15.022  14.733   0.527  0.0484 -0.0099  0.1413
 4843PP      PP14947   7.747  12.137   5.052  0.2109 -0.0354  0.1919
 4844PP      PP14948   5.810  11.659  11.278  0.2153  0.3992 -0.0591
 4845PP      PP14949  12.191  14.582   2.454  0.0612 -0.0288  0.2454
 4846PP      PP14950   4.247   1.124  13.373  0.5170  0.1591 -0.2153
 4847PP      PP14951  11.262  12.781  12.695  0.4367 -0.0415 -0.2716
 4848PP      PP14952   1.953  13.566   9.940  0.1309 -0.1115 -0.1430
 4849PP      PP14953   2.637   1.697  11.539 -0.0701 -0.0628  0.0288
 4850PP      PP14954   2.720  14.533   9.170  0.0197 -0.0039 -0.1223
 4851PP      PP14955   4.054   0.775  12.960  0.4730 -0.1954 -0.1193
 4852PP      PP14956   5.496  12.817  13.683  0.0748 -0.0464  0.0225
 4853PP      PP14957  14.987   0.623   4.719 -0.1310 -0.1921  0.1523
 4854PP      PP14958  12.596   6.197   1.730  0.0922 -0.0783 -0.1884
 4855PP      PP14959   3.090  12.785  13.623 -0.1067  0.0682 -0.1985
 4856PP      PP14960   4.024   8.275  10.040  0.1062 -0.1874  0.1656
 4857PP      PP14961   8.197   4.975  10.246  0.3403  0.1678 -0.0410
 4858PP      PP14962   2.175  13.180   1.227  0.3184  0.0335  0.2208
 4859PP      PP14963  10.305   8.521  11.816  0.1222 -0.2440  0.0530
 4860PP      PP14964   8.012   5.486  13.598  0.1861 -0.0054 -0.4164
 4861PP      PP14965   7.428  10.760   0.646  0.0537  0.1608  0.1957
 4862PP      PP14966   5.816   1.535  13.027  0.0510  0.1650 -0.1241
 4863PP      PP14967   5.907  15.017   3.369 -0.1049  0.1401  0.3704
 4864PP      PP14968  15.684  15.038  11.167  0.0043 -0.0168  0.0697
 4865PP      PP14969  15.565   3.245  11.044 -0.1959  0.1344  0.0052
 4866PP      PP14970  12.546   5.439   3.184  0.3459  0.1246 -0.2226
 4867PP      PP14971   0.817  14.043   9.930 -0.1814  0.0705 -0.2488
 4868PP      PP14972  13.666  14.255   0.775  0.0316  0.0565  0.1167
 4869PP      PP14973   2.053  12.238   4.214  0.2129 -0.0125  0.3268
 4870PP      PP14974   7.574   9.320   3.687 -0.1799  0.0559  0.1852
 4871PP      PP14975   2.312   5.803   9.576 -0.1135  0.0289 -0.4778
 4872PP      PP14976   6.629   3.980   8.381  0.2306  0.2318  0.0442
 4873PP      PP14977   2.229   6.776   0.190 -0.0074  0.0756 -0.2124
 4874PP      PP14978   9.744   6.598   0.675  0.0782 -0.0075 -0.0288
 4875PP      PP14979   3.059  11.215   0.517 -0.1934 -0.3591 -0.1934
 4876PP      PP14980   5.509  11.747   4.618 -0.1692 -0.2417  0.1858
 4877PP      PP14981   1.338  14.858   0.471 -0.0720  0.0661 -0.2001
 4878PP      PP14982  11.162   2.328   4.439  0.0532 -0.1804  0.0326
 4879PP      PP14983   8.812   6.157   2.022  0.0778 -0.0922  0.1018
 4880PP      PP14984  14.578  10.565   3.944 -0.1925  0.0828 -0.0222
 4881PP      PP14985  14.161  10.616  11.253  0.1429  0.2261  0.0781
 4882PP      PP14986  10.783   5.952  11.418  0.0339 -0.0946  0.3990
 4883PP      PP14987   3.195  11.344  11.231  0.1558 -0.4921 -0.0974
 4884PP      PP14988   7.589   0.698   3.517 -0.0067 -0.0194  0.1029
 4885PP      PP14989   5.484   0.232   3.131 -0.1093 -0.1337  0.0552
 4886PP      PP14990   8.026  12.884   9.762  0.0773 -0.2151  0.0112
 4887PP      PP14991   5.615  15.351   9.294  0.1238 -0.2104  0.1840
 4888PP      PP14992  12.427  11.646  13.181  0.2932 -0.0732 -0.3660
 4889PP      PP14993   3.667   7.767   2.983 -0.0485 -0.2160 -0.5414
 4890PP      PP14994   5.998  10.089   0.152  0.0699  0.3297  0.1285
 4891PP      PP14995   0.462   8.456   1.817  0.0495  0.2496 -0.0516
 4892PP      PP14996  11.820   0.584  13.097  0.0124  0.1674  0.1119
 4893PP      PP14997   6.899  12.879   5.165  0.1420  0.1327 -0.1263
 4894PP      PP14998  11.138   2.516   1.840 -0.1337  0.0049 -0.1651
 4895PP      PP14999   9.720  13.151  13.480  0.1822  0.1512 -0.1116
 4896PP      PP15000  13.392   9.500  12.460  0.1689  0.0285  0.2177
 4897PP      PP15001   8.155   2.327   9.915  0.0580  0.2057  0.0336
 4898PP      PP15002  12.429   9.983   1.973 -0.1918 -0.0673 -0.2252
 4899PP      PP15003  12.430   2.513  13.519  0.0598 -0.1172  0.1482
 4900PP      PP15004  12.021   2.293   0.098 -0.4568 -0.1408 -0.0321
 4901PP      PP15005  10.070  10.598   5.583 -0.0286 -0.1900  0.0749
 4902PP      PP15006   2.472   6.378   3.540  0.3247 -0.1983  0.3061
 4903PP      PP15007  11.077  10.746   5.114 -0.2167  0.0123  0.1420
 4904PP      PP15008   9.336   4.523  12.787 -0.1686  0.4645 -0.2679
 4905PP      PP15009   3.419  10.218   0.269 -0.3975 -0.0771 -0.2265
 4906PP      PP15010  12.111   7.330  12.189 -0.0306 -0.1314  0.2330
 4907PP      PP15011  13.715   4.284   2.029 -0.1662  0.2972  0.0080
 4908PP      PP15012   2.056   1.783   4.490  0.0876 -0.1795  0.1824
 4909PP      PP15013  11.399  12.414  12.412  0.3948  0.0606 -0.1068
 4910PP      PP15014   3.963  11.841   1.791 -0.0493 -0.4037 -0.0561
 4911PP      PP15015   6.440   6.380  11.587  0.0844  0.1518 -0.2117
 4912PP      PP15016   1.066   3.574   0.296 -0.0780  0.1279 -0.2393
 4913PP      PP15017  14.695  15.119  13.381 -0.2544 -0.1073 -0.1009
 4914PP      PP15018   4.132   4.435   0.762  0.0823  0.1405 -0.2655
 4915PP      PP15019   3.635  12.156   0.342  0.0544  0.3855  0.2974
 4916PP      PP15020  15.143  12.374   3.704  0.0526  0.1502 -0.1453
 4917PP      PP15021   7.014   9.735   1.061  0.3256  0.0010 -0.3034
 4918PP      PP15022   5.447  13.263   5.059  0.0717 -0.1855  0.2697
 4919PP      PP15023   5.157  10.210  10.258  0.2984  0.0348  0.1837
 4920PP      PP15024   6.416   0.324   8.485  0.4607 -0.1736 -0.1544
 4921PP      PP15025  10.298  11.845  10.886  0.1214 -0.0274  0.0843
 4922PP      PP15026   8.061  14.247  10.322 -0.1707 -0.0372  0.2165
 4923PP      PP15027   6.205   4.061   1.729 -0.2166  0.0285  0.1447
 4924PP      PP15028  14.428   1.960   9.350 -0.0535 -0.1252 -0.0732
 4925PP      PP15029   1.510   2.690   0.762  0.1425  0.0902 -0.0124
 4926PP      PP15030   1.073   3.120   9.299  0.2296  0.1381 -0.0677
 4927PP      PP15031  12.957   4.615  13.058  0.2287  0.1001 -0.1542
 4928PP      PP15032   2.905   9.143   9.892 -0.1702 -0.1589  0.0959
 4929PP      PP15033   7.715  14.853   9.190  0.1870 -0.1009 -0.0377
 4930PP      PP15034   4.966  13.588  11.444 -0.1756  0.0221 -0.2225
 4931PP      PP15035   4.286  14.405   8.630  0.6021 -0.2275  0.2589
 4932PP      PP15036   9.830  11.181  11.926 -0.0610  0.3410  0.0102
 4933PP      PP15037   3.415   9.613  11.209  0.0154 -0.0066  0.0119
 4934PP      PP15038   8.961   4.999  13.471 -0.0327  0.0754  0.0646
 4935PP      PP15039   1.615  12.354   0.849  0.1710  0.0003 -0.2667
 4936PP      PP15040   8.559  10.356   3.867  0.0042  0.1655 -0.0935
 4937PP      PP15041  10.229   4.071  10.139  0.0653 -0.0340  0.1387
 4938PP      PP15042   9.266   0.268  12.143  0.1347 -0.4071 -0.1151
 4939PP      PP15043   6.772   7.083   1.426 -0.3124  0.0715 -0.1649
 4940PP      PP15044  11.313   9.190  12.906 -0.1966  0.1458  0.1712
 4941PP      PP15045   8.838  13.034  13.001  0.2811  0.0194  0.1637
 4942PP      PP15046  10.271   4.687  13.044 -0.2204 -0.2423 -0.1771
 4943PP      PP15047   1.874  10.248   0.079 -0.0389 -0.1945  0.0768
 4944PP      PP15048   2.048  15.309  12.021 -0.3190  0.0137  0.2085
 4945PP      PP15049   7.460   3.420  10.214  0.1271 -0.0471  0.1795
 4946PP      PP15050   8.746   6.476  11.765  0.0458 -0.3163  0.3674
 4947PP      PP15051  14.275  13.558   3.871  0.1507  0.1125 -0.1017
 4948PP      PP15052   7.773  11.024   0.395 -0.2880 -0.0325  0.1896
 4949PP      PP15053   0.414  10.509   9.742  0.1706  0.2067  0.1419
 4950PP      PP15054   6.959  12.360   3.765 -0.0332 -0.1484  0.0748
 4951PP      PP15055   6.730   3.592  12.327  0.3320  0.0944  0.0630
 4952PP      PP15056   5.565   1.505   8.325 -0.1637  0.0651 -0.3358
 4953PP      PP15057   1.215  14.970   3.206 -0.0296  0.2004 -0.2302
 4954PP      PP15058  13.542   2.157   1.211  0.3274 -0.3888  0.0792
 4955PP      PP15059   3.493   9.253   1.224 -0.0997  0.0688 -0.0012
 4956PP      PP15060   8.167   3.368   9.364 -0.2099 -0.0604 -0.2162
 4957PP      PP15061   1.680  11.464  11.767 -0.0895 -0.1081  0.0802
 4958PP      PP15062  13.445   8.386  13.154 -0.0651  0.0485 -0.1909
 4959PP      PP15063   7.168   6.424   9.373 -0.2043  0.4058 -0.1770
 4960PP      PP15064   1.136   0.304   2.172 -0.1418  0.0879 -0.0737
 4961PP      PP15065   3.404   6.391   3.084 -0.0514  0.2294 -0.1779
 4962PP      PP15066  12.235   5.057   0.983 -0.0298  0.0170 -0.0803
 4963PP      PP15067   2.901   3.387   2.368  0.1010 -0.1079  0.1763
 4964PP      PP15068   5.350   0.055   3.691  0.1075 -0.1322 -0.0875
 4965PP      PP15069   3.642   1.599   3.390  0.0511  0.1020 -0.1533
 4966PP      PP15070  14.546   4.865  13.544 -0.0373 -0.3479  0.1292
 4967PP      PP15071   7.839   0.963  13.216  0.0698  0.0488  0.4409
 4968PP      PP15072   1.222   4.744   2.084 -0.0808  0.0422  0.0146
 4969PP      PP15073   6.508   4.719   9.364 -0.3656  0.1323 -0.0488
 4970PP      PP15074   2.077   4.619   9.638  0.0057  0.0929  0.3001
 4971PP      PP15075   7.907   3.463  11.228 -0.0654  0.3556  0.1749
 4972PP      PP15076  11.034   9.646  12.114 -0.0263 -0.1962  0.0528
 4973PP      PP15077  14.145  14.634   0.177 -0.1717 -0.1719 -0.0047
 4974PP      PP15078   9.282   9.404  10.557 -0.0894 -0.3045 -0.0865
 4975PP      PP15079   3.449   2.041   3.804  0.0009 -0.1041 -0.1457
 4976PP      PP15080   5.932   1.686   9.795 -0.0652  0.1888 -0.2162
 4977PP      PP15081   2.455   2.183  12.987  0.0955  0.0304  0.3042
 4978PP      PP15082   6.781   4.632  11.482 -0.2410  0.0495 -0.1924
 4979PP      PP15083   4.330   4.034   2.428 -0.1136 -0.2363 -0.1880
 4980PP      PP15084  13.306   7.997  10.831 -0.0147  0.1599 -0.0165
 4981PP      PP15085   5.509   6.482   0.918  0.2384  0.2084  0.1051
 4982PP      PP15086   4.178  15.376  11.282 -0.0581 -0.0587 -0.0795
 4983PP      PP15087   0.480   6.613  10.594  0.0651  0.0371 -0.0713
 4984PP      PP15088   8.182   5.176  11.225 -0.0409  0.2114  0.0418
 4985PP      PP15089   2.298   2.488   1.869  0.0953 -0.2237 -0.0139
 4986PP      PP15090   7.420   2.506  10.360  0.0141 -0.1748 -0.1076
 4987PP      PP15091   5.093   3.719   1.114 -0.0041 -0.2258  0.1004
 4988PP      PP15092   9.434   7.478   2.136 -0.0945 -0.0417 -0.0823
 4989PP      PP15093   5.363   4.395  10.592 -0.0281  0.0866  0.0682
 4990PP      PP15094   8.446   2.690   7.770 -0.0576  0.0740 -0.0553
 4991PP      PP15095   6.787  11.179  11.891  0.1514  0.0302 -0.0582
 4992PP      PP15096  10.614   4.929  11.878  0.0991 -0.0157 -0.1569
 4993PP      PP15097  15.242   0.245  11.447 -0.0059 -0.0489 -0.0747
 4994PP      PP15098   3.211  12.083   0.962 -0.4196 -0.1784  0.1259
 4995PP      PP15099   8.600   4.482   8.242 -0.1417 -0.2127  0.0268
 4996PP      PP15100   6.148   6.291   2.209 -0.2773 -0.2277 -0.2187
 4997PP      PP15101   4.782  13.450  10.408 -0.0192 -0.0925 -0.1660
 4998PP      PP15102   8.537  15.598   3.155  0.1573  0.0994 -0.1133
 4999PP      PP15103  10.036  11.352   2.030  0.2488  0.1151  0.3211
 5000PP      PP15104   6.952   4.189  13.174  0.0739  0.1545  0.3634
 5001PP      PP15105   6.554   8.091   9.214 -0.0097 -0.1971  0.2091
 5002PP      PP15106   5.052   4.363  12.028  0.1095 -0.1864 -0.0400
 5003PP      PP15107  12.755   9.356   1.383  0.0276  0.0565  0.0178
 5004PP      PP15108   1.502  13.606   0.469 -0.2774  0.2373 -0.1984
 5005PP      PP15109  11.810   3.848   9.274  0.1336 -0.2858  0.2343
 5006PP      PP15110  11.483   1.547   0.554  0.2280 -0.1955 -0.2801
 5007PP      PP15111   1.936  12.579   1.269  0.1638  0.0089 -0.0411
 5008PP      PP15112   9.078  12.257  12.723  0.1643  0.2016 -0.3649
 5009PP      PP15113   1.008   9.066  10.792 -0.2374 -0.1555  0.1724
 5010PP      PP15114  11.651  12.674   4.500 -0.0935 -0.0250  0.0422
 5011PP      PP15115   5.245  12.381   2.912  0.2940  0.0970 -0.2194
 5012PP      PP15116   7.460  13.098  13.181 -0.0741 -0.1822  0.3863
 5013PP      PP15117   3.969   1.041   1.317 -0.1168 -0.4717  0.1301
 5014PP      PP15118   4.219  15.043   8.895  0.1863  0.1107  0.0908
 5015PP      PP15119   4.082  12.937  13.656  0.0008 -0.1344 -0.0863
 5016PP      PP15120   2.344   2.822   0.649  0.1412 -0.1708  0.0987
 5017PP      PP15121   5.729   0.871   2.369 -0.0996  0.6193  0.2385
 5018PP      PP15122   8.138   3.450  11.701 -0.0388 -0.1132 -0.4281
 5019PP      PP15123   2.707   3.883  11.291 -0.1904 -0.3084 -0.0412
 5020PP      PP15124   8.872   1.579   8.770 -0.0555 -0.4405  0.2385
 5021PP      PP15125   0.094   8.012   3.030  0.0135 -0.0396  0.1537
 5022PP      PP15126   7.180  10.156   0.044 -0.0916  0.3555 -0.2157
 5023PP      PP15127  15.120  14.613  12.467  0.2753  0.1931 -0.4047
 5024PP      PP15128  11.512  10.379  12.630  0.2049 -0.1477 -0.1853
 5025PP      PP15129  13.692  10.655   9.744  0.2668  0.3055 -0.2332
 5026PP      PP15130   1.925   6.476   2.047  0.1358  0.0112 -0.1557
 5027PP      PP15131  10.602  12.906  13.086 -0.0644 -0.0701 -0.2142
 5028PP      PP15132   0.911  13.737  13.502 -0.4251  0.0261  0.1190
 5029PP      PP15133   6.358   1.595   0.934 -0.0216 -0.0522 -0.0286
 5030PP      PP15134   8.622   7.552   1.742  0.0269  0.0618  0.1412
 5031PP      PP15135   8.452  11.762  12.932  0.2319 -0.0474 -0.2902
 5032PP      PP15136   2.933  13.656   2.114  0.1952  0.2741 -0.1663
 5033PP      PP15137   4.278   9.227   1.772  0.1587 -0.0903 -0.0721
 5034PP      PP15138  13.254  13.764   3.018  0.1781  0.1258  0.3104
 5035PP      PP15139  11.146   7.570   2.946 -0.4220 -0.1065 -0.0476
 5036PP      PP15140  14.889   5.285   4.535  0.1655 -0.0256  0.0605
 5037PP      PP15141   9.815   4.685  12.788  0.0974  0.0253 -0.2895
 5038PP      PP15142   2.437   5.347   1.961  0.1970  0.1265  0.3440
 5039PP      PP15143   3.078   0.007  12.540 -0.1840  0.1185  0.1390
 5040PP      PP15144  15.112   7.900   1.788 -0.2900  0.2283  0.2414
 5041PP      PP15145  13.529   7.808   4.222 -0.0234 -0.1234  0.2839
 5042PP      PP15146  12.968   0.247   0.747 -0.3184 -0.1056 -0.3606
 5043PP      PP15147   6.527   6.687   1.739  0.1145 -0.1153 -0.1022
 5044PP      PP15148   4.268  15.194  13.316  0.0939 -0.1201 -0.0908
 5045PP      PP15149   7.471   8.552  12.387 -0.0597  0.0597 -0.1040
 5046PP      PP15150  15.157   7.049   2.853  0.1107  0.0248 -0.1012
 5047PP      PP15151   6.791  15.309  12.122 -0.1531  0.2275 -0.3131
 5048PP      PP15152  10.270   0.643   1.039  0.1556 -0.1885  0.1788
 5049PP      PP15153   3.844  12.719   1.214 -0.1433  0.0145  0.2133
 5050PP      PP15154   0.086   8.713   2.144 -0.1873 -0.3616  0.0952
 5051PP      PP15155  13.874  10.850   4.450 -0.1041  0.3233  0.0970
 5052PP      PP15156   1.540   6.921  13.397  0.0035  0.1207  0.0883
 5053PP      PP15157  14.146   2.319   9.223 -0.0187  0.1655 -0.0690
 5054PP      PP15158   8.838   5.238   9.036  0.1904 -0.2062 -0.1814
 5055PP      PP15159  11.296   8.898   3.809  0.0854 -0.1851 -0.0252
 5056PP      PP15160   3.234   4.616   2.073 -0.2000 -0.0015 -0.0527
 5057PP      PP15161   8.385  11.157   1.998 -0.0866  0.0019 -0.1220
 5058PP      PP15162  13.989  11.156  11.456 -0.3554 -0.1137 -0.2015
 5059PP      PP15163  11.822   8.528   1.321 -0.1814 -0.1987  0.1418
 5060PP      PP15164   6.691   2.601   8.869 -0.3193 -0.2312  0.0785
 5061PP      PP15165   0.146   5.005   2.079  0.1418  0.0977  0.2423
 5062PP      PP15166  14.071   1.009   0.358  0.0345 -0.1677  0.0959
 5063PP      PP15167  13.708  10.888  12.743 -0.0579 -0.1612  0.0483
 5064PP      PP15168  15.566   2.319  13.260  0.1405  0.1325  0.0964
 5065PP      PP15169   6.444   1.015   1.691  0.1778  0.2139 -0.0814
 5066PP      PP15170   5.156   8.332   0.791 -0.1278  0.0767 -0.0686
 5067PP      PP15171  15.737   0.648  12.116 -0.0592 -0.0070  0.1146
 5068PP      PP15172   2.989   0.269   3.500 -0.1928 -0.2203 -0.4401
 5069PP      PP15173  14.864   0.624  12.203  0.3225 -0.0007  0.0267
 5070PP      PP15174  15.714  12.672   1.023  0.1591  0.0085 -0.1087
 5071PP      PP15175   6.195  11.157   0.271 -0.0266  0.1343 -0.0609
 5072PP      PP15176   1.199   4.930   1.353 -0.0564 -0.1220 -0.1392
 5073PP      PP15177   5.578  13.101   2.695 -0.0698 -0.2052 -0.0087
 5074PP      PP15178  11.811  14.204  10.392  0.0807  0.2538 -0.2923
 5075PP      PP15179  13.303   9.645   5.061  0.2468 -0.0501  0.0013
 5076PP      PP15180  12.060   2.738   2.196 -0.3172 -0.0634 -0.0024
 5077PP      PP15181   7.496   0.827  11.819  0.1369  0.2498  0.0285
 5078PP      PP15182   9.311   6.981   1.311  0.2136  0.1715 -0.1581
 5079PP      PP15183  12.779  14.516   2.008  0.2481 -0.1327 -0.0614
 5080PP      PP15184   3.551   0.853   1.126  0.3748 -0.1332  0.1524
 5081PP      PP15185   7.766  14.040  13.228 -0.0617 -0.1477  0.2132
 5082PP      PP15186  15.546   8.253   1.729  0.1703  0.2155 -0.1023
 5083PP      PP15187   4.464  15.644   3.207  0.2213 -0.0217  0.0906
 5084PP      PP15188   2.707   3.685  13.300  0.1970  0.0271 -0.4350
 5085PP      PP15189   1.788   0.881   2.038  0.2074  0.0344  0.2418
 5086PP      PP15190   9.216  11.443   0.445  0.0622  0.2723  0.0321
 5087PP      PP15191   8.126   5.697  12.110 -0.0316 -0.1227  0.1573
 5088PP      PP15192   0.249   5.602  13.351 -0.4318  0.1460 -0.0022
 5089PP      PP15193  12.824   9.889   0.091  0.1682  0.2025  0.3512
 5090PP      PP15194   0.239  11.964   1.024 -0.0861  0.1169 -0.3027
 5091PP      PP15195   4.120   7.294   3.440  0.1397 -0.0783  0.2909
 5092PP      PP15196  15.591  14.667  11.662 -0.2972 -0.0514 -0.4429
 5093PP      PP15197   8.747   8.455  13.063  0.0086 -0.1658  0.2349
 5094PP      PP15198  14.005  11.168  12.523 -0.0998 -0.0975 -0.1240
 5095PP      PP15199  13.551   5.492   1.242 -0.2479  0.0132 -0.1558
 5096PP      PP15200   9.747   2.065  10.664  0.2570 -0.1291 -0.0236
 5097PP      PP15201  15.483   6.112  13.035 -0.1156 -0.3371  0.0268
 5098PP      PP15202   5.717  13.136  12.810 -0.0044 -0.1425 -0.4529
 5099PP      PP15203   0.455   1.073  10.968 -0.0970  0.0289 -0.1424
 5100PP      PP15204   5.881   7.093   9.942  0.1025  0.0661  0.2187
 5101PP      PP15205   6.403  15.734  10.062 -0.1147 -0.0980 -0.1211
 5102PP      PP15206   1.009   5.737   2.572  0.2016 -0.3814 -0.1607
 5103PP      PP15207  12.450  10.162   2.740 -0.2785  0.1703  0.2881
 5104PP      PP15208   3.476   5.825   2.914 -0.0962  0.1607  0.1528
 5105PP      PP15209  14.626  13.801   3.571 -0.2101  0.0158 -0.0682
 5106PP      PP15210   3.996   0.431   8.750  0.1124 -0.0485 -0.1027
 5107PP      PP15211   9.092   8.587   4.643  0.0258 -0.1349 -0.0075
 5108PP      PP15212  12.653   8.749  10.179 -0.1103 -0.4081  0.0343
 5109PP      PP15213  14.731   2.361  11.916 -0.0359 -0.0479 -0.1019
 5110PP      PP15214  10.232   5.167   0.014  0.1166  0.0856 -0.0818
 5111PP      PP15215   4.297   3.398  10.718 -0.0075 -0.1840  0.2620
 5112PP      PP15216   2.610  13.193  10.735 -0.1314  0.1442 -0.3196
 5113PP      PP15217   0.347  12.303   9.112 -0.2385  0.2464 -0.2818
 5114PP      PP15218   1.824   2.971   1.820 -0.2847 -0.2807  0.1893
 5115PP      PP15219  13.790   1.565  12.172  0.3111  0.1423  0.1321
 5116PP      PP15220   6.576   2.904  11.903 -0.1088 -0.2354  0.1093
 5117PP      PP15221  12.301   4.661   1.318  0.1340  0.2627 -0.0515
 5118PP      PP15222   2.003  13.981  13.421  0.4797 -0.1347  0.0888
 5119PP      PP15223  13.076  13.659   1.623 -0.1112  0.1897  0.1794
 5120PP      PP15224  14.842   9.836  11.968  0.1404 -0.0683  0.0705
 5121PP      PP15225   1.902   5.518   0.826 -0.1451 -0.1051  0.2369
 5122PP      PP15226   0.565   8.538   2.307 -0.0624 -0.0160 -0.0559
 5123PP      PP15227  11.476  15.583   4.489 -0.2243 -0.1747 -0.1451
 5124PP      PP15228   9.661   5.324   8.562 -0.1895 -0.0233  0.1904
 5125PP      PP15229  11.915  10.754   0.329 -0.1633 -0.1576  0.0561
 5126PP      PP15230   5.749   1.090  11.137 -0.0976 -0.2084  0.0746
 5127PP      PP15231   5.436  13.441   2.022  0.1133 -0.3934  0.2574
 5128PP      PP15232   9.162  10.984  12.674  0.1757  0.0972 -0.1622
 5129PP      PP15233   1.913  13.632   3.295  0.1470 -0.2543  0.1342
 5130PP      PP15234   0.492   6.653  12.489  0.1343 -0.0664  0.0228
 5131PP      PP15235  15.449  10.030   1.486 -0.2143 -0.2118 -0.1591
 5132PP      PP15236   5.419  11.333   1.537 -0.1522  0.4169 -0.0967
 5133PP      PP15237   1.902  10.710   0.303  0.0663  0.1667  0.1305
 5134PP      PP15238   3.117   1.213   3.262 -0.1477  0.1960 -0.1594
 5135PP      PP15239  10.630   2.563  12.719  0.2277 -0.1783  0.0980
 5136PP      PP15240   9.946  13.466   1.143 -0.1715 -0.0585 -0.0352
 5137PP      PP15241   8.189   9.190   2.165  0.2928 -0.0398 -0.0757
 5138PP      PP15242  14.714  15.516   9.078  0.0548 -0.0799 -0.0814
 5139PP      PP15243   5.524   5.625  12.283  0.1415 -0.3550  0.0284
 5140PP      PP15244   6.001  12.293   3.806 -0.3077  0.1563 -0.0063
 5141PP      PP15245   4.126   5.871  13.127  0.1565  0.0608  0.2524
 5142PP      PP15246   0.718  12.016   9.691 -0.3161 -0.0083 -0.1595
 5143PP      PP15247   9.692  13.602   0.666  0.3526 -0.0223  0.1673
 5144PP      PP15248  11.756   7.040   1.126 -0.1531  0.4375 -0.0412
 5145PP      PP15249   7.022  11.485   4.753 -0.1652 -0.2245 -0.0222
 5146PP      PP15250   8.622   8.195   1.064  0.1017 -0.1011  0.2871
 5147PP      PP15251  15.138   9.560   2.663  0.3361 -0.1253  0.0168
 5148PP      PP15252   6.430  14.126   2.457  0.1435 -0.0364  0.0008
 5149PP      PP15253   3.339   4.293   4.086 -0.0572 -0.2971  0.0453
 5150PP      PP15254  11.891   8.202  13.288 -0.2768  0.0160  0.0013
 5151PP      PP15255   8.655   3.541  11.678  0.2182 -0.2363 -0.2233
 5152PP      PP15256   8.764   2.118  13.499  0.3058 -0.2355  0.1887
 5153PP      PP15257  15.306  11.520   3.102 -0.0691  0.0954  0.3779
 5154PP      PP15258  10.564  11.411   1.936 -0.1402 -0.1363  0.2098
 5155PP      PP15259   3.908  14.759   8.578 -0.0102  0.0366  0.0585
 5156PP      PP15260   6.126   7.453   3.874  0.0260  0.0641  0.0131
 5157PP      PP15261  15.683   9.504  12.163  0.1592 -0.0160  0.2970
 5158PP      PP15262  11.267   6.528  10.609  0.1091 -0.1541  0.2906
 5159PP      PP15263   9.685   0.483  12.810 -0.0691  0.0751 -0.3338
 5160PP      PP15264  13.910   7.214   4.948 -0.1109 -0.2655  0.2126
 5161PP      PP15265  11.164  10.342  10.417 -0.0636  0.2174 -0.0658
 5162PP      PP15266  14.364  14.745  13.420  0.3308  0.1825  0.2407
 5163PP      PP15267  11.624   5.538  10.080 -0.0779 -0.0251  0.1843
 5164PP      PP15268   7.534  10.508   3.480  0.5009 -0.1749  0.0989
 5165PP      PP15269   4.735  11.025   4.758 -0.0679  0.0522 -0.0769
 5166PP      PP15270   3.984   0.076   2.410  0.1814 -0.0034  0.0920
 5167PP      PP15271   7.961  13.292   1.874 -0.0358 -0.1816  0.0040
 5168PP      PP15272   8.036   0.924   2.532 -0.4577 -0.2890 -0.1021
 5169PP      PP15273   7.889  12.685  11.162 -0.1351  0.0111 -0.0085
 5170PP      PP15274   3.805  12.973   0.299 -0.2315 -0.2580 -0.1115
 5171PP      PP15275   4.737  10.474   2.733 -0.0901 -0.0155 -0.0806
 5172PP      PP15276   8.449   9.496  11.759 -0.0948  0.2707  0.0141
 5173PP      PP15277  13.570   9.187   1.478  0.1113  0.0206 -0.0583
 5174PP      PP15278  10.765   3.285   1.207  0.3487 -0.1334  0.2980
 5175PP      PP15279  13.579   9.510   3.322 -0.4064  0.0917  0.2571
 5176PP      PP15280  13.570   8.678  11.285  0.1400 -0.0926  0.1346
 5177PP      PP15281   9.764   4.236  10.604  0.0901  0.0475  0.0498
 5178PP      PP15282   6.205   0.412   2.128  0.1876  0.0401  0.5288
 5179PP      PP15283   4.383  14.196   9.137 -0.0074  0.3749  0.0518
 5180PP      PP15284  10.796   4.628  11.448 -0.0650 -0.1208 -0.5112
 5181PP      PP15285   1.108  15.670   1.533  0.0397  0.3105  0.1559
 5182PP      PP15286  14.422  14.880   4.782  0.0546  0.1787 -0.2668
 5183PP      PP15287   9.515   4.427   3.011  0.0887  0.0629 -0.0378
 5184PP      PP15288   7.837  11.238   4.555 -0.0358  0.0046  0.0811
 5185PP      PP15289   0.268  10.761   3.083  0.0024 -0.3900 -0.0585
 5186PP      PP15290   5.905   3.445  11.385  0.1816  0.1712  0.1717
 5187PP      PP15291   2.642   3.715   3.883  0.0671 -0.0906  0.0156
 5188PP      PP15292  11.173  10.340   3.715 -0.1753  0.0486 -0.0431
 5189PP      PP15293  12.014  11.475   2.233 -0.1394 -0.3564  0.2795
 5190PP      PP15294  14.148   8.308   3.650  0.0996  0.0374 -0.0341
 5191PP      PP15295  13.286   7.093  12.883  0.0601  0.3306  0.0075
 5192PP      PP15296   1.642  10.003  12.364 -0.0856  0.1751  0.1414
 5193PP      PP15297  14.102   9.013   1.132 -0.0392  0.1461  0.0328
 5194PP      PP15298   5.377   1.734   2.638 -0.0426 -0.0559 -0.0380
 5195PP      PP15299   1.111  13.146  12.203 -0.0569  0.0966 -0.4270
 5196PP      PP15300   1.613   3.365   8.797 -0.0085  0.3365 -0.1278
 5197PP      PP15301  11.264  14.064   1.508  0.1632 -0.0209 -0.1899
 5198PP      PP15302   9.836   5.950   3.641  0.1139 -0.1467  0.1926
 5199PP      PP15303   9.326  12.707  12.835 -0.1728 -0.3295 -0.2049
 5200PP      PP15304   8.687   3.692   8.266  0.1733 -0.3793  0.1283
 5201PP      PP15305   6.589  14.638   0.146  0.0394 -0.2218  0.3001
 5202PP      PP15306  15.507  15.374  12.720 -0.1513 -0.2179 -0.2265
 5203PP      PP15307  11.531   3.135  11.893  0.2295  0.0184  0.1525
 5204PP      PP15308  10.173   9.462  12.270 -0.0725  0.0385  0.3264
 5205PP      PP15309  10.137  12.219   4.954 -0.1840  0.0584 -0.1499
 5206PP      PP15310  14.479   3.941   9.757 -0.1796 -0.2865  0.0897
 5207PP      PP15311  11.096   3.128  12.148  0.1227  0.0283  0.1865
 5208PP      PP15312  14.995   1.899  12.814  0.0372  0.1623 -0.1653
 5209PP      PP15313   2.601   6.057  10.870  0.0782 -0.1229  0.1080
 5210PP      PP15314   4.439  10.217   1.233  0.4379  0.4377 -0.1658
 5211PP      PP15315   2.578   4.674   3.650 -0.0516 -0.3113 -0.0369
 5212PP      PP15316   6.566  13.693   0.134 -0.0786  0.0132 -0.0804
 5213PP      PP15317   1.563  13.223   3.311  0.0315  0.0785 -0.0006
 5214PP      PP15318   6.096   5.018  13.485 -0.0834 -0.0386  0.2080
 5215PP      PP15319  10.245  12.295   3.609 -0.2836 -0.2501  0.3307
 5216PP      PP15320  11.199   7.851  11.505 -0.1015  0.1436 -0.0202
 5217PP      PP15321  15.548   7.721   1.577  0.2169  0.0039 -0.0865
 5218PP      PP15322   6.162   9.030  13.117  0.1134  0.2992  0.2037
 5219PP      PP15323  12.320   5.572  10.793 -0.0177 -0.1892 -0.2054
 5220PP      PP15324  15.716   1.375  11.043  0.0527 -0.0786 -0.0850
 5221PP      PP15325  10.316  14.262  12.766  0.0503 -0.0658  0.2213
 5222PP      PP15326   9.082   7.807   9.580  0.1237 -0.0052 -0.0707
 5223PP      PP15327   0.075   6.453   2.516  0.2248 -0.0707 -0.1599
 5224PP      PP15328   4.840  11.680   2.286 -0.0160  0.2114  0.0805
 5225PP      PP15329  11.015  11.610   3.291 -0.0021 -0.1475  0.0917
 5226PP      PP15330   8.696   3.718  10.824  0.0401 -0.0029 -0.0221
 5227PP      PP15331   4.371  15.641  13.434  0.0105 -0.1229 -0.1165
 5228PP      PP15332   0.075   7.412   3.621 -0.2125 -0.0999  0.1818
 5229PP      PP15333   5.620   3.845  10.009 -0.2950  0.2790 -0.1641
 5230PP      PP15334   7.881   9.858   0.804 -0.3007 -0.2248  0.1349
 5231PP      PP15335  10.385   0.919  12.404 -0.1159 -0.1889 -0.0083
 5232PP      PP15336   4.800   4.134  10.385  0.0062 -0.0773  0.0733
 5233PP      PP15337   2.237   6.825   3.517  0.1788  0.1994 -0.1016
 5234PP      PP15338   1.195   7.560   4.188 -0.0353 -0.2105 -0.2822
 5235PP      PP15339   0.077  14.892   9.317 -0.1153  0.0149  0.3185
 5236PP      PP15340  15.513   8.826  10.918 -0.1791  0.0515 -0.0580
 5237PP      PP15341   2.885  12.799   0.437  0.0935 -0.0303 -0.1692
 5238PP      PP15342   5.356   9.235  13.736 -0.2524 -0.3208  0.0103
 5239PP      PP15343   2.592   0.504   3.740  0.0175  0.0027 -0.4119
 5240PP      PP15344  12.223   7.388  10.929  0.1607  0.1175 -0.2797
 5241PP      PP15345  13.528   6.271   1.748 -0.3146  0.0768 -0.0851
 5242PP      PP15346  13.042   9.967   0.534 -0.1746  0.0093 -0.5814
 5243PP      PP15347   9.651   3.522   3.247 -0.2757  0.0748 -0.0803
 5244PP      PP15348   3.761   5.483   1.966  0.1801  0.4637  0.0466
 5245PP      PP15349   0.569   1.118   8.432  0.0172 -0.1807  0.0260
 5246PP      PP15350  14.447   6.865   0.197 -0.0798 -0.1894 -0.4795
 5247PP      PP15351   0.835   0.316   9.502 -0.0262  0.0357 -0.0019
 5248PP      PP15352  13.197  12.482  10.924  0.0257  0.1117  0.0860
 5249PP      PP15353   0.186  15.501  13.401 -0.3174 -0.1306  0.0120
 5250PP      PP15354  12.838  10.216  10.148  0.0625 -0.3218 -0.0060
 5251PP      PP15355   4.596   7.273   0.214 -0.1025 -0.2220  0.1648
 5252PP      PP15356   3.929  14.882  11.668 -0.1409 -0.1476  0.2707
 5253PP      PP15357   0.761   6.168  12.465  0.1702 -0.1127 -0.2021
 5254PP      PP15358   2.832   6.238  11.325 -0.0626  0.0004 -0.0730
 5255PP      PP15359  14.887  13.502   9.646 -0.0431  0.0800  0.0341
 5256PP      PP15360  14.977   8.845   2.326 -0.0906 -0.4513 -0.2435
 5257PP      PP15361   4.101   6.321   9.147 -0.2420  0.0210 -0.2205
 5258PP      PP15362   2.973   3.850  12.891  0.0208 -0.1908 -0.1081
 5259PP      PP15363   3.811   1.497   0.422  0.5148 -0.0200 -0.1737
 5260PP      PP15364   1.062  11.742   0.657 -0.0986 -0.1886  0.2124
 5261PP      PP15365   9.174   8.311   2.080 -0.0140 -0.0396 -0.0094
 5262PP      PP15366   2.181   5.872  13.372  0.2270 -0.0749 -0.0452
 5263PP      PP15367   8.888   8.601  10.386  0.1113  0.1349  0.3333
 5264PP      PP15368   1.877   7.625   4.396 -0.0623 -0.0753 -0.1416
 5265PP      PP15369   8.966   7.265  10.605 -0.0224 -0.0878 -0.1158
 5266PP      PP15370   7.886  11.172   5.062 -0.0790  0.4158  0.0846
 5267PP      PP15371  14.118   4.558  12.289  0.3952  0.2915 -0.2998
 5268PP      PP15372   1.883  10.549  10.530 -0.0659 -0.1753  0.0334
 5269PP      PP15373   7.664  15.240  10.736 -0.3034 -0.0755  0.0125
 5270PP      PP15374  11.164   2.914   1.127  0.1737  0.0986 -0.0342
 5271PP      PP15375   6.441   6.975   2.731 -0.0421 -0.1655  0.0394
 5272PP      PP15376   9.894  12.113  12.817 -0.1353 -0.1355 -0.1035
 5273PP      PP15377   7.111   7.377  11.184  0.1916 -0.1090 -0.2418
 5274PP      PP15378   3.690  11.120   9.991  0.2877  0.1138  0.1638
 5275PP      PP15379   3.333   0.760   2.593  0.5337  0.0916 -0.0020
 5276PP      PP15380  15.327   0.451   4.013  0.0575  0.2574  0.0270
 5277PP      PP15381   0.627  14.572  13.081  0.0719 -0.0282  0.0767
 5278PP      PP15382   8.351   9.587  12.250 -0.0899 -0.2642  0.3032
 5279PP      PP15383   1.252   5.732  13.658  0.0448 -0.1052 -0.0868
 5280PP      PP15384   5.428   6.146  13.103 -0.0336 -0.2248 -0.1672
 5281PP      PP15385   9.866   4.919   9.641 -0.1414  0.1556 -0.0466
 5282PP      PP15386   7.057   6.242   8.867  0.1609  0.0562 -0.0588
 5283PP      PP15387  12.185  13.066   0.108  0.1394  0.0617 -0.2585
 5284PP      PP15388   6.929   3.615  10.868  0.1106 -0.1528  0.1209
 5285PP      PP15389  10.844   6.548   4.991 -0.0645 -0.1381 -0.0455
 5286PP      PP15390   7.078  10.996  11.519 -0.1091  0.1029  0.2925
 5287PP      PP15391   6.262  14.384  13.006 -0.1766 -0.1272 -0.1336
 5288PP      PP15392  12.454  13.913  13.763  0.1574 -0.0427  0.0971
 5289PP      PP15393  12.122   0.113  12.216  0.0247  0.0998 -0.0596
 5290PP      PP15394   0.730   3.534   3.334 -0.5541 -0.1250  0.0671
 5291PP      PP15395  11.913   8.411  11.496 -0.3291 -0.1038  0.3154
 5292PP      PP15396  13.072   7.612   0.654 -0.1012 -0.0358  0.0171
 5293PP      PP15397   9.310  15.703   0.295 -0.1785  0.2421  0.0385
 5294PP      PP15398  11.949   4.975  12.666 -0.1096  0.3576  0.2527
 5295PP      PP15399  11.171   0.897   1.083 -0.1018 -0.0833 -0.2191
 5296PP      PP15400  15.497   7.682   3.121 -0.0627  0.0764 -0.0686
 5297PP      PP15401  15.499   4.610   2.555  0.0943  0.1273  0.1069
 5298PP      PP15402  11.285   5.697   4.011  0.0206  0.1097  0.0028
 5299PP      PP15403   8.428   7.068   9.070  0.1171 -0.0527  0.3211
 5300PP      PP15404   5.521  10.386   4.291  0.2413 -0.2605  0.0797
 5301PP      PP15405   7.107  11.194   9.757  0.3763 -0.0708  0.1949
 5302PP      PP15406   8.924  11.921  10.629 -0.3936 -0.2905 -0.1357
 5303PP      PP15407   1.720   7.344  10.040 -0.0441 -0.0230 -0.3892
 5304PP      PP15408   0.459  11.566   9.694 -0.0976  0.1076  0.0618
 5305PP      PP15409   5.773  11.600   1.973 -0.1528 -0.1514  0.0779
 5306PP      PP15410   2.179   4.770  12.217  0.1134  0.1937 -0.0876
 5307PP      PP15411  10.802   7.270  10.695 -0.4690 -0.2331 -0.1053
 5308PP      PP15412  11.210   6.233   0.763 -0.2263 -0.0643  0.1233
 5309PP      PP15413   9.806   2.164   8.716 -0.1874 -0.0554  0.1363
 5310PP      PP15414   1.160   4.439  10.597  0.3017  0.0391 -0.1617
 5311PP      PP15415  10.634   2.669   3.376 -0.1350  0.0400 -0.1742
 5312PP      PP15416   5.446  15.588   2.201  0.2124  0.0746  0.0698
 5313PP      PP15417   5.676   0.545   3.525  0.0309  0.2770  0.2168
 5314PP      PP15418   7.034  12.225   2.253 -0.0464  0.3129 -0.1378
 5315PP      PP15419  15.115   9.803  11.000  0.1207  0.0378  0.0061
 5316PP      PP15420   9.867  12.048  10.525  0.0995  0.0892 -0.0174
 5317PP      PP15421   4.056  15.732  11.866 -0.0389 -0.1117 -0.1276
 5318PP      PP15422   9.737   9.895   4.430 -0.0692 -0.1333 -0.1951
 5319PP      PP15423   5.331   2.138   0.446  0.0559 -0.0909  0.0816
 5320PP      PP15424   2.069  11.157   3.035  0.1626  0.0643 -0.2182
 5321PP      PP15425   4.951   3.373   8.516  0.1041  0.1730  0.1235
 5322PP      PP15426   6.782   8.458   2.740 -0.1073 -0.0064  0.4715
 5323PP      PP15427   4.132  11.032   1.047  0.0275  0.1088 -0.0462
 5324PP      PP15428   1.726   9.877  11.369  0.2808 -0.2305 -0.3215
 5325PP      PP15429  13.291  12.779  11.394 -0.2294  0.1312 -0.0261
 5326PP      PP15430   8.875  13.757   3.437  0.2892 -0.0400  0.0007
 5327PP      PP15431   2.407   2.162   4.396 -0.0568 -0.2062  0.2229
 5328PP      PP15432   6.666   5.765  10.763  0.2665 -0.0320 -0.0884
 5329PP      PP15433   5.758   8.987  13.577 -0.0468  0.0139 -0.0608
 5330PP      PP15434   8.572   9.881  10.867  0.0907 -0.0022  0.2020
 5331PP      PP15435  10.026   8.625  13.167 -0.3073  0.0833  0.2620
 5332PP      PP15436   3.499   8.299   9.842  0.0215 -0.0049  0.2837
 5333PP      PP15437   3.985   3.316   9.787 -0.0972  0.0236  0.1045
 5334PP      PP15438  13.530   1.319  10.607  0.4178  0.3650 -0.0441
 5335PP      PP15439  11.104   1.967  13.287  0.1101 -0.1536  0.2492
 5336PP      PP15440  13.423  15.535  12.791  0.0120 -0.2171  0.0407
 5337PP      PP15441   4.401   6.264   2.894  0.1315 -0.1442  0.0636
 5338PP      PP15442   7.002   7.023   3.606  0.0488 -0.2711 -0.1196
 5339PP      PP15443  15.659   0.954   8.838  0.1699  0.0165  0.4366
 5340PP      PP15444  11.349   1.498  10.537 -0.0093 -0.4435  0.4003
 5341PP      PP15445   9.726   5.747   3.153  0.1379  0.1646 -0.4246
 5342PP      PP15446  13.616  10.021   4.788 -0.2069 -0.0455 -0.1033
 5343PP      PP15447   6.944   1.353  12.415 -0.4698 -0.1561 -0.1533
 5344PP      PP15448   3.730  14.778   9.591  0.2850 -0.0251 -0.4184
 5345PP      PP15449   5.646   6.768  10.312  0.0615 -0.1256  0.0318
 5346PP      PP15450   3.060  13.872   2.549  0.0028  0.0990 -0.2216
 5347PP      PP15451   2.211  13.859   9.551 -0.0274  0.1017  0.2070
 5348PP      PP15452   1.393   8.422   4.496 -0.1894 -0.2683  0.0595
 5349PP      PP15453   4.058   2.635   0.008 -0.0509  0.3990  0.1928
 5350PP      PP15454   8.167   0.400   8.787 -0.1265  0.0987 -0.0699
 5351PP      PP15455  12.396   4.544   3.468  0.2824 -0.0780 -0.1740
 5352PP      PP15456   2.977   4.958  10.558 -0.3026  0.2164  0.1332
 5353PP      PP15457  15.001  11.805   4.371 -0.0193 -0.0291  0.4659
 5354PP      PP15458   0.332   4.189  12.387  0.1647  0.0061 -0.0245
 5355PP      PP15459  11.038   9.458  10.761  0.3170 -0.1813  0.0010
 5356PP      PP15460   9.447  11.796   3.784 -0.1960 -0.1014  0.2258
 5357PP      PP15461   1.242   7.694   3.016  0.1134  0.0456 -0.2532
 5358PP      PP15462   4.706   7.199   3.326 -0.2140  0.0100 -0.2386
 5359PP      PP15463  10.627   7.608   2.166 -0.0331  0.0582  0.3988
 5360PP      PP15464   9.892  14.871  10.428 -0.1713 -0.0051 -0.2237
 5361PP      PP15465  14.105   7.022  11.339  0.1798  0.2848  0.4213
 5362PP      PP15466   1.573  15.011   3.711 -0.0688  0.1404 -0.1723
 5363PP      PP15467   4.465  11.830   2.589  0.0160  0.0564 -0.0881
 5364PP      PP15468   5.781   6.448   9.327  0.1000  0.1840 -0.2004
 5365PP      PP15469  12.858   0.760  13.524  0.3931 -0.1323 -0.3556
 5366PP      PP15470   6.320  15.563  12.111  0.1238  0.0853 -0.2156
 5367PP      PP15471   8.396   6.770   3.775 -0.0428 -0.0508  0.3043
 5368PP      PP15472  11.598   1.415   2.858 -0.3509 -0.0818 -0.0801
 5369PP      PP15473   6.973   7.732  12.083  0.2161 -0.0404  0.1215
 5370PP      PP15474  12.330   9.952  10.399  0.0060  0.1785 -0.0163
 5371PP      PP15475  13.641  12.878  12.689 -0.3176  0.1867  0.0824
 5372PP      PP15476   2.584   5.858  12.237  0.2751 -0.3607  0.0729
 5373PP      PP15477   5.343  11.644  10.249 -0.0439  0.1650 -0.2795
 5374PP      PP15478   4.360  10.583   3.064 -0.4123 -0.0898  0.1769
 5375PP      PP15479  13.986  13.063   9.747  0.0954  0.2055 -0.0193
 5376PP      PP15480  11.990   2.340  12.396 -0.0606 -0.2514  0.3952
 5377PP      PP15481   7.474  11.262   1.957 -0.0233 -0.0286  0.0592
 5378PP      PP15482   4.263   5.494   9.290 -0.0657 -0.1123 -0.0056
 5379PP      PP15483   4.268   7.953   1.801 -0.0949  0.4073  0.0160
 5380PP      PP15484   5.607   5.489   1.998  0.0591 -0.2922 -0.0723
 5381PP      PP15485   7.057   1.179  11.962  0.3061 -0.0829  0.1090
 5382PP      PP15486   9.103   2.423  12.749  0.0925  0.2018 -0.2136
 5383PP      PP15487   8.009   6.813   0.211 -0.0587  0.1098  0.0959
 5384PP      PP15488   3.361   7.839  13.031 -0.0568  0.2900  0.1911
 5385PP      PP15489  10.170   8.467   1.740  0.0285 -0.1618  0.0806
 5386PP      PP15490  13.843   2.001   2.516  0.2132  0.0446  0.0291
 5387PP      PP15491   8.372   5.851  13.773 -0.0943 -0.3087 -0.1956
 5388PP      PP15492  15.508   1.777   2.964 -0.2596 -0.3678  0.0052
 5389PP      PP15493   7.122   0.767   9.533 -0.1525 -0.0812  0.2439
 5390PP      PP15494   8.834   1.785   3.096 -0.0388  0.1551 -0.0194
 5391PP      PP15495   8.889   9.068   3.636 -0.2917 -0.1766  0.0749
 5392PP      PP15496  11.954   9.413  10.516  0.3520  0.0725 -0.2460
 5393PP      PP15497   8.859   8.763   2.863  0.1856  0.1959  0.0064
 5394PP      PP15498   7.812   1.149   1.096 -0.3239 -0.0863  0.2773
 5395PP      PP15499  15.562  12.652  10.728  0.0296  0.2020  0.0561
 5396PP      PP15500   9.845  15.532  12.970 -0.0712  0.0781 -0.2206
 5397PP      PP15501  14.408  15.565   0.347 -0.3356  0.0105  0.0660
 5398PP      PP15502   5.873   7.670   0.978 -0.0756 -0.2351 -0.1778
 5399PP      PP15503   6.443   5.917  10.147 -0.2119 -0.1199  0.1973
 5400PP      PP15504  14.751  11.561   3.396 -0.1328 -0.2080 -0.1559
 5401PP      PP15505   4.103   8.403   8.483 -0.0342  0.0279 -0.0131
 5402PP      PP15506   7.289  14.259  11.133 -0.1536 -0.1269 -0.0454
 5403PP      PP15507   6.779   5.421   2.705 -0.2910  0.2063 -0.2101
 5404PP      PP15508   2.787  12.594   1.630  0.0070 -0.0307  0.0168
 5405PP      PP15509  12.984   5.108  12.557 -0.0791 -0.1383 -0.1091
 5406PP      PP15510  11.698   1.082   1.154  0.0954 -0.0774 -0.0738
 5407PP      PP15511   0.791  10.456  10.298  0.2206  0.0214 -0.1794
 5408PP      PP15512   1.227   5.661   2.149 -0.0424  0.1488  0.2973
 5409PP      PP15513  11.755  11.532  10.325 -0.1228  0.2606 -0.0459
 5410PP      PP15514  12.697  13.747  12.297 -0.1374  0.1496 -0.0602
 5411PP      PP15515   7.847   6.695   3.544 -0.1084 -0.0480 -0.1069
 5412PP      PP15516   6.941   7.845   9.589 -0.4153  0.0656 -0.0292
 5413PP      PP15517  13.721   1.367   0.820 -0.3167 -0.0506 -0.1002
 5414PP      PP15518  10.872  14.518  12.759 -0.0524  0.0152 -0.3327
 5415PP      PP15519   6.457   2.694  12.606  0.0787  0.2428  0.0280
 5416PP      PP15520  15.121   5.276   0.711  0.0730  0.0413 -0.3680
 5417PP      PP15521   5.938  11.668   1.499  0.2295  0.1708 -0.0769
 5418PP      PP15522  15.006  12.775  11.472  0.3242  0.0354  0.1956
 5419PP      PP15523  11.441   2.680  10.380  0.0683  0.1477  0.1704
 5420PP      PP15524   5.849  11.210  10.916  0.3427  0.0301  0.1830
 5421PP      PP15525   9.500   9.153  11.735  0.1077 -0.1567  0.0696
 5422PP      PP15526  10.429  13.346   0.879 -0.2938 -0.2321  0.2250
 5423PP      PP15527   5.586  10.109  12.948  0.0648  0.0759 -0.1681
 5424PP      PP15528   1.990   3.622   9.149  0.1579 -0.0504 -0.2010
 5425PP      PP15529   4.118   4.778   1.438 -0.3644  0.0057 -0.1628
 5426PP      PP15530   6.727  12.975  12.536  0.1540  0.2129  0.2252
 5427PP      PP15531  10.895   1.148   9.910 -0.2228 -0.0923  0.1739
 5428PP      PP15532   9.939  12.222   0.988 -0.1424 -0.0687  0.0726
 5429PP      PP15533   9.249  14.653   3.075  0.1679 -0.2867  0.2714
 5430PP      PP15534  10.118  15.268   0.905  0.1348  0.0480 -0.0193
 5431PP      PP15535   7.557  11.870   3.837  0.1952 -0.0325  0.1919
 5432PP      PP15536   0.115   6.270   3.882  0.2666 -0.3740 -0.0893
 5433PP      PP15537  11.734  12.916   0.507  0.0150  0.0727  0.1578
 5434PP      PP15538   5.250   5.996  12.615  0.2098 -0.2053  0.2332
 5435PP      PP15539  12.235   4.399   0.503  0.0231 -0.0484  0.0043
 5436PP      PP15540   7.841   6.967   9.773 -0.0006 -0.1488 -0.2943
 5437PP      PP15541   2.609  12.922  12.321 -0.0206 -0.0864 -0.0515
 5438PP      PP15542  12.548  10.374  10.556 -0.2386  0.0392 -0.2999
 5439PP      PP15543   3.081   3.990  13.480 -0.0309 -0.1622  0.0921
 5440PP      PP15544   4.674   1.770  11.532  0.0474  0.0887  0.0841
 5441PP      PP15545   3.935   1.311   1.893 -0.0315 -0.0401  0.0253
 5442PP      PP15546   1.472   4.271   0.689 -0.0240  0.0375 -0.1204
 5443PP      PP15547   8.022  14.631   9.618  0.2645  0.2998 -0.0077
 5444PP      PP15548   0.573   5.488   0.793 -0.0267 -0.1254  0.1453
 5445PP      PP15549   2.660  12.410  12.170  0.0195  0.1514 -0.1346
 5446PP      PP15550  13.516  12.395   2.371  0.0505  0.1515  0.0622
 5447PP      PP15551   1.953   5.156  10.899  0.1955 -0.2172  0.0559
 5448PP      PP15552  13.855  12.189  11.752  0.0248  0.2178  0.3918
 5449PP      PP15553   6.181   4.508   1.444 -0.2406  0.1033  0.0873
 5450PP      PP15554  12.334   7.459   5.362 -0.0066 -0.2850  0.0381
 5451PP      PP15555   7.230   3.658  12.020  0.0255 -0.1149 -0.1660
 5452PP      PP15556   7.737   4.181   8.007  0.1063  0.1682  0.2167
 5453PP      PP15557   2.317   0.415   0.563 -0.3135 -0.0048 -0.1663
 5454PP      PP15558  10.563   6.781   2.604  0.2266 -0.0179 -0.0404
 5455PP      PP15559   0.672   1.013  12.763  0.0250 -0.1397  0.0662
 5456PP      PP15560   3.752  11.511  10.368 -0.0311 -0.0437 -0.2668
 5457PP      PP15561   5.943  12.986  13.361 -0.1998  0.0078  0.1119
 5458PP      PP15562   0.415   2.593   8.648  0.0819 -0.1082 -0.0268
 5459PP      PP15563   2.194   5.542   2.528  0.2446  0.0398  0.1048
 5460PP      PP15564  13.812   0.531  10.807  0.0230  0.0428  0.0382
 5461PP      PP15565   8.765  14.578   3.056 -0.2176 -0.0088 -0.1198
 5462PP      PP15566   2.334   6.374  13.660 -0.0621 -0.2699  0.3459
 5463PP      PP15567   5.711   4.084   0.786  0.0644  0.1051 -0.0474
 5464PP      PP15568  10.673  11.905  11.733 -0.1169 -0.1259 -0.0800
 5465PP      PP15569  13.758   6.402   4.240  0.1496  0.0570  0.2361
 5466PP      PP15570  13.414   8.411  13.682  0.0907 -0.0286 -0.0826
 5467PP      PP15571  12.758   4.516   3.823 -0.0313  0.0559  0.3347
 5468PP      PP15572  15.259   9.955  12.278 -0.2701  0.0878  0.4138
 5469PP      PP15573   9.472  12.248  13.033  0.1268  0.1019  0.0424
 5470PP      PP15574  12.213   2.448   1.179 -0.2690  0.4540 -0.0070
 5471PP      PP15575   4.259  11.797   1.044  0.0490  0.2507  0.1189
 5472PP      PP15576  12.271  12.451  11.944 -0.2775 -0.0322  0.2846
 5473PP      PP15577   7.176   4.506   8.849 -0.0007 -0.2776  0.0223
 5474PP      PP15578  11.652  13.087  12.754  0.1522  0.0951  0.1616
 5475PP      PP15579  11.691   8.845   5.237 -0.1379 -0.1037 -0.1571
 5476PP      PP15580   2.695  11.794  10.808 -0.1682  0.1116  0.0847
 5477PP      PP15581  11.678   4.472   9.336  0.2312  0.4048 -0.0179
 5478PP      PP15582   4.514   1.341   9.367  0.3902 -0.1683  0.0912
 5479PP      PP15583   5.140  11.991   8.947 -0.0403 -0.3161 -0.4026
 5480PP      PP15584   6.601  14.439  10.580 -0.0108 -0.1603  0.0237
 5481PP      PP15585   5.488  12.808  13.160  0.0064 -0.0413 -0.1122
 5482PP      PP15586   7.114   9.188   3.437 -0.0058  0.3764 -0.1159
 5483PP      PP15587  14.880  14.226   2.170  0.0828 -0.4936 -0.0249
 5484PP      PP15588   8.652   4.684  13.677 -0.0597  0.1934 -0.0167
 5485PP      PP15589  13.150   2.406  10.214  0.1077  0.0844 -0.0956
 5486PP      PP15590  12.467   1.116  10.082  0.3707  0.0064  0.0303
 5487PP      PP15591  13.898   9.798   2.241  0.0525  0.0486 -0.0235
 5488PP      PP15592   5.609  10.389   0.068  0.2126 -0.2156 -0.1318
 5489PP      PP15593  13.124   3.676  12.925  0.1611 -0.3317  0.1493
 5490PP      PP15594   6.528   0.989  12.484  0.0407  0.3208  0.2166
 5491PP      PP15595   2.804  15.335  12.516  0.2196 -0.1678 -0.0949
 5492PP      PP15596  14.844   0.453   1.762  0.0474  0.1088  0.1344
 5493PP      PP15597  10.100  13.627   4.135  0.0828 -0.0548  0.0041
 5494PP      PP15598   0.422   9.394   4.830 -0.0160 -0.0258 -0.0985
 5495PP      PP15599   8.486   3.941   1.494  0.1072 -0.0685  0.2533
 5496PP      PP15600   5.837   6.959  12.910  0.3350  0.1813  0.3144
 5497PP      PP15601   6.252   2.434   9.095 -0.2769 -0.3118  0.3090
 5498PP      PP15602  10.865  11.673   5.286  0.2518 -0.0170  0.0625
 5499PP      PP15603   1.238   0.094   9.345 -0.0782  0.0677 -0.2161
 5500PP      PP15604  10.210   3.524  12.021 -0.0159 -0.1215  0.2347
 5501PP      PP15605   0.840   0.409   3.614 -0.3456  0.1374  0.0988
 5502PP      PP15606   0.717   6.965   9.771 -0.3179 -0.0836  0.0204
 5503PP      PP15607   2.534   2.153  10.298  0.2417 -0.1668  0.0906
 5504PP      PP15608   0.124   9.808   4.383 -0.0648 -0.0204 -0.1580
 5505PP      PP15609   9.505   9.406   1.707  0.0758 -0.0383  0.0542
 5506PP      PP15610  12.665  12.690   3.983 -0.0403 -0.2321 -0.1533
 5507PP      PP15611   8.524   2.159   7.810 -0.0503  0.0186 -0.0228
 5508PP      PP15612  14.092  12.878  10.774  0.3545  0.0184  0.2177
 5509PP      PP15613   6.309   4.577  13.252  0.3476 -0.1212 -0.0677
 5510PP      PP15614   3.573  12.187  12.358  0.1179 -0.0951  0.0000
 5511PP      PP15615   1.268   1.569  10.674 -0.0313 -0.1386 -0.0254
 5512PP      PP15616   1.889   8.937   9.476  0.3761  0.0643 -0.1302
 5513PP      PP15617  10.548   8.047   3.996 -0.1659  0.0691 -0.0273
 5514PP      PP15618   1.772  11.064  12.045 -0.0034 -0.1193 -0.0560
 5515PP      PP15619  13.234   3.184   3.185 -0.0298 -0.2506  0.3569
 5516PP      PP15620  13.580   3.756  11.086  0.1754  0.2649  0.0086
 5517PP      PP15621   3.172  11.336  12.079 -0.1043 -0.1077 -0.0487
 5518PP      PP15622   8.413  13.747   3.129 -0.1269 -0.3916 -0.1594
 5519PP      PP15623   4.330   7.132   2.583  0.1462 -0.1572  0.0814
 5520PP      PP15624   0.633   9.113   4.467  0.0848  0.1022 -0.2878
 5521PP      PP15625   3.091   1.088  11.094  0.0615 -0.2432 -0.1935
 5522PP      PP15626  12.907   6.998   9.842  0.3277 -0.2485 -0.2182
 5523PP      PP15627   3.103   8.430   9.529  0.0915  0.0381  0.2619
 5524PP      PP15628   7.682  15.521  10.027 -0.0798 -0.0746 -0.0206
 5525PP      PP15629   3.952  12.881  12.001  0.3045  0.5216 -0.0853
 5526PP      PP15630   9.091   7.740   1.926 -0.0306 -0.3494 -0.2379
 5527PP      PP15631   8.346   2.649   0.002  0.0189 -0.0256  0.1174
 5528PP      PP15632   8.575   2.837   2.152  0.2114 -0.1731  0.0119
 5529PP      PP15633   5.194  15.410   1.732  0.3246  0.0123  0.1187
 5530PP      PP15634  13.845   1.015   8.740  0.1108  0.0614  0.0510
 5531PP      PP15635  11.586  15.546  13.352 -0.2259  0.0220  0.4822
 5532PP      PP15636  10.777   1.660  13.528 -0.0254  0.3151 -0.0219
 5533PP      PP15637  13.564   9.842   9.273  0.1368  0.1648 -0.1659
 5534PP      PP15638   1.056   7.665   1.091 -0.0446 -0.1171  0.1832
 5535PP      PP15639   6.307  12.911  12.306 -0.1709  0.4425 -0.5488
 5536PP      PP15640   1.575   9.420  11.298  0.0814  0.1541 -0.1890
 5537PP      PP15641   9.220   6.834   4.515  0.2454 -0.2579 -0.0770
 5538PP      PP15642  13.102  10.253  13.622  0.0514 -0.0397 -0.1095
 5539PP      PP15643  10.117   0.782  10.330 -0.2828 -0.2158 -0.3748
 5540PP      PP15644  12.487   9.900  12.808  0.0992 -0.1347  0.1779
 5541PP      PP15645   2.606  13.867  13.321 -0.0209  0.0171  0.0731
 5542PP      PP15646   5.315   9.739  10.259  0.4799  0.1380 -0.0100
 5543PP      PP15647  13.630   1.135   3.966  0.0610 -0.0029  0.4862
 5544PP      PP15648   1.800   8.379  13.520  0.1466  0.0707 -0.0160
 5545PP      PP15649  12.404   0.947  13.366  0.3690  0.1830  0.0498
 5546PP      PP15650   1.852  14.398  13.657 -0.3834 -0.0559  0.2684
 5547PP      PP15651   5.174  14.847  10.786  0.1146  0.1164 -0.2948
 5548PP      PP15652  10.597  12.109   5.081 -0.0440  0.0889  0.0485
 5549PP      PP15653   8.255   9.393   1.664 -0.2769  0.4301  0.0221
 5550PP      PP15654   4.738   5.664   3.469 -0.0292  0.3133  0.0855
 5551PP      PP15655   8.712   4.766   8.659  0.0153 -0.0955  0.1562
 5552PP      PP15656   6.673   0.140   9.413  0.0327 -0.1111 -0.0873
 5553PP      PP15657  10.883  11.514   3.999 -0.0034  0.1814 -0.1850
 5554PP      PP15658   4.704   1.981  12.157  0.1306  0.4261  0.0260
 5555PP      PP15659  13.853   9.399  11.497  0.1380 -0.4368  0.1844
 5556PP      PP15660   3.191   2.378   0.364  0.0702 -0.4208  0.0038
 5557PP      PP15661   1.957   6.897  12.175  0.0599 -0.2348 -0.4683
 5558PP      PP15662   5.912  11.641   8.998  0.2841  0.0837 -0.1728
 5559PP      PP15663   5.097   7.662   9.099 -0.3004  0.0641 -0.0642
 5560PP      PP15664   7.405   8.431   3.021  0.1846  0.2963 -0.3562
 5561PP      PP15665   8.427  12.592   4.654  0.0886 -0.2600  0.1076
 5562PP      PP15666  14.956   3.744   0.823 -0.2312 -0.4320 -0.1242
 5563PP      PP15667   5.074   2.296   0.873  0.1827  0.0222 -0.1035
 5564PP      PP15668  10.277   7.048   4.809 -0.1488  0.0403 -0.0842
 5565PP      PP15669  14.684   1.795  13.301  0.1484  0.0299 -0.0280
 5566PP      PP15670  12.671   9.157   1.949 -0.1228  0.0070  0.0993
 5567PP      PP15671   0.400   2.044   0.928 -0.1184  0.0748  0.2305
 5568PP      PP15672  13.581   7.937   1.591 -0.2722  0.1506  0.1708
 5569PP      PP15673   9.703  10.111   1.305  0.1218  0.1862 -0.2062
 5570PP      PP15674  10.634  10.601  10.320  0.3097  0.0756 -0.0970
 5571PP      PP15675  14.095   8.400   0.471 -0.0932  0.5480  0.2098
 5572PP      PP15676  12.288   1.696  10.592 -0.0458 -0.2303 -0.0462
 5573PP      PP15677   7.251   8.337  10.057  0.0236  0.0344  0.1033
 5574PP      PP15678  10.824  11.162   0.672 -0.4085 -0.1239  0.2331
 5575PP      PP15679  10.948   0.342  11.248 -0.0052 -0.1822  0.0132
 5576PP      PP15680   2.354   4.132  11.614 -0.0702 -0.1018 -0.0533
 5577PP      PP15681  13.035  11.101  13.028  0.1676  0.0603 -0.1188
 5578PP      PP15682   0.044   5.907  11.984  0.0217  0.1154 -0.4903
 5579PP      PP15683   1.266  11.102  13.609  0.2521 -0.0760 -0.1443
 5580PP      PP15684   1.061   1.327  12.767 -0.2369  0.0095  0.4062
 5581PP      PP15685   0.139   7.103  13.247  0.0586  0.1644  0.0877
 5582PP      PP15686   4.762   5.599   9.463  0.1750  0.0882 -0.0506
 5583PP      PP15687  11.977   3.121   1.323 -0.1277  0.2558  0.1347
 5584PP      PP15688   8.853  13.657   0.135  0.1118 -0.1561 -0.0943
 5585PP      PP15689   8.061   4.520  13.134 -0.0748  0.2384 -0.0110
 5586PP      PP15690  11.253   5.570   3.054 -0.2468  0.1383  0.0341
 5587PP      PP15691  12.000   2.032   3.255 -0.1510  0.1606  0.0128
 5588PP      PP15692   4.774   0.435  10.284  0.1079  0.3103  0.1645
 5589PP      PP15693   8.899   4.213  12.909 -0.0044  0.0446 -0.0380
 5590PP      PP15694  10.173   5.780   0.135 -0.3094 -0.4379 -0.1007
 5591PP      PP15695  12.444  10.826   4.972  0.2581 -0.0676  0.1897
 5592PP      PP15696   4.222   8.379  13.454 -0.0014  0.0296 -0.1229
 5593PP      PP15697   4.027   3.898   0.297  0.1479  0.1887 -0.0563
 5594PP      PP15698   8.957  11.801   0.748  0.0101  0.3842 -0.2341
 5595PP      PP15699   3.902   9.950  12.448  0.3239  0.1997 -0.1396
 5596PP      PP15700  13.976   8.343   1.477 -0.1939 -0.0813  0.1805
 5597PP      PP15701   2.931   1.852  12.753 -0.2096 -0.1534  0.0794
 5598PP      PP15702   7.778  11.855   0.810 -0.2044 -0.0489 -0.0118
 5599PP      PP15703  11.002  12.397  11.114 -0.4020  0.0553 -0.0677
 5600PP      PP15704   7.407   3.614  11.172 -0.1235  0.6454 -0.1359
 5601PP      PP15705   2.335  11.270   4.286 -0.1560  0.0478  0.2413
 5602PP      PP15706   3.067  10.847  11.942  0.0768 -0.2208  0.0653
 5603PP      PP15707   5.893   4.435  11.234 -0.0520 -0.2469 -0.0841
 5604PP      PP15708  10.669   6.460   4.087 -0.1476  0.3121 -0.1375
 5605PP      PP15709  13.033  15.446  13.388 -0.2091  0.0016  0.0148
 5606PP      PP15710  11.065   5.240   4.157 -0.2188 -0.1121  0.1657
 5607PP      PP15711  11.561   6.605   5.756 -0.2152 -0.0227 -0.7281
 5608PP      PP15712   5.894   1.456  10.725  0.1925  0.1266 -0.1391
 5609PP      PP15713  13.131   8.154   1.426  0.0702  0.0178  0.1786
 5610PP      PP15714   3.277  14.259   3.269  0.2008  0.0968  0.2317
 5611PP      PP15715   7.323  15.167   9.517  0.1300  0.1060 -0.0456
 5612PP      PP15716  12.983   9.617  12.797 -0.2877 -0.0629 -0.0845
 5613PP      PP15717   2.526   0.350  11.711  0.0165 -0.2506  0.2537
 5614PP      PP15718   9.667   9.859   0.725  0.0469 -0.0951  0.2306
 5615PP      PP15719   0.125  10.184   3.870 -0.3655  0.2834  0.0193
 5616PP      PP15720   7.486   1.528  12.703  0.0281 -0.0058  0.0511
 5617PP      PP15721   8.483   9.662   7.137 -0.2415 -0.3380  0.0835
 5618PP      PP15722   7.833   3.123  11.964 -0.0343 -0.0150  0.0804
 5619PP      PP15723   4.719  10.806   3.353 -0.1147  0.0183 -0.2256
 5620PP      PP15724  11.143  10.223  13.432  0.0662 -0.0693 -0.1304
 5621PP      PP15725   2.976   3.783   0.230  0.2581 -0.2145  0.0183
 5622PP      PP15726  14.429   7.309   1.565  0.0376 -0.1624  0.1082
 5623PP      PP15727   0.181  12.786  12.152  0.1404  0.0052 -0.1312
 5624PP      PP15728   6.345   4.700  13.760 -0.0738  0.0561 -0.0915
 5625PP      PP15729   9.458   7.589   0.909  0.0372  0.2002  0.2519
 5626PP      PP15730   1.591   9.967   0.548 -0.1121 -0.0173  0.2615
 5627PP      PP15731   7.507   2.714  12.074 -0.0114 -0.0678  0.1324
 5628PP      PP15732   8.887   9.342  11.607 -0.2679  0.1535  0.2848
 5629PP      PP15733   8.142  14.115  12.458  0.0052 -0.0966  0.0203
 5630PP      PP15734   1.958   5.833   4.026 -0.0867  0.0635 -0.2866
 5631PP      PP15735   9.798  10.164   1.865 -0.0477 -0.0185  0.0124
 5632PP      PP15736   6.032  11.587  11.860 -0.3500 -0.0592 -0.2811
 5633PP      PP15737  13.128   7.777   3.115  0.2535 -0.2395  0.1583
 5634PP      PP15738  12.341  12.073   9.661  0.2484  0.1070  0.0467
 5635PP      PP15739   8.910   6.605   3.813 -0.0119 -0.0469 -0.2066
 5636PP      PP15740   2.105   5.433  13.659  0.1479  0.0364 -0.0231
 5637PP      PP15741   4.434  14.477  10.916  0.3410  0.1201 -0.5410
 5638PP      PP15742   4.207  10.003   4.574  0.2662 -0.0448 -0.0223
 5639PP      PP15743   3.192   0.909   0.733 -0.0153 -0.1246  0.1064
 5640PP      PP15744  10.391  13.571  10.663 -0.1144  0.2464  0.0377
 5641PP      PP15745  15.182  13.477   1.315 -0.3297 -0.0124  0.1184
 5642PP      PP15746   0.109   4.346   2.846  0.0215  0.2161  0.2215
 5643PP      PP15747  12.309   4.160   3.727  0.0645 -0.1904 -0.1231
 5644PP      PP15748  10.800   3.207  10.912 -0.2178  0.0252 -0.1444
 5645PP      PP15749  14.507   8.661   2.680  0.1713  0.1484 -0.0369
 5646PP      PP15750   9.371   5.656   9.720 -0.0390 -0.0381  0.0279
 5647PP      PP15751   4.904  10.991   9.346 -0.1149  0.1364  0.1555
 5648PP      PP15752  14.521   1.203   0.207 -0.1652  0.0839 -0.0440
 5649PP      PP15753   4.526   0.821  11.952  0.2930  0.0019 -0.0169
 5650PP      PP15754   4.080   4.854   3.230  0.2254  0.3024  0.3741
 5651PP      PP15755   6.038   7.096   0.136 -0.1213 -0.2121 -0.1908
 5652PP      PP15756  11.615   0.526   3.890  0.1066  0.3595 -0.1370
 5653PP      PP15757   7.371   0.643   3.104 -0.0367  0.3443 -0.0382
 5654PP      PP15758   3.046   7.520   2.298 -0.1591 -0.3307  0.1705
 5655PP      PP15759  15.526   0.040  10.078 -0.3768  0.0277  0.2076
 5656PP      PP15760   5.209   4.820   1.970 -0.0616 -0.3393 -0.1357
 5657PP      PP15761   0.907  14.049  11.429 -0.1318 -0.0755 -0.0644
 5658PP      PP15762  14.745  12.945   3.118  0.0881 -0.1404 -0.1478
 5659PP      PP15763   0.389   9.139  11.453  0.0363 -0.0645  0.0704
 5660PP      PP15764   2.602   7.288   4.275 -0.3520  0.0039  0.2069
 5661PP      PP15765  12.969  12.444   5.519  0.0265 -0.0194  0.1096
 5662PP      PP15766   3.381   7.519  13.408  0.3206  0.1975  0.4349
 5663PP      PP15767   1.090   6.251   2.867 -0.0362  0.2501  0.0817
 5664PP      PP15768  12.991   0.173   2.313 -0.2266  0.0246 -0.0714
 5665PP      PP15769  10.438   9.689  10.723 -0.1242 -0.2038  0.1040
 5666PP      PP15770   6.756   4.879   8.919  0.0307 -0.2304 -0.1358
 5667PP      PP15771   8.981  14.443   2.582  0.2004  0.1899 -0.1484
 5668PP      PP15772  12.085   9.666  11.384  0.0206  0.2298 -0.0749
 5669PP      PP15773   9.229  11.371   9.888 -0.1467 -0.1377 -0.1355
 5670PP      PP15774   6.992   4.544   0.788 -0.1039 -0.0959 -0.1622
 5671PP      PP15775  11.063  14.682   0.216  0.0564 -0.1794  0.0153
 5672PP      PP15776   8.552   9.550   0.650 -0.2990 -0.2548 -0.2110
 5673PP      PP15777   2.007  15.356   0.094  0.1880 -0.2031 -0.0087
 5674PP      PP15778   5.321   5.130  11.994 -0.2336  0.0316  0.0588
 5675PP      PP15779  11.689   9.429  12.701  0.2993 -0.2349 -0.0990
 5676PP      PP15780   2.051   9.546  10.314  0.1340 -0.0160  0.0756
 5677PP      PP15781  10.280  10.583  10.772  0.1838  0.0970 -0.0576
 5678PP      PP15782   2.012   6.148   1.566  0.1518 -0.1634  0.3350
 5679PP      PP15783  13.355  14.097   0.141  0.0342  0.2409 -0.1791
 5680PP      PP15784   4.740   7.559   1.188  0.1940  0.1768  0.0685
 5681PP      PP15785   4.554   7.944   4.898  0.1121 -0.1995 -0.0276
 5682PP      PP15786   4.284   7.157  12.062  0.2969 -0.1680 -0.1635
 5683PP      PP15787  14.042   0.567  11.770 -0.1261 -0.4627 -0.0032
 5684PP      PP15788   0.869   9.920   1.886 -0.3574 -0.2088  0.0940
 5685PP      PP15789   7.794  12.409   3.077  0.0310 -0.0757 -0.1203
 5686PP      PP15790  14.954   2.651   3.143  0.0046  0.1208  0.1859
 5687PP      PP15791   4.181   7.685  12.078  0.0551  0.0680  0.0788
 5688PP      PP15792   2.733  11.763   1.896 -0.0360 -0.2920  0.0993
 5689PP      PP15793  14.262   5.730   0.818  0.1561  0.0078 -0.1504
 5690PP      PP15794  10.603   6.942  10.203 -0.0570 -0.2744  0.0424
 5691PP      PP15795   7.783   7.326  11.393  0.1396  0.1019  0.1662
 5692PP      PP15796  11.167   4.021   0.737 -0.2356 -0.1971 -0.2645
 5693PP      PP15797   6.297  11.148   3.256  0.0983  0.1686 -0.0573
 5694PP      PP15798  10.293  10.998   2.175 -0.0092 -0.2075  0.2348
 5695PP      PP15799  14.796  14.119   9.905 -0.2393 -0.2136  0.0336
 5696PP      PP15800   4.272   7.585   8.261  0.1461 -0.2027 -0.0732
 5697PP      PP15801  14.075   9.611   3.740 -0.1573 -0.1362 -0.2057
 5698PP      PP15802   4.829   7.955  10.525  0.0199 -0.1898 -0.4013
 5699PP      PP15803   3.631  12.551  13.761 -0.0448  0.0371 -0.2247
 5700PP      PP15804  14.089   4.206  10.524  0.0378  0.3136 -0.1227
 5701PP      PP15805   3.490  10.921   1.806 -0.3318  0.0111 -0.2232
 5702PP      PP15806  10.003   0.103  10.759 -0.0946 -0.0793 -0.0817
 5703PP      PP15807  13.275   8.453  10.954 -0.2451 -0.1793  0.0551
 5704PP      PP15808   3.347   1.121   4.155 -0.2212 -0.0017 -0.3466
 5705PP      PP15809   6.034   2.624   7.883 -0.0397 -0.1259 -0.0290
 5706PP      PP15810  15.441   5.585  13.187 -0.0983 -0.1616 -0.2304
 5707PP      PP15811   3.443  12.296   2.351  0.1257  0.0007  0.1074
 5708PP      PP15812   9.733   5.996   9.650  0.1370 -0.1838  0.0833
 5709PP      PP15813  13.860   2.653   3.739 -0.1215 -0.4134 -0.0436
 5710PP      PP15814  10.098   1.216  12.711  0.1602 -0.1636 -0.2460
 5711PP      PP15815  13.128  13.481  10.064  0.0670  0.5217 -0.0068
 5712PP      PP15816  11.999   0.976  12.191 -0.1007  0.2098  0.0971
 5713PP      PP15817  10.372   4.533   2.494  0.0866 -0.0460  0.2080
 5714PP      PP15818   7.985   4.498   3.019 -0.1067  0.3813 -0.1397
 5715PP      PP15819   3.347   6.856   1.446 -0.0960  0.0551 -0.1077
 5716PP      PP15820   2.186   8.749  13.508  0.0507  0.0941 -0.0767
 5717PP      PP15821   7.250   1.636   0.506 -0.2521  0.1496 -0.1508
 5718PP      PP15822   0.235   4.643  12.104 -0.0781 -0.0141  0.2794
 5719PP      PP15823  13.650  11.901  12.092 -0.0987 -0.1344  0.1182
 5720PP      PP15824  11.211  13.315  12.595 -0.1368  0.1544  0.2842
 5721PP      PP15825   7.883   8.676   0.543 -0.1188  0.4164 -0.2129
 5722PP      PP15826   0.931   1.147   8.950 -0.0609 -0.1563  0.0860
 5723PP      PP15827   6.688   9.370   9.547 -0.2315  0.1965  0.1271
 5724PP      PP15828  11.554   4.697   1.162  0.1169 -0.0379  0.0699
 5725PP      PP15829   9.847   0.762   0.772  0.3505  0.2340  0.0307
 5726PP      PP15830   6.972   1.931  13.337  0.2723  0.0354  0.1648
 5727PP      PP15831   9.133  14.675  12.274  0.1517  0.2311  0.0301
 5728PP      PP15832  12.192   4.730   2.644  0.1486  0.0016  0.2879
 5729PP      PP15833   0.456  11.726  11.676 -0.3419  0.3599  0.1655
 5730PP      PP15834   6.580   7.202   3.267 -0.0070  0.1878  0.3286
 5731PP      PP15835  13.159  10.498   4.889  0.0460 -0.1811 -0.1843
 5732PP      PP15836   0.406  12.541  13.064  0.2246 -0.0937 -0.1642
 5733PP      PP15837   9.176   8.286  12.697 -0.2721  0.1895  0.0467
 5734PP      PP15838   0.784   0.511   2.643  0.2196  0.0635 -0.1970
 5735PP      PP15839   7.261  15.334   2.737 -0.0457  0.0696 -0.0251
 5736PP      PP15840   6.303  10.236   2.024  0.0110  0.0846  0.0810
 5737PP      PP15841   9.554   9.714  11.899  0.0254  0.2201  0.1550
 5738PP      PP15842  15.739   5.239   9.216 -0.1983 -0.1120 -0.1163
 5739PP      PP15843   7.416  11.549   1.066 -0.0460 -0.1369  0.3370
 5740PP      PP15844   3.646   4.682   2.946  0.2602 -0.2452 -0.1320
 5741PP      PP15845   4.926   8.559  12.713  0.2931 -0.0290 -0.3935
 5742PP      PP15846  14.221  11.327  10.020  0.1605  0.0832 -0.3819
 5743PP      PP15847   8.059  15.578  13.657 -0.2124  0.0301 -0.2550
 5744PP      PP15848   2.439   4.372   2.523 -0.2090  0.0971 -0.0062
 5745PP      PP15849  14.086  12.256  10.606 -0.2227  0.0673  0.2095
 5746PP      PP15850  14.222  10.198  12.903  0.3408 -0.3553  0.1666
 5747PP      PP15851   1.596   5.532   3.959 -0.2297 -0.0019  0.0721
 5748PP      PP15852  11.677  13.258   4.470  0.1366  0.0780 -0.1418
 5749PP      PP15853   9.555   9.244   2.949 -0.0107 -0.1344  0.1304
 5750PP      PP15854   9.805   1.612   1.248 -0.0977  0.0570 -0.0055
 5751PP      PP15855  15.123  12.592   0.447  0.0896  0.0057 -0.2416
 5752PP      PP15856  12.460  15.486   4.183  0.0954  0.1393 -0.1267
 5753PP      PP15857  12.150  15.457   3.306  0.0941 -0.3695  0.0232
 5754PP      PP15858   9.361  14.143  12.401  0.2607  0.1115  0.0956
 5755PP      PP15859  14.657   8.056   2.180  0.1353 -0.1414 -0.0086
 5756PP      PP15860   8.093   0.327  11.601  0.3733 -0.1155 -0.0762
 5757PP      PP15861  12.007  14.419  12.119  0.2242  0.2741  0.2790
 5758PP      PP15862  14.786   7.254   0.264  0.0651  0.0278 -0.1342
 5759PP      PP15863  10.763   7.151   4.672  0.0580  0.1735 -0.4434
 5760PP      PP15864   2.592   6.717   2.609 -0.1288  0.3239 -0.0660
 5761PP      PP15865   6.569  15.622   8.136 -0.4716 -0.1300  0.1950
 5762PP      PP15866   7.018   6.221   1.819  0.2346 -0.0031  0.1475
 5763PP      PP15867   9.677   9.804   2.734  0.1787  0.0190  0.3099
 5764PP      PP15868  15.074  12.957   4.559  0.1286 -0.3709 -0.2891
 5765PP      PP15869   1.053   8.703   2.680 -0.0371 -0.2056 -0.2842
 5766PP      PP15870  13.781  15.612   9.873  0.0631 -0.0052  0.0006
 5767PP      PP15871   0.399   5.088   8.797 -0.0353 -0.2381  0.2150
 5768PP      PP15872   1.512   5.481   1.710 -0.0469  0.1591  0.1050
 5769PP      PP15873  14.936   7.211  10.325  0.1255 -0.0576  0.1838
 5770PP      PP15874  15.697  15.389   2.132 -0.0668 -0.1097 -0.1831
 5771PP      PP15875   3.863   6.193  11.919  0.0409  0.1228  0.0999
 5772PP      PP15876   3.886  10.445  12.539  0.2999  0.0404 -0.2235
 5773PP      PP15877  13.984   2.548  13.053 -0.4262  0.1728  0.0106
 5774PP      PP15878   7.019  12.440   1.493 -0.0429 -0.3650 -0.0889
 5775PP      PP15879  11.917  14.703   9.584  0.0968 -0.2229  0.1658
 5776PP      PP15880   7.528   7.462  13.547  0.2632 -0.3065 -0.1392
 5777PP      PP15881  12.804   5.205   5.204 -0.1106  0.4059  0.0925
 5778PP      PP15882   7.569  12.171   2.113 -0.0778  0.0418 -0.2402
 5779PP      PP15883   4.972  10.661   0.013  0.2636  0.1264  0.1699
 5780PP      PP15884   3.305   5.013   0.881 -0.1706  0.0770  0.0689
 5781PP      PP15885  11.932  15.188   3.743 -0.0257 -0.0337  0.0528
 5782PP      PP15886   5.646  12.512  11.458  0.1955  0.3762  0.1276
 5783PP      PP15887  15.056   0.075  12.426  0.2470  0.1773 -0.0873
 5784PP      PP15888   1.779  14.766  10.885  0.0384 -0.0298  0.0328
 5785PP      PP15889   0.222   5.222   0.585 -0.2011 -0.0556  0.2034
 5786PP      PP15890   5.418   3.467   8.681  0.1560  0.1281 -0.3045
 5787PP      PP15891   3.618   1.581   3.952  0.0209 -0.1084  0.1517
 5788PP      PP15892   1.152  10.081   0.712 -0.0425  0.2114 -0.0690
 5789PP      PP15893   9.016  15.407   8.921 -0.2746  0.1258  0.2263
 5790PP      PP15894  15.311  10.065  12.775  0.2065 -0.4442  0.0437
 5791PP      PP15895   0.060  11.758  10.269  0.1018 -0.0111 -0.1320
 5792PP      PP15896  11.346  11.784   3.845  0.2180  0.0623 -0.3842
 5793PP      PP15897   4.289  10.841   9.209 -0.1550 -0.3861  0.1678
 5794PP      PP15898  14.781   9.719   1.483 -0.2559  0.0939 -0.0324
 5795PP      PP15899   8.096   1.414   8.380 -0.2230  0.0294 -0.0382
 5796PP      PP15900  12.708   3.291   1.974 -0.1760  0.0742  0.1395
 5797PP      PP15901  12.331   5.227  10.286  0.0642  0.2046  0.0659
 5798PP      PP15902  14.258  14.267   3.526  0.0862  0.1460  0.1473
 5799PP      PP15903   1.590   0.398  11.776  0.4354  0.0842 -0.4885
 5800PP      PP15904  11.858   5.907   4.601  0.1160 -0.0347  0.3339
 5801PP      PP15905   8.308  10.073   0.681 -0.0336  0.0144  0.1433
 5802PP      PP15906  12.308  10.913  12.938 -0.0818 -0.2402 -0.0737
 5803PP      PP15907  14.380   0.205   4.434 -0.2898 -0.1892  0.0662
 5804PP      PP15908  12.867   8.210   3.628 -0.0077  0.0434 -0.2232
 5805PP      PP15909   3.452   9.735   0.933 -0.0475  0.3818 -0.2051
 5806PP      PP15910  15.246   2.781   3.481 -0.2367 -0.0894 -0.0507
 5807PP      PP15911  11.132  15.525  12.027  0.3803  0.3151 -0.1471
 5808PP      PP15912  13.862   7.847   9.952 -0.1018  0.2168 -0.2991
 5809PP      PP15913   2.830  15.552   0.645  0.2534  0.3519 -0.0626
 5810PP      PP15914  14.096  11.377   4.218 -0.2362 -0.0643 -0.0968
 5811PP      PP15915   3.703  15.150  11.152 -0.0697  0.1574  0.1574
 5812PP      PP15916  12.695   5.981  11.992  0.2494  0.1699  0.1986
 5813PP      PP15917  15.202   2.540   8.999  0.0710 -0.0609 -0.3754
 5814PP      PP15918   6.730   2.172   0.475 -0.0350 -0.0163  0.0401
 5815PP      PP15919  15.181   7.954   2.295  0.1751  0.2767  0.1951
 5816PP      PP15920  12.302   1.422   1.907  0.2703  0.1766  0.0471
 5817PP      PP15921  12.719   4.705  10.823 -0.0687 -0.0029  0.0274
 5818PP      PP15922   3.128  12.390  12.531  0.0414 -0.2236 -0.1222
 5819PP      PP15923  11.201  14.664   2.564  0.3095 -0.1782  0.0064
 5820PP      PP15924  14.000  11.496   1.120 -0.0290 -0.1851  0.1620
 5821PP      PP15925  13.922  11.337   9.529 -0.0196 -0.3413 -0.0264
 5822PP      PP15926  11.264  13.942  10.173 -0.1170 -0.1449  0.0717
 5823PP      PP15927   6.369   5.565  13.468 -0.0708 -0.0463 -0.1761
 5824PP      PP15928   7.705  10.980  13.562  0.0798 -0.1783  0.1124
 5825PP      PP15929  13.843  11.247   2.796  0.2989  0.2746 -0.3778
 5826PP      PP15930  11.203   0.819   2.289 -0.1390 -0.1682  0.1845
 5827PP      PP15931   7.127  12.391   2.760 -0.3916 -0.1578 -0.2890
 5828PP      PP15932   1.946   4.278   2.336  0.3037 -0.0742  0.0605
 5829PP      PP15933  15.265  12.459   2.855  0.1863 -0.0858 -0.0877
 5830PP      PP15934  14.824  10.314   0.725 -0.2086  0.0581  0.4488
 5831PP      PP15935   7.664  11.192  12.606 -0.0770  0.0671 -0.3829
 5832PP      PP15936  13.865   6.418   3.719 -0.0096 -0.1000  0.0307
 5833PP      PP15937   1.324   2.415  10.311  0.0007  0.1418  0.0091
 5834PP      PP15938   5.665   9.302  10.227 -0.0335  0.0837 -0.0324
 5835PP      PP15939   1.801   7.656   0.468  0.0839 -0.1490  0.1669
 5836PP      PP15940   2.728   7.240  12.142 -0.0829 -0.1179  0.2597
 5837PP      PP15941  14.247   8.018  12.573 -0.0764 -0.2976  0.0724
 5838PP      PP15942  14.642  10.939   2.700 -0.0023  0.2503 -0.0600
 5839PP      PP15943   7.534   1.320  11.546  0.0984  0.1759  0.1183
 5840PP      PP15944   6.250   1.417   2.989 -0.0904 -0.0579  0.0606
 5841PP      PP15945   9.383   5.336   9.066  0.0187  0.2863  0.0400
 5842PP      PP15946  14.478   3.491  10.044 -0.1247 -0.1119 -0.0635
 5843PP      PP15947  11.920   5.372   4.811  0.1042 -0.5363 -0.2546
 5844PP      PP15948  12.175  12.539  13.623 -0.0137  0.0137  0.0226
 5845PP      PP15949   6.439   2.374  13.426  0.2240  0.0436  0.3697
 5846PP      PP15950   2.376   8.767   0.968 -0.1190  0.1576 -0.1329
 5847PP      PP15951   8.251   5.002  13.697  0.2429 -0.3953 -0.0638
 5848PP      PP15952   2.203   2.733  11.979 -0.1279  0.0052  0.4852
 5849PP      PP15953   6.114   0.216  12.909 -0.0940  0.3118 -0.0139
 5850PP      PP15954   4.932  10.943   2.854  0.0982  0.1122  0.0345
 5851PP      PP15955   8.231  10.846  11.151 -0.0108 -0.3101  0.2786
 5852PP      PP15956   1.292   1.717   0.425  0.1157 -0.0064  0.4335
 5853PP      PP15957  12.964  15.039   2.319  0.1087 -0.0344  0.1944
 5854PP      PP15958   8.233  11.377  10.888  0.2593 -0.2774  0.0308
 5855PP      PP15959   6.848  13.993   9.760 -0.2688  0.2769  0.1954
 5856PP      PP15960   0.031  14.446   9.005 -0.3061 -0.0122  0.1815
 5857PP      PP15961   5.814   4.157  10.396 -0.0798  0.0236  0.2028
 5858PP      PP15962   8.968   1.468   0.232  0.0093 -0.2752  0.0031
 5859PP      PP15963   2.786   3.916   8.639  0.1546 -0.3477  0.1680
 5860PP      PP15964   4.304  11.469  13.495  0.1246 -0.3004  0.3777
 5861PP      PP15965  14.961   2.738   9.430 -0.2003 -0.1768  0.1917
 5862PP      PP15966  10.150  13.046  10.368 -0.3700 -0.0459  0.1714
 5863PP      PP15967  15.584   0.710   2.112 -0.1103  0.0189  0.2417
 5864PP      PP15968   6.203   9.830  10.682  0.0723 -0.1464 -0.0068
 5865PP      PP15969   8.630   7.595   1.202  0.4631  0.2839  0.0754
 5866PP      PP15970   1.202  15.329   3.601  0.1574 -0.0988 -0.0044
 5867PP      PP15971   4.802   1.148  13.455 -0.1646  0.2126  0.1314
 5868PP      PP15972  14.456   9.939   0.715  0.2116 -0.0939  0.1155
 5869PP      PP15973  11.933  11.047   3.455 -0.1292 -0.0527 -0.0684
 5870PP      PP15974  12.438   9.238  11.490 -0.1675 -0.2715  0.1780
 5871PP      PP15975   5.600   4.034   3.062  0.0278 -0.0574 -0.1643
 5872PP      PP15976  13.252  12.740  10.458 -0.1612  0.0640 -0.2158
 5873PP      PP15977   0.195  13.239   9.363 -0.0783  0.2506  0.1022
 5874PP      PP15978   6.947   3.552   1.447 -0.2998 -0.0131 -0.2689
 5875PP      PP15979  14.611  11.989   0.501 -0.0053 -0.0344  0.1332
 5876PP      PP15980   9.122   1.938  12.697  0.0500  0.1318 -0.1694
 5877PP      PP15981   5.229   1.956  12.388 -0.0583 -0.1908  0.1670
 5878PP      PP15982   9.160  15.434   0.984  0.0242 -0.0569 -0.0845
 5879PP      PP15983   6.858  15.102  11.283  0.1132 -0.4390 -0.0778
 5880PP      PP15984   4.057   3.886   3.636 -0.2385  0.0080  0.0772
 5881PP      PP15985  10.720  14.171  12.521 -0.0859  0.0176 -0.0946
 5882PP      PP15986   1.461  11.890   0.462 -0.2800  0.1940 -0.1959
 5883PP      PP15987   9.965   1.185   9.986  0.2598 -0.1441 -0.5244
 5884PP      PP15988   2.553   9.840  12.290  0.0211 -0.2997 -0.1959
 5885PP      PP15989  10.950   6.763  13.238 -0.3039  0.0440 -0.3514
 5886PP      PP15990   6.733   7.300   9.523  0.2902  0.3625 -0.0934
 5887PP      PP15991   0.219   6.166  13.155  0.2484 -0.1462  0.2338
 5888PP      PP15992   8.414   6.385   1.798  0.4414 -0.1794 -0.2545
 5889PP      PP15993  13.244   1.594  10.940  0.0042  0.2224  0.1449
 5890PP      PP15994  10.637   2.860  11.359 -0.0109 -0.1325  0.1161
 5891PP      PP15995   3.094   0.753   3.970  0.1724 -0.1021  0.2097
 5892PP      PP15996  12.416   7.094   2.846  0.1127 -0.2146  0.0249
 5893PP      PP15997   7.660   3.369   0.717 -0.3917 -0.0221 -0.0044
 5894PP      PP15998   7.227   8.974  13.719 -0.2270  0.1180 -0.0705
 5895PP      PP15999   1.655   4.573  11.350  0.2106 -0.1532 -0.3348
 5896PP      PP16000  11.230   5.698  11.891  0.2238 -0.1055 -0.2155
 5897PP      PP16001  11.405   3.122  10.693 -0.1642  0.3455  0.0990
 5898PP      PP16002  10.455   8.959   3.585 -0.0783 -0.0857 -0.0406
 5899PP      PP16003  15.581   1.564   0.185 -0.1981 -0.2696 -0.0350
 5900PP      PP16004   9.233   4.812   1.151  0.0304  0.3252 -0.3350
 5901PP      PP16005   4.798  11.665   3.962  0.0600 -0.1924 -0.1950
 5902PP      PP16006  15.409   1.695   4.645 -0.1660  0.0500 -0.0360
 5903PP      PP16007  13.417   4.707   1.788  0.1751  0.0940  0.1768
 5904PP      PP16008  11.244   0.313   4.292 -0.1983  0.2262 -0.0460
 5905PP      PP16009   6.337  12.279  10.025  0.2923 -0.2612 -0.1344
 5906PP      PP16010   6.622   3.287   1.214  0.0696 -0.3153 -0.3345
 5907PP      PP16011   4.758  11.330  13.010  0.2837 -0.2869  0.1440
 5908PP      PP16012   4.433  11.061  12.656 -0.3238 -0.0405  0.2810
 5909PP      PP16013  12.696   7.988   2.985 -0.0410 -0.2534 -0.1573
 5910PP      PP16014   1.449   1.347  11.536  0.0460 -0.0647 -0.2826
 5911PP      PP16015   5.171   8.224  13.077 -0.0108 -0.0335  0.1491
 5912PP      PP16016   9.048   0.419   0.496  0.1559 -0.1009 -0.0677
 5913PP      PP16017   6.526   6.730  11.204 -0.1737  0.4008 -0.0475
 5914PP      PP16018   4.755  15.102  12.933 -0.2607  0.2331  0.1616
 5915PP      PP16019   2.889   5.052   9.389  0.0193  0.2730  0.2205
 5916PP      PP16020   7.656   9.882   1.725 -0.2147 -0.2179 -0.3913
 5917PP      PP16021   9.001  11.176   0.039  0.0797  0.1471  0.3308
 5918PP      PP16022  15.120   8.945  13.628  0.1973  0.0825  0.0707
 5919PP      PP16023   7.084   8.303  12.221 -0.0231 -0.2057 -0.1919
 5920PP      PP16024  12.853  12.278   1.148  0.1680 -0.2031  0.2255
 5921PP      PP16025   2.557   9.525   9.970  0.0256  0.1830  0.2052
 5922PP      PP16026   3.790   8.652   4.124 -0.2610  0.4118  0.0518
 5923PP      PP16027   6.681   5.958   8.444 -0.1251 -0.2874 -0.0215
 5924PP      PP16028   7.092   1.644  10.098 -0.2141 -0.4112  0.0870
 5925PP      PP16029   7.291   9.568  11.158  0.2556 -0.0256 -0.2252
 5926PP      PP16030  11.474   2.202   4.032  0.0674 -0.1731  0.2753
 5927PP      PP16031   9.114  15.509  11.387  0.1066  0.0798  0.0173
 5928PP      PP16032   3.277  15.447   0.359 -0.0317 -0.1873 -0.2162
 5929PP      PP16033   3.136  10.758   0.260  0.1968  0.2082  0.1232
 5930PP      PP16034   6.571  14.859   4.413  0.0562  0.0790  0.1059
 5931PP      PP16035  12.709  15.348   0.965  0.2869 -0.0753 -0.1614
 5932PP      PP16036   2.842  11.663  10.258 -0.2619 -0.0494 -0.3551
 5933PP      PP16037  13.793   6.290  11.945 -0.1656  0.0426 -0.0280
 5934PP      PP16038  13.783  12.883   3.246  0.0621  0.1051 -0.0684
 5935PP      PP16039   9.467   0.567   9.312  0.0240  0.1466 -0.1685
 5936PP      PP16040  15.076   0.886   8.707 -0.1279  0.2049 -0.0960
 5937PP      PP16041   5.594  10.480   2.855 -0.2461  0.0034  0.1000
 5938PP      PP16042   0.135   5.764  12.897 -0.0622 -0.1387 -0.0881
 5939PP      PP16043   3.838  10.913  12.667 -0.3335  0.1388  0.2427
 5940PP      PP16044   8.227  13.490   4.152 -0.2426 -0.0531 -0.3514
 5941PP      PP16045   6.129  10.227  13.074 -0.1083  0.0895 -0.2175
 5942PP      PP16046   7.001  13.928   3.249  0.2255  0.0255 -0.1510
 5943PP      PP16047   4.292   9.103   8.678 -0.1047 -0.1167  0.1617
 5944PP      PP16048   6.146   5.570   9.823 -0.1265  0.1939  0.0215
 5945PP      PP16049   4.054  13.938   0.575 -0.0728 -0.1403  0.0512
 5946PP      PP16050  12.166  14.449  11.232  0.0228 -0.0196  0.1025
 5947PP      PP16051   6.717  14.039   0.971  0.0927  0.1621  0.1501
 5948PP      PP16052  15.329   6.181   4.206 -0.1270  0.4986 -0.3054
 5949PP      PP16053  10.624  12.868  11.961 -0.2432 -0.1763 -0.0216
 5950PP      PP16054  11.607   4.889  13.398 -0.0423 -0.1713 -0.2013
 5951PP      PP16055   4.908  11.636  12.650 -0.0598  0.2037  0.0702
 5952PP      PP16056   1.146   4.778  12.514  0.3320  0.0327 -0.0022
 5953PP      PP16057   7.154  12.531   3.243 -0.3516  0.2660 -0.1578
 5954PP      PP16058   8.635   3.483  13.414 -0.0941 -0.0670 -0.0073
 5955PP      PP16059   6.239   7.596   0.215  0.0915 -0.2601 -0.0537
 5956PP      PP16060   2.825  10.750  10.881  0.2965 -0.1595  0.0599
 5957PP      PP16061   9.925   2.534   9.145 -0.0059 -0.2730  0.0332
 5958PP      PP16062  10.887  12.325   9.651 -0.0847  0.1929  0.1171
 5959PP      PP16063   4.880  12.748  10.800  0.3222  0.0798  0.1525
 5960PP      PP16064   5.749   8.702  12.997 -0.1611  0.1224  0.1990
 5961PP      PP16065   3.571   6.277   9.055 -0.3743  0.0271 -0.0065
 5962PP      PP16066   4.172  14.213   1.818 -0.2344  0.0014 -0.2213
 5963PP      PP16067  11.050  15.650  13.646 -0.1408 -0.1394  0.0960
 5964PP      PP16068  14.103   7.695  11.956  0.4517  0.2197 -0.0771
 5965PP      PP16069   7.599  11.636   1.600  0.2918  0.1590 -0.1171
 5966PP      PP16070   9.855  10.565  12.496  0.0990 -0.0136  0.0465
 5967PP      PP16071   0.836  13.536  12.089 -0.2430 -0.1213 -0.0014
 5968PP      PP16072   9.385   6.874  11.259 -0.1155  0.0994  0.2077
 5969PP      PP16073   0.473   7.803  13.019  0.0556  0.1877  0.0354
 5970PP      PP16074  15.176  12.471   9.873  0.0239 -0.1126 -0.0212
 5971PP      PP16075   9.735   7.482   4.183  0.3854  0.2986  0.0076
 5972PP      PP16076  11.748   8.519   4.102 -0.0623  0.1490  0.2842
 5973PP      PP16077   7.711  11.585   5.610  0.1921 -0.2785  0.0333
 5974PP      PP16078  13.883   1.083   9.662 -0.0689  0.0563  0.1064
 5975PP      PP16079   0.215  11.765   1.840  0.2004  0.0095  0.5492
 5976PP      PP16080   7.453  14.509  12.617 -0.0443  0.2010  0.0739
 5977PP      PP16081   9.091  12.409   0.800 -0.3251  0.0513  0.0266
 5978PP      PP16082   9.764   5.453   0.018  0.3278  0.3505  0.1597
 5979PP      PP16083   6.295  14.207   0.175  0.1720 -0.2563  0.0892
 5980PP      PP16084  12.424  14.639  13.206 -0.3330 -0.3490  0.3254
 5981PP      PP16085   0.930   2.459   8.619  0.1299 -0.0962  0.1317
 5982PP      PP16086   4.258   6.395   2.164 -0.1165 -0.0528  0.1598
 5983PP      PP16087   1.909   3.018   2.838 -0.0756 -0.1449 -0.0295
 5984PP      PP16088  15.073  13.019   2.684 -0.1382  0.0298 -0.0211
 5985PP      PP16089   5.481  10.899  12.525  0.0415  0.0942  0.0996
 5986PP      PP16090   4.552   8.827  13.364  0.0148 -0.1752 -0.2029
 5987PP      PP16091   1.207  15.041  11.699 -0.0999  0.2405  0.0848
 5988PP      PP16092  15.133   9.377   0.320 -0.2452 -0.1649  0.2151
 5989PP      PP16093   8.895   2.401  10.764 -0.2600 -0.0802  0.0049
 5990PP      PP16094  12.037  11.390  12.911  0.2665  0.1130 -0.1997
 5991PP      PP16095   8.196  11.780   0.440  0.0157 -0.2856 -0.0927
 5992PP      PP16096   7.224   8.914  11.461 -0.0030  0.3510 -0.2963
 5993PP      PP16097  10.793   8.866   0.859  0.0991 -0.0748 -0.1612
 5994PP      PP16098  14.249   7.862  13.504 -0.1667 -0.1797 -0.2467
 5995PP      PP16099  15.642  14.413   0.249  0.1570  0.0217 -0.1479
 5996PP      PP16100   7.847   5.511   0.815 -0.0984 -0.0324 -0.1673
 5997PP      PP16101   4.302   0.481   8.312 -0.1863  0.0334  0.0560
 5998PP      PP16102   7.457  10.882   4.816  0.0423 -0.0642  0.1459
 5999PP      PP16103  12.834  10.410   0.354 -0.0860 -0.0832  0.1194
 6000PP      PP16104  13.657   5.856   0.908  0.0358 -0.3117 -0.0393
 6001PP      PP16105  15.130   4.152   0.316 -0.0415  0.1520  0.1286
 6002PP      PP16106   9.042   1.568  11.171  0.0455  0.0140  0.0038
 6003PP      PP16107  14.806  10.803  13.433 -0.3477 -0.1917 -0.0338
 6004PP      PP16108  12.005  12.104  12.764 -0.0357 -0.1659 -0.0068
 6005PP      PP16109   0.162   7.280   9.048 -0.0223  0.0172 -0.3221
 6006PP      PP16110   6.294   8.093   1.994 -0.0622  0.0753  0.1352
 6007PP      PP16111   6.709   1.500   2.495  0.1875  0.2494 -0.0847
 6008PP      PP16112   3.170   8.965   1.518 -0.3229  0.2924 -0.0965
 6009PP      PP16113   2.487   1.063   1.418 -0.1950 -0.2505  0.0527
 6010PP      PP16114   1.086   3.655  11.220  0.1930 -0.2197 -0.0972
 6011PP      PP16115  12.267   4.190   0.947  0.2908 -0.0693  0.1180
 6012PP      PP16116   3.955   4.630  11.955 -0.0726  0.1522 -0.1383
 6013PP      PP16117   3.724   7.165   8.848 -0.5298 -0.3994  0.2002
 6014PP      PP16118   5.363  15.255  11.627  0.0539 -0.1752  0.1898
 6015PP      PP16119  13.647  14.803  13.036 -0.2189  0.0093  0.1099
 6016PP      PP16120   1.986   3.648  12.144 -0.1159  0.0784  0.1719
 6017PP      PP16121  10.407   4.980   0.595 -0.1782 -0.1796 -0.0012
 6018PP      PP16122  11.009   2.732  12.463  0.0985  0.0385  0.0262
 6019PP      PP16123   2.684   3.404  12.876 -0.1918 -0.0869 -0.4511
 6020PP      PP16124   9.302  12.712  10.249  0.1254  0.1000  0.1377
 6021PP      PP16125   4.343   0.132  11.221  0.1245  0.5263 -0.2336
 6022PP      PP16126  12.505  12.316   0.764 -0.2383 -0.1271 -0.1845
 6023PP      PP16127   3.923   4.215   9.116  0.2356  0.0062  0.1140
 6024PP      PP16128  14.178   9.928   3.363 -0.1294 -0.2544 -0.0312
 6025PP      PP16129   0.923  11.273   3.142 -0.0239 -0.1186 -0.0450
 6026PP      PP16130   1.579  15.104   9.820  0.0470 -0.1805  0.0165
 6027PP      PP16131  13.045   5.957  13.701  0.1454 -0.0148  0.0581
 6028PP      PP16132   9.948  11.419  10.966  0.0188 -0.0898  0.0209
 6029PP      PP16133  14.073  12.589  12.911 -0.0808 -0.0626  0.0973
 6030PP      PP16134  15.598  14.293   1.327  0.1143  0.0394 -0.0557
 6031PP      PP16135  13.901  15.680  13.175 -0.1009  0.0233  0.2313
 6032PP      PP16136   0.841  13.652   1.051  0.1255 -0.1074  0.3449
 6033PP      PP16137  13.942   4.099   2.506  0.0307  0.0638  0.4350
 6034PP      PP16138   4.556   4.692  11.980 -0.2608 -0.2099 -0.1690
 6035PP      PP16139   7.734  13.807   1.967  0.1245  0.2172  0.6207
 6036PP      PP16140   3.353  14.344   4.206 -0.0054 -0.2491  0.3035
 6037PP      PP16141   2.144   0.660   2.356 -0.0211 -0.0906  0.2453
 6038PP      PP16142  10.927   3.040   3.067  0.0412  0.3017 -0.4265
 6039PP      PP16143   3.478  15.656   1.247  0.1534 -0.0699  0.2506
 6040PP      PP16144  10.952   3.549  10.309 -0.3548  0.1210 -0.0188
 6041PP      PP16145   6.261   2.432   8.365  0.0568 -0.3023  0.2973
 6042PP      PP16146  14.909   5.154  13.402  0.1529 -0.0264 -0.0004
 6043PP      PP16147   7.334  14.674  12.090 -0.4818 -0.0106  0.1226
 6044PP      PP16148  11.181  15.092   2.343  0.1571  0.1976 -0.1359
 6045PP      PP16149   2.678   8.198   9.695 -0.1245 -0.0942 -0.3454
 6046PP      PP16150   3.437   6.046  11.667 -0.0644  0.2509  0.0437
 6047PP      PP16151   4.044   8.907  12.751 -0.1789 -0.0738 -0.0544
 6048PP      PP16152   7.086   4.507  10.794  0.0885 -0.0896 -0.2631
 6049PP      PP16153  10.850  11.390  11.737  0.1940 -0.0731  0.0901
 6050PP      PP16154  14.855   2.960  12.966 -0.0720  0.2290  0.0794
 6051PP      PP16155   2.784   4.061   1.801  0.0030 -0.1887 -0.1514
 6052PP      PP16156   7.142   5.944  11.090  0.0600 -0.1923  0.0005
 6053PP      PP16157   9.292  10.146   0.432 -0.2369 -0.0737 -0.0135
 6054PP      PP16158   1.279  10.194   0.183 -0.2061  0.0811  0.0884
 6055PP      PP16159  14.827   4.291  12.750  0.0258  0.0890 -0.0009
 6056PP      PP16160  10.597  15.183  10.487 -0.1715  0.1673  0.2012
 6057PP      PP16161   0.110   5.139  11.772  0.0507 -0.1957  0.0198
 6058PP      PP16162   0.895   3.134   0.185 -0.1809  0.2400 -0.1345
 6059PP      PP16163   2.484  13.036   9.491  0.0381  0.0261  0.0040
 6060PP      PP16164  14.996   8.779   4.675 -0.4909  0.0010  0.1852
 6061PP      PP16165   2.070  10.576   2.055 -0.2753 -0.3971 -0.1860
 6062PP      PP16166   2.494  15.051   9.954  0.3219  0.0132 -0.0692
 6063PP      PP16167   1.093   7.390  11.858 -0.1471  0.0828  0.1599
 6064PP      PP16168   0.710   2.821   0.973  0.2511 -0.1268  0.1399
 6065PP      PP16169   0.869   2.831  12.418 -0.1581  0.1736  0.0691
 6066PP      PP16170   0.286   3.714  10.550 -0.0182  0.3529  0.3151
 6067PP      PP16171   6.944   7.349  11.754  0.4136  0.1078  0.0782
 6068PP      PP16172   0.213   8.002   0.062  0.4479 -0.0393 -0.1234
 6069PP      PP16173   1.201   4.411  11.616 -0.0496 -0.1665 -0.0396
 6070PP      PP16174   6.453  14.405   4.168 -0.0061  0.2659  0.3113
 6071PP      PP16175  14.553  14.094   2.510  0.0177  0.1738  0.1699
 6072PP      PP16176   5.118   9.141   1.006  0.1989 -0.1853  0.2291
 6073PP      PP16177  12.182   7.186   0.888  0.1692 -0.1869 -0.1749
 6074PP      PP16178   1.124   9.534   2.309 -0.1309 -0.0279 -0.0072
 6075PP      PP16179   0.152   3.151   9.244 -0.1887 -0.1060 -0.1112
 6076PP      PP16180   3.073  12.936   4.646 -0.0159 -0.0373 -0.0405
 6077PP      PP16181   4.236   7.628   0.984  0.0338 -0.0223  0.0691
 6078PP      PP16182   5.745  11.587  13.240  0.3609  0.2139 -0.2494
 6079PP      PP16183   5.982   5.508   3.567 -0.0706 -0.2468  0.2377
 6080PP      PP16184  11.325   3.281   2.068 -0.0258  0.2844 -0.1457
 6081PP      PP16185  12.318   9.157  13.415  0.1562  0.3706  0.0322
 6082PP      PP16186  11.294  13.339  11.099  0.0553 -0.0058 -0.1332
 6083PP      PP16187   4.024   2.151   8.131 -0.1307  0.0607  0.1514
 6084PP      PP16188  12.967  11.279   2.360 -0.0675 -0.1317 -0.1114
 6085PP      PP16189  11.083  10.764   3.495  0.0321 -0.1520  0.0887
 6086PP      PP16190  12.233  14.150   2.753 -0.0613 -0.0859  0.0090
 6087PP      PP16191  10.140   1.596   9.577 -0.0852  0.4730 -0.4005
 6088PP      PP16192  14.965   9.713  13.517 -0.0180 -0.0822  0.1707
 6089PP      PP16193  12.076   3.897  13.639 -0.0673 -0.0579  0.2472
 6090PP      PP16194   0.737   8.491   0.812 -0.3468 -0.1475 -0.0780
 6091PP      PP16195   1.860   5.627   9.624  0.2997 -0.0442 -0.0379
 6092PP      PP16196  11.740   4.423  11.157 -0.0562 -0.1355 -0.0722
 6093PP      PP16197   4.337   6.312  11.610  0.2324  0.0264 -0.0824
 6094PP      PP16198   9.050  14.601  10.265 -0.2817 -0.2717 -0.2147
 6095PP      PP16199   2.536  11.526   0.376 -0.2648  0.1560 -0.2481
 6096PP      PP16200   1.632  11.083  12.528  0.0290 -0.4273 -0.3229
 6097PP      PP16201   7.764   1.361  10.782  0.0907 -0.0740  0.0807
 6098PP      PP16202   1.108   3.778   8.531  0.0491 -0.3661 -0.5477
 6099PP      PP16203   2.121   5.888   2.211 -0.0539 -0.0976 -0.0940
 6100PP      PP16204  11.849   9.088   2.496 -0.0428 -0.1242  0.0944
 6101PP      PP16205   7.124  13.101   2.913  0.0315 -0.0475 -0.1443
 6102PP      PP16206   8.472   9.917   0.008  0.2940  0.1173 -0.2432
 6103PP      PP16207   9.341  13.561  10.408  0.4231  0.0813  0.1662
 6104PP      PP16208  10.519   7.103   0.308 -0.2620  0.1464  0.2218
 6105PP      PP16209  11.927   7.064   3.934 -0.2383  0.0093  0.2262
 6106PP      PP16210   4.033   3.905   8.651 -0.0879  0.0621 -0.1510
 6107PP      PP16211  13.279  12.079   0.062 -0.0051 -0.0647 -0.2710
 6108PP      PP16212   1.946  12.299   0.391 -0.0590  0.2555  0.0266
 6109PP      PP16213   5.165   5.259   9.692  0.2362  0.0378  0.1522
 6110PP      PP16214   0.803   0.567   0.359 -0.3306  0.1325 -0.2308
 6111PP      PP16215   4.635   2.489   2.484 -0.0681  0.0698  0.0343
 6112PP      PP16216  14.961   0.198  10.511  0.1391 -0.1919 -0.1691
 6113PP      PP16217   5.567   1.219   3.582  0.3727  0.3047 -0.1093
 6114PP      PP16218   8.487   6.297   4.021 -0.0037  0.6299 -0.0123
 6115PP      PP16219   5.551   5.603  10.236  0.1180  0.0380  0.0212
 6116PP      PP16220   0.332  10.408   1.251  0.0724  0.1513  0.3939
 6117PP      PP16221   3.724  15.574  11.405 -0.3257  0.0927  0.2306
 6118PP      PP16222  13.288   8.781  11.718  0.0564 -0.0480 -0.0933
 6119PP      PP16223   2.571  14.719  11.388  0.0485  0.1886 -0.0149
 6120PP      PP16224  11.237   9.962  11.035 -0.3262  0.1386  0.0984
 6121PP      PP16225   3.780   6.709  12.738 -0.0427  0.1288 -0.0012
 6122PP      PP16226   6.791  12.767  12.998 -0.0897  0.0342  0.0235
 6123PP      PP16227   5.576   1.705  13.461  0.2444 -0.4123 -0.0173
 6124PP      PP16228   6.856   0.849   9.093 -0.2231 -0.0283  0.0543
 6125PP      PP16229  12.252   2.285   2.092  0.1271 -0.0493  0.2013
 6126PP      PP16230  13.848  15.632   1.129 -0.1181  0.0236  0.1197
 6127PP      PP16231   6.076   9.755   0.724 -0.0459  0.1808  0.4233
 6128PP      PP16232   0.805   0.086  11.290  0.2331 -0.0920  0.0601
 6129PP      PP16233  15.539   5.695   4.380  0.1538 -0.1897 -0.0418
 6130PP      PP16234   1.930   7.783  12.285  0.0347  0.1282 -0.0889
 6131PP      PP16235  10.105   4.506   1.252 -0.0094  0.1776 -0.0585
 6132PP      PP16236  12.240   9.588   9.362 -0.0167 -0.0645 -0.0390
 6133PP      PP16237   1.623  11.583   3.815  0.0093 -0.0165 -0.0042
 6134PP      PP16238   4.576  13.035   2.618  0.2899  0.0919  0.3548
 6135PP      PP16239   0.408   3.598  13.467  0.0827 -0.0932  0.2155
 6136PP      PP16240   5.525   7.956  13.381 -0.1144  0.1015  0.1320
 6137PP      PP16241  10.964  12.943   2.221 -0.1553  0.0901  0.1803
 6138PP      PP16242   8.781   0.346   1.717  0.1162  0.0592  0.0371
 6139PP      PP16243  15.717  14.021   3.341 -0.3018 -0.1749  0.1825
 6140PP      PP16244   9.200  13.088  11.693 -0.1563  0.1676  0.0829
 6141PP      PP16245  12.753   4.445   9.923  0.3083  0.1380 -0.3556
 6142PP      PP16246   3.053   5.180  12.330  0.0968 -0.0861 -0.0437
 6143PP      PP16247   3.102  13.372  10.761  0.1095  0.2274 -0.1809
 6144PP      PP16248  10.061   4.625  10.263  0.0376 -0.1880  0.3238
 6145PP      PP16249  12.377   7.773   4.419 -0.0531  0.3554 -0.0930
 6146PP      PP16250   5.571  14.066   1.826  0.1317 -0.2064  0.4042
 6147PP      PP16251  13.502   9.758  12.869  0.1855 -0.3244 -0.2044
 6148PP      PP16252   1.049  14.060  11.966  0.1762  0.0043  0.2520
 6149PP      PP16253   1.545   4.383   3.387  0.2301  0.1140  0.0994
 6150PP      PP16254  15.363  12.937  12.510 -0.1168  0.1038 -0.0914
 6151PP      PP16255   6.113   6.818   1.450 -0.4486 -0.1003  0.1209
 6152PP      PP16256   4.070   4.909  10.358 -0.3480 -0.2252  0.4104
 6153PP      PP16257  10.681  10.883  12.675 -0.3844  0.0167  0.1294
 6154PP      PP16258   6.492  11.508   4.578  0.1651 -0.0918  0.1308
 6155PP      PP16259   4.200   2.641  12.465 -0.1697  0.1430  0.2389
 6156PP      PP16260  12.167   0.164   2.966 -0.0873 -0.1308 -0.1107
 6157PP      PP16261  10.957  13.825   0.334  0.0575  0.0876  0.0340
 6158PP      PP16262   2.788   8.679   2.751 -0.1250 -0.2713 -0.3822
 6159PP      PP16263  13.407  11.974   1.558  0.1715 -0.2671  0.5818
 6160PP      PP16264  11.197   1.671   2.197 -0.1748  0.0575  0.3111
 6161PP      PP16265  10.373   7.499   3.133  0.0826  0.0564 -0.0678
 6162PP      PP16266  11.555  13.143  13.768  0.0302 -0.1046  0.2043
 6163PP      PP16267   0.057  10.574   0.825  0.0104  0.3254  0.1699
 6164PP      PP16268   7.655  13.974   3.768  0.4163  0.0665 -0.2531
 6165PP      PP16269   0.464   3.658   8.974  0.0365  0.0014 -0.2577
 6166PP      PP16270  14.384  12.497   4.578 -0.1550 -0.1994  0.2514
 6167PP      PP16271   8.438   1.879   2.405 -0.2241  0.4867  0.2787
 6168PP      PP16272   4.495   7.480   2.990  0.0842  0.0053 -0.0432
 6169PP      PP16273   1.467   6.539  12.119  0.1417  0.2791 -0.1361
 6170PP      PP16274  11.464  10.502   2.003  0.3354  0.2028  0.2378
 6171PP      PP16275  10.908   9.956   2.760 -0.0542  0.2816 -0.3246
 6172PP      PP16276   0.957   8.767  12.198  0.0784 -0.0729 -0.2393
 6173PP      PP16277   6.881  13.687  11.108 -0.0891  0.5575 -0.0399
 6174PP      PP16278  13.871   3.691   1.177 -0.1447 -0.0412  0.2836
 6175PP      PP16279   3.090   5.450   2.690  0.2887 -0.1633 -0.0990
 6176PP      PP16280   6.885   3.760   7.878  0.2562 -0.0175 -0.3481
 6177PP      PP16281   8.897  13.532  13.036 -0.1363 -0.0977  0.2214
 6178PP      PP16282   1.161  12.661  12.221  0.0452  0.1262  0.2538
 6179PP      PP16283  13.508   5.977  10.757  0.1986  0.0827 -0.2354
 6180PP      PP16284   8.317   7.967   9.507  0.2416 -0.3871 -0.0530
 6181PP      PP16285  12.711   8.767   1.128 -0.1024 -0.1168  0.0657
 6182PP      PP16286   9.449   9.299   3.469  0.0146  0.0750  0.0671
 6183PP      PP16287  14.775   1.962   3.223  0.0213 -0.0331  0.0303
 6184PP      PP16288   6.736  10.500   9.551  0.0655  0.0030  0.1113
 6185PP      PP16289  14.845  12.271  11.659 -0.0390 -0.0651  0.0434
 6186PP      PP16290  15.332   9.723  13.145  0.1651 -0.1547 -0.1365
 6187PP      PP16291   8.840  15.337   9.711 -0.0993 -0.0153 -0.1548
 6188PP      PP16292  11.388   4.119   0.361  0.0533 -0.4013 -0.0394
 6189PP      PP16293   6.390   8.938   2.898 -0.0588 -0.1226  0.0785
 6190PP      PP16294  12.315  12.957   9.316 -0.1122 -0.1192  0.3227
 6191PP      PP16295   0.555   6.248   2.448  0.0933  0.2655 -0.2015
 6192PP      PP16296   4.776   4.270   3.855 -0.2739 -0.2356 -0.3269
 6193PP      PP16297  15.243   4.094  10.872 -0.0438  0.2607  0.1826
 6194PP      PP16298   2.682   9.987   4.578  0.0382  0.0283 -0.5575
 6195PP      PP16299   2.069   5.782  11.069  0.0741  0.1160 -0.2900
 6196PP      PP16300  10.939   7.524   0.209 -0.0451  0.0609 -0.0033
 6197PP      PP16301   3.785   3.545   2.807 -0.0072 -0.0916 -0.0755
 6198PP      PP16302  12.575  11.159   9.648  0.1535 -0.1530  0.1472
 6199PP      PP16303  10.198   5.714   1.412 -0.1889  0.1638 -0.2410
 6200PP      PP16304  14.462   6.547   3.724  0.0442 -0.3587  0.2497
 6201PP      PP16305  10.688   5.637   1.239 -0.1714  0.2290 -0.1639
 6202PP      PP16306   5.732   1.745   2.112  0.2303 -0.3579 -0.1249
 6203PP      PP16307  15.170  14.399   0.085  0.2840 -0.1153 -0.1528
 6204PP      PP16308  10.108   5.374  11.455 -0.0011  0.0857 -0.1504
 6205PP      PP16309  11.453  10.624   0.293 -0.0471 -0.1578  0.1008
 6206PP      PP16310   8.223   3.124   9.777 -0.1849 -0.1446  0.0390
 6207PP      PP16311   1.087  15.620   2.438  0.0173 -0.3328  0.1745
 6208PP      PP16312   7.010   2.254  11.278  0.1677 -0.0448  0.2114
 6209PP      PP16313   9.787   6.121   2.848 -0.0887 -0.1027 -0.0730
 6210PP      PP16314  10.980   8.583  11.166  0.0308 -0.1848  0.0017
 6211PP      PP16315   4.951   8.382  11.871 -0.0798  0.3097 -0.2173
 6212PP      PP16316   6.349  10.794   9.745  0.0972 -0.1164  0.0115
 6213PP      PP16317   1.740   3.391   4.087  0.0519  0.1393 -0.0057
 6214PP      PP16318   6.348   6.915   9.429 -0.2768 -0.3282 -0.0709
 6215PP      PP16319   8.110  15.332   1.120 -0.2141  0.1066 -0.1136
 6216PP      PP16320   2.851   4.730  13.150 -0.1774 -0.1758  0.2466
 6217PP      PP16321   2.169  11.134  12.701  0.1547  0.0868  0.1708
 6218PP      PP16322   0.734   8.966   9.490 -0.1460  0.0094 -0.0423
 6219PP      PP16323  12.216   9.967  11.975  0.1017 -0.0185  0.2669
 6220PP      PP16324  10.796   4.378   3.897 -0.0999 -0.1604 -0.1449
 6221PP      PP16325   5.263   3.520   2.243  0.0191 -0.0756 -0.3173
 6222PP      PP16326   2.679   3.234   9.524 -0.0907 -0.1096  0.0146
 6223PP      PP16327   1.069   4.765  11.972 -0.1801 -0.1215  0.1993
 6224PP      PP16328  14.155   3.336   9.715 -0.0794  0.0792 -0.0146
 6225PP      PP16329   3.297  15.116   2.403 -0.0868 -0.1414  0.0782
 6226PP      PP16330  15.453   3.513  11.939 -0.2088 -0.3245 -0.0998
 6227PP      PP16331  11.583   5.178  11.709 -0.0028 -0.0635  0.1080
 6228PP      PP16332   1.902   6.528   1.228  0.0962  0.3312 -0.0455
 6229PP      PP16333   8.102  12.590   3.552  0.1218 -0.0651 -0.0333
 6230PP      PP16334  14.801  10.128   3.982  0.0039  0.3230  0.1371
 6231PP      PP16335   4.685   6.133   9.759 -0.0994 -0.1057  0.0035
 6232PP      PP16336   3.868   9.748   9.775  0.3310 -0.1261  0.1849
 6233PP      PP16337   9.833  12.555  13.610  0.0519  0.0266  0.1714
 6234PP      PP16338   8.271  14.593  12.180  0.0152  0.0243  0.4862
 6235PP      PP16339   4.415  11.114   2.993 -0.2489  0.0922  0.1091
 6236PP      PP16340   1.823  10.035  13.136  0.0832 -0.1752  0.0747
 6237PP      PP16341   8.312  12.961   1.931  0.0753 -0.0544 -0.0660
 6238PP      PP16342   3.155   3.828   1.508  0.1402  0.1988 -0.0542
 6239PP      PP16343  12.928   8.396  11.563 -0.1343  0.1231  0.0326
 6240PP      PP16344   7.898   1.954  13.596  0.1211  0.0096  0.1042
 6241PP      PP16345  14.136   5.053   4.205 -0.1494 -0.1879 -0.1969
 6242PP      PP16346  10.804   9.772  11.671 -0.0333  0.0762  0.3615
 6243PP      PP16347  10.342   8.716   4.120 -0.1215  0.0322  0.1802
 6244PP      PP16348   9.229   4.131   9.963  0.3790 -0.2703 -0.1563
 6245PP      PP16349  15.617   5.445  12.127  0.3310 -0.1608 -0.1501
 6246PP      PP16350  11.475  14.675  13.717 -0.4955  0.0961 -0.1648
 6247PP      PP16351  11.620   7.692   2.535  0.1824 -0.0084  0.0368
 6248PP      PP16352   3.378  14.515   1.458  0.3270  0.0248 -0.3723
 6249PP      PP16353   0.884  14.887   9.747 -0.0064 -0.1997  0.1352
 6250PP      PP16354   8.496   4.252   1.021  0.0377 -0.1639 -0.0617
 6251PP      PP16355  13.320  10.435  11.123  0.2832 -0.0627  0.0082
 6252PP      PP16356   7.360   7.930  12.281 -0.2763  0.1674  0.0940
 6253PP      PP16357   7.809  14.443   3.993 -0.0465  0.1941  0.0254
 6254PP      PP16358   0.222   4.120  13.359  0.3467 -0.0108  0.0626
 6255PP      PP16359   2.842   1.888   0.999 -0.0298  0.0146  0.2881
 6256PP      PP16360  11.853   7.475  12.633  0.3306  0.0299  0.1491
 6257PP      PP16361  10.700  14.064   1.802 -0.1927  0.2780  0.4106
 6258PP      PP16362   2.747  12.687  11.700  0.1089 -0.1954  0.0778
 6259PP      PP16363   2.153  14.711  11.749 -0.1249  0.2341  0.2195
 6260PP      PP16364   8.552  10.329   9.863 -0.2198 -0.1957 -0.2037
 6261PP      PP16365   6.199   0.623   2.538 -0.0737 -0.1277 -0.0357
 6262PP      PP16366   8.273   2.424   7.372 -0.0286 -0.2764  0.0448
 6263PP      PP16367  11.642   2.362   3.607 -0.0482  0.2968 -0.0319
 6264PP      PP16368  15.140   3.834  13.037  0.1721 -0.1751  0.1789
 6265PP      PP16369  10.320   4.477  12.501 -0.0936  0.0398  0.0536
 6266PP      PP16370  14.511   4.615   9.439  0.1085 -0.3839  0.0594
 6267PP      PP16371   5.793  10.642   2.155 -0.0119  0.0493 -0.0347
 6268PP      PP16372  10.044  10.988   1.742  0.1353  0.2106  0.0704
 6269PP      PP16373   0.389   6.560   9.933 -0.0691 -0.0075 -0.3387
 6270PP      PP16374   1.045   4.099  12.901  0.2336  0.5284 -0.2497
 6271PP      PP16375   7.218  15.066  13.192  0.0715  0.0513 -0.2693
 6272PP      PP16376  10.593  11.987   0.223 -0.2645  0.1563  0.2150
 6273PP      PP16377   0.088   0.152   2.201 -0.1090 -0.3036 -0.0580
 6274PP      PP16378   6.032   4.837  11.534  0.0622 -0.2975 -0.0625
 6275PP      PP16379   3.996  11.389   0.187 -0.2374 -0.3155 -0.0779
 6276PP      PP16380  14.258   5.566  12.758 -0.0209 -0.2843 -0.1453
 6277PP      PP16381   1.720   0.857  10.713 -0.2239  0.2636  0.6587
 6278PP      PP16382   9.603   3.183   2.838 -0.0692 -0.1704 -0.2794
 6279PP      PP16383   0.435   2.941  12.665  0.0142  0.1317  0.1078
 6280PP      PP16384   2.019   2.091   9.868  0.0376  0.0827 -0.3336
 6281PP      PP16385   4.528  12.997  10.398  0.3097 -0.1428 -0.1203
 6282PP      PP16386   7.318   6.145  10.440 -0.6301 -0.1864  0.2406
 6283PP      PP16387   5.447  11.281   4.045  0.0607  0.0664  0.2360
 6284PP      PP16388  11.981  11.535   3.868  0.1340 -0.0136  0.3730
 6285PP      PP16389  12.418   8.004   1.005  0.2623  0.0417  0.3346
 6286PP      PP16390   4.813   0.855   9.800  0.0987 -0.0604  0.0783
 6287PP      PP16391  14.000  12.835   4.313  0.2066 -0.1634  0.3232
 6288PP      PP16392  11.486   3.395   3.223 -0.3254  0.1058 -0.3547
 6289PP      PP16393   6.875  15.600  10.403 -0.0190  0.0876 -0.3055
 6290PP      PP16394   2.894   2.888  12.498  0.1992  0.3151  0.1426
 6291PP      PP16395   9.387  12.393  11.216  0.1580  0.0511 -0.0817
 6292PP      PP16396   9.025   2.930   2.573  0.0579 -0.2342  0.1708
 6293PP      PP16397  12.451  10.387  12.969 -0.2372 -0.2741 -0.0249
 6294PP      PP16398   7.133   3.112   8.415  0.2085 -0.0673  0.3256
 6295PP      PP16399  13.655  11.521   1.439 -0.0039  0.0756  0.0158
 6296PP      PP16400  10.451   0.088   3.181  0.0159 -0.0179  0.0515
 6297PP      PP16401   4.909  12.306   0.646  0.4556 -0.1047 -0.1066
 6298PP      PP16402   7.259  12.642  13.343  0.0894  0.0714 -0.3430
 6299PP      PP16403   3.220   8.075   4.255 -0.1641 -0.2968 -0.1853
 6300PP      PP16404   2.159  11.067   9.126 -0.1796  0.2828  0.1455
 6301PP      PP16405   1.278   2.014   3.527  0.1765  0.2396  0.0951
 6302PP      PP16406  14.556   2.659   1.230  0.1950  0.0178  0.0822
 6303PP      PP16407   0.186   7.298  13.770 -0.4627 -0.0508 -0.0546
 6304PP      PP16408   2.503   6.366  10.353  0.0161 -0.0354 -0.0918
 6305PP      PP16409   0.796   3.960   0.022 -0.0493 -0.1348 -0.0858
 6306PP      PP16410   6.639   0.756   8.269 -0.0910 -0.2342 -0.0369
 6307PP      PP16411  14.645  11.450   4.065 -0.2451 -0.0467  0.1913
 6308PP      PP16412   8.444  10.353   2.029  0.1291 -0.1221  0.1663
 6309PP      PP16413  13.377   7.040  10.868 -0.1506  0.1627 -0.3890
 6310PP      PP16414   4.315  13.546   9.649  0.3730  0.2013  0.2105
 6311PP      PP16415  15.249  12.383   1.759 -0.0364  0.0679 -0.1548
 6312PP      PP16416   2.887   1.983   0.508 -0.2943 -0.2315 -0.2388
 6313PP      PP16417   6.923   8.922   9.656  0.0155 -0.0566  0.1167
 6314PP      PP16418   4.524   9.405   9.301  0.3348 -0.0985 -0.0162
 6315PP      PP16419  10.058   0.583   1.843 -0.1248 -0.1607  0.1617
 6316PP      PP16420   6.313   1.846   2.219 -0.1248  0.1498 -0.0733
 6317PP      PP16421   2.668   0.695  12.635  0.1154  0.0410 -0.0232
 6318PP      PP16422   6.266  13.163  11.779 -0.0291  0.4395  0.0058
 6319PP      PP16423  12.755   2.027  10.158  0.0955 -0.4063 -0.1223
 6320PP      PP16424   5.738   1.175  13.559 -0.3023  0.2275 -0.1572
 6321PP      PP16425   2.862  14.606  13.174 -0.1980 -0.1235  0.1110
 6322PP      PP16426  15.218   3.369   3.630  0.0431 -0.0491  0.3485
 6323PP      PP16427   6.317  11.902   3.819 -0.2199 -0.0163  0.1852
 6324PP      PP16428   7.533   6.954  13.479 -0.3283 -0.0090 -0.2433
 6325PP      PP16429  14.504   7.567   2.925  0.0049 -0.3810 -0.3098
 6326PP      PP16430  11.294  14.569   4.295  0.2731  0.1378 -0.1612
 6327PP      PP16431   3.774   7.256   3.030 -0.1052 -0.0841  0.4800
 6328PP      PP16432  10.003  14.166  11.282 -0.0771  0.0427  0.2498
 6329PP      PP16433   9.962   7.168  10.288 -0.0040  0.2252 -0.0211
 6330PP      PP16434   6.106   5.573  10.349 -0.0932  0.0017  0.3436
 6331PP      PP16435   7.700  11.117  10.360 -0.0112  0.0613 -0.0594
 6332PP      PP16436   7.387  14.149   2.160  0.0113 -0.3573 -0.0649
 6333PP      PP16437  10.767   3.002  13.443  0.1020  0.3183 -0.0589
 6334PP      PP16438   1.920  12.953  11.549 -0.0225  0.1852 -0.2897
 6335PP      PP16439  15.706   8.875   3.946  0.3345  0.2973  0.0001
 6336PP      PP16440  10.957  11.290  13.546 -0.1134  0.3128 -0.2371
 6337PP      PP16441  15.151   8.423   2.061  0.0032 -0.2077  0.1860
 6338PP      PP16442  11.402  12.098   1.837  0.1103 -0.2026 -0.1859
 6339PP      PP16443  10.063   1.229   1.764  0.0194 -0.1050 -0.1035
 6340PP      PP16444   5.632  13.090   4.690  0.1196 -0.2542  0.1247
 6341PP      PP16445   9.726  11.063  11.441 -0.0169 -0.0038  0.1345
 6342PP      PP16446   1.222  10.255   3.880  0.0434  0.3283  0.0090
 6343PP      PP16447  12.893   3.295  10.695 -0.0173  0.0100 -0.2842
 6344PP      PP16448   3.204   0.285  12.950  0.0198 -0.1152 -0.0322
 6345PP      PP16449   1.173   6.727   9.340  0.2143 -0.0239 -0.0438
 6346PP      PP16450   5.882   6.906   8.664 -0.2623 -0.4062 -0.0308
 6347PP      PP16451  12.467  14.984   0.603  0.1809 -0.0744 -0.4584
 6348PP      PP16452   0.880  10.708   2.088  0.1695  0.0850 -0.0538
 6349PP      PP16453  14.984   6.964   2.057  0.1954  0.0748  0.1650
 6350PP      PP16454  15.519  11.513  12.433  0.0613  0.1254 -0.0690
 6351PP      PP16455   1.702   5.652  13.413 -0.3441 -0.1222  0.2549
 6352PP      PP16456   1.310  10.906   1.931 -0.1014 -0.2095  0.0302
 6353PP      PP16457  12.365   1.083   1.475  0.0148 -0.1112 -0.2001
 6354PP      PP16458  14.906  15.276   4.370 -0.1581  0.1659  0.2199
 6355PP      PP16459   4.988   8.153  10.025 -0.1112  0.2591  0.0732
 6356PP      PP16460   6.703  13.805   2.743 -0.0997  0.3727 -0.0149
 6357PP      PP16461   6.335   0.874  10.115  0.1371 -0.0119  0.1240
 6358PP      PP16462   5.648   9.208   2.257  0.3848  0.0585 -0.2900
 6359PP      PP16463   4.806  14.113  12.831 -0.4257  0.1664 -0.0098
 6360PP      PP16464   3.003   4.374   8.544 -0.0680  0.3235 -0.1469
 6361PP      PP16465   3.188   9.894   3.468  0.1191 -0.0445 -0.2322
 6362PP      PP16466  10.031   5.042   3.322  0.0585 -0.2039 -0.0824
 6363PP      PP16467  10.061  14.472  11.818  0.2623 -0.2175  0.1865
 6364PP      PP16468   2.692   4.940  10.014  0.2046  0.0473 -0.0012
 6365PP      PP16469  11.091  12.993  12.213 -0.0624 -0.1583  0.0746
 6366PP      PP16470   7.929  10.523   1.083  0.1015  0.0592 -0.0849
 6367PP      PP16471  13.608   4.307   1.529  0.0500  0.0465 -0.0130
 6368PP      PP16472  11.095   5.007   9.250 -0.3099 -0.2119  0.1827
 6369PP      PP16473  10.946  12.877   3.212  0.1068  0.0920  0.1586
 6370PP      PP16474  15.205  12.880   3.888 -0.1818 -0.2067  0.0251
 6371PP      PP16475   6.398   2.535   0.411 -0.1355  0.2428  0.1899
 6372PP      PP16476   7.742   4.494   0.753 -0.1539 -0.3909 -0.0041
 6373PP      PP16477  11.284  15.153   0.335 -0.0906  0.2547 -0.0358
 6374PP      PP16478   6.089   1.791  10.332  0.2621 -0.1761 -0.0308
 6375PP      PP16479   4.387   7.117   1.201 -0.2774  0.1847 -0.1787
 6376PP      PP16480  11.596   6.374  12.206 -0.0584  0.1009  0.0954
 6377PP      PP16481   9.952  14.062  13.147  0.1114  0.1253 -0.3211
 6378PP      PP16482   4.041   7.608   2.747  0.1198 -0.0609 -0.2704
 6379PP      PP16483   9.312   5.856   3.498 -0.2656  0.0936 -0.1885
 6380PP      PP16484   4.851  15.612   1.414  0.0201 -0.1313  0.1260
 6381PP      PP16485   9.618  13.654   2.819 -0.1759 -0.1018 -0.0126
 6382PP      PP16486   0.503  11.129  12.293  0.2586  0.1871  0.1318
 6383PP      PP16487  11.924   4.784   3.093  0.1259 -0.0575  0.0383
 6384PP      PP16488   1.458   3.524   1.324 -0.1031 -0.1977 -0.1013
 6385PP      PP16489   2.977  14.479  11.154 -0.2601 -0.2604  0.2266
 6386PP      PP16490  11.022  10.642  12.453  0.2140 -0.0007 -0.2013
 6387PP      PP16491  14.205  12.345   0.551  0.2333  0.0373 -0.0517
 6388PP      PP16492  14.067  11.534  12.236  0.0017  0.0833 -0.2816
 6389PP      PP16493   0.797   7.404   9.021  0.0506 -0.2361  0.2072
 6390PP      PP16494  12.488   4.957   3.856  0.0328 -0.1462  0.0448
 6391PP      PP16495   6.382  11.762   9.996 -0.4308  0.0717 -0.0959
 6392PP      PP16496  13.264   7.416   4.043  0.1707  0.1937 -0.1161
 6393PP      PP16497  15.188   3.069  11.649  0.3547  0.2356  0.0091
 6394PP      PP16498   6.038   9.333  10.747  0.0460  0.1695  0.2173
 6395PP      PP16499   4.259   1.470   2.372 -0.2323  0.0479  0.0156
 6396PP      PP16500   7.547   5.755   7.277  0.0190  0.1396 -0.4309
 6397PP      PP16501  15.296  14.486  11.307 -0.2717 -0.1939  0.0798
 6398PP      PP16502  11.688   6.581   3.852  0.3931  0.0942 -0.0946
 6399PP      PP16503  15.565   9.714   2.463 -0.1562  0.0316 -0.1329
 6400PP      PP16504  13.214  11.893   2.431  0.0439 -0.0754 -0.1043
 6401PP      PP16505   1.671  14.165  12.035 -0.2092 -0.1221  0.1233
 6402PP      PP16506   1.763   7.715   1.301 -0.0655  0.0792 -0.2682
 6403PP      PP16507  12.777  12.059   1.603  0.1845  0.3539  0.1061
 6404PP      PP16508   2.492  11.058  12.251 -0.0657  0.0713  0.0644
 6405PP      PP16509   6.776  14.208   0.328 -0.2200 -0.0688  0.0327
 6406PP      PP16510  14.964   0.767   2.732  0.0454  0.0674 -0.1635
 6407PP      PP16511   0.376   5.915   1.652  0.1482  0.0787  0.2577
 6408PP      PP16512   8.095  12.790   0.574 -0.0583 -0.1334  0.1572
 6409PP      PP16513   2.091  10.891   1.572  0.2692  0.2172 -0.1784
 6410PP      PP16514   9.852   7.379   0.649  0.0297 -0.2772  0.0151
 6411PP      PP16515   5.005   2.027   2.780  0.2989 -0.1788  0.0131
 6412PP      PP16516  11.442   7.220  10.404  0.2697  0.1356 -0.0926
 6413PP      PP16517  14.625   0.312   0.280 -0.3369  0.1743  0.2725
 6414PP      PP16518  13.638   4.110   0.051  0.6343 -0.0134  0.1964
 6415PP      PP16519   6.473   9.380  10.967  0.1618 -0.1070  0.1290
 6416PP      PP16520   1.221   6.912   2.553 -0.1406  0.2956  0.0334
 6417PP      PP16521   4.194   8.819   9.178 -0.3589 -0.1428 -0.0115
 6418PP      PP16522   5.848   2.724   1.156 -0.0989  0.2639  0.0247
 6419PP      PP16523   4.801  10.490  11.909  0.1194 -0.0954 -0.3411
 6420PP      PP16524  12.649   5.847   0.212 -0.0921 -0.2711  0.0562
 6421PP      PP16525  15.609   3.621   1.023  0.2181  0.0983  0.1286
 6422PP      PP16526   6.094   3.838   2.611  0.1186 -0.0149  0.2149
 6423PP      PP16527   1.004  13.700   0.582  0.0834 -0.1478 -0.2276
 6424PP      PP16528  11.948   4.815   3.958  0.0799 -0.2137 -0.0488
 6425PP      PP16529   7.893   8.423  13.284  0.2343  0.2922  0.2355
 6426PP      PP16530  12.543  10.748   0.995  0.0466  0.0982 -0.0801
 6427PP      PP16531   8.356  12.084   1.061  0.0457 -0.3220 -0.3724
 6428PP      PP16532   5.225   6.719   9.215  0.4534  0.0566  0.0330
 6429PP      PP16533  12.902   9.041  13.552  0.0554 -0.1818 -0.3499
 6430PP      PP16534   5.828  12.134   1.986  0.3260 -0.2677 -0.0272
 6431PP      PP16535   6.273   7.802   2.382 -0.2460 -0.2940 -0.0888
 6432PP      PP16536  13.472  14.220   1.319 -0.4324  0.2158  0.0999
 6433PP      PP16537   0.133  10.903  12.942  0.0004  0.0358  0.4262
 6434PP      PP16538  12.404  15.049  11.915  0.0662  0.1214 -0.1969
 6435PP      PP16539   1.662   9.140   1.597  0.0417 -0.1008  0.0560
 6436PP      PP16540  10.220  15.122   1.393  0.0207 -0.2591  0.1174
 6437PP      PP16541   7.295  12.574  12.848  0.0503 -0.0091  0.0865
 6438PP      PP16542  14.181  13.825   4.870 -0.4819 -0.1132 -0.2039
 6439PP      PP16543   1.830   7.380   2.388 -0.3277 -0.1185  0.1188
 6440PP      PP16544  15.129   5.168   9.987 -0.0893 -0.0965 -0.0173
 6441PP      PP16545  13.846  12.183   2.865  0.0886 -0.0587  0.0593
 6442PP      PP16546  10.553   6.478  12.289 -0.2458  0.0393 -0.2784
 6443PP      PP16547   0.814   9.226   4.002  0.1247 -0.0278  0.2261
 6444PP      PP16548  15.003  10.070   2.860  0.0635  0.2951  0.2189
 6445PP      PP16549   6.018  11.555   3.191 -0.0991  0.1088  0.1531
 6446PP      PP16550   3.880  15.518  13.369 -0.3335  0.1223 -0.1462
 6447PP      PP16551   1.731   9.443   0.294 -0.0196 -0.0934 -0.2263
 6448PP      PP16552   2.789   1.471  11.981  0.2870 -0.0206 -0.3120
 6449PP      PP16553   3.211   3.802   3.333  0.0926 -0.1013  0.2001
 6450PP      PP16554   4.346   5.763   1.505 -0.1332  0.1013 -0.0658
 6451PP      PP16555  14.904   5.144   3.622  0.0423 -0.0273  0.3091
 6452PP      PP16556   1.138   9.411   3.497 -0.2253 -0.1881  0.1703
 6453PP      PP16557  12.717   0.739   1.606 -0.1909 -0.0961  0.0319
 6454PP      PP16558   3.220  14.900  13.466 -0.0145  0.4464  0.1393
 6455PP      PP16559   9.384   7.475   3.127 -0.0773 -0.2101 -0.1240
 6456PP      PP16560  10.077  14.626   4.497 -0.0334  0.0959  0.0162
 6457PP      PP16561  13.191   5.653  12.882 -0.0888  0.1997  0.0256
 6458PP      PP16562  11.207   7.358   5.009 -0.2175 -0.4170  0.0145
 6459PP      PP16563   8.006   3.751   1.438 -0.1608  0.2469 -0.4442
 6460PP      PP16564  11.181  10.789  12.955  0.1949  0.1308  0.0486
 6461PP      PP16565   8.601  10.837   9.940 -0.4055 -0.2147 -0.1257
 6462PP      PP16566  12.382   1.593  12.766 -0.2679 -0.0089  0.0462
 6463PP      PP16567   0.340   4.522   2.388 -0.1544  0.1299  0.0742
 6464PP      PP16568   4.855  11.018   1.274 -0.0137  0.0123 -0.3637
 6465PP      PP16569   1.844   0.164   0.636 -0.2334  0.3950 -0.2190
 6466PP      PP16570   1.778  11.441  12.973  0.0685 -0.0650 -0.0754
 6467PP      PP16571   8.413   5.282   7.948  0.0469  0.3638  0.1844
 6468PP      PP16572   6.662   8.477   2.203  0.0594 -0.0451  0.0888
 6469PP      PP16573   0.954   5.370   3.451  0.2109 -0.1278 -0.3819
 6470PP      PP16574   3.148   6.771  12.313 -0.2213  0.2320 -0.0620
 6471PP      PP16575  11.085   1.352  12.339 -0.0936 -0.2856 -0.2399
 6472PP      PP16576  13.730  13.587  11.348  0.0186  0.0416 -0.1338
 6473PP      PP16577   9.804   5.919   4.443  0.0356  0.0856 -0.0321
 6474PP      PP16578  11.993  13.955  12.405  0.3503  0.0136  0.0016
 6475PP      PP16579   4.978   9.451  10.792 -0.1489 -0.0967  0.1782
 6476PP      PP16580  14.840  10.068  12.458  0.0057  0.0020  0.2236
 6477PP      PP16581  10.464   3.220   9.114 -0.0927 -0.1651  0.0719
 6478PP      PP16582   4.501  12.623   1.461 -0.0320  0.1452  0.1051
 6479PP      PP16583   6.167   0.457   3.482  0.0262  0.2072  0.1096
 6480PP      PP16584  10.558   5.619   2.035 -0.1072  0.0595  0.0878
 6481PP      PP16585  12.996  11.739   1.203  0.0529 -0.1074 -0.0448
 6482PP      PP16586  13.136  13.781  13.020  0.1264  0.1819 -0.0067
 6483PP      PP16587  14.041  10.374  10.091  0.1238  0.1127  0.1890
 6484PP      PP16588  10.820   9.903   4.170 -0.0461  0.3253  0.1313
 6485PP      PP16589   6.786   7.136  13.223 -0.0494  0.0797 -0.1909
 6486PP      PP16590   2.740  11.275  13.253 -0.0697  0.1472  0.1421
 6487PP      PP16591   8.242   4.517   3.545  0.0602 -0.0971  0.2054
 6488PP      PP16592   9.260  14.735  11.791 -0.5766 -0.1142  0.0866
 6489PP      PP16593  10.055  13.916   1.805 -0.0845  0.1290 -0.3259
 6490PP      PP16594   3.597   0.725  10.840  0.3747  0.2629 -0.0152
 6491PP      PP16595   2.370  14.821   8.919  0.0771 -0.2549  0.0490
 6492PP      PP16596  14.456  13.348  10.453 -0.2405 -0.1114 -0.0003
 6493PP      PP16597  11.908  10.279   2.162 -0.2162  0.0000  0.2339
 6494PP      PP16598   8.702  12.166  10.206 -0.0720 -0.0291  0.1981
 6495PP      PP16599   6.909   3.273  10.054  0.1362 -0.0929  0.2177
 6496PP      PP16600   5.397  12.251   0.499  0.1143 -0.1465 -0.1886
 6497PP      PP16601  12.599   6.697   4.108 -0.0504 -0.1161 -0.1215
 6498PP      PP16602   8.072   1.087  11.166 -0.1612 -0.1050  0.0606
 6499PP      PP16603   3.373   2.103  12.985 -0.0866 -0.3515  0.3532
 6500PP      PP16604  12.161   8.832   4.001  0.0542  0.1068  0.1721
 6501PP      PP16605   8.393  13.031  12.825 -0.0660 -0.4024  0.0298
 6502PP      PP16606  12.456   2.761   1.484  0.2072 -0.0135 -0.1246
 6503PP      PP16607   2.726  10.421   0.383 -0.2754  0.3121 -0.2723
 6504PP      PP16608   2.848   4.559  10.322 -0.0159 -0.1258 -0.0792
 6505PP      PP16609   3.738   0.181   9.550  0.2002 -0.0992  0.1342
 6506PP      PP16610   1.549   8.700   1.952 -0.1925 -0.2240  0.1766
 6507PP      PP16611   5.623   4.523  11.667  0.0740 -0.0229 -0.1672
 6508PP      PP16612   4.879  14.931   3.086 -0.0763  0.0208  0.2031
 6509PP      PP16613   4.903   8.985   3.275 -0.0315 -0.1368  0.2651
 6510PP      PP16614   3.381   4.532   4.546  0.0710  0.1328  0.0948
 6511PP      PP16615   8.882   3.905  12.453 -0.2233  0.4550 -0.4797
 6512PP      PP16616   6.866  15.616   2.919  0.0496  0.0631  0.0788
 6513PP      PP16617   5.758  13.058   9.553 -0.2151 -0.2391 -0.0301
 6514PP      PP16618  14.338   5.709   5.151 -0.0326 -0.2475  0.0809
 6515PP      PP16619  11.027   3.515   2.884 -0.2182  0.0057 -0.0860
 6516PP      PP16620   8.588   0.921   1.724  0.0011  0.1073  0.2634
 6517PP      PP16621   3.441   3.586   0.374 -0.0355 -0.0755  0.3021
 6518PP      PP16622   3.214  14.131   0.964  0.2243 -0.1166  0.0712
 6519PP      PP16623   8.998   6.340   0.132 -0.0088  0.0554  0.2969
 6520PP      PP16624   9.283  13.408   9.804 -0.1569  0.0617 -0.3284
 6521PP      PP16625  12.332   9.155   0.491 -0.0273 -0.0616 -0.1676
 6522PP      PP16626  12.718   1.904  12.966 -0.1845 -0.1180  0.0516
 6523PP      PP16627   6.977  10.541  12.421 -0.0678  0.0202  0.2098
 6524PP      PP16628   6.769  12.824   1.711 -0.0689  0.0513  0.1494
 6525PP      PP16629   7.054  13.914  11.668 -0.2682  0.4070  0.2436
 6526PP      PP16630   2.461  11.644  13.494 -0.1410  0.0282  0.1700
 6527PP      PP16631  13.479  11.136   9.539 -0.0445  0.0165 -0.0764
 6528PP      PP16632   0.475   2.879   0.523 -0.0777 -0.0036  0.0011
 6529PP      PP16633   9.382  15.334  10.494  0.2768 -0.0658  0.0732
 6530PP      PP16634   2.856  10.907   4.372  0.0025  0.1808 -0.4034
 6531PP      PP16635  14.673   0.754  12.669  0.1522 -0.1570 -0.0058
 6532PP      PP16636   4.096   9.317  10.666 -0.1821 -0.0906  0.2319
 6533PP      PP16637   6.977   6.385  11.773  0.1531  0.0360  0.1039
 6534PP      PP16638  12.793  14.670  10.755 -0.2005  0.1844 -0.1611
 6535PP      PP16639   0.236  13.473  12.179  0.1843 -0.0526 -0.0593
 6536PP      PP16640   3.669  14.339   1.907  0.2585  0.4251 -0.0829
 6537PP      PP16641   5.052   8.402  10.506 -0.0213 -0.3827 -0.0818
 6538PP      PP16642   0.550   8.800   2.758  0.3127  0.0471 -0.3040
 6539PP      PP16643   2.115   2.934   2.280 -0.2404  0.0744 -0.1921
 6540PP      PP16644  11.369   9.080   1.740 -0.1002 -0.2877 -0.0405
 6541PP      PP16645  11.006  11.410   9.646 -0.2186  0.0099 -0.1384
 6542PP      PP16646   4.640   7.922   2.229  0.2355 -0.0068 -0.1589
 6543PP      PP16647  13.378   9.844  12.023 -0.1845  0.0564  0.0087
 6544PP      PP16648   0.975   9.016   2.283 -0.2432  0.1165  0.1782
 6545PP      PP16649  12.202   6.968  13.202  0.1883  0.0773  0.0026
 6546PP      PP16650   6.332  11.261  11.672 -0.1139 -0.0016  0.0865
 6547PP      PP16651   7.389  14.844   0.753 -0.0840  0.1612 -0.1678
 6548PP      PP16652  11.456   6.946   3.578 -0.0858  0.0504  0.1916
 6549PP      PP16653   1.992   0.147   1.152  0.4140  0.0332  0.0338
 6550PP      PP16654  11.193  11.894   0.955  0.3063 -0.1152  0.1330
 6551PP      PP16655   0.311  13.193   1.824  0.0614  0.0178 -0.2012
 6552PP      PP16656   8.331  13.798   0.179  0.1100 -0.0105 -0.1304
 6553PP      PP16657   8.401  11.415  11.463 -0.0791  0.0913  0.0657
 6554PP      PP16658   0.498  10.178   4.420 -0.3310  0.0572 -0.0556
 6555PP      PP16659  12.849   7.917   4.515 -0.0111  0.1606 -0.0327
 6556PP      PP16660   2.951   0.911   1.198  0.0800 -0.0502  0.2080
 6557PP      PP16661   3.294   3.327   3.416  0.0951  0.3036 -0.0521
 6558PP      PP16662   5.794   9.462   9.661 -0.2045  0.0792 -0.0810
 6559PP      PP16663   0.948   0.657  12.004 -0.0190  0.1226  0.1267
 6560PP      PP16664   1.381   7.904   0.394 -0.2009 -0.1025 -0.1292
 6561PP      PP16665   7.372   4.708   1.203  0.1921  0.0163 -0.1643
 6562PP      PP16666  12.845  13.498   2.367 -0.0635  0.1992  0.1620
 6563PP      PP16667   5.619  14.196  11.162 -0.0208 -0.0607  0.4361
 6564PP      PP16668  14.290   6.388  10.468 -0.2825  0.0874  0.0750
 6565PP      PP16669  11.926   2.411  11.867 -0.1482 -0.1539  0.2305
 6566PP      PP16670   5.038  14.138  10.917 -0.2131 -0.0291  0.1611
 6567PP      PP16671  11.659  14.936  13.342  0.1219  0.0602  0.2051
 6568PP      PP16672   6.862   6.893   9.206  0.1014  0.0649 -0.2577
 6569PP      PP16673   4.895  13.643   3.750 -0.1676  0.2449 -0.1623
 6570PP      PP16674   9.242   1.200  11.768  0.4450  0.4219  0.1805
 6571PP      PP16675   7.402   1.916  10.445 -0.3183 -0.1740 -0.0508
 6572PP      PP16676   1.033   1.623   9.182  0.3910  0.0490  0.1620
 6573PP      PP16677  10.920  14.359   1.112 -0.0139  0.0732  0.1039
 6574PP      PP16678   3.808   2.816   0.935  0.0900  0.0804 -0.2858
 6575PP      PP16679   6.479   5.448   1.775  0.1384  0.2401 -0.1651
 6576PP      PP16680  15.448  11.589   9.588  0.2171  0.1760 -0.1615
 6577PP      PP16681   1.551   4.648   8.756  0.0118  0.1225 -0.2810
 6578PP      PP16682   3.084   5.667  11.571 -0.0427 -0.3772  0.4238
 6579PP      PP16683   9.319  10.921   2.870  0.2658 -0.2798  0.0610
 6580PP      PP16684   2.437   9.164  11.570  0.0777  0.1691 -0.2582
 6581PP      PP16685   0.803  14.333   2.839  0.0633 -0.1610 -0.0952
 6582PP      PP16686   3.460  11.665   0.038  0.1612  0.0773 -0.2319
 6583PP      PP16687   1.179  15.342  13.178  0.0450 -0.1396  0.0788
 6584PP      PP16688   7.085   9.769   2.496  0.0823 -0.0446  0.0867
 6585PP      PP16689   2.707   5.016   3.252 -0.2711  0.1854  0.1207
 6586PP      PP16690   1.879  15.252   9.030  0.1332  0.1164 -0.1821
 6587PP      PP16691  10.942   3.462  13.158  0.1045  0.0436 -0.0007
 6588PP      PP16692   8.413   0.477   2.504 -0.1704  0.0157 -0.0077
 6589PP      PP16693   5.040   3.917  11.222 -0.1777  0.0865  0.1658
 6590PP      PP16694   3.085  12.176  10.094  0.1462 -0.0548 -0.1308
 6591PP      PP16695  10.326  10.154   0.122  0.0332 -0.3475  0.1322
 6592PP      PP16696  12.098  11.058   2.578 -0.0541  0.0433  0.0023
 6593PP      PP16697  13.133   4.143   1.441  0.2541  0.1520  0.2499
 6594PP      PP16698   8.036  15.522  10.898  0.0374 -0.0311 -0.0923
 6595PP      PP16699   5.534   5.568   1.458  0.1113  0.0472  0.0149
 6596PP      PP16700   3.662  10.052  12.895  0.1380  0.0488  0.0521
 6597PP      PP16701  11.202   3.122   2.538 -0.0745  0.1030 -0.0560
 6598PP      PP16702   0.360   3.578   9.624  0.0326  0.0273 -0.3464
 6599PP      PP16703  14.870  14.207  11.344  0.2526 -0.0344 -0.1142
 6600PP      PP16704   5.260  11.710   4.178  0.3844  0.0861  0.0881
 6601PP      PP16705  12.862   5.827   3.533  0.0125  0.1499  0.1902
 6602PP      PP16706   8.180  15.351   1.942  0.1585  0.0957 -0.2082
 6603PP      PP16707   6.593   4.941  13.170  0.0412 -0.0987 -0.1213
 6604PP      PP16708   2.621   0.884   8.698 -0.0406 -0.3032 -0.0935
 6605PP      PP16709  14.324  11.611   4.989 -0.2545  0.0270  0.4540
 6606PP      PP16710   8.297   5.474   9.702  0.4134  0.2586 -0.1260
 6607PP      PP16711  13.447   3.424  12.452 -0.0413  0.2356 -0.0765
 6608PP      PP16712   9.945   9.439   3.619  0.1574  0.0479  0.1762
 6609PP      PP16713   3.625   9.045  13.747 -0.1744 -0.1409  0.0132
 6610PP      PP16714   2.747   8.770   4.461  0.2225  0.1122  0.1440
 6611PP      PP16715  13.082  10.087   9.654  0.1513  0.1810 -0.2505
 6612PP      PP16716   4.715  14.391  12.240  0.1310 -0.1851 -0.1916
 6613PP      PP16717  13.957  12.257   4.444 -0.1261  0.2413 -0.2775
 6614PP      PP16718   7.837   0.843   3.068  0.1185 -0.0891  0.3033
 6615PP      PP16719   6.573   2.050   9.349  0.0715  0.0452 -0.1959
 6616PP      PP16720  11.061  13.837   9.745 -0.1416  0.1891  0.0244
 6617PP      PP16721   2.503   6.172   9.019  0.0331  0.2725  0.0773
 6618PP      PP16722   1.629  12.700   0.354  0.2828 -0.0639 -0.1418
 6619PP      PP16723   3.198   5.970  10.313 -0.2190  0.1510  0.2268
 6620PP      PP16724  13.680   4.734   0.069 -0.2122  0.1050  0.0036
 6621PP      PP16725   2.365   3.134   2.671 -0.4350 -0.1512 -0.0157
 6622PP      PP16726  11.577  14.307  12.369 -0.0824 -0.0001 -0.0084
 6623PP      PP16727  15.178   1.686  13.245 -0.0429  0.4204 -0.4119
 6624PP      PP16728  12.042   9.081   0.086 -0.2192  0.1968 -0.1452
 6625PP      PP16729   5.007   6.425  12.802  0.1143 -0.2103 -0.0289
 6626PP      PP16730  13.143   1.700  11.492 -0.2123 -0.3401  0.0893
 6627PP      PP16731  13.875   7.090   2.168  0.0575  0.0460 -0.1775
 6628PP      PP16732  15.051   6.819  11.552  0.0958  0.2699  0.0779
 6629PP      PP16733  15.704  14.484  10.886 -0.0171  0.1139  0.0316
 6630PP      PP16734   7.615  13.196   9.626  0.2340  0.1196 -0.1524
 6631PP      PP16735   7.077  13.976   4.170 -0.0152  0.0912  0.1739
 6632PP      PP16736  10.689   7.713  11.561 -0.1522  0.1717  0.1412
 6633PP      PP16737   6.707  13.217   2.069 -0.1197 -0.0726 -0.1197
 6634PP      PP16738  13.748   5.762  12.843 -0.1981  0.0211 -0.2570
 6635PP      PP16739   7.814   0.159   3.288  0.0249 -0.0410  0.0072
 6636PP      PP16740   4.400   5.816   3.797  0.0600 -0.1253  0.1175
 6637PP      PP16741   2.694  12.935   3.994 -0.0809 -0.0075  0.1792
 6638PP      PP16742   6.820   9.741  11.172  0.3303  0.0321  0.0258
 6639PP      PP16743  13.545   0.173  11.671  0.4936  0.1253  0.2316
 6640PP      PP16744  13.122   6.503   0.078 -0.1699 -0.1696  0.0623
 6641PP      PP16745  13.261   7.842   5.106  0.0115  0.0639  0.1567
 6642PP      PP16746  13.895   0.817   3.624  0.1866 -0.2080  0.0268
 6643PP      PP16747   0.094  12.661   9.289 -0.1352  0.0204 -0.2219
 6644PP      PP16748   4.450  10.840   0.647 -0.2587  0.1469  0.1444
 6645PP      PP16749  10.435   6.557   3.061  0.0470 -0.2468  0.1026
 6646PP      PP16750   1.182  13.285   0.379 -0.0321 -0.1375  0.3887
 6647PP      PP16751  11.902  12.307   1.362 -0.0587  0.0327  0.2033
 6648PP      PP16752   8.516   1.316   2.594  0.0700 -0.5158 -0.3146
 6649PP      PP16753   0.772  15.031  12.717  0.0957 -0.0372  0.1036
 6650PP      PP16754   1.713   1.234  11.977  0.0331 -0.0717  0.0414
 6651PP      PP16755   7.802  11.950   4.314 -0.2444  0.0514  0.1565
 6652PP      PP16756   6.603   2.840   0.073 -0.1411  0.0643  0.1114
 6653PP      PP16757  14.777   4.834  11.266 -0.1530 -0.3574  0.0264
 6654PP      PP16758   9.345   0.042   2.391 -0.1951 -0.1929 -0.2175
 6655PP      PP16759   9.946   7.946  13.143  0.0012 -0.1639 -0.3513
 6656PP      PP16760   6.443  12.407  13.100 -0.2812  0.1119  0.2144
 6657PP      PP16761  13.303   6.328   4.050  0.3370 -0.3420 -0.0271
 6658PP      PP16762   3.292   1.990   3.340 -0.0095  0.1517 -0.4926
 6659PP      PP16763   9.821   1.384  13.488 -0.0338 -0.0089 -0.1071
 6660PP      PP16764   2.063   8.841   2.251  0.0337  0.1788  0.1457
 6661PP      PP16765   5.715  13.618   2.554  0.1381 -0.0138 -0.0214
 6662PP      PP16766   0.804  10.836   1.208  0.2469 -0.1921 -0.2361
 6663PP      PP16767   7.246  10.996   3.524  0.0113  0.3855  0.2316
 6664PP      PP16768   3.538  14.450  13.418  0.4479  0.0954 -0.2102
 6665PP      PP16769   5.687   7.324   3.068  0.1147 -0.1639  0.1118
 6666PP      PP16770   0.150  12.557  13.522  0.3304 -0.1921  0.1002
 6667PP      PP16771   5.918   4.732  12.953  0.0299  0.1285 -0.3243
 6668PP      PP16772  12.434   6.059   3.371 -0.2262  0.1252  0.2700
 6669PP      PP16773   4.405  14.321  13.021  0.0359 -0.3418  0.3963
 6670PP      PP16774  13.797  14.342   5.259 -0.0461  0.1002  0.3988
 6671PP      PP16775   4.238   7.639   2.242 -0.2086 -0.1157 -0.1049
 6672PP      PP16776   2.048  12.623   9.227 -0.1462  0.0316  0.0661
 6673PP      PP16777   1.741   1.849  11.467  0.2683  0.0595 -0.3886
 6674PP      PP16778  14.823   6.417   1.570  0.0872  0.2696  0.0903
 6675PP      PP16779   7.169   7.722  10.166  0.1940  0.2925  0.1486
 6676PP      PP16780   9.645   1.654   0.662 -0.2595  0.0163 -0.0478
 6677PP      PP16781   3.647  14.925  12.197 -0.1083 -0.4242  0.0153
 6678PP      PP16782   1.648  15.432   0.648 -0.3308 -0.0628 -0.1156
 6679PP      PP16783   2.484  10.632   1.697  0.1102 -0.1297  0.0473
 6680PP      PP16784   2.284   9.843   2.222 -0.2050  0.1231  0.2038
 6681PP      PP16785   1.816  14.285   2.176 -0.3672  0.2304 -0.0129
 6682PP      PP16786   8.474  15.304   3.862 -0.1452  0.5402 -0.3236
 6683PP      PP16787  11.087   9.133  12.379 -0.3222 -0.2266 -0.0174
 6684PP      PP16788   0.734   7.138   0.255  0.2241  0.4523  0.0927
 6685PP      PP16789   7.475   4.077   3.135  0.0660  0.2716  0.1786
 6686PP      PP16790  11.140  13.558   1.626  0.1152  0.0541 -0.1434
 6687PP      PP16791   9.566   4.756   8.700 -0.1491 -0.1405 -0.2957
 6688PP      PP16792   7.833   7.875  12.364  0.3288 -0.0372 -0.1580
 6689PP      PP16793   9.373  14.700  11.128  0.0476  0.1384 -0.1370
 6690PP      PP16794   4.663   7.975  11.850 -0.0948 -0.0350 -0.0447
 6691PP      PP16795   9.102   9.891  12.766 -0.0504  0.0444 -0.0235
 6692PP      PP16796   6.062   7.631   9.896 -0.1021  0.1362  0.0621
 6693PP      PP16797   7.666   8.443   3.895 -0.1219  0.0173  0.0394
 6694PP      PP16798   4.762   9.030   8.417  0.0770  0.1468 -0.3634
 6695PP      PP16799   4.981   6.370   0.149  0.0716 -0.0201 -0.3090
 6696PP      PP16800   9.929  13.607   9.815  0.0898 -0.0743  0.0853
 6697PP      PP16801  15.036   3.095  12.515  0.1523 -0.5287  0.1198
 6698PP      PP16802   5.660  14.034   4.873 -0.1417  0.1593 -0.2004
 6699PP      PP16803   0.656   6.190   3.199 -0.1254  0.1613 -0.0544
 6700PP      PP16804  11.639  12.568   1.892 -0.0021  0.0152  0.4873
 6701PP      PP16805  11.593  14.621   2.904  0.0970  0.0284  0.0399
 6702PP      PP16806   3.477   5.021   9.544  0.2053 -0.0693 -0.2416
 6703PP      PP16807   7.769   3.394   7.935  0.0945  0.2206 -0.0081
 6704PP      PP16808   8.193   4.160   0.662 -0.0305 -0.2931  0.1635
 6705PP      PP16809   0.493  13.977   3.254 -0.1473 -0.1930  0.0828
 6706PP      PP16810   9.705  11.244   3.078 -0.2550  0.0277  0.0526
 6707PP      PP16811  11.918   9.039   3.057 -0.1368  0.1775  0.2131
 6708PP      PP16812   2.019   7.441  11.896  0.0165  0.1282 -0.2010
 6709PP      PP16813  10.095  11.094  13.760 -0.0218  0.0952  0.1526
 6710PP      PP16814  15.327   9.329  10.831 -0.1326  0.1931  0.0367
 6711PP      PP16815  10.645  11.571  13.261  0.1383  0.0627 -0.1338
 6712PP      PP16816   8.397   7.484   2.729 -0.2632 -0.2499  0.1960
 6713PP      PP16817  12.634   5.797  11.346  0.0950 -0.1697  0.2538
 6714PP      PP16818   0.633   2.725  10.931  0.0933 -0.0926 -0.1864
 6715PP      PP16819   5.075   3.182   8.970  0.3341  0.0464  0.0383
 6716PP      PP16820   2.255   9.095  12.305 -0.0697  0.1917  0.0134
 6717PP      PP16821   4.705   4.068   2.780 -0.2250 -0.0381 -0.1378
 6718PP      PP16822  12.166   5.643   9.749 -0.0671  0.0727  0.1258
 6719PP      PP16823   3.853  14.065   2.950  0.0363 -0.1753 -0.0056
 6720PP      PP16824   3.939   3.808   9.604  0.2959  0.1595  0.1783
 6721PP      PP16825  12.910   4.939   0.366  0.2336 -0.1535  0.0606
 6722PP      PP16826  10.327  11.522  12.239 -0.4212  0.1716 -0.2529
 6723PP      PP16827   9.545   0.327   0.569 -0.2698  0.5471  0.1921
 6724PP      PP16828   3.719   0.615   7.815  0.0205  0.0656  0.0159
 6725PP      PP16829   5.778   5.243   8.894 -0.1494 -0.0209  0.3519
 6726PP      PP16830   3.672   7.348   0.544  0.0153 -0.1871  0.1941
 6727PP      PP16831  10.584  11.325   3.204  0.0671  0.2071  0.0027
 6728PP      PP16832   4.029   9.535   1.366 -0.0175  0.0188  0.0596
 6729PP      PP16833   3.381   3.251   2.575  0.0771  0.0061 -0.0440
 6730PP      PP16834  11.256   4.627   0.277 -0.0094 -0.0293  0.3149
 6731PP      PP16835   7.431  13.532   0.510  0.2696 -0.0649 -0.2043
 6732PP      PP16836   3.541  12.255   1.448 -0.0607  0.2292  0.0586
 6733PP      PP16837   4.277   4.434   8.868 -0.1461 -0.0541  0.0302
 6734PP      PP16838   4.575  14.972   0.841 -0.1866 -0.0485  0.1691
 6735PP      PP16839   6.210   6.314   8.690 -0.1403 -0.1407  0.1126
 6736PP      PP16840  11.674   8.043  11.095 -0.0025  0.0511 -0.2939
 6737PP      PP16841   5.839   5.494  13.595 -0.0150 -0.0230 -0.1972
 6738PP      PP16842   6.769   9.949   4.024  0.0316  0.1777  0.0836
 6739PP      PP16843   7.946   9.563   1.324  0.2996  0.1024  0.0237
 6740PP      PP16844   0.766   2.528  11.404 -0.2807 -0.0988  0.0182
 6741PP      PP16845   8.453   0.043   1.113 -0.0096  0.1066 -0.0622
 6742PP      PP16846  15.712   7.925   3.560 -0.0219  0.0522 -0.3750
 6743PP      PP16847   1.497  10.463   0.590 -0.0603  0.1142  0.3916
 6744PP      PP16848   2.110  11.895  12.999  0.2128  0.1217 -0.2795
 6745PP      PP16849  10.052   2.048   2.632 -0.1253 -0.0079 -0.0526
 6746PP      PP16850   5.093   1.625   8.608 -0.2988 -0.1582  0.2520
 6747PP      PP16851   5.862  15.733  10.148  0.2288 -0.0112 -0.1072
 6748PP      PP16852   1.091   0.895  12.481 -0.1798  0.1566 -0.2009
 6749PP      PP16853   8.446   3.024   0.407  0.3323 -0.0039  0.0943
 6750PP      PP16854   2.012   1.103   1.592 -0.2722 -0.0109  0.0526
 6751PP      PP16855   1.211  10.328   2.975  0.0713  0.0544 -0.1549
 6752PP      PP16856   3.877  15.268   8.623  0.1852  0.0854  0.3512
 6753PP      PP16857  15.119   1.991  10.758 -0.1339  0.1935 -0.1375
 6754PP      PP16858  12.483  15.532  10.266  0.0374 -0.2283  0.2928
 6755PP      PP16859  14.636  13.293   0.459 -0.0527  0.0063  0.0590
 6756PP      PP16860   9.218   2.325   2.352 -0.3147 -0.3457 -0.3704
 6757PP      PP16861   0.869   2.756   9.695 -0.1562 -0.0750  0.0524
 6758PP      PP16862   8.563   9.745   2.863 -0.2064 -0.1143 -0.1894
 6759PP      PP16863   7.204  14.712   3.704  0.3367 -0.1514  0.1681
 6760PP      PP16864   9.016   0.802   3.095  0.2798  0.2965  0.0323
 6761PP      PP16865   0.926   4.087  11.402  0.0837 -0.0906 -0.3427
 6762PP      PP16866  15.625  12.550   4.086 -0.4286 -0.1725 -0.0532
 6763PP      PP16867   1.465   4.028   2.748 -0.0352 -0.3089  0.1812
 6764PP      PP16868   2.031   5.893  10.109  0.0259 -0.1941 -0.1559
 6765PP      PP16869   2.470  15.597   9.852  0.2433  0.1552  0.0242
 6766PP      PP16870  10.030   0.223   0.939 -0.3086  0.4576 -0.1467
 6767PP      PP16871   6.113   5.933   0.028  0.1574 -0.0441 -0.3250
 6768PP      PP16872   5.257   5.247   2.352 -0.0998  0.0314  0.2620
 6769PP      PP16873   4.236  15.162   3.841  0.0763  0.0991  0.0755
 6770PP      PP16874   1.113  10.936  10.235 -0.4365 -0.0744  0.0476
 6771PP      PP16875   1.475   8.573  10.977  0.2128 -0.1221  0.0812
 6772PP      PP16876   4.469   2.802  12.849 -0.3318 -0.0797 -0.0066
 6773PP      PP16877  14.949   5.763  10.982 -0.0394  0.2796  0.0589
 6774PP      PP16878   9.900  13.043   0.583  0.0800  0.1206 -0.0806
 6775PP      PP16879   9.898  11.061   5.524  0.1509  0.1506 -0.0898
 6776PP      PP16880  11.115   2.735  13.730 -0.1739 -0.0875  0.0049
 6777PP      PP16881   4.924   4.485  12.501 -0.1595 -0.0887 -0.1142
 6778PP      PP16882  12.304   1.623   0.636  0.1440  0.2447  0.1284
 6779PP      PP16883   4.733   3.558  10.473  0.3239  0.1835 -0.2838
 6780PP      PP16884  11.964   5.388   0.327 -0.0498 -0.0495 -0.0520
 6781PP      PP16885   1.222   1.726  11.683 -0.2514 -0.1070 -0.2372
 6782PP      PP16886  15.446  10.829   9.245  0.1775  0.0270  0.1304
 6783PP      PP16887  10.392   1.853   4.261  0.0304  0.0896 -0.0042
 6784PP      PP16888  11.397   7.873  12.719  0.1119 -0.1457  0.0362
 6785PP      PP16889   6.280  13.484   0.691  0.0333  0.0766 -0.2161
 6786PP      PP16890   8.877  14.812   0.554  0.2511 -0.1380  0.3329
 6787PP      PP16891   5.543   4.827  13.499  0.2135  0.0742  0.2081
 6788PP      PP16892   0.690   4.766   9.013  0.0519 -0.1162 -0.1749
 6789PP      PP16893  12.051   3.886   2.148 -0.2731  0.2688  0.0631
 6790PP      PP16894   2.442  11.662   3.494  0.0519  0.3663  0.1126
 6791PP      PP16895   1.207   4.047   3.562 -0.1648 -0.2362 -0.1919
 6792PP      PP16896   9.646  13.409   2.294  0.3403  0.2559 -0.0408
 6793PP      PP16897  10.377  11.151   5.632 -0.1263 -0.0694 -0.2747
 6794PP      PP16898   3.163  11.202   9.745 -0.0685 -0.0833 -0.2027
 6795PP      PP16899   9.730   5.508   2.718  0.2212  0.3616 -0.2353
 6796PP      PP16900   9.606   0.925  10.257 -0.0126 -0.0927 -0.0439
 6797PP      PP16901  14.999   0.954   1.955  0.3510  0.0018 -0.1089
 6798PP      PP16902   6.162   8.277   3.898 -0.1054  0.1937 -0.0047
 6799PP      PP16903  13.426   0.390   4.520  0.3563  0.0162 -0.3060
 6800PP      PP16904   3.778  11.823   2.968 -0.1686  0.1284 -0.0425
 6801PP      PP16905  14.152  10.219  11.919  0.1032  0.2636 -0.0043
 6802PP      PP16906  13.625   4.748   3.997  0.1114 -0.1106  0.0027
 6803PP      PP16907   0.525  14.143  12.832  0.1157  0.0693 -0.0619
 6804PP      PP16908   5.962  10.752  11.415 -0.0102  0.1069  0.2180
 6805PP      PP16909   4.992  13.409   1.771  0.3861  0.2134  0.0301
 6806PP      PP16910   2.040   7.223  11.044 -0.0190 -0.0781 -0.0473
 6807PP      PP16911   4.965  13.509   9.462  0.3031  0.1019 -0.1918
 6808PP      PP16912  11.594   8.602  13.232  0.2788 -0.1415 -0.0100
 6809PP      PP16913   4.686   4.342   9.805  0.3233 -0.1877  0.2491
 6810PP      PP16914   8.603   7.011  11.052  0.0595  0.2075 -0.0743
 6811PP      PP16915  14.979  14.456   2.611 -0.0651  0.4642  0.3009
 6812PP      PP16916   9.362   0.717  12.489 -0.0350  0.2358 -0.2553
 6813PP      PP16917  14.427   6.988   1.108 -0.0616 -0.0311 -0.0570
 6814PP      PP16918   7.385   3.201  12.264  0.0118  0.0150 -0.2343
 6815PP      PP16919   8.804   9.239   4.134  0.2875 -0.2472 -0.2911
 6816PP      PP16920   1.539   7.883   2.582  0.2128 -0.0976 -0.1543
 6817PP      PP16921  12.540   0.475   0.904  0.4802 -0.0522 -0.0678
 6818PP      PP16922   1.652  15.184   1.981  0.1260 -0.2452 -0.2084
 6819PP      PP16923   7.142   4.689   9.287  0.1189 -0.0995  0.0137
 6820PP      PP16924   7.623  15.212   2.392  0.0637 -0.2330  0.0430
 6821PP      PP16925   4.448  11.257   9.472 -0.0805  0.4002  0.0984
 6822PP      PP16926   9.943   7.596   3.278  0.4108  0.2121  0.1659
 6823PP      PP16927  14.773  12.192   9.927  0.2663 -0.0851  0.1715
 6824PP      PP16928   9.897  15.134  12.550 -0.0722  0.0644 -0.1223
 6825PP      PP16929   2.080   7.609   0.016  0.1274  0.1579  0.2701
 6826PP      PP16930  13.668  10.003   1.844  0.3715 -0.1324  0.0009
 6827PP      PP16931   8.823   6.540  11.194  0.0948 -0.1860 -0.1253
 6828PP      PP16932  14.233  13.291   0.118 -0.2341 -0.0156 -0.0908
 6829PP      PP16933  12.223   8.976   5.337 -0.0055  0.0356  0.2586
 6830PP      PP16934   0.275   2.961   1.408  0.1322 -0.0717  0.0100
 6831PP      PP16935   7.406   5.341   9.327  0.2932  0.2044  0.0128
 6832PP      PP16936   7.827   1.761  11.203 -0.1356 -0.1795 -0.2987
 6833PP      PP16937  10.510  12.100  12.187 -0.1132  0.1675  0.1286
 6834PP      PP16938   8.819   7.121   3.984 -0.1178  0.2463 -0.0759
 6835PP      PP16939   1.974   8.317   2.056  0.0624 -0.0052  0.0780
 6836PP      PP16940   0.544  12.069  11.979  0.3365  0.1998  0.1301
 6837PP      PP16941  12.554  14.492  10.316  0.3712 -0.4528 -0.0305
 6838PP      PP16942   6.852  10.946   0.519  0.1789 -0.0385 -0.1080
 6839PP      PP16943  13.269   6.734   9.614  0.5898 -0.2509  0.0885
 6840PP      PP16944  12.788  14.296  13.590 -0.0802 -0.1391  0.0117
 6841PP      PP16945   9.629  14.437  12.095 -0.1924 -0.1373  0.3710
 6842PP      PP16946   6.004   9.228   3.807  0.0079 -0.0695  0.1124
 6843PP      PP16947   2.259  10.793   9.682 -0.0758  0.0150  0.0760
 6844PP      PP16948   8.280  13.073   3.273 -0.1803  0.3367  0.2526
 6845PP      PP16949   4.322   5.522  13.454 -0.1221 -0.0994 -0.0129
 6846PP      PP16950   7.041   1.300  11.391 -0.2613  0.1811 -0.0934
 6847PP      PP16951  10.472   6.173   0.325  0.0344 -0.1159  0.3409
 6848PP      PP16952   3.568   2.990  13.173 -0.3156 -0.1977 -0.1322
 6849PP      PP16953   6.239   8.882   9.704 -0.0456  0.1219 -0.2427
 6850PP      PP16954  12.705   0.108  11.310 -0.0194  0.1588  0.2167
 6851PP      PP16955  13.330  14.639   0.577 -0.0054  0.1985 -0.1776
 6852PP      PP16956   8.056   9.458  11.314 -0.1214  0.2398 -0.1244
 6853PP      PP16957   8.010   0.527   2.203  0.2703  0.2310 -0.0220
 6854PP      PP16958   4.271   6.863   3.604  0.1762 -0.1966 -0.3273
 6855PP      PP16959  10.553   0.238   0.806 -0.0211  0.1356 -0.0445
 6856PP      PP16960   0.045  15.416  10.823  0.0114 -0.0226  0.0888
 6857PP      PP16961  14.501  15.214   1.416 -0.0625 -0.0763  0.0054
 6858PP      PP16962   5.761   2.569   8.474 -0.2480  0.1282 -0.4164
 6859PP      PP16963   7.132  15.465   9.921 -0.1354  0.0024 -0.0638
 6860PP      PP16964  11.684  12.040  10.175 -0.4764  0.2258 -0.0570
 6861PP      PP16965   7.184  13.477   9.855 -0.0923  0.1373 -0.0452
 6862PP      PP16966   2.109   4.309  10.589 -0.0842 -0.1539  0.4160
 6863PP      PP16967  12.203   6.807   4.699 -0.1755  0.2866  0.3466
 6864PP      PP16968   4.056   2.314   8.683  0.1545  0.3740 -0.2078
 6865PP      PP16969   6.776  15.480   0.105 -0.0139 -0.2222 -0.1330
 6866PP      PP16970   7.815   4.922   7.690 -0.1526 -0.1111  0.0537
 6867PP      PP16971   8.521  11.683   3.401  0.1404  0.2533 -0.2505
 6868PP      PP16972   0.409  15.353   2.999 -0.0847 -0.0070 -0.6031
 6869PP      PP16973  12.505  12.320   4.321 -0.0346  0.0570 -0.2074
 6870PP      PP16974   0.009  14.198  11.834 -0.3632 -0.1248 -0.0168
 6871PP      PP16975   6.353   2.362   2.426  0.0712 -0.1775 -0.0676
 6872PP      PP16976   9.328   5.089   9.515  0.2858 -0.2358 -0.0954
 6873PP      PP16977   4.250   2.762   8.678 -0.3288  0.0089 -0.0175
 6874PP      PP16978  14.842  15.591   1.665  0.0749  0.0935 -0.0588
 6875PP      PP16979   1.518   1.139   0.121  0.0376  0.1140 -0.1869
 6876PP      PP16980   5.830  11.107  13.383  0.0912 -0.1684  0.0751
 6877PP      PP16981  14.145  13.635  11.946 -0.0786  0.0741  0.1695
 6878PP      PP16982   4.946  12.660  12.322  0.2488  0.1374  0.0775
 6879PP      PP16983   2.344   4.942   0.565 -0.0099 -0.0824 -0.0026
 6880PP      PP16984   9.054   4.878   9.959 -0.1360 -0.2308  0.0859
 6881PP      PP16985  10.517   2.195  13.681  0.0053  0.3263 -0.0891
 6882PP      PP16986   6.199   2.875  13.573  0.0228 -0.0992 -0.3798
 6883PP      PP16987   8.832  13.750  12.176 -0.1433 -0.2750 -0.3435
 6884PP      PP16988  10.047  12.759   3.004  0.0521 -0.0957  0.2889
 6885PP      PP16989   4.477  10.078   3.057  0.2180 -0.1553  0.1119
 6886PP      PP16990   1.489   7.082  12.896 -0.0038 -0.0010 -0.0658
 6887PP      PP16991   3.843   9.168  12.408 -0.0187 -0.0030 -0.0858
 6888PP      PP16992   3.884   5.325   3.266  0.4146 -0.1087  0.1893
 6889PP      PP16993   2.646  13.605   2.565  0.4497 -0.1475  0.0616
 6890PP      PP16994   5.239   8.792   3.807  0.0490  0.1901  0.3318
 6891PP      PP16995  13.158   2.302   0.174 -0.1299 -0.3047 -0.0083
 6892PP      PP16996   7.687   2.471   2.694  0.0097  0.1093 -0.0662
 6893PP      PP16997   9.609  11.792   2.707 -0.0291  0.2021 -0.0881
 6894PP      PP16998   6.899   0.394   8.805  0.0423 -0.0203 -0.0825
 6895PP      PP16999   8.822  11.351   1.047 -0.0145  0.3633  0.2448
 6896PP      PP17000  14.266  12.551   1.018 -0.3293 -0.0442 -0.0584
 6897PP      PP17001   3.698  11.066  10.635  0.1305  0.1595 -0.1865
 6898PP      PP17002   8.126   1.100  12.152 -0.1866  0.1028  0.3484
 6899PP      PP17003   1.826   3.156  12.116 -0.1351  0.3702 -0.0705
 6900PP      PP17004  13.119   9.912  10.474 -0.0390 -0.0367  0.2297
 6901PP      PP17005   7.652   9.287   9.731  0.0995 -0.0630  0.0960
 6902PP      PP17006  15.188   7.424   2.292 -0.0118 -0.0716 -0.0311
 6903PP      PP17007   1.230   6.800   9.860  0.0656 -0.0610  0.0653
 6904PP      PP17008   4.712   0.082  12.607 -0.2230  0.2073  0.1664
 6905PP      PP17009  10.368   8.450  11.353  0.3056 -0.0040 -0.0686
 6906PP      PP17010  12.468   0.714   2.678  0.0095 -0.3002 -0.1735
 6907PP      PP17011   3.579  12.089   1.947  0.0290  0.1624  0.0064
 6908PP      PP17012  12.043   8.982  10.887 -0.0304  0.2469  0.1428
 6909PP      PP17013  14.546   4.076   4.073  0.0948  0.0372 -0.1091
 6910PP      PP17014  10.708  13.059   5.010  0.2766 -0.3128 -0.0959
 6911PP      PP17015   3.938  10.585   9.848  0.2134  0.1177 -0.1265
 6912PP      PP17016  12.945   1.380  11.989  0.2340  0.3019  0.4162
 6913PP      PP17017  12.141   1.763   0.107 -0.2027 -0.1380  0.3774
 6914PP      PP17018   7.942   3.824  10.218  0.2406 -0.1542 -0.1783
 6915PP      PP17019   8.087   0.679   0.970 -0.0216  0.2166 -0.2839
 6916PP      PP17020  11.051  15.432  10.544  0.2528 -0.0778  0.4187
 6917PP      PP17021  14.799   7.069  12.341  0.1207  0.1137  0.1792
 6918PP      PP17022  12.690   1.552  10.237 -0.0485  0.3086  0.2309
 6919PP      PP17023  14.360   6.106  12.290 -0.1138 -0.2287  0.2314
 6920PP      PP17024   3.517  15.736  10.619  0.3832  0.3137  0.3124
 6921PP      PP17025   2.677   6.206   9.525 -0.0738 -0.1388  0.1312
 6922PP      PP17026  14.062   2.011   0.086  0.4164  0.0512  0.4469
 6923PP      PP17027   7.390   5.803  10.071 -0.0225 -0.0765 -0.0806
 6924PP      PP17028   8.602   0.690   8.799  0.0676  0.1080  0.0801
 6925PP      PP17029   8.972   0.466   3.471  0.1191  0.0370 -0.2165
 6926PP      PP17030   9.932   9.724   3.193 -0.0086 -0.2121 -0.2121
 6927PP      PP17031  15.668  10.954   2.540  0.0089 -0.0278 -0.0649
 6928PP      PP17032  12.008  11.297   4.672 -0.3620  0.1864 -0.0091
 6929PP      PP17033   9.124   8.250   9.937 -0.0978  0.1760  0.0545
 6930PP      PP17034   1.154   3.948   1.086 -0.1875  0.5083  0.0239
 6931PP      PP17035   0.739   9.935   2.664 -0.3507 -0.0430 -0.0074
 6932PP      PP17036   6.234   9.332   9.892 -0.0218 -0.0749 -0.0499
 6933PP      PP17037   2.733  13.600  10.414 -0.0950 -0.1081 -0.0779
 6934PP      PP17038  10.262  15.502  11.770 -0.1097  0.0987 -0.3844
 6935PP      PP17039  11.657   4.103  13.480  0.1008 -0.2634 -0.2199
 6936PP      PP17040  15.479   8.172   4.143 -0.1775  0.1780  0.1396
 6937PP      PP17041   1.478  11.927  12.476  0.2082 -0.1595 -0.2052
 6938PP      PP17042   0.870   3.039  12.933 -0.0323  0.0290 -0.1273
 6939PP      PP17043   8.691  15.517   1.880  0.3462 -0.4505 -0.3629
 6940PP      PP17044  12.976   6.174  10.989  0.1545 -0.1347 -0.4002
 6941PP      PP17045  15.449   5.919  11.011  0.4642 -0.0203 -0.0953
 6942PP      PP17046  14.109   8.165  10.275  0.1324 -0.0836 -0.0941
 6943PP      PP17047  10.641   3.833   9.894 -0.2103  0.2040 -0.1255
 6944PP      PP17048   5.064   0.023   3.256  0.1715 -0.0959 -0.0753
 6945PP      PP17049  13.533   9.041   1.928 -0.1089  0.0721  0.1212
 6946PP      PP17050  14.977   0.471  13.201  0.0800  0.2533 -0.1239
 6947PP      PP17051  12.680  14.330   0.266  0.1566 -0.4549 -0.0637
 6948PP      PP17052  12.354   6.978   2.357  0.0931  0.1814 -0.1227
 6949PP      PP17053   4.602  11.984  11.254  0.2575 -0.0634  0.1866
 6950PP      PP17054   3.532   8.585  11.444  0.1111  0.0013  0.2704
 6951PP      PP17055   9.260   0.136   9.107 -0.2555  0.1616 -0.1885
 6952PP      PP17056   4.189   9.637  10.271  0.0410 -0.3704 -0.0115
 6953PP      PP17057   6.730  14.814  10.928 -0.3592  0.1137  0.2335
 6954PP      PP17058  11.038   6.575  11.468  0.1345  0.3695  0.1781
 6955PP      PP17059   3.605   8.967  10.123 -0.0219  0.0435  0.3042
 6956PP      PP17060   6.953   3.049   9.568 -0.1550 -0.3014 -0.0899
 6957PP      PP17061   2.018  11.690   4.127  0.0104 -0.1962 -0.2637
 6958PP      PP17062   4.586  11.478  11.150 -0.0801  0.0137  0.1300
 6959PP      PP17063   8.227   1.589   3.363  0.0272  0.1955 -0.1053
 6960PP      PP17064   9.185   1.434   1.867  0.1530  0.0844  0.1643
 6961PP      PP17065   5.141   4.165   9.946 -0.0206 -0.1187  0.0336
 6962PP      PP17066   2.410  11.562  10.455 -0.1515 -0.2478  0.0731
 6963PP      PP17067  14.712   8.404  13.198 -0.1981 -0.1759 -0.1832
 6964PP      PP17068   4.003   5.250  11.290  0.3664  0.0470  0.2048
 6965PP      PP17069  10.452   2.393   9.440  0.1908  0.5292  0.0932
 6966PP      PP17070   9.849   0.606   0.259 -0.1212  0.1071 -0.0695
 6967PP      PP17071  13.416  11.941  12.530  0.1359  0.1462 -0.1541
 6968PP      PP17072   6.670  10.142  13.327  0.1501 -0.1017  0.1619
 6969PP      PP17073   7.538  14.708   1.608 -0.0048 -0.0137 -0.0731
 6970PP      PP17074  15.428   5.138   2.339  0.0984  0.3157 -0.2506
 6971PP      PP17075   2.938   9.472   4.641 -0.2291 -0.1128 -0.4475
 6972PP      PP17076  10.340   2.724  13.617  0.2362 -0.1826 -0.2495
 6973PP      PP17077  10.114  14.857   3.667  0.2570 -0.0773 -0.2540
 6974PP      PP17078   0.326  12.134   3.089 -0.0113 -0.1363 -0.2875
 6975PP      PP17079   4.043  14.264  13.521 -0.4310 -0.2609  0.2255
 6976PP      PP17080   2.060   7.837   0.921  0.3038 -0.1759  0.0952
 6977PP      PP17081   9.563   2.133  11.942  0.3030 -0.1963 -0.1721
 6978PP      PP17082   0.232   8.240  12.543 -0.1045 -0.0761  0.1307
 6979PP      PP17083   2.189   5.295  10.461 -0.2474  0.0264 -0.3144
 6980PP      PP17084   2.057   3.693  11.613  0.1629 -0.0949 -0.5209
 6981PP      PP17085   1.583   6.488  12.621 -0.0167  0.1457 -0.1003
 6982PP      PP17086  11.646  13.375   2.280 -0.4634 -0.0283 -0.0475
 6983PP      PP17087   9.097   8.640   3.302 -0.0374  0.1021  0.2051
 6984PP      PP17088   9.390  10.845   4.165  0.2627 -0.1635 -0.0342
 6985PP      PP17089   0.216   9.297   1.908 -0.1038 -0.1728  0.1020
 6986PP      PP17090   0.844   6.227  11.910  0.0280 -0.1392  0.1528
 6987PP      PP17091  11.181  14.652   2.038 -0.0858  0.0846 -0.0824
 6988PP      PP17092  13.358   7.121  10.008 -0.1377  0.3368  0.1722
 6989PP      PP17093   6.135   3.321  13.286 -0.3271  0.3063  0.0049
 6990PP      PP17094  11.462   8.449   3.629 -0.2021  0.2757 -0.1464
 6991PP      PP17095  12.361   3.494  12.411 -0.3044  0.2159 -0.6205
 6992PP      PP17096   1.120  13.234  13.634  0.1641  0.0542  0.0249
 6993PP      PP17097   1.910  15.578   2.232  0.0719  0.1864  0.0174
 6994PP      PP17098  11.561  10.160  11.438 -0.0020 -0.1151  0.1490
 6995PP      PP17099   4.861   4.823   1.620 -0.1110 -0.2114 -0.1181
 6996PP      PP17100   7.853   1.151   3.607 -0.1564 -0.0511 -0.0138
 6997PP      PP17101   8.676   9.987   1.610 -0.0359  0.0628 -0.0420
 6998PP      PP17102   6.481   0.388   2.849  0.0873  0.2632  0.1044
 6999PP      PP17103  12.209  10.592  13.757  0.0151  0.2983  0.1513
 7000PP      PP17104   1.464  15.030  10.348  0.0238 -0.0919  0.1892
 7001PP      PP17105   5.924  14.293  11.984  0.0288 -0.0569  0.1725
 7002PP      PP17106  12.644   2.509   3.439 -0.2163  0.0060 -0.0773
 7003PP      PP17107  14.938   9.240   1.755 -0.1308  0.0987 -0.3437
 7004PP      PP17108   5.321   0.156  10.450 -0.1119  0.2788 -0.1571
 7005PP      PP17109   7.327   4.122   2.415  0.0083  0.0262  0.2306
 7006PP      PP17110   0.133  15.233   9.795  0.2132  0.4482  0.0815
 7007PP      PP17111   8.685  13.382  12.580 -0.1661 -0.2362  0.0625
 7008PP      PP17112   8.166   5.391   0.298 -0.1257 -0.1785  0.2367
 7009PP      PP17113   7.332   7.077   1.485  0.1902  0.1176  0.1155
 7010PP      PP17114   9.599  10.330   2.737  0.2227  0.0768 -0.4189
 7011PP      PP17115   3.328   7.776  11.194 -0.0307  0.1182 -0.1067
 7012PP      PP17116   8.702   9.518   1.528  0.0518  0.2668 -0.2907
 7013PP      PP17117  11.156  13.633   4.014  0.0210 -0.2178 -0.0135
 7014PP      PP17118   1.712   5.550   2.154 -0.1849  0.2121 -0.0144
 7015PP      PP17119   6.672   6.425   2.169 -0.2137 -0.0003  0.0804
 7016PP      PP17120   9.747   2.163   0.071  0.1069 -0.3816  0.0915
 7017PP      PP17121   9.770  15.289  11.821  0.1607 -0.1300  0.0255
 7018PP      PP17122   4.170   3.333  12.868 -0.0921  0.0041  0.1469
 7019PP      PP17123   1.343   8.810   3.358  0.0512  0.0016 -0.1432
 7020PP      PP17124  11.590   9.495   2.308 -0.1347 -0.0591  0.2164
 7021PP      PP17125   5.290   4.148   1.350 -0.1958  0.0950 -0.1810
 7022PP      PP17126   3.307   1.128   9.693 -0.0164  0.0668  0.0128
 7023PP      PP17127   1.889  13.682  12.034 -0.1734 -0.0057  0.2661
 7024PP      PP17128  13.468  15.558  12.049 -0.0512 -0.1036  0.0108
 7025PP      PP17129   3.385   4.667   3.648 -0.1206 -0.1173  0.0823
 7026PP      PP17130   8.456   4.529   3.098 -0.1638 -0.0458  0.1675
 7027PP      PP17131   7.611   3.813  12.581 -0.0304  0.2867 -0.1600
 7028PP      PP17132   1.862  14.833   5.036 -0.2233 -0.1139  0.1317
 7029PP      PP17133  10.088   4.730   0.292 -0.2702  0.2791 -0.2328
 7030PP      PP17134  15.590  12.045   3.791  0.1491 -0.0348 -0.4513
 7031PP      PP17135   7.661  12.205   2.594 -0.0056  0.0280  0.1331
 7032PP      PP17136   5.361   7.291  11.305 -0.0330  0.1894 -0.3549
 7033PP      PP17137   0.384  12.886   0.706  0.0061 -0.0838  0.5446
 7034PP      PP17138   6.238  12.966   1.594  0.0417 -0.1647  0.1880
 7035PP      PP17139  14.977  12.067   2.121 -0.2376 -0.0882 -0.1825
 7036PP      PP17140  10.947  11.972   4.301 -0.0419  0.0073 -0.1750
 7037PP      PP17141   8.702   8.564   3.673  0.0936 -0.1585  0.0844
 7038PP      PP17142   8.250   0.596  12.451 -0.2023  0.2617 -0.1113
 7039PP      PP17143  12.228  14.376  10.740 -0.0012 -0.1462 -0.0899
 7040PP      PP17144   8.138   1.721   1.787  0.1233  0.0021 -0.3881
 7041PP      PP17145   8.049   9.310  11.939  0.1881 -0.0123 -0.2004
 7042PP      PP17146  11.959   1.676   4.315 -0.0220  0.1719 -0.0832
 7043PP      PP17147   1.273  10.016  10.007 -0.1219  0.1212 -0.1247
 7044PP      PP17148   5.602   3.657  12.185 -0.0285  0.4592 -0.1769
 7045PP      PP17149  15.019  10.300  10.670 -0.1034  0.1971 -0.0496
 7046PP      PP17150   0.914  11.481  11.775  0.1692  0.0790 -0.1690
 7047PP      PP17151   9.049   9.427  13.537  0.2185  0.1793  0.1405
 7048PP      PP17152  10.160   6.335   0.706 -0.1448  0.0485 -0.0060
 7049PP      PP17153  12.174   6.573   2.609 -0.3030 -0.0359  0.0114
 7050PP      PP17154   9.840   0.546   1.346 -0.3267 -0.0989 -0.3267
 7051PP      PP17155   7.031  13.776  10.177  0.0176 -0.2141 -0.3822
 7052PP      PP17156   3.237   7.957   2.072 -0.1573 -0.1770 -0.0611
 7053PP      PP17157  12.349   7.497  11.705  0.1596 -0.0028  0.2108
 7054PP      PP17158  11.505   5.431  13.405  0.2299 -0.0131 -0.0323
 7055PP      PP17159  14.900   4.208   3.314  0.0348  0.1385 -0.4060
 7056PP      PP17160  13.584  13.723  13.171  0.1034 -0.0829  0.0138
 7057PP      PP17161   9.255  12.359   2.638  0.4039 -0.2349  0.1667
 7058PP      PP17162   1.559   7.367  11.496  0.1477 -0.0645  0.1251
 7059PP      PP17163   1.522   8.976   0.976  0.1341 -0.1872 -0.0355
 7060PP      PP17164   0.246  10.526  13.638 -0.0634 -0.1061  0.2688
 7061PP      PP17165  10.870  13.456   0.658 -0.1057  0.0540 -0.0046
 7062PP      PP17166   3.398   4.310  11.332 -0.2664  0.0290 -0.0865
 7063PP      PP17167  15.584   3.812   4.328  0.0709  0.3767  0.3087
 7064PP      PP17168  11.365   5.029   2.134 -0.1547  0.2172  0.0944
 7065PP      PP17169  11.900  12.542   0.781 -0.0231 -0.4308  0.2396
 7066PP      PP17170   4.088  14.632   9.142  0.1393 -0.1444  0.2497
 7067PP      PP17171   7.182   5.335   1.227  0.0176 -0.0721  0.1337
 7068PP      PP17172   2.828   0.849   2.698  0.0321 -0.1006  0.3150
 7069PP      PP17173  11.326   6.471   3.516 -0.2360  0.1714 -0.1718
 7070PP      PP17174   2.394  12.731   8.768  0.2120 -0.2576  0.0365
 7071PP      PP17175   9.583   6.618   2.906 -0.3516  0.0314 -0.0244
 7072PP      PP17176   6.859   8.133  10.983  0.1078 -0.0093 -0.0660
 7073PP      PP17177  14.350   0.680  11.390  0.3747 -0.1156 -0.3365
 7074PP      PP17178  12.874   3.667   1.489 -0.0095 -0.0763  0.3785
 7075PP      PP17179   4.894  15.721   9.689 -0.0633  0.4348 -0.0419
 7076PP      PP17180   3.405   0.405   1.587 -0.2034 -0.1328  0.0488
 7077PP      PP17181   4.726  11.234   0.670  0.0110 -0.1675 -0.2499
 7078PP      PP17182   7.022   5.786  13.013  0.0540  0.0765 -0.3734
 7079PP      PP17183   4.385   6.472   4.297  0.2516  0.1582  0.0889
 7080PP      PP17184   1.335   7.928   3.682  0.2917 -0.2544  0.3007
 7081PP      PP17185  14.591  11.678  10.634 -0.0612  0.1249  0.0086
 7082PP      PP17186  12.380  15.143   2.345 -0.0399 -0.1233  0.0364
 7083PP      PP17187  11.171   3.582   9.891 -0.1208 -0.2941 -0.1145
 7084PP      PP17188  12.947  11.079  10.740  0.2419  0.0921 -0.1199
 7085PP      PP17189  15.170  15.052  11.857 -0.0848 -0.1470  0.0424
 7086PP      PP17190   4.495  15.382   1.064 -0.0864 -0.0190 -0.1337
 7087PP      PP17191   3.023   6.433  11.753 -0.0628 -0.4105  0.1906
 7088PP      PP17192   3.139   3.208  12.164  0.4044 -0.0542 -0.0787
 7089PP      PP17193  11.966   7.754   5.178 -0.1591  0.1118 -0.1581
 7090PP      PP17194   5.028   0.038  13.594 -0.0614 -0.2371  0.0943
 7091PP      PP17195   2.561   7.408  11.697  0.0044 -0.2449 -0.3067
 7092PP      PP17196  10.046   1.765  13.164 -0.1875  0.1399  0.0703
 7093PP      PP17197   1.958   6.374   3.791  0.0126  0.1144  0.4232
 7094PP      PP17198   7.824   3.451   9.810  0.1400  0.1459  0.0496
 7095PP      PP17199   0.539   8.295  10.552 -0.5400  0.0414  0.0131
 7096PP      PP17200   6.907   3.380  11.762 -0.1004 -0.2129 -0.1812
 7097PP      PP17201  10.731   7.761  10.550 -0.1795  0.1657 -0.1996
 7098PP      PP17202   6.156   3.841  11.256 -0.4905 -0.1639 -0.2099
 7099PP      PP17203   4.576   7.023  12.731 -0.0203 -0.0717 -0.0142
 7100PP      PP17204   8.879   5.561   2.261 -0.1681  0.1180  0.0282
 7101PP      PP17205   7.819   5.886  10.437 -0.2794 -0.2726  0.2031
 7102PP      PP17206  12.227  11.921   3.541  0.2435  0.2973  0.3429
 7103PP      PP17207   0.871   8.543   9.686  0.1009 -0.1692  0.1459
 7104PP      PP17208   8.681   3.260   9.959 -0.0489  0.0398 -0.0856
 7105PP      PP17209   0.603   5.922  13.008 -0.2757 -0.0100  0.0960
 7106PP      PP17210  14.201  13.777   0.738 -0.1575  0.0876  0.2647
 7107PP      PP17211   0.903  14.584   4.214  0.2897  0.0094  0.1467
 7108PP      PP17212   2.763   1.741   9.456 -0.2682 -0.1654 -0.1290
 7109PP      PP17213  15.736   3.340  10.512 -0.1409 -0.0743 -0.1512
 7110PP      PP17214  14.959  12.669  12.471 -0.4729 -0.1865  0.2120
 7111PP      PP17215   7.793   4.824  10.618 -0.1667  0.1521  0.1028
 7112PP      PP17216   2.859  11.259  11.685  0.0218 -0.1818 -0.1834
 7113PP      PP17217  10.195  11.271   2.915  0.2575  0.1638  0.2781
 7114PP      PP17218  14.297  13.820  10.731  0.1674  0.1947  0.0544
 7115PP      PP17219  11.160   3.576   1.068 -0.0216  0.1204 -0.1660
 7116PP      PP17220   7.976   2.269   7.726  0.2188 -0.2520  0.2416
 7117PP      PP17221   3.168   7.118   0.440  0.1965 -0.0604 -0.2447
 7118PP      PP17222  14.195  12.871   4.834 -0.1204 -0.0810 -0.0678
 7119PP      PP17223  12.041  11.084   9.534  0.0270  0.3951 -0.0490
 7120PP      PP17224   5.078  15.368   9.281  0.1789 -0.2192 -0.3548
 7121PP      PP17225   4.536  10.051  10.239  0.0566 -0.0233 -0.0035
 7122PP      PP17226   9.693  13.548   3.806 -0.0083  0.0071 -0.1550
 7123PP      PP17227   7.365   5.050   0.443 -0.2382  0.0423 -0.0708
 7124PP      PP17228  10.190   9.872   0.986  0.0176 -0.0995 -0.1078
 7125PP      PP17229   7.479   2.661  13.141  0.1957  0.3526  0.1478
 7126PP      PP17230   0.923   5.264  12.396  0.1333 -0.0248 -0.0910
 7127PP      PP17231   6.024   4.955   1.259  0.0645 -0.1364 -0.0180
 7128PP      PP17232   5.566   8.471   9.848  0.0071  0.2055 -0.3899
 7129PP      PP17233  12.524   0.288   4.228  0.1102 -0.0024  0.1481
 7130PP      PP17234   0.643   7.319   2.358 -0.0474 -0.0102 -0.0705
 7131PP      PP17235   6.325   3.062   8.765  0.0156  0.0732  0.2987
 7132PP      PP17236   7.629   2.418   1.252  0.1123  0.0294 -0.0460
 7133PP      PP17237   6.463   8.237   3.375 -0.0254 -0.2354  0.0698
 7134PP      PP17238   1.397  11.047  10.742  0.3177 -0.1548  0.0070
 7135PP      PP17239  15.261  15.375   1.365 -0.2147  0.2152 -0.0414
 7136PP      PP17240  15.160  13.380   4.001 -0.0459 -0.3642 -0.0479
 7137PP      PP17241   3.139   4.323  13.020  0.1263 -0.1898  0.0901
 7138PP      PP17242   0.449   9.650  12.089 -0.0290 -0.1269 -0.0457
 7139PP      PP17243   8.427   9.977   4.745 -0.0185  0.3333 -0.5355
 7140PP      PP17244   6.156  10.827  11.849  0.1858 -0.1913  0.0279
 7141PP      PP17245  14.852  15.189   9.518  0.1293  0.1071 -0.0706
 7142PP      PP17246   6.036  14.535  12.432 -0.0746  0.0579 -0.0123
 7143PP      PP17247  14.189   6.055  11.451 -0.0310  0.1260  0.1166
 7144PP      PP17248   2.980  13.425  12.284 -0.0919 -0.3636 -0.1727
 7145PP      PP17249  13.313   9.426   2.800 -0.2162 -0.1199 -0.0069
 7146PP      PP17250  10.734   4.920   3.895  0.0352  0.1315  0.1228
 7147PP      PP17251   5.298  11.312   4.545  0.1856 -0.2353  0.0589
 7148PP      PP17252  12.799  15.509   2.539  0.3378  0.0286  0.0368
 7149PP      PP17253   5.412   9.847   0.075 -0.4835 -0.0915  0.3363
 7150PP      PP17254   7.770  14.960   1.127  0.2300 -0.0244  0.0301
 7151PP      PP17255   3.759   1.827  12.180 -0.2507  0.0600  0.1669
 7152PP      PP17256   6.430   9.860   4.415 -0.2478 -0.1138 -0.2349
 7153PP      PP17257   3.341   2.569  12.628 -0.2378  0.2074  0.0569
 7154PP      PP17258   6.569   6.536  10.149 -0.1707  0.1730  0.0596
 7155PP      PP17259   6.919  13.018  13.385  0.2831  0.0856 -0.3146
 7156PP      PP17260   1.968   9.664   4.249 -0.0827 -0.0831 -0.1588
 7157PP      PP17261   5.577   3.883   2.421  0.0673 -0.2643 -0.0193
 7158PP      PP17262   2.275   8.665   1.412  0.2683  0.0521 -0.0681
 7159PP      PP17263  13.528   3.727   2.225 -0.1238 -0.1424  0.1646
 7160PP      PP17264   2.185   3.091   4.013 -0.0338  0.1989  0.0210
 7161PP      PP17265   0.004  11.820  11.150  0.1093  0.0672  0.1557
 7162PP      PP17266   9.749  11.297   3.753 -0.2900 -0.1522  0.1888
 7163PP      PP17267  15.596  13.121   4.174 -0.2453  0.1342  0.0397
 7164PP      PP17268  12.340   0.533   1.820  0.2663  0.2555 -0.0468
 7165PP      PP17269   6.730   9.426  13.712 -0.1521 -0.1706 -0.5079
 7166PP      PP17270  13.655   2.324  11.989 -0.0723 -0.2630 -0.0078
 7167PP      PP17271  11.017   6.933   9.961  0.0786  0.1911 -0.0885
 7168PP      PP17272   2.943  10.067  11.453 -0.0464 -0.0668 -0.5085
 7169PP      PP17273   8.628   5.665   8.799 -0.3375  0.0840  0.3479
 7170PP      PP17274   0.846   8.004  11.614 -0.1961 -0.1436  0.0449
 7171PP      PP17275   3.836   5.231   9.153  0.0386 -0.2206 -0.0140
 7172PP      PP17276   0.595   3.328  10.339 -0.1880  0.0098 -0.0990
 7173PP      PP17277   5.919   0.192  10.656 -0.0912 -0.1891 -0.2470
 7174PP      PP17278  12.224  10.836   1.449 -0.0860  0.1029  0.3660
 7175PP      PP17279  10.738   1.867   3.188 -0.3191  0.0357  0.0795
 7176PP      PP17280   2.201   3.887   3.273 -0.2058 -0.0777 -0.0146
 7177PP      PP17281   9.882   3.015  11.026  0.1296 -0.1165 -0.0482
 7178PP      PP17282  12.565   7.858   3.934  0.0458  0.1778 -0.0662
 7179PP      PP17283  12.635  12.945   3.089 -0.0512  0.1963  0.3534
 7180PP      PP17284   1.626  12.855  13.615 -0.1048 -0.0458 -0.2679
 7181PP      PP17285   9.382   2.362   1.803  0.2275 -0.1547 -0.1624
 7182PP      PP17286   0.545   9.700  13.466  0.1359  0.1961 -0.0361
 7183PP      PP17287   8.530   6.642   2.852  0.0525 -0.0164 -0.0895
 7184PP      PP17288   0.540  13.959   2.063 -0.1432  0.3293 -0.2417
 7185PP      PP17289  13.400   2.884   9.266 -0.4562  0.0681 -0.1172
 7186PP      PP17290   9.947   0.932   4.148 -0.2884  0.4952 -0.1390
 7187PP      PP17291   4.934   3.280   0.786  0.0920 -0.1571 -0.1088
 7188PP      PP17292   8.764   5.927  13.503 -0.2725 -0.0037  0.1675
 7189PP      PP17293   9.394   4.252   8.558 -0.2676 -0.1329 -0.0036
 7190PP      PP17294   2.853   8.911   3.578 -0.0632 -0.0252  0.1073
 7191PP      PP17295  10.130   4.768  11.259  0.1470  0.1483 -0.3618
 7192PP      PP17296   6.837  14.699   0.576 -0.1656  0.1124 -0.1960
 7193PP      PP17297  14.444   6.700   5.143 -0.1457 -0.0852  0.1319
 7194PP      PP17298   6.718   5.478   9.319 -0.0037  0.1799 -0.1128
 7195PP      PP17299  11.918   7.938  12.487  0.0468  0.0459 -0.5294
 7196PP      PP17300   9.299  13.336   2.913  0.0706 -0.2460 -0.3648
 7197PP      PP17301  10.078  13.208  12.725  0.2297 -0.1262 -0.1702
 7198PP      PP17302  14.901  13.987  13.691 -0.2137  0.1725  0.0517
 7199PP      PP17303   9.103   1.145   8.660 -0.3467  0.1016  0.0428
 7200PP      PP17304   4.003   7.035   1.684  0.0577 -0.0397  0.1028
 7201PP      PP17305   9.115   5.890   8.902 -0.0434 -0.0875  0.2415
 7202PP      PP17306   4.244  15.670  12.349 -0.2347 -0.0606 -0.1838
 7203PP      PP17307   9.396   9.538  11.398 -0.1784 -0.3414  0.2781
 7204PP      PP17308  11.714   0.370   2.984 -0.1661 -0.2530 -0.0821
 7205PP      PP17309   9.349   5.768   0.938  0.0775 -0.0532 -0.1303
 7206PP      PP17310   0.305  12.231   2.154  0.2125 -0.1097 -0.1322
 7207PP      PP17311   3.852   3.838  11.299  0.1119  0.0300 -0.1362
 7208PP      PP17312   3.060   3.380  11.518 -0.0776  0.0879 -0.0787
 7209PP      PP17313   0.597  13.242  10.145 -0.3701 -0.1424  0.2357
 7210PP      PP17314   7.440  11.597  10.419  0.3266  0.1899  0.0213
 7211PP      PP17315   2.874   6.243   2.849  0.2313 -0.2766 -0.3280
 7212PP      PP17316   5.822   7.764   2.509  0.1496  0.3347 -0.2539
 7213PP      PP17317  10.076  13.197   2.443 -0.2634  0.2096 -0.1356
 7214PP      PP17318  11.388   5.622   4.709 -0.0402  0.2459  0.1540
 7215PP      PP17319   7.936   4.104  12.817  0.1281 -0.0889 -0.2166
 7216PP      PP17320   4.123   0.115   9.940 -0.1444  0.0188  0.0024
 7217PP      PP17321   0.591  10.505   1.747 -0.2281  0.2794  0.4049
 7218PP      PP17322   0.155   7.647  13.403  0.1131 -0.0458 -0.2057
 7219PP      PP17323   0.989   1.010  11.162  0.0455  0.2095  0.1206
 7220PP      PP17324   1.626   9.924   4.513 -0.0215  0.0309 -0.0894
 7221PP      PP17325   9.245   4.975  12.851 -0.1915  0.0668 -0.0506
 7222PP      PP17326   8.315  11.955   9.953 -0.1886  0.1248 -0.1430
 7223PP      PP17327  11.753   9.481   2.778 -0.1641 -0.0329  0.1768
 7224PP      PP17328   9.193  13.821   4.600  0.1265  0.1021 -0.2022
 7225PP      PP17329   0.945  15.482  11.951  0.0740 -0.2356  0.2779
 7226PP      PP17330   4.119  11.528   2.667  0.1205  0.1248  0.0619
 7227PP      PP17331   8.763   3.403   2.909 -0.2013  0.2610  0.4685
 7228PP      PP17332   1.952  11.245   2.551 -0.3181 -0.0168 -0.2039
 7229PP      PP17333   2.208  13.944   0.979  0.5394  0.0594 -0.2299
 7230PP      PP17334   7.426  10.815  10.066  0.0796  0.2379 -0.0298
 7231PP      PP17335   1.436   6.260   0.303  0.0020  0.2582 -0.2202
 7232PP      PP17336   3.475  10.872   2.742  0.0281 -0.0984  0.2055
 7233PP      PP17337   6.559   8.660  10.360  0.2894  0.4082 -0.3382
 7234PP      PP17338   4.753   0.415  11.152 -0.1012 -0.0591 -0.0548
 7235PP      PP17339   2.372   8.031   3.880 -0.2147 -0.0484  0.0561
 7236PP      PP17340  11.208   0.263  13.269 -0.2310  0.4410 -0.2287
 7237PP      PP17341  12.737   1.604   9.360  0.2129  0.1558  0.0017
 7238PP      PP17342   3.731  13.913   4.350 -0.0822 -0.0660  0.1038
 7239PP      PP17343   3.623  14.397   0.986 -0.1718 -0.2054  0.2657
 7240PP      PP17344   4.335   8.636   2.404  0.3520 -0.1999  0.0621
 7241PP      PP17345  14.670   6.998   2.936  0.2322  0.2664  0.1285
 7242PP      PP17346  10.024   7.687   2.208  0.2908  0.1027 -0.1295
 7243PP      PP17347  12.431   9.377   3.181 -0.0394  0.0684 -0.0216
 7244PP      PP17348   4.849  13.578   4.296 -0.2423  0.1848 -0.0824
 7245PP      PP17349   4.565  14.821  13.305  0.0577  0.2616 -0.2829
 7246PP      PP17350   9.288   0.478  13.264  0.1187 -0.2662  0.1017
 7247PP      PP17351   8.855  13.211   0.637 -0.0046  0.1249 -0.0449
 7248PP      PP17352  12.827   0.733   4.350 -0.1395 -0.1034  0.0625
 7249PP      PP17353   9.514  12.787  12.013 -0.2300 -0.2335  0.0927
 7250PP      PP17354   7.168  12.056  13.489  0.1105  0.2331 -0.2200
 7251PP      PP17355   1.616   6.060  10.852 -0.0214  0.0981 -0.2350
 7252PP      PP17356  10.588  10.376  11.625 -0.3500  0.3034  0.0629
 7253PP      PP17357   4.234  10.787   4.176  0.1362  0.0231 -0.0130
 7254PP      PP17358   1.931  12.797   3.649 -0.3706 -0.2582  0.0452
 7255PP      PP17359   5.636   0.332   0.957 -0.0745 -0.2161  0.0283
 7256PP      PP17360  14.585   2.622   9.157 -0.1879  0.3413 -0.0721
 7257PP      PP17361  14.764   3.574   1.315 -0.2404 -0.2033  0.0666
 7258PP      PP17362  11.639  13.814   4.007  0.2265 -0.1553  0.1124
 7259PP      PP17363  10.718  14.969   0.540  0.1994 -0.2354 -0.2727
 7260PP      PP17364   7.038  14.827  12.760  0.0800  0.0803  0.0226
 7261PP      PP17365  13.925   7.322   0.301  0.1526  0.1493 -0.0280
 7262PP      PP17366   6.963  11.667   3.076  0.2726 -0.1912 -0.1216
 7263PP      PP17367   8.546  15.210   1.469  0.1649 -0.0389  0.0481
 7264PP      PP17368   7.962  11.371   0.020  0.2790 -0.0586 -0.0194
 7265PP      PP17369   9.645  13.773   4.405 -0.0032 -0.1419  0.1007
 7266PP      PP17370   9.302  11.321   4.007 -0.0374 -0.0188 -0.1829
 7267PP      PP17371   0.778  14.277   1.744  0.0919 -0.3014  0.2118
 7268PP      PP17372   3.647   9.902   1.381 -0.2671 -0.0925  0.1001
 7269PP      PP17373  12.460  12.114   2.083 -0.1620  0.1943 -0.0261
 7270PP      PP17374   8.159  10.555   4.142  0.2123  0.3299 -0.2114
 7271PP      PP17375  10.222  11.720  13.038 -0.0791 -0.1878  0.0616
 7272PP      PP17376  11.980  13.247  13.379  0.0058  0.1537 -0.1606
 7273PP      PP17377  11.789   4.661   2.159 -0.2598 -0.0061  0.2093
 7274PP      PP17378  11.017   0.368   2.098  0.2570  0.1717 -0.2807
 7275PP      PP17379   6.753   2.806   2.032  0.3076  0.2059  0.2163
 7276PP      PP17380   4.891   7.161  12.297  0.4598  0.0163  0.1592
 7277PP      PP17381   5.850  10.806  10.495  0.1163  0.0273  0.4352
 7278PP      PP17382   1.618  14.186  11.094  0.0786  0.2424 -0.0233
 7279PP      PP17383  15.640   5.908   2.471 -0.1722 -0.4595 -0.1858
 7280PP      PP17384   6.133   8.785  12.118 -0.2880 -0.2546 -0.0825
 7281PP      PP17385  12.689   0.257   9.071 -0.3327 -0.0089  0.0667
 7282PP      PP17386  14.505   2.160  13.659  0.2578 -0.0663  0.3510
 7283PP      PP17387   3.555   8.677  13.252  0.1295 -0.1606  0.0644
 7284PP      PP17388  10.048   6.520  12.953  0.0324 -0.0032  0.0393
 7285PP      PP17389   2.339   8.147  11.574 -0.0728  0.0379  0.2145
 7286PP      PP17390  10.926  11.812  13.645  0.1197 -0.2181 -0.0041
 7287PP      PP17391  10.712  15.362   2.579 -0.2925 -0.1161 -0.0516
 7288PP      PP17392   3.388  10.372   3.747 -0.1077 -0.0022  0.2616
 7289PP      PP17393   8.378   3.167  11.982 -0.0174 -0.0215 -0.1672
 7290PP      PP17394   4.288   4.007   9.906 -0.1689  0.1579 -0.3315
 7291PP      PP17395   5.280  13.009   2.309  0.0553  0.0815 -0.1735
 7292PP      PP17396   6.193   1.481  13.389 -0.1491  0.2617  0.3823
 7293PP      PP17397   9.323   0.105   4.498 -0.1751  0.0365  0.0749
 7294PP      PP17398   3.903   5.757  12.220  0.1647  0.0537  0.3972
 7295PP      PP17399  14.569  14.463  12.446  0.1933  0.2175 -0.0481
 7296PP      PP17400   5.868   2.042  11.971  0.3318  0.1365  0.0351
 7297PP      PP17401   1.996  15.281  11.003 -0.0235  0.2235 -0.0214
 7298PP      PP17402  14.844  12.747  11.941 -0.1373  0.0041 -0.0333
 7299PP      PP17403   8.746  15.359  13.195  0.0752 -0.0204  0.1840
 7300PP      PP17404  14.586  14.630   3.209 -0.1845  0.2752  0.3445
 7301PP      PP17405  14.853  12.371  11.156 -0.2107 -0.2147  0.3415
 7302PP      PP17406   1.049   5.532  10.163  0.0373 -0.1715  0.1354
 7303PP      PP17407   4.527   1.523  13.219  0.5776 -0.3182  0.0057
 7304PP      PP17408   5.273  14.599   3.103  0.1234 -0.1847 -0.1655
 7305PP      PP17409   7.675   0.298   0.857 -0.0135  0.1519 -0.3407
 7306PP      PP17410   6.278  10.153   9.307 -0.1701  0.1286  0.1831
 7307PP      PP17411  11.771  13.697  10.275  0.3081  0.0019  0.0261
 7308PP      PP17412   7.698   3.721   1.823 -0.3224  0.2255 -0.2144
 7309PP      PP17413  15.390  12.525   4.596  0.0405 -0.0072 -0.1592
 7310PP      PP17414   7.620  11.678  12.641 -0.0524 -0.1303  0.0558
 7311PP      PP17415   7.616  14.326  10.708 -0.0925 -0.1586  0.0269
 7312PP      PP17416   2.405  13.954   3.478  0.2164 -0.0923 -0.3044
 7313PP      PP17417   0.213   2.541   1.684 -0.1614 -0.1129  0.2550
 7314PP      PP17418   4.579   6.784   2.282  0.1449  0.3620  0.2941
 7315PP      PP17419  11.023  14.054  11.578 -0.0951  0.3508  0.3475
 7316PP      PP17420   4.030  12.337   9.648 -0.1301  0.3646  0.0180
 7317PP      PP17421   9.019  12.024   3.461 -0.2889 -0.0800  0.0564
 7318PP      PP17422   8.131  10.747   1.805  0.0418  0.1025  0.2828
 7319PP      PP17423   7.281   3.423   8.043  0.1521  0.0633 -0.2447
 7320PP      PP17424   8.979   5.446   0.822 -0.3418  0.1706 -0.2416
 7321PP      PP17425   1.916   2.968   0.864  0.1156 -0.0357 -0.1491
 7322PP      PP17426   9.349   5.991  13.067  0.1580 -0.2971  0.1568
 7323PP      PP17427  14.184  10.114  11.023  0.2225  0.2127 -0.2507
 7324PP      PP17428   9.456   7.312   4.768  0.3196 -0.3340 -0.1849
 7325PP      PP17429   3.114  12.105   0.501  0.2705 -0.1486  0.2002
 7326PP      PP17430   8.210   0.929   9.033 -0.2029 -0.1112 -0.0331
 7327PP      PP17431   8.236   8.183  11.634  0.0359 -0.1144  0.0477
 7328PP      PP17432   3.509   4.020   9.572  0.1642  0.3132 -0.2239
 7329PP      PP17433   2.868   0.671   9.641 -0.2121  0.0686  0.1199
 7330PP      PP17434   8.338  12.622  13.759 -0.1163 -0.1465  0.1852
 7331PP      PP17435   2.238   3.663   0.834 -0.4409  0.0222 -0.2143
 7332PP      PP17436   4.140   0.464   9.593  0.1167 -0.2771  0.3896
 7333PP      PP17437  15.643   4.835   9.608 -0.2830 -0.2730  0.2206
 7334PP      PP17438  15.371   1.793  12.449 -0.0208 -0.0095 -0.1001
 7335PP      PP17439  14.673   7.772   1.537 -0.3610  0.0608 -0.0016
 7336PP      PP17440   8.991   6.468  13.379 -0.0257 -0.2171  0.1620
 7337PP      PP17441   2.738   8.685  13.376  0.0872  0.3252  0.0391
 7338PP      PP17442   0.143   3.232  13.213  0.2676 -0.2137 -0.1958
 7339PP      PP17443   8.821  14.440   1.206 -0.0897 -0.1042  0.0117
 7340PP      PP17444  11.200   7.678   0.820 -0.0950  0.3149 -0.1879
 7341PP      PP17445   5.157   6.668   1.276 -0.0533 -0.0002  0.3366
 7342PP      PP17446  11.081   3.233   0.717 -0.0619  0.0350 -0.0027
 7343PP      PP17447   6.253   2.088   8.740  0.1272 -0.0884  0.0109
 7344PP      PP17448  15.012   3.597  12.259 -0.1525  0.0484  0.0398
 7345PP      PP17449   7.326  13.893   0.958  0.2543 -0.2582 -0.2365
 7346PP      PP17450   4.258  14.500   9.605  0.0985  0.2429  0.2257
 7347PP      PP17451   0.451   3.234   4.148 -0.0797 -0.1493 -0.0930
 7348PP      PP17452   4.070   7.447   0.172  0.0448  0.1662 -0.4168
 7349PP      PP17453   9.287   5.836   2.702 -0.0886  0.1693  0.1649
 7350PP      PP17454   3.453  14.649   2.864  0.2978 -0.0188 -0.0386
 7351PP      PP17455  12.740  12.814  11.743 -0.1258 -0.0193 -0.0642
 7352PP      PP17456   0.977   3.504  13.580  0.0675  0.1109  0.1338
 7353PP      PP17457  14.750   1.122   4.993  0.1253  0.1674  0.4424
 7354PP      PP17458   5.444  13.548   9.332 -0.1768 -0.1581 -0.2153
 7355PP      PP17459   0.479  15.639   1.513 -0.0477  0.0606 -0.1768
 7356PP      PP17460   9.564  13.861   4.913 -0.1457 -0.2532 -0.1700
 7357PP      PP17461   6.179  11.299   1.116 -0.2400  0.3903  0.1242
 7358PP      PP17462  10.197   2.040   9.758 -0.0040  0.0937 -0.1599
 7359PP      PP17463   6.989  11.482   0.809 -0.0040  0.2092  0.0029
 7360PP      PP17464   4.234  11.828   9.428  0.0607  0.0788 -0.2120
 7361PP      PP17465   7.737  14.071  12.754 -0.3761 -0.1058 -0.1871
 7362PP      PP17466   7.217  13.416  13.572  0.1347 -0.1645 -0.2135
 7363PP      PP17467   9.353   8.100   1.632 -0.0374  0.0457  0.1390
 7364PP      PP17468   0.333   2.726  13.662  0.1658 -0.1047 -0.1566
 7365PP      PP17469  10.819   7.905   3.100  0.2966  0.2797  0.1523
 7366PP      PP17470  14.976   0.914   9.164  0.1350 -0.0527  0.2791
 7367PP      PP17471   2.147   4.943   1.123 -0.1734 -0.0318  0.0172
 7368PP      PP17472   1.101   4.882  11.490 -0.0624 -0.0014 -0.1900
 7369PP      PP17473   1.516   4.283  12.945  0.1402  0.1722  0.1180
 7370PP      PP17474  14.188  13.309   0.676 -0.4817  0.0153 -0.0026
 7371PP      PP17475   4.089   4.106  13.122  0.2687  0.2352 -0.0735
 7372PP      PP17476  12.824  13.694  11.359 -0.2759 -0.0958 -0.0867
 7373PP      PP17477  14.042   6.143   2.223 -0.2841  0.2188 -0.1705
 7374PP      PP17478   2.168   7.179   4.499 -0.0622 -0.1413 -0.0300
 7375PP      PP17479  13.983   2.644  13.703  0.0983 -0.0747 -0.1197
 7376PP      PP17480  13.044   6.461   1.732  0.0258  0.0312 -0.1481
 7377PP      PP17481   6.913   8.091   3.611  0.1700 -0.0848 -0.1087
 7378PP      PP17482  13.016   0.745   2.577 -0.3541  0.1767 -0.0337
 7379PP      PP17483  14.076   2.099   9.668  0.0528  0.1839 -0.1114
 7380PP      PP17484   0.609   5.306   1.326  0.1411  0.1562 -0.1640
 7381PP      PP17485  12.330   7.295   1.925  0.1307  0.0397  0.1855
 7382PP      PP17486   7.347   1.583   8.013  0.1540  0.0109  0.2837
 7383PP      PP17487  15.557  12.908   0.558  0.0020 -0.0087 -0.1532
 7384PP      PP17488   4.425  12.217  12.958 -0.0093  0.2439  0.2570
 7385PP      PP17489   4.743  13.484   3.274 -0.1616 -0.0680  0.0714
 7386PP      PP17490   3.546  10.207  10.639  0.1898  0.1244  0.0365
 7387PP      PP17491   3.792   6.400   1.997 -0.2886 -0.0558  0.1538
 7388PP      PP17492  13.906   1.496   0.374  0.3538 -0.2104 -0.0911
 7389PP      PP17493  15.734  15.584   1.294  0.2247  0.0242  0.3194
 7390PP      PP17494   6.935   2.238   7.882  0.0629  0.0345 -0.2924
 7391PP      PP17495   4.470   5.164   0.205 -0.3107  0.0075  0.1872
 7392PP      PP17496  15.207  10.726  13.724 -0.0350  0.1611  0.0169
 7393PP      PP17497   0.160   8.120   9.475 -0.0901 -0.2915  0.1973
 7394PP      PP17498   6.475  14.318   1.357  0.2090 -0.2799 -0.4138
 7395PP      PP17499  11.316   0.291   1.707 -0.0920  0.1502 -0.0059
 7396PP      PP17500  13.952   3.617  13.193  0.2125  0.0705 -0.1198
 7397PP      PP17501  12.275  11.563   9.642 -0.4001 -0.0261  0.0924
 7398PP      PP17502   0.456  15.219   8.888 -0.1561 -0.4367 -0.2860
 7399PP      PP17503  11.794  13.533  11.117 -0.1277 -0.4273  0.0586
 7400PP      PP17504   0.404  14.371   4.143 -0.1670 -0.2986  0.0022
 7401PP      PP17505   8.217   8.831  11.515 -0.0784 -0.1562 -0.2504
 7402PP      PP17506   3.036  12.115  12.973  0.2106  0.1054  0.1355
 7403PP      PP17507   3.473  15.273   1.661  0.1818  0.0471 -0.3129
 7404PP      PP17508   3.279   6.186  13.550 -0.0476 -0.1964  0.1498
 7405PP      PP17509   7.849   4.404   9.406 -0.3742  0.1687 -0.0603
 7406PP      PP17510   8.910   1.771   2.424  0.1394  0.1427 -0.3816
 7407PP      PP17511   3.190   2.937  10.306  0.2179  0.0019 -0.3204
 7408PP      PP17512   6.264   0.122  11.660 -0.2002  0.0246  0.0896
 7409PP      PP17513   8.765   5.352   1.821 -0.1357 -0.1799 -0.1555
 7410PP      PP17514  13.956  15.202   9.540  0.2350 -0.0397 -0.0647
 7411PP      PP17515  10.933  15.143  10.096 -0.4029  0.1630 -0.1028
 7412PP      PP17516   9.091  14.947   0.089 -0.3828  0.0913  0.1126
 7413PP      PP17517   4.171  10.173  13.044  0.0027  0.0859 -0.2173
 7414PP      PP17518   3.788   1.045  10.560  0.0815 -0.0296 -0.1350
 7415PP      PP17519   7.348   0.044   2.416 -0.1859  0.0304 -0.0482
 7416PP      PP17520  14.897  12.919   9.320  0.1099 -0.2489  0.0816
 7417PP      PP17521  10.473  14.238  11.433  0.2335  0.2885 -0.1940
 7418PP      PP17522   3.867   7.250  12.647 -0.3153 -0.1317  0.1482
 7419PP      PP17523   2.282  10.201  13.557 -0.0542 -0.1995 -0.0486
 7420PP      PP17524  13.447   2.073   2.844 -0.1912  0.0018  0.3064
 7421PP      PP17525   2.554  10.204   0.900 -0.2217 -0.0746 -0.1970
 7422PP      PP17526  12.255   3.498  13.330  0.2422  0.2193 -0.0182
 7423PP      PP17527   5.346   6.226   8.870 -0.0624 -0.0955  0.0328
 7424PP      PP17528   5.978   2.310  10.439 -0.4395 -0.3460  0.2129
 7425PP      PP17529   5.030  11.531   4.902 -0.2672 -0.0475 -0.2622
 7426PP      PP17530  12.120   6.475  10.700 -0.0452  0.0096  0.2327
 7427PP      PP17531  15.530  11.428   2.694  0.1119  0.3670 -0.0956
 7428PP      PP17532   2.848   2.714   3.410 -0.1207 -0.1068  0.4290
 7429PP      PP17533   0.101  11.229   3.038  0.4888 -0.0358  0.0643
 7430PP      PP17534   6.676  10.674   4.723 -0.1156 -0.1954  0.4383
 7431PP      PP17535  13.663   8.854  10.800 -0.0825  0.0263  0.0059
 7432PP      PP17536  13.751  13.840   9.185  0.1703  0.2370  0.1862
 7433PP      PP17537   1.818   6.018  12.441  0.3018  0.2081 -0.1229
 7434PP      PP17538  12.788   7.863   5.363  0.1807 -0.0183 -0.0612
 7435PP      PP17539  10.546   7.512   3.856  0.1795  0.2184 -0.1281
 7436PP      PP17540  13.651  14.452   2.445  0.1781  0.0758  0.0672
 7437PP      PP17541  12.281   3.904   1.393  0.0643  0.0141 -0.2998
 7438PP      PP17542   2.271  14.906   1.402 -0.0180 -0.1088 -0.2280
 7439PP      PP17543  10.589   8.656   2.158  0.1980  0.2083  0.0601
 7440PP      PP17544   8.325  12.180   3.548 -0.1728 -0.0869 -0.3209
 7441PP      PP17545   9.384  10.449   3.233  0.2487  0.1103 -0.0603
 7442PP      PP17546  10.655  10.566  12.063  0.2860 -0.1254  0.1927
 7443PP      PP17547   3.374  14.226  10.987 -0.3034  0.0316  0.0189
 7444PP      PP17548  12.147   8.363   4.325 -0.2156  0.1427 -0.0948
 7445PP      PP17549   9.808   4.235   0.889  0.1103 -0.3142  0.0234
 7446PP      PP17550   4.891   7.083   9.000  0.1678  0.1288 -0.2581
 7447PP      PP17551   0.486   5.713   3.089 -0.0968  0.0120  0.1604
 7448PP      PP17552   4.134  14.253   4.288 -0.1162  0.1837 -0.2540
 7449PP      PP17553   4.269  10.737  10.739  0.0151  0.0749 -0.0169
 7450PP      PP17554   8.145   9.989   1.728  0.1052 -0.0176 -0.0866
 7451PP      PP17555  15.142   0.966   0.680 -0.0532  0.2350  0.0510
 7452PP      PP17556   2.392   5.961   4.360  0.0492 -0.0553 -0.0200
 7453PP      PP17557  12.923   6.489  12.637 -0.1153  0.2932 -0.1603
 7454PP      PP17558   5.155   6.169  10.061 -0.1791  0.0468  0.1981
 7455PP      PP17559  12.467   7.706  12.597  0.3783 -0.1991  0.1500
 7456PP      PP17560   6.240   2.676   2.058  0.3226 -0.1080 -0.3435
 7457PP      PP17561   9.083  13.075   3.292 -0.0996 -0.0647 -0.1746
 7458PP      PP17562   8.759  10.471   1.662 -0.1577 -0.0064 -0.1200
 7459PP      PP17563  13.055  12.357  11.577 -0.1567  0.2556 -0.0628
 7460PP      PP17564   9.973   2.509   1.145 -0.0746 -0.0311 -0.1435
 7461PP      PP17565   1.075  10.733   4.098 -0.0983 -0.0831 -0.4022
 7462PP      PP17566  14.751  10.464  12.102  0.2194 -0.1034 -0.1604
 7463PP      PP17567   0.239   5.534   9.569 -0.0277  0.0754  0.0240
 7464PP      PP17568   9.473   7.383   1.585  0.0019 -0.1184 -0.0434
 7465PP      PP17569   9.000   2.257   9.520 -0.2889 -0.0431 -0.3190
 7466PP      PP17570  15.006  14.926   2.999 -0.1203  0.1717 -0.3176
 7467PP      PP17571   6.171  12.756   4.065 -0.4167 -0.0197  0.0204
 7468PP      PP17572  11.522   6.090   3.779 -0.2113  0.2523 -0.1983
 7469PP      PP17573   2.880   8.032  11.029 -0.2804  0.2449 -0.0295
 7470PP      PP17574  12.559  12.109  13.112 -0.0810 -0.2755 -0.0557
 7471PP      PP17575   2.271   3.943   1.926  0.0470  0.2186 -0.0121
 7472PP      PP17576  11.800   3.088  10.352 -0.0378  0.0589 -0.2328
 7473PP      PP17577  15.008   7.917  11.218  0.1112  0.2967 -0.1682
 7474PP      PP17578   1.550   1.177  12.476 -0.1188  0.3290 -0.1176
 7475PP      PP17579   3.617  15.104   4.133  0.1297 -0.1666  0.1373
 7476PP      PP17580   1.116   8.075   1.327 -0.1309 -0.1940 -0.1726
 7477PP      PP17581   7.920  12.271   3.923  0.3929  0.0945  0.2403
 7478PP      PP17582   7.828   6.563   1.767 -0.6211 -0.0955 -0.0728
 7479PP      PP17583   5.430   1.638  11.043 -0.0442 -0.4185  0.2603
 7480PP      PP17584   5.809   0.808   0.688 -0.0401  0.1521 -0.0970
 7481PP      PP17585   0.743  11.978   3.849  0.0731  0.0449 -0.0420
 7482PP      PP17586   4.678   1.102   2.275  0.1531  0.0766 -0.0041
 7483PP      PP17587  14.992   3.016   2.666 -0.0950 -0.0780  0.2079
 7484PP      PP17588   6.880  10.521  13.623  0.2428 -0.0332  0.1504
 7485PP      PP17589   6.597   5.972   1.913 -0.1005  0.0591 -0.2951
 7486PP      PP17590   3.130   0.895  10.636 -0.0243  0.1301 -0.3556
 7487PP      PP17591   7.275   7.881   3.238  0.4675  0.0372 -0.0141
 7488PP      PP17592  12.557  15.090  11.004  0.1343  0.1635 -0.0587
 7489PP      PP17593   3.753   0.378   0.413  0.0871  0.0220 -0.1725
 7490PP      PP17594  15.424   6.829   9.856  0.1315  0.2227  0.2448
 7491PP      PP17595  14.327   0.605   3.582 -0.1927 -0.2604  0.3169
 7492PP      PP17596   2.506  15.288   3.876  0.3764 -0.2404 -0.1919
 7493PP      PP17597   1.506  14.016   4.496 -0.2768  0.0674 -0.0779
 7494PP      PP17598   6.434  14.158   1.868 -0.1459  0.1113 -0.2519
 7495PP      PP17599   8.677   4.666   1.213 -0.3598 -0.2045 -0.2498
 7496PP      PP17600   8.703   6.061   9.162  0.0717  0.0511  0.2406
 7497PP      PP17601  10.385   5.271   1.485 -0.0471 -0.1892  0.3022
 7498PP      PP17602   1.866   1.590   2.627 -0.0777 -0.2055 -0.0686
 7499PP      PP17603   0.742   3.245   9.860  0.2446  0.2803  0.0667
 7500PP      PP17604  15.435   4.270  10.315 -0.1491  0.2903  0.2216
 7501PP      PP17605  10.533  12.667   1.262  0.0460  0.1449  0.3402
 7502PP      PP17606  12.583  13.284  11.672  0.3622 -0.0411 -0.0089
 7503PP      PP17607   2.965   8.733   9.018 -0.4034  0.1260  0.1325
 7504PP      PP17608  11.291  14.339  10.873  0.0030 -0.1605  0.0180
 7505PP      PP17609   6.911  12.370   4.259 -0.1287 -0.2676 -0.2799
 7506PP      PP17610   5.233   2.303  12.744 -0.5235 -0.1916 -0.0008
 7507PP      PP17611   0.073   2.089   9.856  0.3760 -0.0884  0.1407
 7508PP      PP17612  11.420  13.049   1.978  0.0245 -0.0019  0.1640
 7509PP      PP17613   3.835   7.072   3.756  0.2725  0.0480 -0.1011
 7510PP      PP17614   2.031   4.715   2.663 -0.2197  0.3044  0.0176
 7511PP      PP17615   2.609  11.208  10.878  0.3627  0.1941  0.1932
 7512PP      PP17616  11.445  12.485   3.310  0.4625 -0.0806 -0.0333
 7513PP      PP17617  14.591  11.763   9.175 -0.4028  0.0808 -0.0838
 7514PP      PP17618   6.538  14.712  12.605  0.0860 -0.1256  0.2164
 7515PP      PP17619  10.268   0.279  13.222 -0.0384 -0.1973  0.2916
 7516PP      PP17620   7.221   1.631   8.564  0.2535  0.0295  0.1132
 7517PP      PP17621   9.291  11.307   9.377  0.0528 -0.1992 -0.0898
 7518PP      PP17622   4.725   9.770  13.573  0.1033  0.1344  0.0437
 7519PP      PP17623   5.640   6.391   3.371 -0.2457 -0.1300  0.1418
 7520PP      PP17624   1.878  10.147  11.783  0.0144  0.0429  0.0500
 7521PP      PP17625  15.672   7.529   0.766 -0.1448  0.0369 -0.0689
 7522PP      PP17626  14.209  12.425   3.112  0.1712  0.0969 -0.0542
 7523PP      PP17627   9.270   7.657  10.756 -0.3347  0.0683 -0.0389
 7524PP      PP17628   7.721   5.393  12.167 -0.3174 -0.3328  0.1098
 7525PP      PP17629  13.615  12.904   1.800 -0.1587  0.2437  0.0532
 7526PP      PP17630   6.437   5.245  10.277  0.6038 -0.1333  0.4892
 7527PP      PP17631  11.735  10.654  11.293 -0.0656 -0.1598  0.0222
 7528PP      PP17632  12.356  13.462  12.102  0.1130  0.0285 -0.0882
 7529PP      PP17633   3.157   6.278  10.736  0.0994  0.3117 -0.3032
 7530PP      PP17634  13.881  13.228  11.057  0.0913 -0.0464 -0.1639
 7531PP      PP17635   2.762  10.855   2.144 -0.2427 -0.0322 -0.0539
 7532PP      PP17636   4.049   8.770   0.471  0.0142 -0.0913  0.2532
 7533PP      PP17637   9.141  14.189   2.087 -0.1935  0.3422  0.0252
 7534PP      PP17638  11.504  15.678   3.934  0.1095  0.0125 -0.1079
 7535PP      PP17639  15.649   7.851   2.580  0.0009 -0.0140  0.0798
 7536PP      PP17640  12.356   6.492   5.045  0.0372  0.2828  0.0170
 7537PP      PP17641   8.379   0.011   4.113 -0.0002  0.0428 -0.1522
 7538PP      PP17642   9.635   5.964   1.872 -0.3276 -0.3465  0.0111
 7539PP      PP17643   4.578   7.202   8.244  0.2298  0.4870 -0.2516
 7540PP      PP17644   9.995  10.183  13.528  0.2463  0.0873  0.0352
 7541PP      PP17645  12.134  11.900  10.109  0.0172 -0.2792  0.1475
 7542PP      PP17646  13.865  13.152   2.818 -0.0737 -0.0417 -0.0645
 7543PP      PP17647   0.216  12.438  10.549 -0.0463  0.3836 -0.3221
 7544PP      PP17648   7.311   1.848   1.934 -0.1143 -0.1507  0.2123
 7545PP      PP17649   5.342   7.644   4.108  0.2668 -0.2218  0.1473
 7546PP      PP17650  10.444   1.625  10.823  0.1138  0.0390 -0.1271
 7547PP      PP17651   0.991  11.959   1.509 -0.0568 -0.0835 -0.1115
 7548PP      PP17652   9.138   6.174   1.196 -0.1077  0.0896 -0.0943
 7549PP      PP17653   8.330   2.062   1.035  0.4145 -0.0575  0.1108
 7550PP      PP17654   3.597   3.407  12.322 -0.2878 -0.2714  0.2734
 7551PP      PP17655   8.353  13.966   2.503 -0.0393 -0.0545  0.1305
 7552PP      PP17656   6.522   1.130   1.018 -0.0837 -0.1688  0.1357
 7553PP      PP17657   8.473  13.764  11.837 -0.1504 -0.0619 -0.0691
 7554PP      PP17658  12.557   3.422   9.938 -0.1049  0.0586 -0.1709
 7555PP      PP17659   2.809   5.932   3.619 -0.4100 -0.1269 -0.1066
 7556PP      PP17660  13.763   7.653  13.744  0.0253 -0.2932 -0.0194
 7557PP      PP17661   7.029   5.284   1.802  0.0126  0.3190  0.0199
 7558PP      PP17662  12.191   0.768   3.136 -0.1700 -0.2908  0.0644
 7559PP      PP17663   0.787  15.611  10.321  0.0406  0.1115  0.0668
 7560PP      PP17664  11.358  10.910   1.443  0.0414  0.0711 -0.0354
 7561PP      PP17665   9.832  12.603   3.474  0.1566 -0.1027 -0.1408
 7562PP      PP17666   8.877  12.398  13.738 -0.0928  0.3645  0.2457
 7563PP      PP17667  10.604   0.949   0.277  0.3379 -0.2380  0.2162
 7564PP      PP17668  12.868   2.657  12.592  0.2470  0.0055 -0.0332
 7565PP      PP17669  11.580  11.609   4.830  0.0845 -0.0290  0.2908
 7566PP      PP17670   2.652   3.195   0.736 -0.0791 -0.1300 -0.0305
 7567PP      PP17671   6.615  10.170   0.078  0.2783  0.1452 -0.2427
 7568PP      PP17672   4.345   1.775  10.024 -0.0192 -0.1299 -0.0606
 7569PP      PP17673  11.902  15.289  11.048  0.1455  0.3618  0.1762
 7570PP      PP17674   8.645  12.119  13.329 -0.1584  0.0400 -0.2597
 7571PP      PP17675  12.139   3.790   9.685 -0.0119 -0.0639 -0.0292
 7572PP      PP17676   7.120   0.119  11.322 -0.3173  0.1892 -0.0152
 7573PP      PP17677   2.843   6.987  11.626  0.0959  0.2850  0.1077
 7574PP      PP17678   1.717   2.383   3.772 -0.0363 -0.0430  0.0468
 7575PP      PP17679   2.374  14.406  13.054  0.3836  0.0425  0.3008
 7576PP      PP17680  12.904   2.094   9.687 -0.0340  0.1053 -0.3888
 7577PP      PP17681  12.094   5.116   1.555 -0.0672 -0.1337 -0.0692
 7578PP      PP17682   5.840  10.063  11.976 -0.0576  0.1422  0.1204
 7579PP      PP17683  10.772   7.473   0.974  0.1181 -0.1745 -0.2102
 7580PP      PP17684   3.428   6.931  11.842  0.0763  0.3635  0.0481
 7581PP      PP17685  12.886   4.744   1.818 -0.1297 -0.0682 -0.1866
 7582PP      PP17686   1.925   3.339  13.714  0.0854 -0.2804  0.1329
 7583PP      PP17687  13.582   4.079   0.926  0.0909  0.3833  0.0701
 7584PP      PP17688   1.763   1.799  13.288  0.0415  0.1915 -0.2959
 7585PP      PP17689   6.913   1.812   9.646  0.1521  0.0350  0.2142
 7586PP      PP17690   2.257  11.175  10.037  0.1431 -0.3095 -0.0259
 7587PP      PP17691   4.451  13.528  11.251 -0.2131  0.3591  0.3373
 7588PP      PP17692  11.870   0.370   1.718  0.1800  0.0978 -0.3567
 7589PP      PP17693  14.750   2.663  10.169  0.2152  0.0750 -0.1364
 7590PP      PP17694   4.659   7.458  10.030 -0.0390  0.3178  0.1708
 7591PP      PP17695   2.800   3.169   1.482  0.0458  0.0752  0.1837
 7592PP      PP17696  15.572  11.287  11.163  0.1640 -0.1325  0.1257
 7593PP      PP17697   0.898  11.368  12.507 -0.0337  0.1235  0.1685
 7594PP      PP17698  14.005  10.050   0.525  0.0985  0.0453 -0.0627
 7595PP      PP17699  14.397   1.517  10.270  0.2301  0.1125 -0.0780
 7596PP      PP17700   7.066   8.001  12.716 -0.0214 -0.0398 -0.0757
 7597PP      PP17701  10.305   6.446   1.337  0.1506  0.0687  0.3432
 7598PP      PP17702   1.190   1.081   1.837 -0.2112 -0.3223  0.4687
 7599PP      PP17703   8.572   1.022   1.188  0.1121 -0.0503 -0.0634
 7600PP      PP17704   5.680   5.582   8.492 -0.1970  0.0196  0.0366
 7601PP      PP17705   6.871  11.368   4.204  0.0382  0.1525 -0.1509
 7602PP      PP17706  11.909  11.762   4.469 -0.1156 -0.0104  0.1747
 7603PP      PP17707   8.414   0.490   4.311  0.0675 -0.0385  0.1356
 7604PP      PP17708   7.920   0.038   9.512 -0.0386 -0.1336 -0.0178
 7605PP      PP17709  12.143   3.062   9.884  0.0405  0.0715 -0.2764
 7606PP      PP17710   1.047  10.583  13.311 -0.1266 -0.0019 -0.1668
 7607PP      PP17711  11.302   9.374   9.851 -0.1722 -0.2586  0.1626
 7608PP      PP17712   4.110  11.752   4.697  0.2624  0.2346 -0.3055
 7609PP      PP17713   2.475  15.622   3.501  0.0169 -0.2080  0.0022
 7610PP      PP17714   4.533  15.267  12.535  0.0864 -0.0544  0.0425
 7611PP      PP17715   6.953   2.205  10.581 -0.1979  0.0023  0.1275
 7612PP      PP17716   1.600   6.699  11.575  0.0848  0.1325 -0.1557
 7613PP      PP17717   5.889  14.148   2.513 -0.1767 -0.1419 -0.0054
 7614PP      PP17718  10.237   0.161   4.073 -0.0698 -0.1509 -0.1536
 7615PP      PP17719   7.231   6.686   2.280 -0.0196  0.1667 -0.1037
 7616PP      PP17720  15.522   0.758  10.659  0.1310  0.3132 -0.3104
 7617PP      PP17721   2.216   7.312   2.725  0.3067  0.1002  0.0696
 7618PP      PP17722   7.845   4.813   2.270  0.2625 -0.0088 -0.0761
 7619PP      PP17723  13.131   2.940  11.014 -0.2808  0.0027  0.2383
 7620PP      PP17724   1.476   5.906  11.318  0.0098 -0.1106 -0.2425
 7621PP      PP17725   4.478  15.570   0.590 -0.1246 -0.0672  0.0847
 7622PP      PP17726   6.386  12.704   9.254 -0.0530  0.0209 -0.1261
 7623PP      PP17727   0.947   9.717   1.291 -0.0266  0.1523 -0.1882
 7624PP      PP17728   8.759   7.980   1.558 -0.2413  0.2818 -0.3454
 7625PP      PP17729  11.406   2.583  13.257  0.2712 -0.1412 -0.0625
 7626PP      PP17730  12.225  10.627  11.478 -0.1300 -0.0440 -0.0716
 7627PP      PP17731   5.857   9.330  12.870 -0.0040 -0.0191 -0.2034
 7628PP      PP17732  12.290   9.120   3.608  0.0101 -0.1123 -0.0342
 7629PP      PP17733   7.248  12.537   1.911 -0.3991  0.3500 -0.1346
 7630PP      PP17734  14.537  15.733  12.359 -0.0187 -0.0966 -0.1955
 7631PP      PP17735   4.770   5.610   4.055 -0.4753  0.2583 -0.3190
 7632PP      PP17736   4.929   8.389   0.207 -0.3512 -0.2008 -0.0140
 7633PP      PP17737  14.417  11.047  12.799  0.0913 -0.1881  0.1393
 7634PP      PP17738  10.458   7.673  13.304  0.2407 -0.0762 -0.0022
 7635PP      PP17739  12.024   6.674  10.274  0.3341 -0.2933  0.1434
 7636PP      PP17740   0.335   7.376   4.421  0.0377  0.1095 -0.2089
 7637PP      PP17741   3.722  15.684   0.138  0.0674 -0.0580 -0.1721
 7638PP      PP17742   7.974  11.481   3.383  0.0324 -0.2084 -0.1670
 7639PP      PP17743  11.232   2.006  11.457 -0.0713  0.0136 -0.1630
 7640PP      PP17744   7.503   3.078   7.612  0.0828  0.0322 -0.1428
 7641PP      PP17745  11.980  14.428   3.213  0.0954  0.1423  0.0053
 7642PP      PP17746  11.967  13.375   4.940 -0.3462 -0.0537 -0.0052
 7643PP      PP17747   7.790   0.924   8.777 -0.0002 -0.0505 -0.2112
 7644PP      PP17748   4.791   0.881   1.441 -0.0304  0.1953  0.0048
 7645PP      PP17749  11.939   6.072   3.528  0.0785  0.0755 -0.0070
 7646PP      PP17750  14.235   3.482  10.464  0.5685  0.0184 -0.2307
 7647PP      PP17751  14.756   9.260   4.497  0.0287 -0.0956  0.2442
 7648PP      PP17752   3.092   7.071  13.687  0.1375 -0.1164  0.3720
 7649PP      PP17753   5.013   1.430  10.162 -0.0016  0.1137  0.2330
 7650PP      PP17754   8.723  12.850  13.594  0.1743 -0.0596 -0.1737
 7651PP      PP17755   3.442  14.965   8.809 -0.2604 -0.1049  0.0392
 7652PP      PP17756   3.012   6.016   2.425 -0.2100  0.0253 -0.0696
 7653PP      PP17757  14.951  13.044  11.067 -0.1241  0.0798  0.1459
 7654PP      PP17758   4.485   5.374   2.605 -0.0708  0.0824 -0.1725
 7655PP      PP17759   8.658   1.254   3.141 -0.0795  0.1186  0.3475
 7656PP      PP17760   4.211   6.881   4.097 -0.2472 -0.3493 -0.0613
 7657PP      PP17761   1.514   7.648  12.849  0.1732  0.2146  0.0176
 7658PP      PP17762  14.882   8.186   0.493 -0.1578 -0.1747 -0.1454
 7659PP      PP17763   3.436  10.835   3.601  0.1556  0.3513  0.0819
 7660PP      PP17764   8.511   2.372   2.997 -0.0350  0.0902 -0.0603
 7661PP      PP17765   3.571   9.175   3.026  0.1544  0.2188  0.3334
 7662PP      PP17766   9.839   6.139   1.023  0.0194  0.3815 -0.0916
 7663PP      PP17767  14.587  12.165   1.919  0.0189  0.0140  0.0116
 7664PP      PP17768  15.561   5.447   0.881 -0.4643  0.1245  0.2544
 7665PP      PP17769  15.316   2.231  11.292 -0.2910  0.1820 -0.2125
 7666PP      PP17770   3.567   5.599  11.382 -0.1087 -0.0752  0.1320
 7667PP      PP17771  12.192  11.162   1.865  0.0986 -0.0182  0.0674
 7668PP      PP17772   8.491   4.943  12.670 -0.1845 -0.0337 -0.0821
 7669PP      PP17773   3.516   1.792   1.571 -0.1529 -0.1512 -0.1389
 7670PP      PP17774   4.879   0.170   1.936  0.0018  0.0933 -0.2377
 7671PP      PP17775  11.365  11.326  10.029  0.4559  0.2635 -0.1731
 7672PP      PP17776  12.218   6.628  12.295 -0.0748  0.0684  0.2806
 7673PP      PP17777  14.755   1.554   2.635  0.0279 -0.0674 -0.0179
 7674PP      PP17778   4.705  10.962  12.030 -0.0808  0.2183 -0.0018
 7675PP      PP17779  13.554   1.683  13.574  0.2649  0.2450  0.1532
 7676PP      PP17780  12.042   9.966   4.808  0.0724 -0.4310 -0.1324
 7677PP      PP17781  11.744  11.807  13.082  0.0764 -0.2269 -0.2648
 7678PP      PP17782  10.272  11.786   3.282 -0.0169 -0.0180  0.2515
 7679PP      PP17783   7.430   3.937  10.111  0.0013 -0.0964  0.1619
 7680PP      PP17784  15.584   2.945   9.672 -0.0858  0.0935  0.0937
 7681PP      PP17785  14.757  11.925  12.922  0.0147  0.1224  0.0482
 7682PP      PP17786  15.132   5.978   1.434 -0.1903  0.0733  0.0002
 7683PP      PP17787   1.895   3.374   2.402  0.2243 -0.2390  0.0113
 7684PP      PP17788  14.059   8.765   2.085 -0.0242  0.2937  0.3229
 7685PP      PP17789  15.135  14.606   8.202  0.2562 -0.0100 -0.0564
 7686PP      PP17790   4.072   7.997   0.035  0.1440 -0.3176 -0.0431
 7687PP      PP17791   6.073  13.332  12.208  0.2953 -0.0572  0.1566
 7688PP      PP17792   3.977  10.071  11.133  0.0801 -0.2577  0.0003
 7689PP      PP17793  10.490  15.667  10.692 -0.1321 -0.1039 -0.1609
 7690PP      PP17794  10.116   3.364   0.518  0.1431  0.2473  0.3876
 7691PP      PP17795   7.640   4.460   8.884 -0.0975  0.2408 -0.2606
 7692PP      PP17796   1.072   1.006   3.967  0.2826  0.0959  0.2205
 7693PP      PP17797   4.481   9.825   2.279  0.0200 -0.1693 -0.0545
 7694PP      PP17798  12.415  10.823   0.424  0.0082  0.3506 -0.1317
 7695PP      PP17799   5.496   5.056  11.545 -0.3180  0.0329 -0.3439
 7696PP      PP17800   2.319   8.326   2.668  0.1905 -0.0056  0.0996
 7697PP      PP17801  13.072  13.394  13.761 -0.1408 -0.3146 -0.1381
 7698PP      PP17802   4.934   6.219  13.267  0.2042 -0.0699  0.0610
 7699PP      PP17803   3.776   1.050  11.368  0.3292  0.1691  0.0474
 7700PP      PP17804  14.374  15.687   1.917  0.0219  0.1524  0.0589
 7701PP      PP17805   5.114  13.263   1.256 -0.0171  0.0739  0.1465
 7702PP      PP17806   4.940  11.203   4.001  0.1748 -0.0053 -0.2535
 7703PP      PP17807   4.700  15.283  13.532 -0.1521  0.0281 -0.1277
 7704PP      PP17808   5.945   2.621   0.183 -0.0686 -0.2960  0.3674
 7705PP      PP17809   5.994   9.252  12.402 -0.2690  0.2645 -0.3801
 7706PP      PP17810   4.402  10.199   0.015 -0.0997 -0.0391  0.0758
 7707PP      PP17811   5.275  14.431   8.982  0.2792 -0.2992  0.2780
 7708PP      PP17812  10.594   3.567  10.684 -0.2371  0.1275  0.0639
 7709PP      PP17813  11.383  15.522   9.458 -0.1158  0.2780  0.0353
 7710PP      PP17814   9.254   2.898   3.040 -0.0280 -0.1773 -0.0233
 7711PP      PP17815   3.002  12.645  10.117 -0.2620  0.1788  0.0668
 7712PP      PP17816  10.050   3.740  12.898  0.3166  0.0744  0.1774
 7713PP      PP17817  13.979   0.412   8.873  0.0997  0.0209  0.0915
 7714PP      PP17818   8.052  10.286   9.907 -0.2980 -0.1601  0.1087
 7715PP      PP17819   8.327   5.978  10.487  0.3480  0.3471  0.2670
 7716PP      PP17820   0.514   3.820   2.873 -0.2559  0.0997  0.1125
 7717PP      PP17821   7.144   9.877   2.008  0.1403 -0.2937  0.1347
 7718PP      PP17822  14.047   5.590  12.305  0.2572 -0.1198  0.1197
 7719PP      PP17823   5.637   3.146   2.526 -0.0207 -0.0598  0.2206
 7720PP      PP17824   2.580  14.835   1.779 -0.1506  0.1457  0.1712
 7721PP      PP17825   8.293   3.419  13.773  0.0337  0.3852 -0.3554
 7722PP      PP17826   3.197   1.208   2.751  0.0847  0.0553 -0.2487
 7723PP      PP17827  15.585  13.285  13.157  0.2381  0.3357  0.1642
 7724PP      PP17828   8.105  12.959   1.070  0.1590 -0.3043 -0.0819
 7725PP      PP17829  11.184   7.383   1.962 -0.4535 -0.2883  0.2104
 7726PP      PP17830   2.565  11.968   0.995 -0.2025  0.2426  0.4331
 7727PP      PP17831   7.010  12.846   1.171 -0.0768  0.0923  0.0455
 7728PP      PP17832   4.878  13.660  10.936  0.0403  0.0842 -0.2538
 7729PP      PP17833   9.956   3.839   1.887  0.3386 -0.5850  0.0857
 7730PP      PP17834  13.376   9.863   3.068 -0.2626 -0.3848 -0.1169
 7731PP      PP17835   2.307   3.299  11.928 -0.0679  0.1685 -0.1797
 7732PP      PP17836   5.408   2.065   1.722 -0.0889  0.1317  0.2130
 7733PP      PP17837   6.306  11.072   2.406  0.0224  0.0946  0.0231
 7734PP      PP17838  13.999  11.835   1.458  0.0290  0.1636 -0.0017
 7735PP      PP17839   9.473  14.224   3.280  0.0203 -0.0501  0.1475
 7736PP      PP17840   1.597   5.604   2.656  0.0089 -0.1457  0.0904
 7737PP      PP17841   9.764  11.753   3.172 -0.0380  0.4221  0.0883
 7738PP      PP17842  15.566  10.254  10.271 -0.0008  0.1861 -0.2005
 7739PP      PP17843  14.413  11.863   9.743 -0.3207 -0.0657  0.0752
 7740PP      PP17844   2.117  13.447  10.942 -0.2003  0.2247  0.0836
 7741PP      PP17845  15.244  10.801   0.823 -0.3629 -0.1784  0.0990
 7742PP      PP17846   0.549   3.405  13.060 -0.0708 -0.0672  0.0725
 7743PP      PP17847   7.699  15.146   1.863  0.0475  0.3364  0.0436
 7744PP      PP17848   9.440  14.485   9.798  0.0096  0.1117 -0.0313
 7745PP      PP17849   8.300  10.447  10.342  0.1830  0.1454 -0.0422
 7746PP      PP17850  11.117  12.554  10.112 -0.0652 -0.1006  0.4979
 7747PP      PP17851   9.194   9.639   2.376  0.0309 -0.2959  0.1545
 7748PP      PP17852  15.718   2.125   2.100 -0.0931 -0.0904  0.0326
 7749PP      PP17853  10.148   8.852  10.666 -0.0589 -0.1513 -0.0561
 7750PP      PP17854   1.796   0.597   1.402  0.0220 -0.0370 -0.1554
 7751PP      PP17855   4.151   4.160   7.779 -0.3136  0.1782 -0.0731
 7752PP      PP17856   9.695   4.756   1.179 -0.1601 -0.0060 -0.0485
 7753PP      PP17857  14.270   7.258   2.467  0.0089 -0.0177  0.0219
 7754PP      PP17858  10.750   1.194  10.845  0.3510 -0.2746  0.0201
 7755PP      PP17859   3.181   2.981  13.582 -0.1265  0.0127  0.1497
 7756PP      PP17860  11.328  12.091   5.514  0.2225  0.1312 -0.2355
 7757PP      PP17861   8.312   5.078   9.355 -0.0110  0.0428  0.1955
 7758PP      PP17862   9.815   6.452  10.001 -0.0604  0.0829 -0.2691
 7759PP      PP17863  11.342   8.779   1.349 -0.0734  0.0667  0.1141
 7760PP      PP17864  13.282  14.876   1.954  0.3168 -0.0138  0.1643
 7761PP      PP17865  13.296  15.448   2.308  0.1612 -0.3697 -0.1185
 7762PP      PP17866   3.422  13.801   3.413 -0.1695 -0.0959 -0.1989
 7763PP      PP17867   3.953   5.970  11.374 -0.0252 -0.1229  0.0030
 7764PP      PP17868  11.633   2.219  12.913 -0.1570  0.0071  0.0216
 7765PP      PP17869  14.264   8.646  11.571  0.1507  0.1400  0.0705
 7766PP      PP17870   2.941  13.958  10.792  0.0100  0.1069 -0.0446
 7767PP      PP17871   2.656  10.555  13.467  0.1764  0.4291  0.0256
 7768PP      PP17872  10.875  13.122   1.713 -0.2752 -0.2717 -0.3535
 7769PP      PP17873  15.388  14.805   2.722  0.1591  0.0494  0.2419
 7770PP      PP17874   5.254  13.696   0.006 -0.3425  0.0671 -0.0271
 7771PP      PP17875   4.286  11.567   1.594 -0.1169 -0.1894  0.0246
 7772PP      PP17876   3.871   3.769  12.824 -0.0739 -0.2800 -0.0870
 7773PP      PP17877  13.964  15.133   1.191  0.0593  0.1887 -0.2438
 7774PP      PP17878  12.569  14.412   3.092 -0.0618 -0.0119 -0.0575
 7775PP      PP17879   9.295   6.871   3.988  0.1459 -0.1248  0.1251
 7776PP      PP17880   8.013  11.970   5.432  0.0993 -0.0959 -0.0605
 7777PP      PP17881   2.328  11.518   0.914  0.1724  0.2443  0.1599
 7778PP      PP17882  13.538   8.532   4.862 -0.3027  0.1858  0.0885
 7779PP      PP17883   9.603   8.334   0.707 -0.0957  0.0309 -0.3105
 7780PP      PP17884   2.596   4.686   1.069  0.4040 -0.0170 -0.0424
 7781PP      PP17885   6.198   1.378   2.382 -0.0683 -0.1992  0.1865
 7782PP      PP17886  13.984   9.276   1.958  0.0724 -0.0781  0.0288
 7783PP      PP17887   5.794  13.513  11.729 -0.0248  0.0329 -0.0722
 7784PP      PP17888   2.111   8.501   3.700  0.2050 -0.1348 -0.1017
 7785PP      PP17889   4.088   7.577  10.547 -0.1489 -0.0459  0.3822
 7786PP      PP17890  14.884   9.064   1.224  0.0478 -0.2199 -0.3698
 7787PP      PP17891   0.665   3.915   4.090  0.1690  0.0802 -0.1676
 7788PP      PP17892  15.680   4.229  12.898  0.1417 -0.0955 -0.3695
 7789PP      PP17893   2.886   9.832   0.895  0.0553 -0.0313 -0.1845
 7790PP      PP17894  15.563  11.371   3.547  0.0173  0.0794 -0.1103
 7791PP      PP17895   2.056   7.258  10.537  0.3877  0.1437  0.0562
 7792PP      PP17896  10.724  12.552   2.804  0.0912 -0.0959 -0.1660
 7793PP      PP17897   7.764   9.033   0.953  0.0178 -0.2087 -0.2671
 7794PP      PP17898   5.726  10.804   3.870 -0.2986  0.1176  0.3010
 7795PP      PP17899   1.833  13.945  11.577  0.1177 -0.1575  0.0853
 7796PP      PP17900  11.575  14.966  10.848 -0.0712  0.0740  0.2391
 7797PP      PP17901   8.460   3.249   2.396  0.1394  0.3289 -0.0953
 7798PP      PP17902  14.214   6.748   4.681  0.0692  0.2011  0.0029
 7799PP      PP17903  14.973   1.474   2.109 -0.2501 -0.1150 -0.2007
 7800PP      PP17904  13.614   4.492   2.645 -0.1535 -0.0819  0.0719
 7801PP      PP17905   2.834   7.129  12.656  0.3294  0.1240  0.4180
 7802PP      PP17906  15.298   7.315   0.435 -0.1244  0.3191 -0.1877
 7803PP      PP17907  12.645  10.475   4.538  0.0116 -0.0487 -0.2364
 7804PP      PP17908  13.362   7.493  10.431  0.1842  0.1651  0.1551
 7805PP      PP17909  13.958  13.314  10.243 -0.0070  0.2942 -0.3250
 7806PP      PP17910   4.356   9.301  13.389  0.0622  0.3588  0.1209
 7807PP      PP17911  13.699  12.324   1.911  0.1471  0.1156 -0.1790
 7808PP      PP17912   8.860   4.325   8.788 -0.1952  0.0150  0.0007
 7809PP      PP17913   1.182   9.012  13.423 -0.2812 -0.1615 -0.0096
 7810PP      PP17914   7.358   2.620  11.530 -0.0529 -0.1549  0.1256
 7811PP      PP17915   4.368   9.572   9.782 -0.2042  0.1605  0.0887
 7812PP      PP17916  10.969  14.426   1.619 -0.0258  0.2537  0.2019
 7813PP      PP17917   2.580   6.565  11.638  0.1869 -0.1886  0.0570
 7814PP      PP17918   4.559   2.625   0.130  0.1334 -0.1963 -0.2221
 7815PP      PP17919   7.473   9.457   2.227  0.4667  0.0599  0.1804
 7816PP      PP17920   3.237   1.980  12.412 -0.0033 -0.3735 -0.0302
 7817PP      PP17921   8.542   6.531   8.902  0.2017 -0.1128  0.3424
 7818PP      PP17922   5.687   4.289   8.342 -0.0098  0.2192  0.2716
 7819PP      PP17923   4.354   9.181  11.126  0.1656  0.4691  0.3079
 7820PP      PP17924  10.939  13.013   2.675  0.1097 -0.3818 -0.0785
 7821PP      PP17925   7.415  12.505   5.012  0.0526 -0.0962  0.0858
 7822PP      PP17926   1.698   2.742   4.190  0.1231  0.5333  0.1427
 7823PP      PP17927   1.629   4.498  10.315 -0.1392  0.0626 -0.2526
 7824PP      PP17928  14.600   0.503  10.044  0.0657 -0.2712  0.0110
 7825PP      PP17929   8.971  11.541   3.644 -0.0107  0.3029  0.2675
 7826PP      PP17930   1.388   4.398   4.430 -0.0272 -0.0271  0.2369
 7827PP      PP17931   7.860   4.228   9.953 -0.1678  0.0144  0.0620
 7828PP      PP17932   4.192   3.484  11.196  0.0772  0.0350 -0.2480
 7829PP      PP17933  11.495   0.276   4.751  0.3255  0.2758  0.0168
 7830PP      PP17934   6.211  11.740   0.486 -0.1842  0.2885 -0.3243
 7831PP      PP17935   7.539   4.893   9.108  0.0711  0.2603 -0.2933
 7832PP      PP17936  13.069  15.540  12.294  0.0194  0.2788 -0.0867
 7833PP      PP17937   7.904   2.582  10.561 -0.1678 -0.0642 -0.2037
 7834PP      PP17938   7.873  14.776  10.524  0.0066 -0.2669 -0.1209
 7835PP      PP17939   4.672   9.092  10.647 -0.2272  0.1096  0.2105
 7836PP      PP17940   2.241  14.367   9.418 -0.1585 -0.0399  0.0688
 7837PP      PP17941   9.571   8.715  10.061  0.1914  0.5561 -0.0998
 7838PP      PP17942  11.916   5.646  12.723  0.1095 -0.0369 -0.3614
 7839PP      PP17943  10.098   7.636   9.511  0.1181  0.0466  0.3800
 7840PP      PP17944   7.982   8.067   4.118  0.1867  0.1163  0.0316
 7841PP      PP17945   2.904  15.476   2.473 -0.2347  0.0691 -0.2041
 7842PP      PP17946   0.503  13.137   4.309 -0.1365  0.0460  0.0476
 7843PP      PP17947   1.145  13.901   2.590 -0.1731 -0.1541  0.0548
 7844PP      PP17948  13.493   1.014   0.484  0.3414 -0.1584  0.1403
 7845PP      PP17949  11.072  14.866   3.687  0.2905  0.0934  0.0469
 7846PP      PP17950   5.335   7.462  12.300 -0.1366 -0.1367  0.1686
 7847PP      PP17951   2.524   8.577   2.294  0.1383 -0.1141  0.0991
 7848PP      PP17952   8.530   5.465   3.929 -0.0718 -0.0982  0.1995
 7849PP      PP17953  13.259   6.276   9.896  0.0473  0.1005 -0.2570
 7850PP      PP17954   5.268   1.566   2.153 -0.1539 -0.0085  0.4219
 7851PP      PP17955  12.909   9.106  11.723  0.0414 -0.2140 -0.1630
 7852PP      PP17956   0.197   7.599  12.649  0.1333 -0.3213  0.0308
 7853PP      PP17957   3.173   9.099   2.644 -0.1385  0.0371 -0.1283
 7854PP      PP17958   7.967   9.450  12.754  0.3540  0.3044 -0.1837
 7855PP      PP17959  12.918   3.234   1.211  0.0104  0.1295 -0.0090
 7856PP      PP17960   7.408  13.365   3.655 -0.1144 -0.1964  0.0872
 7857PP      PP17961   9.876   9.966   3.614 -0.0466 -0.1161 -0.1115
 7858PP      PP17962   8.942   8.298  12.179 -0.0337  0.3120 -0.1029
 7859PP      PP17963  11.165   6.593  13.698 -0.0921 -0.1708 -0.0303
 7860PP      PP17964   0.958  12.378  10.927 -0.2051  0.2754 -0.0172
 7861PP      PP17965   5.555   3.352  11.715 -0.0148 -0.1756  0.0410
 7862PP      PP17966   4.297  10.779  12.231  0.0285 -0.1411  0.2412
 7863PP      PP17967  15.634  10.890   1.783 -0.2774  0.0056  0.0199
 7864PP      PP17968  15.622   0.048  11.169 -0.0284  0.0112 -0.1239
 7865PP      PP17969  10.907  15.668  11.037 -0.2387  0.0218 -0.1696
 7866PP      PP17970   8.452  11.916   9.413  0.0460 -0.1741 -0.0510
 7867PP      PP17971  11.739   7.965  10.546  0.2147 -0.1637 -0.1396
 7868PP      PP17972   6.877   5.274   9.928  0.0597  0.1102 -0.2330
 7869PP      PP17973  12.576   2.465  13.016 -0.0781 -0.0110 -0.2490
 7870PP      PP17974   3.822  10.514   1.863  0.1833 -0.2933  0.0140
 7871PP      PP17975   5.783   2.904   2.094  0.1992  0.1882 -0.0536
 7872PP      PP17976   3.827   1.787  10.650  0.0553 -0.0153 -0.0177
 7873PP      PP17977  15.611  12.574   2.065  0.3243  0.0533  0.0101
 7874PP      PP17978   3.582   7.891  10.123 -0.2638  0.0680 -0.4108
 7875PP      PP17979   8.758   4.906   0.777 -0.0954  0.2062  0.2948
 7876PP      PP17980   8.209   3.007  10.638 -0.0970  0.1930  0.4453
 7877PP      PP17981   9.308   4.595  11.798 -0.0606 -0.1735  0.1046
 7878PP      PP17982   9.762  11.755   1.309  0.1226 -0.0856 -0.0973
 7879PP      PP17983  12.612  10.307  13.538 -0.2199 -0.1048 -0.3024
 7880PP      PP17984  14.362  15.503  13.461  0.1090 -0.1006 -0.0987
 7881PP      PP17985   2.023   7.701   9.802  0.0478 -0.0302  0.1340
 7882PP      PP17986   0.734  10.555   2.991 -0.2376 -0.2138  0.1658
 7883PP      PP17987  13.962   0.598   9.779 -0.2899  0.1838  0.1266
 7884PP      PP17988   3.872   9.484   0.846  0.1970  0.0481  0.3427
 7885PP      PP17989  13.555   9.569   3.815  0.2785 -0.1790 -0.1223
 7886PP      PP17990   6.730  15.033   2.843  0.0788  0.1020 -0.0981
 7887PP      PP17991   4.546  11.018   3.839 -0.1101  0.0207  0.0667
 7888PP      PP17992   2.784   1.571   2.076 -0.4658  0.0837 -0.2940
 7889PP      PP17993  14.659  10.736  11.296 -0.4232 -0.0176 -0.1853
 7890PP      PP17994   8.762   5.183  10.260  0.1466 -0.1924  0.1022
 7891PP      PP17995   9.914  14.203   1.330 -0.3698  0.3825  0.3121
 7892PP      PP17996   0.911  11.060  12.061 -0.0962 -0.3021  0.0790
 7893PP      PP17997  11.593  10.473  10.280 -0.2577 -0.0324  0.0043
 7894PP      PP17998   1.141   9.110   3.050 -0.2979 -0.1852 -0.1495
 7895PP      PP17999  14.688  10.652   0.296  0.2033 -0.3296  0.0945
 7896PP      PP18000  12.762  12.686  11.275 -0.2135 -0.2067 -0.1302
 7897PP      PP18001   9.844   2.964   1.332  0.0217  0.2817 -0.0383
 7898PP      PP18002   1.004   7.276   8.629  0.0919  0.2636  0.0733
 7899PP      PP18003  11.766   2.778  12.247 -0.2887 -0.3501  0.0323
 7900PP      PP18004   0.173   7.860  12.159  0.5172  0.2473 -0.1096
 7901PP      PP18005   9.091  14.423   0.747  0.0506  0.1558 -0.0717
 7902PP      PP18006  14.903  11.939   1.556  0.1908 -0.3180  0.1257
 7903PP      PP18007   0.042   4.705   8.984  0.1699 -0.1016 -0.0178
 7904PP      PP18008  10.923   5.833  10.106 -0.0835  0.0097  0.2234
 7905PP      PP18009   2.682   5.283   2.443  0.1337 -0.2695 -0.1821
 7906PP      PP18010   6.863   4.856   0.174 -0.0143  0.0547 -0.2389
 7907PP      PP18011   2.806   1.987   8.237  0.0484  0.1890  0.1195
 7908PP      PP18012  10.106   2.687  12.999 -0.0303 -0.2345 -0.0101
 7909PP      PP18013  13.220   8.360  12.013  0.0028 -0.0950 -0.1242
 7910PP      PP18014   0.399   4.171   2.042 -0.0020 -0.0407  0.2345
 7911PP      PP18015  11.138  10.127  12.390 -0.3653 -0.0207  0.2123
 7912PP      PP18016   8.983   2.151   1.582 -0.0970  0.2133  0.0295
 7913PP      PP18017   4.324   7.995  10.683  0.0750  0.1356  0.1982
 7914PP      PP18018   7.780   1.513  11.946  0.0240  0.0663  0.1436
 7915PP      PP18019   4.014   5.909   1.979 -0.0118 -0.3754  0.0453
 7916PP      PP18020   2.932   0.720   1.745  0.3223 -0.0229  0.1422
 7917PP      PP18021  14.837   6.503   2.794 -0.0604 -0.0337 -0.1322
 7918PP      PP18022   5.401  15.601  12.835  0.0448 -0.1171  0.3350
 7919PP      PP18023   1.712   4.743  12.447  0.3479  0.2478 -0.0943
 7920PP      PP18024  13.261   4.573   3.685  0.1738 -0.2368  0.0456
 7921PP      PP18025   2.546  12.579  13.222  0.0975  0.0424 -0.0054
 7922PP      PP18026   1.973  13.029   9.681  0.2450 -0.4198 -0.0221
 7923PP      PP18027   0.847   5.562   4.045  0.2147 -0.1858  0.3328
 7924PP      PP18028   7.448  12.825   4.589  0.1370 -0.0163  0.1244
 7925PP      PP18029   6.405   1.639   8.808 -0.4055 -0.0399 -0.2140
 7926PP      PP18030   5.785   9.016  11.811  0.1066 -0.0942 -0.0547
 7927PP      PP18031  11.477   1.603   1.818  0.1860  0.0179 -0.1135
 7928PP      PP18032  14.797   1.665  10.948  0.0225  0.3851 -0.2460
 7929PP      PP18033   8.917  11.061   3.930  0.1558 -0.4174  0.0608
 7930PP      PP18034  14.291   1.173  12.880 -0.1228 -0.3797 -0.1247
 7931PP      PP18035  14.022  12.161   2.384 -0.0021 -0.1923 -0.0929
 7932PP      PP18036   7.416  15.722   1.187 -0.1987  0.1641  0.2023
 7933PP      PP18037   9.917   4.558   3.671 -0.1601  0.2213  0.0338
 7934PP      PP18038   1.761   1.985  10.917 -0.2126  0.0991 -0.1857
 7935PP      PP18039   1.893  10.402   3.856 -0.0772  0.0892  0.1496
 7936PP      PP18040   6.730   0.308  11.003  0.1688 -0.2589 -0.2195
 7937PP      PP18041   6.172   6.153   9.190  0.1540  0.3786 -0.4482
 7938PP      PP18042   5.619   3.402  12.594  0.0881  0.2191 -0.0306
 7939PP      PP18043  11.069   1.189   0.566 -0.3291 -0.1837  0.2881
 7940PP      PP18044  13.137   5.402   3.718 -0.4721 -0.0895 -0.2133
 7941PP      PP18045  14.907  14.777  11.592  0.1079 -0.0542  0.2588
 7942PP      PP18046   2.921   1.778   1.529 -0.0580 -0.5111  0.3540
 7943PP      PP18047   9.999   4.512   9.314 -0.1251 -0.2979 -0.3547
 7944PP      PP18048  14.971   6.264  11.679 -0.3775  0.2016 -0.2716
 7945PP      PP18049  13.288   6.727   0.561  0.2488 -0.3254  0.1885
 7946PP      PP18050   4.815   9.931   2.717  0.0334  0.1884  0.0335
 7947PP      PP18051   9.189   8.864   9.833  0.2807 -0.0725 -0.2085
 7948PP      PP18052  13.766   6.747  10.921  0.1755 -0.3391 -0.0821
 7949PP      PP18053   4.110   3.757  11.745 -0.1379  0.2209 -0.2578
 7950PP      PP18054  12.928  11.583   4.918  0.0402 -0.1286  0.0539
 7951PP      PP18055   0.759   1.689   9.656 -0.1690  0.2126 -0.0365
 7952PP      PP18056   8.074   3.330  12.359 -0.0049  0.1945 -0.1999
 7953PP      PP18057  11.614   4.705  12.393  0.1143  0.1910 -0.2870
 7954PP      PP18058   0.454   5.485  12.674 -0.0548 -0.0769  0.0277
 7955PP      PP18059  15.515  10.576   1.215  0.0863  0.1250 -0.0083
 7956PP      PP18060   5.761   8.613   4.189 -0.0306  0.0826 -0.3836
 7957PP      PP18061  13.571   7.170   4.622  0.1884  0.3257 -0.1897
 7958PP      PP18062   7.137  14.982   1.842  0.1613  0.1651  0.0848
 7959PP      PP18063   4.578  15.448   9.351  0.1641 -0.1180 -0.1914
 7960PP      PP18064   6.119   7.017   3.141 -0.0097 -0.0923 -0.3031
 7961PP      PP18065   7.739   1.926  12.201 -0.1867  0.0501 -0.1851
 7962PP      PP18066  12.775  13.135   2.012  0.1417 -0.0833 -0.0363
 7963PP      PP18067  12.701  11.793  12.721  0.0961  0.0980  0.0675
 7964PP      PP18068  14.003   8.155   4.583 -0.1527 -0.0619  0.1209
 7965PP      PP18069   2.029   3.120   9.285 -0.0936  0.2055 -0.1316
 7966PP      PP18070  13.918   5.387   5.157 -0.1257  0.0278  0.1286
 7967PP      PP18071   3.162   7.944  13.607  0.1612 -0.0037 -0.3307
 7968PP      PP18072   9.783   9.268   5.099  0.1348 -0.0857 -0.1726
 7969PP      PP18073   4.451  11.848  10.779  0.1492 -0.1813 -0.2677
 7970PP      PP18074  12.658   5.409   3.754 -0.1970  0.2137  0.0567
 7971PP      PP18075   3.191  14.531   1.911  0.0513  0.0119 -0.0487
 7972PP      PP18076  14.150   8.392   5.009 -0.4216 -0.2206  0.0732
 7973PP      PP18077   0.128   1.115   3.677  0.0589 -0.0790 -0.0362
 7974PP      PP18078   5.746   2.158   8.817  0.2359 -0.0290  0.1205
 7975PP      PP18079  12.694  13.665  10.379 -0.0199 -0.2151  0.1696
 7976PP      PP18080   2.783   7.106  10.721  0.1140 -0.3496  0.1160
 7977PP      PP18081  11.789   3.716  12.574  0.2030  0.1894  0.1476
 7978PP      PP18082  13.113  13.930   4.370  0.1866  0.2495 -0.0396
 7979PP      PP18083   2.290   9.171   1.553  0.0697  0.1270  0.0280
 7980PP      PP18084   1.895  11.716  13.462 -0.1577  0.0198  0.3453
 7981PP      PP18085  10.886  11.016   6.480  0.1304 -0.2154  0.5947
 7982PP      PP18086   2.092  15.444  10.172 -0.0693 -0.3573 -0.0387
 7983PP      PP18087  11.044   1.968   2.682 -0.3302  0.1825 -0.0489
 7984PP      PP18088   2.304   0.043   1.497 -0.0125  0.2260 -0.1281
 7985PP      PP18089   3.545  11.634   9.904 -0.0286  0.1138  0.2588
 7986PP      PP18090   2.970  11.695   1.281 -0.0817  0.0518 -0.0709
 7987PP      PP18091   3.508   2.481  11.388 -0.0661  0.0830 -0.0708
 7988PP      PP18092  10.565   1.092  13.580  0.1559  0.4407 -0.0097
 7989PP      PP18093  11.461  10.234  11.954  0.1865  0.1256 -0.0652
 7990PP      PP18094  11.716   2.987   3.474 -0.0414 -0.0364  0.0841
 7991PP      PP18095  12.395  14.619   9.881  0.0714  0.0639  0.1030
 7992PP      PP18096   2.799   9.012   0.815  0.1089  0.2285  0.1467
 7993PP      PP18097   7.827  11.122  11.239  0.2054  0.0185 -0.1195
 7994PP      PP18098   9.339  13.456   1.455 -0.1754 -0.3331  0.0976
 7995PP      PP18099  12.256   6.041   0.565  0.1551  0.1597  0.1890
 7996PP      PP18100  14.262   9.287  13.459 -0.5282 -0.1421 -0.1780
 7997PP      PP18101   2.949   6.756  11.201  0.2616  0.0983 -0.0807
 7998PP      PP18102   6.329   1.315  12.847 -0.4063  0.3082 -0.2370
 7999PP      PP18103  12.702  12.010  11.832  0.1139  0.2333 -0.0788
 8000PP      PP18104  11.012   4.463  10.496  0.0357 -0.0504  0.3648
 8001PP      PP18105   2.718   5.546  12.606 -0.0270  0.0611 -0.2405
 8002PP      PP18106   5.349   7.432   0.715  0.1323 -0.0646  0.2279
 8003PP      PP18107  11.893   1.531  10.854 -0.1178  0.1087  0.0387
 8004PP      PP18108   8.748  12.459   4.243  0.0231  0.2750  0.2175
 8005PP      PP18109   6.102   4.025   9.987  0.2866  0.1923  0.1781
 8006PP      PP18110   3.882   6.819   0.227 -0.0720 -0.0685 -0.1131
 8007PP      PP18111   5.463   2.380   1.266  0.5306 -0.0038  0.0488
 8008PP      PP18112   4.522   5.008   9.600 -0.1021 -0.2959 -0.0540
 8009PP      PP18113   5.632   8.959   1.685 -0.2290 -0.1618  0.2496
 8010PP      PP18114  14.097   8.172   2.926  0.2640  0.2093 -0.2044
 8011PP      PP18115   7.754  14.995  12.993 -0.0619  0.0426  0.1496
 8012PP      PP18116   0.237   0.299   4.598 -0.3403  0.0836 -0.2941
 8013PP      PP18117  14.071   3.286   0.876  0.0424 -0.2561 -0.0322
 8014PP      PP18118   5.984   7.176   1.779 -0.0525 -0.1784  0.0735
 8015PP      PP18119  11.152   0.736  13.137 -0.4433  0.1308  0.1721
 8016PP      PP18120   1.057  15.308   9.456 -0.0170  0.0979  0.1428
 8017PP      PP18121  11.565   7.223   2.782 -0.1732 -0.0195  0.1212
 8018PP      PP18122  10.831  13.441   1.224  0.1600  0.2499  0.1580
 8019PP      PP18123  11.703   3.046   3.980  0.0110 -0.2632 -0.0667
 8020PP      PP18124   3.760   6.520   9.562 -0.1559  0.1224 -0.1228
 8021PP      PP18125   6.690  13.241  12.973  0.3313  0.1509 -0.1800
 8022PP      PP18126  14.918  12.162   2.642 -0.2603  0.1575 -0.2860
 8023PP      PP18127   3.315   9.027  12.370  0.0014 -0.0891 -0.0091
 8024PP      PP18128  14.049  13.891  11.117 -0.2833 -0.0197 -0.1755
 8025PP      PP18129   4.451   8.194  11.115 -0.2936 -0.2157 -0.2256
 8026PP      PP18130   2.549  12.091   2.938 -0.0662 -0.0084  0.2852
 8027PP      PP18131   3.819  12.880  11.469  0.1536  0.0925 -0.1946
 8028PP      PP18132   7.636   3.693   8.312  0.1735  0.1033  0.0447
 8029PP      PP18133   8.961   6.706  12.420  0.2306  0.0008  0.1059
 8030PP      PP18134   0.830   3.977   2.268  0.2006  0.2552  0.4523
 8031PP      PP18135  11.040  14.051   4.208 -0.0009  0.1049  0.0795
 8032PP      PP18136   7.703  11.321   3.867  0.0985  0.2382  0.1487
 8033PP      PP18137   8.128   7.152   1.018  0.1056 -0.0371 -0.1584
 8034PP      PP18138   2.418   1.469   1.677  0.1196 -0.0391  0.1154
 8035PP      PP18139   0.077  13.228  12.597  0.1398 -0.2140  0.0710
 8036PP      PP18140   7.646   8.401  11.541 -0.3671 -0.3126  0.2457
 8037PP      PP18141  13.240   8.023   0.797  0.0032  0.1123  0.2211
 8038PP      PP18142  12.322  13.546  11.111  0.2231 -0.0492  0.1952
 8039PP      PP18143  12.399  11.247   0.600  0.1333 -0.0667  0.2802
 8040PP      PP18144   8.077   9.040   1.354 -0.0613 -0.0202 -0.0262
 8041PP      PP18145  15.415   3.332   2.722  0.1417  0.3126  0.1664
 8042PP      PP18146  13.954   2.700   4.544 -0.0513  0.3763 -0.1903
 8043PP      PP18147   7.033   6.082   2.347 -0.1267  0.2150 -0.2476
 8044PP      PP18148  11.469  11.902   1.394  0.1475 -0.1258  0.1001
 8045PP      PP18149  13.224   2.188   3.354  0.0636 -0.0441 -0.2678
 8046PP      PP18150   9.206   1.005   2.219  0.3902  0.0201  0.0774
 8047PP      PP18151   2.753   1.357   8.625 -0.0355  0.0665 -0.0060
 8048PP      PP18152   2.887  12.229   2.424  0.0922 -0.1217  0.0538
 8049PP      PP18153  15.014  12.657  10.708  0.1529 -0.1616  0.2255
 8050PP      PP18154   2.811  15.587   8.995 -0.0572  0.1041 -0.0811
 8051PP      PP18155  11.145  12.278   3.677  0.1118  0.1752 -0.0560
 8052PP      PP18156   0.895   6.982  12.098  0.1908 -0.0269  0.3842
 8053PP      PP18157   6.100   3.656  12.328  0.1814 -0.0824  0.3143
 8054PP      PP18158  14.525   2.896   2.070  0.1882  0.3683  0.0437
 8055PP      PP18159  10.596   1.790   1.447 -0.2408  0.2337  0.1102
 8056PP      PP18160   4.039   8.889  13.304 -0.0206 -0.1052 -0.0366
 8057PP      PP18161   3.944   5.224  13.122  0.1247  0.1707  0.0581
 8058PP      PP18162  13.860  10.631   0.138  0.0733 -0.2157 -0.0057
 8059PP      PP18163   5.236  11.965  12.034 -0.1458 -0.6041 -0.0612
 8060PP      PP18164   5.690  11.939  12.204  0.1663 -0.0974 -0.0318
 8061PP      PP18165   4.889   5.522   8.425 -0.1157 -0.0309 -0.2125
 8062PP      PP18166   0.326  15.285   1.764 -0.1961 -0.0217  0.0809
 8063PP      PP18167   6.110   4.923  10.481  0.1125 -0.2012  0.0095
 8064PP      PP18168  14.509  13.189   9.442 -0.3255 -0.1473  0.0788
 8065PP      PP18169   8.792  10.079   7.412  0.3583  0.1260 -0.1156
 8066PP      PP18170   9.837  13.098   4.006  0.3435 -0.2683  0.1724
 8067PP      PP18171   1.832  11.617  10.541 -0.0234 -0.1806 -0.0445
 8068PP      PP18172   6.105   6.257  10.281 -0.0835  0.0357  0.1849
 8069PP      PP18173  11.713  15.534   2.995  0.2761  0.2102 -0.2485
 8070PP      PP18174  15.709   6.942  10.248  0.0686  0.1202 -0.1413
 8071PP      PP18175   4.282   7.016  13.671  0.0209  0.3350  0.1717
 8072PP      PP18176  10.191  14.310   2.113  0.3111  0.2048 -0.0090
 8073PP      PP18177   1.863   8.854   0.095  0.3269  0.2313 -0.2050
 8074PP      PP18178  13.586  13.652  13.757  0.1502 -0.0555 -0.1239
 8075PP      PP18179  13.664   6.411   2.320 -0.1632  0.2882 -0.0226
 8076PP      PP18180  10.627   8.120   1.521 -0.0052  0.1855  0.2518
 8077PP      PP18181   6.257  10.238   9.803  0.4109  0.1719  0.2121
 8078PP      PP18182  10.757  14.501  10.456 -0.2362 -0.1427  0.2842
 8079PP      PP18183  13.441   2.403   0.763 -0.0789 -0.1078 -0.0235
 8080PP      PP18184   9.072   9.801  10.773 -0.0530  0.0886  0.1655
 8081PP      PP18185  12.808   5.987   0.702  0.0671 -0.4106  0.0859
 8082PP      PP18186   4.214  15.627   3.623  0.2171  0.1483  0.0121
 8083PP      PP18187   7.754  15.568   2.786  0.2344 -0.0090 -0.3329
 8084PP      PP18188   9.708  11.721  13.047  0.0863 -0.0171 -0.0092
 8085PP      PP18189   2.431  15.318   9.175 -0.3732 -0.2166 -0.0404
 8086PP      PP18190  12.054   8.923  11.378  0.0202  0.0364  0.2347
 8087PP      PP18191  12.191   2.817   3.271  0.4597 -0.1307 -0.2734
 8088PP      PP18192  14.453   1.850  12.881 -0.0718 -0.0663  0.1299
 8089PP      PP18193  15.121   2.873   3.933  0.0358 -0.0585  0.1920
 8090PP      PP18194   2.008   6.158   0.838  0.1241 -0.1092  0.2032
 8091PP      PP18195   4.981   3.067  12.644 -0.1545  0.2816 -0.2703
 8092PP      PP18196  12.332   3.602   3.675  0.1318  0.4240  0.0632
 8093PP      PP18197   2.302   3.985   8.853 -0.2251 -0.0750  0.2213
 8094PP      PP18198   9.869  13.914   3.398 -0.3188  0.0125 -0.4790
 8095PP      PP18199  12.051  15.311  11.553 -0.3565 -0.2875  0.1007
 8096PP      PP18200   3.531   6.717   2.226 -0.0068  0.1415  0.0393
 8097PP      PP18201   6.961   8.907   2.284  0.0961  0.0420  0.1731
 8098PP      PP18202  11.282   7.027  12.283 -0.2052 -0.2370 -0.0739
 8099PP      PP18203  14.736   1.654   3.651  0.0467 -0.0215  0.2180
 8100PP      PP18204   2.093   4.221   2.862 -0.0122  0.0032 -0.2454
 8101PP      PP18205   9.941   8.151  11.918 -0.0646 -0.1452 -0.0851
 8102PP      PP18206   4.801   7.497   4.096 -0.1470  0.2268 -0.0433
 8103PP      PP18207   3.373   3.286   1.605 -0.0395  0.3060  0.1604
 8104PP      PP18208   8.033  10.979  11.782 -0.0935 -0.0240  0.1252
 8105PP      PP18209   4.036   5.145   8.155  0.0985 -0.0012 -0.3184
 8106PP      PP18210  15.416   8.689   4.340 -0.2464 -0.1106 -0.0742
 8107PP      PP18211   8.967  11.091  10.177  0.0226  0.0729 -0.1017
 8108PP      PP18212  11.115  12.010  12.188 -0.3111 -0.1185  0.0642
 8109PP      PP18213   0.374   8.704   0.555  0.2347  0.1825  0.1494
 8110PP      PP18214  11.083  10.286  12.942 -0.1274  0.0625 -0.2224
 8111PP      PP18215   0.156  13.658   2.991 -0.0707 -0.2037 -0.1463
 8112PP      PP18216   4.954   7.752   9.729  0.2735  0.0468  0.2124
 8113PP      PP18217   6.063  14.387  11.199 -0.1972 -0.0443  0.1551
 8114PP      PP18218  15.107  15.319  12.368 -0.0258  0.0978 -0.1675
 8115PP      PP18219   9.046  13.841  13.513 -0.1577 -0.0564 -0.0137
 8116PP      PP18220   8.244  14.351   0.159  0.2496  0.0047 -0.0355
 8117PP      PP18221  15.104   4.758  10.290 -0.1988 -0.0053 -0.0637
 8118PP      PP18222   3.428  10.669   0.790 -0.1790  0.2210  0.2508
 8119PP      PP18223   8.308   4.161   2.653  0.2331  0.1052 -0.0522
 8120PP      PP18224   3.386   5.438   9.270  0.0422 -0.0116 -0.0885
 8121PP      PP18225   3.373   1.001   2.150  0.2307 -0.2905 -0.2274
 8122PP      PP18226   3.121   6.544   0.649 -0.0716  0.1056 -0.2310
 8123PP      PP18227  14.186   1.507  11.867  0.1655 -0.0772 -0.0239
 8124PP      PP18228   6.679   6.919  10.457  0.0167  0.3261 -0.4000
 8125PP      PP18229  13.127  12.947  12.589  0.0519  0.2275 -0.1913
 8126PP      PP18230  13.624  14.482   3.947  0.1442 -0.1645  0.1050
 8127PP      PP18231   5.930  12.516  13.007 -0.1508  0.3037  0.2694
 8128PP      PP18232   8.378  13.364  11.442  0.0402  0.3695  0.1996
 8129PP      PP18233  10.674   5.551   4.275 -0.2112  0.0225 -0.0212
 8130PP      PP18234   1.027   4.512   1.602  0.0623  0.0804 -0.0123
 8131PP      PP18235   4.506  14.544   1.058  0.2113  0.1683  0.0830
 8132PP      PP18236   0.225   6.369  11.422  0.1296 -0.0372 -0.0193
 8133PP      PP18237  10.618   7.226  13.145  0.1494  0.0171  0.2186
 8134PP      PP18238  10.600   4.077  12.720 -0.1093 -0.3186  0.1599
 8135PP      PP18239   7.148   7.289  12.215  0.3038  0.0369 -0.2505
 8136PP      PP18240   5.261  11.821  11.298  0.2219 -0.3237  0.0826
 8137PP      PP18241   2.579  10.474  11.389  0.1083 -0.0403 -0.0143
 8138PP      PP18242  12.121   3.312  11.155  0.0130 -0.1515 -0.2484
 8139PP      PP18243   4.756   4.513   8.567  0.2389  0.0492 -0.0957
 8140PP      PP18244   6.120  15.046   8.964  0.0847  0.0535 -0.0680
 8141PP      PP18245  12.771   7.937   2.480 -0.0325  0.0668 -0.3384
 8142PP      PP18246   2.381   4.068  10.174 -0.2946 -0.0693  0.2464
 8143PP      PP18247   2.780   6.116  13.596 -0.2020  0.3905 -0.1252
 8144PP      PP18248   5.859   4.812  12.029 -0.2086  0.0720 -0.0737
 8145PP      PP18249   3.767   1.279  13.593 -0.1702 -0.0225  0.0063
 8146PP      PP18250  13.573   4.063  10.632  0.3537 -0.3726  0.0115
 8147PP      PP18251   6.047  15.134   3.940  0.1512 -0.0027  0.1157
 8148PP      PP18252   4.349   9.156   1.241  0.0759 -0.1709  0.0928
 8149PP      PP18253   5.859   5.919   1.456  0.0757  0.0168  0.1917
 8150PP      PP18254   1.547   7.119  11.939 -0.1686 -0.0461  0.1523
 8151PP      PP18255  15.256   0.956  12.180  0.2061 -0.3842  0.0487
 8152PP      PP18256  13.162   5.610  13.411 -0.1183  0.0882 -0.0432
 8153PP      PP18257   2.636  12.114   4.372  0.0933 -0.1466  0.0163
 8154PP      PP18258   1.944   5.825  11.564 -0.1542  0.2428 -0.0419
 8155PP      PP18259   4.540  11.032  13.412  0.1069  0.0422 -0.2770
 8156PP      PP18260   8.257  14.450  11.554  0.1512  0.0299  0.1175
 8157PP      PP18261  11.719   6.436   4.681 -0.2998  0.2973 -0.1513
 8158PP      PP18262   7.350   7.594  11.743  0.2971 -0.0833  0.0977
 8159PP      PP18263  15.695   9.221  12.791 -0.2499 -0.1587 -0.0062
 8160PP      PP18264   6.432  14.875   1.478  0.3540  0.0377 -0.1954
 8161PP      PP18265   3.948  10.543  13.724  0.0975  0.0343 -0.0155
 8162PP      PP18266   7.488  14.641   2.108  0.1674  0.1845 -0.1415
 8163PP      PP18267   3.354  12.384  13.291 -0.0156 -0.0908  0.2500
 8164PP      PP18268  11.626  15.362   9.862 -0.2677  0.1782  0.1611
 8165PP      PP18269   0.777   1.539  11.885  0.0041  0.3015 -0.0895
 8166PP      PP18270   4.154  11.698  11.248 -0.1890  0.1070 -0.1890
 8167PP      PP18271   8.763  13.430   1.476 -0.0323  0.2409 -0.1281
 8168PP      PP18272   2.798   9.474   3.579 -0.1551 -0.0985 -0.0134
 8169PP      PP18273  14.561   1.847  11.960  0.1356  0.0421 -0.0657
 8170PP      PP18274  14.648   3.545   9.568  0.1252  0.1327  0.3358
 8171PP      PP18275   7.839  12.507   0.076 -0.0027  0.2375  0.1388
 8172PP      PP18276  13.033  10.091  11.444 -0.0492  0.1674  0.2470
 8173PP      PP18277   7.291   0.441  11.046  0.1885 -0.0036  0.0115
 8174PP      PP18278  12.983  13.247   0.728 -0.1030 -0.1731  0.0205
 8175PP      PP18279  13.890   0.462  11.283 -0.0063 -0.1826  0.0674
 8176PP      PP18280  14.985   2.530   2.186  0.5668  0.0420  0.0576
 8177PP      PP18281  10.328   9.178   0.189 -0.1737  0.1913  0.0404
 8178PP      PP18282   0.333  12.752  12.643 -0.1494  0.1646  0.2521
 8179PP      PP18283   7.232   4.568   2.664  0.1327  0.0744 -0.0327
 8180PP      PP18284   3.123   6.186  13.073  0.2359  0.1536 -0.2499
 8181PP      PP18285   6.069  12.799   1.052 -0.0914  0.0082 -0.3724
 8182PP      PP18286  12.236   2.783  12.035  0.2266  0.1906 -0.3141
 8183PP      PP18287   4.959  14.384   0.728  0.0531  0.0831 -0.2518
 8184PP      PP18288   6.602   0.382   1.778  0.3203 -0.1762 -0.0342
 8185PP      PP18289  11.032   7.296   3.834  0.0831 -0.2591  0.0474
 8186PP      PP18290  10.232  10.579   3.084 -0.4131  0.3499 -0.1752
 8187PP      PP18291   7.653   4.440  10.948  0.0824  0.1938 -0.0742
 8188PP      PP18292   8.901  13.282  13.480  0.1312 -0.1825  0.2001
 8189PP      PP18293   7.810   1.979  12.663  0.5216 -0.1415  0.0205
 8190PP      PP18294  15.004   7.719   0.199 -0.1875 -0.1028 -0.1556
 8191PP      PP18295   8.843   8.665   1.814 -0.2646 -0.2117  0.3158
 8192PP      PP18296  13.246   2.983  12.538  0.0867  0.2441 -0.0526
 8193PP      PP18297  10.213  14.038   3.824 -0.0931 -0.0132 -0.1840
 8194PP      PP18298  11.148   4.034  13.664 -0.1739  0.2636 -0.1024
 8195PP      PP18299   2.379  11.991  12.159  0.4391  0.0484 -0.0169
 8196PP      PP18300   2.909   5.563   9.451 -0.0666 -0.0801 -0.0740
 8197PP      PP18301   6.699  12.106   1.799 -0.1124 -0.0412  0.1293
 8198PP      PP18302   4.055  15.235   0.821 -0.1932 -0.0696 -0.0974
 8199PP      PP18303  12.680  14.469   0.795 -0.0228 -0.1573 -0.0418
 8200PP      PP18304  11.330   6.831   2.364 -0.0253 -0.3571  0.0976
 8201PP      PP18305  13.015   7.370  13.205 -0.0910 -0.0749  0.1207
 8202PP      PP18306  13.584   4.245  11.344  0.2300 -0.2108 -0.0562
 8203PP      PP18307  13.350  15.622   3.459 -0.1571 -0.1937  0.0772
 8204PP      PP18308  12.204  14.140   1.405 -0.1711 -0.3682  0.2364
 8205PP      PP18309   5.524   3.156   9.121 -0.0677  0.0295  0.2069
 8206PP      PP18310   6.079   8.417  11.127  0.0340  0.0498  0.2011
 8207PP      PP18311   3.894   0.717   9.206 -0.0938  0.1787 -0.1026
 8208PP      PP18312   5.696   5.972  10.530  0.1595 -0.2658 -0.1664
 8209PP      PP18313  13.368  10.376   4.405  0.0003 -0.1543  0.0164
 8210PP      PP18314  11.903   4.372  12.616 -0.2994 -0.3461  0.2061
 8211PP      PP18315  14.451  11.137   3.643 -0.0234  0.3388 -0.0341
 8212PP      PP18316   1.104   0.739   8.640 -0.2526  0.2696  0.0268
 8213PP      PP18317  10.692   3.898   9.064  0.2390  0.3250  0.1109
 8214PP      PP18318  10.066  11.922   2.780  0.3457  0.0601  0.0195
 8215PP      PP18319  13.509   6.590  10.195  0.1501 -0.1452 -0.1627
 8216PP      PP18320   1.032  10.628   9.375 -0.1904 -0.0330 -0.0935
 8217PP      PP18321  11.181  15.288   3.210  0.1358 -0.0666  0.1253
 8218PP      PP18322   4.520   0.286  11.643 -0.2097  0.0740  0.1849
 8219PP      PP18323  13.336  10.765   0.861 -0.2270 -0.1526  0.3119
 8220PP      PP18324   9.544  11.351  13.577  0.1274 -0.0306  0.0918
 8221PP      PP18325  14.541  14.768   0.493 -0.0561  0.0405  0.1039
 8222PP      PP18326   8.454   9.381  10.154  0.2033  0.1265  0.1655
 8223PP      PP18327  11.467   9.230   3.204  0.0418 -0.1501  0.3150
 8224PP      PP18328   5.134   8.077   1.269 -0.1271  0.1335  0.0427
 8225PP      PP18329  15.229   5.999  13.408 -0.3207  0.1864 -0.0111
 8226PP      PP18330   4.056  14.014   1.036  0.2215 -0.0191  0.1221
 8227PP      PP18331   0.437   8.656   1.250  0.1169  0.5952 -0.0315
 8228PP      PP18332   5.278   3.156   0.035 -0.3058 -0.1239  0.0257
 8229PP      PP18333   4.729   7.742  13.135  0.0793 -0.4475 -0.2150
 8230PP      PP18334  13.238  12.647   3.895  0.0882  0.0721  0.0089
 8231PP      PP18335  14.332  14.327   2.868 -0.0278 -0.1718  0.0886
 8232PP      PP18336   5.687   9.524   1.733  0.0760  0.0309  0.2141
 8233PP      PP18337   8.826   0.871   2.605 -0.4616 -0.1041  0.0960
 8234PP      PP18338   7.420   9.056   0.612 -0.4788  0.0602  0.2133
 8235PP      PP18339   5.860  10.117   4.580 -0.0380  0.1946  0.0445
 8236PP      PP18340  12.720   3.428   0.721  0.1045 -0.0615  0.1337
 8237PP      PP18341  12.071  11.075  10.731 -0.0224 -0.2440 -0.1996
 8238PP      PP18342   1.756  14.619   1.282  0.2109 -0.0641 -0.1523
 8239PP      PP18343   8.526   6.410   9.869  0.0140  0.0831 -0.1223
 8240PP      PP18344   6.492  13.183   3.521  0.0335  0.0384  0.0567
 8241PP      PP18345   5.818   8.987   2.987  0.4258 -0.0833 -0.1619
 8242PP      PP18346  11.669  11.762   0.530 -0.3420  0.0893 -0.1050
 8243PP      PP18347  15.382   7.084   3.763 -0.1205 -0.1195  0.2209
 8244PP      PP18348   3.220  12.718   1.975  0.0860 -0.0055 -0.0904
 8245PP      PP18349  12.800   3.519   3.320 -0.1810  0.0000 -0.0960
 8246PP      PP18350   2.344   0.114   9.016 -0.0989 -0.0780 -0.1092
 8247PP      PP18351   2.818   1.087   4.193 -0.1125  0.2285  0.0344
 8248PP      PP18352  14.273  11.566   3.430 -0.0386  0.1203  0.3856
 8249PP      PP18353  14.596  13.289  12.759  0.0863 -0.3254  0.1925
 8250PP      PP18354   9.345   5.766   8.446 -0.1312 -0.0159  0.1704
 8251PP      PP18355  13.174   4.766   5.258  0.0903 -0.0779 -0.1810
 8252PP      PP18356   0.053   2.216   3.086 -0.2669 -0.4943 -0.2318
 8253PP      PP18357   8.066  14.658   1.959 -0.1489 -0.1406  0.1545
 8254PP      PP18358  12.436   7.169   5.756  0.0715  0.1293 -0.0889
 8255PP      PP18359   9.421   1.054   9.153  0.0692 -0.1374  0.1598
 8256PP      PP18360  15.187  11.194   1.745  0.2813 -0.0055 -0.1649
 8257PP      PP18361   7.745  10.062   1.278 -0.1686 -0.0988 -0.0367
 8258PP      PP18362   6.302   0.771   8.856  0.0127  0.3647  0.0718
 8259PP      PP18363  10.069  10.464   3.638 -0.1815  0.1118  0.2034
 8260PP      PP18364  11.175   0.622  12.218 -0.0224 -0.1166  0.1622
 8261PP      PP18365   4.240  11.311   0.593 -0.4615 -0.0741 -0.3637
 8262PP      PP18366   4.434  12.537   4.370  0.4405  0.0078  0.0513
 8263PP      PP18367  10.006  12.924   4.905  0.2499 -0.1454 -0.0411
 8264PP      PP18368   6.590  10.803  11.508  0.0597  0.2089  0.0636
 8265PP      PP18369   9.932  14.120   9.638  0.1119  0.1210 -0.1163
 8266PP      PP18370   1.222  13.489   1.755  0.1417  0.3144  0.3763
 8267PP      PP18371  10.924   7.789   2.567  0.3631  0.4553  0.0375
 8268PP      PP18372   4.170   3.098   0.176 -0.0640  0.0755  0.1134
 8269PP      PP18373  13.926  10.128  13.290  0.1592 -0.1569 -0.0480
 8270PP      PP18374   9.164  12.868   0.500 -0.0889 -0.0271 -0.0418
 8271PP      PP18375  10.639   0.574   4.477 -0.0232  0.0747  0.0194
 8272PP      PP18376   1.282   4.077  13.735 -0.0014  0.3112  0.2442
 8273PP      PP18377   9.411   0.022  13.540 -0.0922 -0.2830 -0.0735
 8274PP      PP18378   8.081   6.065  10.905 -0.0827 -0.0260 -0.0571
 8275PP      PP18379   9.920  11.590   5.862 -0.0585 -0.1462 -0.1027
 8276PP      PP18380   4.952   4.534   2.318  0.0185  0.2059 -0.0033
 8277PP      PP18381  14.112   6.632   2.369 -0.1270  0.2955  0.1275
 8278PP      PP18382   6.663  13.427  13.501 -0.0756  0.1450 -0.2615
 8279PP      PP18383  13.232   5.191   4.909 -0.0101 -0.1643 -0.3036
 8280PP      PP18384   7.186  11.749   2.260 -0.0596 -0.1756 -0.1565
 8281PP      PP18385  10.102  15.358  10.707  0.0870 -0.1031  0.2097
 8282PP      PP18386   2.017   7.756   4.939  0.1124  0.0037 -0.4983
 8283PP      PP18387  10.775   2.859   9.348 -0.1902 -0.1899 -0.1889
 8284PP      PP18388  15.160   7.729  11.667 -0.1023  0.1460 -0.1446
 8285PP      PP18389   5.498   7.918   9.969 -0.1951 -0.1463 -0.0604
 8286PP      PP18390   2.111   1.225  13.261 -0.2598  0.1465 -0.0308
 8287PP      PP18391   4.640   6.592  11.304 -0.0392 -0.1752 -0.1289
 8288PP      PP18392   1.363  14.678   1.625  0.1093  0.1314  0.0395
 8289PP      PP18393  11.781   4.674   4.643 -0.1389 -0.3123 -0.0307
 8290PP      PP18394  13.007  12.541   3.151 -0.0705 -0.1565  0.0294
 8291PP      PP18395   9.791   1.222   2.214  0.0563 -0.4147 -0.1352
 8292PP      PP18396   7.866  13.491   0.235  0.0091 -0.1386 -0.0275
 8293PP      PP18397   2.495   0.041   2.327 -0.0495 -0.0732  0.2079
 8294PP      PP18398  11.022  11.509   4.845 -0.1110  0.1629  0.1612
 8295PP      PP18399  14.592   7.440   2.117 -0.2803 -0.0012 -0.1797
 8296PP      PP18400  12.035   6.203   0.975 -0.3270 -0.0831 -0.0034
 8297PP      PP18401   8.626  15.716  10.004  0.0946  0.1066  0.2785
 8298PP      PP18402   5.452   2.846   2.880  0.0879 -0.0345 -0.3186
 8299PP      PP18403  15.255  12.789  10.237  0.0121  0.0451 -0.0829
 8300PP      PP18404   8.023   6.931  12.252 -0.0246  0.3530 -0.3087
 8301PP      PP18405   4.216  10.757   2.048  0.1221 -0.2886  0.2478
 8302PP      PP18406  14.022  12.559   5.202 -0.1310 -0.2049 -0.0288
 8303PP      PP18407   5.006  10.391  10.860  0.2144  0.2481 -0.1187
 8304PP      PP18408   5.343  12.347  13.725 -0.1200  0.0965 -0.1949
 8305PP      PP18409   0.666   9.292   3.510 -0.1617  0.0241 -0.1772
 8306PP      PP18410   3.230   0.522   2.143  0.2152  0.2131  0.0202
 8307PP      PP18411   9.470   4.551   1.608  0.2508  0.2780  0.1179
 8308PP      PP18412  13.684  11.310   9.111 -0.2185  0.2287  0.3658
 8309PP      PP18413   0.684  10.021   0.909 -0.0428  0.3814 -0.1866
 8310PP      PP18414   1.699   1.347  10.614 -0.1706 -0.1118  0.0076
 8311PP      PP18415   1.263   8.349   5.700  0.0612  0.0464  0.0100
 8312PP      PP18416   7.335  12.451  12.323  0.1801  0.0257  0.1905
 8313PP      PP18417   4.546   8.735  12.008 -0.0016  0.0190  0.3397
 8314PP      PP18418  15.477  12.935   9.125 -0.0986 -0.2737  0.0242
 8315PP      PP18419   9.931   9.580   4.756  0.1276  0.0532  0.0259
 8316PP      PP18420  15.214  12.045   9.553  0.4118  0.0876 -0.1321
 8317PP      PP18421   9.431  12.207  10.315  0.1724 -0.0759  0.0806
 8318PP      PP18422  12.270  12.352  11.415 -0.0176 -0.0521 -0.1585
 8319PP      PP18423   5.416   9.617   9.369 -0.1894  0.0042 -0.2826
 8320PP      PP18424   5.081   5.326  13.202 -0.1601  0.1115 -0.1040
 8321PP      PP18425   2.623   4.552  11.764 -0.1059 -0.1191  0.0855
 8322PP      PP18426   6.186   7.973   3.106  0.1930 -0.1533  0.1824
 8323PP      PP18427   2.684  14.846  13.681 -0.0085  0.0663 -0.4537
 8324PP      PP18428  12.311   4.174  10.589 -0.2987 -0.0314  0.0008
 8325PP      PP18429  11.544  15.230  11.386  0.1262  0.2015  0.1873
 8326PP      PP18430   1.048  15.601  12.568  0.3033 -0.0459  0.1429
 8327PP      PP18431  10.651  10.112   2.215 -0.1899 -0.1623  0.0759
 8328PP      PP18432   1.258  12.969   1.857 -0.2126 -0.0569 -0.1320
 8329PP      PP18433  12.818  10.780   3.741  0.1781  0.2793  0.3132
 8330PP      PP18434  10.666   1.896  11.675  0.1549 -0.2015  0.0761
 8331PP      PP18435   3.816  10.351   3.458  0.1228  0.2164 -0.2055
 8332PP      PP18436   5.358   3.590   1.575  0.0365  0.1159 -0.0104
 8333PP      PP18437   8.068   9.769  13.164  0.1592  0.1982  0.2228
 8334PP      PP18438  14.303  10.378   9.635  0.0718 -0.2823  0.1578
 8335PP      PP18439   3.592   4.485  10.864 -0.1276 -0.0557 -0.2291
 8336PP      PP18440   3.053  14.954   1.727  0.0443 -0.1950  0.3506
 8337PP      PP18441  12.755  13.883   3.053 -0.2469 -0.0244 -0.1512
 8338PP      PP18442   9.749  13.498   0.143 -0.2017  0.3331 -0.1834
 8339PP      PP18443   3.363   1.848  10.908  0.1572 -0.3573 -0.2430
 8340PP      PP18444  14.061   2.821   0.385 -0.0964 -0.0619 -0.0064
 8341PP      PP18445  11.901   2.356  13.325 -0.1569 -0.2028 -0.0852
 8342PP      PP18446   6.390   2.868  13.060 -0.0271  0.1966  0.4236
 8343PP      PP18447   2.898   1.143   3.736  0.1473  0.1345 -0.2735
 8344PP      PP18448   2.918   8.969  11.440  0.1615  0.1453  0.0081
 8345PP      PP18449  15.428   3.393   1.866 -0.1952 -0.0421  0.1790
 8346PP      PP18450   8.244  13.486  10.495  0.3145  0.0189 -0.3575
 8347PP      PP18451   1.940  10.537   0.841  0.0479 -0.4752 -0.1808
 8348PP      PP18452   0.754  15.652   3.639 -0.1998 -0.2173  0.1398
 8349PP      PP18453  11.538   4.056  12.320  0.0310  0.1524  0.0278
 8350PP      PP18454   9.694   8.568  10.789  0.4812 -0.2590  0.0363
 8351PP      PP18455   0.988   9.926   3.596  0.1121  0.2657  0.0401
 8352PP      PP18456  13.141   1.671  12.832  0.0632  0.0176 -0.0919
 8353PP      PP18457  12.508   6.695   5.567 -0.0187 -0.0528 -0.0826
 8354PP      PP18458   8.942   6.669   1.616  0.1460  0.1639 -0.1775
 8355PP      PP18459  11.188  12.444   4.609  0.0894 -0.1560 -0.3522
 8356PP      PP18460  13.544   5.742   4.224 -0.0087 -0.1415  0.0535
 8357PP      PP18461   0.796  11.495   2.582  0.0991  0.1836  0.6409
 8358PP      PP18462  15.185   5.227   3.189  0.1926  0.0012 -0.2563
 8359PP      PP18463   0.726   2.633   2.623 -0.1355 -0.1576  0.1482
 8360PP      PP18464  12.287   8.339  11.190  0.3114  0.0122  0.2006
 8361PP      PP18465   8.109   0.880   1.557 -0.0315 -0.1357 -0.3973
 8362PP      PP18466   7.551   1.907  13.101  0.2017  0.1573 -0.0104
 8363PP      PP18467   3.978   2.657   0.500 -0.2629  0.2568  0.1136
 8364PP      PP18468   4.334  11.965   3.166  0.0876 -0.2649  0.2041
 8365PP      PP18469  14.688   9.195   2.575 -0.4502 -0.1261  0.0421
 8366PP      PP18470   6.203   3.750  13.441  0.0341 -0.2111  0.0075
 8367PP      PP18471   9.494  15.159   2.257 -0.0112  0.2656  0.3081
 8368PP      PP18472   7.163   8.378  11.408  0.2496 -0.1159  0.0244
 8369PP      PP18473   8.760   0.030  11.196  0.0265  0.0048  0.2286
 8370PP      PP18474  12.747  15.718   0.046 -0.0471  0.0154  0.2324
 8371PP      PP18475   1.709  13.239   1.591  0.3152 -0.0939 -0.2378
 8372PP      PP18476   9.065   5.406  10.809  0.2335 -0.2091 -0.0260
 8373PP      PP18477  15.578   5.771   9.979 -0.3729 -0.1223 -0.1971
 8374PP      PP18478  13.180   9.506   9.407 -0.1648 -0.1298  0.1311
 8375PP      PP18479  14.460   2.672   0.742 -0.1257 -0.0482  0.2347
 8376PP      PP18480  13.336   1.284   0.021 -0.1269 -0.1526 -0.1173
 8377PP      PP18481   3.665   0.225   3.587 -0.0584 -0.0626  0.1519
 8378PP      PP18482  14.545   9.619   3.573 -0.2009  0.3413  0.3178
 8379PP      PP18483   4.410  10.323   4.245  0.1045 -0.2983 -0.0061
 8380PP      PP18484   3.590   0.373   9.029  0.3332 -0.0146  0.0966
 8381PP      PP18485  10.531   8.335   0.088  0.0351  0.3709  0.0508
 8382PP      PP18486   4.502   5.994  10.187 -0.0534 -0.1726 -0.1922
 8383PP      PP18487   8.194   1.337   0.833 -0.0385 -0.2378 -0.1260
 8384PP      PP18488   8.898  10.249   1.227  0.0358  0.1390 -0.2140
 8385PP      PP18489   5.437  10.719  11.501  0.0113 -0.1552 -0.3197
 8386PP      PP18490   6.222   5.111   0.209 -0.1641  0.0391  0.1241
 8387PP      PP18491  14.486   5.004  10.676 -0.1629 -0.0106  0.1692
 8388PP      PP18492   1.845   4.692   2.046  0.1597 -0.1348 -0.0229
 8389PP      PP18493  12.511   2.640   2.902 -0.0275  0.1239 -0.1369
 8390PP      PP18494   4.652   0.362   3.460  0.1678  0.1837 -0.1882
 8391PP      PP18495  13.295   1.997  10.008  0.2349  0.0269  0.0900
 8392PP      PP18496  11.942  14.158   2.251 -0.1971 -0.0954 -0.1992
 8393PP      PP18497  12.162   2.110  12.947 -0.2618 -0.0715  0.1286
 8394PP      PP18498   7.886   8.824   9.470  0.3727 -0.2335 -0.0368
 8395PP      PP18499  10.443  14.580  13.074 -0.1255 -0.1086 -0.0124
 8396PP      PP18500  14.262   2.914  10.814  0.0834  0.2335  0.1237
 8397PP      PP18501   5.462   2.626   0.703 -0.3031 -0.0604  0.1268
 8398PP      PP18502  14.486   9.136   2.081 -0.0441 -0.2905  0.2072
 8399PP      PP18503   3.978  15.222  12.502 -0.1323 -0.1050  0.1080
 8400PP      PP18504   5.347   4.293   9.069  0.0648 -0.0319 -0.1991
 8401PP      PP18505  12.360   8.073   5.389  0.0439  0.1383 -0.0105
 8402PP      PP18506   0.183   2.670   9.104 -0.0658  0.3290 -0.2586
 8403PP      PP18507   7.403   9.049  12.491  0.1349  0.1713  0.1009
 8404PP      PP18508  13.131  13.897   2.018  0.2376 -0.0849 -0.1552
 8405PP      PP18509   8.454   5.578   1.163 -0.1677  0.2501  0.1129
 8406PP      PP18510   3.240  13.084  13.266  0.1993 -0.1637  0.2837
 8407PP      PP18511  14.590   8.946  13.302  0.0468  0.2350 -0.2980
 8408PP      PP18512   1.742  14.536   8.489 -0.0453 -0.0584  0.0237
 8409PP      PP18513   5.405   8.435   0.042 -0.0367  0.0954 -0.3541
 8410PP      PP18514   8.189   0.971   0.516  0.1836  0.0829 -0.0665
 8411PP      PP18515   9.539   3.759   9.950 -0.2128 -0.0617  0.2591
 8412PP      PP18516   4.504   9.723   4.275  0.2194  0.0384 -0.0240
 8413PP      PP18517   7.245  15.310  10.384  0.1069 -0.5027 -0.0007
 8414PP      PP18518   4.856   2.083   8.472  0.1411 -0.2485 -0.1156
 8415PP      PP18519  14.275   2.067   3.292 -0.1381 -0.0503  0.1679
 8416PP      PP18520  13.772   0.680   0.086 -0.1557  0.2156  0.1074
 8417PP      PP18521   2.451  12.569   0.357 -0.0000 -0.0535 -0.0266
 8418PP      PP18522  14.636   4.534  12.357  0.0116  0.0287 -0.1117
 8419PP      PP18523   8.918  10.582   4.129 -0.0886  0.2489 -0.2027
 8420PP      PP18524   5.202   5.542   3.303  0.0623  0.0261  0.1903
 8421PP      PP18525  10.454   8.071  11.967  0.0963  0.0757  0.0120
 8422PP      PP18526  13.310  11.248   4.811  0.2107 -0.3717  0.1687
 8423PP      PP18527   5.217   8.578  11.442  0.1867  0.0827 -0.0627
 8424PP      PP18528   2.268   9.232  10.742 -0.2297  0.0510  0.3323
 8425PP      PP18529  14.452   4.377  13.438  0.3221 -0.0779  0.2888
 8426PP      PP18530   2.032   1.029  13.692  0.4103 -0.3905 -0.0668
 8427PP      PP18531   6.173   8.160  12.942  0.0623 -0.0836  0.0970
 8428PP      PP18532   6.032  14.682   0.943 -0.0505 -0.2016 -0.0069
 8429PP      PP18533   7.156   8.476   4.163 -0.0635 -0.0526 -0.3111
 8430PP      PP18534   2.932   2.327  12.262  0.0400 -0.3760 -0.1073
 8431PP      PP18535  12.268   8.077   4.902 -0.0607  0.1441 -0.0412
 8432PP      PP18536  15.269   7.603   1.132 -0.0698 -0.0560 -0.0869
 8433PP      PP18537   5.219   6.116   3.362 -0.6160 -0.0710 -0.1290
 8434PP      PP18538   7.236   5.194  12.035 -0.1592  0.0534  0.1894
 8435PP      PP18539   8.078  10.049   5.325 -0.2185  0.0133 -0.0932
 8436PP      PP18540   6.619  10.692  13.240 -0.3178  0.0077  0.0221
 8437PP      PP18541  12.789  15.036   1.843  0.2235  0.0154  0.1123
 8438PP      PP18542  13.970   6.644   1.805 -0.1007 -0.1692  0.0733
 8439PP      PP18543   3.150   1.678  13.186  0.0247  0.1505 -0.0730
 8440PP      PP18544  14.376  15.109   9.186  0.1882  0.1012  0.1906
 8441PP      PP18545   8.209   0.232   0.212  0.1218  0.1839  0.0710
 8442PP      PP18546   3.875  13.696   2.564 -0.0738 -0.1578  0.4014
 8443PP      PP18547   5.553  11.765   0.677 -0.1071 -0.1748 -0.0923
 8444PP      PP18548  10.720   7.075   0.770  0.1263 -0.2432  0.0069
 8445PP      PP18549  15.293  14.439   3.681 -0.1692 -0.2373 -0.3026
 8446PP      PP18550   7.444  12.875   1.534 -0.1668 -0.0683 -0.1564
 8447PP      PP18551   9.452  12.701  13.370 -0.0639 -0.1417 -0.1395
 8448PP      PP18552  10.174   2.404   0.234 -0.3003 -0.0893  0.1780
 8449PP      PP18553  13.563   5.247  12.421  0.1157 -0.1586 -0.1892
 8450PP      PP18554   8.080   2.719   0.416  0.0087  0.1965  0.1398
 8451PP      PP18555   2.935   5.474   0.130  0.0582  0.1081  0.1663
 8452PP      PP18556   2.784   4.154   1.032  0.0929  0.0954 -0.0692
 8453PP      PP18557   3.020   6.775   1.118 -0.0421  0.1349 -0.1957
 8454PP      PP18558  12.576   8.575   4.673 -0.1991  0.0057  0.1855
 8455PP      PP18559   3.604  11.514   1.967  0.0869 -0.0954  0.0428
 8456PP      PP18560   6.977  14.389  12.496 -0.0821  0.0218 -0.0667
 8457PP      PP18561   6.546   2.954  11.076  0.1638  0.2393 -0.2600
 8458PP      PP18562   8.929  12.449   1.305  0.2812 -0.2340 -0.4716
 8459PP      PP18563   2.549  13.970   3.964  0.1612 -0.0486 -0.0975
 8460PP      PP18564  10.676  11.680   2.894 -0.1588 -0.3999  0.0314
 8461PP      PP18565   4.481   2.708  10.566 -0.1159 -0.0898  0.0642
 8462PP      PP18566   2.964  12.078   9.379  0.2806 -0.0304  0.0294
 8463PP      PP18567  13.760  15.705   0.476 -0.0567  0.1769 -0.2082
 8464PP      PP18568  11.629  10.699   5.252  0.0480  0.3040  0.0090
 8465PP      PP18569   4.070   1.247   0.757  0.1136 -0.1478  0.1867
 8466PP      PP18570   1.151   4.518   3.085  0.2736  0.1842 -0.0815
 8467PP      PP18571  13.244  11.085  12.611 -0.2752  0.2640  0.2664
 8468PP      PP18572   8.669   8.994   4.554  0.1428 -0.0895  0.3354
 8469PP      PP18573  11.984   3.350   9.448  0.0173 -0.2615 -0.0329
 8470PP      PP18574  10.993   7.361  10.253 -0.0822  0.1349  0.2987
 8471PP      PP18575   4.454  15.533  11.663 -0.2947  0.3052  0.0526
 8472PP      PP18576   0.301   1.720  10.916  0.1102  0.0208  0.0937
 8473PP      PP18577   4.389  10.637   2.473  0.0421 -0.0934 -0.1840
 8474PP      PP18578  11.860   3.953  11.418 -0.1500 -0.0834 -0.0258
 8475PP      PP18579  14.436   0.803   2.413  0.0352 -0.0697  0.0996
 8476PP      PP18580  11.428  12.930   9.939  0.2308  0.0372  0.0868
 8477PP      PP18581  13.420  10.456   2.286 -0.0908 -0.1764  0.1199
 8478PP      PP18582  11.034   5.765   2.354 -0.3106  0.1184  0.2195
 8479PP      PP18583   4.687  11.100   8.914 -0.1634  0.1372 -0.1576
 8480PP      PP18584   2.505   8.437   0.048  0.0084  0.3361  0.0862
 8481PP      PP18585   7.604  10.557  12.926 -0.0052 -0.0175  0.1563
 8482PP      PP18586  14.009  15.069  13.366 -0.1207 -0.1759 -0.1311
 8483PP      PP18587  13.037   2.815   2.163 -0.2570 -0.1689 -0.0711
 8484PP      PP18588   2.529  11.243   1.368 -0.1974  0.0244 -0.0813
 8485PP      PP18589  11.815   5.650   3.833 -0.2416 -0.2978 -0.1222
 8486PP      PP18590  14.999   1.169   3.569  0.2743  0.0827  0.4008
 8487PP      PP18591  11.342  10.136   0.100  0.1172 -0.1656 -0.2185
 8488PP      PP18592   8.715   8.140   2.636  0.0023 -0.1672 -0.0856
 8489PP      PP18593  10.527  15.278  11.009 -0.0491  0.0368  0.2014
 8490PP      PP18594  15.657   7.573  11.279  0.4155 -0.1467  0.2325
 8491PP      PP18595   7.178   2.579   8.381  0.3428  0.0721  0.1185
 8492PP      PP18596  10.005   2.165   0.617 -0.3413 -0.1184  0.0570
 8493PP      PP18597  10.678   0.004   9.722 -0.0208 -0.1953  0.0254
 8494PP      PP18598   4.094  11.313  10.854 -0.0740  0.0986  0.2038
 8495PP      PP18599  13.415   5.734   5.282 -0.1958 -0.0535  0.1028
 8496PP      PP18600   9.818   6.549   4.203  0.0097  0.0872  0.0382
 8497PP      PP18601   1.830   0.050   1.788 -0.0179 -0.1439 -0.1959
 8498PP      PP18602   0.907   7.136   0.836  0.0052 -0.2688 -0.1607
 8499PP      PP18603  15.295  15.171   0.538 -0.2044  0.1474  0.1257
 8500PP      PP18604   5.993   8.368   0.607  0.2349  0.1361 -0.0431
 8501PP      PP18605  12.277   7.351   4.834  0.0603 -0.2618  0.0507
 8502PP      PP18606   3.007   9.524  11.474 -0.0532 -0.0951  0.2914
 8503PP      PP18607   7.555  13.792  11.253 -0.2060 -0.1009  0.0723
 8504PP      PP18608   8.518   5.580   9.258 -0.0496  0.1117  0.2591
 8505PP      PP18609  11.059   3.508  13.641  0.2344 -0.5172 -0.4972
 8506PP      PP18610  15.136   6.090   3.769  0.0967 -0.1038 -0.0813
 8507PP      PP18611   0.642  12.287  12.732 -0.3454 -0.1695  0.4704
 8508PP      PP18612   6.103  15.127  13.405 -0.0477  0.0743  0.1512
 8509PP      PP18613   6.617   3.609  11.276  0.1921  0.1314  0.0523
 8510PP      PP18614   7.854  14.421  13.618 -0.3193  0.1665 -0.3764
 8511PP      PP18615  10.046   3.465  10.909 -0.0055 -0.0625 -0.1142
 8512PP      PP18616   1.214  11.751  12.039 -0.1318 -0.0153  0.0327
 8513PP      PP18617   8.240  13.995   4.348  0.2302  0.2351  0.2320
 8514PP      PP18618  13.203   3.372   1.803  0.0568 -0.0866  0.2527
 8515PP      PP18619   0.263   6.107   2.072  0.0192  0.2563  0.4112
 8516PP      PP18620  10.386  14.729   0.070 -0.0702 -0.2724  0.1113
 8517PP      PP18621   0.582  13.221   2.520 -0.0154  0.0039 -0.0147
 8518PP      PP18622   4.453   3.574   8.897  0.1460 -0.0661  0.2243
 8519PP      PP18623   4.848  13.513  12.672 -0.2447  0.3510 -0.1721
 8520PP      PP18624  13.316   6.621  11.167  0.0171 -0.3446  0.1994
 8521PP      PP18625  11.367   2.422   1.394  0.3202 -0.1419 -0.2068
 8522PP      PP18626   6.713   5.366   7.973 -0.2421 -0.2976 -0.0652
 8523PP      PP18627   3.805   5.761   9.172 -0.1443 -0.0760 -0.0673
 8524PP      PP18628  11.048   3.681  10.816 -0.0965 -0.2494 -0.1507
 8525PP      PP18629   9.198   8.881   1.037  0.0848 -0.0762 -0.3452
 8526PP      PP18630   3.922   0.891  12.440 -0.2284 -0.0787  0.0586
 8527PP      PP18631   7.892   7.289  13.242 -0.3304  0.2252 -0.0489
 8528PP      PP18632   0.280   9.818   2.007 -0.1242 -0.0684  0.1650
 8529PP      PP18633   8.809  11.848   1.253  0.3303  0.3018  0.0414
 8530PP      PP18634  13.235  14.432  10.737 -0.0182 -0.2306 -0.1415
 8531PP      PP18635   6.175   0.463  10.324 -0.1388  0.0428 -0.1966
 8532PP      PP18636   1.772  11.272   9.769 -0.2832  0.1187 -0.0018
 8533PP      PP18637   0.972  14.206  13.287 -0.1894  0.1681 -0.1013
 8534PP      PP18638   1.544  13.661   3.648 -0.2546  0.2352  0.1045
 8535PP      PP18639  14.542   2.768  11.711 -0.2273 -0.0891  0.0183
 8536PP      PP18640   6.050   3.138   9.200 -0.3885  0.0797 -0.2258
 8537PP      PP18641   0.414   5.185  11.110  0.1599 -0.3507 -0.0173
 8538PP      PP18642  12.884   7.019   0.595  0.0940  0.1296 -0.0879
 8539PP      PP18643  15.494   5.542   0.405 -0.1966  0.0783 -0.0034
 8540PP      PP18644   3.556   0.192  11.668 -0.3930  0.1396 -0.2016
 8541PP      PP18645   5.489   5.327   0.536 -0.0095 -0.1753 -0.0314
 8542PP      PP18646   6.171  10.666   3.659  0.1258 -0.3043  0.0879
 8543PP      PP18647   9.955  10.715  12.064 -0.2204 -0.0508 -0.0183
 8544PP      PP18648   5.531   6.767   1.634  0.0550  0.0141  0.0270
 8545PP      PP18649   0.400  15.057  12.387  0.1136 -0.0470  0.1628
 8546PP      PP18650   2.465   0.855   9.847 -0.0182 -0.1881  0.1979
 8547PP      PP18651   6.267   2.839  10.226  0.3398  0.1172  0.1754
 8548PP      PP18652   0.460   2.980   2.402  0.4223 -0.3921  0.1534
 8549PP      PP18653   1.381   3.144   2.275 -0.2017 -0.1364 -0.0293
 8550PP      PP18654   4.504   5.033  13.146 -0.4456 -0.0793  0.2865
 8551PP      PP18655   4.508  12.694   2.958  0.0084 -0.1096 -0.0877
 8552PP      PP18656  13.675   5.688  11.992  0.0663 -0.0596  0.1400
 8553PP      PP18657  14.110   8.249  13.055 -0.0275  0.0872 -0.1506
 8554PP      PP18658   3.332   4.292   3.189 -0.0693  0.1351 -0.0063
 8555PP      PP18659   2.033  15.604   3.079  0.1332  0.1376 -0.2286
 8556PP      PP18660  13.572  14.710   1.037  0.4453 -0.0913 -0.2354
 8557PP      PP18661  11.178   5.815   0.408  0.1545  0.1770 -0.0507
 8558PP      PP18662  10.831   5.445   3.798  0.1898 -0.2164  0.0961
 8559PP      PP18663  15.217  15.661   9.142 -0.1339  0.0951  0.0632
 8560PP      PP18664   1.059   7.202  13.097  0.1409  0.1087 -0.1524
 8561PP      PP18665  13.694  12.165   4.919 -0.1924 -0.0243  0.0637
 8562PP      PP18666  10.501  10.064   0.626  0.1532 -0.1339  0.0889
 8563PP      PP18667   6.640   7.403   3.725 -0.0175 -0.0188 -0.3141
 8564PP      PP18668  12.534  11.735   0.851  0.0445  0.1997 -0.0155
 8565PP      PP18669   2.038   9.824  12.117 -0.1383  0.1706  0.0135
 8566PP      PP18670  15.127   8.494  10.080  0.1285 -0.2269  0.1849
 8567PP      PP18671   9.701   7.110   3.152  0.1902 -0.1969  0.0915
 8568PP      PP18672  14.804   8.076  12.499 -0.0092 -0.1682 -0.0579
 8569PP      PP18673   0.994   7.222   9.404 -0.0666 -0.3152  0.1662
 8570PP      PP18674   9.966   8.819   1.273 -0.3346  0.2085 -0.0218
 8571PP      PP18675  10.984   4.140  12.398 -0.0649  0.1177  0.1707
 8572PP      PP18676   9.401   3.809   1.360  0.0598 -0.1798  0.0102
 8573PP      PP18677   7.003   2.523  13.303 -0.0626 -0.1108 -0.1640
 8574PP      PP18678   6.755  12.571   0.834  0.0392  0.0092  0.2296
 8575PP      PP18679  14.928  11.568   0.250 -0.3275  0.0829  0.1162
 8576PP      PP18680   1.006   6.059  10.587  0.1737 -0.1771 -0.1497
 8577PP      PP18681   3.068  10.925  13.048 -0.0547 -0.0356  0.3269
 8578PP      PP18682  10.991   1.576   1.711 -0.2823  0.1380  0.3085
 8579PP      PP18683   7.020  13.032  12.048  0.0763 -0.2509 -0.3236
 8580PP      PP18684  15.399   1.262   9.262  0.0884 -0.5758 -0.1967
 8581PP      PP18685  11.589  13.715  12.511 -0.0605  0.0152 -0.0713
 8582PP      PP18686   3.394  15.702   1.940  0.0544 -0.2337  0.0272
 8583PP      PP18687   8.383   8.236  13.476 -0.0358  0.0107  0.1787
 8584PP      PP18688  12.552   8.689  12.500 -0.0408  0.1199 -0.1925
 8585PP      PP18689   8.252   6.111   9.491  0.0936  0.3952  0.3221
 8586PP      PP18690  14.955   2.388   9.821  0.1185 -0.1001 -0.0978
 8587PP      PP18691  10.647   3.930   3.232  0.2217 -0.0776  0.2326
 8588PP      PP18692  11.255  10.563  11.589 -0.0733 -0.1604 -0.3647
 8589PP      PP18693   0.265   1.810   2.818 -0.0305 -0.3138 -0.2334
 8590PP      PP18694  14.972   4.804   2.468  0.1166 -0.0029 -0.0497
 8591PP      PP18695   4.476   1.061  12.372  0.0330  0.1345  0.0286
 8592PP      PP18696  15.548   7.673   0.153  0.0783  0.1948  0.0785
 8593PP      PP18697   9.414   1.158  13.314 -0.0678 -0.2168 -0.2371
 8594PP      PP18698   1.523  12.190   2.985  0.2006 -0.1361  0.1283
 8595PP      PP18699  11.487   7.795   4.939 -0.1251  0.0851 -0.2273
 8596PP      PP18700  12.393   5.799   1.954 -0.1867  0.2208  0.2159
 8597PP      PP18701   1.475   7.637  10.415 -0.2373 -0.0826  0.2347
 8598PP      PP18702   0.473  15.458   4.145  0.0298 -0.0550  0.2640
 8599PP      PP18703   6.105  13.890   2.940 -0.1349  0.1849 -0.0114
 8600PP      PP18704   8.741  12.884   3.917 -0.3451 -0.1092  0.0715
 8601PP      PP18705  13.596   9.031   0.912 -0.1050 -0.0783  0.0263
 8602PP      PP18706   9.290   6.382  11.361 -0.3137 -0.1049  0.1083
 8603PP      PP18707   4.172  14.571   4.803  0.0498 -0.0984  0.0418
 8604PP      PP18708  14.018   4.718   2.863  0.2874  0.1250 -0.1386
 8605PP      PP18709   0.849   0.320  10.133 -0.1908 -0.1405  0.3670
 8606PP      PP18710  10.677  12.503  11.574 -0.1340  0.1098 -0.0302
 8607PP      PP18711  10.659   2.105   3.664 -0.2962 -0.1918 -0.1352
 8608PP      PP18712   8.712   3.006  13.424  0.0593 -0.3404 -0.0363
 8609PP      PP18713  10.157   7.006   3.001  0.0533 -0.1965 -0.2055
 8610PP      PP18714   2.187   8.302  13.226  0.0777 -0.2524 -0.0547
 8611PP      PP18715   1.661  15.716   8.779 -0.0638 -0.0729 -0.1527
 8612PP      PP18716  14.227  13.570  12.883  0.1992 -0.2530 -0.1005
 8613PP      PP18717   0.894  15.708   2.957 -0.0638 -0.0806 -0.0095
 8614PP      PP18718   9.931  13.283   4.472  0.0500 -0.1252  0.3641
 8615PP      PP18719   0.678  12.588  12.288 -0.0070  0.2593 -0.4697
 8616PP      PP18720   9.668   1.957  12.967 -0.0571 -0.1885 -0.3927
 8617PP      PP18721   8.061   4.649  12.442 -0.1119 -0.2965  0.0342
 8618PP      PP18722   9.665   0.038   3.412  0.1399  0.1488  0.1771
 8619PP      PP18723   0.305   0.976   3.211 -0.2332 -0.2416 -0.1596
 8620PP      PP18724  12.811  10.921   1.431  0.3226 -0.3864 -0.0407
 8621PP      PP18725   1.535   5.905   3.205 -0.3165 -0.2976 -0.2162
 8622PP      PP18726   6.912   6.151   9.938  0.3170  0.1501  0.2697
 8623PP      PP18727   9.065  11.036   3.289 -0.0715  0.1470 -0.0262
 8624PP      PP18728   4.003  11.313   4.427 -0.1616  0.0966  0.1388
 8625PP      PP18729   8.113   7.393   9.845  0.0454 -0.2799  0.1183
 8626PP      PP18730   8.748  12.339   2.622 -0.3509  0.0068  0.0195
 8627PP      PP18731   8.384   9.723  12.782  0.1505  0.0725  0.0913
 8628PP      PP18732   0.934  11.543  13.690  0.0383  0.3188  0.0805
 8629PP      PP18733   6.001   2.265   1.182  0.0222  0.1731 -0.1283
 8630PP      PP18734   4.237  13.800  10.200 -0.3297  0.0682  0.3632
 8631PP      PP18735  12.785   9.534   4.432 -0.1851 -0.0669 -0.0919
 8632PP      PP18736   1.262  15.319   0.996 -0.1893 -0.4111 -0.0446
 8633PP      PP18737   2.558   0.640  10.825  0.0983 -0.0716 -0.0184
 8634PP      PP18738  10.498  13.855  12.888  0.2356 -0.0903 -0.0699
 8635PP      PP18739   5.120   6.777  11.229  0.1926 -0.0899 -0.0315
 8636PP      PP18740   6.966   9.330   2.001  0.0746  0.1612  0.0184
 8637PP      PP18741   9.506   2.740  12.588 -0.1772  0.2482 -0.1460
 8638PP      PP18742   3.707  15.427   3.774 -0.3614  0.1231  0.0559
 8639PP      PP18743   2.516   4.258   3.420 -0.1752  0.2616 -0.0242
 8640PP      PP18744   5.373  13.044  12.167 -0.2693  0.0940  0.0062
 8641PP      PP18745   6.017   6.434   3.033  0.0704 -0.3573 -0.1356
 8642PP      PP18746   2.666   8.445  11.263  0.2325 -0.0969 -0.2648
 8643PP      PP18747  14.469  13.503   3.087  0.2021  0.1860 -0.2507
 8644PP      PP18748  14.596   6.840   2.410 -0.0814  0.1113 -0.0799
 8645PP      PP18749   4.166   4.355  13.587  0.1963  0.2512 -0.0713
 8646PP      PP18750   6.041   2.242  12.708  0.1664  0.4420  0.1414
 8647PP      PP18751   3.258   7.396   2.950 -0.0421  0.1600  0.2491
 8648PP      PP18752   3.424   1.010  10.267  0.2394 -0.2898 -0.1989
 8649PP      PP18753   1.190   0.822   4.508  0.0935  0.0662 -0.0393
 8650PP      PP18754   8.966  11.419  10.609 -0.0047 -0.0705  0.2182
 8651PP      PP18755   6.628   1.987  10.337  0.0745 -0.0306 -0.0634
 8652PP      PP18756   8.685  15.475  11.970  0.0266 -0.2448  0.4542
 8653PP      PP18757   0.814  14.160   1.095  0.2755  0.4795  0.1522
 8654PP      PP18758   3.307   3.746   0.901  0.3883  0.1214  0.1816
 8655PP      PP18759   5.726   9.493   2.891  0.3374 -0.0039  0.0750
 8656PP      PP18760   4.337   6.648   1.710 -0.1334  0.0434  0.2632
 8657PP      PP18761   2.897   8.027   3.820 -0.1571  0.0821  0.1397
 8658PP      PP18762  13.224  12.572  13.691  0.2183  0.0942 -0.1524
 8659PP      PP18763   3.278   2.653   2.648 -0.0974  0.2293  0.1060
 8660PP      PP18764   2.145  14.461   2.602 -0.0461  0.3519 -0.2938
 8661PP      PP18765  10.434   9.485   0.779 -0.1782  0.0606  0.0446
 8662PP      PP18766   0.071   2.209   9.241  0.0384  0.1319  0.3624
 8663PP      PP18767   9.235   7.018   1.904  0.2354 -0.0934 -0.1097
 8664PP      PP18768  11.544   4.062  12.846  0.0948  0.2037  0.2608
 8665PP      PP18769   6.223  11.909   1.873  0.1138 -0.2873 -0.3205
 8666PP      PP18770   2.781   5.472  11.973  0.1209 -0.1200 -0.0523
 8667PP      PP18771   0.790   8.490  12.882  0.0937 -0.0339 -0.0431
 8668PP      PP18772  13.044   9.637   4.020  0.0413 -0.0126 -0.1189
 8669PP      PP18773   9.197  15.550  13.055 -0.0077  0.2684 -0.4544
 8670PP      PP18774   7.546  13.631   2.401 -0.2404 -0.1571  0.3951
 8671PP      PP18775   5.876   6.388  11.557 -0.0965 -0.2324 -0.1567
 8672PP      PP18776   5.921   1.066   1.610 -0.0532  0.2291  0.2797
 8673PP      PP18777   3.394  15.330   0.871  0.0380  0.1472  0.4436
 8674PP      PP18778   1.236   0.244   2.789  0.1547  0.0165  0.2120
 8675PP      PP18779  12.118   0.920  11.555 -0.0297 -0.2726  0.2619
 8676PP      PP18780  10.304  15.735   9.354  0.1606 -0.0329  0.1224
 8677PP      PP18781   5.886   7.750   0.485  0.1490 -0.0947 -0.1739
 8678PP      PP18782  12.152   7.805  13.490 -0.2916  0.4575  0.0821
 8679PP      PP18783   3.782   3.905   3.161 -0.1391  0.0664 -0.1343
 8680PP      PP18784  13.597  14.843  11.084 -0.1128  0.1418  0.0001
 8681PP      PP18785  15.380   7.215  11.507 -0.2728 -0.0113 -0.0676
 8682PP      PP18786  13.194   5.116  12.031  0.4908 -0.1360 -0.2237
 8683PP      PP18787  12.814   5.773  12.612  0.2610  0.0796 -0.1131
 8684PP      PP18788  10.151   5.870   9.491  0.0159  0.2072  0.2367
 8685PP      PP18789  11.893  12.216  12.242  0.0063 -0.1974 -0.0060
 8686PP      PP18790   0.992  14.507  11.706  0.0074  0.3738  0.4333
 8687PP      PP18791   7.677   7.581   3.294  0.0058 -0.0636  0.0313
 8688PP      PP18792   5.472   1.389   8.866  0.0356 -0.2448  0.1615
 8689PP      PP18793   1.240  12.824   4.115 -0.3169 -0.0360  0.1910
 8690PP      PP18794  15.036   8.349   4.364  0.4493  0.2033  0.3684
 8691PP      PP18795  12.900   2.662  13.662  0.1741 -0.1042 -0.0970
 8692PP      PP18796   0.781  12.786   9.899 -0.2071  0.0203 -0.0098
 8693PP      PP18797   9.579   6.803  10.423  0.0119 -0.2025  0.3267
 8694PP      PP18798   7.222   9.914   1.486 -0.2173  0.2029 -0.0666
 8695PP      PP18799   4.935   4.066   9.349  0.1883  0.0826  0.1460
 8696PP      PP18800  13.758   9.122   4.574  0.1322 -0.4498  0.0179
 8697PP      PP18801   9.238   5.085  10.377 -0.3064  0.0258  0.0396
 8698PP      PP18802  15.001   4.071   1.225  0.0779  0.2111  0.1975
 8699PP      PP18803   0.985   4.586   0.799  0.1267  0.1676 -0.2924
 8700PP      PP18804  15.237  10.992   3.600 -0.2151  0.0214 -0.2677
 8701PP      PP18805   8.566  13.467   9.537  0.1213  0.0886 -0.0459
 8702PP      PP18806  11.535   6.906   0.704  0.0337 -0.1236 -0.0735
 8703PP      PP18807   8.064   6.703   3.089  0.0168 -0.0834 -0.0593
 8704PP      PP18808  11.080   6.912   2.790 -0.4628 -0.1791  0.1849
 8705PP      PP18809   8.078   9.173   0.367  0.2095  0.1384 -0.0948
 8706PP      PP18810   0.826  12.515   2.738 -0.3016  0.3150 -0.0369
 8707PP      PP18811   8.117   3.988   1.878  0.2747 -0.1619 -0.0739
 8708PP      PP18812   2.672  14.714   4.012  0.2202 -0.2854  0.0650
 8709PP      PP18813   0.675   9.585   9.618  0.1154 -0.0774  0.0553
 8710PP      PP18814  14.324  13.046   1.164 -0.1178  0.0873  0.1782
 8711PP      PP18815   5.781  14.438  12.859 -0.0058 -0.1350 -0.2542
 8712PP      PP18816   4.333  10.575  10.185 -0.1021  0.1254  0.1119
 8713PP      PP18817   4.448  13.815  12.818  0.0799  0.0268  0.0237
 8714PP      PP18818   8.848   3.156   0.205 -0.0201  0.1588  0.2466
 8715PP      PP18819   4.513   0.250   2.305 -0.0622 -0.1083 -0.2121
 8716PP      PP18820   4.864  12.575   2.357 -0.1167 -0.4025  0.1441
 8717PP      PP18821   6.348  13.655   3.581  0.2105 -0.1546  0.2945
 8718PP      PP18822   0.501  12.515   1.147  0.0920 -0.2147  0.4429
 8719PP      PP18823  11.299  11.112   5.419  0.1834  0.0628 -0.0097
 8720PP      PP18824  15.286   5.126   1.263  0.0784 -0.1082 -0.0788
 8721PP      PP18825   7.179   4.328  10.256 -0.1123  0.2871 -0.2699
 8722PP      PP18826  15.166  15.553  10.264 -0.1719  0.0572 -0.0517
 8723PP      PP18827   3.233   2.876  11.163 -0.0872 -0.0465  0.0897
 8724PP      PP18828   0.913  15.043  12.186  0.0848  0.3062  0.0114
 8725PP      PP18829   8.892   6.707  12.942 -0.0273  0.3940  0.0849
 8726PP      PP18830   5.196   8.631   1.262 -0.0159 -0.1417  0.2833
 8727PP      PP18831   0.495  13.866   2.660 -0.0584 -0.0154 -0.0158
 8728PP      PP18832   7.484   0.216   2.942  0.0769  0.1649 -0.0749
 8729PP      PP18833   6.887  10.434   2.832 -0.2451 -0.0347 -0.1263
 8730PP      PP18834   4.768   5.968   0.577 -0.3577  0.2328 -0.2153
 8731PP      PP18835   2.236   0.625   8.957 -0.0601 -0.1652 -0.1940
 8732PP      PP18836   1.199  15.623  11.013 -0.0379 -0.1488 -0.1379
 8733PP      PP18837   4.800   4.569  13.083 -0.1555 -0.2839 -0.2302
 8734PP      PP18838   4.241  12.765   0.484  0.1475  0.1524  0.0114
 8735PP      PP18839   5.158   7.490  11.825  0.0256  0.3637 -0.3098
 8736PP      PP18840   4.875   0.617   2.457 -0.0886 -0.1956 -0.1570
 8737PP      PP18841   3.278   8.347   3.590 -0.1222  0.1851 -0.1739
 8738PP      PP18842   3.360   7.766  10.595 -0.2297 -0.0171  0.1561
 8739PP      PP18843  13.450   5.765  12.438  0.5405  0.2118 -0.2671
 8740PP      PP18844  12.544  15.198   3.087  0.0098 -0.2832  0.0443
 8741PP      PP18845   4.810   1.456  11.132  0.0022  0.1255 -0.0879
 8742PP      PP18846   0.149   4.115  11.911 -0.2127  0.3215 -0.0214
 8743PP      PP18847   5.451   0.393  12.117 -0.1637  0.1059 -0.0212
 8744PP      PP18848   9.506  11.504  10.680 -0.1941  0.1246  0.3901
 8745PP      PP18849  11.703   4.211   1.806  0.0247  0.1984  0.2650
 8746PP      PP18850   2.447  14.841  10.467 -0.5882 -0.1890 -0.0002
 8747PP      PP18851   9.039   2.577  13.271  0.0570  0.2053  0.2462
 8748PP      PP18852  15.113  10.669   3.292 -0.1604 -0.2029  0.2455
 8749PP      PP18853  13.678  10.456   3.398  0.1343 -0.0977 -0.0248
 8750PP      PP18854  11.387   7.415  13.715 -0.1161 -0.1302 -0.0257
 8751PP      PP18855   0.186   5.209   1.574  0.1223  0.3569  0.2378
 8752PP      PP18856   9.529   4.049   1.793 -0.1623 -0.3045 -0.0671
 8753PP      PP18857   9.010   7.443  12.172 -0.0501 -0.1017  0.1512
 8754PP      PP18858  15.647   4.406  12.351 -0.3610  0.3178  0.0349
 8755PP      PP18859   3.749   0.352   0.973  0.1063  0.0173 -0.2206
 8756PP      PP18860   2.145   2.841   1.491  0.2076 -0.3766  0.0087
 8757PP      PP18861   2.279   5.038   8.241 -0.1092  0.1469  0.2147
 8758PP      PP18862  13.353  11.895  11.658  0.3321 -0.0081  0.0738
 8759PP      PP18863  15.588  12.677   3.555  0.1027 -0.3419 -0.1161
 8760PP      PP18864   8.605  15.366  10.928 -0.0199  0.0426 -0.3147
 8761PP      PP18865   7.569   0.405  11.457  0.0510 -0.2141 -0.3475
 8762PP      PP18866   1.786  12.640  10.089 -0.4374  0.1853  0.0824
 8763PP      PP18867  13.572  12.373  12.838  0.0977 -0.0078 -0.2289
 8764PP      PP18868   4.021   4.181   2.020 -0.0908  0.4071  0.1454
 8765PP      PP18869  13.425   8.879  13.572 -0.4580 -0.0666 -0.0885
 8766PP      PP18870   4.988  12.665   0.088  0.0678  0.3463  0.0686
 8767PP      PP18871  13.765   4.560   3.451  0.2204 -0.2361 -0.0652
 8768PP      PP18872  11.242  12.589   2.726  0.4013 -0.1422  0.1758
 8769PP      PP18873  14.809  13.831   1.385  0.4757 -0.1698  0.0443
 8770PP      PP18874   9.199   3.466   3.042  0.0161  0.1583 -0.1069
 8771PP      PP18875  11.701   2.731   1.159 -0.0628  0.1411  0.3072
 8772PP      PP18876   0.947  14.672   2.366 -0.0247  0.1217  0.0197
 8773PP      PP18877   8.307  13.275   1.511  0.1100 -0.0256 -0.0941
 8774PP      PP18878   1.132   2.200   0.189 -0.0976 -0.0153  0.1524
 8775PP      PP18879   0.603   9.677   3.898  0.1077  0.1153 -0.2490
 8776PP      PP18880   8.684   9.959  12.338  0.1826 -0.1014 -0.2252
 8777PP      PP18881   2.269  10.625   3.227  0.2326 -0.2609 -0.0596
 8778PP      PP18882  12.199   5.024  13.064 -0.0888  0.0762  0.3594
 8779PP      PP18883   5.618  13.198   0.962  0.0704  0.1424 -0.1428
 8780PP      PP18884   8.551   8.194  10.429  0.0834  0.0708 -0.1503
 8781PP      PP18885   5.728   0.379   1.445 -0.1911 -0.1138 -0.1337
 8782PP      PP18886   0.897   0.674   9.148  0.1954  0.1571  0.1173
 8783PP      PP18887  10.300   6.092  11.986  0.0057  0.0538 -0.2408
 8784PP      PP18888  10.820   0.646   4.041 -0.1658  0.2405 -0.2234
 8785PP      PP18889   4.389  14.719   3.646  0.1459  0.1890 -0.0200
 8786PP      PP18890  13.910   3.286  10.940 -0.3103 -0.0014 -0.2353
 8787PP      PP18891   1.034  14.031   4.405 -0.0026  0.1197 -0.2184
 8788PP      PP18892  14.004   7.170  13.019  0.2261 -0.2613 -0.2009
 8789PP      PP18893  15.680   2.918   1.825  0.1539  0.3322 -0.2886
 8790PP      PP18894   7.923   4.192   0.186 -0.1804 -0.0988  0.2003
 8791PP      PP18895   3.717   9.901   4.524 -0.0900  0.0984 -0.2873
 8792PP      PP18896   7.030  15.592   9.207 -0.1619 -0.3228 -0.1070
 8793PP      PP18897   0.073   9.633   9.612 -0.1015  0.0187 -0.1999
 8794PP      PP18898  14.600   5.414   4.054 -0.1519 -0.1313  0.0118
 8795PP      PP18899   3.055   2.520  13.644 -0.0942 -0.0104 -0.4835
 8796PP      PP18900   8.588   0.459  11.537 -0.0432  0.1757 -0.0139
 8797PP      PP18901  13.268   5.272  10.253 -0.0116  0.0936 -0.0735
 8798PP      PP18902  11.446  15.081   2.811  0.2436 -0.1906  0.0755
 8799PP      PP18903  11.981  14.931   9.072  0.1018 -0.1050  0.1127
 8800PP      PP18904   9.064   9.587   3.623  0.0034 -0.0283  0.0612
 8801PP      PP18905  10.289   9.007  12.672 -0.3560 -0.0321 -0.0638
 8802PP      PP18906   7.215  10.591   1.383  0.1996 -0.1710 -0.2061
 8803PP      PP18907   0.159   4.498   9.862  0.3870  0.0794  0.0951
 8804PP      PP18908   0.887  13.215  13.086  0.1190  0.3033  0.1857
 8805PP      PP18909  15.155  14.231  11.753 -0.2074 -0.0638 -0.0538
 8806PP      PP18910   6.349  15.606   2.738 -0.0080 -0.2873 -0.4442
 8807PP      PP18911  13.929  14.763  12.624  0.1888  0.0259  0.2488
 8808PP      PP18912   2.446   5.310   0.247 -0.3159 -0.0779 -0.1955
 8809PP      PP18913  10.683  10.399  13.548 -0.0035  0.2442 -0.2089
 8810PP      PP18914   3.708   6.781  11.009 -0.1261  0.1453  0.1398
 8811PP      PP18915  12.388   0.455  11.303  0.3182  0.0428 -0.0075
 8812PP      PP18916  10.312  15.325   0.450  0.4862 -0.1023  0.1076
 8813PP      PP18917   7.803   9.823   9.880 -0.1003  0.2869 -0.2188
 8814PP      PP18918  10.894  14.475   4.063 -0.1941 -0.0527  0.0815
 8815PP      PP18919   3.140   3.510  13.193 -0.1140 -0.0787  0.0662
 8816PP      PP18920   5.938  14.868   2.439  0.0711 -0.1100  0.1218
 8817PP      PP18921  14.248  11.758   3.885  0.0180 -0.1023  0.1275
 8818PP      PP18922  10.458   4.957   2.047  0.0653  0.3605  0.0226
 8819PP      PP18923   8.268   2.587  10.892 -0.0301  0.2240 -0.0381
 8820PP      PP18924  15.361  13.881   2.992  0.0445 -0.2492 -0.0200
 8821PP      PP18925  12.741   4.258   1.712  0.1474  0.1606 -0.1080
 8822PP      PP18926  13.230  14.867   9.895  0.2130 -0.1403  0.1539
 8823PP      PP18927  11.514   3.287  12.422 -0.0049 -0.0653  0.2237
 8824PP      PP18928   3.747  12.883   9.477 -0.0122  0.1015 -0.0267
 8825PP      PP18929   5.568   3.896  11.359  0.1405  0.1462 -0.3455
 8826PP      PP18930   1.654  14.006   3.950 -0.1183 -0.1636 -0.2666
 8827PP      PP18931   8.512   3.910   3.037  0.1063  0.2252 -0.3593
 8828PP      PP18932  10.887   5.331  12.377 -0.3136  0.3391 -0.0483
 8829PP      PP18933  15.465   1.752   9.131 -0.1053 -0.1905  0.1239
 8830PP      PP18934  12.562   5.110   4.298 -0.1572 -0.2772 -0.2850
 8831PP      PP18935   4.743   7.768  10.996 -0.0591 -0.0145  0.2573
 8832PP      PP18936   0.145  14.741   8.603 -0.0628  0.0591  0.2672
 8833PP      PP18937   6.800   6.834  12.382 -0.2153 -0.1637  0.0965
 8834PP      PP18938  10.784   7.452   3.436  0.0663 -0.0295 -0.3666
 8835PP      PP18939  13.689  10.019   9.737 -0.1063 -0.3013 -0.1942
 8836PP      PP18940   4.504  11.919  13.365 -0.0885  0.4001 -0.1095
 8837PP      PP18941   3.880  10.876   1.415 -0.2333 -0.1890 -0.0337
 8838PP      PP18942  14.970  13.520   0.059 -0.3213 -0.0703  0.1726
 8839PP      PP18943   2.372   6.204   0.533  0.0791  0.1864 -0.1644
 8840PP      PP18944   1.620   2.799  12.781 -0.3506  0.0613 -0.1854
 8841PP      PP18945   2.533   6.893   4.001 -0.0869  0.0662 -0.0859
 8842PP      PP18946   3.099  13.951  10.338 -0.0148  0.0425 -0.0125
 8843PP      PP18947  15.364   4.024   9.842 -0.4216  0.2519 -0.2113
 8844PP      PP18948  15.338  11.825  10.534  0.1950  0.2365 -0.0605
 8845PP      PP18949   2.792   3.216  11.090  0.0223 -0.1294  0.1551
 8846PP      PP18950  13.223  15.214  10.340 -0.0021 -0.1486  0.0152
 8847PP      PP18951   9.374  13.898  12.955  0.1610  0.3369 -0.1780
 8848PP      PP18952   8.702  12.733  10.897  0.1958  0.3513  0.0878
 8849PP      PP18953   1.538   6.976   9.527  0.0854  0.0167 -0.0234
 8850PP      PP18954   7.620   7.448  12.186  0.1133 -0.2786 -0.0399
 8851PP      PP18955   8.623  13.653   4.378  0.1549 -0.0865  0.0407
 8852PP      PP18956  13.206  10.633   3.161  0.1068  0.0244  0.0427
 8853PP      PP18957   3.044   4.972   2.849 -0.1350 -0.1934 -0.0988
 8854PP      PP18958   7.022  13.878  13.587 -0.0758  0.2943 -0.2016
 8855PP      PP18959   1.570   9.830   0.027 -0.2749 -0.3996 -0.0472
 8856PP      PP18960   2.545  14.771   3.080 -0.1667  0.1150  0.0951
 8857PP      PP18961   9.781   2.371   3.395 -0.0711  0.3217 -0.2276
 8858PP      PP18962   6.985  15.553   1.012  0.0921  0.1198  0.2135
 8859PP      PP18963  12.268   2.797  11.115 -0.0252 -0.1562  0.1622
 8860PP      PP18964  10.147   6.360  10.918  0.3286  0.4012 -0.0861
 8861PP      PP18965   3.951   7.905   9.613 -0.1080  0.2905  0.0656
 8862PP      PP18966   4.214  15.024   9.488  0.0400  0.0440 -0.2417
 8863PP      PP18967   0.929   3.084   3.204 -0.0215  0.0046 -0.2335
 8864PP      PP18968   9.838  12.331   4.603 -0.0559 -0.1821  0.2113
 8865PP      PP18969  11.266  12.534  13.672  0.0997  0.1282  0.1694
 8866PP      PP18970  14.445  15.281   4.028  0.1282 -0.0244  0.2808
 8867PP      PP18971  12.468  15.276   9.821 -0.1611  0.1209  0.1269
 8868PP      PP18972  14.420   2.611  13.413 -0.0905 -0.0350  0.1699
 8869PP      PP18973   7.293   9.809   9.936  0.1346  0.1750  0.0210
 8870PP      PP18974   1.566   5.190  13.300  0.0132 -0.3322 -0.4005
 8871PP      PP18975  11.541   2.224  11.111 -0.1119 -0.1051 -0.2635
 8872PP      PP18976  13.112   2.718   3.556 -0.1574 -0.1621 -0.2309
 8873PP      PP18977   1.357  11.509  12.730 -0.1080  0.0465 -0.2789
 8874PP      PP18978  13.003   2.870   9.970 -0.2791  0.3493  0.2537
 8875PP      PP18979  12.173  12.451   2.387 -0.1376 -0.1296  0.0258
 8876PP      PP18980   3.957   5.607  11.713 -0.2088  0.1185  0.1606
 8877PP      PP18981  15.180   3.133  10.638 -0.2105  0.0014 -0.2596
 8878PP      PP18982   2.469   9.610   8.793  0.0406  0.3158  0.1976
 8879PP      PP18983   9.414   2.343  11.385 -0.0039 -0.0016  0.1272
 8880PP      PP18984   7.569  14.774  10.962 -0.0726  0.0023  0.3868
 8881PP      PP18985   2.688  13.437   3.665 -0.2529 -0.1439  0.0916
 8882PP      PP18986   0.049   7.002   1.609  0.0983  0.5004  0.0650
 8883PP      PP18987   9.935   7.595   1.279  0.0180  0.0122 -0.1246
 8884PP      PP18988   0.296   8.174   1.433 -0.0484  0.0824  0.0148
 8885PP      PP18989   0.037  14.509   2.439  0.3303 -0.1552 -0.0253
 8886PP      PP18990   5.940   9.769  11.498  0.0487 -0.1520  0.0323
 8887PP      PP18991  11.143   4.539   0.758  0.1199 -0.1126 -0.1490
 8888PP      PP18992  14.809  12.315   0.803  0.4839 -0.1818  0.2421
 8889PP      PP18993  11.282  12.001  11.055 -0.0984  0.1085  0.2337
 8890PP      PP18994   3.242   1.566   8.465  0.1289  0.4233 -0.0591
 8891PP      PP18995   7.535   9.140  13.282  0.0306 -0.3341 -0.1100
 8892PP      PP18996   3.834   4.368  10.318  0.2224 -0.0435 -0.0772
 8893PP      PP18997   1.924   6.731  11.110 -0.1600 -0.0979 -0.0799
 8894PP      PP18998   9.070   0.521  11.337 -0.1554 -0.3660 -0.0483
 8895PP      PP18999   4.460  12.592   9.883 -0.0871 -0.1932 -0.1225
 8896PP      PP19000   7.992  12.482   4.409  0.0021 -0.3185  0.0452
 8897PP      PP19001   0.588   1.145   0.209  0.1203 -0.0616 -0.1036
 8898PP      PP19002   9.557   5.406  10.653  0.0512 -0.0737  0.2728
 8899PP      PP19003   2.514   6.915  10.274 -0.2663 -0.0863  0.0054
 8900PP      PP19004   3.493   0.578  12.596 -0.1118  0.0535 -0.1679
 8901PP      PP19005   6.218  11.493  12.751 -0.2927  0.0255 -0.1822
 8902PP      PP19006  12.635   0.927  10.862  0.1706  0.1258  0.0461
 8903PP      PP19007   7.199   2.111   0.254 -0.2987  0.0843  0.3867
 8904PP      PP19008  11.792   5.169   3.613  0.4783  0.2071 -0.1241
 8905PP      PP19009  12.098   3.838   0.517 -0.0585 -0.3086  0.2487
 8906PP      PP19010   2.776   6.247   0.876  0.2721  0.0676  0.1487
 8907PP      PP19011  13.546  14.032  12.067  0.0921  0.0408  0.1364
 8908PP      PP19012   1.425   9.084   9.865  0.0999 -0.1946 -0.2159
 8909PP      PP19013  10.396   1.784   2.841  0.2024 -0.2001  0.0707
 8910PP      PP19014  12.935   2.459  12.072 -0.0909  0.3736  0.0982
 8911PP      PP19015   6.533   0.675   1.313 -0.1717  0.1251  0.2539
 8912PP      PP19016   1.950   7.055  11.573  0.0367 -0.1302 -0.0812
 8913PP      PP19017  15.093  10.680   9.657 -0.0300  0.0271 -0.0029
 8914PP      PP19018   1.391   8.023  13.220  0.1623 -0.1252  0.0725
 8915PP      PP19019  12.333   6.332   4.533 -0.0718  0.0066 -0.2358
 8916PP      PP19020   0.983   7.669  12.909  0.2209  0.0783 -0.3065
 8917PP      PP19021  13.041   6.424   0.875 -0.2266 -0.3312 -0.4285
 8918PP      PP19022   9.588   4.291   0.381  0.0109  0.0703 -0.0614
 8919PP      PP19023   7.869   2.347   8.629 -0.0060  0.2549  0.0236
 8920PP      PP19024   2.469   1.389   0.368  0.0162 -0.1290  0.2328
 8921PP      PP19025   2.037   9.734   3.325  0.0034 -0.1596 -0.3144
 8922PP      PP19026  12.858   6.248   3.311 -0.1671  0.2122 -0.0088
 8923PP      PP19027   1.145   1.107   0.979 -0.3320 -0.2258  0.1082
 8924PP      PP19028  14.513   3.964  10.268  0.0759 -0.0055  0.0722
 8925PP      PP19029  10.594   3.273   2.706  0.2629  0.1937 -0.0451
 8926PP      PP19030  11.883  11.371   0.827  0.0564 -0.3815 -0.1783
 8927PP      PP19031  10.981  14.036  10.649 -0.1045 -0.1496 -0.0245
 8928PP      PP19032  12.552   1.102   0.547  0.4609  0.0414  0.0844
 8929PP      PP19033   2.722   3.161   8.982 -0.0889  0.1413 -0.1195
 8930PP      PP19034   6.953   3.791  10.251  0.1115 -0.0711  0.0104
 8931PP      PP19035  10.095   1.044   3.668 -0.0397 -0.0477  0.2807
 8932PP      PP19036  12.354  12.877  12.199 -0.1818  0.1779 -0.1587
 8933PP      PP19037  13.907   0.919   0.971 -0.1727 -0.0948 -0.0809
 8934PP      PP19038  12.594  11.272  12.910 -0.1212  0.0907 -0.0398
 8935PP      PP19039   8.269   5.062   8.771  0.2667 -0.2891  0.2761
 8936PP      PP19040   2.191   5.032  10.002 -0.0722 -0.3236 -0.2148
 8937PP      PP19041   8.021  11.405   0.703 -0.1329 -0.3106  0.0397
 8938PP      PP19042   5.488   5.497  11.184 -0.1644  0.1020  0.0611
 8939PP      PP19043   0.486  13.808   0.688  0.1873  0.3821  0.1982
 8940PP      PP19044   6.765   0.124  12.014  0.0432  0.0900 -0.1087
 8941PP      PP19045   4.494  13.659   0.895  0.2286 -0.1118  0.0202
 8942PP      PP19046   3.727  15.237  10.585  0.0014  0.2667 -0.1205
 8943PP      PP19047   0.835   1.672   2.748 -0.3640 -0.1916 -0.2596
 8944PP      PP19048   9.655  11.818   9.975 -0.3304  0.0116  0.1647
 8945PP      PP19049   0.018  11.495   0.228  0.2567 -0.2347  0.1627
 8946PP      PP19050   4.149  10.368  12.000  0.1143  0.1412  0.0834
 8947PP      PP19051  13.414   3.538  11.601 -0.2452  0.2274  0.1979
 8948PP      PP19052  11.857  15.609   0.045 -0.0736  0.2475  0.1666
 8949PP      PP19053   7.456   9.435  12.840 -0.1378 -0.1369  0.0539
 8950PP      PP19054   1.143  11.913   4.162 -0.2769  0.1051  0.1493
 8951PP      PP19055   0.777   4.803  10.033  0.1105 -0.0041  0.1688
 8952PP      PP19056  12.404   8.324  10.149 -0.0123 -0.1019 -0.1333
 8953PP      PP19057   0.600  13.339  13.482 -0.1855 -0.1706  0.0002
 8954PP      PP19058   2.593   7.969  10.645  0.0130 -0.1138  0.0380
 8955PP      PP19059  14.709  15.498   3.111 -0.1332  0.3296 -0.0786
 8956PP      PP19060   0.821  15.580   0.718 -0.1077  0.2168  0.0056
 8957PP      PP19061  10.494   1.137   9.474  0.1295  0.1994  0.1384
 8958PP      PP19062   8.307  12.144   4.181  0.2408  0.2289 -0.1542
 8959PP      PP19063   7.736   3.257   3.142  0.1658  0.1644  0.2409
 8960PP      PP19064   9.347   3.106   9.511  0.1096 -0.5368 -0.2237
 8961PP      PP19065   0.657   0.147   2.260 -0.1371 -0.0096 -0.1174
 8962PP      PP19066  12.054   5.532   0.891 -0.2302  0.2186  0.0092
 8963PP      PP19067   1.709   8.875  11.577 -0.1038 -0.2179 -0.0992
 8964PP      PP19068  13.938   9.185  10.183 -0.3685 -0.2515  0.0298
 8965PP      PP19069   6.698   3.683  13.680  0.2314  0.0531 -0.0287
 8966PP      PP19070   9.024   2.761  11.311 -0.0432  0.2832 -0.1309
 8967PP      PP19071   3.035  12.198   2.938 -0.3476 -0.1853  0.1886
 8968PP      PP19072  11.821  10.994   1.203  0.1152 -0.0880 -0.0347
 8969PP      PP19073  15.059   5.574   9.690 -0.0568  0.1526  0.2624
 8970PP      PP19074  10.642  15.405  12.095  0.4407 -0.0880  0.0518
 8971PP      PP19075   0.063   9.052   0.821  0.0115  0.4645  0.0536
 8972PP      PP19076   9.760   0.637   9.920  0.0445  0.1424  0.0858
 8973PP      PP19077  13.698  14.038   9.747 -0.0345  0.1055  0.1787
 8974PP      PP19078   7.496  10.483   2.937  0.0454  0.2181 -0.1120
 8975PP      PP19079   3.705   0.933   0.672  0.0818  0.1617  0.1481
 8976PP      PP19080   5.773   1.042   9.704  0.2205 -0.3365  0.0669
 8977PP      PP19081   6.016   1.880   1.742 -0.0713 -0.2249 -0.0601
 8978PP      PP19082   8.168   3.026  11.215 -0.1612 -0.0831 -0.0110
 8979PP      PP19083   6.604  12.409   2.598 -0.0935  0.1010 -0.3766
 8980PP      PP19084  11.871  12.382   9.402  0.0753 -0.3145  0.2781
 8981PP      PP19085   5.443  14.594   1.154 -0.1122  0.1511 -0.2445
 8982PP      PP19086  14.695   4.854   4.012 -0.1292 -0.0164  0.0027
 8983PP      PP19087  10.242   1.979   1.120  0.0983  0.2076 -0.2955
 8984PP      PP19088   8.859  11.194  11.381  0.0705  0.3488  0.0565
 8985PP      PP19089   7.252   7.959  13.216  0.0203 -0.2186  0.2621
 8986PP      PP19090   6.677  10.740   3.329 -0.0166 -0.1127 -0.2245
 8987PP      PP19091   9.997   1.039   1.296  0.0027 -0.1227 -0.1372
 8988PP      PP19092  11.123  10.791   2.960 -0.1016  0.0612  0.4166
 8989PP      PP19093  12.477   5.344   1.816  0.0421 -0.1154  0.2694
 8990PP      PP19094   9.668  15.472  10.906  0.1155  0.2205 -0.0637
 8991PP      PP19095   9.109   8.413  13.361 -0.0825 -0.4176  0.0231
 8992PP      PP19096   1.336  11.401  10.304 -0.1078 -0.2374  0.0376
 8993PP      PP19097   4.547   8.934   9.617  0.0971 -0.1431 -0.3573
 8994PP      PP19098   5.705   5.063  11.123 -0.0602 -0.2560 -0.0028
 8995PP      PP19099  10.154   1.732   1.701 -0.1416  0.4050  0.0532
 8996PP      PP19100   6.110   5.957  11.643  0.1367  0.0022  0.0853
 8997PP      PP19101   6.141   1.972  13.260 -0.0109 -0.1871  0.2349
 8998PP      PP19102   3.113   5.664  13.445  0.2326 -0.1516 -0.0432
 8999PP      PP19103   9.068   2.087  11.985 -0.3047  0.0809 -0.3208
 9000PP      PP19104   7.225   3.115   0.658  0.5162 -0.0294  0.1920
 9001PP      PP19105  13.096   9.602  11.576 -0.1183  0.0734 -0.1091
 9002PP      PP19106   3.863  14.457   3.359 -0.3117 -0.1680  0.0245
 9003PP      PP19107   1.357   2.347  12.698  0.2659  0.0100 -0.2607
 9004PP      PP19108   6.667  13.208   4.321  0.0161  0.0279 -0.1854
 9005PP      PP19109   4.416   6.691  11.904 -0.0340  0.0723  0.2231
 9006PP      PP19110  10.651   5.551   3.057  0.0750  0.2520  0.2156
 9007PP      PP19111   5.061   0.470   9.538  0.2704 -0.0734  0.2376
 9008PP      PP19112   6.380   8.262   2.603  0.0032 -0.0682  0.2541
 9009PP      PP19113  15.621   9.534   1.208 -0.1763  0.1535  0.0065
 9010PP      PP19114  11.202   0.962   4.188 -0.0613 -0.0234  0.1565
 9011PP      PP19115   3.797   2.340  12.698  0.0460 -0.2493  0.3121
 9012PP      PP19116  14.668   2.235  10.646 -0.2139  0.1044 -0.1744
 9013PP      PP19117   7.817   2.401   2.191 -0.1214 -0.3464 -0.1672
 9014PP      PP19118   0.968  10.212  11.035  0.0064 -0.2343 -0.5203
 9015PP      PP19119   5.280   3.986  12.355 -0.2304  0.0062  0.0056
 9016PP      PP19120  11.205   0.696   4.601  0.0680  0.3662  0.1684
 9017PP      PP19121   1.630   9.617   2.328 -0.0167  0.1126  0.0374
 9018PP      PP19122  14.148  13.029  12.672 -0.2289  0.0744 -0.0371
 9019PP      PP19123   6.198   3.833   1.189  0.0960  0.0675  0.1537
 9020PP      PP19124   2.157   3.657   4.176  0.0113 -0.0537 -0.1487
 9021PP      PP19125   7.255  15.652  13.734 -0.2342  0.3312 -0.2386
 9022PP      PP19126  11.742   7.349   5.049 -0.0042  0.1556 -0.0308
 9023PP      PP19127   6.295   8.714   4.268 -0.1121 -0.1214 -0.1847
 9024PP      PP19128   1.617   9.604   1.339 -0.0786  0.2312 -0.1963
 9025PP      PP19129   3.997   0.311  13.568 -0.1340  0.4755  0.2656
 9026PP      PP19130   2.229  13.937  12.970 -0.1238  0.0655 -0.0160
 9027PP      PP19131   6.271   8.377   9.575  0.1818  0.0398  0.1516
 9028PP      PP19132  15.164  14.904  13.365 -0.3453 -0.2046 -0.1449
 9029PP      PP19133   1.057   5.510   0.676 -0.2131 -0.0913 -0.3253
 9030PP      PP19134  14.770  10.358   9.442 -0.1838 -0.1136 -0.1132
 9031PP      PP19135   0.158  13.145  13.497  0.0283  0.1600 -0.0834
 9032PP      PP19136   2.161   8.183   9.760  0.0233 -0.2501 -0.5574
 9033PP      PP19137  15.236   2.418  13.752 -0.1506 -0.1609  0.0104
 9034PP      PP19138   4.015   4.062  10.870  0.0284 -0.0610  0.0850
 9035PP      PP19139   0.860   2.366   3.428 -0.1315 -0.1679 -0.2751
 9036PP      PP19140   3.869   4.031   8.200  0.1902 -0.2969  0.2211
 9037PP      PP19141   1.678  15.597  12.437  0.3927  0.1142  0.0867
 9038PP      PP19142   6.188   3.985   0.694 -0.3958  0.0125  0.1042
 9039PP      PP19143   6.217   2.970   8.230  0.3063  0.3048 -0.3902
 9040PP      PP19144  11.504   1.102  12.521 -0.1059  0.2773  0.1005
 9041PP      PP19145   6.293   2.205  10.062 -0.2569 -0.0731 -0.0597
 9042PP      PP19146   3.170  14.798   3.294 -0.2695  0.1137 -0.0284
 9043PP      PP19147   0.550   0.741  13.721 -0.0213  0.0383  0.0876
 9044PP      PP19148  11.676   5.780  12.269 -0.2273  0.2364  0.1089
 9045PP      PP19149  11.503   3.545   9.483 -0.1669  0.0890 -0.1553
 9046PP      PP19150  15.500   0.236   4.586  0.2136  0.0729 -0.0337
 9047PP      PP19151   7.688   1.873   8.453  0.1261 -0.0425  0.4165
 9048PP      PP19152   7.102  13.329   2.485  0.3260 -0.2028 -0.0526
 9049PP      PP19153   1.957   0.257   0.124 -0.0395  0.4809 -0.2165
 9050PP      PP19154  10.157  12.803  13.280  0.2431  0.0229 -0.2575
 9051PP      PP19155   5.574   5.012   8.178 -0.1916 -0.2617 -0.2551
 9052PP      PP19156  12.603   8.525   2.720 -0.0518  0.3497  0.3899
 9053PP      PP19157   3.043   3.184   0.386  0.2532 -0.0304 -0.2070
 9054PP      PP19158   0.941  13.713  11.058 -0.1684 -0.2552 -0.2181
 9055PP      PP19159  12.764   7.498   2.871  0.2636 -0.0169  0.1186
 9056PP      PP19160  13.964   4.681   1.601 -0.3709  0.1905  0.1700
 9057PP      PP19161   2.122   3.775  10.628 -0.2393  0.1638 -0.1549
 9058PP      PP19162   0.124   1.056   0.317  0.0524  0.4317 -0.0402
 9059PP      PP19163   6.186  11.878  12.394 -0.1409 -0.1006  0.2406
 9060PP      PP19164   9.706  15.073   1.178 -0.3249  0.0691 -0.2355
 9061PP      PP19165   9.534   0.028   2.906  0.3551  0.0184  0.0627
 9062PP      PP19166  14.281  14.012  11.564  0.0636  0.0374  0.0370
 9063PP      PP19167   8.007  10.317  10.758  0.0128 -0.1753 -0.0957
 9064PP      PP19168   2.264   0.634  12.980  0.0014 -0.1748  0.0574
 9065PP      PP19169   9.527  10.029  10.746  0.1231 -0.1787  0.6205
 9066PP      PP19170   6.005   5.197   8.424  0.0506  0.0577  0.1432
 9067PP      PP19171   7.876   0.297  10.061 -0.0646 -0.0323  0.2408
 9068PP      PP19172   9.758   7.540  10.623  0.0163 -0.2108 -0.3113
 9069PP      PP19173   2.834   2.907  11.566 -0.0308  0.2238 -0.0280
 9070PP      PP19174   4.601  10.409  10.620  0.1202  0.0149 -0.1565
 9071PP      PP19175  12.854  15.077  12.286 -0.2034  0.2529  0.1381
 9072PP      PP19176  12.330  12.413   0.315 -0.2794 -0.0930  0.1794
 9073PP      PP19177  13.328   4.913  12.851  0.1957  0.2857  0.0687
 9074PP      PP19178   4.278  13.335  12.674  0.2903 -0.0075  0.0425
 9075PP      PP19179   0.692  14.897  11.595  0.0843  0.1338 -0.1656
 9076PP      PP19180  13.956   1.230  10.178 -0.1139 -0.1154 -0.0345
 9077PP      PP19181   6.856   3.932  11.933  0.0520 -0.0412  0.1811
 9078PP      PP19182  10.382   7.433  10.364  0.0486  0.0068  0.2559
 9079PP      PP19183  12.091  13.283   0.625 -0.1454  0.1564  0.1446
 9080PP      PP19184  11.194   9.403   1.347  0.1812  0.0462 -0.0476
 9081PP      PP19185   4.439   4.101   9.188  0.1939  0.0075 -0.1881
 9082PP      PP19186   1.071   7.609   0.161  0.0707  0.3728 -0.1439
 9083PP      PP19187   4.386   2.621   9.253  0.0235  0.2468 -0.0609
 9084PP      PP19188   1.046   7.615  11.389 -0.0826  0.2948 -0.0297
 9085PP      PP19189   8.651  10.819   0.019 -0.2217 -0.1559  0.2105
 9086PP      PP19190   4.642   1.315  10.634 -0.0425  0.0660  0.2315
 9087PP      PP19191   2.937   7.500  12.960 -0.4454  0.0084  0.0106
 9088PP      PP19192  11.325  10.267   2.911  0.1508  0.2009  0.0265
 9089PP      PP19193   2.083   8.473   0.381  0.2604 -0.0319  0.0408
 9090PP      PP19194   9.734  15.116   0.566  0.2088  0.0500 -0.1472
 9091PP      PP19195   3.009  13.222   0.044  0.2353  0.4597 -0.0569
 9092PP      PP19196   7.899  12.768  13.442  0.4120  0.0485  0.0725
 9093PP      PP19197   5.504  14.255   0.212  0.0006  0.1536 -0.1370
 9094PP      PP19198   9.513   0.263   1.624  0.0822  0.1281 -0.0013
 9095PP      PP19199   2.232  13.315   3.400  0.2150 -0.1182 -0.2322
 9096PP      PP19200   4.337  14.211  12.535  0.0876  0.1327  0.2285
 9097PP      PP19201  14.674   5.851   1.032 -0.3546 -0.0327  0.1090
 9098PP      PP19202   2.548  10.637   1.146  0.0548  0.0788 -0.0691
 9099PP      PP19203  12.136  13.040   4.576  0.0483  0.0512 -0.0711
 9100PP      PP19204   9.091   7.811  11.658 -0.0981  0.0886 -0.0236
 9101PP      PP19205  14.031   1.408   1.727  0.0057  0.1144 -0.5254
 9102PP      PP19206   3.321   5.739   0.421 -0.0402 -0.1941  0.3528
 9103PP      PP19207   9.018   3.582   1.006  0.2236  0.1844 -0.3492
 9104PP      PP19208  15.153   0.018  11.967 -0.0275 -0.2372 -0.2580
 9105PP      PP19209  12.753   3.046   0.209  0.4947 -0.1002 -0.2286
 9106PP      PP19210   1.820   6.915   2.691  0.2243 -0.1237  0.1697
 9107PP      PP19211  14.103  15.505   4.327 -0.1690 -0.1741  0.0430
 9108PP      PP19212  10.422   0.796  10.764  0.0262  0.0960  0.1008
 9109PP      PP19213   0.732  15.179   1.578 -0.1162 -0.2034 -0.1070
 9110PP      PP19214   7.544   5.675   1.134  0.2934  0.0861  0.0615
 9111PP      PP19215   1.504   4.379   9.148  0.1103  0.0547  0.0535
 9112PP      PP19216   1.521   0.103   1.129  0.0581 -0.1912 -0.2182
 9113PP      PP19217   4.157   7.267   4.445  0.0126  0.4096 -0.1941
 9114PP      PP19218   9.106   3.049  11.686  0.1723  0.2281  0.1506
 9115PP      PP19219   0.994   6.180  13.768 -0.3038 -0.2258  0.1523
 9116PP      PP19220  14.984   4.059   2.677 -0.4256  0.2311  0.1626
 9117PP      PP19221   4.182   5.230   9.983 -0.1517  0.2746 -0.1571
 9118PP      PP19222  13.439  14.386  10.116  0.0344 -0.2241  0.0611
 9119PP      PP19223   6.905   5.253  10.922  0.2733 -0.0738  0.1632
 9120PP      PP19224   0.150  15.126   2.599 -0.0001 -0.1810  0.1766
 9121PP      PP19225  13.742  14.341   3.009 -0.1247  0.0757  0.4340
 9122PP      PP19226  10.535   4.644  10.397 -0.1669  0.1742  0.1120
 9123PP      PP19227  12.837  13.304   2.816 -0.1663  0.0717 -0.1699
 9124PP      PP19228   1.406   3.386  13.260  0.1783 -0.2157 -0.2301
 9125PP      PP19229   9.309   0.991   3.896 -0.0514 -0.1539 -0.0957
 9126PP      PP19230   9.970  14.139  12.347  0.0230  0.3053 -0.2180
 9127PP      PP19231   1.310  12.716   1.020  0.1978 -0.3063 -0.2733
 9128PP      PP19232   6.380  12.847  10.172 -0.1989  0.0820  0.0616
 9129PP      PP19233   0.318  12.965   1.339  0.2044 -0.3302 -0.1641
 9130PP      PP19234  12.197   4.653  11.011  0.0784  0.0189  0.0778
 9131PP      PP19235  14.693   7.437   4.194 -0.1794  0.1144  0.1591
 9132PP      PP19236  14.997   3.716  10.453  0.0495 -0.0539  0.0753
 9133PP      PP19237  12.498   9.772   4.111  0.1130 -0.0573 -0.1179
 9134PP      PP19238   9.732   1.514   9.202 -0.0443 -0.1089 -0.2479
 9135PP      PP19239   6.545  11.426  13.753 -0.1170 -0.1075 -0.0674
 9136PP      PP19240  14.188  12.074   4.860  0.0394 -0.0688 -0.1832
 9137PP      PP19241  15.675   6.780   2.915  0.0037  0.1402  0.1219
 9138PP      PP19242   4.357   5.176  10.701  0.1559  0.1917 -0.0487
 9139PP      PP19243   3.091  12.986   1.413 -0.1936  0.1497 -0.5176
 9140PP      PP19244   8.994  10.171   9.912  0.0366 -0.1623 -0.0239
 9141PP      PP19245  12.484  11.359   4.823 -0.0797 -0.0844 -0.0164
 9142PP      PP19246  11.699   0.898   9.861  0.0161 -0.1386 -0.0944
 9143PP      PP19247   3.202  13.443  10.246  0.2767  0.3763  0.2625
 9144PP      PP19248   9.594   2.924  13.225  0.1575  0.0325  0.0262
 9145PP      PP19249  11.886  10.406  11.811 -0.1566 -0.1120  0.1542
 9146PP      PP19250   6.562   9.400   4.349 -0.2864 -0.1461 -0.1041
 9147PP      PP19251  10.739   2.104  12.856 -0.0957 -0.3214 -0.1617
 9148PP      PP19252  11.321   0.091   2.971  0.0995  0.0409  0.2143
 9149PP      PP19253   1.823   8.329   2.658 -0.0022 -0.0558 -0.0168
 9150PP      PP19254  10.895   9.615  11.197  0.0699 -0.1121  0.2619
 9151PP      PP19255   3.642   8.584   3.222 -0.2721  0.1566 -0.0315
 9152PP      PP19256   9.202   9.811   1.564 -0.0278  0.1617  0.1273
 9153PP      PP19257  12.769  10.373   9.145  0.0926  0.1270 -0.2932
 9154PP      PP19258   5.848   9.790  12.575 -0.0445 -0.1981 -0.0910
 9155PP      PP19259   2.586   5.020  12.725 -0.2058  0.3063 -0.1730
 9156PP      PP19260   1.918   0.222  12.948  0.1496 -0.3148 -0.2200
 9157PP      PP19261   5.044   7.223   9.614  0.2428 -0.1149 -0.1524
 9158PP      PP19262   8.519   7.556  10.525 -0.3522 -0.0073  0.0029
 9159PP      PP19263   8.331   0.166   1.992  0.0035 -0.3125  0.1053
 9160PP      PP19264   9.237  11.887   2.998  0.2064  0.0741  0.0465
 9161PP      PP19265   2.742   8.907   8.558  0.2922  0.0841  0.2339
 9162PP      PP19266  10.977  11.303   2.865 -0.1923  0.0132 -0.5812
 9163PP      PP19267   9.749   9.556  10.304  0.3376  0.0244 -0.0166
 9164PP      PP19268   6.669   3.291   8.176  0.1061 -0.2719  0.0569
 9165PP      PP19269   5.852   0.603  11.515 -0.0722 -0.2563  0.0489
 9166PP      PP19270  12.889   0.352  10.943  0.1036  0.2921 -0.2435
 9167PP      PP19271  10.200   6.079   2.375  0.2556  0.0605 -0.2334
 9168PP      PP19272  13.007   1.587   4.434  0.0573  0.0543  0.0787
 9169PP      PP19273   1.833   4.631  13.008  0.1936  0.1830  0.0433
 9170PP      PP19274   8.590  13.130   1.039 -0.0350  0.1545 -0.0282
 9171PP      PP19275  11.485   9.426   0.401 -0.0744 -0.1171 -0.2049
 9172PP      PP19276  14.668   2.786   3.510  0.3022 -0.0032  0.2882
 9173PP      PP19277  10.757   9.565  10.207 -0.1615  0.0236  0.1503
 9174PP      PP19278  13.399  10.269   0.778 -0.1266  0.2668  0.2309
 9175PP      PP19279  11.643   9.558  10.190  0.0801 -0.2459  0.0733
 9176PP      PP19280   8.509   9.468   3.786  0.0005 -0.4805  0.0836
 9177PP      PP19281   2.083   0.186   3.543 -0.3230 -0.3581 -0.1029
 9178PP      PP19282   4.425   4.393  11.096 -0.1121  0.1629  0.3056
 9179PP      PP19283   6.484   0.773  11.259  0.1628  0.0067  0.1183
 9180PP      PP19284   3.016  12.196   1.407 -0.1913 -0.3388  0.2033
 9181PP      PP19285  10.682   2.045  11.183  0.1121  0.0460 -0.1394
 9182PP      PP19286   6.934   8.525   1.329 -0.0521 -0.0482 -0.0042
 9183PP      PP19287   2.129  11.412   0.110  0.0198 -0.1043  0.2501
 9184PP      PP19288   7.038  11.974  11.726  0.1122  0.1486  0.0799
 9185PP      PP19289   0.439  15.337  10.476  0.0191  0.3556 -0.4243
 9186PP      PP19290  14.131   2.403   1.687 -0.4158 -0.3589 -0.1439
 9187PP      PP19291  12.297   4.087   2.533  0.0193  0.1302 -0.0721
 9188PP      PP19292   2.461  11.134  13.690  0.0156  0.2967  0.2539
 9189PP      PP19293   9.254  15.078  13.320  0.0466 -0.1635 -0.0947
 9190PP      PP19294  12.263   7.531   3.108  0.0974 -0.1288 -0.3252
 9191PP      PP19295  11.132   7.503  11.170  0.0523 -0.1219 -0.0285
 9192PP      PP19296  11.852  10.064  10.288  0.1113 -0.0348  0.2629
 9193PP      PP19297   7.992  13.490  11.939  0.0203  0.0683 -0.1089
 9194PP      PP19298  13.043  13.355   1.215  0.0979 -0.1740 -0.3997
 9195PP      PP19299   4.556   5.997  12.944 -0.0058  0.2750  0.3985
 9196PP      PP19300   2.448   8.604  12.431 -0.3524  0.1307 -0.1081
 9197PP      PP19301   5.856   5.663  10.901  0.2138 -0.0788  0.0603
 9198PP      PP19302   4.880   3.535   9.297  0.1421 -0.1881 -0.0123
 9199PP      PP19303   9.248   8.323   0.289  0.5375 -0.2853  0.2807
 9200PP      PP19304  15.388   0.013   8.651 -0.2294 -0.1124  0.3957
 9201PP      PP19305   0.095  11.354   9.367  0.2529  0.2407  0.3791
 9202PP      PP19306   8.789  10.961   2.848  0.0852 -0.3699 -0.0652
 9203PP      PP19307  13.328   1.543   1.167  0.4807  0.0143 -0.0500
 9204PP      PP19308   7.439   7.434   9.908  0.4185 -0.1329 -0.1820
 9205PP      PP19309   9.557   2.837  11.347 -0.2703 -0.2238  0.0711
 9206PP      PP19310   3.748   0.780   9.704  0.6167 -0.1034  0.0842
 9207PP      PP19311  12.001   9.872   4.352 -0.1545  0.1290  0.2612
 9208PP      PP19312  14.162  14.404   2.404 -0.0725  0.0082  0.4611
 9209PP      PP19313  12.755   0.378   3.713  0.0958  0.1022 -0.3765
 9210PP      PP19314   9.985   0.651  13.457  0.0771 -0.0193  0.2152
 9211PP      PP19315  15.342  14.756   9.383 -0.0849  0.1335 -0.0562
 9212PP      PP19316   0.313   0.753   0.695 -0.0228  0.1210  0.0287
 9213PP      PP19317   0.888  10.760   9.881  0.2559  0.1522  0.0391
 9214PP      PP19318   3.717  15.049  13.524  0.1233  0.0467  0.2260
 9215PP      PP19319   9.385   8.613   1.715  0.1483  0.2131 -0.0797
 9216PP      PP19320  12.978   0.056  12.737  0.0438  0.1436 -0.0665
 9217PP      PP19321   3.667  11.290  12.206  0.1663 -0.0195 -0.2154
 9218PP      PP19322  14.189   4.207   1.489  0.3458 -0.0786 -0.0199
 9219PP      PP19323   5.124   2.131  11.529  0.0121  0.1820 -0.1320
 9220PP      PP19324   4.281   0.292  12.948 -0.1478  0.0278  0.0244
 9221PP      PP19325   7.117  12.370  11.456  0.0641 -0.0028 -0.1021
 9222PP      PP19326  13.763  12.603  13.637 -0.3240  0.0204 -0.2860
 9223PP      PP19327  15.425   2.923   4.312 -0.1559 -0.0396 -0.1120
 9224PP      PP19328   0.621  14.570  10.098  0.0711  0.2193 -0.0490
 9225PP      PP19329  11.128   7.782   5.364  0.1465  0.1491  0.0006
 9226PP      PP19330   2.455  13.365   9.844  0.0569  0.1449  0.3374
 9227PP      PP19331   9.562   5.925   1.389 -0.0561  0.2533 -0.2792
 9228PP      PP19332   2.715  11.064  10.426 -0.5029  0.2544 -0.0763
 9229PP      PP19333  10.030   2.005   9.310 -0.1579 -0.2144  0.4250
 9230PP      PP19334  15.105   5.349   0.219  0.0588  0.2309 -0.1264
 9231PP      PP19335  14.382   6.586   0.684 -0.1320  0.0858 -0.2174
 9232PP      PP19336   7.122   0.985   8.605  0.0136  0.2849 -0.0554
 9233PP      PP19337  13.646  11.883   0.351 -0.0934  0.3170 -0.0348
 9234PP      PP19338  11.326  14.083   0.994  0.0538 -0.1468  0.1411
 9235PP      PP19339   0.543  10.507   9.297  0.0003 -0.0388 -0.1679
 9236PP      PP19340   3.464   3.737   9.107  0.1002 -0.0502  0.1518
 9237PP      PP19341   2.311   3.991   8.053 -0.0101  0.1101 -0.0650
 9238PP      PP19342   9.799  11.548  12.529 -0.2188 -0.0436 -0.2235
 9239PP      PP19343   4.585   3.829   2.119  0.1242 -0.1630 -0.0444
 9240PP      PP19344   7.417  10.317   1.950 -0.0761 -0.0233  0.3688
 9241PP      PP19345   3.860   9.163   8.867  0.0062  0.0758 -0.1928
 9242PP      PP19346  10.671  10.911  10.731 -0.3921  0.0779 -0.1156
 9243PP      PP19347   5.791  14.290   0.961  0.0112 -0.2496  0.1048
 9244PP      PP19348  14.572  14.779   4.342  0.0414 -0.0726  0.2100
 9245PP      PP19349   7.131   8.068   2.798 -0.0627  0.0609 -0.0968
 9246PP      PP19350   7.445   0.242   8.054  0.0244 -0.1337  0.1226
 9247PP      PP19351   1.370   0.560   3.832 -0.1118 -0.0337  0.1409
 9248PP      PP19352  15.501  15.672   1.738 -0.1172  0.1206 -0.2566
 9249PP      PP19353   5.005   1.755  13.374 -0.4659 -0.1957 -0.3656
 9250PP      PP19354   8.276   2.068  10.708  0.1734  0.1087 -0.0434
 9251PP      PP19355   3.042  10.905  13.565 -0.1662 -0.0214 -0.0399
 9252PP      PP19356   6.840   9.439   3.820  0.1411  0.3127  0.0257
 9253PP      PP19357  10.924   3.444   9.176 -0.3095 -0.0089  0.0724
 9254PP      PP19358  10.033   8.811  11.119 -0.1097  0.0416 -0.0078
 9255PP      PP19359  11.531   3.215   1.034  0.2614 -0.1468 -0.2710
 9256PP      PP19360   6.646   9.021  10.682  0.1054 -0.0101 -0.2674
 9257PP      PP19361   1.455   7.245   1.158  0.0811  0.2664 -0.0678
 9258PP      PP19362   1.121  14.240  10.318 -0.0562  0.2114 -0.2674
 9259PP      PP19363  11.861   7.260  13.707 -0.0710 -0.1274  0.1351
 9260PP      PP19364   2.786   4.292   0.171  0.0249  0.1025 -0.1263
 9261PP      PP19365  10.805  13.314  11.211  0.1428 -0.0837  0.0565
 9262PP      PP19366  14.619   4.658  10.341 -0.0036  0.0757  0.0974
 9263PP      PP19367  12.867  14.733  11.711  0.2996  0.1422 -0.0674
 9264PP      PP19368   3.125  14.423   9.425 -0.0796 -0.0356  0.2541
 9265PP      PP19369  11.925   0.592   4.720  0.0733  0.2056 -0.0780
 9266PP      PP19370  15.436   7.862  10.808  0.4300  0.0736  0.1598
 9267PP      PP19371  14.243   1.543   3.482  0.1550 -0.0310 -0.1457
 9268PP      PP19372   2.729   2.896   9.880  0.1534  0.2732  0.0421
 9269PP      PP19373  13.118   4.486   2.247 -0.0580  0.1942 -0.2599
 9270PP      PP19374  11.767   6.557  12.647 -0.3034 -0.2124  0.0393
 9271PP      PP19375   4.462   5.882   2.302 -0.3161 -0.1294  0.1545
 9272PP      PP19376   8.999  10.644   3.629  0.0235  0.1473 -0.1611
 9273PP      PP19377   5.201   8.727   9.147  0.0968  0.0519  0.0900
 9274PP      PP19378  15.123  12.973  13.013  0.3854 -0.4739  0.1183
 9275PP      PP19379  15.087   7.981  13.305 -0.2513  0.0264  0.1085
 9276PP      PP19380   4.655  12.281   0.261 -0.1644  0.0178 -0.2271
 9277PP      PP19381   9.242   7.863   0.133  0.0293  0.1454 -0.0405
 9278PP      PP19382   2.748  11.618   4.243 -0.3496 -0.2467  0.0688
 9279PP      PP19383  12.068   1.342   9.913 -0.1746 -0.0959 -0.3157
 9280PP      PP19384  14.805   1.372  12.008 -0.2259 -0.1587 -0.0973
 9281PP      PP19385   3.183   9.294   4.287 -0.0378  0.2549 -0.2987
 9282PP      PP19386   0.686   1.801  11.276 -0.1525 -0.1582 -0.1084
 9283PP      PP19387   4.206   3.318   2.917  0.1088  0.0069 -0.1637
 9284PP      PP19388   0.001  11.427  10.701 -0.2276 -0.5524  0.1359
 9285PP      PP19389   9.430   5.869   0.236 -0.2926  0.0560  0.2466
 9286PP      PP19390   9.865  14.406  10.799 -0.0431  0.0185  0.0236
 9287PP      PP19391   3.749   7.802   2.272  0.0068  0.0660  0.0521
 9288PP      PP19392   1.762  11.771  10.033  0.1498  0.0898  0.0444
 9289PP      PP19393   3.818  15.515   9.062 -0.0758  0.2549 -0.2315
 9290PP      PP19394   5.459  14.574   2.507 -0.2205 -0.2514 -0.3004
 9291PP      PP19395   3.563   0.343  12.117  0.0287 -0.1156  0.3632
 9292PP      PP19396   6.102   3.217  10.532 -0.3429  0.4581  0.1825
 9293PP      PP19397  15.332  10.325  11.308  0.2508 -0.0546 -0.0587
 9294PP      PP19398  15.535  12.163  13.326  0.2070 -0.1793 -0.3878
 9295PP      PP19399  14.986   9.599  10.521  0.0454 -0.0010  0.3021
 9296PP      PP19400   9.288   2.160   3.223  0.0087 -0.1500  0.0608
 9297PP      PP19401  10.811   9.486   5.194 -0.0598  0.0124  0.2132
 9298PP      PP19402   3.137   2.083   2.807 -0.0784  0.0348  0.0009
 9299PP      PP19403  13.410   3.023   4.465  0.0721  0.1772  0.2538
 9300PP      PP19404   5.670   3.887  13.502 -0.0816  0.0510  0.0910
 9301PP      PP19405  14.880   4.232  13.296 -0.2653  0.2644 -0.3929
 9302PP      PP19406   0.760   9.996   3.180  0.1373 -0.0224 -0.1904
 9303PP      PP19407  14.716  15.225  10.228 -0.0895 -0.1387  0.4109
 9304PP      PP19408   9.735  10.223  12.080  0.1400 -0.2789 -0.0723
 9305PP      PP19409  15.271   9.539   9.729 -0.2428 -0.0630 -0.2052
 9306PP      PP19410   6.980  13.746   1.307 -0.0957  0.0347 -0.0069
 9307PP      PP19411  13.719   5.506   0.063  0.1064  0.4325  0.1434
 9308PP      PP19412   9.120   0.409   1.352 -0.0158  0.0047  0.2419
 9309PP      PP19413  13.571   7.152   1.112  0.0419 -0.0071 -0.2245
 9310PP      PP19414   0.149   5.182   2.522 -0.2589  0.1927 -0.3516
 9311PP      PP19415  14.637   4.495   1.233 -0.1956  0.0281  0.0660
 9312PP      PP19416  11.178   5.492  10.425  0.3361  0.4234  0.1308
 9313PP      PP19417   8.399  14.311   9.794 -0.3066 -0.0474 -0.1120
 9314PP      PP19418   4.308   4.452  12.330  0.0856 -0.0424  0.0625
 9315PP      PP19419  13.017   0.872  11.799  0.3996  0.3636  0.1105
 9316PP      PP19420   1.076   9.306   9.411 -0.0110  0.0041  0.0877
 9317PP      PP19421   3.357  11.508   3.675 -0.1050 -0.0781  0.3524
 9318PP      PP19422   2.663  10.314   9.940  0.0501 -0.0856  0.1849
 9319PP      PP19423   3.093  12.305   3.669  0.0966 -0.0210 -0.0312
 9320PP      PP19424   6.025   1.584   7.485 -0.1370  0.1881 -0.2263
 9321PP      PP19425   9.733   9.000  10.436  0.0799  0.4592 -0.0972
 9322PP      PP19426   8.098   5.436   8.474 -0.0310 -0.0730 -0.1121
 9323PP      PP19427   8.730  11.277   0.531  0.0968  0.3341 -0.0142
 9324PP      PP19428   3.399  11.260  11.658  0.1487  0.1844 -0.0332
 9325PP      PP19429  10.551  13.871  12.139  0.0235  0.2942  0.0111
 9326PP      PP19430   8.388   0.333  10.209 -0.0709  0.0455 -0.1036
 9327PP      PP19431   3.127   9.216  11.045  0.2660  0.1740 -0.0194
 9328PP      PP19432   2.520   7.367   3.121  0.4584  0.0045 -0.0014
 9329PP      PP19433   4.941  11.464   9.237  0.2198  0.4303 -0.1006
 9330PP      PP19434  10.838  12.303  13.701 -0.0052  0.0072  0.2455
 9331PP      PP19435  11.072   4.020  10.117  0.2559  0.0673 -0.1867
 9332PP      PP19436   4.011  11.774  13.183 -0.0565 -0.0809 -0.3088
 9333PP      PP19437   5.968   8.135   0.159 -0.0955  0.1318  0.1118
 9334PP      PP19438  10.893  10.919   4.022 -0.1041  0.0198 -0.1661
 9335PP      PP19439   3.125   4.746   9.757  0.1747  0.2165  0.0666
 9336PP      PP19440   2.390   6.819  12.443  0.3503  0.1136 -0.1246
 9337PP      PP19441   3.234  14.957   0.510 -0.2075 -0.1922 -0.1050
 9338PP      PP19442   1.039  10.718  11.234  0.0599 -0.5538 -0.0217
 9339PP      PP19443  14.834   9.414   0.847 -0.1073 -0.0667  0.0852
 9340PP      PP19444  14.973  10.283   1.314  0.1321 -0.3591 -0.0577
 9341PP      PP19445   8.416   6.336   0.762  0.0469  0.3158  0.0851
 9342PP      PP19446   9.822  13.286  11.336  0.1866  0.1633  0.0304
 9343PP      PP19447   6.168   6.804  11.762 -0.3087  0.2893 -0.0092
 9344PP      PP19448  13.980  11.979   3.329  0.0419  0.1626  0.4773
 9345PP      PP19449  15.133   0.600   3.202  0.2193 -0.3339 -0.2564
 9346PP      PP19450   5.565   2.113   0.859  0.1080 -0.1735  0.3718
 9347PP      PP19451   4.501   6.454  12.761 -0.0700 -0.0973 -0.0029
 9348PP      PP19452   5.735   1.292   0.254 -0.4125  0.0113  0.1634
 9349PP      PP19453   1.723  13.956   0.096 -0.1645  0.0959  0.4264
 9350PP      PP19454   1.675   4.058  10.730 -0.1774  0.0001 -0.2256
 9351PP      PP19455   2.014   9.224   2.577  0.0363  0.2095 -0.0346
 9352PP      PP19456   5.253  10.432  12.684 -0.3160  0.0858  0.1330
 9353PP      PP19457   1.023   1.473   1.588  0.1093  0.0907  0.0622
 9354PP      PP19458  11.208  11.035  11.512  0.3712 -0.3747 -0.3862
 9355PP      PP19459   0.115  13.942   0.372 -0.2537 -0.1203 -0.0362
 9356PP      PP19460   4.691   3.217  13.052 -0.1786 -0.1227 -0.0503
 9357PP      PP19461   8.057   1.186  13.683  0.1213  0.2180 -0.0671
 9358PP      PP19462  12.727   9.996  11.962 -0.1305  0.0436  0.1376
 9359PP      PP19463  12.706   0.027  13.243  0.0731 -0.0008 -0.2043
 9360PP      PP19464  10.479   5.160  10.925 -0.2156  0.1049  0.0431
 9361PP      PP19465   5.548  15.143  11.066 -0.1092  0.3642 -0.0935
 9362PP      PP19466   8.064  13.132  12.430 -0.1254 -0.0859 -0.0169
 9363PP      PP19467  10.696  15.445   3.100  0.1886  0.0121 -0.0307
 9364PP      PP19468  14.556   6.228  10.883 -0.2202  0.0634  0.1835
 9365PP      PP19469   2.659   9.116  13.147  0.0232  0.1307 -0.0360
 9366PP      PP19470  15.062  13.197  13.442  0.0915  0.0082  0.1367
 9367PP      PP19471   8.438   3.347   8.525  0.1239  0.2128 -0.2058
 9368PP      PP19472   7.900  14.734   2.442  0.1321  0.0560  0.1590
 9369PP      PP19473  11.419   3.552   9.031  0.3769  0.0274  0.0736
 9370PP      PP19474   4.610   4.700  10.782 -0.2866  0.0358 -0.0031
 9371PP      PP19475   4.694  10.257  13.390  0.1109 -0.3406 -0.0254
 9372PP      PP19476   4.884  10.394   1.434 -0.0007  0.0895  0.1657
 9373PP      PP19477   3.099  12.987   0.903 -0.0072 -0.1143  0.0598
 9374PP      PP19478  10.441   2.459  13.213 -0.3326 -0.1941  0.1584
 9375PP      PP19479   2.047   0.627   9.871 -0.1690  0.1431  0.0446
 9376PP      PP19480  10.063  14.507  13.513 -0.0799  0.0830 -0.1687
 9377PP      PP19481  15.332   9.476   0.793 -0.1016  0.0704 -0.0503
 9378PP      PP19482  14.511  13.202   3.497  0.1154  0.3150  0.2506
 9379PP      PP19483   7.616  11.700   2.586  0.0210  0.0730  0.0083
 9380PP      PP19484  15.455   4.290   4.064 -0.2193 -0.0006  0.0003
 9381PP      PP19485   1.949   6.368   0.250 -0.1354 -0.3456 -0.0740
 9382PP      PP19486   6.634  12.785  11.890  0.0649 -0.0473  0.0092
 9383PP      PP19487  15.021  13.074   9.940 -0.1082 -0.1434 -0.1806
 9384PP      PP19488   0.535   0.901   1.129 -0.1873  0.2605 -0.2270
 9385PP      PP19489   8.710   3.934  11.986  0.0044 -0.0674  0.0713
 9386PP      PP19490   5.110   5.421  11.555  0.2272 -0.1123 -0.2931
 9387PP      PP19491  14.079   3.988   3.977  0.2569  0.1364  0.1954
 9388PP      PP19492  12.803  10.545  11.297  0.0932 -0.4179  0.2681
 9389PP      PP19493   1.331  14.093   0.437  0.0225 -0.1328 -0.1957
 9390PP      PP19494   3.807  14.815   1.552 -0.0771 -0.2219  0.1585
 9391PP      PP19495   8.580   4.677  12.200 -0.0833  0.1520  0.1789
 9392PP      PP19496  11.982   1.435   3.206 -0.1133 -0.0410 -0.0542
 9393PP      PP19497   3.268   0.435   1.109  0.0302  0.0861  0.0920
 9394PP      PP19498   6.410   9.395  12.625  0.0905  0.2750 -0.2311
 9395PP      PP19499  12.702  11.208  10.200  0.1722 -0.0139  0.1965
 9396PP      PP19500   8.809   9.115   0.051  0.0413  0.4188 -0.0419
 9397PP      PP19501   9.393   5.381  13.024 -0.1709  0.1399 -0.2189
 9398PP      PP19502   9.096   5.863  11.005 -0.1586  0.0050 -0.1157
 9399PP      PP19503   2.376   5.940   3.819  0.2553  0.0728  0.2959
 9400PP      PP19504  14.234  10.978   0.321 -0.1251  0.0162 -0.4301
 9401PP      PP19505   8.927   2.685   7.897 -0.3237 -0.3893 -0.1673
 9402PP      PP19506   4.892  15.669  10.249  0.1654  0.0166  0.0126
 9403PP      PP19507   0.864   1.894   3.285 -0.1531 -0.2205  0.2496
 9404PP      PP19508  15.474   1.164   4.188 -0.1057 -0.1684  0.0924
 9405PP      PP19509   3.297  14.782  12.539 -0.0566  0.1131  0.2488
 9406PP      PP19510  13.802   0.616   0.614  0.2373 -0.2902 -0.1131
 9407PP      PP19511   3.677   2.275   0.780 -0.0550  0.2651 -0.3071
 9408PP      PP19512   3.886  10.871  11.861 -0.2318 -0.1890 -0.2112
 9409PP      PP19513  14.974   4.809  11.846  0.3163  0.1600  0.0537
 9410PP      PP19514  15.082  11.094  11.387 -0.1137  0.1666 -0.1184
 9411PP      PP19515  12.861   6.221  11.559  0.1844 -0.1364 -0.0995
 9412PP      PP19516  11.110   7.074   3.242 -0.2304 -0.2085 -0.0527
 9413PP      PP19517   9.236  10.308   1.706 -0.1196 -0.1728  0.2242
 9414PP      PP19518   5.596   4.693   8.599 -0.0734 -0.2170 -0.1653
 9415PP      PP19519  11.945  10.034   3.552  0.4988  0.3942  0.0427
 9416PP      PP19520  10.052   5.270   2.100  0.1147 -0.1163  0.3543
 9417PP      PP19521   3.962  11.669  11.857 -0.2752 -0.0309  0.3235
 9418PP      PP19522   1.957   3.815  12.729 -0.2041 -0.2509 -0.1890
 9419PP      PP19523   1.349   9.406  13.654 -0.0883 -0.1876 -0.0274
 9420PP      PP19524   6.079   3.902  10.714 -0.3118 -0.1498  0.3753
 9421PP      PP19525  10.313   1.476   0.279 -0.1978 -0.1343 -0.2118
 9422PP      PP19526   0.968   5.591   9.575 -0.0037  0.3499  0.3808
 9423PP      PP19527   6.169   4.081   8.843  0.0184 -0.0027 -0.0683
 9424PP      PP19528   1.807   2.203   4.228  0.0334  0.0447 -0.0123
 9425PP      PP19529  12.331   0.530   3.596  0.1129  0.2153 -0.1497
 9426PP      PP19530  10.759   3.740   1.414 -0.1911  0.0021  0.1418
 9427PP      PP19531  10.089   6.779  12.078  0.0156  0.0789 -0.0824
 9428PP      PP19532  11.753  13.933  11.458  0.0395 -0.2179  0.0449
 9429PP      PP19533   7.947  12.480   5.373  0.0542  0.2424 -0.1951
 9430PP      PP19534   4.552   6.086   1.843 -0.1677 -0.2194 -0.0027
 9431PP      PP19535  12.937  11.772  11.412 -0.0738  0.6479  0.1105
 9432PP      PP19536   0.810   9.515   3.103 -0.0169 -0.3586  0.0319
 9433PP      PP19537  12.288   9.460   5.609 -0.1640 -0.2261 -0.1367
 9434PP      PP19538   2.189  11.206   0.546  0.0890  0.2495 -0.1234
 9435PP      PP19539   6.931   5.627  13.504 -0.0411  0.0202  0.1452
 9436PP      PP19540   7.566   8.389   9.569  0.0586  0.2240 -0.0274
 9437PP      PP19541  12.960  12.041   0.690  0.1546  0.0407 -0.2668
 9438PP      PP19542   9.434  14.099  13.449  0.2375  0.1307 -0.0321
 9439PP      PP19543   3.183   9.769  12.942  0.1043  0.3017  0.0646
 9440PP      PP19544  13.653  13.387   3.761 -0.1191 -0.0101 -0.0642
 9441PP      PP19545   0.248  10.899   9.091  0.1191 -0.2489  0.1580
 9442PP      PP19546   6.708   7.317   0.961 -0.0242  0.1558  0.0397
 9443PP      PP19547   8.008   1.028  12.704 -0.1018  0.1537 -0.0084
 9444PP      PP19548   1.595   1.504  11.066  0.0910  0.0145  0.1896
 9445PP      PP19549  11.319   3.917   2.942  0.1748  0.1264 -0.1627
 9446PP      PP19550   5.323   6.212   1.339 -0.3911  0.0223 -0.2236
 9447PP      PP19551  13.442  12.945   9.596  0.0083  0.0225 -0.3325
 9448PP      PP19552  15.500  14.496  12.213 -0.0306 -0.0222  0.2403
 9449PP      PP19553   1.326   2.413  13.582  0.1397 -0.3324 -0.1514
 9450PP      PP19554  11.404   9.072   2.702  0.0177  0.0322 -0.1330
 9451PP      PP19555  15.659   0.520  11.599  0.1020  0.2272  0.3080
 9452PP      PP19556   8.942  11.005   5.362 -0.0859  0.2903 -0.1109
 9453PP      PP19557   9.398   6.542   1.506 -0.0732  0.0375  0.2500
 9454PP      PP19558  10.472   2.898   0.494  0.2225 -0.4973 -0.2198
 9455PP      PP19559  10.140   6.824   9.944  0.2293 -0.1663  0.0637
 9456PP      PP19560   1.927   4.984  11.335  0.4211  0.2482  0.0242
 9457PP      PP19561   9.492   2.015   9.497  0.1474  0.0781  0.1931
 9458PP      PP19562   9.428   2.406  10.711 -0.0708 -0.0723 -0.2394
 9459PP      PP19563  13.797   7.076  12.569 -0.1653 -0.1644 -0.2575
 9460PP      PP19564  10.691   7.446   5.098 -0.0420 -0.1144  0.6005
 9461PP      PP19565  15.558   9.025  12.244 -0.2209 -0.4808  0.0523
 9462PP      PP19566   8.833   0.602   2.144 -0.2956 -0.0346 -0.3861
 9463PP      PP19567   6.681   5.890   2.643  0.1126  0.0178 -0.0067
 9464PP      PP19568   9.753   3.557   1.497  0.0218  0.1411  0.2088
 9465PP      PP19569  12.483  11.389   2.359  0.0912  0.1258  0.1030
 9466PP      PP19570   1.477   5.183   9.521  0.0505  0.1540  0.2717
 9467PP      PP19571  11.984  11.981   2.198  0.1259 -0.1351 -0.0393
 9468PP      PP19572   0.548   9.025   0.906  0.1449 -0.2165  0.1690
 9469PP      PP19573   5.566   8.264   9.293 -0.2463  0.1840 -0.0542
 9470PP      PP19574   9.249   9.073   2.057  0.2409 -0.0002 -0.0864
 9471PP      PP19575  14.979   5.692   3.276 -0.0288  0.1602  0.2072
 9472PP      PP19576   0.460   8.783  10.132  0.1230 -0.0924  0.0450
 9473PP      PP19577   5.205   8.870  11.004  0.0232  0.3000  0.4080
 9474PP      PP19578   0.119   2.622   3.459 -0.1141  0.0221  0.2334
 9475PP      PP19579   2.424   4.795   1.572 -0.0899 -0.2213  0.0687
 9476PP      PP19580   0.967  11.968   0.201 -0.0779  0.0077 -0.1519
 9477PP      PP19581   8.317  11.342   5.262  0.1024 -0.1021  0.2311
 9478PP      PP19582   9.712   3.112   1.743  0.1255 -0.0521  0.1180
 9479PP      PP19583  11.735   2.881  13.476  0.0167  0.2215 -0.3305
 9480PP      PP19584   2.065   3.017  12.726 -0.0314 -0.0789 -0.1535
 9481PP      PP19585   9.786  14.358   1.790  0.5888  0.1038 -0.1157
 9482PP      PP19586   2.511  11.717  11.659  0.1242  0.1803  0.2263
 9483PP      PP19587   5.650  15.269  13.659  0.0037 -0.0751  0.1472
 9484PP      PP19588   8.220   5.651  11.122 -0.3716  0.2265  0.1994
 9485PP      PP19589   8.963   2.519   2.884 -0.1316 -0.1243  0.1780
 9486PP      PP19590  10.762   4.838   2.486 -0.0854  0.0677 -0.0185
 9487PP      PP19591  12.370   6.110   2.895  0.0422  0.1047  0.1966
 9488PP      PP19592   1.223   0.321  12.626  0.0733 -0.1594  0.3731
 9489PP      PP19593   0.278   8.360   0.882 -0.0225 -0.0169 -0.2400
 9490PP      PP19594   8.100   3.340  10.275 -0.1492 -0.1787  0.1213
 9491PP      PP19595   6.266   5.164  12.262  0.1135 -0.0703 -0.0032
 9492PP      PP19596   3.897   9.329   0.381 -0.0687 -0.2670  0.1002
 9493PP      PP19597   2.407  14.000   1.496 -0.0552 -0.2419  0.1253
 9494PP      PP19598   6.356  12.274   0.828 -0.0645 -0.0290 -0.0911
 9495PP      PP19599   8.730   8.067   3.592 -0.1288 -0.1968 -0.1284
 9496PP      PP19600   2.597   4.418   0.644  0.1293 -0.0960  0.0233
 9497PP      PP19601   8.782  14.910   3.813 -0.2708  0.2641 -0.1213
 9498PP      PP19602  13.142  12.731  12.124 -0.0308 -0.0794  0.0206
 9499PP      PP19603   8.132   4.695   0.280  0.0613 -0.0472 -0.0651
 9500PP      PP19604   7.399   5.451  13.374 -0.1502 -0.0498  0.1309
 9501PP      PP19605   4.149   9.511   3.519 -0.0807 -0.0037  0.0918
 9502PP      PP19606   8.245   1.665  12.119 -0.1599  0.4821  0.2694
 9503PP      PP19607   6.126   2.204   9.554  0.3219 -0.0741 -0.0464
 9504PP      PP19608   2.690   7.458   9.948 -0.1998 -0.0993 -0.1245
 9505PP      PP19609  11.528  13.609   0.197 -0.2320 -0.0871 -0.0054
 9506PP      PP19610   7.710  11.472  11.579  0.1178  0.0659 -0.2446
 9507PP      PP19611   0.494   7.523   0.991 -0.0327 -0.0946  0.1068
 9508PP      PP19612  15.626   3.693   3.367 -0.1421 -0.1434  0.0465
 9509PP      PP19613   6.941  10.158   0.709  0.1396  0.4944 -0.2200
 9510PP      PP19614  11.645   3.142  11.337 -0.3087 -0.2208  0.1152
 9511PP      PP19615  15.472   8.056  11.403 -0.1054  0.2021  0.0828
 9512PP      PP19616   0.687  10.782  11.632  0.2493 -0.1887 -0.2529
 9513PP      PP19617   8.316   5.738  13.286 -0.1288  0.0626  0.3564
 9514PP      PP19618  14.230   3.553   3.813  0.0238  0.0368  0.1116
 9515PP      PP19619   9.233  15.069   3.992  0.0455 -0.3312 -0.2200
 9516PP      PP19620  10.103   1.608   0.778 -0.2361  0.1529  0.0407
 9517PP      PP19621  12.832   7.814   1.131  0.1832  0.0838 -0.0585
 9518PP      PP19622  10.056   3.347   2.054  0.5619 -0.0549 -0.0277
 9519PP      PP19623   8.994  10.986  12.200  0.0578 -0.0503 -0.0980
 9520PP      PP19624  10.450   8.498   0.679  0.2792 -0.3809 -0.1940
 9521PP      PP19625   7.473  11.297   0.102 -0.1066 -0.3938 -0.0829
 9522PP      PP19626   5.843   9.078   4.342  0.0833  0.1193 -0.1810
 9523PP      PP19627   5.296  11.266  12.822 -0.4507  0.2907  0.0427
 9524PP      PP19628   1.123   5.962   9.793 -0.0320 -0.2245 -0.3085
 9525PP      PP19629   3.630   2.868   2.386 -0.0949 -0.1002  0.3639
 9526PP      PP19630  15.287   3.054   2.226  0.1163 -0.2673 -0.0443
 9527PP      PP19631  14.749   8.943  11.355 -0.0455  0.0861  0.2489
 9528PP      PP19632   8.999  10.061   5.360 -0.2341  0.0038  0.0350
 9529PP      PP19633   1.737  13.715   1.917 -0.1641  0.0946 -0.1254
 9530PP      PP19634   5.768   9.745   3.768 -0.2025  0.0655 -0.2502
 9531PP      PP19635   4.692   3.262   2.973  0.1005 -0.0576  0.0156
 9532PP      PP19636  11.410  11.011  12.581  0.1355 -0.1974 -0.1245
 9533PP      PP19637   3.291   3.742   2.853  0.1798  0.0512  0.0230
 9534PP      PP19638   7.026  14.447   9.699 -0.0821  0.2787  0.1587
 9535PP      PP19639   7.780  12.141  12.165  0.0832 -0.0210 -0.0990
 9536PP      PP19640   9.616   6.350  10.780 -0.0386  0.1649 -0.0774
 9537PP      PP19641   9.995  12.267   3.164  0.1279 -0.0418  0.2426
 9538PP      PP19642  11.654   2.030   1.543 -0.1216 -0.1090 -0.0962
 9539PP      PP19643   7.753  12.412   1.700 -0.1957  0.1285 -0.1530
 9540PP      PP19644  11.161   4.996  11.382  0.2151 -0.1983  0.1036
 9541PP      PP19645   3.638   2.129   2.902 -0.0067 -0.0465  0.0292
 9542PP      PP19646   9.370  10.254  11.624 -0.1793  0.0644  0.2217
 9543PP      PP19647   5.729   7.445  11.047 -0.0162  0.1969 -0.0087
 9544PP      PP19648   5.154  10.700  12.125  0.2050  0.1453  0.0227
 9545PP      PP19649   4.999   1.466   0.488  0.0589  0.1659 -0.1478
 9546PP      PP19650  13.155  13.976  10.032  0.1994 -0.4047 -0.0492
 9547PP      PP19651   0.686   5.701  11.163 -0.0638  0.2211 -0.2538
 9548PP      PP19652  15.648  10.524  11.661 -0.1698 -0.0074  0.0288
 9549PP      PP19653   8.826   6.827   3.200 -0.2009 -0.1059  0.0545
 9550PP      PP19654  10.728  15.014   3.357 -0.1109  0.0827  0.2235
 9551PP      PP19655  13.215  15.037   1.469 -0.0836  0.1134  0.0207
 9552PP      PP19656  12.529   2.962  12.860  0.0752 -0.0556 -0.1260
 9553PP      PP19657  10.016   2.921   0.308 -0.0132 -0.0310  0.0288
 9554PP      PP19658  14.934   8.500   3.017 -0.1817  0.0230 -0.1898
 9555PP      PP19659  11.418   8.890   0.346 -0.0977  0.1211  0.0573
 9556PP      PP19660  15.551   1.514   3.782 -0.3249 -0.5057  0.2698
 9557PP      PP19661  12.049   2.912   2.754 -0.1440 -0.0532 -0.2727
 9558PP      PP19662  14.039   7.880   0.370  0.3118  0.0927  0.0215
 9559PP      PP19663   8.911   6.223  10.657 -0.0465 -0.1981 -0.0634
 9560PP      PP19664   8.131   1.396   8.894 -0.0931  0.1112  0.2376
 9561PP      PP19665   5.258  13.462  10.626 -0.0354 -0.1027 -0.0375
 9562PP      PP19666  11.906   7.464  10.216  0.2728  0.2996 -0.1081
 9563PP      PP19667   0.512   0.146   2.758  0.0376 -0.2100 -0.2050
 9564PP      PP19668   8.498   2.890   1.220 -0.2545  0.3813  0.0387
 9565PP      PP19669  13.256   0.947  13.262 -0.3722 -0.0561 -0.1590
 9566PP      PP19670  14.823  11.105   2.216 -0.3813 -0.1218 -0.1006
 9567PP      PP19671   7.483   6.721  11.040  0.0725 -0.4675 -0.2839
 9568PP      PP19672  11.336   4.107   1.238 -0.1753  0.0780 -0.1716
 9569PP      PP19673   3.992  11.553   9.892  0.0635  0.2937 -0.4048
 9570PP      PP19674   5.703   2.504   9.342 -0.1880 -0.1073 -0.3107
 9571PP      PP19675  10.114  13.847  11.717 -0.1095  0.1693  0.0507
 9572PP      PP19676  13.293   3.686   3.552  0.3013 -0.2120  0.2662
 9573PP      PP19677   1.422   1.728   8.837  0.0119  0.0704  0.2227
 9574PP      PP19678   8.838   1.107   9.069 -0.0719  0.2058 -0.1611
 9575PP      PP19679   3.316   6.822  12.805 -0.0618 -0.2898  0.0324
 9576PP      PP19680   5.991   0.527   0.164  0.2023  0.0309 -0.0320
 9577PP      PP19681   0.398   6.807   0.587  0.1196 -0.0480 -0.0304
 9578PP      PP19682  12.812   1.148   4.668 -0.0384 -0.1088 -0.0583
 9579PP      PP19683   6.330  14.793  10.293 -0.3462  0.0537 -0.0675
 9580PP      PP19684   5.337   4.850   1.080  0.2353  0.0215 -0.0893
 9581PP      PP19685   8.987   1.386  12.519 -0.0615  0.0323  0.1276
 9582PP      PP19686   9.547   3.275   9.071 -0.4598  0.3925  0.3478
 9583PP      PP19687   3.162  15.113  12.105 -0.1586 -0.1517 -0.3914
 9584PP      PP19688   5.631   4.919   2.237  0.0830 -0.4908 -0.3624
 9585PP      PP19689  10.700  12.349   4.009 -0.2077 -0.0581  0.2469
 9586PP      PP19690   5.618   5.800   3.444  0.1246  0.1210  0.0901
 9587PP      PP19691  13.452   9.446  13.372  0.3196 -0.1358  0.0098
 9588PP      PP19692  11.641   0.046  12.427 -0.0111 -0.0582  0.0904
 9589PP      PP19693   6.159  15.004  10.748 -0.0108  0.0222 -0.1497
 9590PP      PP19694  15.071  14.093   8.549 -0.0152  0.0798 -0.0044
 9591PP      PP19695   8.063  12.031   2.191 -0.2955 -0.2212  0.1204
 9592PP      PP19696   3.639   2.373   8.443 -0.1673 -0.2428 -0.1225
 9593PP      PP19697  15.441  10.197   2.588  0.0185  0.1660  0.1190
 9594PP      PP19698  13.674   7.922  10.436  0.2037  0.0073  0.1222
 9595PP      PP19699  13.446   3.423   2.583  0.0290 -0.3067  0.2312
 9596PP      PP19700   8.598  13.884  12.594  0.0167  0.1134  0.1691
 9597PP      PP19701   0.993   7.837  10.347 -0.0372  0.0619 -0.4831
 9598PP      PP19702  11.181   4.924  12.459  0.0502 -0.2920 -0.0750
 9599PP      PP19703   3.138   3.798   3.909 -0.1318 -0.0017 -0.0067
 9600PP      PP19704   5.862   0.929  10.639 -0.0806  0.0063 -0.2646
 9601PP      PP19705   6.465   9.084   3.987 -0.0567  0.0215 -0.1336
 9602PP      PP19706   1.772   5.553  10.630 -0.2575 -0.0293 -0.2032
 9603PP      PP19707   4.005  14.659  13.213  0.3032  0.0022 -0.0615
 9604PP      PP19708   4.022   6.170  10.040  0.0857  0.0168  0.0572
 9605PP      PP19709   2.975  10.780   0.930 -0.0533  0.1804 -0.4675
 9606PP      PP19710   2.208   7.285  10.044 -0.4048  0.2343 -0.0792
 9607PP      PP19711  11.231   7.573  10.651  0.0424  0.0152 -0.1056
 9608PP      PP19712  10.490  15.686   0.053 -0.1977  0.2243 -0.1252
 9609PP      PP19713   8.604   3.010  11.587 -0.1886  0.0876  0.0775
 9610PP      PP19714  12.647  12.359  12.661  0.2559  0.0364  0.0182
 9611PP      PP19715   3.220   9.909   2.638  0.1455 -0.0664 -0.3018
 9612PP      PP19716   8.432  12.650  13.212  0.0423  0.1354  0.0609
 9613PP      PP19717  11.891  15.002  10.016 -0.2107 -0.0073  0.1329
 9614PP      PP19718  12.508   1.899   1.926 -0.0481  0.0003  0.1442
 9615PP      PP19719   1.877   9.984   1.477  0.1179  0.2471  0.2372
 9616PP      PP19720   2.532   7.055  11.172  0.1126 -0.1268  0.1214
 9617PP      PP19721   7.520   8.566   0.167 -0.1631  0.0602 -0.2637
 9618PP      PP19722  14.451  13.677  12.343  0.1975  0.2405 -0.0019
 9619PP      PP19723  14.890   1.466  11.518  0.1050  0.0664 -0.1784
 9620PP      PP19724   2.531  14.588   0.858  0.0433  0.1810 -0.3149
 9621PP      PP19725  11.490   1.490  11.674  0.0403 -0.0236 -0.2327
 9622PP      PP19726   0.303  13.503   2.253  0.3044  0.0012 -0.0230
 9623PP      PP19727  15.445   6.873   2.466  0.0076 -0.0227 -0.1171
 9624PP      PP19728  13.296   7.058  11.857 -0.0395  0.3249 -0.2470
 9625PP      PP19729  13.610   4.198   3.860  0.4012  0.0259  0.0654
 9626PP      PP19730  12.866   7.409   5.553  0.0362 -0.0264 -0.1207
 9627PP      PP19731   0.953   1.896   8.677  0.1730 -0.2871  0.2560
 9628PP      PP19732   4.132   2.300   1.000  0.1393  0.1540 -0.2199
 9629PP      PP19733   0.024   3.781   1.583  0.0037  0.1024  0.0552
 9630PP      PP19734   1.976   4.578   1.542 -0.2092 -0.1405  0.2605
 9631PP      PP19735   5.310   3.762   9.110 -0.1994  0.0798 -0.0602
 9632PP      PP19736  12.801   7.146   3.827 -0.3831 -0.1510  0.0526
 9633PP      PP19737   4.169  13.179  13.213 -0.0001 -0.1486  0.0921
 9634PP      PP19738   5.126   0.034  12.372  0.3251 -0.3894 -0.0197
 9635PP      PP19739   6.572   2.524  10.371 -0.0105 -0.1700  0.3686
 9636PP      PP19740  12.364   7.282  10.484  0.1834  0.2019  0.2261
 9637PP      PP19741  15.110   9.888  10.181 -0.0638  0.0603  0.1105
 9638PP      PP19742  10.263   1.040  11.318 -0.2792 -0.0164 -0.0966
 9639PP      PP19743   6.594   3.454   7.575  0.1242  0.2688 -0.1475
 9640PP      PP19744   5.913   8.433  12.546 -0.1411  0.1275  0.4670
 9641PP      PP19745  14.363   9.734  11.945 -0.1898 -0.0308 -0.0015
 9642PP      PP19746  12.808  13.113  12.974  0.3598 -0.1081  0.1773
 9643PP      PP19747  11.916  12.875   2.178 -0.2913 -0.2653 -0.1601
 9644PP      PP19748   5.515   6.056  13.714 -0.2151 -0.1319 -0.1325
 9645PP      PP19749   7.250   2.073   0.836 -0.0757 -0.1826  0.2603
 9646PP      PP19750   5.298   1.284  13.317  0.0728 -0.0750 -0.1966
 9647PP      PP19751   4.721   7.486   0.697 -0.2187 -0.0372  0.3669
 9648PP      PP19752  11.137   0.825   3.675  0.0285 -0.0442 -0.3470
 9649PP      PP19753  11.864   3.741  13.150 -0.0124 -0.2425  0.2416
 9650PP      PP19754  15.477   0.221   2.573  0.0733  0.2038 -0.2374
 9651PP      PP19755   5.429  10.811  13.054 -0.2150 -0.1476 -0.0457
 9652PP      PP19756  12.709   7.066  13.444  0.2840 -0.0757 -0.2571
 9653PP      PP19757  14.085   7.613   3.408  0.0394 -0.1720  0.0953
 9654PP      PP19758  12.494   7.515   2.434 -0.2301  0.2147 -0.0867
 9655PP      PP19759   8.544   0.734   9.327  0.0488 -0.0084 -0.0226
 9656PP      PP19760  10.705   6.089   9.750 -0.2258 -0.0511 -0.2033
 9657PP      PP19761   4.420  13.743   3.551 -0.2719  0.2369 -0.1232
 9658PP      PP19762   9.604  13.001  10.974  0.1039 -0.0579  0.1735
 9659PP      PP19763   1.004   3.058   2.694 -0.1290  0.4777  0.0528
 9660PP      PP19764  11.043   1.789   0.632  0.4157  0.1572 -0.0262
 9661PP      PP19765   7.492  11.910  10.962 -0.0142 -0.4019 -0.2960
 9662PP      PP19766   3.323  11.287   1.505 -0.1532 -0.0093  0.1667
 9663PP      PP19767  10.978  11.823  12.948 -0.0291  0.0630 -0.1675
 9664PP      PP19768   2.612  12.521   9.257  0.0251 -0.2232 -0.2077
 9665PP      PP19769   3.044   2.149   1.887 -0.3548  0.3187  0.0406
 9666PP      PP19770   8.911   6.792   2.167  0.3916  0.3029 -0.0318
 9667PP      PP19771   1.211   9.834   3.013 -0.2774 -0.1365  0.1909
 9668PP      PP19772   8.509   5.591  11.629  0.4509 -0.0842 -0.0368
 9669PP      PP19773   6.108  12.538   1.823 -0.2859 -0.3302  0.1183
 9670PP      PP19774   1.238   2.810   4.032  0.0472 -0.3785 -0.1089
 9671PP      PP19775   0.515   8.182   4.335 -0.1953  0.1092 -0.0808
 9672PP      PP19776   9.288  13.959   3.654 -0.2703 -0.1581 -0.1016
 9673PP      PP19777  11.551   9.446  13.225 -0.4099  0.3301  0.0339
 9674PP      PP19778   8.284   5.330  12.973 -0.0144  0.2151 -0.2446
 9675PP      PP19779   7.977  13.459   3.299 -0.1702  0.0401  0.2120
 9676PP      PP19780   9.029   5.608  11.489  0.0695  0.2949  0.2094
 9677PP      PP19781   1.728   1.754   4.894 -0.1075 -0.0746 -0.1349
 9678PP      PP19782  11.428   5.345  11.086 -0.1541  0.3339 -0.0350
 9679PP      PP19783   7.424   1.278   9.923  0.0731 -0.0525 -0.2120
 9680PP      PP19784   6.377   2.628  11.460 -0.3519 -0.2392  0.2415
 9681PP      PP19785  13.858  10.782   2.122 -0.1362 -0.1179  0.1746
 9682PP      PP19786  12.068  15.677   9.847 -0.0056  0.0396 -0.0198
 9683PP      PP19787   7.318   0.475  12.740  0.0524 -0.1730 -0.3488
 9684PP      PP19788  11.005  12.067   2.716  0.0647  0.2693 -0.0535
 9685PP      PP19789   5.443   9.944  11.443 -0.1944  0.0171 -0.0010
 9686PP      PP19790   0.660   7.452  11.032 -0.4373  0.2746  0.1763
 9687PP      PP19791   8.097   6.446   9.120  0.0892  0.3131  0.2147
 9688PP      PP19792  10.307   4.674   3.980  0.1669  0.3370  0.0149
 9689PP      PP19793   0.405  14.111  10.257  0.1950  0.1829  0.0942
 9690PP      PP19794  11.917  14.925  11.883 -0.3740  0.0695 -0.1677
 9691PP      PP19795   5.191   7.333   3.171 -0.0935  0.0343 -0.0690
 9692PP      PP19796  14.295  12.382   9.856 -0.1436 -0.0357 -0.0027
 9693PP      PP19797   4.560  13.162   1.648 -0.2628  0.0145 -0.2352
 9694PP      PP19798   4.432   4.580   2.541 -0.1168 -0.0972  0.2604
 9695PP      PP19799  15.070   5.574   3.774  0.0150 -0.2159 -0.3937
 9696PP      PP19800   5.471  14.482   4.180  0.0521  0.3578  0.2040
 9697PP      PP19801   0.917   2.975   2.030  0.1742 -0.1312  0.1202
 9698PP      PP19802   5.143  13.202  13.557 -0.1093  0.1187 -0.0106
 9699PP      PP19803  14.834   0.234   1.290  0.0512  0.2607 -0.1613
 9700PP      PP19804   1.916  12.750   0.763 -0.0513 -0.0273 -0.0314
 9701PP      PP19805  13.581   3.298  12.892  0.0553  0.0285 -0.0865
 9702PP      PP19806  10.944   6.279   0.295 -0.0250 -0.1176 -0.0099
 9703PP      PP19807   1.669   5.215   1.276 -0.1561  0.2206  0.1617
 9704PP      PP19808  15.471  13.061   1.158 -0.0345  0.2492 -0.1068
 9705PP      PP19809   5.164   7.911   0.401 -0.0061  0.3650 -0.2791
 9706PP      PP19810  14.753  14.296   4.314  0.3389 -0.2082  0.1050
 9707PP      PP19811  12.294   5.020   3.401 -0.2534 -0.0329 -0.0392
 9708PP      PP19812   8.286   4.964   7.423  0.3496 -0.4283  0.2291
 9709PP      PP19813  12.142  13.756  13.327 -0.0884 -0.2744  0.1072
 9710PP      PP19814   1.065  12.764   4.610 -0.0044  0.1339 -0.1687
 9711PP      PP19815   2.469   4.542  13.623  0.0670 -0.2493 -0.2001
 9712PP      PP19816  12.218   1.710   8.935  0.0827 -0.3249 -0.0354
 9713PP      PP19817   3.864   8.995   3.360  0.1933  0.1812  0.0862
 9714PP      PP19818  10.118   6.211   3.234  0.0814 -0.2041  0.2458
 9715PP      PP19819   0.031  10.923   3.448  0.4264 -0.2585 -0.1739
 9716PP      PP19820  11.024   9.249   0.148  0.0023 -0.1147  0.1348
 9717PP      PP19821  13.871   4.327  10.944  0.3459  0.0281 -0.1974
 9718PP      PP19822  12.748   2.825   3.851 -0.0382 -0.1455 -0.1121
 9719PP      PP19823   4.278   4.492  11.603 -0.0321  0.0597 -0.2138
 9720PP      PP19824   2.057   5.896   2.826 -0.3329 -0.1225  0.0740
 9721PP      PP19825   3.981   8.381  11.281 -0.2118 -0.2389  0.1786
 9722PP      PP19826   0.329   1.668   3.755  0.0526 -0.0017 -0.0091
 9723PP      PP19827   4.196  13.181  11.618  0.1861 -0.1549 -0.3610
 9724PP      PP19828  12.303   1.498   3.983  0.0158  0.1211 -0.1494
 9725PP      PP19829   9.502   7.979  10.160 -0.0504 -0.0174 -0.0348
 9726PP      PP19830  15.529  12.248   3.259  0.0342  0.2307 -0.1686
 9727PP      PP19831   6.200   8.909  10.928  0.1394  0.1000  0.1304
 9728PP      PP19832   8.356   1.757   2.889 -0.0042 -0.0889  0.1169
 9729PP      PP19833   7.491   5.708   3.330  0.3853  0.0841 -0.2930
 9730PP      PP19834   5.591   3.990  10.854 -0.2362  0.1542 -0.1540
 9731PP      PP19835  13.650  13.799   8.650 -0.0791 -0.1994 -0.3249
 9732PP      PP19836  12.824   2.961   2.650  0.1439 -0.2064  0.0843
 9733PP      PP19837  14.683  15.687  10.113 -0.0526  0.1963  0.0472
 9734PP      PP19838   2.530   4.902  11.295 -0.2263 -0.0287 -0.1762
 9735PP      PP19839  12.265   4.128  11.159  0.2363  0.1501 -0.1978
 9736PP      PP19840   9.296   7.466   9.172 -0.0027  0.1194 -0.0799
 9737PP      PP19841   7.597   8.452   9.095  0.1871 -0.0372 -0.1608
 9738PP      PP19842  12.648  14.341   2.470  0.0402 -0.1765  0.1103
 9739PP      PP19843   7.988   5.683   2.469 -0.2808  0.0503 -0.0666
 9740PP      PP19844  12.063  14.957   0.302 -0.1892 -0.0813  0.3052
 9741PP      PP19845   6.516   0.183  10.553 -0.0566 -0.1655 -0.1050
 9742PP      PP19846   5.270  12.976   4.358  0.0249 -0.1793  0.0672
 9743PP      PP19847  11.642   5.439   2.252 -0.0251 -0.4887  0.1310
 9744PP      PP19848  10.661  11.857  12.594  0.0774 -0.1618  0.2829
 9745PP      PP19849   5.517   0.797   0.232  0.1399 -0.2048  0.0312
 9746PP      PP19850  11.933   7.605   3.551 -0.2526 -0.1457  0.0314
 9747PP      PP19851  13.374   6.064   5.736  0.0847  0.0146 -0.2020
 9748PP      PP19852   7.335  11.349  12.273  0.0807 -0.1193 -0.0143
 9749PP      PP19853   3.995   8.732  12.206 -0.2157 -0.1640  0.2372
 9750PP      PP19854  12.609  13.489   9.893  0.1800  0.2124  0.1021
 9751PP      PP19855   1.191  10.834   3.238 -0.1089 -0.3515  0.0256
 9752PP      PP19856   3.809   7.294  12.056 -0.1691 -0.1025 -0.0347
 9753PP      PP19857  14.158   6.439   0.268  0.1234  0.2998  0.2391
 9754PP      PP19858  14.455  10.661  13.140  0.2002  0.3253  0.0806
 9755PP      PP19859  12.325   3.054   3.877 -0.0663  0.1407  0.1187
 9756PP      PP19860   0.720  11.066  13.711  0.3618  0.0369 -0.2490
 9757PP      PP19861   9.411   2.688   3.452 -0.1694 -0.0545  0.2032
 9758PP      PP19862   5.133  14.776  11.607 -0.1204 -0.2017  0.0345
 9759PP      PP19863   0.726  11.058   9.429  0.3120  0.0092  0.0558
 9760PP      PP19864  10.798   9.959  12.768 -0.0554 -0.0785 -0.1530
 9761PP      PP19865   9.546  14.923  12.171  0.3573 -0.1409  0.1788
 9762PP      PP19866   2.077  14.464   0.816  0.2239  0.1350 -0.0884
 9763PP      PP19867  14.545   0.326   4.887 -0.3675  0.1417 -0.0502
 9764PP      PP19868   0.872   5.085   0.991  0.1619 -0.2276 -0.2797
 9765PP      PP19869   5.012   8.185  10.949  0.3190 -0.0038 -0.1452
 9766PP      PP19870   7.166   3.730   9.278 -0.2394 -0.0331 -0.0917
 9767PP      PP19871   9.860  11.326   9.589 -0.1387 -0.0864 -0.0188
 9768PP      PP19872  12.962   3.642   0.212 -0.2195 -0.1035 -0.0402
 9769PP      PP19873   8.088   6.763  13.465 -0.1458  0.2523 -0.0295
 9770PP      PP19874   1.761  11.799   1.488 -0.1299  0.0015 -0.1127
 9771PP      PP19875   0.649   1.252   9.338 -0.0990  0.1908 -0.0219
 9772PP      PP19876   9.143   1.866   9.933 -0.0889  0.0767  0.0120
 9773PP      PP19877   7.225  13.431  10.542 -0.2146 -0.1303 -0.1823
 9774PP      PP19878   9.077   9.877  11.684  0.1337  0.1377 -0.0596
 9775PP      PP19879   2.691  10.952   0.302  0.0402 -0.1003 -0.1738
 9776PP      PP19880   3.772  13.764   1.973 -0.3377 -0.0044  0.0592
 9777PP      PP19881  13.167   9.438   1.681 -0.0744 -0.1133 -0.2510
 9778PP      PP19882   7.394   4.092  11.190 -0.1147 -0.1026 -0.1693
 9779PP      PP19883   9.015   1.347   2.787  0.3372  0.1966  0.2025
 9780PP      PP19884  13.471  15.086   0.323  0.2288  0.2829  0.0272
 9781PP      PP19885  13.583   8.339   4.404 -0.0008  0.0483  0.0757
 9782PP      PP19886   6.393   5.167   9.600  0.0273  0.4440 -0.2965
 9783PP      PP19887  11.556  10.450  13.609  0.1130  0.3922  0.1459
 9784PP      PP19888  13.790  11.700   3.692 -0.0813 -0.2011 -0.1064
 9785PP      PP19889   8.101   8.610   0.092  0.1599  0.1760 -0.0411
 9786PP      PP19890  11.584   1.047   3.814 -0.1094 -0.0227  0.0039
 9787PP      PP19891  13.252   4.233  11.823  0.0495 -0.0658 -0.1296
 9788PP      PP19892   1.903  15.488  11.524 -0.0787 -0.1986 -0.1795
 9789PP      PP19893   0.061   7.351  12.227 -0.1166  0.3305  0.0381
 9790PP      PP19894   3.084   3.031  12.933 -0.2303  0.3236 -0.0987
 9791PP      PP19895   0.256   1.930   8.822  0.1510 -0.0159  0.0508
 9792PP      PP19896  11.455   3.907   3.444  0.0753 -0.3290  0.0262
 9793PP      PP19897   6.980   4.909  12.820 -0.1482  0.0737  0.1623
 9794PP      PP19898  15.579   6.761  11.249 -0.0446 -0.1766 -0.2672
 9795PP      PP19899   6.727  13.519  10.644  0.0550 -0.0614  0.1523
 9796PP      PP19900   6.531   3.786   9.897 -0.0673 -0.0905  0.4177
 9797PP      PP19901   7.098   3.957  12.400  0.3204  0.2682  0.0581
 9798PP      PP19902   0.821   5.734   9.035  0.0559  0.0729  0.0776
 9799PP      PP19903   5.595  13.848  13.155  0.0954  0.0467  0.2688
 9800PP      PP19904   0.819   0.650  11.491 -0.1123 -0.2320  0.0217
 9801PP      PP19905  15.240  10.335  11.925  0.2684 -0.0539  0.1841
 9802PP      PP19906   6.536   9.948  12.766 -0.0355 -0.0586  0.0547
 9803PP      PP19907   6.122  11.009   3.968 -0.0740 -0.1319  0.0317
 9804PP      PP19908  12.858  15.731   5.074  0.0685 -0.0372  0.0425
 9805PP      PP19909   8.408   5.884   3.398 -0.1745  0.4824 -0.1408
 9806PP      PP19910   9.766  11.840  12.064  0.0605  0.1891  0.2091
 9807PP      PP19911  11.303  12.899   4.726 -0.2214  0.1736  0.0858
 9808PP      PP19912   1.678   8.674   9.918  0.2586  0.2263  0.0839
 9809PP      PP19913   2.383   9.122   3.593 -0.0192  0.0004  0.0030
 9810PP      PP19914   9.118   1.462   9.622 -0.0931 -0.2264 -0.0115
 9811PP      PP19915   3.613   2.422   1.269 -0.0151  0.0898 -0.1688
 9812PP      PP19916  12.401   2.633  11.587  0.2102 -0.2156 -0.2327
 9813PP      PP19917   1.432  12.282  10.932  0.2126  0.0536  0.0781
 9814PP      PP19918  11.444   2.531   0.294 -0.2003  0.2104  0.3133
 9815PP      PP19919  13.496  11.488   4.382  0.0739  0.1544 -0.2479
 9816PP      PP19920  14.713   0.296  10.992 -0.1326 -0.1938  0.1880
 9817PP      PP19921   8.522   4.925   9.839 -0.0543 -0.1897 -0.1265
 9818PP      PP19922  11.282   3.081   9.529  0.2894 -0.0929  0.1520
 9819PP      PP19923   8.368   2.059   0.022 -0.1302  0.4022 -0.0644
 9820PP      PP19924   8.528  10.978   1.564  0.2626  0.0912  0.2864
 9821PP      PP19925   8.214   9.251   3.015  0.2560  0.0216  0.1600
 9822PP      PP19926  13.014   5.219   1.648  0.1728 -0.1460 -0.0824
 9823PP      PP19927   3.497   1.158   8.339  0.0430 -0.1980  0.1790
 9824PP      PP19928   5.742   9.305   1.283  0.2302  0.0714  0.1128
 9825PP      PP19929   4.763  10.097   4.617  0.0213  0.0293 -0.2328
 9826PP      PP19930  11.941   3.269  12.148  0.1578  0.2230 -0.2757
 9827PP      PP19931   2.853   6.506   3.835 -0.3515 -0.0031 -0.1003
 9828PP      PP19932   8.746   1.966  10.393 -0.2710 -0.2877 -0.2351
 9829PP      PP19933  15.302   8.128   0.198 -0.0135  0.2617  0.0706
 9830PP      PP19934   5.804   6.366   1.822 -0.1461 -0.1939  0.0380
 9831PP      PP19935  10.494   7.931  12.854  0.1158  0.1322  0.1059
 9832PP      PP19936   6.344  11.467   4.133  0.1418 -0.0065 -0.0621
 9833PP      PP19937  10.874   5.787  12.820 -0.3787  0.0259 -0.1597
 9834PP      PP19938   8.170  12.288  10.276  0.0053 -0.2960 -0.3749
 9835PP      PP19939  13.126   1.794   0.139  0.1272  0.2148 -0.1364
 9836PP      PP19940   4.311  14.005   9.651  0.1638  0.2226  0.0731
 9837PP      PP19941   1.209   6.114   1.984  0.2334  0.2775 -0.0360
 9838PP      PP19942   6.992  13.878  12.696 -0.0960  0.2272 -0.0188
 9839PP      PP19943   5.374   5.470   8.138 -0.1600  0.2181  0.2208
 9840PP      PP19944  10.684   3.862   3.738  0.3665 -0.0386 -0.2444
 9841PP      PP19945  12.759   8.098   0.596 -0.0233  0.1385 -0.1342
 9842PP      PP19946   4.326  12.537   2.387 -0.0194  0.1123 -0.1265
 9843PP      PP19947  15.365   4.201   0.752  0.1731  0.0883  0.1363
 9844PP      PP19948   8.560   4.568  10.553 -0.2246 -0.1735  0.0654
 9845PP      PP19949   0.770   0.202   1.747  0.1163  0.0543 -0.0307
 9846PP      PP19950  11.923   3.972   3.478  0.1727  0.0449  0.0354
 9847PP      PP19951   3.370  12.061   3.342  0.0296 -0.0312 -0.0908
 9848PP      PP19952   2.023   0.734  12.131  0.1075  0.0795  0.1363
 9849PP      PP19953   3.675  10.908  13.129 -0.0402  0.1116  0.1206
 9850PP      PP19954   3.822   9.118   1.551 -0.0438  0.3180  0.1595
 9851PP      PP19955   5.882  13.921  10.854  0.1136 -0.0577  0.0257
 9852PP      PP19956  15.651  12.275  10.211 -0.1098 -0.1946 -0.0866
 9853PP      PP19957  12.934   2.364   2.015  0.4340 -0.0304  0.3460
 9854PP      PP19958  10.283   9.666  12.879 -0.0117 -0.1455  0.3935
 9855PP      PP19959  11.476  14.090   0.371  0.0851  0.1779  0.2725
 9856PP      PP19960   1.774  11.000  11.533  0.0304  0.0491 -0.1956
 9857PP      PP19961  13.758  13.993  11.634 -0.1748 -0.0879  0.0616
 9858PP      PP19962   9.242   1.639   9.185 -0.3122 -0.0749  0.3116
 9859PP      PP19963   9.243  14.553  13.398  0.3003  0.1963 -0.0742
 9860PP      PP19964   3.821  14.263   9.447  0.0472 -0.2186 -0.0153
 9861PP      PP19965   9.182   2.988  10.356  0.1935  0.1287 -0.1075
 9862PP      PP19966   3.701   9.647  13.191 -0.1040  0.1349  0.0750
 9863PP      PP19967   6.947  11.913   2.667 -0.1191 -0.1043 -0.1653
 9864PP      PP19968  14.689   6.412   0.095  0.3336  0.1530  0.1995
 9865PP      PP19969   0.293   0.280  12.251 -0.0095  0.1149 -0.0530
 9866PP      PP19970   3.331   6.403   1.820 -0.3387 -0.0742  0.0098
 9867PP      PP19971  14.894   4.865  12.734  0.2765 -0.0110  0.4538
 9868PP      PP19972   0.390  14.628  12.557 -0.0259  0.2645 -0.1884
 9869PP      PP19973   6.419   1.766   8.373 -0.1589 -0.3708 -0.1650
 9870PP      PP19974   3.834   3.606  13.335  0.0697 -0.0989  0.0965
 9871PP      PP19975  11.378   2.879   1.683 -0.3447 -0.1260  0.1671
 9872PP      PP19976   9.186  11.697   1.528  0.2508 -0.2391 -0.0377
 9873PP      PP19977  15.125   4.564  12.296  0.3200  0.1752  0.0156
 9874PP      PP19978   5.116   5.052  11.273  0.0365  0.1776 -0.1953
 9875PP      PP19979   4.070   2.216   9.256 -0.1188 -0.3820  0.1576
 9876PP      PP19980  14.588   5.971   1.524 -0.0948 -0.1874 -0.1007
 9877PP      PP19981   3.994  14.724   2.161  0.0263 -0.0174 -0.1445
 9878PP      PP19982  12.405   1.855  12.333  0.2546  0.1201  0.1707
 9879PP      PP19983   5.881  14.105   1.423  0.4223  0.0343 -0.0991
 9880PP      PP19984   0.495  14.766   0.917  0.1512 -0.0481  0.2081
 9881PP      PP19985   5.880   8.486  11.878  0.1916  0.0270 -0.0595
 9882PP      PP19986   2.981  12.671   2.578 -0.1805  0.1354 -0.1342
 9883PP      PP19987   1.389   3.823   2.290 -0.0849  0.0677  0.1405
 9884PP      PP19988   4.846   7.266  11.221  0.0475  0.1582  0.1850
 9885PP      PP19989   4.678   1.758  10.360 -0.2017  0.1935  0.0126
 9886PP      PP19990   0.684   3.373  12.530  0.0232 -0.1727 -0.1529
 9887PP      PP19991  14.630  12.626   1.493  0.0856 -0.1314  0.0977
 9888PP      PP19992   7.501  13.512  11.691  0.0974 -0.1301  0.2945
 9889PP      PP19993   8.933   6.879   9.250 -0.0524 -0.3233  0.0693
 9890PP      PP19994   8.782  11.698   9.690  0.1975  0.0359  0.2050
 9891PP      PP19995   4.967   5.145   8.064 -0.0375  0.1312  0.3994
 9892PP      PP19996  11.149  10.743  13.469 -0.0941  0.0096 -0.1604
 9893PP      PP19997  14.096  13.533   8.915  0.0069  0.1175  0.0168
 9894PP      PP19998  12.255   1.998  13.450 -0.1437  0.3293  0.0233
 9895PP      PP19999   9.740   2.976   0.734 -0.0907 -0.2384  0.0269
 9896PP      PP20000   1.350   8.364   1.647 -0.0673 -0.2014 -0.0996
 9897PP      PP20001   4.764   8.745  10.211 -0.2789  0.2788  0.2173
 9898PP      PP20002   2.776   0.756   3.364 -0.1947 -0.1426  0.0745
 9899PP      PP20003   2.542   0.360   8.597 -0.2006 -0.0848  0.1088
 9900PP      PP20004  10.977   8.147   4.935 -0.0150  0.0971  0.0308
 9901PP      PP20005   4.733   8.038   9.395 -0.0419  0.0002 -0.4804
 9902PP      PP20006  14.110   5.272   1.353 -0.0274 -0.0749  0.0568
 9903PP      PP20007   4.305  13.895   2.179  0.4027 -0.1285  0.0454
 9904PP      PP20008  14.613   3.959   3.013 -0.1947 -0.0390  0.1642
 9905PP      PP20009   0.577  13.845   1.418 -0.1424 -0.1081  0.3925
 9906PP      PP20010   2.669   3.757   9.901  0.1416 -0.0673 -0.1652
 9907PP      PP20011  14.313   6.358   4.349 -0.0211  0.0944 -0.0630
 9908PP      PP20012   3.536   3.238   0.793  0.0991 -0.0508 -0.3378
 9909PP      PP20013   2.228  15.675  12.525 -0.1099 -0.1458  0.0176
 9910PP      PP20014   7.724   9.985  10.376  0.0180 -0.2027 -0.3693
 9911PP      PP20015   1.447   0.195   8.388  0.0265  0.0476  0.0346
 9912PP      PP20016  15.481   8.748   0.659  0.2209 -0.2121  0.2354
 9913PP      PP20017   0.464  13.292  11.764 -0.2244 -0.1813  0.2859
 9914PP      PP20018   0.980  10.359   3.481 -0.3124 -0.0287  0.0168
 9915PP      PP20019   5.022  12.748   1.419 -0.1572  0.0080 -0.0778
 9916PP      PP20020   0.808   6.205   1.597  0.3027  0.0442 -0.2348
 9917PP      PP20021  15.467   6.645   4.062 -0.3430  0.0149 -0.1003
 9918PP      PP20022   5.165   4.748   8.363 -0.2450  0.0113 -0.2892
 9919PP      PP20023   5.096   6.724  10.406  0.1391 -0.1548  0.1811
 9920PP      PP20024   5.436   5.689  13.393  0.3534 -0.3115  0.4254
 9921PP      PP20025   2.717  13.548   1.679 -0.1734 -0.0731 -0.1120
 9922PP      PP20026  12.614  11.767  10.948 -0.0186 -0.2659  0.1533
 9923PP      PP20027  14.639  11.430   2.532  0.0755  0.0481  0.0997
 9924PP      PP20028   4.206   7.185   8.595  0.0265  0.2243  0.1231
 9925PP      PP20029   9.148   5.925   1.696  0.3180  0.0302  0.1547
 9926PP      PP20030   1.083  11.140   3.637 -0.2354  0.3809 -0.2082
 9927PP      PP20031   1.949  10.390  11.002  0.3267 -0.0998  0.5327
 9928PP      PP20032  11.884   4.302   4.302 -0.0682 -0.0597  0.2580
 9929PP      PP20033  12.143  10.931   4.001  0.0272  0.0536 -0.2185
 9930PP      PP20034   7.765   1.859   1.222 -0.3213  0.4096  0.0768
 9931PP      PP20035  13.059   8.413  10.114 -0.2039 -0.0241  0.0848
 9932PP      PP20036   4.404   3.982  11.384  0.1375  0.3342 -0.4075
 9933PP      PP20037   6.473   2.240  11.867  0.3356 -0.2279 -0.0858
 9934PP      PP20038   9.163  11.475   4.535 -0.1482 -0.0344 -0.0698
 9935PP      PP20039   3.381  14.715  10.787  0.1667  0.1045 -0.0396
 9936PP      PP20040  12.524  14.442   1.526  0.1363  0.0145  0.1822
 9937PP      PP20041   4.385   0.593  13.345  0.0587 -0.0144 -0.2168
 9938PP      PP20042  14.221  13.511  11.417  0.0285  0.0185 -0.0671
 9939PP      PP20043  10.733  10.639  13.111 -0.0870  0.0451  0.0511
 9940PP      PP20044  11.893  12.880   3.537 -0.2819  0.0242 -0.0271
 9941PP      PP20045  13.439   0.153  12.427 -0.2525 -0.1569  0.2397
 9942PP      PP20046   1.799   3.329  10.083  0.2876  0.0102  0.0340
 9943PP      PP20047   0.367  10.993   0.992 -0.1110 -0.2336  0.0221
 9944PP      PP20048   3.417   2.764   0.565 -0.2070 -0.1395  0.0392
 9945PP      PP20049   8.309   2.111  12.218 -0.3480 -0.0975 -0.0628
 9946PP      PP20050   9.394   7.905   2.818  0.3078 -0.3509 -0.1534
 9947PP      PP20051   0.895   6.444   9.678 -0.4406 -0.1128  0.2425
 9948PP      PP20052  13.741  14.800   4.932  0.1909  0.0413 -0.4340
 9949PP      PP20053   1.223   9.796  11.649 -0.1994  0.2028  0.1889
 9950PP      PP20054   6.079   4.514  10.193  0.2613 -0.2857  0.1246
 9951PP      PP20055   4.286  12.848  11.143  0.0712  0.2138 -0.1367
 9952PP      PP20056   5.736   8.009  10.861 -0.1287 -0.2409  0.2147
 9953PP      PP20057   9.624   3.740   2.821 -0.0729 -0.2320  0.3262
 9954PP      PP20058   8.498   8.440   1.534  0.1905  0.3020 -0.2656
 9955PP      PP20059   3.856  12.434   2.466 -0.3093  0.2919 -0.3909
 9956PP      PP20060   9.881  10.142   5.548  0.1788  0.3529  0.0465
 9957PP      PP20061  14.664  10.191  13.228  0.2091 -0.2765  0.3712
 9958PP      PP20062   5.980   1.902   7.873 -0.0264  0.0909  0.3638
 9959PP      PP20063   9.402  10.893   3.674 -0.2676  0.0947 -0.2472
 9960PP      PP20064  13.793   1.503   2.628  0.0369  0.1542 -0.2158
 9961PP      PP20065   8.743   2.752   0.720  0.1507  0.2648  0.1388
 9962PP      PP20066   0.367   2.515   1.189 -0.5504 -0.2474 -0.1844
 9963PP      PP20067   9.158   4.821   0.099 -0.1244  0.1015 -0.1816
 9964PP      PP20068  14.915  11.852   3.871 -0.2077  0.3072  0.3475
 9965PP      PP20069   5.403   1.825   3.147  0.1789  0.0646  0.2342
 9966PP      PP20070   2.760  10.272  12.201 -0.2617 -0.2098 -0.0023
 9967PP      PP20071  12.226  14.242  13.509  0.0211 -0.0791 -0.1647
 9968PP      PP20072   4.567  12.563   1.960 -0.0580 -0.1588 -0.3556
 9969PP      PP20073  13.689   3.825  12.761 -0.0051  0.2862 -0.0489
 9970PP      PP20074   8.563  14.210  12.164 -0.1214  0.1096 -0.0003
 9971PP      PP20075   2.860  13.482   4.169 -0.1326 -0.1425 -0.0702
 9972PP      PP20076   3.231   6.874  10.789 -0.0527 -0.1929 -0.1613
 9973PP      PP20077  13.310  10.432   1.742 -0.1189  0.0771  0.1062
 9974PP      PP20078  11.329  11.227   3.909 -0.2428 -0.0250 -0.3356
 9975PP      PP20079  12.154   7.560   1.224  0.2172 -0.0768  0.1468
 9976PP      PP20080  14.930   5.529   1.780  0.3378  0.2043  0.0004
 9977PP      PP20081   7.929  14.984  12.209 -0.1700 -0.1155  0.3306
 9978PP      PP20082   7.506   0.592   2.579 -0.0207  0.2384  0.1748
 9979PP      PP20083   2.361   1.692   8.495  0.0678 -0.0478  0.2194
 9980PP      PP20084   1.382  12.727   3.571 -0.2584  0.0771 -0.0337
 9981PP      PP20085   7.268   3.699  13.537  0.1128 -0.2839  0.2511
 9982PP      PP20086  15.226  14.401   4.262 -0.2361 -0.1492  0.1566
 9983PP      PP20087  10.638  12.807  11.155  0.2091  0.3266 -0.0644
 9984PP      PP20088   7.985  13.145  13.055 -0.4150  0.1187  0.0585
 9985PP      PP20089   8.070   6.273   3.419 -0.1196  0.0395  0.1620
 9986PP      PP20090   3.156  14.146  11.988  0.1002  0.0587  0.0214
 9987PP      PP20091   5.502   4.471  13.126 -0.3685  0.0630 -0.3559
 9988PP      PP20092  14.847   3.555  13.270 -0.0853  0.0984  0.0012
 9989PP      PP20093  10.180  10.843  11.626  0.0995  0.2055 -0.0532
 9990PP      PP20094  13.252  12.996   3.022 -0.1664 -0.2019  0.1124
 9991PP      PP20095   3.589   0.146   2.842  0.1026 -0.3087  0.1489
 9992PP      PP20096  12.088   5.999  10.599  0.2326 -0.3608 -0.1901
 9993PP      PP20097  10.623   6.622   0.004 -0.2181  0.0786 -0.3704
 9994PP      PP20098  15.379  10.889  13.234  0.3215 -0.0166 -0.1861
 9995PP      PP20099   9.722  14.678   0.851  0.0510  0.0408 -0.1185
 9996PP      PP20100   8.323   7.039  10.587 -0.3338 -0.2606  0.1120
 9997PP      PP20101   2.310  12.016   9.204 -0.2160 -0.3091 -0.0274
 9998PP      PP20102  13.253   0.311   9.268  0.3150 -0.0535 -0.0487
 9999PP      PP20103   2.420   0.010   0.150  0.1718 -0.0306 -0.1829
10000PP      PP20104   2.827   5.543   1.685 -0.0122 -0.0521  0.1838
10001PP      PP20105   2.232  12.171  11.696  0.3838  0.3126 -0.1381
10002PP      PP20106   0.649  15.301   9.843 -0.1322 -0.4123  0.3255
10003PP      PP20107   8.227  14.954   9.273  0.0112 -0.0945 -0.3176
10004PP      PP20108  10.409   1.931   0.405 -0.1281 -0.1813 -0.2821
10005PP      PP20109   7.545   2.604   7.727 -0.2800 -0.0895 -0.1475
10006PP      PP20110   4.234  13.890   8.759 -0.2232 -0.0034 -0.0475
10007PP      PP20111   5.773  14.573  10.279  0.2020 -0.1677 -0.0806
10008PP      PP20112   9.020  11.022   4.419 -0.2130 -0.1067  0.2405
10009PP      PP20113   9.126  11.657  13.732  0.4136 -0.0644 -0.1029
10010PP      PP20114   5.179  11.654  13.084 -0.0030  0.2831 -0.1363
10011PP      PP20115   4.763   5.105  11.735  0.0021  0.0152 -0.0236
10012PP      PP20116  13.096   8.549   4.513  0.1071 -0.1072  0.2467
10013PP      PP20117   2.794  15.562  11.790 -0.2664 -0.2002 -0.2022
10014PP      PP20118  12.696   4.067   0.788 -0.0546 -0.0795  0.0343
10015PP      PP20119   8.403  10.473  13.561  0.2984  0.0238  0.0550
10016PP      PP20120  10.534   6.534  11.237 -0.0300 -0.2837 -0.0155
10017PP      PP20121   5.960   1.784   2.726 -0.0481 -0.1137  0.1390
10018PP      PP20122   0.567   2.436  11.864 -0.1492 -0.0729 -0.1289
10019PP      PP20123   7.381   8.595  13.388  0.2600 -0.3303 -0.4914
10020PP      PP20124  11.602  15.416  10.656 -0.0410  0.2007 -0.3016
10021PP      PP20125   1.098   5.730  13.178  0.1013 -0.0303 -0.0971
10022PP      PP20126   9.273  13.663  11.794  0.1422 -0.1623 -0.0281
10023PP      PP20127   1.933   6.215   3.257 -0.0914  0.3661  0.0650
10024PP      PP20128  11.545   1.735  11.188 -0.1858  0.1362  0.1504
10025PP      PP20129   1.114   6.881   0.482 -0.3486 -0.1277  0.1852
10026PP      PP20130   0.928   0.609   0.901  0.1120 -0.3643 -0.0714
10027PP      PP20131  13.189  14.453   2.254  0.3155 -0.1420 -0.2088
10028PP      PP20132   3.574   5.145   8.244 -0.1336  0.0975  0.0809
10029PP      PP20133   6.561   9.777   2.637 -0.2132 -0.0932  0.2323
10030PP      PP20134  14.017   4.470   1.134  0.0756 -0.1250 -0.0190
10031PP      PP20135  10.015  12.906  11.963  0.2489  0.0356 -0.1002
10032PP      PP20136   7.535   0.542  13.281 -0.1793 -0.0263 -0.2675
10033PP      PP20137   8.700   1.827  12.363 -0.2087 -0.1684 -0.1407
10034PP      PP20138   3.044  10.258   0.780  0.1728 -0.1488  0.0276
10035PP      PP20139   8.383   5.923   8.416 -0.0938 -0.1358  0.0734
10036PP      PP20140   8.846   5.261   2.791  0.0963 -0.1981  0.0930
10037PP      PP20141   9.554  11.977   5.776 -0.0724 -0.1907  0.2004
10038PP      PP20142   9.942   2.382  12.151  0.0175 -0.1637 -0.1961
10039PP      PP20143  14.394   4.846  12.657  0.2283  0.0461  0.1570
10040PP      PP20144   3.904   7.976   8.393  0.2908  0.0176 -0.2851
10041PP      PP20145   1.013   6.826  11.261 -0.0066  0.1190 -0.1126
10042PP      PP20146   4.908   2.595  10.215 -0.1654  0.1141 -0.2068
10043PP      PP20147   2.491   0.778   0.972  0.3925 -0.2240  0.0129
10044PP      PP20148  12.197  15.381   0.700  0.1308 -0.0248 -0.1718
10045PP      PP20149   6.152  10.437   3.039 -0.1078  0.0822 -0.0829
10046PP      PP20150   8.664  14.619   0.097  0.0034 -0.1215 -0.1093
10047PP      PP20151  10.012   2.641   2.663 -0.0469 -0.1096 -0.2031
10048PP      PP20152  13.936   2.887   9.866 -0.2903  0.2171  0.1609
10049PP      PP20153  10.499   8.777  11.005  0.1035  0.4291 -0.1016
10050PP      PP20154   5.157   9.797   0.515 -0.1664  0.0711  0.0340
10051PP      PP20155   3.565  13.894   9.163 -0.1641  0.2307 -0.3938
10052PP      PP20156   2.545  12.272   1.956 -0.2602  0.2654 -0.2011
10053PP      PP20157  13.605  11.313  11.117 -0.2748  0.0547  0.0102
10054PP      PP20158  14.312   5.773  11.067  0.0083 -0.1212  0.2639
10055PP      PP20159  11.639   1.932   2.904  0.1578  0.0384  0.2396
10056PP      PP20160   4.508  15.319   9.838 -0.1186 -0.0340 -0.1527
10057PP      PP20161  13.580  12.538   4.276 -0.1203 -0.0047  0.1198
10058PP      PP20162  11.457  11.106   4.861  0.0281 -0.4090  0.3241
10059PP      PP20163   0.617   1.934   4.452 -0.0971 -0.2575  0.3258
10060PP      PP20164   5.789   8.595   8.344  0.1229 -0.1031 -0.1834
10061PP      PP20165   1.648   4.745  13.507  0.1306 -0.1829  0.1301
10062PP      PP20166   1.661   7.190   4.338 -0.1024  0.0210 -0.0890
10063PP      PP20167  11.723   6.481  13.728 -0.4039  0.2558  0.1456
10064PP      PP20168   3.527  10.112   4.119 -0.1595 -0.2217  0.1063
10065PP      PP20169   2.945  14.460   2.930 -0.2813 -0.1231 -0.0725
10066PP      PP20170  10.849  12.171   1.772 -0.2148 -0.0633 -0.2178
10067PP      PP20171   1.725  14.832   2.576 -0.1558 -0.1927  0.3427
10068PP      PP20172  11.600   6.528   0.959 -0.0199  0.0607  0.0715
10069PP      PP20173  14.079   0.933   4.785 -0.0050  0.0191 -0.2419
10070PP      PP20174  13.178  14.999   2.752 -0.1593  0.1001  0.0738
10071PP      PP20175  10.423   1.452  13.130 -0.0293  0.0898  0.0928
10072PP      PP20176   2.908  15.317   9.997  0.1882 -0.0473  0.0845
10073PP      PP20177   2.707   9.110   4.106 -0.0809  0.0966  0.0262
10074PP      PP20178  10.977  13.727   3.560 -0.3399  0.1026  0.1987
10075PP      PP20179   0.944  15.476  13.711  0.0956  0.1457 -0.1615
10076PP      PP20180   5.166  12.797   0.862 -0.0902 -0.1655 -0.0209
10077PP      PP20181   9.712   7.011   2.672  0.1711 -0.2553  0.1705
10078PP      PP20182   4.901   7.889   0.882  0.1281 -0.2302  0.0342
10079PP      PP20183  14.892   4.423   4.208 -0.0241  0.0267 -0.1487
10080PP      PP20184  11.948   2.704   1.643 -0.1183  0.3847  0.0336
10081PP      PP20185  12.225   9.573   9.993 -0.1211  0.0355 -0.2866
10082PP      PP20186   6.814   1.324  12.891 -0.1079 -0.2004  0.0855
10083PP      PP20187   4.767  12.526   1.063 -0.3417  0.1468  0.2172
10084PP      PP20188  15.658   8.631   1.082  0.2564  0.1035  0.0764
10085PP      PP20189   2.776  14.965   3.558 -0.1528  0.2557  0.2784
10086PP      PP20190  12.043  10.578   2.625 -0.1567  0.1373  0.1281
10087PP      PP20191   0.774  13.356   1.437  0.0393 -0.0198 -0.1488
10088PP      PP20192   3.288  13.645  11.713  0.1604 -0.0133  0.0651
10089PP      PP20193  12.488   4.717  10.388  0.0337 -0.1883  0.1345
10090PP      PP20194   0.218   1.237  13.648 -0.1994  0.0241  0.1867
10091PP      PP20195   9.369  10.609  13.034  0.1415 -0.3127 -0.0310
10092PP      PP20196   5.414  11.174   0.182 -0.1439  0.1151 -0.0521
10093PP      PP20197  14.813  14.708   1.379 -0.0833 -0.1739  0.0723
10094PP      PP20198   3.368   6.343   2.612 -0.2626  0.1516 -0.1358
10095PP      PP20199   7.859   8.213   0.349  0.0852 -0.1881 -0.0093
10096PP      PP20200   9.707   4.151  12.956 -0.0991  0.2147 -0.1657
10097PP      PP20201  13.480   2.029   8.799  0.6028 -0.2293  0.0684
10098PP      PP20202   9.058   2.317   0.881 -0.0185  0.0319  0.1128
10099PP      PP20203  13.823  13.918   1.072 -0.1680  0.0852 -0.0397
10100PP      PP20204   5.277  13.097   9.715 -0.1013 -0.2756  0.3377
10101PP      PP20205   8.049   8.359   9.366  0.1518 -0.1045  0.2791
10102PP      PP20206   7.726   1.730  10.109  0.0326 -0.0807 -0.2919
10103PP      PP20207   5.515   8.624   2.854 -0.2169 -0.1306  0.3783
10104PP      PP20208   9.768   8.853   0.860  0.2000 -0.2102 -0.0629
10105PP      PP20209   2.596   3.465   0.321  0.2982 -0.0393  0.1178
10106PP      PP20210  14.503  15.106   8.684  0.0021  0.0425  0.1324
10107PP      PP20211   4.443   0.576  12.459  0.0959 -0.3464  0.1174
10108PP      PP20212   3.513   6.271   9.937  0.1353 -0.3161 -0.0681
10109PP      PP20213  13.618  15.125   8.948  0.1013 -0.2305  0.1963
10110PP      PP20214   9.835   1.131   9.516  0.0070  0.1804 -0.1510
10111PP      PP20215   1.307   2.473   9.475  0.0094 -0.1461  0.0036
10112PP      PP20216  13.778  14.025  13.544  0.1706 -0.1328  0.0236
10113PP      PP20217   0.700   5.482  13.096  0.0419  0.0302 -0.0174
10114PP      PP20218  10.470   6.732  11.746 -0.0046  0.1324  0.0989
10115PP      PP20219  11.644   6.232  10.956 -0.0230 -0.0462 -0.2058
10116PP      PP20220   2.103   5.825   9.116  0.0464 -0.1605 -0.3836
10117PP      PP20221   5.154   3.558  13.045  0.0286  0.0516 -0.2060
10118PP      PP20222   8.674  10.636   9.412  0.2913 -0.2364 -0.0235
10119PP      PP20223   3.484   5.327   0.181  0.3449 -0.2202 -0.1153
10120PP      PP20224  13.274  11.216   0.653 -0.0399 -0.0246 -0.0083
10121PP      PP20225  15.579   6.277  12.292  0.0787  0.2611  0.1627
10122PP      PP20226   3.241  11.668   4.203  0.0509  0.1139 -0.2032
10123PP      PP20227   5.277   4.251   8.587  0.1278  0.0937  0.1059
10124PP      PP20228  11.996  13.460   4.154 -0.0417  0.0828 -0.2089
10125PP      PP20229   5.298   9.290  12.082 -0.2576 -0.0069 -0.0429
10126PP      PP20230   7.724   5.913  11.284  0.1310 -0.1055 -0.0770
10127PP      PP20231   1.230  10.648   1.479 -0.1877  0.4474  0.1658
10128PP      PP20232   1.793  13.328  13.299 -0.2896  0.2131  0.0287
10129PP      PP20233  10.810  13.442  12.164 -0.0575  0.0120  0.2970
10130PP      PP20234   4.810  11.950   9.305  0.2986  0.1048  0.2226
10131PP      PP20235   9.192   4.470  10.292 -0.2630  0.1787  0.2241
10132PP      PP20236   4.037  11.843   0.408 -0.4598  0.0053  0.1052
10133PP      PP20237  12.004  13.277  12.494  0.2059 -0.2705  0.1737
10134PP      PP20238   6.409   6.406   2.725  0.0646 -0.1720 -0.1662
10135PP      PP20239  13.968   1.800   3.036 -0.3162  0.1579 -0.0004
10136PP      PP20240   0.064  11.813   2.471  0.3727  0.0449 -0.0916
10137PP      PP20241   4.996   8.229   4.742  0.0222  0.0442  0.2192
10138PP      PP20242   0.296   2.873  11.825 -0.3593  0.0316 -0.0585
10139PP      PP20243   2.870   1.580   0.138 -0.2024  0.0789  0.0138
10140PP      PP20244   0.847   0.921  10.018  0.0089  0.0123 -0.1291
10141PP      PP20245  14.118   7.165   4.441  0.1237  0.1036  0.0077
10142PP      PP20246  13.364   2.325   3.865  0.1251  0.2145 -0.0804
10143PP      PP20247   8.000  10.041   3.447 -0.0567 -0.1852  0.0845
10144PP      PP20248  14.281  14.299   0.617  0.1055  0.1868 -0.3913
10145PP      PP20249   4.615  12.368  10.831  0.0017  0.0874 -0.2566
10146PP      PP20250  11.023  13.165  12.991  0.2398 -0.2048 -0.0283
10147PP      PP20251   9.302   4.112  13.202 -0.1905  0.0021 -0.0487
10148PP      PP20252   4.246   1.733   1.946 -0.2052 -0.1334 -0.1217
10149PP      PP20253   1.257   4.660  11.103 -0.1526 -0.0042  0.0059
10150PP      PP20254  12.201  11.675   0.461  0.2185 -0.2322 -0.4403
10151PP      PP20255  13.818   1.476  12.839 -0.1292 -0.0625  0.0958
10152PP      PP20256   2.656  10.789   9.945 -0.0801  0.0413 -0.1693
10153PP      PP20257  14.611   5.308   0.782  0.2310 -0.0397  0.0947
10154PP      PP20258   8.076   6.545   9.685  0.0296 -0.1300  0.0863
10155PP      PP20259   4.002   6.244   0.942  0.0793  0.1467  0.4954
10156PP      PP20260  11.021  11.253   2.153 -0.1113  0.0792 -0.2091
10157PP      PP20261   8.757   4.969   8.118  0.0264  0.2670  0.0783
10158PP      PP20262   1.083   8.435   8.659  0.0687 -0.0450 -0.1666
10159PP      PP20263   8.493   9.446   0.117  0.1401  0.1294 -0.1337
10160PP      PP20264   6.857   5.828  12.509 -0.2403  0.1273  0.0986
10161PP      PP20265   2.391   0.892   2.981 -0.0634 -0.1582 -0.2654
10162PP      PP20266  11.546   4.834  10.843  0.3664 -0.1133  0.0460
10163PP      PP20267  14.913  11.642   9.666 -0.2900  0.1288  0.1028
10164PP      PP20268  12.088  14.822   4.539 -0.1915 -0.2098 -0.0444
10165PP      PP20269  10.544   1.304   1.984 -0.1420  0.0244  0.0678
10166PP      PP20270  11.430  12.079   3.051  0.0421  0.2885 -0.0111
10167PP      PP20271   0.505  15.606   4.741 -0.1653  0.0224 -0.0290
10168PP      PP20272  14.006  13.970  13.101 -0.0400  0.2077 -0.0483
10169PP      PP20273  11.758   3.168   1.808 -0.0690  0.0852  0.0618
10170PP      PP20274  14.936   9.027  10.881 -0.2745  0.1534 -0.1067
10171PP      PP20275  13.633  10.574   3.919  0.1054  0.0484 -0.1372
10172PP      PP20276  11.564  13.822   3.477 -0.1205  0.1826 -0.3050
10173PP      PP20277   8.947   9.746   0.176 -0.0109  0.2151  0.0331
10174PP      PP20278  14.601   5.597  13.148 -0.1738 -0.0793  0.2731
10175PP      PP20279   0.289   5.627   4.278  0.0560  0.1426 -0.0091
10176PP      PP20280  14.995  13.358   2.309 -0.0580 -0.0888  0.0601
10177PP      PP20281   2.732   7.493   1.605 -0.1753 -0.1169  0.0445
10178PP      PP20282   6.190  12.593  11.837 -0.0329  0.0615 -0.3878
10179PP      PP20283  13.012  10.224  12.711 -0.3729 -0.0672 -0.1119
10180PP      PP20284   6.003  15.086   9.515 -0.0461  0.0246  0.0379
10181PP      PP20285  13.267  10.671   0.278  0.1957  0.1333 -0.1391
10182PP      PP20286   3.233   1.476   1.273 -0.0687  0.4179 -0.1668
10183PP      PP20287   2.488   5.383   1.359  0.0272 -0.2392 -0.0978
10184PP      PP20288   1.601  13.820   2.370  0.1455  0.1139  0.0765
10185PP      PP20289  14.094   2.810   0.994  0.1189 -0.0099 -0.2585
10186PP      PP20290  14.326   1.177   1.175 -0.1019 -0.2726  0.0032
10187PP      PP20291   5.637  13.146  11.216 -0.0653 -0.1072  0.0660
10188PP      PP20292   7.474  12.504  10.294  0.0738  0.4250 -0.1202
10189PP      PP20293   6.294  10.429  13.529 -0.1524  0.1311  0.0431
10190PP      PP20294  12.706   6.778  13.066 -0.1544  0.1870 -0.2536
10191PP      PP20295   5.650  11.952   1.192  0.0831 -0.1948  0.3373
10192PP      PP20296   5.851  11.837  10.241  0.0547 -0.0463  0.1115
10193PP      PP20297   2.734   8.150  13.398  0.1565 -0.2273 -0.0376
10194PP      PP20298  14.098  14.645   3.253 -0.0198  0.0546  0.1187
10195PP      PP20299   3.523  10.352  10.045 -0.0194 -0.2571  0.0256
10196PP      PP20300  13.000   9.394  12.201  0.0249  0.3077  0.0645
10197PP      PP20301   4.919   7.729   3.161  0.0379 -0.2385 -0.1485
10198PP      PP20302   1.087  12.501   9.498  0.1747 -0.0678  0.2284
10199PP      PP20303   5.362   5.376   0.041 -0.2786 -0.0406  0.1770
10200PP      PP20304   8.707   7.295  10.167 -0.0676  0.1456  0.0257
10201PP      PP20305   3.751   0.073   8.547 -0.2789 -0.2946  0.3386
10202PP      PP20306   4.942   9.488   0.141 -0.0502  0.1294  0.1785
10203PP      PP20307   3.233  11.822  12.369 -0.1838  0.2641  0.0870
10204PP      PP20308  10.748  10.382   4.895 -0.0832 -0.0739  0.2221
10205PP      PP20309  12.133   0.962   0.880  0.2272  0.1038  0.2699
10206PP      PP20310   0.617   2.201   2.913  0.2126  0.1049 -0.3084
10207PP      PP20311   1.062   9.493  11.244  0.0977  0.0071  0.0440
10208PP      PP20312   4.652   2.129   9.313 -0.1394 -0.1856  0.2378
10209PP      PP20313  11.606   0.604  11.791 -0.0717 -0.0127 -0.0047
10210PP      PP20314   0.932   6.487  10.822 -0.1298  0.0993 -0.2267
10211PP      PP20315  14.019   1.613  13.412 -0.0550 -0.2152 -0.3302
10212PP      PP20316   1.008  13.871   1.954  0.0019  0.2442 -0.2855
10213PP      PP20317  14.224   2.081  12.210  0.2160 -0.0522 -0.0546
10214PP      PP20318   8.465  10.435   0.997 -0.0946 -0.1008  0.1573
10215PP      PP20319  10.910   9.492   0.939 -0.3498 -0.0921  0.0191
10216PP      PP20320   5.284   4.964  10.836 -0.4010 -0.0981  0.3467
10217PP      PP20321  14.134   8.779   3.533  0.0961 -0.2358 -0.1119
10218PP      PP20322   4.565   5.759   2.850  0.4405 -0.0138  0.0530
10219PP      PP20323   9.684   1.982  11.190  0.0985 -0.0550 -0.3716
10220PP      PP20324  12.589   7.046   5.204 -0.1360  0.2684 -0.1264
10221PP      PP20325   9.867  14.413   2.933 -0.2623 -0.0838 -0.2751
10222PP      PP20326   3.459  14.860  13.026  0.0898 -0.0752  0.0390
10223PP      PP20327  11.193   5.737  12.431 -0.2065 -0.0160 -0.3777
10224PP      PP20328   9.617  12.900   4.427 -0.1370  0.0030  0.2284
10225PP      PP20329   9.161  13.582   2.014 -0.2335  0.0774 -0.0713
10226PP      PP20330   7.026   8.647  10.970  0.1127 -0.2966  0.0018
10227PP      PP20331   1.311  12.792  11.163  0.2313 -0.0407 -0.0843
10228PP      PP20332   0.494   1.306  10.301  0.0427 -0.0661 -0.1947
10229PP      PP20333   0.953  12.447   1.274 -0.1333  0.1908 -0.1153
10230PP      PP20334   9.014   4.080   8.330  0.1268 -0.1893 -0.0595
10231PP      PP20335   0.959   1.896  12.640 -0.1036 -0.3588 -0.0342
10232PP      PP20336  14.006  15.444   0.013  0.3208  0.1578 -0.1074
10233PP      PP20337  14.516  15.232   1.879 -0.1009 -0.0274  0.0949
10234PP      PP20338   9.444   9.218  10.126  0.3176 -0.0832  0.0698
10235PP      PP20339   6.675  15.657  12.485  0.1286 -0.0885  0.0822
10236PP      PP20340   9.380  11.946  11.430 -0.3216  0.1970  0.0384
10237PP      PP20341   2.122   9.544  11.199  0.0723  0.1930 -0.0670
10238PP      PP20342  12.501   4.988   2.281  0.2215 -0.1246 -0.2637
10239PP      PP20343   6.260   6.647   0.158 -0.0458 -0.1577 -0.0857
10240PP      PP20344   9.343  10.262   4.210  0.3055  0.2495 -0.1404
10241PP      PP20345   6.698   4.872   2.651 -0.4687 -0.0109 -0.2442
10242PP      PP20346   1.801  14.767   4.508  0.2388 -0.2016 -0.0428
10243PP      PP20347  15.402   9.864   2.960 -0.1873  0.2743  0.3129
10244PP      PP20348   8.454  15.313   9.050 -0.0781  0.1972  0.2009
10245PP      PP20349  15.167   8.906   3.469 -0.2805 -0.2580  0.0924
10246PP      PP20350  13.261   0.593   3.003 -0.1354  0.1923  0.2380
10247PP      PP20351   8.016   9.503  10.314 -0.0120 -0.1025  0.0399
10248PP      PP20352   5.371   1.813  11.909 -0.1534 -0.2314  0.1168
10249PP      PP20353   2.767  14.157   1.919 -0.1790 -0.1599  0.0430
10250PP      PP20354  10.360  10.133  10.489 -0.1265 -0.0248 -0.1906
10251PP      PP20355   1.256  15.721  10.390 -0.2397 -0.0119  0.4196
10252PP      PP20356  11.667   7.550   1.288 -0.1925  0.0332  0.1544
10253PP      PP20357   5.239   9.584   1.544  0.0251  0.0904 -0.0686
10254PP      PP20358   1.531   3.011   8.385 -0.0194 -0.3685 -0.1589
10255PP      PP20359   9.125  12.936  11.236  0.1229  0.3083  0.0964
10256PP      PP20360  10.301   3.110   8.614  0.1654  0.1852 -0.1242
10257PP      PP20361  15.245   8.932   9.957 -0.1028  0.0615  0.3285
10258PP      PP20362  12.793  13.580  10.866 -0.1520  0.1925 -0.0582
10259PP      PP20363   6.135  10.718  13.130 -0.0957 -0.0614  0.3861
10260PP      PP20364   0.108   7.550  10.414 -0.1650 -0.2396 -0.1011
10261PP      PP20365   3.748   0.378   2.003 -0.1240 -0.1550  0.1531
10262PP      PP20366  12.504   6.226  12.458  0.1538  0.4376  0.3797
10263PP      PP20367  15.445   9.196   1.541 -0.0699 -0.0989 -0.3277
10264PP      PP20368   2.021   8.250   1.525 -0.4940  0.3172 -0.3472
10265PP      PP20369   2.436   5.444  13.131 -0.0853  0.0166 -0.1001
10266PP      PP20370  12.446   0.030   3.644 -0.1504 -0.1687 -0.2852
10267PP      PP20371   1.671  12.755   2.369 -0.3702  0.3852 -0.1623
10268PP      PP20372   5.717   3.043   0.279 -0.2583 -0.0131 -0.1425
10269PP      PP20373  14.240  11.048   1.800 -0.2771 -0.1016  0.0687
10270PP      PP20374  11.798  10.128   2.942 -0.0573  0.1399 -0.1885
10271PP      PP20375   9.981   8.897  13.671  0.0061 -0.1776  0.0789
10272PP      PP20376  11.644  13.651  13.430  0.0945  0.3909 -0.0122
10273PP      PP20377  12.799  12.272   0.241  0.2489 -0.0648 -0.1834
10274PP      PP20378   6.764   6.042  11.477  0.1629  0.0143  0.0631
10275PP      PP20379  14.195  15.520   0.764  0.1057  0.0691  0.1296
10276PP      PP20380   7.220  15.454   1.532  0.0806  0.1202 -0.0393
10277PP      PP20381   1.921   3.403   1.167  0.0593  0.2884 -0.2840
10278PP      PP20382   7.613   8.848   1.455 -0.2015 -0.2725 -0.0952
10279PP      PP20383   0.866   3.237   3.859 -0.4737 -0.1785  0.1949
10280PP      PP20384   1.191   9.591   3.951  0.1718 -0.0123 -0.1887
10281PP      PP20385   1.126   9.270  12.450 -0.0897  0.1264  0.0709
10282PP      PP20386  13.903   0.343   4.218 -0.1978  0.1063  0.0626
10283PP      PP20387  14.908  11.623   1.975  0.0024  0.0339  0.1722
10284PP      PP20388   0.413  14.766   1.596 -0.0347  0.0134 -0.1147
10285PP      PP20389  11.200   3.690  12.347 -0.0975 -0.0365 -0.0128
10286PP      PP20390  12.645  11.920  10.477 -0.2961  0.1678 -0.1064
10287PP      PP20391  14.806  10.012   0.246  0.3812  0.2232 -0.0579
10288PP      PP20392   4.230  12.635  10.681 -0.2427  0.2097  0.0614
10289PP      PP20393   7.952   9.447   3.990  0.0881  0.4386 -0.2118
10290PP      PP20394  14.007   8.128  12.112  0.0464 -0.0863  0.2157
10291PP      PP20395   2.502  14.577  12.107 -0.0318 -0.4561 -0.2505
10292PP      PP20396   6.862   3.360   2.298 -0.1330 -0.1409 -0.0652
10293PP      PP20397  13.583   0.633  12.086  0.1053 -0.0412 -0.0607
10294PP      PP20398   1.127   3.600  10.293  0.1417 -0.3813 -0.0992
10295PP      PP20399  13.980   9.255  10.672  0.0844  0.2008  0.3633
10296PP      PP20400   5.829   9.755  10.999 -0.1987 -0.2630 -0.1947
10297PP      PP20401   3.260   8.708  10.613  0.2024 -0.4074  0.2397
10298PP      PP20402  13.698  14.888   3.672 -0.3108 -0.0394  0.0500
10299PP      PP20403  12.399   0.404  10.762 -0.0947 -0.0595 -0.0858
10300PP      PP20404  12.840  12.963   2.495 -0.0908 -0.0594 -0.0408
10301PP      PP20405   2.182   2.279  11.048  0.2706  0.2912  0.2268
10302PP      PP20406   8.169  14.938  11.760  0.2125  0.1189 -0.1131
10303PP      PP20407   3.874  13.510  13.601 -0.3405 -0.0512 -0.3469
10304PP      PP20408   6.067   4.645   2.083  0.0281 -0.0697  0.0386
10305PP      PP20409   0.599   1.772   1.293  0.0909  0.0565 -0.1425
10306PP      PP20410  11.149   4.602  11.084 -0.0048  0.3191  0.0404
10307PP      PP20411  10.824   4.204  11.019 -0.0476 -0.2775 -0.0240
10308PP      PP20412   4.800   5.677  12.473  0.2360  0.0658 -0.1706
10309PP      PP20413   8.593   2.965  10.984 -0.2124 -0.0584 -0.1992
10310PP      PP20414   0.075   6.280  10.933 -0.0573 -0.0224  0.3997
10311PP      PP20415  12.615   8.752   0.488 -0.4620 -0.1031 -0.2664
10312PP      PP20416   2.591   7.488   0.093  0.1492  0.0466  0.1767
10313PP      PP20417  11.438   8.614   0.878 -0.1525  0.0596 -0.0841
10314PP      PP20418   8.907  14.438   4.081 -0.0257  0.0693 -0.0883
10315PP      PP20419  15.680   2.360  11.013  0.1067  0.3614  0.0231
10316PP      PP20420  14.178   8.762  12.114 -0.1735 -0.2048  0.0492
10317PP      PP20421   5.350  12.057   2.147 -0.0429 -0.0893  0.0466
10318PP      PP20422   2.267   7.358   2.234 -0.2793  0.2836  0.0962
10319PP      PP20423  13.814  10.272  11.395  0.4930  0.1289 -0.1312
10320PP      PP20424   6.760   4.116  11.003  0.3795 -0.0477  0.1800
10321PP      PP20425   2.108   1.290   0.767 -0.1369 -0.1044  0.0100
10322PP      PP20426  10.160   1.871  13.651  0.1739  0.2278 -0.1543
10323PP      PP20427   3.315   5.034   2.474 -0.0676 -0.2419  0.0301
10324PP      PP20428  11.943  10.292  12.273  0.0783  0.0319 -0.2662
10325PP      PP20429   9.734   1.968   9.952 -0.0322  0.1735 -0.1085
10326PP      PP20430  12.680  13.703   1.890  0.2227  0.0167 -0.2888
10327PP      PP20431   1.339  15.578   1.994  0.1596 -0.1444 -0.2506
10328PP      PP20432   3.604   5.780   2.362  0.1404 -0.1912  0.1498
10329PP      PP20433   8.548  12.932  12.325 -0.1878 -0.2897  0.0082
10330PP      PP20434   1.798   3.288   3.454 -0.1821  0.1733  0.1437
10331PP      PP20435   1.987  10.593  13.500  0.2591 -0.1027 -0.0634
10332PP      PP20436  10.453  14.603   4.127 -0.0335  0.0537  0.0561
10333PP      PP20437  14.451   7.295   9.597  0.4063  0.0367 -0.0042
10334PP      PP20438   1.076   6.259   1.085 -0.1220  0.1368 -0.3040
10335PP      PP20439   6.398   6.013   1.010 -0.0895  0.4053  0.0193
10336PP      PP20440   4.540   2.458  12.055  0.0128  0.0276 -0.2104
10337PP      PP20441   5.236   4.280   2.730  0.1771  0.1874 -0.2549
10338PP      PP20442   1.684   4.458   2.897  0.3609  0.0761  0.0392
10339PP      PP20443  10.758  13.702  13.678 -0.0040  0.1603 -0.0314
10340PP      PP20444   2.412   5.683  11.692 -0.0765 -0.0948  0.1462
10341PP      PP20445   7.597   5.289   2.600  0.2431 -0.1457  0.1139
10342PP      PP20446   3.469  10.244   1.097  0.3283 -0.0005  0.2583
10343PP      PP20447  10.392   3.356  11.256  0.3431 -0.0591 -0.0802
10344PP      PP20448  14.919  11.835  10.205  0.2291 -0.3068 -0.2166
10345PP      PP20449   5.168   2.388   3.083  0.0946  0.0500 -0.1873
10346PP      PP20450   8.334   9.003   2.631 -0.1085  0.3498  0.3802
10347PP      PP20451   9.759   6.814   9.605  0.1998  0.4073  0.0115
10348PP      PP20452   8.510  14.758  11.206  0.0388  0.0131 -0.2136
10349PP      PP20453   3.582   9.375   4.627 -0.1092 -0.0530 -0.1809
10350PP      PP20454  10.667  10.387   1.071  0.3246  0.1262 -0.2233
10351PP      PP20455  15.468   3.805  10.311 -0.2364 -0.2355 -0.1164
10352PP      PP20456  14.288   3.482  11.187  0.2325  0.0812  0.0862
10353PP      PP20457   7.681  14.251   1.688 -0.2894 -0.0872  0.0382
10354PP      PP20458   8.620   9.175   1.882  0.2518 -0.0165  0.2777
10355PP      PP20459  13.519  13.309   0.779 -0.0863  0.2348  0.1239
10356PP      PP20460   5.633  15.557  10.719  0.0150 -0.2397  0.1375
10357PP      PP20461  10.234   7.922   1.830 -0.0871  0.0548  0.2935
10358PP      PP20462   8.777   9.237   5.582  0.1462 -0.2094  0.0642
10359PP      PP20463   5.066   2.489  12.024  0.3248  0.3190 -0.1689
10360PP      PP20464   7.894   3.292   8.430 -0.2231  0.2901 -0.1585
10361PP      PP20465   1.614  13.716  10.879 -0.2210 -0.2319  0.0567
10362PP      PP20466   3.886  15.643   1.780 -0.3570  0.1450  0.0008
10363PP      PP20467  11.236   5.386   1.257  0.1503  0.1148  0.0989
10364PP      PP20468   2.483   3.448  11.406 -0.1701 -0.1666 -0.0425
10365PP      PP20469   2.641   5.816   2.657  0.0152 -0.1167  0.2145
10366PP      PP20470   5.228   7.657  13.098 -0.1786  0.2168  0.2416
10367PP      PP20471  10.514  15.327   9.991  0.0230 -0.1604 -0.1857
10368PP      PP20472  14.374   0.729   8.677  0.2141 -0.5065 -0.0142
10369PP      PP20473  11.683   3.056   2.428 -0.5486  0.1698  0.0702
10370PP      PP20474   4.986   5.489  12.055  0.1062 -0.0183  0.0428
10371PP      PP20475  10.786   4.809   4.361  0.4067  0.0272  0.2271
10372PP      PP20476  10.148  13.877   2.932 -0.3496 -0.2556 -0.3061
10373PP      PP20477  13.632   5.436   9.794  0.3158 -0.1194 -0.0499
10374PP      PP20478   2.856   4.728   2.405 -0.0652  0.0880  0.3362
10375PP      PP20479   0.815  13.112   8.896 -0.0201 -0.3498  0.2473
10376PP      PP20480  15.654   9.834   0.341 -0.1367  0.1885  0.2366
10377PP      PP20481   4.119  13.763  12.201  0.1129  0.3037 -0.0003
10378PP      PP20482   4.686  11.389   3.527 -0.0790  0.0914  0.0821
10379PP      PP20483   6.402   3.354  10.082 -0.0040  0.0133 -0.0006
10380PP      PP20484  14.008   0.547   2.394 -0.1905  0.0007  0.0145
10381PP      PP20485   5.563  14.935   0.285  0.2931  0.0402 -0.0740
10382PP      PP20486   8.081  12.269   0.408  0.0998  0.1035  0.0810
10383PP      PP20487   1.163  11.791   3.022 -0.0044  0.2570 -0.0547
10384PP      PP20488   2.096  13.689   3.799 -0.0661  0.2088 -0.2099
10385PP      PP20489   8.192   3.334  13.291 -0.1236  0.2786 -0.2147
10386PP      PP20490  14.269   1.432   2.514  0.0867 -0.0598 -0.1013
10387PP      PP20491  11.690  11.259   0.421 -0.0555 -0.0889  0.2840
10388PP      PP20492   5.485   3.033  11.287 -0.0302  0.1790 -0.0667
10389PP      PP20493  14.542   4.264   2.377 -0.0967  0.0719  0.0495
10390PP      PP20494   0.865  14.510  11.259  0.2281 -0.1335 -0.0970
10391PP      PP20495   9.188   2.085  13.200 -0.1562 -0.3782 -0.1129
10392PP      PP20496  10.885  11.220  10.140 -0.0070  0.0764 -0.1404
10393PP      PP20497   7.295   9.772   0.543  0.0080 -0.2330  0.0488
10394PP      PP20498  11.677   8.795  10.495 -0.1881  0.0959 -0.0605
10395PP      PP20499   8.112  11.633   2.490 -0.2900  0.2135  0.0184
10396PP      PP20500   9.281   4.299  10.808  0.2762 -0.0486  0.0426
10397PP      PP20501   9.211   3.462   8.476  0.2734 -0.1009 -0.0113
10398PP      PP20502  10.456   9.927   2.946  0.1591  0.0697 -0.1002
10399PP      PP20503   6.151   7.701  11.168 -0.2764 -0.3155 -0.1137
10400PP      PP20504   7.129   3.773  11.551  0.0648 -0.2220  0.0687
10401PP      PP20505   5.624  15.221   0.946 -0.0518  0.0397 -0.0284
10402PP      PP20506   6.906  11.024  12.369  0.0716 -0.4336 -0.1952
10403PP      PP20507   7.653   6.039   2.446 -0.1329  0.3571 -0.0822
10404PP      PP20508   3.052   4.483  13.560 -0.0846 -0.1490 -0.1967
10405PP      PP20509   5.304   9.582   2.703  0.1555 -0.0327  0.0427
10406PP      PP20510   2.711   6.627  12.160 -0.0141 -0.3276  0.0799
10407PP      PP20511  15.208   1.743  11.192 -0.0813 -0.1687  0.1033
10408PP      PP20512   0.424   0.542   9.992 -0.2191 -0.4402  0.2739
10409PP      PP20513   6.620   4.094  10.399  0.1480  0.2823 -0.1366
10410PP      PP20514   4.870   4.199   1.037 -0.0254  0.1381  0.2669
10411PP      PP20515   1.187   3.924  10.787 -0.2944  0.5079  0.3457
10412PP      PP20516   5.274   8.338   1.675 -0.0827  0.1782  0.1254
10413PP      PP20517   9.475  10.638  10.315  0.2789  0.2650 -0.4858
10414PP      PP20518  12.139   0.673   1.275  0.1896  0.0748  0.4457
10415PP      PP20519   1.861   2.928   8.721 -0.0237 -0.0086 -0.0139
10416PP      PP20520   8.882   2.482   2.034 -0.1847  0.0147  0.2430
10417PP      PP20521  10.181  14.807   1.762 -0.2098  0.5531 -0.0672
10418PP      PP20522  13.599   8.169   0.406 -0.1301 -0.2889  0.3179
10419PP      PP20523   0.360   6.550   2.972  0.0381  0.1451  0.3173
10420PP      PP20524   5.645  13.306   1.430  0.1902  0.0867 -0.1257
10421PP      PP20525   8.302   0.866  11.563 -0.0233  0.0302 -0.1261
10422PP      PP20526  10.439   5.713  11.716  0.1093  0.0660  0.1714
10423PP      PP20527  13.156  12.397  12.540  0.0430  0.4772 -0.1944
10424PP      PP20528   0.274   2.075   4.041  0.1541  0.0764 -0.0841
10425PP      PP20529  11.089  15.507   4.229 -0.4080 -0.1143  0.1720
10426PP      PP20530   8.141  14.970   1.512  0.1561  0.1158  0.1174
10427PP      PP20531  14.456   7.029  12.683  0.3227  0.0948  0.4001
10428PP      PP20532   2.985   3.439   1.103 -0.2416  0.0954 -0.0501
10429PP      PP20533  15.159   7.783  12.828  0.0511 -0.2785  0.0718
10430PP      PP20534  15.370   3.813   3.897  0.2973  0.0130 -0.1839
10431PP      PP20535  12.552  12.664  10.141  0.0117 -0.4600  0.0907
10432PP      PP20536  13.220  13.275  11.553  0.0289  0.2353  0.0089
10433PP      PP20537   1.318  11.444   9.772 -0.0267 -0.0761  0.0366
10434PP      PP20538  14.142   8.520  11.112  0.1521 -0.1228 -0.0790
10435PP      PP20539   8.455   6.638   2.269  0.1902  0.0376 -0.2826
10436PP      PP20540  12.009  12.982  10.577  0.0848 -0.0204  0.1423
10437PP      PP20541   0.495   3.502   3.767  0.2826 -0.0031  0.0446
10438PP      PP20542   2.204   4.968   4.162  0.3236 -0.1672  0.0078
10439PP      PP20543  10.826   0.344   0.281 -0.1311  0.2922  0.2158
10440PP      PP20544   1.188   9.772  12.373 -0.1547 -0.1945 -0.4500
10441PP      PP20545   3.401   1.614  12.766 -0.2100 -0.4364 -0.3285
10442PP      PP20546  15.156   2.501  10.939 -0.1251  0.1933 -0.4337
10443PP      PP20547   0.417   7.085  12.026  0.1308  0.3259  0.2645
10444PP      PP20548   6.517   4.142  13.401 -0.2772 -0.1137 -0.1459
10445PP      PP20549   8.095  12.594  10.729  0.1891  0.3457  0.0286
10446PP      PP20550   3.623   1.137   3.136  0.0939 -0.0020  0.0549
10447PP      PP20551   5.888  14.257  13.356 -0.0233  0.0490 -0.0294
10448PP      PP20552   1.630   2.468  10.781 -0.2872 -0.2567  0.0409
10449PP      PP20553   7.282   6.844  12.411 -0.0408  0.2949 -0.0213
10450PP      PP20554   2.489   9.099   9.594 -0.0494  0.0560  0.1623
10451PP      PP20555  15.298  14.910   4.585 -0.1151  0.1378  0.1987
10452PP      PP20556  14.021   1.284   3.061 -0.0510  0.1378  0.0335
10453PP      PP20557   7.879  12.033   3.432 -0.4786  0.0260 -0.1086
10454PP      PP20558  10.896  14.334   2.316  0.0710 -0.2607 -0.0975
10455PP      PP20559  14.225   7.715   9.548  0.1165  0.2193  0.2099
10456PP      PP20560  10.396  12.142  11.327 -0.1847 -0.1349  0.0161
10457PP      PP20561  12.482  10.891  10.524 -0.1403  0.1241  0.1426
10458PP      PP20562   6.171  13.435  13.598  0.0741 -0.2440 -0.1315
10459PP      PP20563  13.846   0.609   1.352  0.2454  0.3209 -0.2152
10460PP      PP20564  11.527  10.989   2.005  0.1503 -0.1526  0.2114
10461PP      PP20565   8.902   5.737  13.038 -0.0105 -0.1167 -0.1912
10462PP      PP20566   1.682   3.860   8.815  0.1296  0.0109 -0.2365
10463PP      PP20567  14.462  11.292   9.455  0.0055 -0.1607 -0.0249
10464PP      PP20568  15.739  13.881  13.173 -0.0832  0.0268 -0.1163
10465PP      PP20569   8.760   8.680   0.902  0.0043  0.1080 -0.3104
10466PP      PP20570   5.107  13.060  10.333  0.1921  0.2750 -0.3239
10467PP      PP20571   9.587  12.796  11.470  0.4030  0.2868  0.2039
10468PP      PP20572   0.047  10.100   9.818 -0.0062  0.0299 -0.2072
10469PP      PP20573  11.549   1.399   9.710 -0.2492  0.2541 -0.0054
10470PP      PP20574   4.611   5.697  10.694  0.1558 -0.0014 -0.0019
10471PP      PP20575   2.684   8.479  12.908  0.1463 -0.0406  0.0009
10472PP      PP20576   4.559   6.730   2.894 -0.3881 -0.1309  0.1471
10473PP      PP20577   9.188   8.214   3.654  0.0676 -0.4873  0.3079
10474PP      PP20578   8.965   9.190  10.243 -0.1053 -0.0268 -0.1678
10475PP      PP20579  13.517  11.044   2.461  0.3922  0.3023 -0.1297
10476PP      PP20580   3.691   9.429  10.336 -0.0113 -0.1237 -0.3696
10477PP      PP20581  10.525   7.040   3.788 -0.0201 -0.1798 -0.0939
10478PP      PP20582  13.573   9.662   1.522  0.0489  0.2033  0.1287
10479PP      PP20583   2.306   0.042   3.996  0.3378 -0.0888 -0.0940
10480PP      PP20584  13.762  12.346   0.293  0.0016  0.1670  0.0431
10481PP      PP20585   9.556  12.523   3.067  0.0697  0.1638 -0.2657
10482PP      PP20586   0.007  12.661   3.116  0.0889  0.0087 -0.0624
10483PP      PP20587  13.249   8.201  12.645 -0.1315  0.0819 -0.1874
10484PP      PP20588   1.708   9.493   3.033 -0.1442  0.3834 -0.0807
10485PP      PP20589  12.164   2.555   9.494 -0.0082 -0.1386  0.1286
10486PP      PP20590   7.246   1.447  13.196 -0.1502 -0.0127  0.1708
10487PP      PP20591  12.932  10.218   3.164  0.1228  0.2678 -0.0059
10488PP      PP20592  13.592   1.177   1.931  0.1353  0.1194 -0.1964
10489PP      PP20593  14.711   8.507   9.743  0.1066 -0.1145 -0.2352
10490PP      PP20594   1.288   2.175   8.944 -0.2508  0.3140  0.2312
10491PP      PP20595   0.739  15.627   9.231  0.0288 -0.0516 -0.1327
10492PP      PP20596  11.896  11.364  12.109 -0.0159 -0.2073 -0.1034
10493PP      PP20597   8.938  14.258   9.879 -0.0375  0.0360  0.0874
10494PP      PP20598   4.127   5.255   1.233  0.0425  0.5271 -0.0525
10495PP      PP20599   2.420  15.605  11.257 -0.1319 -0.1316 -0.0354
10496PP      PP20600  14.343   3.259  11.681 -0.2280 -0.0525  0.0093
10497PP      PP20601  12.578   7.823  13.099  0.0740 -0.0014 -0.1042
10498PP      PP20602   3.486   1.536  10.359  0.0416 -0.2141 -0.2563
10499PP      PP20603   5.989  13.162   9.973 -0.4069  0.1615 -0.0284
10500PP      PP20604   6.794   4.576  12.390 -0.1883  0.0147 -0.0700
10501PP      PP20605   9.628   5.080  12.007  0.0532  0.2653 -0.3268
10502PP      PP20606  11.012  11.282  10.635  0.1859  0.3789  0.0966
10503PP      PP20607   5.943  13.610  10.396  0.4073 -0.0030  0.2338
10504PP      PP20608  15.294   2.215   3.253  0.0086 -0.2098 -0.3326
10505PP      PP20609   2.276   0.917   0.448  0.0926 -0.3874 -0.2423
10506PP      PP20610   7.535  11.702   4.759 -0.0514  0.2697 -0.1743
10507PP      PP20611   4.670   8.931   8.998  0.0690 -0.0526 -0.1089
10508PP      PP20612   0.271   4.196   8.977  0.0188 -0.2259 -0.0703
10509PP      PP20613  13.312  11.526   0.188  0.0825 -0.0484 -0.0391
10510PP      PP20614   0.266  12.376   0.738  0.1039 -0.3763 -0.0994
10511PP      PP20615  12.815   1.653   3.785 -0.1559  0.1083 -0.2428
10512PP      PP20616   4.688   5.283  11.110  0.0536  0.1440  0.1063
10513PP      PP20617   6.628   5.222   3.196  0.0657  0.0451  0.1650
10514PP      PP20618   3.790  13.483   3.099 -0.1144  0.0051 -0.2492
10515PP      PP20619  15.406  12.137   2.369 -0.0487 -0.2015  0.2846
10516PP      PP20620   7.810   8.741   4.401 -0.2960 -0.0776  0.1090
10517PP      PP20621  11.086   3.619   0.338 -0.1859  0.2842 -0.0463
10518PP      PP20622  11.719   6.924   4.829  0.0016  0.3078 -0.1099
10519PP      PP20623  15.550  13.484   3.297  0.2891 -0.0604 -0.2875
10520PP      PP20624   3.609   7.407  10.315  0.2645  0.1216 -0.0230
10521PP      PP20625   9.851  12.863  12.449 -0.2253  0.1070 -0.0685
10522PP      PP20626   8.137   5.519  10.619  0.2540 -0.2923  0.1785
10523PP      PP20627   3.772   7.116  13.126  0.0321  0.1697 -0.3095
10524PP      PP20628   4.344   4.911   0.893  0.1132 -0.4167 -0.5244
10525PP      PP20629  14.258   0.190  11.522  0.0983 -0.0541  0.2205
10526PP      PP20630   5.323   6.489  13.521  0.1323  0.0706 -0.0746
10527PP      PP20631  14.576   0.573   9.122  0.1438  0.1926 -0.2357
10528PP      PP20632   9.885   6.898  10.872  0.1099  0.0140  0.2811
10529PP      PP20633  10.505   6.865  10.727 -0.0725  0.1648 -0.0490
10530PP      PP20634   2.821  15.086   0.797 -0.2344  0.1941  0.0742
10531PP      PP20635   3.871   4.380   3.373  0.1481  0.1248  0.0242
10532PP      PP20636   5.111  13.856   1.951 -0.3061  0.1460  0.0809
10533PP      PP20637   8.631  13.934   1.379 -0.1717 -0.1587 -0.1316
10534PP      PP20638   1.519  13.622   1.358 -0.0718 -0.1939 -0.1123
10535PP      PP20639  11.822   4.191   9.723  0.3563 -0.1056  0.0303
10536PP      PP20640   3.519   5.928   1.864  0.2289 -0.2527 -0.3432
10537PP      PP20641  11.720   3.556   2.193 -0.1635  0.2278 -0.2039
10538PP      PP20642   7.519   4.593   8.419  0.4132  0.2108  0.1020
10539PP      PP20643   3.531   7.610  12.396 -0.1475 -0.0232  0.0557
10540PP      PP20644  13.512  11.669   4.964 -0.0207 -0.1267  0.0995
10541PP      PP20645   6.034   9.592   2.480  0.1476  0.2994  0.1050
10542PP      PP20646  10.249   0.702  12.857 -0.1299 -0.4507 -0.2924
10543PP      PP20647  15.275  15.477  11.506  0.2375  0.0421 -0.2017
10544PP      PP20648  13.063  14.422   9.143  0.0812  0.1281 -0.0427
10545PP      PP20649   4.831   8.187  11.410 -0.0097 -0.0295 -0.0871
10546PP      PP20650  14.874   9.787  12.856 -0.0083  0.2796  0.0117
10547PP      PP20651   4.481   9.677  11.361  0.0070 -0.0728 -0.0780
10548PP      PP20652  15.054   4.999  10.755 -0.0900 -0.0502  0.0069
10549PP      PP20653  10.268   0.991   2.257  0.3710  0.0407 -0.1415
10550PP      PP20654   0.160  10.549  10.528  0.0194 -0.0339 -0.0919
10551PP      PP20655   7.918   7.041   1.480 -0.1528  0.0581 -0.2315
10552PP      PP20656   7.281  12.198   9.985  0.3433  0.2004 -0.0698
10553PP      PP20657   5.289  11.548  12.320 -0.3614  0.2947 -0.1258
10554PP      PP20658   0.058   6.735  12.238  0.0343 -0.1937  0.1030
10555PP      PP20659   0.178  10.077   2.482 -0.0486  0.0870  0.4183
10556PP      PP20660   2.053   9.885   3.826  0.0272 -0.0981  0.1508
10557PP      PP20661   5.236  11.066   2.434 -0.0423  0.0202  0.1679
10558PP      PP20662   2.154  11.630  11.968  0.4479 -0.0111  0.1908
10559PP      PP20663   4.630   9.367   3.614 -0.0467 -0.4522 -0.0312
10560PP      PP20664   2.817   8.780  10.358 -0.1149 -0.1501  0.1350
10561PP      PP20665  13.707  10.965   0.475  0.1398 -0.0363  0.3302
10562PP      PP20666   4.989  10.444  11.335 -0.0554  0.1444 -0.0029
10563PP      PP20667  12.538   1.702   9.789  0.1944 -0.1345  0.1697
10564PP      PP20668  12.772   6.089   2.320 -0.2089 -0.0804  0.1107
10565PP      PP20669   2.603   7.652   9.390  0.0952  0.0246  0.0542
10566PP      PP20670   9.617  15.322   4.266 -0.0344 -0.2444  0.0504
10567PP      PP20671  12.550  11.799   4.568  0.2354 -0.1947  0.1656
10568PP      PP20672   2.302   8.682  10.539  0.0266  0.1941 -0.0840
10569PP      PP20673   0.738  11.408   0.393 -0.1194  0.1534  0.1682
10570PP      PP20674   6.687  14.233  13.485  0.3150 -0.1017  0.1196
10571PP      PP20675  10.218   9.870   2.007 -0.0482 -0.0276 -0.0097
10572PP      PP20676   3.041   0.504  12.348  0.1074 -0.2935  0.0067
10573PP      PP20677   6.871   4.639  13.517 -0.1162  0.1355 -0.0364
10574PP      PP20678   2.807   0.070   9.540  0.0588  0.1488 -0.2407
10575PP      PP20679   8.272  10.271  12.331 -0.0229  0.1634  0.0322
10576PP      PP20680   4.879   4.957   0.790  0.0607  0.0312 -0.4450
10577PP      PP20681   1.670  12.179   2.511  0.2301 -0.1549 -0.1587
10578PP      PP20682  15.731  12.405  11.194  0.0723  0.1122  0.0174
10579PP      PP20683   2.971  11.836   3.811  0.0941 -0.1078  0.0192
10580PP      PP20684   6.412   4.472  11.186 -0.1798  0.1937  0.0175
10581PP      PP20685  15.054   9.328   2.220 -0.1455 -0.2559 -0.1722
10582PP      PP20686  14.934  14.733   2.152  0.1052  0.2715 -0.0067
10583PP      PP20687  11.920  12.649  11.219 -0.2228 -0.1315  0.2327
10584PP      PP20688   3.733  13.929  12.644 -0.0725 -0.0055 -0.0117
10585PP      PP20689  14.515   0.270   0.832 -0.0666 -0.1814  0.0081
10586PP      PP20690  15.603   3.679  13.482  0.0294 -0.0836  0.0198
10587PP      PP20691   8.780   0.392   9.570  0.3119  0.1807 -0.2642
10588PP      PP20692   0.071   8.725   1.668  0.0555 -0.0441  0.3736
10589PP      PP20693   1.554   4.708   2.468  0.0708  0.0012  0.1782
10590PP      PP20694   1.948   1.550   1.452 -0.0902  0.0880  0.0521
10591PP      PP20695   0.100  10.353   1.749 -0.0515  0.0689  0.0480
10592PP      PP20696  12.044   1.884   9.674 -0.0736 -0.1556 -0.2103
10593PP      PP20697  13.252  13.033  10.953 -0.1802  0.0938 -0.2509
10594PP      PP20698  10.180   5.807  12.334  0.1726  0.1202 -0.0272
10595PP      PP20699   5.839   5.099   9.413 -0.1797  0.2143  0.1476
10596PP      PP20700  11.986   9.550  13.469 -0.0763 -0.0089 -0.1645
10597PP      PP20701   3.423   7.121   0.938 -0.1841 -0.2328  0.1085
10598PP      PP20702  12.008   3.511   8.977  0.0734 -0.2847 -0.0871
10599PP      PP20703   0.083  12.849  10.273 -0.1100  0.1840 -0.4743
10600PP      PP20704   2.730   6.562   8.835  0.1150  0.1782 -0.1567
10601PP      PP20705   0.199   6.524   9.384 -0.0552  0.2800 -0.4555
10602PP      PP20706   1.522  11.477   2.852  0.0573  0.2518 -0.2855
10603PP      PP20707   9.755  12.562  10.562  0.0377 -0.2917 -0.2489
10604PP      PP20708   2.220   1.052  12.730  0.1361  0.0674  0.1590
10605PP      PP20709  11.997   0.842  10.367  0.2666 -0.0916 -0.0934
10606PP      PP20710  10.680   0.252  13.493  0.1515 -0.0766  0.0424
10607PP      PP20711  13.546   9.822   0.643  0.2393  0.2824 -0.0938
10608PP      PP20712   8.393   5.499   2.204  0.1329 -0.1009  0.0761
10609PP      PP20713   3.448   8.832   9.661  0.1575 -0.1745 -0.0426
10610PP      PP20714   0.290  11.420   0.676 -0.1629  0.0463 -0.2615
10611PP      PP20715   4.363  15.590   7.994 -0.3655 -0.3209  0.1097
10612PP      PP20716  13.171   3.429  11.102  0.0016  0.1322 -0.2799
10613PP      PP20717   1.621  14.264  10.640  0.2706 -0.0456 -0.0265
10614PP      PP20718  12.852  11.640   2.702  0.1839  0.1524 -0.0731
10615PP      PP20719   3.604   9.908  10.210  0.4434  0.1152 -0.2337
10616PP      PP20720   4.032   8.087   8.899 -0.1858 -0.1500 -0.2022
10617PP      PP20721  10.960  12.892   1.235 -0.0769  0.4120 -0.1516
10618PP      PP20722  14.837   7.259  11.839 -0.4775  0.0847  0.2508
10619PP      PP20723   6.993   9.350  13.272 -0.0071  0.0612 -0.0747
10620PP      PP20724   4.330   9.726   1.770  0.1811 -0.4641 -0.0993
10621PP      PP20725   3.676   5.409   7.880  0.2732 -0.1915 -0.1704
10622PP      PP20726   8.292   7.682  13.155  0.1952  0.0221  0.1768
10623PP      PP20727  14.602   2.577   2.582 -0.0832  0.1025  0.0499
10624PP      PP20728  11.503  14.282   1.887  0.2867 -0.0382  0.3368
10625PP      PP20729  12.033   1.005   1.830  0.0168 -0.2054 -0.0100
10626PP      PP20730   4.191  13.011   4.403 -0.1881 -0.2156 -0.2839
10627PP      PP20731   2.486   9.011  10.161  0.0356  0.1500 -0.0688
10628PP      PP20732  14.054   3.786  10.863 -0.0510 -0.3865 -0.0415
10629PP      PP20733   3.467  11.990   3.830 -0.3063 -0.0370 -0.0668
10630PP      PP20734   3.180   2.592   2.143  0.0818  0.0835 -0.0896
10631PP      PP20735   9.430  10.074  13.121 -0.3342  0.0140 -0.1248
10632PP      PP20736  12.626   0.562   3.202 -0.3172  0.0117  0.3007
10633PP      PP20737   8.145  12.468   1.349  0.1076 -0.1952 -0.0546
10634PP      PP20738   5.818  13.058   1.951  0.0387 -0.2313 -0.4164
10635PP      PP20739  14.683   5.659   2.385 -0.3082 -0.2930 -0.0900
10636PP      PP20740  10.937   5.900   2.841 -0.0213  0.2674  0.2993
10637PP      PP20741   9.472   6.594   9.281 -0.1925  0.2315  0.0943
10638PP      PP20742   2.930   5.439   3.503 -0.0480 -0.3709  0.0574
10639PP      PP20743   9.519   8.768   2.404 -0.0614 -0.0161 -0.0255
10640PP      PP20744  11.535   2.990   2.915 -0.0444  0.0144  0.3605
10641PP      PP20745  13.674  14.691   9.676  0.1301  0.0428 -0.1559
10642PP      PP20746   4.515  11.497   9.986  0.0197 -0.0243  0.0613
10643PP      PP20747   4.227   0.564   0.241  0.0944 -0.0715  0.1885
10644PP      PP20748  11.274   4.597   4.474 -0.2241  0.0073  0.0361
10645PP      PP20749  11.303   8.764  12.102  0.4377  0.6159  0.2477
10646PP      PP20750   7.554  10.324   4.705  0.0601  0.0908 -0.0818
10647PP      PP20751   6.990   0.973   7.968 -0.2698 -0.0075  0.0584
10648PP      PP20752   2.024  12.695   2.746 -0.4204  0.1796  0.1410
10649PP      PP20753   3.826  13.344   9.450 -0.0214  0.0056  0.0721
10650PP      PP20754  12.852   3.409  12.593 -0.0320 -0.0209  0.1593
10651PP      PP20755  11.507  11.994   2.474 -0.1796  0.0299 -0.0778
10652PP      PP20756   4.743   4.143   8.090  0.2238 -0.2727 -0.2290
10653PP      PP20757  11.280  10.004   4.126  0.1314  0.0441  0.2668
10654PP      PP20758   9.652   6.452   4.641 -0.1468 -0.0318  0.1083
10655PP      PP20759  14.141   0.324   3.201  0.1486  0.0182  0.1319
10656PP      PP20760   4.535  11.029  11.319  0.2014  0.1514  0.0460
10657PP      PP20761  11.914   0.237  10.327 -0.0748 -0.0879 -0.0543
10658PP      PP20762   3.804   6.933  11.457  0.1261 -0.2376 -0.4258
10659PP      PP20763   9.455  14.584   2.288  0.3613  0.1632  0.0933
10660PP      PP20764   5.504  11.067   3.482  0.0191 -0.0033  0.0307
10661PP      PP20765   7.122   2.966  11.896  0.1325  0.1946 -0.3382
10662PP      PP20766   0.629   1.831  10.482 -0.0663  0.0913 -0.0410
10663PP      PP20767  13.564   1.670   9.643 -0.1941  0.1003 -0.0438
10664PP      PP20768   0.832   5.097   4.223 -0.3495 -0.0756  0.0673
10665PP      PP20769   7.211   2.168   9.547 -0.1408  0.1289 -0.1250
10666PP      PP20770   0.067  14.098   2.192  0.1876  0.1565 -0.2460
10667PP      PP20771  10.376  12.570  12.225  0.0454 -0.0135 -0.1362
10668PP      PP20772   2.063   5.051  12.610  0.0366  0.3014 -0.3703
10669PP      PP20773   7.951   3.566   8.828  0.0776 -0.0867  0.2623
10670PP      PP20774   8.088  10.885  10.626 -0.1226  0.0366  0.0191
10671PP      PP20775   1.739  14.637   3.033  0.0886  0.0866 -0.0530
10672PP      PP20776  14.888   8.263  11.913 -0.1182 -0.2658 -0.0393
10673PP      PP20777   0.020   3.191  13.754 -0.2313 -0.0556 -0.0679
10674PP      PP20778  10.338   0.715   4.041 -0.2065 -0.0780 -0.2020
10675PP      PP20779   8.320   1.723   7.908 -0.1700 -0.0663  0.0794
10676PP      PP20780   1.345   1.256   9.887 -0.0607 -0.1407  0.1448
10677PP      PP20781   8.498   0.971  13.417 -0.2551  0.0184 -0.1876
10678PP      PP20782  14.449   1.583   3.054  0.2021  0.1044  0.2970
10679PP      PP20783   1.787   0.431   8.825  0.1437  0.1193 -0.2385
10680PP      PP20784   5.603   4.196  12.031  0.0306 -0.3459  0.4062
10681PP      PP20785   8.746   8.787  10.868 -0.1334 -0.1020  0.2865
10682PP      PP20786   7.458   0.013   9.630  0.1107 -0.0684  0.0306
10683PP      PP20787   0.135  12.453  11.666 -0.2383 -0.2950  0.2729
10684PP      PP20788   6.403  14.921  12.132  0.0670 -0.1216  0.0504
10685PP      PP20789   7.799   7.586  12.837  0.1178 -0.0058 -0.0976
10686PP      PP20790   4.932   6.340   1.690  0.2616  0.3186  0.1986
10687PP      PP20791  12.167   0.217  13.175  0.2387 -0.1150  0.1097
10688PP      PP20792   4.992   4.435  10.950  0.1106 -0.1588 -0.1110
10689PP      PP20793   6.195   8.470   3.080 -0.1589 -0.0678  0.0076
10690PP      PP20794   7.723  15.380   1.390  0.0296 -0.0385  0.4955
10691PP      PP20795  12.087  13.971   4.099  0.0049  0.1288 -0.0612
10692PP      PP20796  15.385   2.010   0.331  0.0874 -0.0208 -0.2531
10693PP      PP20797  13.685   8.431  11.734 -0.0891  0.0526 -0.2159
10694PP      PP20798   6.971   6.174   1.320 -0.2524 -0.1675  0.0687
10695PP      PP20799   6.851  15.646   8.768  0.0969  0.6604  0.3222
10696PP      PP20800   0.244  14.070  11.315  0.0387 -0.1491 -0.0318
10697PP      PP20801  11.015  10.551   0.132 -0.0296  0.3679 -0.2752
10698PP      PP20802  10.123  13.182  10.862  0.2124 -0.0187 -0.2198
10699PP      PP20803   5.073  12.017   0.178  0.1520  0.1434  0.0887
10700PP      PP20804   2.545   6.283   2.318 -0.1173  0.3907  0.0016
10701PP      PP20805   5.375   9.584   1.063 -0.0589 -0.1989  0.0891
10702PP      PP20806   6.243   1.885  12.207 -0.0277  0.0986 -0.0644
10703PP      PP20807  12.798   6.103   1.198  0.4414  0.2401  0.0146
10704PP      PP20808  13.308   4.469   0.284  0.0931 -0.2525  0.0553
10705PP      PP20809   6.537   1.086  10.508  0.1233  0.0188  0.0522
10706PP      PP20810   6.484   7.753  11.702 -0.3808 -0.1163 -0.0634
10707PP      PP20811  10.643   4.581   0.947  0.0735 -0.0195  0.2276
10708PP      PP20812  14.889   2.745   0.473  0.0311 -0.1064  0.3145
10709PP      PP20813   1.930   5.519   3.120  0.2632 -0.2784  0.0881
10710PP      PP20814   3.612  10.657   0.312  0.3122  0.1636 -0.0470
10711PP      PP20815   0.504   2.576   8.120 -0.0631  0.2120  0.2288
10712PP      PP20816  11.316   0.073   0.219  0.1141 -0.1639  0.0927
10713PP      PP20817   5.117   7.759   2.242 -0.2698 -0.0135  0.0664
10714PP      PP20818   8.487   8.759   2.195  0.1890 -0.3285 -0.2449
10715PP      PP20819   4.602   0.982  13.039  0.2537 -0.0131 -0.1344
10716PP      PP20820   9.531   2.701   2.660  0.0479 -0.0943  0.1190
10717PP      PP20821  10.292   2.858   9.499  0.0005  0.0594 -0.4307
10718PP      PP20822  15.578   9.251   2.236  0.0761  0.0737  0.2044
10719PP      PP20823   0.770   9.779   9.188  0.1609  0.4578 -0.3008
10720PP      PP20824   3.349  14.559   3.697 -0.0370 -0.0737  0.4586
10721PP      PP20825   1.809   7.434   1.741  0.1522  0.0659  0.1890
10722PP      PP20826  12.008   8.574  12.413  0.0074 -0.1179  0.0123
10723PP      PP20827   0.812  10.841   0.410  0.0832 -0.1789 -0.0666
10724PP      PP20828  11.165   6.175  12.905 -0.2174 -0.0525 -0.1636
10725PP      PP20829   9.566  14.838  13.589  0.1375  0.1037  0.1460
10726PP      PP20830   7.041   0.364  10.608 -0.0251  0.0765 -0.1357
10727PP      PP20831   4.607   2.976  13.557  0.2641  0.1917 -0.3131
10728PP      PP20832   9.385  14.462   1.134  0.1872 -0.1541 -0.0521
10729PP      PP20833  15.193   5.873   0.620  0.1810  0.0013 -0.0973
10730PP      PP20834  14.060  13.717   0.204  0.0043  0.0304 -0.0647
10731PP      PP20835   6.994   1.968   2.625 -0.0679  0.0122 -0.1507
10732PP      PP20836  10.152   5.550  10.400 -0.1219 -0.2129 -0.0084
10733PP      PP20837   0.882  11.119  10.822 -0.0134  0.3189 -0.0087
10734PP      PP20838   0.001  10.541  13.229  0.1753 -0.1250  0.0998
10735PP      PP20839   3.705   7.731  11.843 -0.2329 -0.0782  0.3884
10736PP      PP20840  14.822   3.453  11.605 -0.3506 -0.0355  0.3649
10737PP      PP20841   6.441   4.837  12.664  0.1037  0.3699 -0.1290
10738PP      PP20842  11.661  10.263   4.355  0.1095 -0.1257  0.0786
10739PP      PP20843  13.143   1.850  13.288  0.3886  0.0813 -0.1416
10740PP      PP20844   1.232  14.666   2.808 -0.0868 -0.1617 -0.0559
10741PP      PP20845   5.316  10.201  13.449  0.1192  0.0038  0.1797
10742PP      PP20846   7.058   6.597  10.177  0.1781 -0.1803 -0.2285
10743PP      PP20847   8.893   2.410  10.163 -0.0134  0.2997 -0.0584
10744PP      PP20848  14.394  14.072   1.993 -0.0025 -0.0794  0.3713
10745PP      PP20849  13.749   8.515   3.349  0.1324 -0.1106  0.1615
10746PP      PP20850   5.989   1.645  11.227  0.2575 -0.0490  0.1150
10747PP      PP20851   9.248   5.911   2.220 -0.2679  0.1685  0.0410
10748PP      PP20852   5.994  13.090  10.468  0.3974  0.0273 -0.0888
10749PP      PP20853  13.418   0.161   3.972 -0.3709 -0.1285 -0.0971
10750PP      PP20854   9.351   2.368   9.911  0.2262 -0.2074 -0.0693
10751PP      PP20855   4.839   9.315   2.530  0.2258  0.1710 -0.3032
10752PP      PP20856   3.852   0.837   3.551 -0.1659 -0.2075  0.0215
10753PP      PP20857   9.873   0.807  12.489 -0.1273  0.1237 -0.0192
10754PP      PP20858  15.328   2.192   0.840 -0.3456  0.1129  0.1326
10755PP      PP20859  12.565   2.621   2.399 -0.0974 -0.0000 -0.0149
10756PP      PP20860  10.481   1.753  12.663  0.2474 -0.0277  0.0851
10757PP      PP20861   3.447  10.528   3.262 -0.0365  0.1154  0.5385
10758PP      PP20862   9.823   5.872  10.753 -0.0532  0.1437 -0.0290
10759PP      PP20863   4.654   2.414   1.181 -0.1479  0.1934  0.0155
10760PP      PP20864   9.175  14.879   3.488 -0.0199  0.1280 -0.0198
10761PP      PP20865   7.090  13.508   4.350  0.0010 -0.0159  0.1440
10762PP      PP20866   6.858  10.925   2.548 -0.1653 -0.2294 -0.1691
10763PP      PP20867   0.267   3.491   3.111  0.0927  0.0598 -0.1626
10764PP      PP20868  15.299  14.178  10.762  0.1637  0.1860  0.0718
10765PP      PP20869   9.866   3.814   0.642  0.0361 -0.0756 -0.0573
10766PP      PP20870  15.154   2.920   1.783  0.2092 -0.0384  0.1893
10767PP      PP20871  13.877   6.152  12.470  0.0962 -0.2827  0.1339
10768PP      PP20872  10.352  10.211   5.664  0.4399  0.2171 -0.0495
10769PP      PP20873   3.439   4.267  12.097  0.1564 -0.1750 -0.0557
10770PP      PP20874   2.285   8.099  11.085  0.1198 -0.0826  0.1660
10771PP      PP20875   6.517   4.824   2.173  0.0866  0.2153  0.0963
10772PP      PP20876   1.700   4.824   0.971  0.0865 -0.2121 -0.3473
10773PP      PP20877   5.888   8.101   9.773  0.3976  0.2513 -0.3693
10774PP      PP20878   1.443  12.892  12.629  0.0800  0.3968 -0.0263
10775PP      PP20879  10.732  14.827  10.850  0.0484 -0.2996  0.1384
10776PP      PP20880   3.576   6.304  10.452  0.1133  0.1574  0.1417
10777PP      PP20881   0.539  11.806  11.207 -0.0158 -0.1060 -0.0854
10778PP      PP20882   9.392  12.632   2.215 -0.3833  0.0925 -0.2237
10779PP      PP20883  10.915  14.550  12.169  0.1005 -0.2409  0.1659
10780PP      PP20884   1.861   2.407   1.622  0.0502  0.2214  0.0594
10781PP      PP20885   4.042   6.707   9.901  0.3629 -0.0927  0.1165
10782PP      PP20886  10.217  10.822  12.911  0.0652 -0.0998  0.1389
10783PP      PP20887   3.017  12.550   9.630 -0.1211  0.0913 -0.3263
10784PP      PP20888   4.667   6.745   3.865 -0.0481  0.0665 -0.3377
10785PP      PP20889   4.784   3.655   3.240  0.1765  0.0719 -0.0955
10786PP      PP20890   7.255   5.309   3.008 -0.3366  0.1274  0.0490
10787PP      PP20891   5.485   1.487   9.422 -0.0014  0.1082  0.2550
10788PP      PP20892  13.217   8.851  10.028 -0.1589  0.0059  0.1175
10789PP      PP20893   9.358  12.111   1.269  0.0702  0.2484  0.3309
10790PP      PP20894   5.294  14.568  11.181 -0.1396 -0.3471  0.0510
10791PP      PP20895   5.025  14.101   4.121  0.1053  0.0500 -0.1151
10792PP      PP20896  15.256   8.081   1.329  0.0251 -0.2326 -0.0384
10793PP      PP20897   9.300   3.616  12.408  0.0455  0.1927  0.1471
10794PP      PP20898   0.759   9.530   0.796  0.0524 -0.1045  0.3091
10795PP      PP20899   3.827  14.034   1.458  0.0540 -0.0941  0.1069
10796PP      PP20900  12.866  15.328  12.718  0.1706  0.4302  0.0607
10797PP      PP20901   0.578  11.026   2.288  0.1498 -0.1107 -0.0368
10798PP      PP20902  14.916   3.964  11.259 -0.2816 -0.0195 -0.0206
10799PP      PP20903   8.707   4.189  13.731  0.0156  0.2434 -0.0631
10800PP      PP20904  15.392  12.708  12.020 -0.3961  0.1463  0.0796
10801PP      PP20905   3.409  15.437  13.558 -0.0817 -0.1549 -0.0831
10802PP      PP20906  11.607  11.579  11.043 -0.3199 -0.1646  0.0591
10803PP      PP20907   6.772  11.462  10.061 -0.2485 -0.3178  0.0127
10804PP      PP20908  15.418   2.115   8.792  0.0416 -0.0104 -0.0070
10805PP      PP20909   0.777  12.965   3.867  0.0743  0.2173 -0.3636
10806PP      PP20910   6.213  11.239   5.124 -0.0305  0.1515 -0.0556
10807PP      PP20911   8.577   9.010   3.245 -0.0818  0.0936  0.0494
10808PP      PP20912  13.196   8.173   4.145  0.0487 -0.1014 -0.0742
10809PP      PP20913   3.254  15.064   3.739 -0.4402  0.1570  0.1230
10810PP      PP20914   5.226   9.703  13.442  0.0537  0.2968  0.0002
10811PP      PP20915   4.313  12.710   0.971 -0.2620 -0.0383 -0.4379
10812PP      PP20916   0.311   1.316   0.734 -0.0947 -0.1251 -0.0214
10813PP      PP20917  11.726   6.235   4.217 -0.1307  0.1851 -0.2292
10814PP      PP20918  14.475   9.635  11.447  0.1178 -0.1630 -0.0653
10815PP      PP20919   0.743  14.696   8.822  0.2122 -0.0046  0.1512
10816PP      PP20920   1.511  15.233   2.490  0.1051  0.2406 -0.1356
10817PP      PP20921  10.723  12.714   3.626  0.0307 -0.3619 -0.3220
10818PP      PP20922  12.150   9.895   1.463  0.2448 -0.0248 -0.3002
10819PP      PP20923   7.312   4.540   3.310 -0.0239 -0.1031 -0.2536
10820PP      PP20924   5.938  10.101   1.577 -0.2383 -0.0119  0.0140
10821PP      PP20925   1.131  14.739   3.757 -0.3409  0.2155  0.0368
10822PP      PP20926   7.800  13.678   9.621 -0.2973  0.1865 -0.0100
10823PP      PP20927   3.449   5.051   1.969 -0.0605 -0.0092 -0.1144
10824PP      PP20928  12.333   6.302  11.585 -0.3199 -0.0635 -0.0729
10825PP      PP20929   0.053  14.122   4.791  0.0765 -0.0770  0.1069
10826PP      PP20930   5.441  14.892  12.785  0.0283 -0.0216 -0.1622
10827PP      PP20931  10.198   0.239  12.656  0.1626 -0.1061 -0.2420
10828PP      PP20932  12.638   9.253   3.962  0.1630  0.0352  0.1660
10829PP      PP20933  15.164   0.104  13.697  0.0217 -0.1738  0.1762
10830PP      PP20934  13.809   6.923   9.965 -0.1612 -0.0543  0.2024
10831PP      PP20935   7.060   5.751   9.105 -0.3154  0.1307 -0.1002
10832PP      PP20936   3.905   3.323   1.836  0.1871  0.0051 -0.3577
10833PP      PP20937   3.881  10.384   4.357  0.1330 -0.0931  0.0241
10834PP      PP20938   9.851   9.269  11.331  0.5495  0.0821 -0.1420
10835PP      PP20939  12.365  12.828   3.515 -0.0379  0.1693 -0.0147
10836PP      PP20940  15.234  13.826   4.322 -0.0698 -0.0788 -0.2205
10837PP      PP20941   0.453   6.654  11.084  0.2102  0.1338 -0.3717
10838PP      PP20942  10.663  10.922   2.860  0.1853 -0.0446  0.1591
10839PP      PP20943   0.587   0.129  12.729 -0.1614 -0.0937  0.3806
10840PP      PP20944   2.580  13.051   2.560  0.1345  0.2980 -0.0033
10841PP      PP20945  15.553   8.044  13.506 -0.0450 -0.1501  0.1114
10842PP      PP20946   5.794  14.006  11.573  0.0921  0.1909  0.1840
10843PP      PP20947  13.942   1.933   1.649 -0.2233  0.2788  0.1063
10844PP      PP20948  10.309  10.678  12.438  0.1375  0.0516 -0.0194
10845PP      PP20949  15.146  10.163   3.460  0.2919 -0.2526 -0.1565
10846PP      PP20950  11.422   0.211  11.993  0.1176  0.4047 -0.1317
10847PP      PP20951   0.137   8.764  11.864 -0.3074 -0.1005  0.0552
10848PP      PP20952   7.550   7.427   0.704  0.0578  0.0473  0.0362
10849PP      PP20953  15.079  13.127   3.468 -0.0348 -0.1768 -0.0502
10850PP      PP20954   3.218   9.201  10.368 -0.0117  0.0553 -0.2818
10851PP      PP20955   0.060   6.440   1.106  0.0140  0.1899 -0.0066
10852PP      PP20956   8.488   8.897   0.365 -0.1555 -0.0219 -0.2080
10853PP      PP20957   2.509   9.304   1.111 -0.1374  0.4883 -0.0570
10854PP      PP20958   0.940   0.223  10.748 -0.0258 -0.2641 -0.3194
10855PP      PP20959   6.964  12.204  13.079 -0.0355 -0.1647 -0.3372
10856PP      PP20960   3.934  14.856   3.063  0.4020  0.2155  0.1465
10857PP      PP20961  14.082  10.647  12.743 -0.1888 -0.0152 -0.0208
10858PP      PP20962  10.141   1.008   0.034 -0.2491 -0.1473  0.0572
10859PP      PP20963   8.227  14.057   0.637 -0.0946  0.0987  0.2020
10860PP      PP20964  13.548   8.484   2.897 -0.0643 -0.2638  0.4745
10861PP      PP20965  14.009   5.529   1.732  0.1080  0.1712  0.3558
10862PP      PP20966   0.763   4.503   4.269 -0.3401  0.2888 -0.1414
10863PP      PP20967  14.318  13.776   1.222 -0.2062 -0.0962  0.1186
10864PP      PP20968   2.222  12.546  12.265 -0.0535 -0.0825  0.2286
10865PP      PP20969  14.732  15.592   0.752  0.0324 -0.0880 -0.2404
10866PP      PP20970  12.026  10.136  11.372 -0.0817  0.1252  0.0059
10867PP      PP20971   6.779   6.157  10.491 -0.0166  0.0417  0.4028
10868PP      PP20972   2.609  13.580   0.274 -0.1287  0.0580 -0.1289
10869PP      PP20973  14.212   3.047  12.272  0.3142  0.1710 -0.0855
10870PP      PP20974  12.351  11.472   2.816 -0.0099  0.1312 -0.3740
10871PP      PP20975   1.648   0.742   3.098  0.1680  0.2093  0.2002
10872PP      PP20976  10.933   3.160   0.175  0.0803  0.0715 -0.0776
10873PP      PP20977   7.650   5.290  10.610 -0.0641 -0.1496 -0.2647
10874PP      PP20978   5.898   3.864  11.738  0.3917  0.2119 -0.0243
10875PP      PP20979   5.927   3.998   0.223  0.2005 -0.1738 -0.1971
10876PP      PP20980  12.746  14.240  12.649  0.0800 -0.3132  0.2245
10877PP      PP20981   4.431   2.117   2.210 -0.0764 -0.2193  0.2228
10878PP      PP20982   6.390   6.532  12.465  0.0203  0.2262  0.2466
10879PP      PP20983   8.627   8.255   9.870  0.2479 -0.0717 -0.2046
10880PP      PP20984   6.367   9.760   0.323 -0.4481 -0.2570  0.1559
10881PP      PP20985   5.643   6.883   3.222 -0.0288 -0.2608 -0.1340
10882PP      PP20986   8.296   3.085   3.134 -0.0444  0.3902 -0.1683
10883PP      PP20987   4.323   3.324   9.390 -0.0762  0.0219 -0.1403
10884PP      PP20988   5.729  10.746  10.967 -0.0148  0.1984 -0.1214
10885PP      PP20989  10.921  12.563   5.035  0.1445  0.0822  0.2005
10886PP      PP20990   1.286   0.318  11.380  0.1116 -0.2460 -0.2594
10887PP      PP20991  11.121  11.895   0.325 -0.1433  0.0573 -0.1589
10888PP      PP20992  11.997   6.509   0.425  0.0929 -0.2250 -0.1022
10889PP      PP20993   3.994   4.791  12.831 -0.1817 -0.2628  0.0096
10890PP      PP20994  12.654  11.465  11.703  0.0003  0.0831  0.1496
10891PP      PP20995   1.700  15.617  11.952  0.0660 -0.2867 -0.1578
10892PP      PP20996  13.074   9.385   3.296 -0.2696  0.1062  0.1137
10893PP      PP20997  15.016  14.840   8.650  0.0129  0.1595 -0.1037
10894PP      PP20998  13.091   4.015   0.448  0.2661 -0.0828  0.1237
10895PP      PP20999   9.890   0.338  10.356 -0.1021 -0.0811  0.0358
10896PP      PP21000  14.481  12.129   4.197  0.1445 -0.0647 -0.2257
10897PP      PP21001  11.690  12.505  10.230  0.2117 -0.1276 -0.1692
10898PP      PP21002   7.321  13.496   9.327 -0.1928 -0.0932  0.0192
10899PP      PP21003  15.575   6.980  13.670  0.1886  0.0328 -0.0602
10900PP      PP21004   8.179  12.493   1.854  0.0270 -0.0586  0.0268
10901PP      PP21005   5.425  13.528   4.195 -0.0420 -0.2322  0.0233
10902PP      PP21006   3.109   7.260  10.401  0.0188 -0.3471 -0.0121
10903PP      PP21007  10.760   8.715  11.601  0.1827  0.0299  0.1032
10904PP      PP21008  12.602   5.152  10.932  0.0609  0.3042 -0.0416
10905PP      PP21009   8.479   3.541   0.566 -0.2369 -0.2098 -0.2547
10906PP      PP21010   4.975  12.204  11.503 -0.0710 -0.2522 -0.0868
10907PP      PP21011  10.936  13.289   3.725 -0.0768 -0.1117 -0.0753
10908PP      PP21012   2.881  13.704   9.914 -0.1430 -0.2544 -0.5464
10909PP      PP21013   4.354   9.664   2.759 -0.2677 -0.1135  0.0375
10910PP      PP21014   2.473   2.991   1.856 -0.1163  0.3449 -0.3243
10911PP      PP21015   5.037  11.894   3.086  0.0952  0.0463 -0.2622
10912PP      PP21016   5.435  15.655   1.195  0.0782 -0.3309 -0.2887
10913PP      PP21017  14.302  11.248  10.700  0.0012 -0.0353 -0.1310
10914PP      PP21018   8.520   6.513   8.402 -0.3097 -0.0175  0.1886
10915PP      PP21019  14.002   4.864   0.486  0.1980  0.0081  0.1219
10916PP      PP21020   7.398   4.564   7.904  0.3943 -0.1623 -0.2245
10917PP      PP21021   1.393   2.187  12.166 -0.2560 -0.0813  0.1013
10918PP      PP21022   4.911   7.711  12.213  0.0891 -0.1370  0.2507
10919PP      PP21023  14.643   6.540   4.641 -0.2473 -0.0716  0.2711
10920PP      PP21024  10.068   8.177   2.254  0.1199  0.4176  0.0397
10921PP      PP21025   8.233  13.244   0.633  0.0078 -0.1587  0.2736
10922PP      PP21026   1.512  15.454   1.386  0.0069  0.1978  0.1511
10923PP      PP21027   5.147   5.941  12.048 -0.0506  0.0800  0.0775
10924PP      PP21028  13.508   3.652   3.083  0.1977  0.3660 -0.0455
10925PP      PP21029   3.277   5.817   1.480  0.0328  0.1480  0.1781
10926PP      PP21030  13.001   2.850  10.479 -0.1362  0.3864  0.0501
10927PP      PP21031   0.753  15.230   2.579 -0.2567  0.0867 -0.2671
10928PP      PP21032   6.347   5.605   2.914  0.0036 -0.2777  0.2227
10929PP      PP21033   2.315  15.615  11.699 -0.0632  0.1764 -0.2218
10930PP      PP21034   8.549   5.001   3.093  0.1119  0.0336  0.0668
10931PP      PP21035   3.735  11.201   3.521  0.1824 -0.0255  0.2705
10932PP      PP21036   5.335   4.563   1.560  0.1402 -0.0167 -0.0656
10933PP      PP21037   2.007   5.592   1.651 -0.2880  0.0123 -0.1019
10934PP      PP21038   0.587   4.299   3.748  0.0137 -0.1416 -0.0044
10935PP      PP21039   8.981   5.725   3.139 -0.0641 -0.3849  0.0274
10936PP      PP21040   2.424  12.939  12.803 -0.1175  0.1719 -0.2593
10937PP      PP21041   0.460  11.279   3.357 -0.0767  0.0799 -0.3700
10938PP      PP21042   1.802   1.376  12.886 -0.0322  0.0004 -0.0864
10939PP      PP21043   8.355   6.668  11.387  0.1829  0.1743  0.1896
10940PP      PP21044  10.532   9.679   4.664  0.2269 -0.0934  0.2231
10941PP      PP21045  10.744   0.072  12.437 -0.3690 -0.0758  0.2420
10942PP      PP21046   2.832   5.370  10.302 -0.2515 -0.4402 -0.0805
10943PP      PP21047   7.323   4.415   1.608 -0.2338  0.2079  0.2091
10944PP      PP21048   3.095   8.583   0.624  0.1660 -0.1057 -0.0902
10945PP      PP21049   5.062  11.935  13.488  0.0824 -0.1863  0.1293
10946PP      PP21050   2.629   4.252  12.868 -0.1397  0.0689 -0.0471
10947PP      PP21051   5.891   4.753   2.831  0.0719  0.1698 -0.2728
10948PP      PP21052  11.119   9.899   5.376  0.1905 -0.2109  0.1324
10949PP      PP21053  10.038   6.534   0.255  0.3099  0.0861 -0.1156
10950PP      PP21054  15.369  13.929   0.137 -0.1292  0.1173 -0.0922
10951PP      PP21055  14.240  12.636   3.542 -0.2345 -0.4057 -0.2766
10952PP      PP21056  10.444   8.564   1.282  0.0038  0.0139  0.1905
10953PP      PP21057   2.354  11.035  11.274 -0.1186 -0.1523 -0.1682
10954PP      PP21058   5.219  14.651  13.741  0.2976 -0.0707  0.1639
10955PP      PP21059   0.013   4.474   3.423 -0.0107 -0.0482  0.2287
10956PP      PP21060   1.298   2.205  11.643 -0.0156  0.1433  0.2004
10957PP      PP21061   8.763   0.144   2.293 -0.2896  0.0235  0.1560
10958PP      PP21062  15.412   7.447  13.358 -0.1342 -0.1261  0.2082
10959PP      PP21063   4.132  14.227   3.779 -0.3773 -0.1718  0.0624
10960PP      PP21064   9.295   3.307   1.532  0.0044  0.2418 -0.2669
10961PP      PP21065   9.654   0.284   8.860 -0.0113 -0.1979 -0.1697
10962PP      PP21066   3.398  12.446   9.370 -0.1043  0.1044 -0.2287
10963PP      PP21067   0.422   3.256   0.244 -0.4812 -0.0581  0.0985
10964PP      PP21068   7.014  14.245   2.645  0.1721 -0.0814 -0.1131
10965PP      PP21069   8.134  11.582  11.867 -0.1508  0.3381 -0.1499
10966PP      PP21070   0.684  12.933   9.355  0.3357 -0.0892  0.0860
10967PP      PP21071   0.403  13.853  11.861 -0.1504 -0.1357 -0.0332
10968PP      PP21072   3.827   8.853   1.100  0.2421  0.2238 -0.2001
10969PP      PP21073  10.448   1.815   8.421  0.0345 -0.1160  0.0919
10970PP      PP21074   4.719  10.414   0.438  0.0395 -0.1060  0.0266
10971PP      PP21075   8.134   5.273   2.641 -0.0162  0.0350  0.4389
10972PP      PP21076  13.664  13.793   0.585 -0.0505  0.3203 -0.0820
10973PP      PP21077   8.972   2.880  12.604 -0.3566 -0.2034 -0.0952
10974PP      PP21078   1.650   1.260  13.429  0.0875 -0.1176  0.1932
10975PP      PP21079   1.411  11.573   0.097 -0.1691 -0.1584  0.2065
10976PP      PP21080   6.510   6.090  11.972  0.1805 -0.2461  0.1261
10977PP      PP21081  13.544  12.586  11.806  0.0777 -0.0516 -0.1891
10978PP      PP21082  12.693   0.738   9.300  0.0730 -0.2904  0.1053
10979PP      PP21083  12.095   8.538   2.705 -0.2159 -0.0502 -0.1512
10980PP      PP21084   1.029   0.556  13.444  0.0120 -0.0907  0.0598
10981PP      PP21085  13.525  15.351   2.898 -0.0908 -0.1536  0.0469
10982PP      PP21086   1.817   2.245  11.841  0.0710  0.1431  0.1330
10983PP      PP21087  13.331   1.850   3.939 -0.4126 -0.0034  0.0561
10984PP      PP21088  12.245  11.748  12.008 -0.2130  0.0177 -0.0153
10985PP      PP21089   1.289   4.456   1.159  0.1352  0.2741 -0.1064
10986PP      PP21090   4.754   7.064  10.295 -0.0094  0.2710  0.2213
10987PP      PP21091  12.108   9.330   4.090 -0.3472 -0.0402 -0.0648
10988PP      PP21092   0.463   3.080   8.843 -0.1234 -0.0605 -0.2379
10989PP      PP21093  10.457  13.634   3.656 -0.1214  0.0862 -0.0556
10990PP      PP21094  12.689   4.583   2.493 -0.1157  0.0579  0.0972
10991PP      PP21095   0.899  14.396  12.646  0.1480 -0.2126  0.2757
10992PP      PP21096   2.366   6.175   9.884  0.1968 -0.2983 -0.1024
10993PP      PP21097  13.984  10.980  10.916  0.1005 -0.0706  0.0276
10994PP      PP21098   8.704  14.500  11.764  0.0283  0.2657 -0.4841
10995PP      PP21099   0.120   7.234   3.107  0.0518 -0.1029  0.0340
10996PP      PP21100   5.198   0.697   8.350 -0.1692 -0.0499 -0.0933
10997PP      PP21101   7.838   3.860   2.294 -0.0503  0.0425 -0.0552
10998PP      PP21102  12.354  12.298   2.939 -0.2318  0.1132 -0.2860
10999PP      PP21103   5.330   5.590  10.696  0.0912  0.1205 -0.0612
11000PP      PP21104   4.046   3.583  12.351 -0.0930  0.0406  0.0449
11001PP      PP21105  10.454   5.690   0.547  0.2093 -0.1004  0.1369
11002PP      PP21106   1.613   8.470   0.233 -0.0764  0.0217  0.1293
11003PP      PP21107  11.844   9.358  11.633  0.0388 -0.0264  0.6595
11004PP      PP21108   9.755   6.930   1.761 -0.1388  0.1365  0.0383
11005PP      PP21109  14.990  15.154  10.605  0.1200  0.0594  0.2485
11006PP      PP21110  14.669   5.656  12.106  0.1709 -0.0722 -0.2097
11007PP      PP21111   9.225  10.163  10.401 -0.3563 -0.2220 -0.1276
11008PP      PP21112  13.037  11.861   4.507  0.0324 -0.2588  0.0328
11009PP      PP21113   7.339   1.050   1.186  0.0155 -0.1541 -0.2866
11010PP      PP21114  12.777   8.343  11.027  0.1603 -0.1083 -0.3363
11011PP      PP21115   0.231  11.855   9.366  0.0813 -0.1522  0.0546
11012PP      PP21116   4.029   1.983   1.464  0.1969  0.0304 -0.1298
11013PP      PP21117   8.469  12.198  10.648 -0.1176  0.0659  0.2334
11014PP      PP21118   3.906  11.867  13.689  0.0086 -0.3102  0.0002
11015PP      PP21119   1.121   2.420   4.355 -0.1170  0.0857 -0.0228
11016PP      PP21120   7.524   7.168   0.202 -0.2577  0.1005 -0.1787
11017PP      PP21121  14.048   7.644   2.874 -0.1278 -0.0554  0.4709
11018PP      PP21122   9.220   0.005   9.637  0.2862  0.0381 -0.3513
11019PP      PP21123   5.809  11.327  10.402 -0.2766  0.1962 -0.2939
11020PP      PP21124  11.689   8.183   1.713  0.0539 -0.1659 -0.2739
11021PP      PP21125  14.671   9.130   3.119 -0.2190 -0.2234  0.1255
11022PP      PP21126   4.113   7.756  10.090  0.1923 -0.0260 -0.0865
11023PP      PP21127   1.470   0.589   0.989  0.0970  0.0428 -0.1875
11024PP      PP21128  12.641  14.454  11.214 -0.0263 -0.3026 -0.3288
11025PP      PP21129   4.818   8.423   1.560  0.0414  0.0693  0.0479
11026PP      PP21130  12.935   8.488   2.373  0.0201 -0.1193 -0.2852
11027PP      PP21131   8.159   3.692   8.333  0.1195 -0.1595 -0.0950
11028PP      PP21132  10.888   8.968   1.338 -0.1122 -0.4323  0.3339
11029PP      PP21133   3.820   1.873   2.022 -0.3345 -0.3084  0.1088
11030PP      PP21134  10.266   2.194  10.239 -0.0668  0.1755 -0.0739
11031PP      PP21135   6.793  12.052  10.208  0.5329 -0.1940 -0.0412
11032PP      PP21136  14.106   5.917  11.910 -0.1263  0.0626  0.0601
11033PP      PP21137  11.736   7.770   2.084  0.0107  0.1721  0.0177
11034PP      PP21138  15.507   7.185   1.992 -0.3511  0.3180  0.0375
11035PP      PP21139   3.926  13.495   0.925 -0.0168  0.1480  0.0474
11036PP      PP21140   0.039  15.664   4.329 -0.0994 -0.1169  0.1111
11037PP      PP21141   9.967   7.533   4.710 -0.0138 -0.3313  0.2035
11038PP      PP21142  13.939   9.619  13.472 -0.0525 -0.0170  0.2534
11039PP      PP21143   1.599   3.923  10.249  0.4075  0.0582  0.1409
11040PP      PP21144   8.485   4.533   9.152  0.2542  0.1948 -0.2424
11041PP      PP21145  12.368   4.146  12.362 -0.2061  0.0765 -0.2287
11042PP      PP21146  11.993  13.775   2.564  0.1826 -0.0758 -0.2645
11043PP      PP21147   8.223  10.734   4.642 -0.2525 -0.0323  0.1630
11044PP      PP21148   0.491   5.956   3.979  0.1280 -0.1988  0.0520
11045PP      PP21149   3.368  10.772   9.775  0.1150  0.0865  0.1976
11046PP      PP21150   5.935  12.902  11.546 -0.1739 -0.1657  0.1541
11047PP      PP21151   7.520   8.537  12.866 -0.1076  0.0394 -0.2556
11048PP      PP21152  11.735   5.650   3.308 -0.1739 -0.3181  0.7281
11049PP      PP21153  14.076   7.723   4.925  0.3059  0.1122 -0.1187
11050PP      PP21154  11.463   3.780  10.464  0.0527  0.0991 -0.2229
11051PP      PP21155  14.415  12.592   4.058 -0.0986 -0.1031 -0.0839
11052PP      PP21156   4.272   4.656   9.904  0.3769  0.0552  0.1592
11053PP      PP21157  11.136  15.400  13.213  0.2283 -0.2560  0.3040
11054PP      PP21158  11.947   2.981   0.794 -0.2542  0.1551 -0.2618
11055PP      PP21159   1.604   5.257   9.031  0.0265  0.0184  0.0093
11056PP      PP21160   7.271  14.025  12.236 -0.1350  0.1287  0.1163
11057PP      PP21161  12.393  11.044   3.533  0.0439  0.0841 -0.1533
11058PP      PP21162   3.867  15.118  13.032  0.1454 -0.2199 -0.0459
11059PP      PP21163   7.612  14.908   3.835 -0.0108  0.2163 -0.0667
11060PP      PP21164  11.064  13.350   0.143  0.2313  0.0594 -0.3044
11061PP      PP21165   6.672   3.113  10.479  0.2169 -0.3499  0.0343
11062PP      PP21166   3.205  12.652   4.167 -0.0140 -0.0908 -0.1490
11063PP      PP21167   1.305   0.842   0.559 -0.4212  0.1237  0.1273
11064PP      PP21168  14.796  14.287   0.394 -0.1013  0.0706 -0.1505
11065PP      PP21169  12.627   0.276  12.157  0.2121 -0.0104 -0.3553
11066PP      PP21170   9.299  11.016  11.729  0.1930  0.1579 -0.0654
11067PP      PP21171   6.520  15.364   3.285  0.2467 -0.2912  0.0106
11068PP      PP21172   9.449  15.562  12.572 -0.1244  0.3543 -0.0878
11069PP      PP21173  13.541   3.826   1.611 -0.3042  0.3150 -0.2495
11070PP      PP21174   5.566  11.908  13.585 -0.5869  0.1291 -0.0044
11071PP      PP21175   9.080   3.638   7.932  0.1522 -0.1765  0.1370
11072PP      PP21176   6.272   5.792  11.185 -0.1136  0.2508  0.4075
11073PP      PP21177   7.480  13.948   2.817  0.0300  0.2850  0.1070
11074PP      PP21178   5.533  10.364  10.652  0.3439 -0.0930  0.0272
11075PP      PP21179  11.227   1.735  13.737 -0.0879 -0.0735 -0.0309
11076PP      PP21180  11.273   9.620   2.759  0.0453  0.0990 -0.1804
11077PP      PP21181  15.654   7.980   0.996 -0.0942  0.0177  0.1385
11078PP      PP21182   8.059   3.691   0.907  0.2551 -0.0184  0.1597
11079PP      PP21183  13.966   3.686   2.858  0.1265  0.1954 -0.0163
11080PP      PP21184   3.873  15.291   1.300 -0.1855  0.2005 -0.3170
11081PP      PP21185  13.503   8.837   4.243 -0.0072  0.2060  0.1235
11082PP      PP21186   0.953   7.704  13.409  0.0018  0.2523  0.2789
11083PP      PP21187   5.147  12.423   3.424  0.2027  0.0432  0.0265
11084PP      PP21188  11.401  15.234   3.724 -0.1231  0.1963 -0.0074
11085PP      PP21189   9.187   1.846   3.753  0.0066  0.0755  0.3301
11086PP      PP21190  12.056  10.331   5.226  0.4040  0.2714 -0.0739
11087PP      PP21191   0.291   1.069  12.402 -0.2220 -0.0651 -0.0905
11088PP      PP21192   6.826   0.227   1.299  0.0869 -0.2500 -0.3636
11089PP      PP21193  14.454   1.222  10.752 -0.1718 -0.0190 -0.0536
11090PP      PP21194  10.674   2.591   0.185  0.0577 -0.1729  0.4866
11091PP      PP21195  11.560   9.290  13.723 -0.0786  0.1178  0.2152
11092PP      PP21196  10.481  11.430  13.694  0.0134 -0.0257  0.1658
11093PP      PP21197   0.430   2.962   1.910 -0.3169  0.4143  0.0477
11094PP      PP21198   5.129  11.549   2.723 -0.3849  0.4815  0.1558
11095PP      PP21199   6.316  13.971  11.114 -0.0715  0.0583  0.1628
11096PP      PP21200   9.621   6.289   3.305  0.5199  0.0376 -0.1947
11097PP      PP21201  12.670   6.326   0.345  0.1498  0.2158  0.0108
11098PP      PP21202  13.918  12.097  12.461 -0.2339 -0.3184 -0.0716
11099PP      PP21203   0.020   4.695   4.510  0.5350  0.0069  0.1622
11100PP      PP21204  10.341   0.116  12.177  0.1636 -0.2619  0.1682
11101PP      PP21205   7.817   5.805   8.342  0.0692 -0.1128  0.0101
11102PP      PP21206   0.081  10.968  10.838 -0.2275  0.1329 -0.0287
11103PP      PP21207   1.392   9.761  13.235 -0.1103  0.2777  0.0098
11104PP      PP21208   7.179   0.422  13.708  0.0820 -0.3340  0.3510
11105PP      PP21209  12.805  11.797   2.202 -0.1627  0.1266 -0.2763
11106PP      PP21210   6.204   4.207   8.382  0.0673 -0.0539 -0.2090
11107PP      PP21211   2.306   9.869  13.121  0.1010  0.0560 -0.1590
11108PP      PP21212   5.145   1.473   3.510  0.2099 -0.2013 -0.0357
11109PP      PP21213  12.803   0.289   2.792 -0.1155 -0.1173 -0.1933
11110PP      PP21214   1.951  10.506  11.436 -0.1503 -0.2505 -0.1290
11111PP      PP21215  12.201  12.325   3.854  0.1448  0.2419  0.1508
11112PP      PP21216  10.906   2.295   3.024 -0.3657  0.1598 -0.0869
11113PP      PP21217   3.877   9.465  13.663 -0.2526  0.0016 -0.1546
11114PP      PP21218  10.003   2.476   9.727  0.0946 -0.0358 -0.2762
11115PP      PP21219   1.913   5.835   3.542  0.0172 -0.0075 -0.1571
11116PP      PP21220   8.940   0.610  12.910  0.1230 -0.1612 -0.2397
11117PP      PP21221   3.714   7.884   1.613 -0.0596 -0.0159  0.0963
11118PP      PP21222   7.227  13.295  11.261 -0.1320 -0.4920  0.1908
11119PP      PP21223  11.973  12.309   4.286 -0.1122 -0.2001  0.4184
11120PP      PP21224   3.943   4.269   1.548 -0.3089  0.0041 -0.3395
11121PP      PP21225   9.361  13.409  11.333 -0.0078 -0.0816  0.1656
11122PP      PP21226   6.031   4.712   9.683 -0.0233 -0.0485  0.1755
11123PP      PP21227   1.307  12.201   3.808  0.0445  0.2532  0.3413
11124PP      PP21228   6.719   2.884   0.608  0.1149  0.0297 -0.2268
11125PP      PP21229   2.596   5.787   2.119  0.1774  0.2153  0.0689
11126PP      PP21230   9.776   3.656  12.457 -0.1107 -0.1699  0.0697
11127PP      PP21231   3.923   2.402  10.137 -0.0223 -0.2843 -0.3670
11128PP      PP21232  12.831   0.728  10.392  0.3546 -0.0110 -0.0835
11129PP      PP21233  14.099  10.915   9.730  0.1066  0.5217 -0.0369
11130PP      PP21234   3.805  12.746  13.266  0.1529 -0.1218  0.1234
11131PP      PP21235   0.302  14.939   3.900  0.1811 -0.2553  0.2762
11132PP      PP21236   8.037  10.504   3.182 -0.1169  0.1411 -0.1906
11133PP      PP21237   2.213   6.769  10.672  0.1350  0.0567 -0.3605
11134PP      PP21238   0.685   9.338  10.519  0.1916  0.1957 -0.0540
11135PP      PP21239   4.174   8.023  11.666 -0.0242  0.0911  0.0232
11136PP      PP21240   7.047  13.932   9.288 -0.1778  0.2074 -0.2123
11137PP      PP21241   9.735  12.408   2.618 -0.3354  0.0394 -0.1584
11138PP      PP21242   9.508   5.485  11.208 -0.1689 -0.0274  0.0192
11139PP      PP21243   1.382   1.969  13.574 -0.0840 -0.0770 -0.1295
11140PP      PP21244  15.044  12.070   3.226 -0.1367 -0.2759 -0.1742
11141PP      PP21245   5.395  11.105  11.984 -0.2001  0.2173 -0.0803
11142PP      PP21246   7.728   2.977   9.615  0.0267 -0.1223 -0.2020
11143PP      PP21247  11.796   1.909   0.663 -0.1347 -0.1307  0.1309
11144PP      PP21248  14.023   8.530   2.495 -0.0892 -0.1683  0.0135
11145PP      PP21249   1.489   6.370   0.822  0.0345  0.1074  0.0561
11146PP      PP21250   3.414  15.263  12.524 -0.5125 -0.1761  0.4291
11147PP      PP21251   5.353  11.939  12.703  0.1089 -0.1562  0.0140
11148PP      PP21252   1.153  14.251  10.863 -0.2305  0.1893  0.0945
11149PP      PP21253   8.490   0.650   3.398 -0.2370  0.0522  0.2378
11150PP      PP21254   1.304  13.989   9.272 -0.0208  0.0273  0.0963
11151PP      PP21255  14.514   1.432   9.790 -0.1178  0.0013 -0.1126
11152PP      PP21256   8.411   4.212  12.283 -0.2091 -0.3655  0.2641
11153PP      PP21257   2.499  12.838   3.584 -0.1935  0.2001  0.1145
11154PP      PP21258  12.070  14.473  12.691 -0.1034  0.2051  0.0921
11155PP      PP21259  13.335  13.401   2.572 -0.1524  0.2060 -0.1179
11156PP      PP21260   6.627   9.286   3.382  0.0404  0.0079 -0.4951
11157PP      PP21261   1.495   8.059   8.556  0.2251  0.0620 -0.2031
11158PP      PP21262   4.305   3.496  10.139  0.0848 -0.4277 -0.2751
11159PP      PP21263   2.659  11.418   3.823  0.1371 -0.1336 -0.0749
11160PP      PP21264   6.379  11.028  12.723  0.0446  0.3154 -0.1029
11161PP      PP21265   1.831   0.044  11.081 -0.2986 -0.1459 -0.0134
11162PP      PP21266   7.108   0.283   0.820 -0.0090  0.2774 -0.1394
11163PP      PP21267   0.019   5.503   2.056  0.2169 -0.1488 -0.1091
11164PP      PP21268   3.064   5.341   0.608  0.0522 -0.1325 -0.0477
11165PP      PP21269   3.538   8.351  13.618 -0.0167  0.0034 -0.1911
11166PP      PP21270  10.660  11.039   4.839  0.1499  0.2381 -0.2174
11167PP      PP21271   8.755   5.574   0.140  0.0231  0.0697  0.1116
11168PP      PP21272  14.643  11.895   1.137 -0.1302 -0.3877  0.2204
11169PP      PP21273   3.025  13.432   1.172  0.0380  0.0391 -0.1608
11170PP      PP21274   6.133  10.937   4.728  0.1604  0.3376  0.3032
11171PP      PP21275   7.868   0.995   8.108  0.0223 -0.1192  0.2871
11172PP      PP21276   6.515  15.147  11.667 -0.0840 -0.0131 -0.1301
11173PP      PP21277  10.807   1.741   8.792  0.0814  0.1161  0.2314
11174PP      PP21278  14.290   9.174   3.774  0.0506 -0.0926  0.0544
11175PP      PP21279  10.204  15.189   2.513  0.0240 -0.2563  0.0510
11176PP      PP21280  11.922   7.114   0.468 -0.0423  0.2779  0.1962
11177PP      PP21281  14.648  14.785  10.540 -0.2295 -0.0606 -0.2538
11178PP      PP21282   6.932  10.393   1.726  0.4011 -0.2079  0.0068
11179PP      PP21283  12.367   9.009   2.675  0.2104 -0.3264  0.1603
11180PP      PP21284   3.231   7.764   3.295 -0.1354 -0.0477 -0.0552
11181PP      PP21285   9.868   9.130  13.122 -0.1046  0.1673 -0.0236
11182PP      PP21286   6.983   7.734  13.670 -0.2519 -0.4802  0.0515
11183PP      PP21287   5.638   5.436   9.767  0.2025  0.2695 -0.0663
11184PP      PP21288  14.122   5.355  10.626  0.0378 -0.1964  0.0681
11185PP      PP21289   3.323   8.111  12.276  0.4361  0.0101 -0.2597
11186PP      PP21290   3.320  11.194  12.647 -0.2748 -0.6254 -0.1690
11187PP      PP21291   0.120   5.333   3.043 -0.1684 -0.1282  0.3811
11188PP      PP21292  14.367   9.239  10.005  0.0977  0.2100  0.0526
11189PP      PP21293   5.670   5.122  10.611 -0.1130 -0.0445 -0.0884
11190PP      PP21294  14.972   8.116  10.747  0.0450  0.3354  0.1179
11191PP      PP21295   3.258   0.223   0.596 -0.0714  0.0603 -0.0815
11192PP      PP21296   2.897   7.194   0.866 -0.0540 -0.0137  0.0699
11193PP      PP21297  11.749   2.010  11.552  0.0381 -0.1971  0.0537
11194PP      PP21298   0.849  14.247   0.610 -0.0909 -0.1967 -0.1665
11195PP      PP21299   0.919  10.202   1.397 -0.0313 -0.1380 -0.2466
11196PP      PP21300   8.938   9.680  11.234 -0.0935  0.1780 -0.2301
11197PP      PP21301  15.558   5.259  10.320  0.0206 -0.0635  0.0930
11198PP      PP21302  14.792  10.236  11.124  0.1034  0.1776  0.1249
11199PP      PP21303   3.573   9.981  11.505  0.0270  0.2248 -0.0247
11200PP      PP21304   1.783   2.375  12.493  0.1610  0.1335 -0.0005
11201PP      PP21305   4.634  13.165   3.672  0.0475  0.3151  0.0907
11202PP      PP21306   2.906  11.496  12.562  0.1239 -0.0043  0.0502
11203PP      PP21307   3.919   7.983   1.178 -0.1212 -0.1281 -0.0809
11204PP      PP21308   5.881   1.560  12.090 -0.1871 -0.2255 -0.1117
11205PP      PP21309  14.388  15.518   9.574 -0.1003 -0.1433 -0.0176
11206PP      PP21310  15.471  13.857   8.256  0.0807 -0.0877  0.1478
11207PP      PP21311  15.312  15.424   2.606 -0.3316  0.2206 -0.1882
11208PP      PP21312   1.263  10.379  12.306 -0.1687 -0.0905 -0.0469
11209PP      PP21313   8.032   2.604   9.557  0.1789 -0.2002 -0.1515
11210PP      PP21314  11.283   5.346  12.785  0.2260  0.1158  0.1346
11211PP      PP21315   2.039   7.579   3.641  0.0256 -0.2921 -0.1113
11212PP      PP21316  14.861   4.237  12.015 -0.2725 -0.2323  0.1598
11213PP      PP21317   7.477   3.422   0.168  0.0416  0.1002  0.0462
11214PP      PP21318   8.792   4.754   2.674  0.2098  0.3911  0.0695
11215PP      PP21319   4.984   2.453   0.380  0.2228 -0.0518 -0.0687
11216PP      PP21320  15.244   0.038   3.080 -0.0060 -0.0638  0.2370
11217PP      PP21321   7.353   6.648   8.934 -0.2068  0.0900 -0.2355
11218PP      PP21322   6.243   0.198  11.146 -0.2290  0.1177  0.1913
11219PP      PP21323   6.408  14.291   3.515 -0.3530 -0.0766 -0.0430
11220PP      PP21324  15.268   8.478  13.537 -0.0772 -0.0777 -0.0562
11221PP      PP21325   8.220  12.920  10.198  0.0503  0.1494  0.0981
11222PP      PP21326   0.413   0.218   3.377  0.2985  0.3313  0.0869
11223PP      PP21327  10.688  14.895   2.405  0.0869  0.1568  0.2219
11224PP      PP21328  13.935   7.513  11.338  0.3010  0.0884 -0.3338
11225PP      PP21329   4.894   8.590   4.166  0.0723 -0.2270 -0.4836
11226PP      PP21330   6.745   5.262   0.503 -0.1285  0.0524 -0.1854
11227PP      PP21331   2.784   6.781   3.378  0.1605 -0.1287 -0.2056
11228PP      PP21332   4.807   0.490  12.845  0.3366 -0.0188  0.0293
11229PP      PP21333  14.391  13.693   4.431  0.0635 -0.0806 -0.0761
11230PP      PP21334  10.671  10.862  11.652  0.0019 -0.2868 -0.0666
11231PP      PP21335  10.887   7.550  13.517  0.0643  0.6754 -0.6319
11232PP      PP21336   1.566   6.073   3.780  0.1861  0.0080 -0.1600
11233PP      PP21337   8.204   2.740   6.921  0.1028  0.0575 -0.1319
11234PP      PP21338   1.988   5.484   0.329 -0.1106  0.1556 -0.2174
11235PP      PP21339   6.171   0.607   1.654 -0.3198 -0.0065 -0.1064
11236PP      PP21340   7.666   1.602   0.158 -0.1335  0.1402 -0.2053
11237PP      PP21341   9.138   7.488  13.499  0.1095 -0.1826 -0.3465
11238PP      PP21342  12.133  13.797   9.854 -0.0348  0.0696 -0.0628
11239PP      PP21343   6.156   7.520  10.694 -0.4633  0.1461  0.1206
11240PP      PP21344   0.833  15.076   1.110  0.0650 -0.0278 -0.1804
11241PP      PP21345  11.326   8.081   2.721 -0.0932 -0.1864  0.1926
11242PP      PP21346   9.922  12.356  12.093 -0.0277 -0.0816 -0.0189
11243PP      PP21347  15.260   6.479  13.687 -0.0238  0.2294 -0.0844
11244PP      PP21348  12.985  12.994  13.497  0.1358  0.0754 -0.1955
11245PP      PP21349  11.691  10.194   1.674  0.2178  0.0447 -0.0255
11246PP      PP21350  13.441  14.795  13.505 -0.0247 -0.2196 -0.0071
11247PP      PP21351  14.461  12.527  10.863  0.1175  0.1435 -0.1793
11248PP      PP21352   2.801  12.430   0.857  0.0843 -0.0244  0.3032
11249PP      PP21353   6.248  10.683   9.288 -0.1473  0.1959  0.0414
11250PP      PP21354   2.524   9.710   3.163 -0.3988  0.5588  0.0543
11251PP      PP21355   5.894   6.133   0.942 -0.0639  0.1826  0.3602
11252PP      PP21356   0.377  11.353  10.176  0.0405  0.2104 -0.0999
11253PP      PP21357  15.248  13.658  13.330  0.1368  0.2031  0.1484
11254PP      PP21358   0.439  14.282   0.059  0.2981  0.0164  0.0293
11255PP      PP21359  12.186   3.514  10.320  0.0727 -0.3189  0.0615
11256PP      PP21360   3.661   8.066  12.693 -0.0157 -0.1716 -0.0529
11257PP      PP21361   2.119   6.566  11.740  0.2878 -0.0601  0.2409
11258PP      PP21362  12.230   4.105  13.213  0.1003 -0.1786 -0.1294
11259PP      PP21363  14.863  14.580  12.033  0.0049 -0.4976 -0.0693
11260PP      PP21364   6.284   1.209   8.634 -0.1088  0.0994  0.3528
11261PP      PP21365   8.893   2.654   9.245  0.0884  0.4410 -0.2335
11262PP      PP21366  10.658   8.260  12.383 -0.1372  0.4534  0.0491
11263PP      PP21367   5.144   4.858  12.793 -0.2267  0.0821  0.0360
11264PP      PP21368   3.395  13.796  10.781 -0.3515 -0.1681  0.0909
11265PP      PP21369   8.426  13.839  10.183  0.2065  0.1760  0.1314
11266PP      PP21370  13.231  15.583  10.802  0.1238 -0.0863  0.5965
11267PP      PP21371   1.143   0.595   9.770  0.0175 -0.1394 -0.0455
11268PP      PP21372  13.204  15.605  11.440 -0.3052 -0.3710  0.3027
11269PP      PP21373   1.826   6.237  11.944  0.4074 -0.2724 -0.0117
11270PP      PP21374   0.021   3.321   4.413 -0.1433  0.2621 -0.2920
11271PP      PP21375  12.364  10.299  10.016  0.2387  0.2558 -0.1838
11272PP      PP21376   0.821   6.620   0.900  0.0751  0.1326  0.3891
11273PP      PP21377   3.821   6.009   8.697 -0.3206  0.2822  0.1469
11274PP      PP21378  15.273   1.335  10.842  0.3069 -0.1170  0.0907
11275PP      PP21379  14.079   7.606   2.152 -0.2151  0.2579  0.2536
11276PP      PP21380   7.558   5.597   0.215  0.1964 -0.1438 -0.0457
11277PP      PP21381  14.676   9.517  11.018  0.0368 -0.0579 -0.1488
11278PP      PP21382   4.626   5.419   0.712 -0.1753 -0.0725 -0.0147
11279PP      PP21383   7.065   9.505  11.589 -0.0409  0.3552 -0.1179
11280PP      PP21384   0.048  11.854  13.616 -0.0188  0.0259 -0.3178
11281PP      PP21385   7.242   9.489  13.721  0.0514  0.2182  0.1081
11282PP      PP21386   1.241   0.602  10.976 -0.1513  0.1088  0.0381
11283PP      PP21387   4.035   6.311  12.876  0.2334 -0.1673 -0.0154
11284PP      PP21388   8.518   6.173   2.994  0.0601  0.1836  0.1987
11285PP      PP21389  13.009  14.147   0.619  0.0966 -0.2267 -0.0193
11286PP      PP21390  12.737  14.079  11.700  0.1540  0.1945 -0.4602
11287PP      PP21391  12.059   0.481   9.862  0.3724  0.2136 -0.0189
11288PP      PP21392   4.166   9.031  13.750 -0.1731  0.0001  0.1717
11289PP      PP21393  14.713   1.604  12.427  0.2914 -0.1618 -0.1507
11290PP      PP21394   6.429  12.766  11.433  0.2394  0.0685  0.0424
11291PP      PP21395   7.690   3.587  12.110  0.1492 -0.0332 -0.1232
11292PP      PP21396  10.962   2.817  10.475 -0.1836 -0.2690  0.0245
11293PP      PP21397   1.252   0.714   2.768  0.3821  0.0414 -0.0729
11294PP      PP21398   8.174   8.152  10.013 -0.3536 -0.1024  0.0785
11295PP      PP21399  15.448   9.420  13.619 -0.2094  0.2431  0.2643
11296PP      PP21400   1.158   0.012   9.864 -0.2311  0.4165  0.1479
11297PP      PP21401   0.727   1.024   4.411 -0.1148 -0.2820 -0.0629
11298PP      PP21402  14.269  15.266   9.980  0.0840  0.2626 -0.3685
11299PP      PP21403  11.810  15.489   8.969 -0.1426 -0.2386  0.1771
11300PP      PP21404   9.928  10.465  13.013  0.3820  0.2232 -0.1083
11301PP      PP21405   4.533  14.598   0.509  0.0582  0.0819  0.3159
11302PP      PP21406   0.719   5.367   2.761 -0.0704 -0.1770 -0.2704
11303PP      PP21407   7.870  14.167   2.296 -0.2100  0.0282 -0.0578
11304PP      PP21408   3.419   9.241   1.963  0.0552 -0.1674  0.1434
11305PP      PP21409   9.966  12.763   2.258 -0.1703  0.1091  0.1750
11306PP      PP21410  14.473   1.270   4.586 -0.4763 -0.1366  0.2396
11307PP      PP21411   1.795   6.269  11.386  0.1063 -0.0227 -0.0790
11308PP      PP21412   2.681   2.590  13.281  0.3238  0.0691 -0.1999
11309PP      PP21413   7.539  13.099   2.464 -0.0823 -0.3198  0.0918
11310PP      PP21414   4.923   2.153  13.741  0.1111 -0.0647  0.0968
11311PP      PP21415   6.455   0.547   9.277 -0.1688  0.4036 -0.0253
11312PP      PP21416   9.084   8.323   0.825 -0.1006 -0.2552  0.2485
11313PP      PP21417   8.231   2.135  13.197 -0.2114  0.2144 -0.1399
11314PP      PP21418  10.444   4.103   9.506  0.0159  0.4404  0.1627
11315PP      PP21419   2.705   2.529   8.300  0.3317 -0.1684 -0.1093
11316PP      PP21420  10.446  11.922  13.572 -0.1906  0.0422  0.7665
11317PP      PP21421   8.465   6.749  12.208 -0.0004 -0.2046 -0.1191
11318PP      PP21422   2.845   0.061   3.955  0.2189  0.2638  0.0636
11319PP      PP21423  12.799   5.980  10.015  0.1295 -0.0015  0.1239
11320PP      PP21424  10.198   3.792   3.440  0.0092 -0.2071 -0.2485
11321PP      PP21425  14.980   1.036  11.748 -0.3584  0.0339  0.2137
11322PP      PP21426   7.133   4.480   0.327  0.0801 -0.0976  0.0796
11323PP      PP21427   4.157   1.672   0.097  0.1360 -0.1274 -0.1245
11324PP      PP21428   1.302   4.167   1.916 -0.2378 -0.0195  0.2977
11325PP      PP21429   4.761  10.763   4.174 -0.1989 -0.0151  0.0423
11326PP      PP21430   9.715   6.004   2.369 -0.1459 -0.0642 -0.0020
11327PP      PP21431  14.084   4.501   2.254 -0.1727 -0.3361  0.4005
11328PP      PP21432   4.365  15.582   1.551  0.2057  0.0839  0.1560
11329PP      PP21433   4.834  14.262   9.022  0.0446  0.1223 -0.3262
11330PP      PP21434  11.307   1.523  13.270  0.1651 -0.1589 -0.0061
11331PP      PP21435  12.731   3.013   4.374 -0.2070  0.3171 -0.1848
11332PP      PP21436  10.511   7.393  12.704  0.0158  0.0706 -0.0707
11333PP      PP21437   9.783   6.968  12.547  0.1843 -0.2043  0.2675
11334PP      PP21438   3.394  12.895  11.786  0.1316  0.2731 -0.2688
11335PP      PP21439   6.646   2.453  10.992  0.0040 -0.0252 -0.3468
11336PP      PP21440  10.791   0.530   1.197 -0.0246 -0.0945  0.0203
11337PP      PP21441   1.671  12.068   1.927 -0.2876 -0.1764 -0.1560
11338PP      PP21442   9.152  12.864   0.006 -0.0401  0.1786 -0.2333
11339PP      PP21443   8.482   4.163  10.794  0.1576  0.0506  0.1729
11340PP      PP21444   6.528   7.513   4.273  0.0640 -0.1043  0.2565
11341PP      PP21445   9.050   0.393   2.617  0.0250 -0.0444  0.3800
11342PP      PP21446   8.697   8.740  12.299  0.0421  0.2563 -0.0237
11343PP      PP21447   9.169   7.714  13.034 -0.1876  0.0598  0.2925
11344PP      PP21448   9.743   8.477   1.999 -0.0153 -0.2471  0.1213
11345PP      PP21449   9.042   6.837   0.012  0.1834  0.3057 -0.0068
11346PP      PP21450   0.279   6.490   3.464 -0.1318 -0.2290  0.2059
11347PP      PP21451  14.303  15.049   2.368  0.0914  0.2491 -0.1111
11348PP      PP21452   8.730   2.775  10.462  0.0826  0.0160 -0.0582
11349PP      PP21453  15.588   4.729  10.204  0.1365  0.0233  0.1378
11350PP      PP21454   6.838  13.004   0.090  0.0920 -0.0985  0.0624
11351PP      PP21455   6.223   7.032   0.897 -0.0874  0.1299  0.1198
11352PP      PP21456   4.771   8.882   2.280  0.1288 -0.0933 -0.1060
11353PP      PP21457   3.824   3.529  10.844  0.1874  0.2396  0.0686
11354PP      PP21458  11.998   9.487  12.119  0.2324  0.0931 -0.2677
11355PP      PP21459  11.942   9.365   0.805  0.5053 -0.0492 -0.1440
11356PP      PP21460  10.292  11.066  11.185 -0.0539 -0.0335  0.4343
11357PP      PP21461  15.394   2.527   1.953 -0.1763  0.1694  0.3346
11358PP      PP21462  10.583   8.986   5.228 -0.0036 -0.2848  0.2008
11359PP      PP21463   8.341   0.443   1.515 -0.0598 -0.4112 -0.3572
11360PP      PP21464   4.667   1.648   2.612 -0.0999  0.1538  0.1682
11361PP      PP21465  15.526   0.745   9.260 -0.0320 -0.1535  0.1384
11362PP      PP21466  13.444   9.899  13.439  0.1282  0.1800  0.1080
11363PP      PP21467   0.647   7.296  12.434  0.0203  0.0909  0.0107
11364PP      PP21468  13.566   1.955   0.280 -0.2110 -0.0007  0.1573
11365PP      PP21469   9.802   7.846  11.478 -0.0922 -0.1915  0.0504
11366PP      PP21470   8.348   9.004   3.720  0.1388  0.0102  0.0963
11367PP      PP21471   7.117   5.310   8.924 -0.0152 -0.2009 -0.0389
11368PP      PP21472  12.798  14.182  10.581  0.4100 -0.4316  0.0234
11369PP      PP21473   2.131  12.171  10.119 -0.2776 -0.0327  0.4682
11370PP      PP21474   6.221  14.062   0.981 -0.2529 -0.1136  0.0726
11371PP      PP21475   2.683  15.613   8.540 -0.0302  0.1599  0.1730
11372PP      PP21476  11.969   0.828  12.706 -0.4432  0.0518 -0.0016
11373PP      PP21477  13.307  12.356  10.106  0.1943 -0.0261 -0.1330
11374PP      PP21478   5.151  14.348  12.539  0.1524 -0.1525 -0.1808
11375PP      PP21479   5.161   2.683  11.185  0.2158  0.0640  0.1821
11376PP      PP21480  10.853  11.275   1.523 -0.2888  0.0104  0.1271
11377PP      PP21481  10.512   8.280   9.988 -0.1668 -0.2255 -0.0951
11378PP      PP21482   6.334  12.185   1.414  0.0307 -0.2690  0.1139
11379PP      PP21483   0.333   0.473   8.977 -0.2848 -0.3186 -0.2171
11380PP      PP21484  14.449   3.458  12.984  0.1936  0.0837  0.2629
11381PP      PP21485  10.672   3.805   2.344  0.1627  0.0478  0.0224
11382PP      PP21486   8.357  14.970  13.124  0.0407 -0.0904 -0.3083
11383PP      PP21487   1.205  11.138   4.470  0.2756  0.0560  0.0327
11384PP      PP21488   6.024   6.018   3.621  0.3268  0.1205  0.2848
11385PP      PP21489   0.109  11.492  13.201  0.0661  0.1710  0.2809
11386PP      PP21490   7.898   1.529  12.990  0.1671  0.1342  0.3009
11387PP      PP21491  14.954   8.370   2.509 -0.3189  0.3039 -0.0113
11388PP      PP21492   6.998  13.223   3.408  0.0160 -0.2183 -0.2701
11389PP      PP21493   4.981  10.924  11.537 -0.0604  0.0558  0.0102
11390PP      PP21494   2.871   9.891   2.287 -0.0133  0.0910 -0.1344
11391PP      PP21495  14.817   3.906   2.186  0.2992 -0.2289 -0.0353
11392PP      PP21496  10.801   5.133  12.788  0.2662  0.1779 -0.0259
11393PP      PP21497   8.583   7.025   1.201  0.0325  0.3202 -0.4877
11394PP      PP21498   7.479   2.686   9.239 -0.4796  0.1151 -0.2776
11395PP      PP21499   4.610  15.515   1.988  0.1781 -0.2209 -0.0797
11396PP      PP21500   1.469   9.232  12.079 -0.3258 -0.1949  0.1522
11397PP      PP21501  12.455  11.445   3.831 -0.0645  0.0261  0.0608
11398PP      PP21502  10.015  13.781   2.336  0.1549 -0.0197  0.1130
11399PP      PP21503   4.367  12.861   3.958  0.1134  0.1407 -0.1489
11400PP      PP21504   8.049   4.758   9.067 -0.0171  0.1261  0.3751
11401PP      PP21505  10.805   6.181  12.545 -0.0150  0.5727  0.0579
11402PP      PP21506   2.900   6.375   1.523 -0.1499  0.2201  0.1104
11403PP      PP21507  10.242  14.733   3.219 -0.0908  0.4319  0.0064
11404PP      PP21508  12.965   9.903   2.653 -0.2482 -0.0153 -0.2022
11405PP      PP21509   8.736  14.860  12.499 -0.2270 -0.1613 -0.0848
11406PP      PP21510  15.086  13.615   3.444 -0.2137 -0.0457 -0.1689
11407PP      PP21511   8.736  13.557   2.506 -0.1037 -0.1311  0.1140
11408PP      PP21512   7.085   1.118   2.474 -0.0073 -0.2448 -0.2081
11409PP      PP21513  11.299  14.568  13.313  0.0500  0.1816  0.2231
11410PP      PP21514   4.651  14.464   1.609  0.0514 -0.2060 -0.1816
11411PP      PP21515  10.445   2.720   9.035 -0.0604  0.1399 -0.0280
11412PP      PP21516  14.108   9.998   4.668 -0.1861 -0.1847 -0.0523
11413PP      PP21517   1.345  12.473   2.152  0.1953 -0.1225  0.0192
11414PP      PP21518   5.233  12.039   0.969  0.2717 -0.0866 -0.1148
11415PP      PP21519   7.807   1.835   7.942  0.1750  0.0069  0.0859
11416PP      PP21520   1.798   2.193  13.760 -0.0064  0.1584 -0.2584
11417PP      PP21521   2.943   7.333  11.255 -0.2697 -0.0224 -0.0089
11418PP      PP21522   1.527  15.215  10.899  0.1902  0.1065 -0.3585
11419PP      PP21523   1.273   5.672   3.594 -0.0105 -0.1251 -0.0181
11420PP      PP21524   8.469   2.957  12.438  0.0820  0.3069 -0.2670
11421PP      PP21525  14.798   7.903   3.953 -0.5987  0.1811 -0.1150
11422PP      PP21526  11.633   1.714   2.413 -0.1877 -0.0685  0.0276
11423PP      PP21527   5.591  14.973  10.570  0.0763 -0.2226  0.2574
11424PP      PP21528   7.111  10.048  12.412 -0.0213  0.0311  0.1849
11425PP      PP21529  13.650  14.548   0.148  0.0679  0.0298  0.1220
11426PP      PP21530   1.534   1.015  11.118  0.0162 -0.1728  0.0150
11427PP      PP21531   1.406   3.227   3.779  0.2576 -0.2405  0.0133
11428PP      PP21532  11.149   7.210  13.198  0.0782 -0.0439  0.0377
11429PP      PP21533   0.549   7.574  11.936  0.3553 -0.2779 -0.3190
11430PP      PP21534  13.352  15.116   3.378  0.0001  0.2033 -0.4019
11431PP      PP21535  13.140  13.149   1.643 -0.0966  0.3966  0.0737
11432PP      PP21536   2.566  13.089   1.859 -0.3198  0.2046  0.0118
11433PP      PP21537  15.302   3.836   1.854  0.0038 -0.0333  0.0344
11434PP      PP21538  15.455   9.231  10.320  0.0523 -0.2720 -0.1617
11435PP      PP21539  12.814   4.899   3.453  0.0467 -0.1316  0.1998
11436PP      PP21540  13.667   1.304   3.470  0.0238  0.2420 -0.3706
11437PP      PP21541   3.929  12.608   9.049 -0.0324  0.0293  0.0629
11438PP      PP21542   5.076  11.291   3.178 -0.2382 -0.1652 -0.1886
11439PP      PP21543  15.475   5.565   8.884 -0.0785 -0.1518  0.1796
11440PP      PP21544   3.475  10.135  13.381  0.0961 -0.0744  0.1549
11441PP      PP21545   5.099  15.409  13.190 -0.0255 -0.0252  0.1492
11442PP      PP21546   4.290  12.268   3.612  0.1644  0.2783  0.1353
11443PP      PP21547  14.274  10.476   1.442  0.2065 -0.1796  0.0010
11444PP      PP21548   4.739  14.539   2.748  0.1768 -0.0248 -0.0272
11445PP      PP21549   0.829   0.223  12.300 -0.1372  0.0795  0.0976
11446PP      PP21550   0.941   7.278  10.543 -0.1099  0.1820 -0.1505
11447PP      PP21551   8.529   2.869   8.326 -0.0280 -0.3191  0.0974
11448PP      PP21552  11.150   2.397  10.653  0.0377  0.2817 -0.2341
11449PP      PP21553   2.135   9.626  11.696  0.0707 -0.1941 -0.0079
11450PP      PP21554  15.736  14.206   0.892  0.1948  0.1838  0.0509
11451PP      PP21555  10.959  10.176  11.335 -0.4152  0.1359  0.2801
11452PP      PP21556  14.663   2.214   1.501  0.0306  0.1596  0.0722
11453PP      PP21557  13.756   6.784  13.191 -0.5554 -0.2747 -0.0104
11454PP      PP21558   6.581   2.928   9.257 -0.0304 -0.0611  0.0445
11455PP      PP21559   9.421   0.427   3.143 -0.1859 -0.1688  0.0163
11456PP      PP21560   4.388   9.134   2.691 -0.2737  0.0636  0.2730
11457PP      PP21561  15.174  14.098  12.870  0.0305  0.0427 -0.0387
11458PP      PP21562  14.265  14.843  11.269 -0.0422  0.1181  0.0820
11459PP      PP21563  14.929   7.184   3.803  0.1672  0.2008 -0.0882
11460PP      PP21564  10.053   0.519   4.487 -0.1302  0.1793  0.1237
11461PP      PP21565  13.390   1.191   9.543 -0.2058  0.1331 -0.0354
11462PP      PP21566   5.151  14.494   9.504 -0.0572 -0.2837  0.3769
11463PP      PP21567   6.699   5.414  13.101  0.1992  0.0524  0.0971
11464PP      PP21568   3.424  10.580  12.783  0.0914  0.0119  0.0174
11465PP      PP21569  14.410   9.771   9.794 -0.0871 -0.0326  0.2724
11466PP      PP21570  12.604  14.656   3.909 -0.0164 -0.2130  0.1426
11467PP      PP21571  12.784  12.200  11.161 -0.0585 -0.0086 -0.3821
11468PP      PP21572  12.897   1.430  13.447  0.2664 -0.3986  0.2345
11469PP      PP21573  14.664   8.817   3.609  0.1351  0.0260  0.3139
11470PP      PP21574   8.552   0.787  11.100 -0.2560 -0.0040  0.3744
11471PP      PP21575   0.283  10.021   0.583 -0.2646  0.1835  0.2922
11472PP      PP21576   5.364   8.364  12.180 -0.0888 -0.2970 -0.1983
11473PP      PP21577  11.899   6.615  13.160  0.1603 -0.2405 -0.1693
11474PP      PP21578   4.819   6.737  13.113 -0.0666  0.1983  0.1923
11475PP      PP21579  12.884  11.607  13.684 -0.0980 -0.1529 -0.0329
11476PP      PP21580   2.285   7.250   0.525  0.0827 -0.2565 -0.0949
11477PP      PP21581   4.574  14.159  10.541 -0.2761 -0.0504 -0.2924
11478PP      PP21582   6.221  11.317  13.182  0.1092 -0.1144 -0.0269
11479PP      PP21583  12.928   6.282   5.639  0.3667  0.4641 -0.0208
11480PP      PP21584   4.726   5.751  11.658 -0.1449 -0.0213 -0.1133
11481PP      PP21585  11.644   5.681   0.696 -0.2315 -0.0351  0.0250
11482PP      PP21586   0.215  14.931  10.746  0.1060  0.1237  0.0881
11483PP      PP21587  11.383   2.697   9.219 -0.2492 -0.3944 -0.1783
11484PP      PP21588   7.995   9.039  10.116  0.1855  0.2116 -0.4069
11485PP      PP21589   3.724   1.149   7.918  0.1274  0.2611 -0.0287
11486PP      PP21590   8.480   2.433   0.416  0.1391 -0.1104 -0.0878
11487PP      PP21591   5.424  14.137  12.071  0.3003  0.1054  0.2178
11488PP      PP21592   6.402  10.683  10.240 -0.0003 -0.1744 -0.2423
11489PP      PP21593   8.712   7.509   4.205  0.0059 -0.1244 -0.1682
11490PP      PP21594  13.293  12.769   8.553 -0.0502  0.0352 -0.3668
11491PP      PP21595   8.125  13.959   3.882 -0.2362  0.1107 -0.0550
11492PP      PP21596   7.180   6.269  12.645 -0.0760  0.0468  0.0856
11493PP      PP21597  13.222   7.656  12.496 -0.0806 -0.3788 -0.2048
11494PP      PP21598  11.838  11.327   2.944  0.0331 -0.2507  0.0633
11495PP      PP21599  12.905   6.375   4.348  0.3948  0.1068 -0.2999
11496PP      PP21600   8.386   8.519   2.634 -0.1356 -0.1435 -0.1528
11497PP      PP21601  13.761   5.552  10.936  0.0470 -0.0150  0.0964
11498PP      PP21602   3.161  14.331   4.726 -0.4577 -0.0834 -0.0794
11499PP      PP21603   2.307   0.762  11.651  0.0298  0.1516  0.1512
11500PP      PP21604   8.920   7.124   0.472 -0.0964 -0.0039  0.0391
11501PP      PP21605   3.900   2.434   3.841 -0.4486 -0.3421 -0.2374
11502PP      PP21606  13.724   1.700   4.775  0.1040 -0.1109  0.3717
11503PP      PP21607  13.212   6.590  13.159  0.1951  0.3463  0.1524
11504PP      PP21608  13.516   2.770   3.366  0.0388  0.1648  0.2375
11505PP      PP21609   4.099  14.410  11.823 -0.2805  0.0298  0.0157
11506PP      PP21610   0.507  11.533   2.926  0.4100 -0.0293  0.1133
11507PP      PP21611   0.093  13.707   1.810 -0.3106 -0.0498  0.4663
11508PP      PP21612   9.187   9.688   4.285 -0.0717 -0.0966 -0.2759
11509PP      PP21613   4.991  13.978  10.293  0.0441 -0.3471  0.1054
11510PP      PP21614  12.081   9.835  12.533  0.0841  0.1027 -0.1304
11511PP      PP21615  10.385  10.949   0.873  0.0885  0.3838 -0.0024
11512PP      PP21616   8.956   4.053   1.085  0.1829 -0.3289 -0.0912
11513PP      PP21617   9.677  11.094   4.869 -0.0960 -0.0953  0.0128
11514PP      PP21618  14.194   8.739  13.019  0.0414 -0.0113 -0.0851
11515PP      PP21619   4.385  11.873   0.069 -0.2726 -0.1120  0.0026
11516PP      PP21620  15.086  11.874  13.329 -0.2728 -0.0184  0.0077
11517PP      PP21621  11.311  13.607   1.131 -0.0266 -0.1042  0.2819
11518PP      PP21622  15.043  14.369   3.156 -0.2631  0.2014 -0.2033
11519PP      PP21623   2.928   7.638  10.781 -0.2393  0.2909  0.4732
11520PP      PP21624   3.971   7.783   0.550  0.0098 -0.1680  0.3079
11521PP      PP21625   9.603   9.365   2.337  0.0147  0.0365 -0.0835
11522PP      PP21626   1.074   5.312   0.208  0.2564 -0.1118  0.4033
11523PP      PP21627   4.042   9.566   4.779 -0.0232  0.0943 -0.0489
11524PP      PP21628  12.954   9.252  10.363 -0.1614 -0.1596  0.2372
11525PP      PP21629   6.983  15.468  11.664 -0.0926  0.3001 -0.0372
11526PP      PP21630  15.011   7.257   9.819  0.0951  0.2524  0.2535
11527PP      PP21631  14.879   9.640   3.161 -0.0090  0.0286 -0.2193
11528PP      PP21632   2.729   2.632   8.846 -0.0699 -0.0617  0.0529
11529PP      PP21633   7.980   2.625   9.027 -0.0557  0.1598 -0.2435
11530PP      PP21634   2.192  11.501   2.185 -0.1529  0.0833 -0.0769
11531PP      PP21635   6.703   2.066   8.864 -0.1994 -0.3095 -0.1509
11532PP      PP21636   1.442  14.641   9.590 -0.1518  0.0313 -0.1523
11533PP      PP21637   3.347   3.009   3.042 -0.2760  0.0622 -0.0267
11534PP      PP21638   4.777  14.298  13.454 -0.1368 -0.0713 -0.3918
11535PP      PP21639   6.710  11.375  12.835  0.0223  0.0609 -0.0209
11536PP      PP21640   3.225  13.404   4.630 -0.0676  0.1191 -0.0014
11537PP      PP21641   2.979   4.145  10.074 -0.0173 -0.1209 -0.0400
11538PP      PP21642   4.178   5.341   0.601 -0.0874 -0.2380 -0.3754
11539PP      PP21643   2.087   2.107   1.277 -0.2390 -0.2278  0.0798
11540PP      PP21644  13.378   5.889   2.330  0.2913 -0.1768  0.2393
11541PP      PP21645   4.208  14.735   0.005  0.2435  0.2663  0.2069
11542PP      PP21646   5.306  10.395   3.657 -0.1768  0.1206 -0.0041
11543PP      PP21647   8.057   4.943   3.219 -0.4416 -0.2133 -0.1031
11544PP      PP21648  13.576   7.739   2.860  0.0412 -0.3217  0.0101
11545PP      PP21649  13.489  12.147  10.638 -0.3157  0.2952 -0.1651
11546PP      PP21650   9.778   3.010   3.492  0.0151  0.2750  0.2638
11547PP      PP21651   9.131  13.201   2.452 -0.1203 -0.4270  0.0997
11548PP      PP21652   0.266   5.940   3.463 -0.0604 -0.0243 -0.1266
11549PP      PP21653   4.879   4.925   9.303  0.1683 -0.2683 -0.1414
11550PP      PP21654   3.642   9.756   0.461 -0.3146 -0.0146 -0.1472
11551PP      PP21655   2.014   5.094   1.614  0.1572  0.0542 -0.2345
11552PP      PP21656  12.489  10.839  11.036  0.0350  0.1314  0.2503
11553PP      PP21657  10.224  14.944  11.692  0.0720 -0.1278 -0.2027
11554PP      PP21658  10.979   8.768   4.862 -0.3203  0.0916 -0.0334
11555PP      PP21659   2.943  15.200   4.056 -0.1140 -0.2187 -0.3135
11556PP      PP21660   5.436   7.371   9.878 -0.0341  0.0308  0.1166
11557PP      PP21661   7.178  10.815  11.979  0.2258  0.1150  0.0154
11558PP      PP21662  10.172   5.565   4.472 -0.2692  0.0297  0.1799
11559PP      PP21663   2.407   3.980   0.506  0.2247  0.1105  0.0191
11560PP      PP21664  12.709   0.786  12.247  0.2068  0.0366  0.0552
11561PP      PP21665   3.097   8.741   3.122 -0.0411  0.4268 -0.1163
11562PP      PP21666  15.229   1.617   2.555  0.0204  0.1746  0.0437
11563PP      PP21667  11.372   8.454   4.904  0.0361 -0.2393 -0.2640
11564PP      PP21668  11.825   4.301   0.146  0.0301 -0.1580  0.0201
11565PP      PP21669   6.540  13.305   2.589 -0.0952 -0.1157  0.2086
11566PP      PP21670  12.038   4.884   4.999  0.1212  0.0789 -0.1585
11567PP      PP21671   4.627  14.920  10.939  0.0706 -0.1635 -0.2254
11568PP      PP21672  15.118   9.184   9.409 -0.3525 -0.2889 -0.3198
11569PP      PP21673   3.775  10.904   2.253  0.1775  0.2630  0.0587
11570PP      PP21674   0.948  15.498   4.088 -0.2373 -0.0693  0.2117
11571PP      PP21675   8.110   4.165   9.029 -0.2349 -0.2586 -0.0111
11572PP      PP21676   4.358   1.945   8.414 -0.1405  0.1537 -0.0306
11573PP      PP21677  10.145   4.503   9.801 -0.0651 -0.1144 -0.3163
11574PP      PP21678   0.297   5.601   0.033  0.0648 -0.0283 -0.1182
11575PP      PP21679  13.498   2.999   9.756  0.0981  0.0606  0.2455
11576PP      PP21680   2.527   0.316   9.991  0.0630 -0.4721  0.4551
11577PP      PP21681  10.693   0.137  12.980  0.0362  0.1118 -0.1224
11578PP      PP21682  10.155  12.630   0.818 -0.1051  0.0286  0.2060
11579PP      PP21683   4.388   4.437   3.119 -0.0771 -0.0822 -0.2683
11580PP      PP21684   7.961  13.016   0.173 -0.2105  0.1037  0.0120
11581PP      PP21685   0.576   8.102   2.594  0.1276  0.2014  0.2586
11582PP      PP21686  11.249   3.076  13.363  0.0309  0.1194  0.0190
11583PP      PP21687  11.906   8.077   3.328 -0.0177  0.1483  0.0024
11584PP      PP21688   4.513   3.250   1.035  0.1278  0.0717 -0.2312
11585PP      PP21689  13.753   2.698   1.382 -0.0495 -0.0531 -0.3039
11586PP      PP21690   0.669  11.648   0.893 -0.2140  0.0380  0.2219
11587PP      PP21691   2.836   8.446   1.093 -0.0145 -0.3934 -0.1437
11588PP      PP21692  13.714  12.650   2.823 -0.3220 -0.3510 -0.1238
11589PP      PP21693   9.747   4.104   9.499  0.1201 -0.0939  0.0585
11590PP      PP21694   9.171  11.974   4.345  0.1159  0.2868  0.3340
11591PP      PP21695  12.803   2.235  11.583 -0.0031  0.0041 -0.2400
11592PP      PP21696   8.796  12.260   4.770 -0.3454 -0.0150 -0.0506
11593PP      PP21697   9.468   9.763  13.519 -0.0747  0.0260 -0.2226
11594PP      PP21698  14.463  11.925   3.116  0.0638 -0.1246 -0.2157
11595PP      PP21699  15.441  13.440   9.608 -0.0406  0.0707  0.0566
11596PP      PP21700   2.281   0.598   1.375  0.1280  0.2718  0.0829
11597PP      PP21701   0.166   3.624  10.067 -0.1575  0.1017 -0.0153
11598PP      PP21702  13.920   3.913  11.412  0.4380 -0.3942 -0.2526
11599PP      PP21703   5.201   5.724   9.921  0.0606  0.0741  0.3086
11600PP      PP21704   1.685   5.959   1.886  0.2166  0.3416 -0.0432
11601PP      PP21705  10.949   9.010   3.492  0.1296 -0.2684 -0.0313
11602PP      PP21706  11.014   7.676   4.730 -0.0202 -0.1012 -0.0745
11603PP      PP21707   6.634   3.372   0.418  0.0390  0.0078 -0.1705
11604PP      PP21708  15.712  12.582   1.528 -0.0330  0.0338 -0.3239
11605PP      PP21709   7.146   3.652   1.962  0.0347  0.1651 -0.2423
11606PP      PP21710  15.482   4.805   4.128  0.4288 -0.1669 -0.0648
11607PP      PP21711  13.602   1.031   2.991 -0.2905 -0.1007  0.2870
11608PP      PP21712   6.942  14.832  11.780 -0.0642  0.0653  0.1902
11609PP      PP21713   6.712   3.244   1.853  0.3295 -0.0154 -0.0044
11610PP      PP21714   4.761  10.275   2.262 -0.0909  0.1968 -0.4899
11611PP      PP21715   7.530   2.854   1.526  0.0631 -0.0301 -0.1950
11612PP      PP21716   4.785   1.831  12.879 -0.1339 -0.0235 -0.2453
11613PP      PP21717   0.270   1.951   1.729 -0.2771  0.1815  0.3817
11614PP      PP21718  12.513  13.400  13.633 -0.2239  0.0059 -0.0110
11615PP      PP21719   8.823  13.505   2.964 -0.2832 -0.3394 -0.1636
11616PP      PP21720   4.662  12.569  11.276 -0.1732 -0.0313  0.3416
11617PP      PP21721   2.799   0.146  12.153 -0.0912  0.2507  0.1908
11618PP      PP21722   6.006   7.282   9.124  0.1456  0.0588 -0.2138
11619PP      PP21723   6.624  10.538   3.867 -0.2295 -0.1672  0.1605
11620PP      PP21724   7.253   1.267  10.921 -0.3680 -0.1124  0.0669
11621PP      PP21725   7.696   0.601   7.761 -0.0034  0.1512  0.3016
11622PP      PP21726   9.094  10.688   9.820  0.1357  0.0842 -0.0665
11623PP      PP21727  12.604   8.968   5.004  0.2055  0.0387 -0.0718
11624PP      PP21728   3.465   4.154   2.163  0.0178 -0.0304 -0.1585
11625PP      PP21729   8.836   8.593   0.344  0.0500  0.2029 -0.5112
11626PP      PP21730  11.715   0.949  13.515 -0.0682  0.0022  0.3644
11627PP      PP21731   5.115  14.236   2.736  0.2259 -0.0895 -0.1880
11628PP      PP21732  12.897   5.497   4.754 -0.0144 -0.0009 -0.1969
11629PP      PP21733   9.978   1.865   3.882  0.2281  0.4192 -0.2576
11630PP      PP21734  11.111   8.903  10.780  0.0860 -0.2456 -0.4616
11631PP      PP21735  14.956   4.875   1.617 -0.0409  0.0108  0.2599
11632PP      PP21736   5.706  13.773   3.403 -0.0111 -0.0424 -0.1719
11633PP      PP21737   0.475  14.531   9.249 -0.2373  0.0008  0.1159
11634PP      PP21738  13.094   6.991   1.598 -0.0618  0.1352 -0.0628
11635PP      PP21739   9.592   2.266   2.909 -0.1881  0.1694  0.1743
11636PP      PP21740  13.510  12.300  11.370  0.0361 -0.2486 -0.0231
11637PP      PP21741   9.998  12.072   2.327 -0.1768 -0.1129 -0.1508
11638PP      PP21742   5.562  12.604   1.876 -0.1434 -0.1314 -0.2172
11639PP      PP21743   8.124   9.027   4.714  0.0154 -0.0050 -0.0455
11640PP      PP21744   5.516   7.914   0.095 -0.2826 -0.3175 -0.0980
11641PP      PP21745   4.737  11.973   3.529 -0.2323  0.0604  0.1272
11642PP      PP21746   0.305  10.111  13.336  0.3053  0.0225  0.0334
11643PP      PP21747   2.931  11.717   0.763 -0.2884 -0.0662  0.1804
11644PP      PP21748   9.500  15.220   0.159  0.0896  0.2632  0.1028
11645PP      PP21749   6.442   1.119   9.216 -0.0093 -0.0742 -0.0479
11646PP      PP21750   1.816   6.766   3.177  0.1090 -0.2094 -0.3564
11647PP      PP21751   7.206   0.425  11.859  0.1474 -0.2378 -0.0762
11648PP      PP21752   9.554  15.354   9.783 -0.1887 -0.1373 -0.0231
11649PP      PP21753  10.510   5.972  10.367  0.0266 -0.2100 -0.0983
11650PP      PP21754   3.512   0.122  13.327  0.0880  0.1032 -0.2025
11651PP      PP21755   8.357  14.839   1.069  0.2169  0.0484  0.0007
11652PP      PP21756   0.002   7.969   0.500  0.0904  0.1656 -0.3833
11653PP      PP21757   3.234  15.009   9.769  0.1381  0.1720 -0.0480
11654PP      PP21758  15.432  10.678   4.137 -0.1884 -0.2224  0.0865
11655PP      PP21759  12.647  12.980   4.508  0.0441 -0.0780 -0.0257
11656PP      PP21760   5.116  15.309   9.913 -0.0930 -0.1019 -0.2044
11657PP      PP21761   5.434   4.611  11.168 -0.1896  0.2654 -0.3665
11658PP      PP21762   9.080   9.229   4.754 -0.0990  0.0529 -0.2376
11659PP      PP21763  15.210  15.429  13.369 -0.1591 -0.0233  0.0454
11660PP      PP21764  10.424  11.073  12.076  0.0260  0.0279 -0.1380
11661PP      PP21765   0.943   4.581  12.913  0.1931 -0.3003  0.3116
11662PP      PP21766  12.577   3.690   1.088 -0.2090  0.0950  0.0408
11663PP      PP21767   6.705   7.666   0.396 -0.0026  0.0304  0.1610
11664PP      PP21768  15.385   7.433  12.029 -0.2309  0.1095 -0.1062
11665PP      PP21769   8.479  11.680   0.831 -0.0596  0.0954 -0.3162
11666PP      PP21770   7.069  11.912   3.997 -0.1084  0.1383  0.1584
11667PP      PP21771   4.431  11.506  11.648  0.0157 -0.0120 -0.1316
11668PP      PP21772  13.458   4.849   0.776  0.2235 -0.2306 -0.2337
11669PP      PP21773  12.817   9.019   3.538 -0.1349 -0.0075 -0.0868
11670PP      PP21774  11.674  12.486   2.338  0.0609  0.2270  0.2931
11671PP      PP21775   8.973   7.878   0.971 -0.0232  0.1680  0.0226
11672PP      PP21776   9.126   5.564  12.637 -0.0802 -0.2778 -0.1152
11673PP      PP21777   2.571   7.531  12.560  0.0694 -0.0139  0.3154
11674PP      PP21778   0.053   2.181   0.564  0.1012 -0.1221 -0.3070
11675PP      PP21779  12.443  12.440   1.379  0.0665 -0.1466  0.1341
11676PP      PP21780   4.533   6.981   0.702 -0.2145  0.0395 -0.1398
11677PP      PP21781  11.158   6.167  12.103 -0.1988  0.1034  0.0857
11678PP      PP21782   0.501   1.374  11.409  0.0039 -0.1611  0.2099
11679PP      PP21783  15.575   0.210   0.204 -0.0478 -0.1836 -0.1859
11680PP      PP21784  10.498  13.159   3.973  0.1347  0.0198  0.0370
11681PP      PP21785   3.562   6.275   0.659  0.0667 -0.0200  0.3313
11682PP      PP21786  10.286   9.752   2.517 -0.0723 -0.0429  0.1631
11683PP      PP21787   1.965   7.235  13.193 -0.2352 -0.1154 -0.0051
11684PP      PP21788   6.939   1.315   1.017  0.3079 -0.1471 -0.0298
11685PP      PP21789   9.261   7.873  12.221  0.0077  0.0648  0.2993
11686PP      PP21790  11.591   0.829   2.606  0.0235  0.0917  0.2698
11687PP      PP21791  12.473  10.200   0.823 -0.0445  0.1426 -0.1062
11688PP      PP21792   7.077   1.103   3.033 -0.0082  0.1620 -0.3034
11689PP      PP21793   4.125   4.497  10.721 -0.1580 -0.1749  0.1821
11690PP      PP21794  13.291   3.282  10.182 -0.3274 -0.2991 -0.0694
11691PP      PP21795  13.545   3.977  13.307  0.0790 -0.1809  0.1138
11692PP      PP21796  10.785   4.614  12.707  0.1139 -0.0591  0.4213
11693PP      PP21797   4.501   0.274   8.788 -0.2729  0.0004  0.3633
11694PP      PP21798  14.784   6.307   3.301  0.0178  0.0626 -0.0204
11695PP      PP21799  15.421   3.976  12.214  0.0464 -0.0840  0.1161
11696PP      PP21800  15.120  10.836   1.395 -0.0521  0.1892  0.0105
11697PP      PP21801  13.869  14.283  12.479 -0.0597 -0.1147 -0.0098
11698PP      PP21802   1.337  15.279  12.219 -0.0288 -0.0758  0.0189
11699PP      PP21803  15.271  12.087  11.147 -0.2976  0.0923  0.1239
11700PP      PP21804  11.276   4.863   2.641 -0.1287  0.1323  0.0270
11701PP      PP21805   8.760   1.109  12.925 -0.0204  0.1090 -0.0418
11702PP      PP21806   7.052  11.686  10.984 -0.1746  0.0250  0.1611
11703PP      PP21807   2.995  15.335   2.001  0.3374  0.0553 -0.0810
11704PP      PP21808   6.880   6.632  12.871  0.0654  0.0639  0.0582
11705PP      PP21809   7.408  15.308  12.853 -0.0921  0.1009 -0.2570
11706PP      PP21810   3.993   9.350   9.325  0.2381 -0.0777 -0.0672
11707PP      PP21811  13.962  11.647  12.732  0.3874  0.0544 -0.3134
11708PP      PP21812   9.246   0.667   8.841  0.1284 -0.1264  0.2680
11709PP      PP21813  14.395   8.475   3.233 -0.1272  0.0431  0.1707
11710PP      PP21814   0.688  12.544   0.218 -0.0920  0.0426  0.0646
11711PP      PP21815   7.619   3.915   9.094 -0.1398  0.2833  0.1023
11712PP      PP21816  11.505   1.330   3.398  0.1173  0.0747  0.0894
11713PP      PP21817   7.172   7.765   0.575  0.2333  0.0340 -0.1534
11714PP      PP21818  14.355   5.333   2.255  0.1381 -0.0421 -0.0798
11715PP      PP21819   3.322   5.919   3.568 -0.0772 -0.0345  0.1249
11716PP      PP21820   2.178   0.822   9.424 -0.0441 -0.0441  0.2112
11717PP      PP21821  11.534  14.606  12.839  0.1991  0.1080 -0.0849
11718PP      PP21822   6.743  15.453   9.666 -0.2022  0.2444 -0.1140
11719PP      PP21823  11.820   7.785  13.056 -0.2423  0.1192 -0.1445
11720PP      PP21824   6.147   6.023   8.119  0.1079 -0.1741  0.0659
11721PP      PP21825   7.819   3.303   2.608  0.1003 -0.0044 -0.0472
11722PP      PP21826   9.287  14.482   1.746  0.2044 -0.0865  0.0646
11723PP      PP21827   5.967  11.753  10.702 -0.2576  0.0887 -0.0753
11724PP      PP21828  11.057   4.596   1.260 -0.0212  0.1525  0.0022
11725PP      PP21829   6.193  12.216   0.365 -0.1491 -0.3297  0.2035
11726PP      PP21830  13.691  13.372  12.688  0.0493  0.1228  0.0370
11727PP      PP21831  13.649   4.862   2.233 -0.0160  0.2511  0.0271
11728PP      PP21832   3.153   8.952  13.483 -0.3533  0.0389 -0.0887
11729PP      PP21833  11.780  11.164   4.172  0.0726 -0.0567 -0.0360
11730PP      PP21834  15.127   2.777  13.356 -0.0642 -0.0675  0.1333
11731PP      PP21835  11.144   6.272  11.029 -0.5221 -0.0158 -0.1656
11732PP      PP21836   3.749  14.929   3.526 -0.0396 -0.0658 -0.3075
11733PP      PP21837   4.573   0.900  10.968  0.0977 -0.3957 -0.0142
11734PP      PP21838   1.116   3.623   9.097 -0.0109 -0.0928  0.0597
11735PP      PP21839  11.760   2.449  10.705 -0.1183 -0.2744  0.1184
11736PP      PP21840  10.530  14.126   4.173  0.4376  0.0320  0.0395
11737PP      PP21841  12.655   1.144   2.545  0.1283  0.2696 -0.1080
11738PP      PP21842   0.284   3.119   0.921  0.0983  0.0861 -0.1120
11739PP      PP21843   5.181   9.701   3.181 -0.1324 -0.1356 -0.0386
11740PP      PP21844   5.149   5.235   1.363 -0.0246 -0.2307 -0.2918
11741PP      PP21845   9.665   6.968   0.350 -0.2053 -0.2443 -0.5135
11742PP      PP21846   7.259   9.570  12.337 -0.0749  0.1882 -0.0476
11743PP      PP21847  14.955   5.525   2.767 -0.2401  0.0490  0.2939
11744PP      PP21848  10.242  15.089  12.204 -0.0754 -0.1598 -0.0256
11745PP      PP21849  12.851   3.329   3.751 -0.1089 -0.0950 -0.1285
11746PP      PP21850   2.659  15.158   2.784  0.2546  0.0036  0.3878
11747PP      PP21851   6.435   9.943   1.195  0.1621 -0.0200  0.3923
11748PP      PP21852  10.489  13.411  10.154  0.1277 -0.0594  0.2198
11749PP      PP21853   8.800   5.199  11.654 -0.1162 -0.0970  0.4766
11750PP      PP21854  10.906   0.854  11.151 -0.1720  0.3263  0.2734
11751PP      PP21855   6.487  11.722  13.310  0.1916  0.1709 -0.0519
11752PP      PP21856   3.075   2.238   1.378 -0.1036 -0.1214  0.1100
11753PP      PP21857  15.304  12.513  12.809  0.0544 -0.1175 -0.1527
11754PP      PP21858   4.210   4.146   4.190  0.0749  0.1781 -0.1484
11755PP      PP21859  11.806   9.346  11.071 -0.1144 -0.3217 -0.1481
11756PP      PP21860  10.360  10.347  12.841  0.0882  0.2449 -0.0566
11757PP      PP21861   7.025   4.222   1.939  0.2324  0.1584 -0.1081
11758PP      PP21862   6.808  12.524  13.513 -0.1632  0.3223 -0.4002
11759PP      PP21863   3.494   5.599  11.899  0.5194  0.0529 -0.3319
11760PP      PP21864  12.367  14.962   9.429 -0.0345 -0.2335 -0.0136
11761PP      PP21865  15.086   3.195   0.459 -0.0164 -0.2913  0.0627
11762PP      PP21866   2.985   8.621  12.446 -0.3318 -0.3529  0.0823
11763PP      PP21867   6.198   8.535   1.828 -0.0423 -0.2469  0.0474
11764PP      PP21868  10.546   1.468   4.519 -0.1195  0.2534 -0.1073
11765PP      PP21869   0.271   0.605   2.313 -0.0288 -0.1464  0.0750
11766PP      PP21870  12.249   8.649  12.989  0.0899 -0.1744  0.0157
11767PP      PP21871  12.152  11.445   3.345  0.0594 -0.1003  0.1421
11768PP      PP21872   7.137   6.464  11.290  0.4000 -0.2336  0.0337
11769PP      PP21873  10.449  14.223   3.273 -0.0478  0.0135  0.0165
11770PP      PP21874  15.574   2.114   1.610 -0.3058 -0.0037 -0.0542
11771PP      PP21875   1.530   7.796   9.840  0.2843 -0.1310  0.0547
11772PP      PP21876   7.345  11.805  11.402  0.0008  0.3279 -0.1780
11773PP      PP21877   8.714  13.427  10.031  0.0837  0.3378 -0.3108
11774PP      PP21878  12.575  14.524   5.026  0.1127  0.0795  0.1313
11775PP      PP21879   6.068   2.398  11.065  0.2563 -0.1336 -0.1302
11776PP      PP21880   1.806   8.516  12.988 -0.0066 -0.0279  0.0895
11777PP      PP21881  14.466  15.629   1.172  0.1635  0.0239  0.1577
11778PP      PP21882  12.324   3.114   0.492 -0.2279  0.0903 -0.4862
11779PP      PP21883   0.497  11.459  10.803  0.2164  0.0142 -0.2054
11780PP      PP21884  10.427   2.326  11.547  0.2628  0.0479 -0.1121
11781PP      PP21885   7.023  12.542   4.690 -0.3750  0.1282 -0.0465
11782PP      PP21886   2.217   9.711   1.248  0.2748 -0.0028  0.2727
11783PP      PP21887  12.221   4.989  11.776 -0.0211 -0.1063  0.1559
11784PP      PP21888   5.406   3.190   0.636  0.0038  0.2609 -0.0804
11785PP      PP21889   2.013   0.607   0.963  0.2016  0.2424 -0.2627
11786PP      PP21890   3.271  10.212   2.064  0.1503  0.2757  0.2789
11787PP      PP21891   2.733  14.328  11.699 -0.0733  0.0559 -0.4543
11788PP      PP21892   6.413   2.070  11.278  0.2181 -0.1397 -0.1028
11789PP      PP21893   2.689   2.741   1.200  0.1306 -0.2838  0.3789
11790PP      PP21894   2.268  12.400   0.746  0.1558 -0.1912  0.1854
11791PP      PP21895   9.211  13.454   3.680  0.1177 -0.4723  0.1883
11792PP      PP21896   1.848  14.762   1.813  0.2336 -0.0856 -0.2761
11793PP      PP21897  15.151   9.923   2.283 -0.2350  0.2563  0.0350
11794PP      PP21898  15.078  13.101   0.439 -0.0556  0.2252 -0.1657
11795PP      PP21899  13.501  14.842  11.617  0.0271  0.1940  0.0710
11796PP      PP21900  13.515   9.839  11.507 -0.0479  0.1121  0.2136
11797PP      PP21901   8.878   8.866  12.724  0.0201  0.3385 -0.1977
11798PP      PP21902   0.961   3.148  11.141 -0.1484  0.2751 -0.2210
11799PP      PP21903  12.360   3.516   0.119 -0.1574 -0.0379  0.0270
11800PP      PP21904   8.853   7.002  11.960 -0.0616  0.0116 -0.1253
11801PP      PP21905   9.480   9.631   0.293 -0.1838 -0.0316 -0.2047
11802PP      PP21906   8.062   8.085   0.883 -0.0204 -0.0548  0.0694
11803PP      PP21907  11.616   5.361  10.634 -0.5784  0.0939  0.1398
11804PP      PP21908   9.939   8.002   9.781  0.0953 -0.1333  0.0417
11805PP      PP21909   3.572  14.708  11.271  0.2778  0.1702  0.2174
11806PP      PP21910   8.512   1.160  10.295  0.1115 -0.1700 -0.1945
11807PP      PP21911   7.973  14.513   1.331 -0.1759  0.0649 -0.1077
11808PP      PP21912   5.700  12.646   3.708 -0.0153 -0.5446 -0.2616
11809PP      PP21913   9.551   7.400  13.022 -0.2474 -0.2113 -0.2038
11810PP      PP21914  12.925  13.654   3.891  0.2281  0.1360  0.0092
11811PP      PP21915   7.022   2.928   2.414  0.0545 -0.2886  0.0065
11812PP      PP21916  14.660   3.282  10.635  0.0231 -0.0605  0.0749
11813PP      PP21917   0.221   9.479   0.107 -0.0789  0.0137 -0.1015
11814PP      PP21918   0.101   0.635   3.688  0.2328  0.0308  0.1106
11815PP      PP21919   5.638  10.243   1.957  0.3537 -0.1665  0.2730
11816PP      PP21920  15.348  15.006   2.249  0.1147 -0.1380 -0.2437
11817PP      PP21921   9.406   1.661   3.033 -0.0901 -0.0540 -0.0010
11818PP      PP21922  15.072   0.537   2.248 -0.0013  0.1431 -0.0248
11819PP      PP21923   3.306   6.692  13.293  0.1785 -0.2779  0.0912
11820PP      PP21924  13.620  11.902   2.159 -0.0295  0.2115 -0.1712
11821PP      PP21925   1.361   2.701  12.325  0.3215  0.1708  0.3310
11822PP      PP21926   3.397   9.389   9.075  0.1038 -0.2187 -0.0685
11823PP      PP21927   7.683   2.237   9.693 -0.0204  0.0824 -0.0412
11824PP      PP21928   1.356  13.580  12.098  0.2343 -0.2900  0.0093
11825PP      PP21929   1.707   4.887   9.938  0.0257  0.1702  0.0439
11826PP      PP21930  15.715  11.166  12.070 -0.2973 -0.0833 -0.0875
11827PP      PP21931   6.353   1.595   9.470  0.0176  0.1882  0.1373
11828PP      PP21932   0.270   4.606  11.090 -0.0933 -0.0539 -0.0928
11829PP      PP21933  14.510   0.740   4.564 -0.1403  0.0194  0.2178
11830PP      PP21934   9.360   6.623   0.982  0.3239 -0.0730 -0.2176
11831PP      PP21935   7.173   8.463   2.400  0.3816 -0.0947 -0.0730
11832PP      PP21936  13.017   4.889   9.908 -0.3024 -0.0681 -0.0085
11833PP      PP21937  13.008  13.982   2.513 -0.4653  0.0768  0.1603
11834PP      PP21938   3.777  10.172   0.661  0.2678 -0.0003  0.2107
11835PP      PP21939   2.600   3.847   2.260  0.0391 -0.1348  0.0051
11836PP      PP21940   4.783   5.235  12.791 -0.2879  0.2228 -0.1270
11837PP      PP21941   0.648   3.297   9.309 -0.0726  0.2856 -0.1631
11838PP      PP21942   4.431   9.055  12.458  0.1004 -0.1987 -0.1642
11839PP      PP21943  10.623   0.620  12.136 -0.1266  0.0372  0.0863
11840PP      PP21944   1.020  10.618  10.708  0.1842 -0.1555 -0.0011
11841PP      PP21945   7.302   9.929  11.495  0.1017  0.1475  0.0917
11842PP      PP21946  11.678  10.601   0.782  0.2472 -0.0590 -0.0057
11843PP      PP21947  15.046  10.657  10.972 -0.1756 -0.0222  0.1503
11844PP      PP21948  15.278   3.656   1.373 -0.1442  0.0223 -0.0032
11845PP      PP21949  13.048  10.317  12.188  0.2634  0.1108 -0.0446
11846PP      PP21950   1.457   7.644  12.083  0.0698  0.1311  0.3792
11847PP      PP21951  10.260   7.747   0.414  0.0129  0.1008 -0.3668
11848PP      PP21952  12.104   8.641   4.946  0.0453  0.2752 -0.1174
11849PP      PP21953   0.193   3.353  12.702  0.0306  0.1911 -0.1122
11850PP      PP21954   3.387   9.744   2.081 -0.2145 -0.0586 -0.2079
11851PP      PP21955   1.160  13.829  12.523  0.1627  0.1234 -0.3633
11852PP      PP21956  10.387   4.607  13.630  0.3249 -0.0445 -0.3803
11853PP      PP21957   9.941  11.322  12.959 -0.4401  0.0957 -0.0692
11854PP      PP21958  11.020   9.880   4.778 -0.1280  0.2767 -0.0154
11855PP      PP21959   8.476   0.665  12.989  0.0173  0.0680 -0.1930
11856PP      PP21960   0.797  14.538  10.710  0.1316 -0.0372  0.0105
11857PP      PP21961   2.456  12.419  10.904  0.1861  0.0058  0.2317
11858PP      PP21962   3.558  14.885  10.103  0.2388  0.1504 -0.1529
11859PP      PP21963   8.666   7.327   9.545  0.0590 -0.2966 -0.3885
11860PP      PP21964  12.576  13.296   1.031  0.2281 -0.1939 -0.0367
11861PP      PP21965   3.617  11.657  11.454  0.3537  0.1783 -0.4819
11862PP      PP21966   3.343   6.324  12.665 -0.4595  0.0635  0.2287
11863PP      PP21967   0.097  11.912   0.516 -0.2653 -0.0187 -0.0811
11864PP      PP21968  14.959   1.985   2.805  0.2208  0.0216 -0.1992
11865PP      PP21969   9.086  10.887  10.603  0.0868  0.0307 -0.1914
11866PP      PP21970   7.807   5.971   7.693 -0.1014  0.1781  0.0981
11867PP      PP21971   1.918  11.078  10.994  0.2635  0.1084 -0.0373
11868PP      PP21972   7.635   4.304  10.424  0.1189 -0.2571 -0.3640
11869PP      PP21973   1.856   6.275  10.398  0.1667  0.3474  0.1939
11870PP      PP21974   1.303   0.330   8.859 -0.2109 -0.0679 -0.1164
11871PP      PP21975   4.605   1.640  13.707  0.0372 -0.3045 -0.0813
11872PP      PP21976  10.505  14.020  10.482 -0.0088 -0.0016 -0.2738
11873PP      PP21977   8.196  10.024   3.997  0.1902 -0.0378  0.1112
11874PP      PP21978  15.418   9.590  12.558  0.1307 -0.0584 -0.4428
11875PP      PP21979   0.743   5.763   3.591 -0.0166 -0.2931 -0.2025
11876PP      PP21980   7.101   3.342  12.710 -0.1369  0.0959 -0.0657
11877PP      PP21981   8.090   3.818   9.415  0.0249  0.2327 -0.2959
11878PP      PP21982   4.514   2.476   0.632 -0.0615 -0.0122  0.2470
11879PP      PP21983   4.999  11.758   0.635 -0.1058  0.0314 -0.0256
11880PP      PP21984   4.864  10.786   2.214 -0.0107  0.1972 -0.1778
11881PP      PP21985   5.479   9.635  12.945  0.2482 -0.3369  0.1840
11882PP      PP21986   3.037   6.771   2.883  0.3279 -0.1640  0.2066
11883PP      PP21987  14.321  12.707   0.062 -0.3891 -0.1667  0.0985
11884PP      PP21988  14.239  12.006  12.020  0.0880  0.0840 -0.0816
11885PP      PP21989   6.769   0.478  10.200  0.2308  0.1607 -0.1487
11886PP      PP21990   0.829   0.983   2.936  0.0704 -0.0730 -0.0024
11887PP      PP21991  12.394   7.791   2.041 -0.0593 -0.2706  0.1249
11888PP      PP21992   2.286   5.323   9.172 -0.1491  0.1696 -0.2646
11889PP      PP21993   8.193   0.859   8.483 -0.2254  0.0974  0.2244
11890PP      PP21994   1.311   9.650   0.913  0.3317 -0.1275  0.2205
11891PP      PP21995   1.159   1.969  10.238 -0.2786 -0.3042 -0.1009
11892PP      PP21996  11.210  15.498   2.616 -0.3481 -0.4668  0.0866
11893PP      PP21997   0.954   2.491  10.637  0.1525  0.0297 -0.0788
11894PP      PP21998   8.387  10.847   5.160 -0.0222 -0.1415  0.2786
11895PP      PP21999   8.482   8.093   9.096  0.2352  0.0653  0.2416
11896PP      PP22000   8.275   5.030  10.747  0.2391 -0.2368  0.2285
11897PP      PP22001  11.403   2.541   0.813 -0.2149  0.1194  0.3528
11898PP      PP22002   7.387  13.053   5.114 -0.0925  0.2937 -0.0274
11899PP      PP22003   6.620   3.923   9.432  0.1019 -0.3034 -0.1835
11900PP      PP22004  15.529   7.366   2.695  0.1413  0.0745  0.3691
11901PP      PP22005  13.700   6.128  10.071  0.0668  0.2423 -0.1529
11902PP      PP22006   7.131   7.579   1.048 -0.0685 -0.0705 -0.0045
11903PP      PP22007   6.688   7.755   1.961 -0.0567 -0.1119 -0.2627
11904PP      PP22008   8.698  11.717   0.232  0.2302  0.1429  0.0163
11905PP      PP22009  10.338   0.571   0.005 -0.2938  0.1341  0.0809
11906PP      PP22010   0.359  11.208   1.891 -0.0493 -0.1008  0.0734
11907PP      PP22011   7.955   4.986   0.655 -0.0164  0.0008  0.4016
11908PP      PP22012   1.198   1.976  13.055  0.0662 -0.1960 -0.0477
11909PP      PP22013   5.618   7.520  11.923 -0.0635  0.3014  0.0521
11910PP      PP22014   3.793   3.368  11.437 -0.4249 -0.0340 -0.0039
11911PP      PP22015  12.251  12.816  11.594 -0.0047  0.0083  0.2290
11912PP      PP22016   5.681  14.859   2.869 -0.0504  0.0546  0.1517
11913PP      PP22017   2.656   0.273   1.824  0.0576  0.1906 -0.3192
11914PP      PP22018   4.426  12.779   3.447 -0.3838 -0.0974  0.0878
11915PP      PP22019  11.778   8.872  12.772 -0.1788 -0.2220  0.0659
11916PP      PP22020   7.520  14.423   1.215  0.0849  0.0532  0.2650
11917PP      PP22021  13.718   3.133   3.023 -0.0347  0.1727  0.2511
11918PP      PP22022   1.340   1.487  13.151 -0.2888 -0.2354  0.1932
11919PP      PP22023   9.964  10.209   4.160 -0.0025  0.1018  0.2475
11920PP      PP22024   7.709   7.335   1.852  0.1269 -0.0531 -0.1375
11921PP      PP22025   5.760  13.108   4.061  0.2129  0.3067  0.2393
11922PP      PP22026   5.402   7.632   1.161  0.1743  0.1222 -0.2992
11923PP      PP22027  15.269   6.820   0.278  0.1537  0.1046  0.0762
11924PP      PP22028  14.833   2.414   8.743  0.0989  0.2253  0.1901
11925PP      PP22029  11.851   8.796   0.623  0.2702  0.0111 -0.0418
11926PP      PP22030   8.444  11.841   5.032 -0.3497 -0.1364 -0.2108
11927PP      PP22031  12.915  11.773   3.591 -0.1407  0.3526  0.3252
11928PP      PP22032   5.351   5.342   2.874 -0.1820 -0.1574 -0.3713
11929PP      PP22033  15.586   8.308  10.956 -0.1639 -0.0994 -0.2043
11930PP      PP22034   3.462   9.634   4.084  0.2838 -0.1182 -0.2316
11931PP      PP22035   6.269   7.493   0.709  0.0591 -0.2995 -0.1038
11932PP      PP22036  12.338  10.908   4.482 -0.0574 -0.0887  0.0660
11933PP      PP22037  10.300   2.461  11.097  0.4654  0.2090 -0.0229
11934PP      PP22038  13.981  15.502   3.771 -0.2240  0.0682 -0.1996
11935PP      PP22039  14.677   6.739  10.484 -0.1057  0.1893 -0.0449
11936PP      PP22040   1.112  12.877  10.668 -0.0609 -0.0413 -0.2290
11937PP      PP22041  14.296   6.516  11.365 -0.0336 -0.0494 -0.0942
11938PP      PP22042  11.933   5.208   9.745  0.1299  0.1319  0.1114
11939PP      PP22043   1.388  12.046  10.320  0.1768 -0.0909  0.0896
11940PP      PP22044   6.259  12.246   9.527  0.1131 -0.0438  0.0187
11941PP      PP22045   5.893   6.644   0.448  0.3314  0.0214 -0.0087
11942PP      PP22046  10.659  10.926  13.572 -0.0208  0.3976 -0.3130
11943PP      PP22047   0.631   1.250   3.693 -0.1656  0.1901  0.0439
11944PP      PP22048  12.279  11.899   4.123 -0.1292  0.0312  0.1571
11945PP      PP22049   3.125  13.281   3.493  0.0213  0.1404 -0.0293
11946PP      PP22050  14.466   2.610   4.526  0.1913 -0.0200 -0.1552
11947PP      PP22051   3.802  13.770   9.645  0.0946  0.1024 -0.3976
11948PP      PP22052  12.434   5.320   0.174 -0.2345 -0.2270 -0.0656
11949PP      PP22053  12.097   8.653  13.496  0.0662  0.1080  0.0401
11950PP      PP22054   8.508   6.410  13.480  0.0905  0.0575 -0.2122
11951PP      PP22055  10.150  14.027  10.109  0.2090  0.0997  0.0642
11952PP      PP22056  10.830  12.210   0.666 -0.0622  0.0346 -0.1111
11953PP      PP22057   1.345   1.804   1.772  0.0946  0.1058 -0.3005
11954PP      PP22058   5.378   3.962   0.214  0.0561  0.3707 -0.0128
11955PP      PP22059   7.610   7.635   2.292 -0.2346  0.0032  0.1048
11956PP      PP22060   1.820   7.997   3.741 -0.1176  0.1479  0.4909
11957PP      PP22061   3.025  10.221  12.782  0.1747  0.0111 -0.3628
11958PP      PP22062  15.611   2.784   3.871 -0.0547 -0.1020  0.1454
11959PP      PP22063   6.955   5.066   9.512 -0.2227  0.3973  0.1919
11960PP      PP22064  10.129  11.922   4.568  0.0005 -0.0016  0.1467
11961PP      PP22065  10.326   9.009   0.705 -0.0275 -0.0592  0.3665
11962PP      PP22066   8.203   8.046   2.930 -0.0667 -0.1041 -0.0454
11963PP      PP22067  14.916   1.877   0.020 -0.1326  0.0915 -0.0126
11964PP      PP22068  10.617  14.894  11.940  0.1694  0.0336  0.1507
11965PP      PP22069  10.497   8.029   2.389  0.0292 -0.2346  0.0638
11966PP      PP22070   7.838   9.110  10.656 -0.1357  0.1449 -0.0816
11967PP      PP22071  13.051   0.471  12.489 -0.2657 -0.0131 -0.0257
11968PP      PP22072   6.410  13.054   3.082 -0.1153  0.1094  0.2326
11969PP      PP22073  11.958  13.300   2.847 -0.2015  0.1794  0.1477
11970PP      PP22074   7.014   5.725   0.950 -0.1348 -0.3635  0.1865
11971PP      PP22075   5.860   5.573   2.914  0.1255 -0.3051  0.0252
11972PP      PP22076   4.889   6.125   9.101 -0.0997  0.0903  0.2537
11973PP      PP22077  14.526   8.047   4.840 -0.1974 -0.2699  0.2793
11974PP      PP22078   2.632  11.612  12.930  0.1505  0.2393  0.2545
11975PP      PP22079   8.730   1.654  12.984  0.0631  0.2049  0.1919
11976PP      PP22080  13.229   1.457   8.713  0.2677  0.0983  0.3164
11977PP      PP22081  14.919  12.083  10.737  0.0009 -0.0360 -0.1432
11978PP      PP22082   6.599   9.050   0.267  0.0872  0.0995 -0.0192
11979PP      PP22083   7.051   8.815  10.171 -0.2242 -0.0123 -0.1863
11980PP      PP22084   3.159   8.328  13.254 -0.0041 -0.0030  0.1834
11981PP      PP22085   2.727  11.542  11.234  0.0600 -0.1252 -0.0416
11982PP      PP22086   3.910   7.683   3.648 -0.2130 -0.1696  0.1792
11983PP      PP22087  12.336   3.640   3.173 -0.1915 -0.2720  0.1139
11984PP      PP22088  15.177   6.841  10.503 -0.0508 -0.2725 -0.0193
11985PP      PP22089   7.115  11.852  12.655  0.0445  0.4564 -0.2005
11986PP      PP22090  12.254   6.352   3.762 -0.0907  0.0166  0.2519
11987PP      PP22091   5.317   0.096   9.249 -0.0635  0.0028  0.2203
11988PP      PP22092  12.868   6.961  12.348  0.1501  0.2174 -0.1734
11989PP      PP22093   2.793   6.558  13.415 -0.1673 -0.1705  0.1685
11990PP      PP22094  12.633  14.123   4.080 -0.0811 -0.0748  0.1946
11991PP      PP22095   3.950   1.870   2.539  0.2359 -0.3788 -0.3327
11992PP      PP22096  11.900  11.765   1.116 -0.0805 -0.1483  0.3788
11993PP      PP22097   8.768  14.594  13.019  0.0604  0.0135  0.0069
11994PP      PP22098  12.163  13.223   3.781 -0.0612  0.2129  0.1008
11995PP      PP22099  14.910  10.882  12.870  0.1162 -0.0682  0.2281
11996PP      PP22100   3.966   3.104  12.400  0.1938  0.2689 -0.0786
11997PP      PP22101   2.950   7.049   9.935 -0.2478 -0.0727 -0.2677
11998PP      PP22102   1.891   2.694   3.264 -0.0005  0.1159  0.2834
11999PP      PP22103   8.573  13.646   0.606  0.1239 -0.0509 -0.1130
12000PP      PP22104   7.011   4.517   8.268 -0.1690 -0.0523 -0.0889
12001PP      PP22105   7.467   3.471   8.800 -0.0644  0.1071 -0.2741
12002PP      PP22106   5.897   9.000   8.774 -0.2488 -0.2395  0.0822
12003PP      PP22107   0.341   8.360   3.827 -0.1926  0.0125  0.1329
12004PP      PP22108  10.881   2.399  11.798  0.0722 -0.0240 -0.1101
12005PP      PP22109   1.266  14.155   3.025  0.0960 -0.0613 -0.1730
12006PP      PP22110   6.863   6.346  12.307  0.0003  0.0603  0.2935
12007PP      PP22111   9.016   3.670   9.788 -0.2490  0.1166  0.0634
12008PP      PP22112   3.758   5.885  12.733  0.0031  0.0756 -0.0402
12009PP      PP22113   1.849   2.617   8.322 -0.0264  0.0686  0.0714
12010PP      PP22114   6.647   3.648   2.679 -0.0080  0.0520  0.1766
12011PP      PP22115  10.147  14.694   1.235 -0.0189  0.1829 -0.1442
12012PP      PP22116  10.535  14.873  12.617  0.2820  0.0976  0.2017
12013PP      PP22117   6.876   9.149  12.436 -0.1619  0.1917 -0.0511
12014PP      PP22118   1.291   0.136  12.164 -0.1979 -0.1137  0.0972
12015PP      PP22119  13.586   2.895  13.221  0.3210 -0.0522 -0.1615
12016PP      PP22120   6.674   8.456   0.920 -0.1589 -0.0453 -0.0126
12017PP      PP22121  11.029   4.581  10.004 -0.0039  0.1420  0.2426
12018PP      PP22122   3.914  10.417   1.189  0.3153  0.1186  0.1214
12019PP      PP22123   9.973   3.613   2.488 -0.1171  0.0202  0.2502
12020PP      PP22124  11.088  11.664   2.473 -0.2968 -0.2960 -0.6086
12021PP      PP22125   3.760  15.647   0.704  0.0580 -0.1457  0.0119
12022PP      PP22126   4.132  13.332   0.250  0.0062  0.1135 -0.0582
12023PP      PP22127   1.490  10.118   3.424 -0.0377  0.2546 -0.1681
12024PP      PP22128   4.586   7.493  11.871 -0.2088  0.0315 -0.0540
12025PP      PP22129  12.905   9.905  13.315 -0.1444  0.1635 -0.0936
12026PP      PP22130   4.384   4.840   8.490 -0.3887 -0.0289 -0.0700
12027PP      PP22131   3.766  10.691   9.256  0.4064  0.1083 -0.0820
12028PP      PP22132   3.798  11.407  13.428  0.0573 -0.1733 -0.0286
12029PP      PP22133   9.061   4.472   0.768 -0.3844  0.1157 -0.3445
12030PP      PP22134   3.236  11.355  10.273 -0.2611 -0.0490  0.0501
12031PP      PP22135  12.078  15.269  12.352 -0.2392 -0.0522 -0.1879
12032PP      PP22136   6.942  13.303   3.937  0.0505  0.1620 -0.1245
12033PP      PP22137  12.284  11.057   3.032 -0.1316 -0.2039 -0.0205
12034PP      PP22138   5.132   3.597  12.550 -0.1536 -0.0402  0.0619
12035PP      PP22139   4.049   6.483  10.603  0.0257 -0.2324 -0.0407
12036PP      PP22140   8.400   3.709   8.975 -0.0142 -0.1577 -0.1423
12037PP      PP22141   4.721  10.569   9.117  0.2990  0.0746 -0.0685
12038PP      PP22142   4.389   7.253   1.867  0.1000 -0.1596 -0.0781
12039PP      PP22143   3.878  14.396  10.906 -0.0101 -0.3321 -0.2038
12040PP      PP22144   1.629  15.690   2.720 -0.0037 -0.2070 -0.0823
12041PP      PP22145  14.985  11.049   0.372  0.0127  0.0485 -0.1164
12042PP      PP22146   3.351   0.287   0.114  0.4851  0.3115  0.1782
12043PP      PP22147   8.507   2.118  11.743 -0.4013  0.1281 -0.0331
12044PP      PP22148   7.556  10.015   2.309  0.1377  0.1366 -0.1321
12045PP      PP22149  13.765  13.721   4.624 -0.0971 -0.2670  0.1371
12046PP      PP22150   2.137   2.218  13.430 -0.0998 -0.1335  0.1370
12047PP      PP22151   7.218   1.668  11.782  0.0335 -0.2605 -0.1174
12048PP      PP22152   8.401  10.336  11.082  0.1967 -0.1899 -0.2036
12049PP      PP22153   5.240  13.585   3.419  0.0819 -0.0178  0.2261
12050PP      PP22154   9.735  14.989   1.687 -0.1976  0.0507 -0.1881
12051PP      PP22155  14.634   5.430  13.677  0.2261  0.1276  0.0848
12052PP      PP22156  13.090   4.927   3.967 -0.1103 -0.1196  0.1340
12053PP      PP22157   2.893  13.056   9.801  0.3015 -0.0152 -0.4470
12054PP      PP22158  14.136   0.923   1.675  0.1982  0.0388 -0.1667
12055PP      PP22159   9.994   9.370   0.957 -0.0308  0.3122 -0.0945
12056PP      PP22160  12.725   1.178  13.047 -0.1970 -0.1439  0.3089
12057PP      PP22161   7.482   6.344   3.631 -0.1649 -0.0604 -0.2449
12058PP      PP22162  11.815   0.087   9.420  0.0204 -0.1276 -0.1471
12059PP      PP22163  10.997   6.726  11.907  0.1375 -0.1373 -0.0266
12060PP      PP22164   2.807   9.073  10.710  0.1779 -0.2028  0.1088
12061PP      PP22165   9.844  12.261   1.474  0.3404  0.1987 -0.4172
12062PP      PP22166  12.126   6.647   4.186 -0.0607  0.0656 -0.3114
12063PP      PP22167   4.403   9.250   4.165  0.0631  0.0381 -0.1362
12064PP      PP22168   1.126   1.247   2.641 -0.0415 -0.0723 -0.0212
12065PP      PP22169  11.447   2.539  11.533  0.2289  0.0195  0.0037
12066PP      PP22170   9.443  14.253  11.517 -0.1333  0.0388  0.0527
12067PP      PP22171   2.625   6.653   9.880  0.2581  0.2249  0.0073
12068PP      PP22172   3.440   2.392  11.940 -0.3563 -0.2907  0.0629
12069PP      PP22173   1.697  13.579   4.260  0.0637  0.0012  0.0581
12070PP      PP22174   2.062   3.727  10.160 -0.0826 -0.0694 -0.0000
12071PP      PP22175  15.409   9.893  10.601  0.1432 -0.1342 -0.0657
12072PP      PP22176   7.462   3.700   7.723 -0.3705 -0.1229 -0.1683
12073PP      PP22177   4.382  14.255  10.069  0.0448  0.0878  0.3089
12074PP      PP22178  13.578   6.618  12.626 -0.2075 -0.1205 -0.0517
12075PP      PP22179   2.052  14.184   3.732  0.2142 -0.3595  0.1809
12076PP      PP22180   4.688   6.684   9.285 -0.3145 -0.1288 -0.0905
12077PP      PP22181   1.321   8.664   0.628  0.0049 -0.1518 -0.2590
12078PP      PP22182  12.491   9.456  12.544  0.0304 -0.1633 -0.2124
12079PP      PP22183   1.434  10.348   9.306  0.0484 -0.1409 -0.1873
12080PP      PP22184   1.858   7.361   0.882 -0.0104  0.1925  0.0296
12081PP      PP22185  12.138  13.978  11.914 -0.3425  0.1711  0.0875
12082PP      PP22186  10.408   9.344  11.113 -0.1957  0.2788  0.0154
12083PP      PP22187  13.789   1.613   8.756  0.2705  0.0988 -0.2111
12084PP      PP22188  12.611   5.175   2.728 -0.1081  0.1392 -0.1292
12085PP      PP22189   1.553  15.045  13.192  0.0363  0.1719 -0.0324
12086PP      PP22190   8.510   1.577   0.484 -0.2350 -0.0258 -0.0801
12087PP      PP22191   9.542  13.225  12.550  0.1195  0.0375  0.0949
12088PP      PP22192   9.091   2.842   9.908  0.1043  0.1557  0.0610
12089PP      PP22193  14.989   6.015   1.988 -0.0557  0.2743 -0.1125
12090PP      PP22194   1.652   6.065   2.369  0.0971  0.1703 -0.2681
12091PP      PP22195   3.115   8.275  11.413  0.0338 -0.0849  0.0219
12092PP      PP22196   3.711  15.328   2.205  0.1136  0.1368  0.0065
12093PP      PP22197  12.814  14.170  13.124 -0.1804  0.3343  0.0735
12094PP      PP22198  11.590   9.760  10.749  0.0261  0.0198  0.0309
12095PP      PP22199  13.933  12.946   0.839  0.3989 -0.1876 -0.0283
12096PP      PP22200   8.845   6.206   3.436  0.0777  0.1333  0.1963
12097PP      PP22201   5.696   2.050  10.028 -0.2538 -0.3700 -0.1231
12098PP      PP22202   7.633   1.957   0.466 -0.1068  0.1188  0.1262
12099PP      PP22203   3.071   2.904   8.145  0.2250  0.0768 -0.0875
12100PP      PP22204  13.849   7.222   3.671  0.2802 -0.1777 -0.2540
12101PP      PP22205   8.995   2.377   8.658 -0.1826  0.2665 -0.0097
12102PP      PP22206  11.693   3.376  13.468  0.1260  0.0172  0.0104
12103PP      PP22207  15.593  15.143   1.695 -0.2165  0.0462  0.0133
12104PP      PP22208   7.018  14.258  10.263 -0.0772 -0.0507  0.1503
12105PP      PP22209  13.126  10.360   3.659 -0.2020  0.0837 -0.0719
12106PP      PP22210   0.060   8.287  11.750 -0.3104  0.1732  0.0861
12107PP      PP22211   6.385   3.293  13.728  0.1234  0.0661 -0.0606
12108PP      PP22212   2.524  13.122   0.347 -0.0084  0.1064  0.1412
12109PP      PP22213   5.435   8.772   8.685  0.1188 -0.1581  0.0318
12110PP      PP22214   4.294   7.695   9.281  0.4225  0.2003  0.2100
12111PP      PP22215  13.538  13.384   9.825 -0.1973  0.2283 -0.0775
12112PP      PP22216  13.660   0.736  12.566  0.2274  0.1381 -0.1821
12113PP      PP22217  12.149   8.976   2.127 -0.1272  0.3197 -0.1094
12114PP      PP22218   0.109   4.109  10.799 -0.1530  0.1025 -0.0914
12115PP      PP22219   6.385  15.243  12.570 -0.1534 -0.0108 -0.4645
12116PP      PP22220  14.515   1.788  11.382  0.1947 -0.2214 -0.0181
12117PP      PP22221   4.372  15.658   2.655  0.0028  0.2604  0.0570
12118PP      PP22222   6.525   8.527  10.868 -0.1655 -0.0691  0.0658
12119PP      PP22223   7.665  12.258  13.328 -0.0979  0.2626 -0.0024
12120PP      PP22224  14.007  11.563  10.385  0.1194  0.2096  0.0389
12121PP      PP22225  13.443  11.580   9.838 -0.4366  0.1865 -0.0737
12122PP      PP22226  15.277  10.476   1.738  0.1254  0.0247  0.0726
12123PP      PP22227  13.386  12.557   9.300 -0.3312  0.0446 -0.3717
12124PP      PP22228   7.370   8.092   0.259 -0.1180 -0.1218 -0.0476
12125PP      PP22229  11.540   4.956   4.128 -0.3969  0.1220 -0.0730
12126PP      PP22230   9.231  14.058  10.344  0.0644  0.0651  0.2695
12127PP      PP22231   4.861   3.334  11.696  0.0061  0.3410 -0.2069
12128PP      PP22232  11.326  11.668  13.322  0.2756 -0.1530  0.0547
12129PP      PP22233  10.624   8.866   3.029 -0.1490  0.2810 -0.2081
12130PP      PP22234  10.776   8.971   4.068  0.5795  0.2461 -0.0578
12131PP      PP22235   6.496   3.621  10.539  0.2810  0.0294  0.1047
12132PP      PP22236   2.242   4.461  12.629  0.2137  0.1572 -0.0647
12133PP      PP22237   9.407  11.123   5.275  0.0819  0.0964  0.1109
12134PP      PP22238   5.562  14.525   3.621 -0.2078 -0.0331 -0.2016
12135PP      PP22239  11.967   5.551  10.373 -0.2104 -0.0311  0.2934
12136PP      PP22240   6.731  10.785  10.792  0.0860 -0.1437 -0.1515
12137PP      PP22241   6.296  12.872  12.980 -0.1532  0.1093  0.1036
12138PP      PP22242  11.756   9.837   3.920 -0.2117  0.0934  0.1100
12139PP      PP22243   3.824  10.437   2.483  0.2324 -0.2774  0.3118
12140PP      PP22244   6.096   6.023   2.706  0.2633 -0.0301  0.0059
12141PP      PP22245   3.500   3.955  13.135  0.1612 -0.3384  0.0777
12142PP      PP22246   8.892   4.705  13.071 -0.1535  0.1034 -0.4030
12143PP      PP22247   2.746   6.474   0.182 -0.0601  0.1373  0.0361
12144PP      PP22248   7.176   7.740  10.860 -0.0925  0.0929 -0.0047
12145PP      PP22249   0.804   8.974  13.095 -0.0236 -0.0933 -0.0820
12146PP      PP22250  10.588   4.351   9.936  0.0329  0.3135  0.1585
12147PP      PP22251  10.009   5.608  12.941  0.2070  0.1474  0.2201
12148PP      PP22252   0.359   5.654   2.529 -0.2231 -0.1617  0.2652
12149PP      PP22253   9.516   9.720   5.337 -0.1221 -0.0868  0.1349
12150PP      PP22254   3.918   7.497  13.409  0.0911 -0.0833 -0.0063
12151PP      PP22255   4.536   0.279  12.118  0.3606  0.2031  0.1049
12152PP      PP22256   7.142  14.765   2.739  0.1604 -0.3810  0.2816
12153PP      PP22257  10.437   2.862   2.335  0.2804  0.2124  0.2451
12154PP      PP22258   9.921   1.893   3.068 -0.4426 -0.0094  0.0794
12155PP      PP22259  15.035  14.734   3.449 -0.1206  0.1513 -0.3982
12156PP      PP22260   0.322   9.231   4.070 -0.0090 -0.0566  0.0684
12157PP      PP22261   4.486   4.830   3.560  0.0918  0.0419  0.1713
12158PP      PP22262   7.502   5.550  11.678  0.1624 -0.1902  0.2662
12159PP      PP22263   2.430   7.381  13.273  0.1987 -0.2452  0.1432
12160PP      PP22264  11.898   0.073   0.563 -0.0885  0.1929 -0.0456
12161PP      PP22265  13.417   3.665   0.035 -0.1976 -0.2186  0.2767
12162PP      PP22266  12.371  14.836  11.403 -0.0191 -0.0757 -0.5902
12163PP      PP22267   0.706   2.312   4.063  0.0392  0.1442 -0.1340
12164PP      PP22268  12.369   8.209  12.455  0.0034 -0.1338 -0.2187
12165PP      PP22269   2.480   3.043   8.045  0.3425 -0.2261 -0.2746
12166PP      PP22270  10.161  11.083  10.562 -0.0820 -0.0356  0.3114
12167PP      PP22271   6.813  11.417  11.375  0.1853 -0.2756 -0.2364
12168PP      PP22272   1.968   9.046  11.072 -0.0377 -0.0981 -0.1399
12169PP      PP22273   4.220  10.233   2.103  0.4614 -0.1339  0.0969
12170PP      PP22274  12.852  13.814   0.222  0.1445 -0.1189  0.2312
12171PP      PP22275   5.769   4.622   1.702 -0.3499  0.2351 -0.0713
12172PP      PP22276   9.450   0.436  10.225  0.0938 -0.1225  0.0609
12173PP      PP22277   2.596  10.999   3.057  0.2960  0.3374  0.1452
12174PP      PP22278  14.017   6.832   3.425 -0.0748  0.0312 -0.1770
12175PP      PP22279   7.562  13.002  11.630  0.0742  0.0728 -0.3066
12176PP      PP22280   0.324  11.290  11.220  0.0411 -0.3741 -0.1553
12177PP      PP22281   8.905   4.272   2.985 -0.0173  0.0788  0.1328
12178PP      PP22282   1.327   7.719   9.310  0.0739  0.1400  0.1032
12179PP      PP22283   8.076   9.784   2.957  0.3163 -0.1430 -0.1144
12180PP      PP22284   2.649   4.652  10.822 -0.1101 -0.1611 -0.0563
12181PP      PP22285   4.915   7.916   1.740 -0.0033  0.0405  0.0732
12182PP      PP22286   2.181  10.851   4.050  0.0978 -0.3929  0.0579
12183PP      PP22287   8.101   2.738  13.096 -0.0927  0.1956 -0.0626
12184PP      PP22288   4.212   4.733   7.910 -0.1824  0.0095 -0.0470
12185PP      PP22289   9.157  13.553  12.586  0.0144 -0.1041  0.1733
12186PP      PP22290   0.095   6.504   0.185 -0.2264  0.0325  0.1947
12187PP      PP22291   2.096   2.576  13.086  0.3444  0.3241  0.1868
12188PP      PP22292  11.590   7.290  12.011  0.1402  0.1358 -0.0231
12189PP      PP22293   9.949  10.723  11.108  0.0020  0.1494  0.2100
12190PP      PP22294  13.561   8.209   1.136  0.0907  0.0383 -0.0426
12191PP      PP22295   5.208   1.177  11.186  0.0094  0.0803  0.0784
12192PP      PP22296   7.041   9.117   4.230 -0.0630 -0.0107  0.3031
12193PP      PP22297   6.498   9.768   2.171 -0.0076 -0.0350 -0.0520
12194PP      PP22298   5.116   2.017   2.267  0.1721 -0.0778  0.1254
12195PP      PP22299  10.452   3.719   1.828 -0.4973  0.4435  0.0883
12196PP      PP22300   7.213  10.026   4.386 -0.0192 -0.0327 -0.2492
12197PP      PP22301  14.862   0.246   4.409  0.2018 -0.2488  0.1033
12198PP      PP22302  14.499  13.809   0.362  0.0316 -0.5158 -0.1046
12199PP      PP22303  12.476  13.593   8.961 -0.0469 -0.0934  0.1940
12200PP      PP22304   4.828  11.815  11.719 -0.1170 -0.1573 -0.0080
12201PP      PP22305   2.031   1.489   3.730 -0.0884  0.1134 -0.2227
12202PP      PP22306   9.253   8.757   3.782  0.0395 -0.2117 -0.2583
12203PP      PP22307   9.518   1.154   1.407 -0.1292 -0.2579 -0.1339
12204PP      PP22308   8.076   2.950   2.288  0.2971  0.3207  0.0058
12205PP      PP22309   4.435  11.156   0.195  0.0524 -0.1605  0.0534
12206PP      PP22310   0.884  13.868   2.989  0.1453  0.5428  0.3266
12207PP      PP22311  14.089  15.639   9.170  0.3493 -0.1750  0.1395
12208PP      PP22312   2.009   8.356   0.996  0.3778  0.0884 -0.2211
12209PP      PP22313  12.471   7.203   0.397  0.0171  0.2091  0.0887
12210PP      PP22314  13.623   9.943  10.267  0.0262  0.1586  0.0122
12211PP      PP22315  10.729   8.809  12.084  0.1132  0.0978  0.1644
12212PP      PP22316   9.599   0.899   1.798 -0.2042 -0.0024 -0.2541
12213PP      PP22317  10.112   9.728  11.090  0.2288  0.0618 -0.4092
12214PP      PP22318   8.720   6.668   0.417  0.1352  0.0727  0.0225
12215PP      PP22319   3.225   9.270   3.755  0.1022  0.2632 -0.3198
12216PP      PP22320   7.149   3.120  11.398  0.1260  0.1922 -0.1347
12217PP      PP22321  13.799   5.546   2.688 -0.1069  0.1775 -0.2126
12218PP      PP22322  12.736  11.270  12.434 -0.2956  0.0304  0.1929
12219PP      PP22323   3.437   4.501   9.480 -0.0563 -0.1597 -0.1845
12220PP      PP22324  12.209  10.387   1.711 -0.0902  0.0702 -0.1057
12221PP      PP22325  14.676  10.641   1.704  0.1000  0.0412  0.2314
12222PP      PP22326   4.478  13.333  13.591 -0.3216  0.1963 -0.1367
12223PP      PP22327   3.272   7.893   2.660 -0.0046 -0.1262  0.0385
12224PP      PP22328  11.348   0.684  10.937  0.1414 -0.0560 -0.1398
12225PP      PP22329   7.801   3.304   1.216  0.0751 -0.1279  0.1620
12226PP      PP22330   0.915   2.640   0.519  0.0225  0.0393  0.2572
12227PP      PP22331   9.811   2.456  10.255  0.0177  0.3964 -0.0050
12228PP      PP22332   2.691  11.479  12.102 -0.1056 -0.2429 -0.0061
12229PP      PP22333   4.453   8.013   8.500  0.0791  0.0396 -0.2804
12230PP      PP22334   8.844   8.955  13.316 -0.5711  0.2897 -0.0644
12231PP      PP22335  14.116   1.559   9.490 -0.0745  0.2737 -0.0064
12232PP      PP22336  11.117   7.469  11.842  0.2725  0.1704 -0.1605
12233PP      PP22337  11.447   6.366  13.323  0.3552 -0.2212  0.0536
12234PP      PP22338   5.305   8.792  11.866 -0.3383  0.0304 -0.0630
12235PP      PP22339  14.013   0.313   0.978 -0.0645  0.1359  0.4501
12236PP      PP22340   4.913  12.079   4.294  0.3209  0.1805 -0.0875
12237PP      PP22341   0.090   7.467   1.256 -0.1015  0.2015  0.4233
12238PP      PP22342   1.148   2.649   1.104  0.0298  0.0211  0.0638
12239PP      PP22343  14.857   3.291  13.743 -0.0639 -0.1420 -0.0406
12240PP      PP22344  10.617   3.655  12.285  0.1718 -0.2487  0.3946
12241PP      PP22345   3.231   6.513   9.536 -0.3468  0.0675 -0.2100
12242PP      PP22346  10.302   8.371  10.515 -0.1599 -0.0221 -0.0228
12243PP      PP22347   0.888   2.057  11.817 -0.0405 -0.2184  0.0212
12244PP      PP22348   0.658   0.783   9.600  0.2271 -0.0249 -0.0262
12245PP      PP22349   2.629   0.142  12.679 -0.0896 -0.3052 -0.1162
12246PP      PP22350   0.205  13.187   2.843  0.2146 -0.0984 -0.0222
12247PP      PP22351   7.880  13.882  10.580  0.0433 -0.0539  0.0078
12248PP      PP22352   8.260  15.662   1.546 -0.1268  0.3224 -0.3680
12249PP      PP22353   6.831   6.933   8.692 -0.1828 -0.0702  0.3062
12250PP      PP22354  13.934  12.644   2.176 -0.1339 -0.0296  0.0106
12251PP      PP22355   2.549  10.655  11.936  0.0200 -0.3155  0.0959
12252PP      PP22356  15.039  11.545   1.331  0.0813 -0.4226  0.0836
12253PP      PP22357   9.163  11.739   2.011  0.0373 -0.0023  0.0775
12254PP      PP22358   4.059  15.693   1.125  0.0833 -0.2268 -0.0465
12255PP      PP22359  10.322   4.834   2.986 -0.0064 -0.3826 -0.0823
12256PP      PP22360   5.263   1.087   9.890 -0.3172  0.1649 -0.3588
12257PP      PP22361   2.477   5.977   1.681  0.2850 -0.1302  0.3567
12258PP      PP22362   2.180   7.156   9.240 -0.2307  0.1498 -0.2107
12259PP      PP22363   2.389   2.931   8.542 -0.0038 -0.1310  0.3853
12260PP      PP22364   4.663   1.719   9.662  0.1330  0.3400  0.2587
12261PP      PP22365  13.649  11.460  11.821  0.3138 -0.2179  0.0228
12262PP      PP22366  12.463   3.896  11.920 -0.2123  0.0131  0.3095
12263PP      PP22367   9.820   3.879  13.409  0.1620  0.2412  0.0076
12264PP      PP22368   2.724   3.972  10.490  0.2057 -0.2382 -0.0214
12265PP      PP22369  10.597  13.118  10.621  0.0762  0.0581  0.1939
12266PP      PP22370  10.590   6.263   2.631  0.1946 -0.1304 -0.0200
12267PP      PP22371   7.579   6.443  12.963 -0.0930  0.0852 -0.0637
12268PP      PP22372  15.242   1.327   1.682  0.0124  0.4295  0.1648
12269PP      PP22373   8.384   6.577   1.232 -0.1728 -0.0593  0.1918
12270PP      PP22374   3.308   9.819   9.546  0.0556 -0.2648  0.2317
12271PP      PP22375  10.640   3.092  12.392  0.0187 -0.4102  0.1939
12272PP      PP22376   7.414  14.182  13.576  0.1684  0.1929 -0.1811
12273PP      PP22377   3.715  11.287   3.015 -0.5042  0.1792  0.3707
12274PP      PP22378  15.608   0.195  13.444 -0.1981  0.0700 -0.3338
12275PP      PP22379  15.112   0.442   8.983 -0.0675  0.0801 -0.0336
12276PP      PP22380   0.815   7.762   3.487 -0.2436 -0.0583  0.1633
12277PP      PP22381   9.262   4.160   2.588 -0.0396  0.2160 -0.0848
12278PP      PP22382   7.354   4.342  13.457  0.1344 -0.2501 -0.1932
12279PP      PP22383  12.349   6.522   1.386  0.0423  0.0129  0.2264
12280PP      PP22384  10.421  10.570   0.539  0.1891  0.3572  0.2486
12281PP      PP22385  15.501   4.937   0.801  0.0747  0.0530  0.0818
12282PP      PP22386   3.913  15.669   3.202  0.1268 -0.0630  0.0424
12283PP      PP22387   9.519  12.081   2.319  0.2182 -0.1288  0.0317
12284PP      PP22388   1.567   9.357   9.518  0.1572  0.2312  0.1094
12285PP      PP22389  10.058   9.334  10.747 -0.2078  0.1651  0.1102
12286PP      PP22390  14.094   2.042  11.231  0.0039 -0.1167  0.1034
12287PP      PP22391  12.203   7.608   0.670 -0.0253 -0.2823  0.0857
12288PP      PP22392   9.814   6.527  11.254  0.0100  0.3863  0.0750
12289PP      PP22393   9.004  15.672   1.421 -0.1184 -0.0179 -0.0292
12290PP      PP22394   6.825  11.252   3.338 -0.3953  0.0036 -0.2828
12291PP      PP22395   7.524   0.377   2.115 -0.0616  0.1307  0.1039
12292PP      PP22396   0.197   1.616   4.206 -0.0688  0.1143 -0.0935
12293PP      PP22397   9.725   8.321  11.303 -0.1492  0.1266 -0.2459
12294PP      PP22398   7.601   3.265  12.773  0.0439  0.0697  0.1348
12295PP      PP22399  14.104  11.926   1.944  0.0395 -0.1944 -0.0500
12296PP      PP22400   0.709   5.204  13.700  0.0316 -0.1664  0.2009
12297PP      PP22401  14.344   9.527   2.318  0.0262 -0.0313 -0.0426
12298PP      PP22402   7.140   8.156   2.006  0.1035 -0.0580 -0.2561
12299PP      PP22403  10.138  13.422  13.340 -0.0411  0.1491 -0.3517
12300PP      PP22404   5.013   6.423   3.659  0.0058  0.0167 -0.1437
12301PP      PP22405   0.173  11.936   9.832 -0.2760  0.3146  0.0971
12302PP      PP22406   4.964   7.059  10.809 -0.0000 -0.1048  0.1667
12303PP      PP22407  10.436  12.585   3.221 -0.2279  0.0591 -0.1006
12304PP      PP22408   1.749   0.201   3.956 -0.0903 -0.1325 -0.1981
12305PP      PP22409  15.367  15.655  10.749  0.1819 -0.0612  0.0550
12306PP      PP22410   8.878   2.498  11.759 -0.1307  0.2097 -0.1308
12307PP      PP22411   4.334   2.189  10.401 -0.1176 -0.0091 -0.0470
12308PP      PP22412  12.051  11.655   4.976 -0.0142 -0.0565  0.1003
12309PP      PP22413   4.402   5.500  12.918 -0.1865  0.0358 -0.0627
12310PP      PP22414   7.613   2.809  13.573 -0.0108 -0.0187  0.2351
12311PP      PP22415   3.758  13.425  10.443  0.2972 -0.3303 -0.0555
12312PP      PP22416   5.206  12.428  13.229 -0.1075  0.1049 -0.0343
12313PP      PP22417   8.456   2.318   9.430  0.0992 -0.1587  0.1586
12314PP      PP22418   4.465   8.534   8.819  0.1727 -0.1581 -0.2818
12315PP      PP22419  13.971   3.469   4.308  0.2013 -0.1361 -0.1689
12316PP      PP22420   4.567  11.173  10.704 -0.3632 -0.1524  0.1596
12317PP      PP22421  13.699  12.388   3.317  0.1290 -0.1390 -0.1657
12318PP      PP22422  11.300   4.527   1.690 -0.2251  0.1147  0.1063
12319PP      PP22423   5.935   6.499  10.720 -0.4193  0.2374  0.3273
12320PP      PP22424  14.455  10.260   4.968  0.0946 -0.0180 -0.0845
12321PP      PP22425  11.244  14.162  12.763 -0.3207  0.1130 -0.1728
12322PP      PP22426   5.728   7.516  10.367  0.0343 -0.0592 -0.1802
12323PP      PP22427  15.734   7.932   9.946  0.0521  0.1626  0.2748
12324PP      PP22428   9.441   4.222  13.672 -0.0952 -0.2618 -0.1231
12325PP      PP22429   3.898  13.172   4.038  0.2848  0.0754 -0.1621
12326PP      PP22430   8.979  12.405   3.076 -0.0604  0.3186 -0.2055
12327PP      PP22431  15.288  15.332   3.379 -0.3404 -0.0416  0.1275
12328PP      PP22432  12.137   5.215   2.967 -0.1068 -0.0430 -0.0257
12329PP      PP22433   9.041  12.267   2.212  0.1605  0.4730  0.4378
12330PP      PP22434   4.085   3.754   1.417  0.2696  0.1288  0.1932
12331PP      PP22435  14.242  15.123   3.573 -0.1506  0.2431  0.3559
12332PP      PP22436  14.717  13.089  12.366  0.0252  0.3552 -0.2665
12333PP      PP22437   8.850   4.736  11.572 -0.3779  0.3379 -0.1703
12334PP      PP22438   5.425   9.432  11.177 -0.4224 -0.2667 -0.1666
12335PP      PP22439   4.664   0.459   0.477 -0.1105  0.1363 -0.1451
12336PP      PP22440  12.389   9.785  13.467 -0.0479  0.1559 -0.0151
12337PP      PP22441   7.435  13.228   4.225 -0.0939 -0.1336 -0.1841
12338PP      PP22442   2.007   9.392   2.089 -0.1522  0.3423 -0.2286
12339PP      PP22443   8.621   8.937   1.341 -0.2155 -0.0025  0.0195
12340PP      PP22444  13.891  10.143   0.020 -0.2793 -0.1864  0.0011
12341PP      PP22445  12.475  10.577   4.090  0.1782 -0.0986 -0.2745
12342PP      PP22446   7.910  12.769   2.777  0.0003 -0.0229 -0.0628
12343PP      PP22447   6.651   7.616   9.949  0.0705  0.1827  0.0777
12344PP      PP22448  13.539   9.402   9.923  0.2269  0.1306 -0.0563
12345PP      PP22449   5.750  14.600  13.681 -0.0176 -0.0161  0.0539
12346PP      PP22450   8.722  11.106  10.917 -0.2107  0.2214  0.0826
12347PP      PP22451  11.216   6.856   4.801  0.0841  0.1483 -0.0426
12348PP      PP22452   7.058  10.528   2.227  0.2568  0.2182 -0.1902
12349PP      PP22453  11.691  12.766  12.270 -0.0519  0.2338  0.0066
12350PP      PP22454  10.235  12.439   2.629  0.1110  0.1099  0.0603
12351PP      PP22455   9.561   4.789  10.072 -0.4543  0.1776  0.1223
12352PP      PP22456   4.962   4.642  10.354  0.2788  0.2133 -0.1512
12353PP      PP22457  10.636   4.625  10.914 -0.1631  0.1040  0.0147
12354PP      PP22458   4.458  14.631   4.392  0.0131  0.0070 -0.0974
12355PP      PP22459   4.495   8.111  10.234 -0.1052 -0.0032  0.0200
12356PP      PP22460   4.087   2.205   3.073  0.0851  0.1478  0.1807
12357PP      PP22461  12.850   1.730   1.056 -0.2229 -0.3318 -0.3102
12358PP      PP22462  11.501  13.131  13.251 -0.1102  0.0239  0.3662
12359PP      PP22463  14.065  10.915   0.788 -0.0428 -0.1373  0.1376
12360PP      PP22464  12.131   9.397  12.959  0.0616  0.1659 -0.0059
12361PP      PP22465   4.852   9.765   9.434  0.4130 -0.2850  0.0493
12362PP      PP22466  10.356   0.249   1.333  0.2899 -0.0371 -0.0001
12363PP      PP22467   7.239   1.189   0.304 -0.1542 -0.1792  0.1391
12364PP      PP22468  13.031  14.069  11.034  0.3797 -0.3064 -0.0001
12365PP      PP22469  12.254   2.091  11.633  0.0665  0.0682  0.2400
12366PP      PP22470   1.791   2.509   2.257  0.1822  0.3771 -0.1651
12367PP      PP22471  15.029   8.787  13.131  0.1437  0.1002 -0.0703
12368PP      PP22472   1.330  14.041   9.846 -0.0042 -0.1907  0.1569
12369PP      PP22473   0.784   9.214   2.722 -0.4239  0.2828 -0.1197
12370PP      PP22474  10.817  11.117   5.372 -0.0637 -0.2250 -0.2587
12371PP      PP22475   7.135   3.574   0.908 -0.0030  0.1971 -0.1035
12372PP      PP22476   6.738   6.379  13.326 -0.2182 -0.1525 -0.1629
12373PP      PP22477   1.363   8.221  13.681  0.3175  0.0802 -0.1272
12374PP      PP22478  15.647   1.603   1.736 -0.3042 -0.1333 -0.0460
12375PP      PP22479  12.295   4.750  12.341  0.3225 -0.2982 -0.0162
12376PP      PP22480  11.996   0.331   2.204 -0.0823  0.0982 -0.1731
12377PP      PP22481   6.763   8.032   2.460 -0.1128 -0.2390  0.0391
12378PP      PP22482   1.326   7.371   0.591  0.2723  0.2208  0.1255
12379PP      PP22483   3.301   8.277   1.590  0.1509 -0.0482 -0.0060
12380PP      PP22484   8.526  12.750   1.488 -0.0289 -0.1733  0.0308
12381PP      PP22485   3.554  13.890   0.674 -0.0098 -0.2578  0.1545
12382PP      PP22486   9.221  11.874  13.178 -0.0493 -0.0073  0.0755
12383PP      PP22487   5.226   9.172   9.338 -0.1634 -0.0147  0.0995
12384PP      PP22488  10.830   1.569   9.538  0.2294  0.1917  0.4052
12385PP      PP22489   3.002   9.897   1.823  0.1231 -0.0645 -0.1730
12386PP      PP22490   1.589   8.300   3.454 -0.0928  0.2005  0.2653
12387PP      PP22491   7.083   9.383  10.110  0.1874  0.2587  0.1709
12388PP      PP22492  13.290   7.253   2.947 -0.1778  0.2108  0.1042
12389PP      PP22493   6.461  13.939   0.554  0.0845  0.1095 -0.2413
12390PP      PP22494   1.538  15.068   9.351 -0.2312  0.1760  0.0399
12391PP      PP22495   3.918   6.024   2.674 -0.1046 -0.5175  0.0738
12392PP      PP22496   7.547   1.529   1.523 -0.0089 -0.1853 -0.4227
12393PP      PP22497   3.112   6.908   1.944 -0.0746 -0.0088  0.3396
12394PP      PP22498   5.707   0.585  12.882 -0.2198 -0.2407  0.1829
12395PP      PP22499   6.404   3.067   2.352  0.3970  0.3153  0.0565
12396PP      PP22500  14.882   4.545  13.720 -0.3180 -0.2786  0.1264
12397PP      PP22501   3.005  15.711   1.056  0.1233 -0.0040  0.2010
12398PP      PP22502   9.343   2.917  10.865  0.0780 -0.1444  0.2118
12399PP      PP22503  12.946   2.914   9.479 -0.0956  0.0500 -0.0523
12400PP      PP22504  13.769   2.491   9.481  0.0869 -0.1397  0.0365
12401PP      PP22505   8.532   9.984  11.871  0.0230 -0.1539  0.0563
12402PP      PP22506   0.840   5.034  11.029  0.1462 -0.2833  0.0583
12403PP      PP22507   6.218   6.323  13.465 -0.3110  0.0386  0.2724
12404PP      PP22508  15.344   3.517  11.425 -0.0069 -0.0396  0.1673
12405PP      PP22509   1.644   1.804   9.576  0.3084 -0.0459 -0.0534
12406PP      PP22510   9.243  10.561   5.354 -0.2144 -0.2034  0.1481
12407PP      PP22511  14.377  10.053   2.190 -0.2066 -0.1050  0.2096
12408PP      PP22512   0.689   3.765   0.986  0.1628 -0.1463  0.1659
12409PP      PP22513   2.177  13.403  13.608 -0.0104  0.3444  0.1628
12410PP      PP22514   3.467   9.090  11.378  0.0349 -0.0640 -0.0653
12411PP      PP22515   6.155   1.088  11.459  0.2879  0.3633 -0.0587
12412PP      PP22516  11.330   8.500  10.675  0.1849 -0.4817 -0.2013
12413PP      PP22517  10.743   2.893   0.889  0.0816 -0.0520  0.1435
12414PP      PP22518  13.386  11.522   0.963  0.4620  0.3629  0.1689
12415PP      PP22519   7.052   0.548  13.156 -0.2243  0.1852 -0.0137
12416PP      PP22520  13.912   3.807  10.171 -0.0654 -0.2302  0.1314
12417PP      PP22521  13.414  11.019   1.838 -0.3001 -0.1203 -0.0459
12418PP      PP22522  13.605   2.808  10.988  0.0608 -0.1895  0.3926
12419PP      PP22523   8.780   8.117   0.509  0.1359  0.0744 -0.2096
12420PP      PP22524   9.325   7.923   0.600  0.3198  0.1137  0.0244
12421PP      PP22525   1.756  12.566  11.257  0.2721 -0.1735  0.0499
12422PP      PP22526  10.320   5.166   4.200  0.1020  0.0366 -0.1819
12423PP      PP22527   3.222   8.143   0.342 -0.2059  0.1767  0.3899
12424PP      PP22528   1.898   2.116   8.641  0.2168  0.2360 -0.1397
12425PP      PP22529  10.075   9.769   1.543  0.1014 -0.0296  0.1499
12426PP      PP22530  15.585   4.859   1.563 -0.1096  0.3297  0.1871
12427PP      PP22531  10.854  10.323   5.470  0.2446 -0.0059 -0.0720
12428PP      PP22532  13.875   4.238   2.997  0.1624 -0.2626 -0.1328
12429PP      PP22533   8.213   1.455  11.678  0.0097  0.0415 -0.0490
12430PP      PP22534   3.721   2.936   9.976  0.3019 -0.0355 -0.0588
12431PP      PP22535  10.963   3.495   4.002  0.3453  0.3178  0.1666
12432PP      PP22536   4.933   3.391   1.900 -0.0641 -0.0296  0.0929
12433PP      PP22537  12.263  10.673  12.468 -0.2050 -0.0257 -0.1333
12434PP      PP22538   0.905  12.669   1.984  0.0092  0.0890  0.2023
12435PP      PP22539   4.298   2.207   0.241 -0.1957  0.5392  0.0574
12436PP      PP22540  11.465  12.311   0.429 -0.2115  0.3542  0.1749
12437PP      PP22541   2.361  11.744   1.362 -0.2143 -0.0432 -0.0974
12438PP      PP22542   8.458   1.425   7.494 -0.1671  0.1271  0.4346
12439PP      PP22543  12.131   0.811  10.962 -0.0398 -0.3395 -0.1573
12440PP      PP22544   8.608  14.377  10.293  0.0091 -0.1077  0.0520
12441PP      PP22545   4.505   9.224  11.605  0.0247  0.0429  0.1509
12442PP      PP22546   7.633   4.594   0.262  0.1087  0.1722 -0.0221
12443PP      PP22547   0.306  12.777   3.958 -0.5450  0.0114 -0.0375
12444PP      PP22548   3.100  11.234   1.063 -0.1839 -0.3525 -0.0508
12445PP      PP22549  10.251  11.593   1.520  0.0386  0.2016  0.1909
12446PP      PP22550   7.989   7.294  11.863 -0.2327  0.0474  0.1352
12447PP      PP22551   1.445  10.530  10.849  0.1850  0.0499  0.1040
12448PP      PP22552   1.439   0.648   9.198 -0.2764  0.2388 -0.1266
12449PP      PP22553  10.418  11.873   2.007  0.0412  0.4233 -0.0066
12450PP      PP22554   8.146   3.130  12.789  0.0595  0.3331  0.1193
12451PP      PP22555  12.737  15.007   1.327 -0.0776  0.0785 -0.2982
12452PP      PP22556   9.161   3.145  13.408  0.0327  0.1836  0.1110
12453PP      PP22557  13.419   9.160  11.365 -0.0455 -0.1022 -0.0002
12454PP      PP22558  11.121   1.905   1.337  0.0724 -0.1202  0.1518
12455PP      PP22559  12.404   3.098   2.362 -0.2204 -0.0831 -0.0446
12456PP      PP22560  10.038  11.406   4.158  0.0447 -0.2532 -0.2505
12457PP      PP22561  11.881   8.562   3.182 -0.0181  0.0545  0.1131
12458PP      PP22562   1.262  13.705   0.074  0.1276  0.1420  0.2869
12459PP      PP22563   5.637   2.972  13.478  0.0557 -0.0783  0.1688
12460PP      PP22564   4.663   1.407   1.870 -0.0259  0.1673  0.0089
12461PP      PP22565   5.177  13.553  10.088  0.0528 -0.0275 -0.0443
12462PP      PP22566   9.654   5.371   3.565 -0.0263 -0.1900  0.2239
12463PP      PP22567  15.018  13.821   0.465  0.1387  0.3299 -0.1646
12464PP      PP22568   7.020   6.493  10.781 -0.0215 -0.2475 -0.0685
12465PP      PP22569   7.978  11.859   3.003  0.0420  0.1441 -0.0010
12466PP      PP22570   7.832   4.654   1.762 -0.0488  0.2273  0.1080
12467PP      PP22571   4.188  15.235  12.041  0.0586  0.1603 -0.2085
12468PP      PP22572   2.372  12.238  13.706  0.1696 -0.0598  0.1003
12469PP      PP22573   9.716   7.778   1.780 -0.0012 -0.0381 -0.2641
12470PP      PP22574   5.669  14.473   9.645  0.1256 -0.1187  0.1540
12471PP      PP22575   7.822   2.179   0.870 -0.1726  0.1254  0.0689
12472PP      PP22576  10.109   5.605   2.404 -0.1827  0.0944 -0.1808
12473PP      PP22577  12.922  13.567  11.908 -0.1969 -0.1703  0.1039
12474PP      PP22578   9.854   7.870   0.776  0.0215 -0.0315  0.1910
12475PP      PP22579   2.568  15.356   1.113 -0.0954  0.0589  0.0418
12476PP      PP22580   7.998   5.661  11.581 -0.0722  0.0366  0.0756
12477PP      PP22581  13.076   5.625  12.105 -0.1912 -0.0367  0.1285
12478PP      PP22582  12.658   0.486   5.147 -0.2817  0.1157 -0.2647
12479PP      PP22583  10.712   2.130  10.646  0.1527  0.0744 -0.0576
12480PP      PP22584   9.019   3.363  10.658 -0.0775 -0.0680 -0.3162
12481PP      PP22585   8.174  10.315  11.850 -0.0861 -0.3302  0.0920
12482PP      PP22586   3.158   1.637   3.812 -0.2455  0.0077 -0.0264
12483PP      PP22587   0.360   9.108  10.942 -0.1953  0.1569 -0.2109
12484PP      PP22588   7.733  11.005   0.915  0.2610  0.0102  0.1376
12485PP      PP22589   8.046   2.217   3.116  0.6593  0.0502 -0.4005
12486PP      PP22590  14.079   5.026   2.518  0.3637 -0.3387 -0.1831
12487PP      PP22591  12.891   5.389  11.261  0.2000  0.0809  0.0451
12488PP      PP22592  13.876  11.277   2.020  0.0682 -0.2173 -0.0112
12489PP      PP22593  10.799   7.035   2.233  0.0115  0.1338 -0.0273
12490PP      PP22594   2.647   9.153   9.070 -0.0980  0.2225  0.0983
12491PP      PP22595   6.753   1.659   0.613  0.1330  0.0432 -0.0223
12492PP      PP22596   0.357   3.717   4.465 -0.0709 -0.0611  0.0042
12493PP      PP22597   7.533   0.771   0.746  0.0107 -0.1965  0.0810
12494PP      PP22598  12.669   5.475  11.833 -0.2837 -0.1567  0.4478
12495PP      PP22599   1.517   6.448   4.372  0.1212 -0.0776  0.2305
12496PP      PP22600  13.645   0.697   9.352  0.0042 -0.2992  0.1591
12497PP      PP22601  15.515   2.653   1.406 -0.0370  0.0915 -0.0105
12498PP      PP22602   3.527   1.324  10.858  0.0532 -0.0677 -0.1565
12499PP      PP22603   7.510  10.107  12.732 -0.2220 -0.0326  0.0722
12500PP      PP22604   0.838   9.189   9.924 -0.1325 -0.2387 -0.1864
12501PP      PP22605   7.934   1.937  11.747 -0.1140  0.3501  0.1260
12502PP      PP22606   7.307   3.203   1.208  0.0195  0.1482  0.0768
12503PP      PP22607   9.013   4.610   7.798  0.1768  0.3791 -0.0024
12504PP      PP22608   3.550   4.864  10.395  0.0466 -0.0489  0.0772
12505PP      PP22609  15.060  10.017   1.799  0.0590 -0.2363  0.3168
12506PP      PP22610   1.679  13.103  10.298 -0.1190 -0.0183  0.0459
12507PP      PP22611   1.083   8.158   3.299  0.0860  0.0275 -0.0373
12508PP      PP22612   8.348  12.856  11.322 -0.1904 -0.4426 -0.0122
12509PP      PP22613   5.941   2.486   1.652  0.1912 -0.0053 -0.3477
12510PP      PP22614   7.925   6.255   8.532 -0.0170 -0.1426  0.0192
12511PP      PP22615   2.361   7.995  12.590 -0.4057 -0.1277  0.1652
12512PP      PP22616   5.006   6.757   1.895  0.0573 -0.1055  0.0567
12513PP      PP22617   4.811  14.564  11.210  0.0249  0.0841  0.0494
12514PP      PP22618  14.107   5.543   4.204  0.1238 -0.0530 -0.0634
12515PP      PP22619   8.733   1.716   9.430  0.0206  0.2099  0.0994
12516PP      PP22620  13.398  14.336  13.431  0.1739 -0.0131 -0.2425
12517PP      PP22621  13.977   3.434   0.424  0.0775  0.1010 -0.1192
12518PP      PP22622   3.895   2.803  12.839 -0.2153 -0.1411 -0.1818
12519PP      PP22623   3.137   9.930   1.359 -0.2203 -0.2743  0.1804
12520PP      PP22624   9.279  10.704   4.854 -0.1309  0.1218  0.2314
12521PP      PP22625   9.714   5.545   4.129  0.0971  0.2712 -0.0542
12522PP      PP22626  10.320   1.488   1.211 -0.1114  0.3528  0.1498
12523PP      PP22627   9.403   9.159   0.089  0.2670  0.1222 -0.3032
12524PP      PP22628   3.466   3.310  10.112 -0.1489  0.0751  0.0621
12525PP      PP22629   8.525   4.379  13.251 -0.4125  0.1685  0.0383
12526PP      PP22630   9.263  12.772  10.731  0.0744 -0.1094  0.1546
12527PP      PP22631   9.433   2.241   9.025 -0.1684 -0.2530  0.0555
12528PP      PP22632   0.220   9.635  12.602  0.0603 -0.0262 -0.2479
12529PP      PP22633   6.578   2.437   3.489  0.0108  0.2274 -0.3936
12530PP      PP22634   6.974  14.537   4.154 -0.1703 -0.1357  0.3072
12531PP      PP22635   9.843   4.601   2.671 -0.3662 -0.0203 -0.2593
12532PP      PP22636   3.181   4.600   0.285 -0.4412 -0.0495  0.1512
12533PP      PP22637   3.408   1.653   2.398  0.0539 -0.1415 -0.2944
12534PP      PP22638   7.525   8.137   2.409 -0.0892 -0.0574 -0.3798
12535PP      PP22639  13.281  15.492   0.643 -0.0015 -0.0335  0.2144
12536PP      PP22640  15.155   0.059   3.584 -0.0213  0.0269  0.1248
12537PP      PP22641   1.116  12.916   2.374 -0.0687  0.1574 -0.0898
12538PP      PP22642   2.862   7.080  13.207 -0.1405  0.2210 -0.0536
12539PP      PP22643  15.163   0.725   9.600  0.1750 -0.1726 -0.0336
12540PP      PP22644  13.117   6.944   5.058 -0.1969  0.3128 -0.1616
12541PP      PP22645   2.474   6.670   9.259  0.1178  0.1475 -0.1732
12542PP      PP22646  11.872  11.377   1.527  0.0499 -0.1327  0.3338
12543PP      PP22647   7.885   8.876   9.002 -0.0508 -0.0956  0.0671
12544PP      PP22648  15.151   8.098   9.810  0.1980  0.1798  0.0142
12545PP      PP22649   7.790   0.544   0.418  0.2077  0.0909 -0.0271
12546PP      PP22650  13.249   2.648  11.744 -0.4004  0.0657 -0.1698
12547PP      PP22651  11.954   9.857   1.011 -0.0985 -0.0032  0.2486
12548PP      PP22652   1.179  15.346   2.957 -0.2534  0.0654 -0.0292
12549PP      PP22653  13.014   2.463   3.002 -0.0179  0.0459 -0.3168
12550PP      PP22654   8.661   5.767  12.551 -0.0276  0.2102 -0.0312
12551PP      PP22655   3.476   3.401  13.611  0.3294 -0.0008 -0.1690
12552PP      PP22656   8.742   0.866   4.125 -0.0889 -0.1260 -0.1120
12553PP      PP22657   2.370  14.418  12.550 -0.1189  0.3372 -0.0389
12554PP      PP22658  15.595  15.380   3.835 -0.1920 -0.2753  0.0943
12555PP      PP22659  11.647   4.673   3.548 -0.2675  0.3325 -0.0443
12556PP      PP22660   4.797   0.945  11.497 -0.0993 -0.1962 -0.2052
12557PP      PP22661  15.490  10.723   0.360 -0.1861  0.2445 -0.1089
12558PP      PP22662   0.633  12.026   2.709  0.3620  0.0317  0.0646
12559PP      PP22663  12.829   2.251   3.818 -0.3277 -0.0376  0.0713
12560PP      PP22664  12.887   5.752   3.007 -0.0901  0.0139  0.1956
12561PP      PP22665  15.701   5.209   4.371 -0.1527  0.0933 -0.3175
12562PP      PP22666   7.920   1.472  12.427  0.1996  0.1135  0.1477
12563PP      PP22667   6.322   7.726   9.046  0.0595 -0.1691 -0.4401
12564PP      PP22668   1.613  11.791   1.013  0.1022  0.1943  0.0240
12565PP      PP22669   6.928   9.832  13.511  0.3137 -0.3383 -0.0172
12566PP      PP22670   5.209  13.324   0.428  0.0019 -0.2770  0.1158
12567PP      PP22671   9.301   7.595   3.869  0.1331 -0.1051  0.3128
12568PP      PP22672  13.014   3.721   2.091  0.0430 -0.2651  0.2217
12569PP      PP22673  12.021   1.974  10.975  0.3253 -0.2984 -0.3815
12570PP      PP22674  12.694  11.342   3.205  0.1803  0.1484 -0.2178
12571PP      PP22675   5.494   7.881   0.776  0.1449 -0.1376 -0.0514
12572PP      PP22676   9.517   8.319   4.894  0.1621 -0.3739  0.1230
12573PP      PP22677  11.559   2.949  12.986 -0.1225 -0.5038 -0.1341
12574PP      PP22678  13.727   2.919  12.223  0.0742 -0.0088  0.1284
12575PP      PP22679  13.864   5.651  11.420 -0.3736 -0.0422  0.0302
12576PP      PP22680  12.401   5.753   4.960 -0.0385 -0.1669 -0.0837
12577PP      PP22681  13.579  15.343   4.079 -0.1624 -0.1582 -0.2328
12578PP      PP22682  13.937   2.184   8.721 -0.1515 -0.3685 -0.0033
12579PP      PP22683  14.251  10.512   2.725 -0.0108  0.3195  0.0169
12580PP      PP22684   7.699   7.913  10.096  0.0687  0.0327  0.0166
12581PP      PP22685  15.450   4.953   0.162  0.1663 -0.1320  0.0884
12582PP      PP22686   1.902   8.773   0.703  0.0942 -0.1531 -0.0185
12583PP      PP22687   4.720   6.169   3.201  0.0464 -0.0098  0.0057
12584PP      PP22688   1.770   4.202  11.677  0.0864  0.2352 -0.1956
12585PP      PP22689   7.426   8.665  10.531  0.1646 -0.1312 -0.4396
12586PP      PP22690   3.527   1.601   7.949 -0.1336  0.0508  0.0417
12587PP      PP22691   6.214  12.156  10.970  0.3110 -0.1995  0.2393
12588PP      PP22692  10.142  11.258   3.413 -0.2580 -0.0622 -0.3340
12589PP      PP22693   8.928  10.015   4.539 -0.2775 -0.3763 -0.0517
12590PP      PP22694   9.791  14.916  10.944  0.1613  0.1036  0.2769
12591PP      PP22695  10.234   3.609   8.378 -0.1537 -0.1029 -0.0106
12592PP      PP22696   1.085   3.024  13.481 -0.1517  0.0424 -0.0024
12593PP      PP22697   6.436   3.688   2.238  0.0349  0.1617 -0.1059
12594PP      PP22698  11.518   9.312  12.028 -0.1089  0.2160 -0.4735
12595PP      PP22699  14.614   3.274   3.408 -0.0131 -0.1590 -0.2127
12596PP      PP22700  10.249  11.784   1.045  0.0650  0.3769 -0.2147
12597PP      PP22701   4.623   3.671   1.186  0.2832  0.1065 -0.2813
12598PP      PP22702  14.917  12.584   4.240  0.3886  0.0615 -0.1953
12599PP      PP22703  15.563  14.069  10.325  0.0667  0.2559 -0.1655
12600PP      PP22704   3.280   7.957  11.764  0.1305 -0.1155 -0.0770
12601PP      PP22705   0.119   4.069   0.714 -0.1631 -0.0451 -0.0116
12602PP      PP22706  14.137   4.076   4.469 -0.0424  0.1832 -0.0178
12603PP      PP22707  12.517   9.723   0.501  0.2009 -0.2485 -0.1603
12604PP      PP22708   1.078   1.279   0.433 -0.0480 -0.0549  0.0357
12605PP      PP22709  12.550   3.659   2.355 -0.2299  0.1366  0.2414
12606PP      PP22710   7.772   8.082  13.703  0.1422 -0.1812 -0.2239
12607PP      PP22711  15.421  13.404  12.322 -0.0508 -0.0052 -0.5524
12608PP      PP22712   7.221  11.914   0.227 -0.1780 -0.1458  0.3153
12609PP      PP22713   8.770   1.348   1.596 -0.0680  0.2034  0.1135
12610PP      PP22714   2.911   0.410   9.187  0.3119  0.1300 -0.3301
12611PP      PP22715  10.881   4.961   9.761 -0.0793  0.3605 -0.2709
12612PP      PP22716  14.463   3.151   1.142 -0.0588  0.2324 -0.2094
12613PP      PP22717   1.341   6.685   1.209  0.3297  0.0388  0.3662
12614PP      PP22718   5.792  15.542  11.701 -0.1419  0.1421  0.0720
12615PP      PP22719  12.947   3.352   2.379  0.0346  0.3808 -0.0347
12616PP      PP22720   6.457  12.450  12.243  0.1501 -0.1165 -0.1837
12617PP      PP22721   1.181   0.158   3.298 -0.1832 -0.3083 -0.0319
12618PP      PP22722   6.633  15.192  10.111  0.1909  0.2318 -0.0730
12619PP      PP22723   4.212  14.770  12.202 -0.2390  0.1563 -0.2867
12620PP      PP22724   7.664  10.889   3.175  0.1607 -0.1873 -0.1519
12621PP      PP22725  13.914   5.959  13.658 -0.0597  0.1203 -0.0982
12622PP      PP22726   4.718  14.686   0.057 -0.3414  0.2765  0.4590
12623PP      PP22727   3.521  11.894  13.386  0.0818  0.0108 -0.1745
12624PP      PP22728   6.156   5.156   3.087 -0.0259  0.1273  0.0209
12625PP      PP22729   3.883   0.440  11.226  0.0310  0.2276 -0.0315
12626PP      PP22730   5.444   1.351  12.149 -0.0900 -0.2683 -0.0157
12627PP      PP22731   3.885   6.786  11.979  0.0355  0.0846 -0.0108
12628PP      PP22732   0.313  14.232  12.252 -0.0551 -0.3597  0.0693
12629PP      PP22733   5.524  13.145   3.623  0.1411  0.0336  0.0454
12630PP      PP22734  14.239   1.647   8.529 -0.0220 -0.0714  0.1853
12631PP      PP22735   2.296   4.652   3.096  0.1570 -0.1472  0.0413
12632PP      PP22736   6.986   9.879   2.988  0.1189 -0.1466 -0.1751
12633PP      PP22737   5.431   7.963  12.471  0.3505 -0.0326  0.0524
12634PP      PP22738   7.511   5.493   1.607 -0.1699  0.0069  0.0687
12635PP      PP22739  14.982   1.223   9.533  0.0816 -0.1495 -0.0274
12636PP      PP22740   4.939  13.978   1.510  0.1701 -0.0407  0.1859
12637PP      PP22741  11.091   1.877  12.433  0.2358 -0.0696  0.0394
12638PP      PP22742  14.538   2.355   2.021  0.1587 -0.1149 -0.0048
12639PP      PP22743   2.409  13.869  10.057  0.0424  0.1781  0.2387
12640PP      PP22744   6.637  13.724   2.200  0.2285  0.1870 -0.1090
12641PP      PP22745  13.886  14.089   2.126  0.0744  0.2501  0.2619
12642PP      PP22746  13.424   6.974   2.451  0.1771  0.2171  0.2814
12643PP      PP22747   7.383   9.972  10.775  0.2482 -0.4423  0.0197
12644PP      PP22748  12.404  14.212  12.315  0.1660 -0.0866  0.0737
12645PP      PP22749   3.086   7.325   4.143 -0.3191  0.1895 -0.3312
12646PP      PP22750  13.799   9.194   0.043 -0.3304 -0.2640 -0.1588
12647PP      PP22751   4.747  13.769   9.886  0.4860  0.1520  0.0812
12648PP      PP22752   5.590   6.933  11.512 -0.0630 -0.1042  0.1392
12649PP      PP22753  10.321   4.932   1.136 -0.3628  0.2969 -0.2250
12650PP      PP22754   7.238   4.430  12.189 -0.1403  0.1055 -0.0849
12651PP      PP22755   5.794   4.163   1.500 -0.0302  0.0706 -0.2547
12652PP      PP22756  12.833   9.220   0.314 -0.0943 -0.1021  0.0857
12653PP      PP22757  12.981   7.912  11.200  0.0714  0.0426 -0.1213
12654PP      PP22758   3.055   3.539   8.819  0.0179  0.0313 -0.0757
12655PP      PP22759   9.775   9.960   0.168  0.1736  0.3030  0.1722
12656PP      PP22760   4.302   8.810  10.406 -0.0569  0.0964 -0.0498
12657PP      PP22761   6.654  12.839   9.631 -0.1722  0.1536  0.1585
12658PP      PP22762  10.012  10.237   0.513 -0.0613 -0.0164 -0.2209
12659PP      PP22763   4.499   3.876  10.872 -0.1839  0.1277 -0.1096
12660PP      PP22764   1.410  14.748   2.181 -0.1866  0.2251 -0.2442
12661PP      PP22765  11.753   8.258   0.430  0.1707 -0.0264  0.0279
12662PP      PP22766  11.763   1.868  10.507  0.4267 -0.0513  0.1845
12663PP      PP22767   7.029   8.975   1.535 -0.0779  0.0117  0.0439
12664PP      PP22768   9.877  12.748  10.091  0.2591  0.2686  0.2073
12665PP      PP22769  14.781  11.746  11.157  0.0844 -0.3085 -0.0119
12666PP      PP22770  14.791   9.700   1.993 -0.1046  0.2792  0.0497
12667PP      PP22771   0.394   9.967   0.100 -0.1204 -0.0222 -0.0325
12668PP      PP22772   1.036  11.035   2.518  0.2715 -0.4562  0.3573
12669PP      PP22773   8.395   4.071   8.069 -0.2957  0.0057 -0.1083
12670PP      PP22774   6.388   5.667   2.235  0.0857 -0.2226  0.0119
12671PP      PP22775   7.649  10.849   3.850 -0.1107  0.3071 -0.0192
12672PP      PP22776   6.810  15.123   8.533  0.2486  0.0741  0.1754
12673PP      PP22777  14.147  13.877   3.071  0.3550 -0.1673  0.3229
12674PP      PP22778  11.590  14.744   4.599 -0.0470 -0.0003 -0.1274
12675PP      PP22779   5.802   4.386   8.876  0.2361 -0.2654 -0.1289
12676PP      PP22780   4.882  13.294   0.805  0.1635 -0.2479  0.0222
12677PP      PP22781   8.152   0.460   3.100 -0.2464  0.0554 -0.2269
12678PP      PP22782   9.801   0.231   2.162  0.0442 -0.1608  0.3647
12679PP      PP22783  14.592   0.787  10.908 -0.2106  0.1193 -0.1451
12680PP      PP22784   0.225   0.584  10.449  0.0592  0.0581  0.1723
12681PP      PP22785   5.261   6.983  11.948  0.0721 -0.0742 -0.1899
12682PP      PP22786   4.425  12.484   9.327  0.4435 -0.0058 -0.1920
12683PP      PP22787   3.330   4.259   1.698  0.0722 -0.0927  0.0828
12684PP      PP22788   1.237  12.414   1.692 -0.1743 -0.0144 -0.1917
12685PP      PP22789   0.058   9.685   3.895 -0.0123  0.1146  0.1906
12686PP      PP22790  15.269   4.208  12.624 -0.3704  0.4152  0.0826
12687PP      PP22791  10.174  14.655  11.284 -0.1608  0.0001 -0.0052
12688PP      PP22792   0.575  12.825  10.444  0.0783 -0.1409 -0.0461
12689PP      PP22793   8.274   0.341   9.235  0.3266  0.0011  0.0169
12690PP      PP22794   0.001   2.251  11.527  0.0509 -0.1853  0.0849
12691PP      PP22795   1.519   1.807   4.378  0.1620 -0.0016  0.1717
12692PP      PP22796   8.365   2.846   9.281 -0.0248 -0.1050  0.2798
12693PP      PP22797   4.695   5.323   9.051 -0.1673  0.0243 -0.0227
12694PP      PP22798  15.586   3.236  12.373  0.0914 -0.1294 -0.0882
12695PP      PP22799   3.658  15.311  11.850 -0.2851  0.0746  0.0544
12696PP      PP22800   8.009   3.050  13.721 -0.3248  0.1298 -0.3101
12697PP      PP22801  15.331   2.329  11.885  0.0786 -0.0413 -0.1378
12698PP      PP22802  15.189   9.181   3.043  0.2849  0.2374  0.2925
12699PP      PP22803   3.075   0.855  12.895 -0.0283 -0.0524  0.1347
12700PP      PP22804   9.187   2.282  13.667 -0.3280 -0.4778 -0.0554
12701PP      PP22805   1.671   3.859   1.000  0.1189 -0.1270 -0.2757
12702PP      PP22806   6.266  13.409   1.870  0.0937  0.0975  0.0546
12703PP      PP22807   7.492   6.663   0.270  0.4058 -0.4390 -0.1923
12704PP      PP22808  14.549   8.616   2.195 -0.0626  0.0430  0.2824
12705PP      PP22809   2.272   2.107  11.789  0.0744  0.1097 -0.1334
12706PP      PP22810   1.577   5.142  12.778  0.1946  0.2048 -0.2428
12707PP      PP22811   4.415   2.564  10.108  0.3471  0.1571  0.3200
12708PP      PP22812   4.237   4.774   0.366 -0.0244  0.3520 -0.1788
12709PP      PP22813  12.069   9.875  10.933 -0.1627  0.1068 -0.0796
12710PP      PP22814   1.035   8.319   2.368  0.2676 -0.0450  0.0484
12711PP      PP22815  10.002   8.105   4.642  0.1372 -0.1055 -0.0265
12712PP      PP22816  11.178   7.066  11.409  0.0603 -0.1745  0.0776
12713PP      PP22817   1.581  14.329   2.593  0.0266 -0.1932 -0.4753
12714PP      PP22818   6.216  13.675   2.505  0.0737 -0.0052 -0.0177
12715PP      PP22819  13.348   4.476  13.553  0.0399 -0.4264  0.1330
12716PP      PP22820   8.095  11.418  10.414 -0.0607  0.1051 -0.0536
12717PP      PP22821  15.712  13.621   0.889  0.1414 -0.3856  0.3035
12718PP      PP22822   1.325  14.617  11.240 -0.3586 -0.2136  0.1079
12719PP      PP22823   9.438  11.377  12.817  0.1600  0.0575  0.1150
12720PP      PP22824  11.566  10.951  13.712  0.1218  0.3638  0.0890
12721PP      PP22825   3.846  10.452  13.263 -0.1068 -0.1850 -0.0115
12722PP      PP22826  13.689   6.950  10.473 -0.0267  0.2010 -0.1700
12723PP      PP22827   3.322   4.687   8.420 -0.0962  0.1625 -0.2459
12724PP      PP22828  12.308   8.269   3.040 -0.2949  0.0072 -0.1836
12725PP      PP22829   9.571   7.791   4.537  0.0207 -0.1153  0.2829
12726PP      PP22830   4.254  12.707  12.951 -0.0591 -0.0264  0.0928
12727PP      PP22831   6.752   5.266   2.191 -0.0536  0.1774  0.0430
12728PP      PP22832   8.935  12.168  11.147 -0.0480 -0.1230  0.1929
12729PP      PP22833   3.791  13.023   0.784  0.0842 -0.3686 -0.0840
12730PP      PP22834  12.117   0.522   0.598  0.0936 -0.2607  0.1392
12731PP      PP22835  13.771  12.632  10.482 -0.2111  0.1770  0.2953
12732PP      PP22836   8.375  14.389   3.962  0.0441  0.1598  0.0668
12733PP      PP22837   5.715  13.363  10.811 -0.0389 -0.3027  0.4915
12734PP      PP22838  13.967   6.878   4.062  0.0503  0.1850 -0.1070
12735PP      PP22839   1.381   7.115   2.130 -0.1663 -0.0230 -0.0185
12736PP      PP22840   8.907   2.052   9.076 -0.0779  0.0675 -0.0091
12737PP      PP22841   5.570  14.037   2.843  0.0495  0.1232 -0.1399
12738PP      PP22842  10.406   7.297  13.645 -0.2165 -0.1275 -0.1364
12739PP      PP22843   9.616   7.659  11.903  0.3746 -0.2067  0.0957
12740PP      PP22844  12.591  10.609   2.816  0.1873  0.0131 -0.0175
12741PP      PP22845   5.903  14.486   0.402 -0.0556  0.1580 -0.1449
12742PP      PP22846   8.924   0.993   3.613  0.2956  0.1170 -0.1941
12743PP      PP22847  13.161   2.771   0.345 -0.1507 -0.1167 -0.0243
12744PP      PP22848   4.311   9.762  10.794  0.0168  0.0331  0.1768
12745PP      PP22849  14.761  14.512   0.860  0.1417 -0.0778 -0.2450
12746PP      PP22850   9.589   4.740  10.556 -0.1633 -0.0365 -0.0515
12747PP      PP22851   2.414  12.639   1.163 -0.0932  0.1404 -0.0110
12748PP      PP22852   0.806   0.354   8.829  0.0591  0.0918  0.2203
12749PP      PP22853   9.352  14.828  10.626 -0.1010  0.0087 -0.0453
12750PP      PP22854  13.223   7.987  11.648 -0.3264  0.0984  0.0054
12751PP      PP22855  11.374   2.127   3.253 -0.0371 -0.0410 -0.0079
12752PP      PP22856   4.857   5.361   2.938  0.1224 -0.0394 -0.0462
12753PP      PP22857  15.146   2.007   3.767 -0.4892 -0.0876 -0.2397
12754PP      PP22858   4.504   0.892  13.744 -0.1827  0.2984 -0.2609
12755PP      PP22859  14.369   3.820   2.579 -0.0447  0.1947 -0.1497
12756PP      PP22860   8.832   2.602  13.730 -0.2512  0.2209  0.1376
12757PP      PP22861  12.372  14.300   3.626  0.0829 -0.2750  0.0876
12758PP      PP22862  12.771   0.848  11.390 -0.0182  0.3104  0.1050
12759PP      PP22863   5.527   3.937   1.921  0.0025  0.0721 -0.0949
12760PP      PP22864   0.149  13.652   4.459 -0.0546  0.2696 -0.1598
12761PP      PP22865   1.621  13.135   0.548  0.1335  0.0836  0.4829
12762PP      PP22866   9.911  11.576   4.864 -0.0267 -0.1291 -0.1321
12763PP      PP22867   1.597   5.218   0.014 -0.0841  0.0889 -0.0857
12764PP      PP22868  10.830   9.119  11.252  0.3512  0.1333 -0.0590
12765PP      PP22869  12.379   8.453   1.338  0.0264 -0.1557  0.1489
12766PP      PP22870  12.267   6.249   9.729  0.2043 -0.0835 -0.0650
12767PP      PP22871  13.396   1.610   0.539 -0.0713 -0.0153 -0.0291
12768PP      PP22872   5.981   5.499  11.419  0.1593 -0.0946 -0.2796
12769PP      PP22873   8.443  13.301  11.956  0.1502 -0.2195 -0.0135
12770PP      PP22874  11.637  10.779   3.775  0.0303  0.1974 -0.0784
12771PP      PP22875   6.284  11.194   9.134 -0.2509 -0.0509 -0.3091
12772PP      PP22876  13.363  10.909  11.729  0.0010  0.0884  0.2162
12773PP      PP22877   0.044   1.240  10.530  0.1026  0.0095 -0.1277
12774PP      PP22878  15.070  15.135   9.092 -0.1284 -0.3051  0.0534
12775PP      PP22879  12.813   1.761  10.660  0.0096 -0.1078  0.1752
12776PP      PP22880   7.772   7.923  11.697 -0.0695 -0.1097  0.1733
12777PP      PP22881   2.873   5.039   1.379 -0.1198  0.1856  0.1791
12778PP      PP22882  13.344   8.933   3.118 -0.3185  0.1247  0.4827
12779PP      PP22883  13.737   0.036   3.112  0.2675  0.3867  0.0660
12780PP      PP22884  15.383  11.002   3.038 -0.1343 -0.1321 -0.1975
12781PP      PP22885   7.715   7.894  10.808  0.0932 -0.3180  0.0877
12782PP      PP22886  12.611   2.227   1.515  0.1805 -0.3431  0.1327
12783PP      PP22887  14.578  15.010  12.090 -0.2828  0.0643  0.0280
12784PP      PP22888  14.502   7.537   4.621  0.0866 -0.4771 -0.1309
12785PP      PP22889   7.125   2.568   1.484 -0.2759  0.4446 -0.0208
12786PP      PP22890  13.724   2.849  11.757 -0.4446  0.0454  0.2313
12787PP      PP22891   6.308   2.083   0.264  0.4345 -0.0181  0.1458
12788PP      PP22892  13.235  10.875   9.911 -0.1211 -0.1813 -0.0916
12789PP      PP22893   7.787   9.259   1.730 -0.0490  0.2553 -0.1186
12790PP      PP22894   5.950  14.284   4.298  0.0404  0.1923  0.3200
12791PP      PP22895  13.234  12.214  12.075  0.3521  0.1511  0.0313
12792PP      PP22896   1.237   3.203   9.748  0.0761  0.1521 -0.1575
12793PP      PP22897   8.321  13.381   2.730  0.1118  0.0720  0.0115
12794PP      PP22898  14.415   5.706  10.318 -0.1571 -0.0309 -0.0665
12795PP      PP22899   7.877  13.000   4.730  0.2600  0.1427  0.0596
12796PP      PP22900   9.348  10.201   5.779  0.1285  0.0910 -0.0993
12797PP      PP22901  10.643   5.739   4.840 -0.2193  0.0775 -0.0563
12798PP      PP22902   1.206  11.965   1.996 -0.1715 -0.2733  0.1431
12799PP      PP22903  10.637  13.463  13.216 -0.1672  0.1498 -0.4063
12800PP      PP22904   1.076   9.289   1.789 -0.0809  0.0174  0.0986
12801PP      PP22905  10.745   3.944  13.342  0.0928 -0.0003 -0.1109
12802PP      PP22906   4.524  12.147   9.706  0.4981  0.1107 -0.3210
12803PP      PP22907   6.703   5.616  11.219  0.1438  0.0241 -0.0143
12804PP      PP22908  11.762  14.753   4.109  0.0374  0.3998 -0.0244
12805PP      PP22909   8.894   6.337   9.560  0.0241 -0.0734  0.4978
12806PP      PP22910   4.567  12.809  11.819 -0.0003 -0.0508  0.1927
12807PP      PP22911   1.397  14.249  12.420 -0.0797 -0.0411 -0.3364
12808PP      PP22912  13.189   7.808   3.711 -0.0652 -0.3920 -0.2559
12809PP      PP22913   5.688   8.688   2.144 -0.0506  0.2885  0.0367
12810PP      PP22914   2.791   8.075   2.505  0.4739  0.0971 -0.0009
12811PP      PP22915  14.782   6.882   9.470  0.0512 -0.1451  0.1827
12812PP      PP22916   0.588  13.341   0.621  0.0973  0.0145  0.4259
12813PP      PP22917   2.023   3.841   8.460  0.0124 -0.3398 -0.3766
12814PP      PP22918   8.617   1.547   0.962  0.0965  0.1163 -0.1787
12815PP      PP22919   3.373   5.381   1.614 -0.0626  0.0009  0.0419
12816PP      PP22920   4.065   0.716   0.928 -0.3324  0.1227  0.1154
12817PP      PP22921   2.152   9.844  12.603 -0.0698  0.0534  0.1255
12818PP      PP22922   1.961   1.620   8.133 -0.1197  0.1121 -0.0476
12819PP      PP22923   9.835  10.806   3.392  0.1332 -0.0302 -0.2228
12820PP      PP22924  14.831   7.836   2.585 -0.0299 -0.0737  0.4653
12821PP      PP22925   4.866   2.606  11.587  0.2696 -0.0454 -0.1081
12822PP      PP22926  13.908   4.414  13.544  0.1848  0.0202 -0.0023
12823PP      PP22927  14.528   6.128  11.823 -0.1411 -0.2774  0.2251
12824PP      PP22928  14.886   1.408  10.564  0.2059  0.0710 -0.0376
12825PP      PP22929   1.742  14.169   1.114 -0.2539  0.0017  0.0477
12826PP      PP22930   6.383   1.605   7.853  0.1039 -0.1431  0.1109
12827PP      PP22931   9.063  10.523  12.448  0.1139  0.0007  0.1311
12828PP      PP22932  14.227   1.940   3.819  0.1737  0.1771  0.1877
12829PP      PP22933  13.312   0.343  12.990 -0.2046  0.0319 -0.0659
12830PP      PP22934   0.889   8.073   1.875  0.1733 -0.0266 -0.2363
12831PP      PP22935   9.247   6.306  12.167  0.0724 -0.3215 -0.1043
12832PP      PP22936   1.100   5.406   1.346  0.0065  0.0551  0.2303
12833PP      PP22937   7.394  11.574   4.319  0.1721 -0.0088  0.0863
12834PP      PP22938   8.743   3.091   9.475 -0.0880 -0.0203  0.0054
12835PP      PP22939   0.841  12.891   1.505  0.1193  0.0331 -0.0515
12836PP      PP22940   0.221   1.038   2.096  0.3187  0.0180 -0.0203
12837PP      PP22941  13.102  14.528  13.009  0.3808 -0.3554  0.2043
12838PP      PP22942  13.601  12.672   4.923  0.0197  0.1766  0.2671
12839PP      PP22943  14.570  14.459   0.017  0.4172 -0.0425  0.0191
12840PP      PP22944   7.636  12.743   3.948  0.0711 -0.0025 -0.0207
12841PP      PP22945   8.969   4.091   7.667  0.2248 -0.2835  0.2489
12842PP      PP22946  15.607   5.309   9.842  0.3429  0.0414 -0.0761
12843PP      PP22947   1.502  14.478  13.202  0.5238 -0.1203  0.0239
12844PP      PP22948   4.374  14.489  11.439  0.0792 -0.1039 -0.0880
12845PP      PP22949   4.136  15.115  10.308  0.2875  0.2529  0.2685
12846PP      PP22950  11.738  13.799   3.026  0.0042 -0.1371 -0.0846
12847PP      PP22951   8.197   7.950   3.443 -0.1311 -0.1066 -0.2299
12848PP      PP22952   5.097   5.865   2.953  0.1262  0.0750 -0.0352
12849PP      PP22953   3.658  12.448   4.456  0.0244 -0.1002  0.0450
12850PP      PP22954   7.790   4.796  11.253  0.1212  0.4885  0.0226
12851PP      PP22955   1.195   5.232   3.968 -0.0172  0.2672  0.0489
12852PP      PP22956  12.533  12.491   5.213  0.1481  0.0653 -0.3291
12853PP      PP22957   4.000  15.289   4.353  0.0388  0.1581  0.1209
12854PP      PP22958  14.332   2.415   3.639  0.0961 -0.0012 -0.1460
12855PP      PP22959   8.598   2.720  12.883  0.2462  0.0678 -0.0025
12856PP      PP22960   3.225  11.871  11.051 -0.2990  0.1844 -0.2641
12857PP      PP22961  12.178   1.094   2.771  0.0806 -0.1295  0.1453
12858PP      PP22962  13.304   8.511   3.474 -0.0112  0.0546 -0.0740
12859PP      PP22963   9.000   3.259  11.186 -0.1246  0.3374  0.0697
12860PP      PP22964   0.157   3.562   0.646  0.0466  0.1204  0.1744
12861PP      PP22965  10.599  10.661  11.173  0.1229  0.1800  0.2408
12862PP      PP22966   2.755  13.944  13.770  0.0715 -0.4982 -0.3424
12863PP      PP22967   7.701  10.426  11.826  0.1725 -0.2866 -0.2873
12864PP      PP22968  12.388  14.551  11.772 -0.0285  0.1176  0.0304
12865PP      PP22969   1.282   7.601   1.570  0.2047 -0.1567 -0.0634
12866PP      PP22970   4.118  12.131   2.155  0.1022  0.1363 -0.1228
12867PP      PP22971   0.925  15.183   8.914 -0.1460  0.1334 -0.0534
12868PP      PP22972  15.362  13.048   3.098  0.3544 -0.3231 -0.0554
12869PP      PP22973   2.054  12.998   0.230 -0.0851  0.1067 -0.0490
12870PP      PP22974   3.033  11.697   9.743  0.3024  0.4558 -0.0679
12871PP      PP22975  14.765  12.927   2.322 -0.0297  0.2311  0.2190
12872PP      PP22976   0.629   5.981   9.481  0.1853  0.0214  0.0958
12873PP      PP22977   3.682  13.220   1.807 -0.0912  0.0608 -0.1236
12874PP      PP22978  12.641  11.643  10.020 -0.0165 -0.1944  0.0999
12875PP      PP22979   4.583  15.252  10.454 -0.1813 -0.1617  0.2113
12876PP      PP22980  10.151   9.125   3.967  0.1023  0.3837 -0.0664
12877PP      PP22981   2.393   1.732   9.991  0.2106  0.0557  0.1668
12878PP      PP22982   9.568   4.405   2.199 -0.0927  0.2966 -0.0317
12879PP      PP22983  13.958  10.648  13.204  0.1007 -0.3450  0.1521
12880PP      PP22984   2.630   5.731   9.080 -0.1090  0.1678  0.2587
12881PP      PP22985  11.093   1.198   1.970  0.0546 -0.1917 -0.2302
12882PP      PP22986  11.230   3.188  11.124  0.2425 -0.0636 -0.1867
12883PP      PP22987   7.885   5.136   1.643  0.0750  0.1483 -0.0907
12884PP      PP22988   1.610   1.898   3.906 -0.0516  0.1436  0.1536
12885PP      PP22989  12.950   1.260   0.869  0.0036  0.0227 -0.2218
12886PP      PP22990   5.998   3.982   2.145 -0.0194 -0.0133 -0.2469
12887PP      PP22991   3.748   4.595   1.860 -0.0179 -0.3123 -0.0742
12888PP      PP22992  10.211   7.292  10.902 -0.1322 -0.0147  0.0913
12889PP      PP22993  13.445   4.783   3.094 -0.1268  0.2000 -0.0513
12890PP      PP22994   2.390   1.760   3.417  0.1113  0.0995 -0.2756
12891PP      PP22995   5.392  10.211   1.468 -0.1380 -0.1249  0.1201
12892PP      PP22996   1.900   8.955   8.993 -0.0648  0.0694 -0.0069
12893PP      PP22997  10.618  14.793   1.433  0.1344 -0.1427 -0.1282
12894PP      PP22998   9.034   1.409   1.095 -0.0833 -0.0659  0.0227
12895PP      PP22999   3.803   2.122   9.696  0.3753  0.2065 -0.0375
12896PP      PP23000  15.689   9.100   0.345 -0.1971  0.0935 -0.4483
12897PP      PP23001   5.564   1.509  10.049 -0.1783  0.2065 -0.0081
12898PP      PP23002  11.975   2.593  10.070 -0.0231 -0.1899 -0.0774
12899PP      PP23003   5.639   8.845  12.283  0.1157  0.2790 -0.2771
12900PP      PP23004   4.073   7.813  11.176 -0.1260  0.3151 -0.0435
12901PP      PP23005   5.177   3.213   9.724  0.0516  0.1923 -0.0131
12902PP      PP23006   5.772   1.309   0.835 -0.0133 -0.2802  0.0041
12903PP      PP23007   4.165  11.215  13.085 -0.0453 -0.1240 -0.0100
12904PP      PP23008   6.303   4.352  10.715 -0.4102  0.0095  0.2660
12905PP      PP23009   8.666  15.350  12.707  0.0576  0.1312 -0.0204
12906PP      PP23010   2.466   9.356   4.480  0.1896 -0.0420  0.0221
12907PP      PP23011   7.772   0.921   2.039  0.3119 -0.0785  0.1376
12908PP      PP23012   9.574  11.081   1.985 -0.1814 -0.0462 -0.1276
12909PP      PP23013  14.036   1.996  12.651 -0.1866 -0.0043 -0.0912
12910PP      PP23014  12.794  15.331   0.459  0.1432 -0.1498  0.2229
12911PP      PP23015   5.802  11.883   9.553  0.2458 -0.1479  0.2030
12912PP      PP23016   6.116   6.646   9.812  0.0313 -0.0607 -0.0887
12913PP      PP23017   4.290   3.975  12.459 -0.0924  0.2807 -0.4006
12914PP      PP23018  14.337   6.256   1.095  0.1833 -0.1101  0.0306
12915PP      PP23019  10.392  13.048   2.868 -0.1649  0.0672 -0.3690
12916PP      PP23020   0.454   9.324  12.896  0.1781  0.0992 -0.0263
12917PP      PP23021  10.214   7.977  11.310 -0.2178 -0.2416  0.3186
12918PP      PP23022  14.461   1.965  10.143 -0.1209  0.3308 -0.0992
12919PP      PP23023   9.107   3.656  11.482 -0.2762  0.2582 -0.0746
12920PP      PP23024  14.208   7.386   3.957  0.0147  0.1240  0.0329
12921PP      PP23025   5.936  12.361   1.125 -0.1237 -0.1957  0.1562
12922PP      PP23026  10.237  15.659  11.164 -0.2684 -0.1677  0.0776
12923PP      PP23027  12.785   5.173  10.435 -0.1756 -0.2138 -0.1597
12924PP      PP23028  11.197   2.049   1.846  0.0378 -0.0814  0.0760
12925PP      PP23029   0.218   5.441  10.729  0.2993 -0.1935  0.2537
12926PP      PP23030  10.810   1.034   4.463 -0.0346 -0.3145  0.0520
12927PP      PP23031   7.675  10.413  13.607 -0.0299 -0.0254 -0.0817
12928PP      PP23032   6.933   3.147  10.884 -0.1551  0.1202  0.0718
12929PP      PP23033   1.978  10.203   4.285  0.0883  0.0894 -0.0018
12930PP      PP23034   8.540  10.288  12.810  0.1729  0.0817 -0.0317
12931PP      PP23035   8.609   5.807   1.761  0.0524 -0.0988 -0.0168
12932PP      PP23036   3.853   2.887  11.204 -0.0656 -0.1736  0.1192
12933PP      PP23037  15.147   3.291   9.611  0.1465  0.1308  0.1097
12934PP      PP23038   7.208  11.225  10.241 -0.1179  0.2233 -0.0245
12935PP      PP23039  11.335   4.518   2.206  0.1977 -0.1087 -0.1849
12936PP      PP23040   5.472  11.135   2.843  0.0406  0.2521 -0.1494
12937PP      PP23041   6.105   4.695   8.363 -0.3269  0.0203  0.2251
12938PP      PP23042  15.582   5.979   1.323 -0.2710 -0.4364  0.1821
12939PP      PP23043   9.466  11.929  12.528  0.2029  0.0764 -0.0042
12940PP      PP23044  13.541   0.338  10.181 -0.1422  0.1028  0.0503
12941PP      PP23045  15.631   3.482   9.634 -0.0616 -0.3766 -0.0195
12942PP      PP23046  13.588   7.230  13.275  0.2208  0.2105 -0.2630
12943PP      PP23047  13.228  11.251   1.408 -0.0975 -0.2565  0.2270
12944PP      PP23048  14.755  15.567   2.227 -0.0140  0.0626 -0.2289
12945PP      PP23049  12.933  10.437  11.749 -0.1920  0.0493  0.0856
12946PP      PP23050  14.809   6.852   0.565  0.0485 -0.2470  0.0253
12947PP      PP23051  11.621   4.462  13.089 -0.1469 -0.1429 -0.3140
12948PP      PP23052   0.744   3.463   8.611 -0.1140  0.0251 -0.3664
12949PP      PP23053   4.752   3.865   9.944 -0.1133  0.0995  0.1358
12950PP      PP23054  14.369   2.389  12.789 -0.0134 -0.1195 -0.1339
12951PP      PP23055  10.881   2.459  11.326 -0.1478  0.1281 -0.1004
12952PP      PP23056  15.445   1.306   2.104 -0.0977 -0.2467  0.1442
12953PP      PP23057  11.114   1.067   9.473  0.0788  0.2677  0.1533
12954PP      PP23058  10.994   1.414  11.288 -0.0777  0.0930 -0.0445
12955PP      PP23059  13.911   7.469   0.794 -0.0197 -0.1730  0.0575
12956PP      PP23060  15.324   4.706   3.164 -0.2025  0.0312 -0.0566
12957PP      PP23061  12.636   1.018   1.980 -0.0546 -0.4266 -0.0506
12958PP      PP23062  12.304  15.630  13.551 -0.0425 -0.1497  0.0591
12959PP      PP23063  14.962   4.495   2.060 -0.0025 -0.5387  0.1157
12960PP      PP23064   8.063  13.706  13.430  0.0944  0.2252  0.1956
12961PP      PP23065   9.315  11.470  11.546  0.0157 -0.2793  0.0057
12962PP      PP23066  14.304   6.194   3.356 -0.4759  0.2094  0.0694
12963PP      PP23067   7.919   5.033  13.326  0.1708 -0.0091  0.1799
12964PP      PP23068   1.175  15.291  10.114  0.0746  0.1580  0.0877
12965PP      PP23069  11.257   8.860  11.448  0.0558 -0.4010 -0.1212
12966PP      PP23070   1.545   1.255   2.896  0.0693  0.0392  0.1354
12967PP      PP23071   9.616  12.979   3.207  0.0290 -0.2237  0.0524
12968PP      PP23072  10.527  14.814   9.527  0.1317  0.2188 -0.3798
12969PP      PP23073   2.733   5.132   4.287  0.4060 -0.2133 -0.0870
12970PP      PP23074   7.877  12.597  12.985  0.1821  0.2207  0.0236
12971PP      PP23075   9.805   5.130  13.043 -0.0290 -0.0494 -0.1130
12972PP      PP23076   8.669  15.242  11.463 -0.2711  0.1131 -0.3215
12973PP      PP23077   0.212  14.943  10.239  0.0907  0.1359 -0.0218
12974PP      PP23078   3.464  11.697   1.146 -0.1210  0.0352 -0.4898
12975PP      PP23079   2.299   8.461   4.578  0.1066  0.2998  0.4758
12976PP      PP23080   0.455   5.539  11.870 -0.2968  0.0281  0.0935
12977PP      PP23081   6.208   6.027  10.719 -0.0127  0.5130  0.3192
12978PP      PP23082   2.286   1.450   4.154  0.2203  0.0210 -0.1218
12979PP      PP23083  12.305   1.358   1.063  0.0571  0.1812  0.0858
12980PP      PP23084   5.752  14.774  11.434  0.0359 -0.2717  0.1398
12981PP      PP23085   6.055  10.717  12.339 -0.1833  0.0554 -0.0103
12982PP      PP23086  15.681  13.542   3.904  0.1354  0.1365 -0.0077
12983PP      PP23087   6.218   8.932   0.968  0.1856  0.1038 -0.1256
12984PP      PP23088   7.867   2.766   1.891  0.2303 -0.1606  0.0394
12985PP      PP23089  12.638   0.023   3.108  0.1158  0.0691  0.1110
12986PP      PP23090   2.765   2.604   1.763  0.1334  0.1549 -0.0686
12987PP      PP23091   5.686   2.825  12.059  0.0498 -0.0153 -0.3339
12988PP      PP23092   1.262   8.468   1.065 -0.2021  0.0146 -0.0929
12989PP      PP23093   4.724   4.720   8.078 -0.1795  0.0703  0.0131
12990PP      PP23094  15.156   9.509   1.285  0.1313 -0.0379  0.1306
12991PP      PP23095   4.382  10.180  12.568 -0.3470  0.2557 -0.2466
12992PP      PP23096  14.954   1.678   9.312  0.0048 -0.1023 -0.0479
12993PP      PP23097   8.766   6.190   1.485  0.4050 -0.1026 -0.5674
12994PP      PP23098   9.060   5.824   0.480 -0.0704 -0.2680 -0.1788
12995PP      PP23099  15.615  13.443   9.073 -0.0666  0.2183  0.0525
12996PP      PP23100   3.498  12.844   2.645  0.1717 -0.0900 -0.1669
12997PP      PP23101   5.654   9.071  11.021  0.0499  0.2000  0.3246
12998PP      PP23102   8.134   6.027   2.007 -0.0777 -0.0289  0.0245
12999PP      PP23103   8.323   4.135   9.684  0.0196 -0.0250  0.3052
13000PP      PP23104  10.219   7.177   1.339  0.2179  0.2743  0.2974
13001PP      PP23105   1.558   4.042   1.489  0.2921  0.2092 -0.1880
13002PP      PP23106  14.190   6.021  10.061  0.0883 -0.1171 -0.0847
13003PP      PP23107   2.841   0.158  11.377 -0.1223 -0.2585  0.0359
13004PP      PP23108   3.587   2.698   0.083 -0.1239 -0.0486 -0.1045
13005PP      PP23109  15.684  14.043   9.826  0.0134  0.0352  0.1005
13006PP      PP23110  14.008   3.752   9.579  0.1774  0.0865 -0.0994
13007PP      PP23111   5.267  14.162   3.369 -0.0055 -0.3323  0.0635
13008PP      PP23112  10.865  12.849   4.059  0.0573 -0.0918 -0.1290
13009PP      PP23113  13.885   9.778  10.688  0.0432  0.0392  0.1751
13010PP      PP23114  15.410  13.405   4.545  0.2449 -0.2993 -0.0495
13011PP      PP23115  10.771  11.216  11.184 -0.0846  0.0767  0.1953
13012PP      PP23116   2.294   2.783  13.567  0.0143  0.1743 -0.0576
13013PP      PP23117  14.403  14.035  13.639  0.2286  0.0500 -0.0660
13014PP      PP23118   3.119   3.886  12.020  0.1390 -0.1606 -0.0953
13015PP      PP23119  14.785  11.592   0.745  0.2919 -0.0678 -0.1378
13016PP      PP23120   6.679   4.388  11.895  0.3366 -0.1277 -0.1924
13017PP      PP23121   6.908   7.623   2.814 -0.0254 -0.0898  0.1127
13018PP      PP23122   5.334  15.344   3.239  0.0100  0.0851  0.1526
13019PP      PP23123   2.006  11.917   3.706 -0.1967  0.2139  0.2111
13020PP      PP23124   5.615   4.842   0.627 -0.2348  0.2543 -0.0276
13021PP      PP23125   5.630   0.903   8.963  0.0519  0.0998  0.2529
13022PP      PP23126   7.211   6.909  10.590 -0.2064  0.0261  0.0280
13023PP      PP23127  12.229   7.042  11.279  0.0246  0.0152  0.0934
13024PP      PP23128   9.099   2.469   0.405  0.2158 -0.1183  0.0085
13025PP      PP23129   5.905   7.253   2.262  0.0299 -0.0810  0.0365
13026PP      PP23130   9.370   4.767   2.657 -0.1917  0.1837 -0.1419
13027PP      PP23131   1.408   2.583   8.671  0.0337 -0.0999  0.0876
13028PP      PP23132   3.637   4.896   0.420  0.2411 -0.0656  0.2704
13029PP      PP23133   9.587  12.391  12.466 -0.1360 -0.2873  0.1711
13030PP      PP23134  13.243  11.547   5.338  0.2431  0.1026 -0.0503
13031PP      PP23135   3.024   8.871   2.028 -0.1116  0.0632  0.0829
13032PP      PP23136   5.809  12.310  10.562  0.3455 -0.0126 -0.2031
13033PP      PP23137   6.498   7.941  13.651  0.0983  0.1263  0.1778
13034PP      PP23138   4.432   2.883   3.078 -0.0152  0.0270  0.1002
13035PP      PP23139   1.836   6.943   1.917 -0.2116 -0.1086 -0.0940
13036PP      PP23140  14.552   1.535   9.060  0.0262  0.4089  0.1181
13037PP      PP23141   2.754  12.701  10.608  0.3990 -0.5722 -0.2282
13038PP      PP23142   6.222  10.878   0.722 -0.2178 -0.1923 -0.0168
13039PP      PP23143   1.217  13.651   4.028 -0.2503 -0.1480 -0.0823
13040PP      PP23144   9.948   4.969   0.815 -0.2214  0.0529 -0.0704
13041PP      PP23145   5.240   0.384  11.184 -0.0482  0.1730  0.1251
13042PP      PP23146  12.371   2.595  12.537 -0.1452 -0.0993  0.0537
13043PP      PP23147  10.987   1.588  11.887  0.1421 -0.1273  0.2422
13044PP      PP23148   1.864   3.167  11.401  0.0741 -0.1166  0.0123
13045PP      PP23149  15.365   9.199  13.190  0.0858 -0.1914 -0.2618
13046PP      PP23150   8.753   7.736  13.531  0.4090  0.1326  0.1540
13047PP      PP23151   1.371  11.394   0.814 -0.0296 -0.2160 -0.1358
13048PP      PP23152  11.566   0.516   0.690  0.0412  0.0266  0.0966
13049PP      PP23153  15.263  10.160   9.727 -0.2645  0.3209 -0.0477
13050PP      PP23154   3.917   8.098   3.930  0.1537  0.2816  0.0690
13051PP      PP23155  13.379   3.004  11.409  0.0192 -0.1765 -0.1110
13052PP      PP23156   2.196  13.929   1.932 -0.1846  0.1474  0.1974
13053PP      PP23157  11.574   1.045  13.040  0.3422 -0.4433  0.1615
13054PP      PP23158  12.620   8.657   1.912  0.1354 -0.2698 -0.1472
13055PP      PP23159   3.839  12.220   3.277 -0.2940  0.0516 -0.0610
13056PP      PP23160   7.733   7.417   9.386  0.1460 -0.0887 -0.0835
13057PP      PP23161   9.615   3.768  11.359 -0.0533 -0.1312  0.1992
13058PP      PP23162  10.194  12.336   4.205  0.1361 -0.0514 -0.1031
13059PP      PP23163   6.968   2.459   9.262 -0.1795 -0.0429  0.2027
13060PP      PP23164  14.787   8.360   3.476 -0.0457 -0.2107 -0.1052
13061PP      PP23165   0.107  11.686  12.080  0.2277 -0.0695 -0.3046
13062PP      PP23166   0.740  11.835  12.733  0.0745  0.2921  0.1849
13063PP      PP23167   5.199  14.384   1.553  0.3110  0.1499 -0.0591
13064PP      PP23168   3.890  15.243   9.907 -0.2948  0.1935  0.0506
13065PP      PP23169  14.464   0.333  10.492  0.0201  0.2438 -0.1493
13066PP      PP23170  12.410   7.001  10.050  0.2035 -0.0501  0.0235
13067PP      PP23171  11.288   2.692   2.281  0.3033 -0.3281 -0.0839
13068PP      PP23172  13.630   6.458   0.310  0.1205 -0.0426 -0.1323
13069PP      PP23173  12.472   3.183   2.930  0.2776  0.4709 -0.0364
13070PP      PP23174   1.224   4.332   2.393 -0.1337  0.2774 -0.1622
13071PP      PP23175   1.129  11.430   4.021  0.0163 -0.1597  0.0332
13072PP      PP23176  14.111   0.276   1.584 -0.0221 -0.1705  0.4397
13073PP      PP23177  10.058   5.249   9.912  0.1701  0.0033  0.2460
13074PP      PP23178   9.405   7.404   0.315  0.1186 -0.1039 -0.0166
13075PP      PP23179   2.720  12.586   3.210  0.0523 -0.2022  0.1120
13076PP      PP23180   5.972  12.124   2.904 -0.0678 -0.1023  0.1681
13077PP      PP23181   7.782   2.882   0.798  0.1104 -0.2135 -0.5506
13078PP      PP23182  12.732  12.416  12.103 -0.2934 -0.0999  0.2502
13079PP      PP23183   0.700   4.616  10.688  0.0421 -0.0211 -0.2853
13080PP      PP23184   9.548   7.923  12.682 -0.0737 -0.0952  0.0423
13081PP      PP23185  14.795   3.686  12.699 -0.3369 -0.1195 -0.1026
13082PP      PP23186   3.711   4.433   8.633 -0.4536 -0.0233  0.0082
13083PP      PP23187   7.044  10.269   9.923  0.0908 -0.0041 -0.0432
13084PP      PP23188  11.865  11.719   0.072  0.2011 -0.0923  0.2287
13085PP      PP23189  14.974   9.702   4.311 -0.0725 -0.0400  0.2008
13086PP      PP23190  12.226  14.431   4.143 -0.1800 -0.2054  0.1940
13087PP      PP23191   6.629   6.691  11.939 -0.1277  0.2284 -0.2288
13088PP      PP23192  12.463  13.663   3.992 -0.2711  0.2019  0.3677
13089PP      PP23193  11.528  10.579   3.312 -0.2143  0.1026 -0.2900
13090PP      PP23194  13.078   7.324   1.125 -0.0188  0.0658  0.1973
13091PP      PP23195  15.436   1.139   3.286  0.0053 -0.0492  0.1163
13092PP      PP23196   5.303   3.924  10.403  0.0005 -0.3205  0.0195
13093PP      PP23197  14.242   4.626  13.064  0.0873  0.1595 -0.2451
13094PP      PP23198   8.153   5.759  12.744  0.0068  0.0277  0.1479
13095PP      PP23199   3.310  12.551   0.419  0.0762 -0.0754 -0.1559
13096PP      PP23200   0.398   7.643  11.397  0.1929 -0.0340 -0.2013
13097PP      PP23201   6.183   8.122  11.574  0.1672 -0.1140  0.0862
13098PP      PP23202   3.446  12.533   9.893  0.2088  0.0315  0.2631
13099PP      PP23203   9.726   6.126  12.779 -0.2500  0.0688 -0.0683
13100PP      PP23204   5.361   3.695   0.714  0.2089  0.1285 -0.0963
13101PP      PP23205   8.023  10.516  13.230 -0.4990 -0.0229 -0.1872
13102PP      PP23206   1.213  12.923   9.191 -0.1721 -0.2040  0.0852
13103PP      PP23207   0.988   6.331  11.448 -0.1544  0.1468 -0.0696
13104PP      PP23208  14.272   6.803   9.683 -0.0540  0.1117  0.1814
13105PP      PP23209   4.234   0.669   2.305 -0.0050  0.0272  0.2159
13106PP      PP23210  10.858   2.406  13.441  0.0638 -0.2024 -0.1424
13107PP      PP23211  13.342   1.687   2.513 -0.0691 -0.2734  0.1423
13108PP      PP23212   7.502   0.959  12.629 -0.0708 -0.3485  0.2371
13109PP      PP23213   0.191  13.853  12.643  0.1235  0.2380 -0.1547
13110PP      PP23214  10.498  15.529   1.556 -0.1435  0.1500  0.3222
13111PP      PP23215   4.090   1.621   3.926 -0.1845 -0.0316  0.0400
13112PP      PP23216   2.932  13.261  11.405 -0.2892  0.2106 -0.1287
13113PP      PP23217   6.635   4.192   0.949 -0.1455  0.2220 -0.2379
13114PP      PP23218  12.771   9.682   2.238 -0.3184 -0.2916 -0.3131
13115PP      PP23219  13.524   3.972   2.706  0.1219 -0.0303 -0.2284
13116PP      PP23220  14.261   9.247   0.301  0.3536 -0.1743 -0.3463
13117PP      PP23221   0.570   2.753  10.124 -0.1933 -0.0144 -0.0844
13118PP      PP23222   0.010   1.426  10.033  0.1384  0.0795  0.1616
13119PP      PP23223  13.055   2.504   4.169  0.0960  0.0432 -0.0243
13120PP      PP23224  15.676  15.098  13.469  0.1749 -0.1395  0.3656
13121PP      PP23225   4.691   9.093   0.259 -0.1841 -0.3119  0.2440
13122PP      PP23226   4.307   0.597   1.419 -0.0239  0.1131  0.3098
13123PP      PP23227   0.265  12.826   0.114 -0.1925 -0.2973  0.1375
13124PP      PP23228   7.894   8.402   2.547  0.1881 -0.0348  0.3176
13125PP      PP23229   5.593   3.541   0.335  0.1415 -0.2348 -0.0526
13126PP      PP23230  13.657  13.534  11.901  0.0508  0.0684  0.4368
13127PP      PP23231   1.680  15.001   0.113 -0.0816 -0.0421 -0.0135
13128PP      PP23232  13.771  13.334   0.365  0.0744  0.0335 -0.0313
13129PP      PP23233   6.123  13.285   4.566  0.0483 -0.0303  0.2626
13130PP      PP23234   2.219   2.872   9.667 -0.2551  0.3227  0.1673
13131PP      PP23235  10.108   8.190   0.447  0.1883 -0.1067 -0.0120
13132PP      PP23236   8.257   0.717   0.059 -0.0149 -0.0723  0.3100
13133PP      PP23237  11.368  14.763  12.194  0.1542 -0.0385  0.1570
13134PP      PP23238   6.921  14.389  13.004  0.1432 -0.0828  0.0827
13135PP      PP23239  10.712   1.856   1.909  0.2822  0.1652 -0.0559
13136PP      PP23240   1.313   0.799  11.599 -0.1506 -0.0526  0.3270
13137PP      PP23241  12.502   9.956   4.585 -0.0797  0.4102  0.0669
13138PP      PP23242   3.852   0.270   1.447  0.3308 -0.0126  0.1566
13139PP      PP23243   8.855   2.891  12.060 -0.2114 -0.1733 -0.1870
13140PP      PP23244  14.811   3.655   3.990  0.3111 -0.0824  0.1880
13141PP      PP23245   3.032   7.532   3.717 -0.0732  0.1692 -0.1014
13142PP      PP23246   4.930   3.926  13.737  0.0892 -0.2818  0.0642
13143PP      PP23247   3.812   8.040  10.718  0.1262 -0.4053 -0.0011
13144PP      PP23248   9.656   7.028   4.346 -0.2153 -0.1972 -0.1347
13145PP      PP23249  12.610   7.015   1.124 -0.0371 -0.1026 -0.1189
13146PP      PP23250   8.664   2.007   8.566  0.3200  0.1289  0.0365
13147PP      PP23251   1.761   8.705   4.290  0.2546  0.0533 -0.1669
13148PP      PP23252   5.484   5.663   2.537 -0.0509 -0.0274  0.1592
13149PP      PP23253   3.548  11.297   9.490 -0.2074  0.1822  0.2073
13150PP      PP23254   7.359   3.548   2.536  0.0381 -0.2501  0.2964
13151PP      PP23255   5.837   6.944  13.549  0.2875  0.3050 -0.0864
13152PP      PP23256   5.426  10.662  10.202 -0.2142  0.1765 -0.0077
13153PP      PP23257   8.226   1.033   3.358 -0.1813 -0.0049  0.1013
13154PP      PP23258  13.697  15.227  12.404 -0.0815 -0.1521 -0.1682
13155PP      PP23259  15.705   6.025  13.550 -0.0171  0.1437  0.2546
13156PP      PP23260   6.607  13.501   3.098  0.2467 -0.1954 -0.2089
13157PP      PP23261   6.061   0.295   0.598  0.3883  0.0733  0.1938
13158PP      PP23262   7.427  10.658  12.468 -0.1369  0.2506 -0.2619
13159PP      PP23263  11.670   4.461   2.639 -0.1468 -0.0226 -0.1660
13160PP      PP23264   1.376  14.489   3.419  0.1161 -0.0317  0.0512
13161PP      PP23265   9.972  15.618   9.690  0.2243  0.1212  0.1019
13162PP      PP23266  10.661   5.729  13.722  0.0041 -0.0283  0.0108
13163PP      PP23267   9.005  14.521   9.468  0.0577 -0.1799 -0.0186
13164PP      PP23268  14.505   3.939   9.248 -0.4391 -0.2652 -0.1675
13165PP      PP23269  12.740   1.029   3.017  0.0089  0.0975 -0.1317
13166PP      PP23270   9.726  14.838  11.698  0.3293  0.3493 -0.2865
13167PP      PP23271   5.733   8.723  11.396  0.2007  0.0535 -0.2947
13168PP      PP23272  13.680  13.040  11.620  0.2937  0.2335 -0.0574
13169PP      PP23273  12.623   2.236  10.642 -0.2128 -0.2120 -0.2347
13170PP      PP23274   0.065   1.514  11.730  0.3482 -0.0766  0.0252
13171PP      PP23275   4.659  14.664   9.262 -0.0816 -0.2191 -0.1748
13172PP      PP23276   0.759   9.872  11.383 -0.0237  0.0631 -0.0227
13173PP      PP23277   3.874   4.150   1.045  0.0320 -0.0429 -0.0605
13174PP      PP23278   2.790   8.412   3.575 -0.3292  0.1562 -0.0747
13175PP      PP23279   5.990   0.875   1.166 -0.3199  0.0372 -0.0023
13176PP      PP23280  13.998   8.866   0.585 -0.1956 -0.0498  0.0026
13177PP      PP23281  10.000   8.431  10.103  0.1049  0.1418 -0.1493
13178PP      PP23282   8.259   0.183  11.105 -0.2548  0.0677  0.0540
13179PP      PP23283  15.261  15.710   4.120  0.0435 -0.2962 -0.0809
13180PP      PP23284   8.285   7.534   9.278 -0.0446  0.1979  0.2238
13181PP      PP23285  12.705   7.400  12.130 -0.1947 -0.0828 -0.0978
13182PP      PP23286   9.078   0.981  10.412 -0.2244 -0.2548  0.1271
13183PP      PP23287   7.659   2.854   8.678  0.0111 -0.1696  0.1684
13184PP      PP23288  11.058  15.091  11.612 -0.0974  0.1380 -0.1826
13185PP      PP23289  12.852  10.141   4.171 -0.0961  0.0285  0.0329
13186PP      PP23290   6.871   8.572  12.571  0.1558 -0.1321 -0.0534
13187PP      PP23291   8.466   9.842  11.389 -0.1753  0.0668 -0.0521
13188PP      PP23292   0.505  12.725   8.881  0.2738  0.0612 -0.4223
13189PP      PP23293   0.268  13.286  10.522  0.1309 -0.3219  0.1459
13190PP      PP23294   5.374   8.637  12.661 -0.0633  0.1499  0.2822
13191PP      PP23295  11.361   0.533   3.302 -0.0464  0.0344 -0.0460
13192PP      PP23296   3.882   6.460   4.186 -0.1797 -0.0184 -0.2465
13193PP      PP23297  10.790   9.652   3.312  0.3079 -0.1214 -0.0825
13194PP      PP23298   1.120   5.272  13.462  0.0406 -0.1202 -0.3100
13195PP      PP23299  14.067  10.996  13.590  0.0078 -0.1790  0.2490
13196PP      PP23300   1.448  10.642   3.700  0.0548 -0.1482 -0.1460
13197PP      PP23301   7.420  11.974   2.939 -0.4347 -0.3035 -0.2496
13198PP      PP23302  12.068   1.165  13.079  0.1596 -0.0591 -0.0183
13199PP      PP23303   2.002   0.160   9.877  0.0703  0.0891  0.2833
13200PP      PP23304   1.569   2.592   2.884  0.3440 -0.1126 -0.1157
13201PP      PP23305  14.549   8.452  12.761 -0.0293  0.0142 -0.3939
13202PP      PP23306   6.857  11.786  13.726  0.1069  0.0785 -0.0312
13203PP      PP23307   7.325   6.340   1.012 -0.2638  0.0040 -0.1975
13204PP      PP23308   0.394   8.833   3.573 -0.2996  0.0275  0.0597
13205PP      PP23309   4.909   6.624   8.810  0.4242  0.3028  0.1812
13206PP      PP23310  12.486   0.215  12.808  0.0853 -0.2299  0.0829
13207PP      PP23311   6.137   1.408   1.887  0.2621  0.1672  0.0673
13208PP      PP23312   2.159   9.190   0.681  0.4922 -0.0843  0.0514
13209PP      PP23313  14.289  14.063  12.599  0.3689 -0.0229 -0.0224
13210PP      PP23314  12.770  12.688   9.280 -0.1365  0.0220 -0.2917
13211PP      PP23315   3.113   8.658  11.083  0.0483  0.0195 -0.1932
13212PP      PP23316  13.622   2.409  10.537  0.1109 -0.0814  0.3353
13213PP      PP23317  13.505   0.813   9.889  0.0471  0.1366  0.1502
13214PP      PP23318   6.341   9.865  11.188  0.2081 -0.4931 -0.1016
13215PP      PP23319   4.606  14.625  12.676 -0.2762  0.2226  0.1064
13216PP      PP23320   9.575  14.451  10.361 -0.3407 -0.0901 -0.1616
13217PP      PP23321  11.894   9.709   5.171 -0.1921 -0.2927  0.0771
13218PP      PP23322   9.594   3.205   2.305 -0.3119 -0.0095 -0.0736
13219PP      PP23323  10.590  10.956   0.266  0.1880 -0.0040 -0.0269
13220PP      PP23324   6.324   2.139   0.761 -0.0417 -0.0790 -0.1961
13221PP      PP23325  14.264   9.116   4.305  0.1233 -0.1749 -0.2668
13222PP      PP23326  11.675   7.949  11.591  0.0886  0.1041  0.2537
13223PP      PP23327   4.608   5.041  10.238 -0.3379 -0.0086  0.2640
13224PP      PP23328  10.916  12.555  12.979  0.0198 -0.3235 -0.2353
13225PP      PP23329  10.852   5.095   2.872  0.2022  0.1223 -0.1393
13226PP      PP23330  13.689  13.050   4.636 -0.0867 -0.1507  0.1185
13227PP      PP23331  13.317   5.708   3.372  0.0130  0.2278  0.0637
13228PP      PP23332   3.940   9.934  11.893  0.1586 -0.1182 -0.0404
13229PP      PP23333  13.355  12.715   3.452  0.1467  0.0381  0.1191
13230PP      PP23334   6.716  10.343  11.128 -0.1722 -0.3563  0.2647
13231PP      PP23335  10.898  14.579  11.619  0.0683 -0.0806  0.0572
13232PP      PP23336   7.062   2.188  10.033  0.1431  0.1694  0.4282
13233PP      PP23337  10.889   2.421   9.113 -0.1928 -0.2173 -0.2318
13234PP      PP23338   5.613   8.978   0.839  0.0107 -0.0830 -0.1401
13235PP      PP23339  12.984   6.805   5.597 -0.0650 -0.0785 -0.0853
13236PP      PP23340  13.647  15.364  11.640 -0.1215  0.0465 -0.1040
13237PP      PP23341   0.783  15.022   0.570  0.2253 -0.1135  0.2301
13238PP      PP23342   2.645  14.788  12.743 -0.0746 -0.1818 -0.2977
13239PP      PP23343  11.308   4.444  12.141  0.0246 -0.1824 -0.2742
13240PP      PP23344  13.016   8.330   2.979 -0.1947 -0.1343  0.0363
13241PP      PP23345   1.535   5.068   8.528  0.0354 -0.0512 -0.1156
13242PP      PP23346   0.317   8.294  10.060 -0.0257 -0.5259  0.0610
13243PP      PP23347   4.158  12.040  10.029 -0.1151  0.0850 -0.0144
13244PP      PP23348   6.646   4.075  11.511  0.1916  0.1068 -0.3475
13245PP      PP23349   2.335   5.541  10.050 -0.0227 -0.3560 -0.4508
13246PP      PP23350   0.129  12.762   4.532  0.2938  0.2803  0.2446
13247PP      PP23351   4.020   8.972   2.153 -0.1587 -0.1134  0.1080
13248PP      PP23352   3.035   6.227   9.121 -0.2224 -0.0742 -0.1457
13249PP      PP23353   8.284   8.260  12.922  0.0672  0.2181  0.1996
13250PP      PP23354  10.935  13.295  11.705  0.2664  0.2671 -0.1091
13251PP      PP23355   3.882  11.911   1.308 -0.1245 -0.1392 -0.3630
13252PP      PP23356  13.054   4.634  11.815  0.1618 -0.4307  0.1198
13253PP      PP23357   7.334   5.796  12.386  0.0350 -0.0657 -0.0620
13254PP      PP23358   6.251   1.224   9.815 -0.0118 -0.0500 -0.1455
13255PP      PP23359   2.715  13.592   9.444 -0.0394 -0.1132 -0.1743
13256PP      PP23360  13.937  13.555   9.580 -0.0291 -0.0699  0.1480
13257PP      PP23361   6.231  14.680   9.381 -0.3290  0.2421  0.0537
13258PP      PP23362  14.566  10.972   0.685  0.3341 -0.3001  0.0534
13259PP      PP23363  15.285   8.026  10.297 -0.1189  0.1534 -0.1768
13260PP      PP23364   9.598   9.058  10.881 -0.1908 -0.0862 -0.2269
13261PP      PP23365  13.727   9.070   3.500 -0.2350  0.4471  0.1938
13262PP      PP23366  11.077   5.821  13.351 -0.0403 -0.2282 -0.0211
13263PP      PP23367  11.434   6.973   0.116  0.1212 -0.1016  0.2185
13264PP      PP23368   5.351  10.498   2.314 -0.0175 -0.0156  0.2312
13265PP      PP23369  11.768  12.935   4.948 -0.0635  0.1290 -0.2194
13266PP      PP23370   0.969   2.382   9.936  0.0507 -0.2970  0.0861
13267PP      PP23371   9.647  15.333  13.431  0.0778  0.0709  0.1424
13268PP      PP23372  11.016   8.024  11.037  0.1924 -0.1304  0.0118
13269PP      PP23373   3.253   5.546   3.912 -0.1225  0.2029  0.1722
13270PP      PP23374   5.577   8.433  10.371  0.0020 -0.0953 -0.2774
13271PP      PP23375  13.211   4.821  10.448 -0.0118 -0.0475 -0.2143
13272PP      PP23376  14.750   3.475   4.556  0.2445  0.0702  0.1155
13273PP      PP23377   8.631   3.468  12.534  0.0580 -0.0607 -0.1699
13274PP      PP23378  14.030  15.315   2.879  0.2212  0.0230  0.0515
13275PP      PP23379   6.075   9.220   9.313 -0.2241 -0.1474  0.0990
13276PP      PP23380   0.861   0.117   4.421  0.1224  0.0451  0.0775
13277PP      PP23381   6.851   1.950  12.129 -0.2842  0.0621  0.1682
13278PP      PP23382  14.101   2.162  11.732  0.0212  0.1846  0.1096
13279PP      PP23383   2.373  11.573  12.444  0.0020 -0.2611  0.0570
13280PP      PP23384  10.181   0.418   9.878  0.0979  0.5087  0.0310
13281PP      PP23385  11.216   9.628  12.548  0.0234 -0.0742 -0.0375
13282PP      PP23386   8.775   0.555   0.123 -0.1320  0.0197  0.1508
13283PP      PP23387   7.462  13.731   3.322 -0.0823  0.0233  0.1494
13284PP      PP23388   2.186   2.147   2.198 -0.0500 -0.1228  0.2524
13285PP      PP23389   2.505  11.186   1.870  0.0438 -0.0940  0.0268
13286PP      PP23390   3.494   8.610  12.175 -0.1751  0.0196 -0.2193
13287PP      PP23391   9.230   4.983  11.435 -0.2335 -0.1250 -0.3565
13288PP      PP23392   9.368   6.981  12.301 -0.3114 -0.2531  0.1249
13289PP      PP23393   8.928   2.109  11.442  0.0279 -0.1991 -0.1296
13290PP      PP23394   8.035   6.891  11.072  0.0870 -0.0948  0.3876
13291PP      PP23395   7.193   4.938   8.550  0.2194  0.0092 -0.3272
13292PP      PP23396   6.749   8.023   1.263 -0.0636  0.2873 -0.1900
13293PP      PP23397  13.001   3.409   2.845  0.1770  0.0161  0.0192
13294PP      PP23398   3.541  15.190   3.133 -0.1498  0.0978  0.3181
13295PP      PP23399  14.203  14.733   9.622  0.0146 -0.2067 -0.0111
13296PP      PP23400   8.473  12.154   0.147 -0.0930 -0.1084 -0.0911
13297PP      PP23401   2.489   1.764   1.323  0.4604 -0.2343  0.4035
13298PP      PP23402   4.161   5.656   7.945 -0.0120  0.0150  0.0539
13299PP      PP23403   2.664   2.348   2.225  0.2405 -0.0691  0.0636
13300PP      PP23404   1.524  13.213   2.644  0.2314  0.1007  0.1456
13301PP      PP23405   0.076   4.797   2.851 -0.0661  0.0533  0.3926
13302PP      PP23406   9.408   3.833  10.423 -0.1007  0.2881 -0.1125
13303PP      PP23407  15.142  12.551   2.382  0.0701  0.0508 -0.0233
13304PP      PP23408   4.086  10.406   0.372 -0.1440 -0.1315 -0.0234
13305PP      PP23409  11.702   7.551  10.852  0.3736 -0.0079 -0.2394
13306PP      PP23410  13.787   3.323   9.273 -0.2678  0.1310  0.3539
13307PP      PP23411   4.093  11.174   3.850  0.0779  0.1098  0.0287
13308PP      PP23412   8.292  14.143  13.473  0.4075 -0.0734 -0.2029
13309PP      PP23413  12.912  13.438  13.302 -0.3091  0.2690 -0.1964
13310PP      PP23414   1.375  10.783  12.023 -0.2311 -0.1555  0.2114
13311PP      PP23415  13.934   3.982  12.278 -0.2819  0.0765 -0.2259
13312PP      PP23416   8.567   6.047  11.092  0.0536 -0.2789  0.0494
13313PP      PP23417   6.419   0.161   8.969  0.0144 -0.1221 -0.1165
13314PP      PP23418   2.496   5.249  12.327  0.0453 -0.0097  0.1129
13315PP      PP23419   1.036   4.508   3.588 -0.1492 -0.2237 -0.0135
13316PP      PP23420   7.802   1.161   9.276 -0.0657 -0.1272 -0.0835
13317PP      PP23421  10.313  12.094   0.666 -0.1353 -0.1746  0.2255
13318PP      PP23422   4.702  13.125   0.235 -0.1253  0.0772  0.0411
13319PP      PP23423   1.710   0.241   3.136  0.0422  0.3970  0.0462
13320PP      PP23424  11.104  15.463   1.652 -0.0551  0.0039 -0.1404
13321PP      PP23425  12.819   9.001   2.996 -0.1063  0.1166  0.0505
13322PP      PP23426   0.935  11.932  10.515 -0.1741  0.1977 -0.0017
13323PP      PP23427  14.415  11.458   0.288  0.0698 -0.0510  0.0464
13324PP      PP23428  15.390  10.235  13.495  0.3135  0.0822  0.1892
13325PP      PP23429   2.815   1.015  12.258 -0.4087 -0.1849 -0.2157
13326PP      PP23430  10.292   9.289  13.461 -0.2943  0.1616 -0.1377
13327PP      PP23431   3.516  12.345  11.387  0.1358  0.1338  0.3181
13328PP      PP23432   9.308   1.434   2.381 -0.2577 -0.0342  0.0030
13329PP      PP23433   9.439   0.915   2.822  0.0825 -0.0505 -0.0976
13330PP      PP23434   7.901   0.051   2.292  0.4271 -0.3129 -0.3000
13331PP      PP23435  15.304  10.720  10.509  0.1432  0.0436 -0.2715
13332PP      PP23436   1.697   0.528   2.632 -0.3513 -0.1792  0.0299
13333PP      PP23437   1.762  13.275   2.134 -0.0320 -0.0350  0.1273
13334PP      PP23438   0.450   9.027   2.280  0.1431  0.0307 -0.0209
13335PP      PP23439   8.601   4.528   0.354  0.4186  0.0940  0.0937
13336PP      PP23440   7.860  10.686   4.980  0.4461 -0.1382  0.2163
13337PP      PP23441   9.859   5.471   9.489 -0.0363  0.1042 -0.0101
13338PP      PP23442   3.385   8.870   8.767 -0.1258 -0.0214  0.1520
13339PP      PP23443   0.416   3.194  10.851  0.5115  0.0275 -0.3552
13340PP      PP23444   4.380   1.244  11.383 -0.1035 -0.0532 -0.1509
13341PP      PP23445   9.597   0.019   1.151 -0.0025 -0.3493  0.0588
13342PP      PP23446   4.286   5.713   1.031 -0.1245 -0.0153  0.2466
13343PP      PP23447  12.334   7.316  13.714 -0.1035 -0.1250 -0.0104
13344PP      PP23448   2.905   0.498   0.783 -0.3289 -0.2202 -0.1106
13345PP      PP23449  11.719   7.135  11.181 -0.0378 -0.0148  0.2408
13346PP      PP23450   0.396  14.637  11.251 -0.3739 -0.1119 -0.0054
13347PP      PP23451   5.839  10.030   9.534  0.2050 -0.2204 -0.3528
13348PP      PP23452  13.411   1.410  13.203 -0.0263  0.0066 -0.1632
13349PP      PP23453   6.605  11.860  12.776  0.1682  0.2027  0.1458
13350PP      PP23454  15.618   4.259   1.895  0.1499  0.2532  0.0222
13351PP      PP23455   8.632   2.800   8.834 -0.0536  0.0585  0.1533
13352PP      PP23456  12.910   5.664  10.401  0.0113 -0.0287 -0.4218
13353PP      PP23457   3.796   4.636   8.164  0.0922  0.2307 -0.3671
13354PP      PP23458  15.152  10.443  13.062 -0.1166  0.1001 -0.0213
13355PP      PP23459   6.635  15.190  10.595 -0.1447  0.2023 -0.0105
13356PP      PP23460   0.750  11.851   3.322  0.0348  0.3457  0.0251
13357PP      PP23461   4.399   9.474   0.099 -0.2316 -0.0189  0.0719
13358PP      PP23462  11.927   3.555  11.679  0.2962 -0.1239  0.1443
13359PP      PP23463  10.856   1.478   2.814 -0.0476  0.3722 -0.0883
13360PP      PP23464  11.949   4.564  13.460  0.1164 -0.1675  0.2157
13361PP      PP23465  11.368   4.519   3.940 -0.0514  0.0150  0.1570
13362PP      PP23466   7.223  11.998   4.482  0.0173 -0.3569  0.0352
13363PP      PP23467   6.495   8.768   3.416 -0.2972  0.1696  0.0967
13364PP      PP23468   8.842  14.237   1.706 -0.0235 -0.0412  0.1630
13365PP      PP23469  13.935   4.916   1.002 -0.1598 -0.0544  0.2084
13366PP      PP23470   0.659  14.619   3.678 -0.2119 -0.4110 -0.3099
13367PP      PP23471  13.733  15.728  10.788  0.2409  0.2023 -0.3499
13368PP      PP23472   0.894  12.951   0.600  0.0575 -0.1403  0.0424
13369PP      PP23473   4.834  15.603   2.435 -0.2499 -0.0146 -0.0302
13370PP      PP23474   0.863  12.334  13.190 -0.0565  0.0162 -0.1915
13371PP      PP23475   6.341  11.878   4.927  0.2331  0.1366  0.1266
13372PP      PP23476   5.896  15.497  11.132 -0.2429  0.2139  0.0371
13373PP      PP23477   5.594   3.571   9.500 -0.1642 -0.1138  0.2452
13374PP      PP23478  11.328   8.603   1.855  0.1015  0.0433 -0.2119
13375PP      PP23479  13.593   5.810  13.315 -0.0677 -0.0277 -0.3060
13376PP      PP23480   4.722   4.478   9.057 -0.0310 -0.2672 -0.1036
13377PP      PP23481   6.510   7.648   1.412 -0.1971  0.1146 -0.3477
13378PP      PP23482  11.016   9.209   2.994 -0.0676  0.2358  0.0117
13379PP      PP23483   7.123   4.165   9.295  0.1699 -0.2457 -0.0155
13380PP      PP23484  15.448   2.531   9.413  0.2472 -0.1047 -0.0861
13381PP      PP23485   9.634   3.335  10.596 -0.2712  0.2365  0.2360
13382PP      PP23486   1.017   4.024  11.905 -0.5350  0.1696 -0.3758
13383PP      PP23487  13.111   1.971   0.667  0.2740 -0.1651  0.2957
13384PP      PP23488  15.223   3.732   9.435 -0.0010 -0.1593  0.1165
13385PP      PP23489   9.092   3.894   2.168 -0.0414  0.1296 -0.3390
13386PP      PP23490  10.339   7.911  10.275 -0.1252  0.0614  0.1360
13387PP      PP23491  11.951  15.446  10.249  0.4963  0.1005  0.0652
13388PP      PP23492   6.172   6.336  11.138 -0.0084  0.3952  0.0906
13389PP      PP23493   4.031   8.923  11.407  0.0393  0.0677  0.3042
13390PP      PP23494  15.405   6.222   2.107  0.1544  0.0792  0.1885
13391PP      PP23495   8.268   4.713   2.616  0.2118  0.0631  0.0865
13392PP      PP23496   2.590  12.861  11.157  0.0739  0.0585 -0.0776
13393PP      PP23497   0.838   8.108   4.723  0.2504 -0.2606 -0.0233
13394PP      PP23498  15.579  11.388   1.506 -0.2119  0.0001 -0.2157
13395PP      PP23499   4.727  15.689   3.681 -0.0235  0.1021  0.1585
13396PP      PP23500   9.531   8.842   3.361 -0.0087 -0.1524  0.0904
13397PP      PP23501   0.681   2.140   9.019 -0.0387  0.3388  0.3155
13398PP      PP23502  12.637   3.013  12.324  0.0106 -0.0051 -0.1047
13399PP      PP23503   2.431  14.037   0.559  0.0287  0.1908 -0.2946
13400PP      PP23504  11.089   7.948   0.098 -0.0177  0.4775 -0.1677
13401PP      PP23505  13.500   8.562   0.834  0.0864  0.0001 -0.3009
13402PP      PP23506   8.092   6.315  13.094 -0.2164  0.4844 -0.0465
13403PP      PP23507   0.106   0.595  12.618  0.2171 -0.0742 -0.4014
13404PP      PP23508  13.593   1.929  13.089  0.1373  0.1145  0.0265
13405PP      PP23509   9.274  13.200  13.123  0.0381 -0.0153 -0.0248
13406PP      PP23510   7.974   0.103  12.400 -0.3885  0.2579  0.3320
13407PP      PP23511   6.873   5.701   1.538  0.3644 -0.0748  0.0580
13408PP      PP23512   6.453  13.747   9.408 -0.0630  0.1533  0.2970
13409PP      PP23513   8.082  11.086   4.120  0.1451  0.1718  0.1373
13410PP      PP23514  15.523  11.662   4.148 -0.0188  0.0620  0.1988
13411PP      PP23515  11.608   9.987   2.478 -0.0579  0.0487 -0.0157
13412PP      PP23516   5.899   3.607   1.699  0.0500  0.1908  0.0557
13413PP      PP23517  12.795   7.697  11.670 -0.3791 -0.0626  0.0315
13414PP      PP23518  10.540  11.383   1.081  0.2195 -0.1545  0.0646
13415PP      PP23519   7.263   7.580  12.594 -0.1010  0.1189 -0.0525
13416PP      PP23520   4.978   9.992  11.610  0.1938  0.1873  0.0703
13417PP      PP23521   0.322   7.954   1.842  0.2470 -0.0649  0.0233
13418PP      PP23522   1.490   0.447  13.044 -0.3396 -0.0086  0.1653
13419PP      PP23523   9.450   8.051   4.049  0.3124 -0.0284 -0.0708
13420PP      PP23524  12.700   1.160   9.605 -0.1820  0.1817 -0.0634
13421PP      PP23525  15.039   1.281   0.313 -0.0506  0.1105 -0.1916
13422PP      PP23526   5.753  11.926   0.254 -0.1240 -0.0798  0.1631
13423PP      PP23527   1.865   7.903  11.828  0.2024  0.0731  0.0897
13424PP      PP23528  10.178  11.161   1.296  0.1561 -0.1165 -0.0629
13425PP      PP23529  11.384   7.367  12.686 -0.0175 -0.1564 -0.0335
13426PP      PP23530   4.534   2.027  13.253 -0.3908  0.1502 -0.1751
13427PP      PP23531  14.287  15.516   3.283  0.0519 -0.1068 -0.0175
13428PP      PP23532   1.879   4.809  11.807  0.1624 -0.0388  0.0956
13429PP      PP23533   5.952   1.746   0.024 -0.1040 -0.2302 -0.1023
13430PP      PP23534  11.039   9.685   0.473  0.2132 -0.1456  0.1637
13431PP      PP23535  14.032   1.716   4.361  0.3551 -0.1754 -0.2338
13432PP      PP23536   4.619   0.384   9.790  0.0038  0.0489  0.1193
13433PP      PP23537   8.548  12.228   1.509 -0.0006 -0.0501 -0.2043
13434PP      PP23538   7.820  14.058   0.193 -0.1715  0.0457 -0.0438
13435PP      PP23539   1.072  12.433  13.685 -0.2353  0.3192  0.0637
13436PP      PP23540   3.423   3.017  12.560  0.1761 -0.0990  0.0636
13437PP      PP23541  10.127  12.323  13.220  0.3482 -0.1474 -0.2804
13438PP      PP23542   7.764   5.741   9.677  0.0992  0.2846 -0.1383
13439PP      PP23543  12.374   6.278  10.222  0.2487  0.0868 -0.1877
13440PP      PP23544  12.369   6.913  10.793 -0.1762  0.0032 -0.0725
13441PP      PP23545   9.118   1.723  13.581 -0.0664  0.0400  0.0723
13442PP      PP23546   0.546  15.508  12.327  0.0740  0.1128  0.1070
13443PP      PP23547  12.100   0.603  13.557  0.2578 -0.0885 -0.1323
13444PP      PP23548   7.585  10.667  10.783 -0.2081 -0.1231 -0.2197
13445PP      PP23549   1.805  12.725  12.068  0.0315  0.3566  0.0959
13446PP      PP23550  15.465   8.306   2.445  0.1794  0.1447  0.0200
13447PP      PP23551   9.937   4.206   0.073 -0.3176  0.3936 -0.2135
13448PP      PP23552  13.152  12.727  13.082  0.0853  0.0375  0.4492
13449PP      PP23553  13.818   8.529   5.357 -0.4255  0.0687  0.0738
13450PP      PP23554   0.513   4.820  11.552 -0.0368 -0.1676 -0.0060
13451PP      PP23555   3.699  12.879  10.306  0.1377 -0.1888 -0.0016
13452PP      PP23556  10.017  11.523  13.445 -0.2961 -0.1434 -0.2070
13453PP      PP23557   1.816  11.944   4.579 -0.1834  0.0480  0.3891
13454PP      PP23558   2.248   1.700  12.014 -0.1540  0.2422 -0.0837
13455PP      PP23559   9.864   7.589  11.077 -0.2250 -0.4280 -0.1062
13456PP      PP23560  10.566   3.821  11.097  0.3294 -0.1184 -0.1565
13457PP      PP23561   7.941   7.287  13.764 -0.1418  0.2123 -0.2725
13458PP      PP23562  13.197  13.644   0.474  0.0745  0.0267  0.1234
13459PP      PP23563   1.841   9.545   0.899  0.2345  0.1192  0.0743
13460PP      PP23564  12.199  10.531   3.650  0.1051 -0.1122 -0.1432
13461PP      PP23565   7.854   3.826  11.645 -0.1755  0.1856  0.0617
13462PP      PP23566  13.361  10.919   4.468 -0.1216 -0.0602  0.2386
13463PP      PP23567  13.080  14.054  12.250 -0.1357  0.1012 -0.2790
13464PP      PP23568  11.675   5.035   9.326  0.0862 -0.0023  0.2556
13465PP      PP23569  13.012  13.087   4.097  0.2528 -0.0769 -0.0052
13466PP      PP23570   9.431  11.539   5.011  0.2915  0.4510  0.1539
13467PP      PP23571   7.250   2.324  12.253  0.2819 -0.0740  0.0567
13468PP      PP23572   2.589   3.757   1.376  0.3380 -0.0018  0.0880
13469PP      PP23573   9.126   3.671   0.496 -0.0956 -0.1262  0.2532
13470PP      PP23574   6.957   7.612  13.084 -0.3412  0.0086  0.0933
13471PP      PP23575  14.556   9.991   3.040  0.1666  0.2770 -0.1704
13472PP      PP23576   2.628   9.674   1.496  0.0413 -0.0279  0.2040
13473PP      PP23577   0.471  11.774   0.187 -0.0286  0.0536  0.2322
13474PP      PP23578  13.967  12.246  13.277  0.0519  0.0459 -0.0185
13475PP      PP23579   9.919  13.265   2.934 -0.1257 -0.0567 -0.1073
13476PP      PP23580   0.937   6.854   8.332 -0.1804  0.1346 -0.0510
13477PP      PP23581  11.743   2.246   9.626  0.2710 -0.3713 -0.1390
13478PP      PP23582  11.439  13.350  12.158 -0.0413 -0.1889 -0.2943
13479PP      PP23583   7.661   0.795  10.842 -0.0321 -0.2650 -0.2185
13480PP      PP23584  14.595  13.459  11.939 -0.2632 -0.2130 -0.0949
13481PP      PP23585  13.741   9.511   1.018  0.2463  0.1704 -0.1561
13482PP      PP23586   8.449   4.450  11.790 -0.2681  0.0339  0.1182
13483PP      PP23587   3.997  12.719   3.074  0.0868 -0.4337  0.2828
13484PP      PP23588   9.875   3.396   1.044 -0.1814  0.0838  0.3185
13485PP      PP23589   8.298   4.517   1.655 -0.0996 -0.0911 -0.1900
13486PP      PP23590   9.634   1.843  13.507 -0.1626 -0.1112  0.2743
13487PP      PP23591   8.825  10.846  11.758 -0.2115 -0.2539  0.0607
13488PP      PP23592  13.504  13.528   1.371 -0.0632 -0.0652 -0.0568
13489PP      PP23593  10.137  10.367   2.189 -0.0119  0.5856  0.3500
13490PP      PP23594   7.502   2.241  11.842  0.1896 -0.2676  0.1233
13491PP      PP23595   4.365  11.627   4.187 -0.0574 -0.0499  0.1098
13492PP      PP23596   4.129   1.827   8.844 -0.0736 -0.0534  0.0378
13493PP      PP23597   1.782  13.603   2.811  0.1801 -0.1046  0.0299
13494PP      PP23598   4.137   6.921   3.088  0.4737  0.2258 -0.0558
13495PP      PP23599   2.488   3.549   8.499 -0.0480 -0.1712 -0.2046
13496PP      PP23600  14.066   4.497   4.786 -0.2423 -0.1452  0.1289
13497PP      PP23601   3.267   5.952  11.202  0.0760 -0.1344 -0.2275
13498PP      PP23602   0.382  13.266   3.842  0.2142 -0.3295  0.0176
13499PP      PP23603   1.125  14.693  12.980 -0.0270  0.1306  0.0800
13500PP      PP23604   3.300  11.764   1.634  0.0397  0.0438  0.1339
13501PP      PP23605  14.335   6.983   2.024 -0.1156 -0.2096  0.1355
13502PP      PP23606   6.545   5.947   8.936  0.0254  0.0138 -0.2724
13503PP      PP23607   5.012   7.993   4.248  0.1833  0.1558  0.1025
13504PP      PP23608  14.409  10.695   2.216 -0.0521 -0.2067  0.1927
13505PP      PP23609  10.051   8.860   2.175  0.0424 -0.0440 -0.3392
13506PP      PP23610   6.631   6.426   9.198  0.1142 -0.1422  0.2157
13507PP      PP23611   5.960   8.531  10.089  0.0160  0.1245 -0.1274
13508PP      PP23612   2.690   4.404  11.273 -0.0216 -0.0174 -0.1543
13509PP      PP23613  10.368  15.494  12.500  0.3164  0.3162  0.2623
13510PP      PP23614   9.951  10.752   4.060  0.0332 -0.1946 -0.1894
13511PP      PP23615  11.491   0.606  12.726 -0.1346 -0.2672 -0.0654
13512PP      PP23616   2.109   0.512   3.969  0.0844 -0.1421  0.0801
13513PP      PP23617   3.067  15.712  10.458  0.0318 -0.6979  0.1876
13514PP      PP23618  14.527   0.528   4.078 -0.3593 -0.1089  0.1296
13515PP      PP23619  14.372  10.266  12.369  0.4478  0.1520 -0.1773
13516PP      PP23620  15.584   3.179   0.547  0.0150 -0.1702 -0.2270
13517PP      PP23621   7.662   8.434   2.017  0.2815 -0.2477 -0.1050
13518PP      PP23622   3.171   2.844   9.198 -0.3380 -0.0265  0.0644
13519PP      PP23623   5.082   9.136   8.765 -0.0716  0.0522 -0.0310
13520PP      PP23624   3.173   5.163  11.799 -0.1056 -0.0610  0.1046
13521PP      PP23625   5.788  13.111   0.457 -0.3394  0.0727  0.2138
13522PP      PP23626  11.873  14.847  11.309  0.0795  0.2575 -0.0881
13523PP      PP23627   4.914   3.093  11.241  0.0291 -0.2174 -0.1836
13524PP      PP23628  11.418  14.063  13.212  0.2223  0.0323 -0.2037
13525PP      PP23629  11.166  12.828  11.360  0.1430 -0.2715  0.3158
13526PP      PP23630   3.022  15.321   1.361 -0.1116 -0.1529 -0.0403
13527PP      PP23631   3.157   0.461   3.028  0.1269 -0.1524  0.3012
13528PP      PP23632  10.629  11.271   2.501 -0.3682  0.2240  0.1045
13529PP      PP23633   4.969  11.148  13.738 -0.0188  0.3443 -0.1279
13530PP      PP23634   0.182   3.111  10.106  0.2761  0.2830  0.0391
13531PP      PP23635   2.615  10.907   3.904 -0.0399  0.0382  0.1976
13532PP      PP23636   8.378   8.023  10.913  0.2259 -0.0777 -0.0685
13533PP      PP23637  12.227   7.155  12.659  0.1791 -0.1148 -0.1074
13534PP      PP23638   1.488  13.133   4.390 -0.2227 -0.0045 -0.0134
13535PP      PP23639  12.977   1.192   9.141 -0.0355  0.2527  0.0853
13536PP      PP23640  12.187  11.714  10.579 -0.0204  0.1781 -0.2784
13537PP      PP23641   6.312   6.783   8.486 -0.3048 -0.0049 -0.2075
13538PP      PP23642   0.478   6.416   4.733  0.0845 -0.0561 -0.0052
13539PP      PP23643   2.980   2.331   9.557 -0.1246  0.1510 -0.1897
13540PP      PP23644   6.790   8.155  11.835  0.1141 -0.5594  0.1238
13541PP      PP23645  13.091   8.944   1.525 -0.0572  0.0611 -0.0110
13542PP      PP23646   0.420  13.418   1.078  0.2406 -0.1083 -0.1846
13543PP      PP23647  14.436   7.789   9.981 -0.1940  0.2259 -0.0756
13544PP      PP23648  15.165   3.888  13.639 -0.1511 -0.3233 -0.1414
13545PP      PP23649   6.252   1.094  11.997 -0.3413  0.0625  0.0260
13546PP      PP23650   3.014  10.145   3.023  0.0398 -0.2063 -0.1449
13547PP      PP23651   0.638   1.557   8.878 -0.4348 -0.1024  0.2740
13548PP      PP23652  13.777  10.538   1.666 -0.0164 -0.1110 -0.2963
13549PP      PP23653  14.618  10.512  12.709 -0.0191  0.2544  0.1488
13550PP      PP23654   9.324   4.085  12.571  0.1216  0.3105  0.0982
13551PP      PP23655   8.848   1.485  10.166  0.2041  0.0741  0.2918
13552PP      PP23656   4.688   8.555   9.310  0.0806  0.3224  0.1111
13553PP      PP23657  10.899   2.074   0.121  0.1509  0.0780 -0.0393
13554PP      PP23658  11.917   6.091   2.662  0.0795 -0.0911  0.3969
13555PP      PP23659   3.397   5.467   3.226  0.2622 -0.0604  0.2179
13556PP      PP23660   2.315   2.987  11.532 -0.1829 -0.3703 -0.0250
13557PP      PP23661   6.400   6.874  13.467 -0.3412 -0.0738 -0.1515
13558PP      PP23662   6.458   4.039  12.183 -0.3109 -0.1183 -0.2176
13559PP      PP23663  12.482   4.041  10.081  0.0990 -0.0682  0.1187
13560PP      PP23664   3.234   4.473   2.689  0.2139 -0.2024  0.1051
13561PP      PP23665   4.781   8.627  11.081  0.3631 -0.1285 -0.0854
13562PP      PP23666   1.688  11.146   1.749  0.0765  0.0121  0.2090
13563PP      PP23667   2.998  15.273   3.152 -0.0079  0.2960  0.2592
13564PP      PP23668   4.662  12.003   1.005  0.1246 -0.1377  0.0480
13565PP      PP23669   8.705   7.825  12.037 -0.2110 -0.0070 -0.1366
13566PP      PP23670  10.135   4.860   8.748  0.0651  0.0293  0.1018
13567PP      PP23671  10.461   1.393   9.927  0.0955 -0.2687 -0.1371
13568PP      PP23672   6.251   0.440   9.819  0.0260 -0.1728 -0.1462
13569PP      PP23673  14.481   0.321  11.985 -0.0259 -0.2186 -0.0781
13570PP      PP23674   0.831  10.551  12.018  0.1812  0.0025  0.2305
13571PP      PP23675   0.587   3.899  12.796 -0.0604  0.1725  0.4711
13572PP      PP23676  12.629  13.347   1.551  0.0776  0.2028  0.0788
13573PP      PP23677   1.780   4.323   1.108  0.0093 -0.1072 -0.1390
13574PP      PP23678   5.603  10.899   4.443  0.0715  0.0523  0.1535
13575PP      PP23679  12.453   6.779   0.622 -0.0323  0.2342 -0.0290
13576PP      PP23680  15.182  15.033  12.803 -0.1072  0.0214 -0.3014
13577PP      PP23681   5.825  10.570  12.774 -0.2522  0.3975  0.0948
13578PP      PP23682  12.806  11.662   4.082  0.1465 -0.1841  0.0754
13579PP      PP23683  11.947   7.165  11.721  0.0646  0.3139 -0.2420
13580PP      PP23684   3.819   8.580   2.499  0.2563 -0.2750 -0.0673
13581PP      PP23685  15.204  10.364   9.266  0.1579 -0.2210 -0.2672
13582PP      PP23686  11.430   7.750   1.673 -0.0520 -0.2096  0.0547
13583PP      PP23687  12.329   0.484  10.303 -0.0071 -0.2297  0.2952
13584PP      PP23688   0.503  15.071  11.072  0.0053  0.0330  0.0684
13585PP      PP23689   5.331   5.070   3.562 -0.2334  0.0068  0.1577
13586PP      PP23690   8.839   3.920  13.340  0.0517 -0.2579 -0.0091
13587PP      PP23691   8.899  11.493   3.104 -0.1234  0.0809  0.1466
13588PP      PP23692   7.806  14.953   3.407  0.0170 -0.1595  0.4916
13589PP      PP23693  14.963  13.610  12.280  0.2821 -0.2742 -0.1767
13590PP      PP23694  15.048  12.079   0.412  0.2459  0.0374  0.0252
13591PP      PP23695   4.022   2.491   1.622  0.0061  0.1676  0.2158
13592PP      PP23696   6.398   5.971  12.541  0.4012 -0.1949  0.3948
13593PP      PP23697   8.430   4.883  13.237  0.0102  0.2916  0.0815
13594PP      PP23698  11.288   2.673  12.018  0.1187 -0.0746 -0.1594
13595PP      PP23699  14.466  14.452  10.098  0.1450 -0.0475  0.1569
13596PP      PP23700   9.539   7.646   9.818  0.1421  0.1777  0.2366
13597PP      PP23701  10.610   6.426  10.082  0.0615  0.1150 -0.1692
13598PP      PP23702  13.754   0.154   9.449 -0.2577  0.1253 -0.2612
13599PP      PP23703  10.088  15.194  11.312 -0.1165  0.1082 -0.0149
13600PP      PP23704   0.574   4.458   0.485 -0.1656 -0.3925 -0.2036
13601PP      PP23705   3.654  14.756   0.121  0.2739  0.3664  0.1604
13602PP      PP23706  13.233   6.391   4.769  0.2558 -0.1792 -0.2575
13603PP      PP23707  14.870  14.876   0.063 -0.0253  0.3775  0.0822
13604PP      PP23708   1.017  11.570   4.597  0.1403 -0.0784  0.2138
13605PP      PP23709   1.626   3.648  11.269 -0.1267  0.2608 -0.4502
13606PP      PP23710   8.784   9.415  12.532  0.1378  0.0844  0.0966
13607PP      PP23711  11.391  10.532   5.663 -0.3004  0.0650 -0.0980
13608PP      PP23712   9.082   5.451   8.661  0.0316 -0.0058 -0.0898
13609PP      PP23713  11.969   3.306   3.099 -0.2494 -0.0179 -0.3334
13610PP      PP23714  10.041  10.720   4.581  0.4325 -0.1095 -0.1460
13611PP      PP23715   0.319  10.521   0.346  0.0586 -0.0876  0.0130
13612PP      PP23716   4.495  12.475  10.358  0.1980 -0.0046 -0.1279
13613PP      PP23717  15.511   0.939  12.595  0.0898  0.0369 -0.1631
13614PP      PP23718   1.068   1.899   4.154  0.2642  0.1005  0.5113
13615PP      PP23719   2.052   3.834   1.494 -0.0556 -0.0257  0.0082
13616PP      PP23720   0.400  13.659  13.050  0.2689  0.4633  0.2543
13617PP      PP23721   1.422  10.194  12.818 -0.1042 -0.0762 -0.0660
13618PP      PP23722  14.370   1.164   0.696 -0.0919  0.1289 -0.0762
13619PP      PP23723  10.040   4.886  13.456 -0.1054  0.1827  0.0387
13620PP      PP23724   6.177  10.050   3.919  0.4955 -0.4432  0.2038
13621PP      PP23725   5.920   1.815   0.915 -0.1191 -0.0737 -0.0364
13622PP      PP23726  12.278   0.546  12.421 -0.0105 -0.3057 -0.2223
13623PP      PP23727   3.816   7.375   8.352 -0.3811 -0.1552  0.0697
13624PP      PP23728   3.846   9.807  10.682 -0.1962 -0.0204  0.0135
13625PP      PP23729   1.790  15.248  12.830 -0.0407  0.2560 -0.0368
13626PP      PP23730   4.897   6.315   0.995  0.1472  0.2201  0.1563
13627PP      PP23731  10.493   1.990  13.256  0.2623  0.1113  0.1322
13628PP      PP23732   4.084   4.597   2.185 -0.0858 -0.0887  0.1631
13629PP      PP23733  10.741   5.959   4.021 -0.0861  0.0721 -0.0768
13630PP      PP23734  14.802   6.963   1.604  0.2602 -0.0289  0.1749
13631PP      PP23735   5.136   0.486   0.704  0.4420  0.3042 -0.1799
13632PP      PP23736  14.619   7.966  13.020  0.3476  0.0249  0.0533
13633PP      PP23737  14.135  11.868   0.266 -0.0373  0.0255  0.0759
13634PP      PP23738   6.000  11.483   9.856  0.2053  0.1031  0.1850
13635PP      PP23739  14.518   5.123  13.043  0.3409 -0.0028  0.0911
13636PP      PP23740   0.749   4.338   2.623 -0.2212  0.0658  0.0889
13637PP      PP23741   7.326   6.027   9.615 -0.1693 -0.0922 -0.0334
13638PP      PP23742  13.145   7.593   2.557 -0.3086 -0.2043 -0.3063
13639PP      PP23743   5.459  11.638   9.200 -0.2464 -0.1573 -0.0647
13640PP      PP23744  12.020   5.770   2.316 -0.1808 -0.0105 -0.1752
13641PP      PP23745  10.100   3.260  10.423  0.0264  0.1685 -0.1266
13642PP      PP23746   1.580  10.283   1.098 -0.0174  0.2303  0.1554
13643PP      PP23747   6.774  11.069  10.436  0.3746 -0.1384 -0.1603
13644PP      PP23748   1.986  11.543   3.364  0.1239 -0.1518 -0.1914
13645PP      PP23749   5.140   8.932  10.519  0.0873  0.2788 -0.1033
13646PP      PP23750   1.328   1.712   3.053 -0.0659  0.0735  0.0662
13647PP      PP23751   4.955  14.577   1.164 -0.2445  0.1649  0.0078
13648PP      PP23752   6.625  15.157   1.874  0.2443  0.1661 -0.0172
13649PP      PP23753   2.881  15.250   9.486  0.0217  0.2224 -0.1363
13650PP      PP23754  14.387   0.537   1.983  0.3410  0.0030 -0.0391
13651PP      PP23755   8.717   6.293  12.346 -0.1553  0.0072 -0.3015
13652PP      PP23756   3.034   1.371  10.290 -0.0333 -0.0252 -0.0017
13653PP      PP23757   5.566   0.514   8.625 -0.1718  0.0476 -0.0026
13654PP      PP23758   9.628   1.547   9.702  0.1261  0.3301 -0.2734
13655PP      PP23759  14.173   5.337  11.827  0.0159  0.0294 -0.0769
13656PP      PP23760  12.927   7.148   2.540 -0.1639  0.0242 -0.1012
13657PP      PP23761  13.677   5.240   4.131 -0.1327  0.3478  0.0403
13658PP      PP23762   1.085   0.180  13.145 -0.2311  0.2818  0.3095
13659PP      PP23763   7.857  11.289   2.894  0.1543  0.0925 -0.1163
13660PP      PP23764   0.743   9.230   1.328 -0.0956  0.0209  0.2298
13661PP      PP23765  13.769   1.048  13.090  0.2704  0.0715 -0.0530
13662PP      PP23766  13.552   5.021  10.764  0.1760  0.0021  0.1334
13663PP      PP23767   8.368  14.383   1.556 -0.0644 -0.0378 -0.0051
13664PP      PP23768   8.223   7.305  12.910 -0.1036  0.0652 -0.1563
13665PP      PP23769   9.938   9.635  13.259  0.1867  0.0290  0.1466
13666PP      PP23770   9.483   4.545   9.612  0.0213  0.0402  0.1221
13667PP      PP23771   3.600  13.353   3.646  0.0413  0.1566  0.2522
13668PP      PP23772   3.849   2.576   9.063 -0.2990  0.0551 -0.0031
13669PP      PP23773   1.080   1.069   4.907 -0.0127  0.2860  0.1031
13670PP      PP23774   0.332   3.570  11.775  0.2534 -0.0811 -0.0633
13671PP      PP23775  14.873   4.884   1.007  0.0516  0.2617  0.3776
13672PP      PP23776  14.748   8.226  10.221  0.0186 -0.0292 -0.2463
13673PP      PP23777   2.643  14.153   1.072 -0.1411  0.1534  0.1983
13674PP      PP23778   5.332   9.667  12.478 -0.2042  0.2606  0.1031
13675PP      PP23779  13.805   8.063   0.770 -0.0976  0.3620 -0.2016
13676PP      PP23780   3.615   3.495   1.232 -0.1200  0.1571  0.2202
13677PP      PP23781   2.732   8.487  10.747  0.3560  0.0462 -0.0433
13678PP      PP23782  10.790  10.369  10.773  0.1863  0.1373  0.1549
13679PP      PP23783   2.253   9.245   3.043  0.0887  0.2511 -0.0060
13680PP      PP23784   1.045   3.720  12.511 -0.1367  0.0024 -0.0769
13681PP      PP23785  14.640   4.432   3.726  0.0989  0.2584 -0.0949
13682PP      PP23786   5.119   4.747  11.721 -0.2779  0.2704 -0.0914
13683PP      PP23787   1.043   4.853   9.574  0.3674 -0.2033  0.5471
13684PP      PP23788   1.346   9.893  11.017  0.0240 -0.0501  0.1229
13685PP      PP23789  15.149   7.322  13.728  0.3692  0.3818  0.0948
13686PP      PP23790  12.598   1.717  13.713 -0.3835  0.0852 -0.1505
13687PP      PP23791   0.024   3.504   3.905  0.1035 -0.1521  0.2292
13688PP      PP23792   5.915   2.182  13.629  0.1443 -0.1219  0.0865
13689PP      PP23793   2.068  11.055   2.107 -0.1965 -0.2057 -0.1754
13690PP      PP23794  15.606  15.520   0.686 -0.1278 -0.1805  0.2183
13691PP      PP23795   4.906   7.452   1.892 -0.1822  0.0830 -0.1237
13692PP      PP23796   8.743  11.450   2.530 -0.0554  0.1421 -0.0561
13693PP      PP23797   8.439   1.514   9.862 -0.0508  0.0211  0.1881
13694PP      PP23798  10.187   4.012   8.593 -0.2240 -0.2259  0.1649
13695PP      PP23799   7.033   2.211   7.400 -0.0367 -0.0056  0.2103
13696PP      PP23800   4.713  10.007   0.945  0.0026  0.0893  0.0015
13697PP      PP23801  14.550  10.144   1.684 -0.2695  0.0672 -0.1485
13698PP      PP23802   8.019   2.183   9.267 -0.1704 -0.1843  0.4384
13699PP      PP23803   6.563  13.182   4.874  0.1220  0.2769 -0.0026
13700PP      PP23804  13.909  13.123   5.155  0.1828 -0.0728  0.2437
13701PP      PP23805  14.073   6.495  13.486  0.1701  0.0983  0.2032
13702PP      PP23806  13.001  10.388  13.171  0.0511  0.1117 -0.1638
13703PP      PP23807   2.865   7.880   8.686 -0.0869 -0.0981  0.1314
13704PP      PP23808   9.639   7.073  13.655 -0.2134  0.0057 -0.0170
13705PP      PP23809  11.096   0.927  10.552  0.0317  0.3297  0.1891
13706PP      PP23810   7.799   2.188  10.242  0.0356 -0.1823  0.0613
13707PP      PP23811   0.032   6.353   1.642 -0.0933 -0.1747  0.2021
13708PP      PP23812  12.040   6.587   5.557 -0.1855  0.0408 -0.1224
13709PP      PP23813  15.388   8.267   0.703  0.0966  0.2389  0.2747
13710PP      PP23814   7.205  10.851   3.009 -0.2643 -0.0563  0.1579
13711PP      PP23815   5.818   7.951  12.073 -0.1184  0.2056 -0.0694
13712PP      PP23816   8.606  11.718  11.967 -0.1780  0.0833  0.1724
13713PP      PP23817  15.646   8.578  12.303 -0.0522  0.3155 -0.5690
13714PP      PP23818  14.125   7.797   1.674 -0.1770 -0.0846 -0.2353
13715PP      PP23819   7.669  12.767  12.496 -0.0494 -0.0184 -0.2230
13716PP      PP23820   4.791   6.356   2.199 -0.0660 -0.0572 -0.0785
13717PP      PP23821  12.482   2.559   0.254 -0.1144 -0.0147 -0.0823
13718PP      PP23822  11.735   5.215   1.164 -0.2456 -0.0099 -0.3278
13719PP      PP23823   5.112   2.070  10.278  0.1691  0.0944  0.1671
13720PP      PP23824   2.515   8.420  10.209  0.1345  0.2212  0.0327
13721PP      PP23825  13.303   0.072   2.914 -0.0928  0.0822  0.2397
13722PP      PP23826  12.527  13.346   4.865 -0.2116  0.0193 -0.2103
13723PP      PP23827  12.157  11.949  13.479  0.0815  0.0372  0.2308
13724PP      PP23828   4.977  11.840   9.986 -0.0791  0.1800  0.3543
13725PP      PP23829   8.235   3.505   3.380  0.0381 -0.0640 -0.0607
13726PP      PP23830   3.084   7.458  11.706 -0.1249  0.2175 -0.0097
13727PP      PP23831  13.995  10.582  12.236 -0.1383 -0.3107 -0.1114
13728PP      PP23832  13.713   6.078   2.694 -0.0202  0.0160 -0.0936
13729PP      PP23833   5.578   0.373   0.458  0.0018  0.1814  0.4471
13730PP      PP23834   5.763   1.066   8.540 -0.0616  0.0923  0.4015
13731PP      PP23835   7.486  12.611   9.757 -0.2654 -0.3090 -0.3540
13732PP      PP23836   5.405  15.672   0.226 -0.0504 -0.4620 -0.2197
13733PP      PP23837   6.118  15.554   9.633 -0.1385  0.1245  0.0412
13734PP      PP23838  11.316  12.895   3.610 -0.0325 -0.2609 -0.1151
13735PP      PP23839   6.728  11.546  12.314 -0.0543  0.1042 -0.3017
13736PP      PP23840  13.344  13.339  12.209  0.2546 -0.1124 -0.2350
13737PP      PP23841   9.247  13.446   0.310 -0.1689  0.1940 -0.4109
13738PP      PP23842   3.237  15.636  12.039 -0.1697 -0.1145 -0.1091
13739PP      PP23843   0.056  10.032   1.130  0.0804 -0.0530  0.0236
13740PP      PP23844  12.146  13.525  11.594  0.0562 -0.0714  0.1899
13741PP      PP23845  13.587   2.959   0.566 -0.2935  0.3319 -0.0249
13742PP      PP23846  15.716  13.760   2.549 -0.1348 -0.0559 -0.1007
13743PP      PP23847   9.926  15.603  12.333  0.0736 -0.3384  0.0846
13744PP      PP23848  14.048  13.511   3.428 -0.0829  0.2951  0.2006
13745PP      PP23849  15.217   5.371  11.267 -0.1732 -0.0707 -0.0800
13746PP      PP23850   8.300   4.900  11.643 -0.0273 -0.3099  0.1811
13747PP      PP23851  13.797  11.044   1.553 -0.0070  0.0656  0.0270
13748PP      PP23852   1.488  13.366   9.874 -0.3561 -0.0711  0.1797
13749PP      PP23853  11.799   5.083   0.667 -0.1637  0.1460 -0.0814
13750PP      PP23854   7.321   7.207   2.298 -0.0133  0.3400 -0.0673
13751PP      PP23855   1.418   1.438   1.286  0.0643 -0.1487  0.2664
13752PP      PP23856  14.049  11.086  11.962 -0.3260  0.0403 -0.0564
13753PP      PP23857  15.313  13.630  11.888  0.2343 -0.2001  0.4690
13754PP      PP23858   7.817   4.061  13.489 -0.1487  0.2102  0.3796
13755PP      PP23859  15.615  12.133  10.795  0.1005 -0.0531  0.1104
13756PP      PP23860  13.202   7.211   9.498  0.0152  0.1323 -0.1974
13757PP      PP23861   4.906   9.664  12.093 -0.0827  0.0768  0.1395
13758PP      PP23862   6.365   0.083   3.236  0.1742 -0.1227  0.1561
13759PP      PP23863   4.214   3.967  10.422  0.1870 -0.2015  0.0096
13760PP      PP23864   2.348   2.487  12.537 -0.0746  0.0010 -0.3089
13761PP      PP23865   0.944  12.418  10.455 -0.1982 -0.0342 -0.1926
13762PP      PP23866  13.000   8.972   4.241  0.0504 -0.0421 -0.0270
13763PP      PP23867  15.711   6.962   1.082  0.2284 -0.0518  0.0798
13764PP      PP23868  10.428  11.331  12.747 -0.2437 -0.3449  0.0489
13765PP      PP23869  12.724   2.184  12.483 -0.0879 -0.1695 -0.1052
13766PP      PP23870  13.701  15.144  10.728  0.1853 -0.2014 -0.0996
13767PP      PP23871   0.535  12.408  10.095  0.0628  0.1227  0.2127
13768PP      PP23872   1.739   3.361  12.849 -0.0794 -0.4619  0.0004
13769PP      PP23873  13.243   9.126   3.763 -0.0567  0.0451 -0.1557
13770PP      PP23874   4.190   7.272  10.137 -0.0610 -0.0520 -0.0383
13771PP      PP23875   4.016   9.970   1.068  0.1388  0.1331 -0.3214
13772PP      PP23876   9.887   6.380   2.134  0.0987 -0.1468  0.2243
13773PP      PP23877   5.029  12.922  11.870  0.0925 -0.2253 -0.0175
13774PP      PP23878   3.860   8.567   3.672  0.1364 -0.0074  0.2732
13775PP      PP23879   8.425   8.841   5.421  0.2071  0.0724 -0.0912
13776PP      PP23880   7.842   7.856   9.594 -0.1191  0.0673  0.0356
13777PP      PP23881   4.120   8.370  12.600 -0.0938 -0.0416 -0.0658
13778PP      PP23882   2.304   2.265   9.201 -0.2213 -0.0875 -0.0810
13779PP      PP23883   9.311  14.952   0.920 -0.0552  0.2805 -0.2134
13780PP      PP23884   6.705  13.368   9.656 -0.1156  0.1583  0.1070
13781PP      PP23885   2.294   3.365   9.887  0.2391  0.0254 -0.1152
13782PP      PP23886   8.003  10.783  12.664 -0.1002 -0.0265  0.5233
13783PP      PP23887   2.379   8.080   2.237 -0.4972 -0.1096  0.1105
13784PP      PP23888   9.682   5.609  13.338  0.0641 -0.0605  0.0205
13785PP      PP23889   3.858   5.335  10.503  0.1712 -0.0163  0.2422
13786PP      PP23890   6.296   9.438   1.130 -0.1210  0.1437  0.2940
13787PP      PP23891   9.507  12.463   0.220 -0.2335 -0.3014  0.3964
13788PP      PP23892  10.541  11.578   5.867 -0.2764 -0.0678  0.1295
13789PP      PP23893  10.181   6.498   3.880 -0.1932 -0.1574  0.1558
13790PP      PP23894  10.592  14.583   3.628  0.0402  0.0949  0.0473
13791PP      PP23895   4.136   9.144  11.955 -0.3023 -0.1125  0.0794
13792PP      PP23896   6.080   9.087   2.031 -0.1197 -0.1994  0.1416
13793PP      PP23897   7.894   3.913  10.702  0.0714  0.1479  0.0870
13794PP      PP23898   5.508   2.346  11.724  0.0324  0.0240 -0.2686
13795PP      PP23899   7.363   5.955   1.533 -0.0882 -0.1526  0.2279
13796PP      PP23900  14.114   4.794  11.817  0.3117  0.1969 -0.2394
13797PP      PP23901   8.816   1.919   8.101  0.0631  0.2154 -0.2961
13798PP      PP23902  14.583  15.631  10.618 -0.0149  0.1287  0.0499
13799PP      PP23903   4.556   1.858   3.105 -0.2072  0.1698 -0.2208
13800PP      PP23904   5.385  13.005  10.712 -0.1306  0.1673 -0.3624
13801PP      PP23905   4.894   7.957   2.682  0.1852  0.0755  0.0312
13802PP      PP23906   8.656  10.101  10.430 -0.0587 -0.2109  0.2302
13803PP      PP23907  10.618  13.640  11.560 -0.2011 -0.2317 -0.2491
13804PP      PP23908   5.773  13.816   1.014 -0.0576  0.2829  0.0734
13805PP      PP23909  12.729   4.123   2.200  0.1342 -0.1454  0.0135
13806PP      PP23910   5.814  13.445   8.941 -0.1356  0.0318 -0.3013
13807PP      PP23911   3.031   6.251  12.260 -0.0600  0.0260  0.0993
13808PP      PP23912   0.564  13.072  12.303 -0.1268  0.2499  0.0233
13809PP      PP23913  15.079  11.654   2.445 -0.2156  0.1377 -0.1161
13810PP      PP23914   7.144  13.574  12.055 -0.0221  0.0532  0.1029
13811PP      PP23915   6.624   0.842  13.026 -0.0121 -0.2018 -0.0934
13812PP      PP23916   3.151   9.008   4.735  0.0412  0.0852  0.3026
13813PP      PP23917  13.955   6.285  10.975 -0.0458  0.1383  0.0431
13814PP      PP23918  11.433   6.060  10.159 -0.0652  0.3068  0.2309
13815PP      PP23919   0.654   5.056  12.022 -0.0800  0.1391 -0.2388
13816PP      PP23920   8.980  14.855  11.369  0.2095  0.0072  0.0388
13817PP      PP23921   8.177   3.760   7.230 -0.3515  0.2375 -0.0581
13818PP      PP23922  15.075   3.441   9.008  0.0100 -0.3750  0.2167
13819PP      PP23923   2.122  12.418   2.310  0.2273  0.2586  0.1065
13820PP      PP23924   4.665  14.859  11.991 -0.3149 -0.4554  0.0450
13821PP      PP23925   6.157  11.685   2.354 -0.0834 -0.1099  0.1815
13822PP      PP23926  14.316   8.166   9.691  0.0038 -0.1499  0.0341
13823PP      PP23927  13.089   3.518   9.777  0.2983 -0.2190  0.0715
13824PP      PP23928   9.114  10.546   2.593  0.2745  0.0118  0.0211
13825PP      PP23929   0.996   8.854   1.089  0.2257 -0.1153 -0.0592
13826PP      PP23930   3.656  13.248  13.163 -0.2259  0.1528  0.0221
13827PP      PP23931  13.358  12.176   2.941  0.2903  0.0204 -0.2763
13828PP      PP23932  13.126   0.825  10.790  0.1661  0.1546 -0.0738
13829PP      PP23933   4.438   8.498   1.934 -0.0364 -0.0263 -0.0624
13830PP      PP23934  14.708   0.228  12.794  0.1110 -0.2620 -0.0994
13831PP      PP23935  15.466  15.245   9.488  0.0341 -0.2308  0.0769
13832PP      PP23936   8.408  14.450  12.717  0.2095  0.1051  0.4106
13833PP      PP23937  14.317   0.547   2.804 -0.0999  0.1415 -0.1558
13834PP      PP23938   4.626   7.358   9.377 -0.4321 -0.0230  0.1629
13835PP      PP23939   3.036   0.208   8.704 -0.0493  0.0111 -0.0714
13836PP      PP23940  14.608   8.187   2.845 -0.2940 -0.2898  0.1226
13837PP      PP23941  11.419  14.311  11.375 -0.3645  0.2624  0.0289
13838PP      PP23942   5.966   7.027   3.636 -0.2532 -0.1366  0.1168
13839PP      PP23943  14.474   5.654  11.564 -0.3364 -0.1356  0.2056
13840PP      PP23944   7.228   6.102   3.266 -0.0605  0.2922 -0.0422
13841PP      PP23945   8.362   1.369   9.362  0.0140 -0.0704  0.0499
13842PP      PP23946  14.189   9.321   3.290  0.0898 -0.1274  0.3227
13843PP      PP23947  13.080  11.986  10.801  0.0736 -0.1812 -0.3133
13844PP      PP23948   4.914   0.052  11.463 -0.0080  0.1515 -0.0415
13845PP      PP23949   5.007  10.421   0.944 -0.0407 -0.0246 -0.0512
13846PP      PP23950   6.873   2.703  11.479  0.3919 -0.0681  0.1698
13847PP      PP23951  13.137  11.197   4.092  0.0372  0.2349 -0.0018
13848PP      PP23952   8.761   5.962  10.247 -0.0163 -0.1538  0.1970
13849PP      PP23953   2.100  13.387   9.316 -0.0616 -0.0500  0.0179
13850PP      PP23954  10.211   6.260  11.490  0.3622 -0.2186 -0.2272
13851PP      PP23955  14.299   4.467   3.377 -0.1804  0.1102 -0.0621
13852PP      PP23956   6.631   7.403   2.462  0.1512 -0.3283  0.2778
13853PP      PP23957  12.711   3.639  11.052  0.1837 -0.0484  0.0538
13854PP      PP23958  13.408  10.778  13.115  0.1344 -0.0878  0.1942
13855PP      PP23959  11.450   3.572   1.730 -0.0229 -0.0866  0.1868
13856PP      PP23960   9.502   3.549   1.908 -0.3933  0.0842  0.1075
13857PP      PP23961   1.952   4.204   9.294  0.0547  0.1759  0.0360
13858PP      PP23962   3.291  10.728  10.777 -0.1596 -0.0011  0.0912
13859PP      PP23963   8.121  11.556   4.299 -0.2268 -0.1776  0.0601
13860PP      PP23964  14.252  11.704  13.526  0.0477  0.1404  0.2063
13861PP      PP23965   4.417   5.375   3.188  0.2032 -0.1455 -0.1249
13862PP      PP23966  12.918   5.698   5.151  0.3328 -0.3248  0.0307
13863PP      PP23967   2.116  14.996   2.927 -0.2139 -0.1710  0.4359
13864PP      PP23968   2.019   7.663  10.286 -0.0233  0.5189  0.0139
13865PP      PP23969   7.529   6.609  10.388 -0.0759 -0.1103  0.0766
13866PP      PP23970   3.650  12.127  10.946  0.1559  0.2545 -0.0812
13867PP      PP23971   4.977  11.380   9.882 -0.0477 -0.0032  0.3531
13868PP      PP23972  13.884   0.275   3.687 -0.0571 -0.2320  0.1886
13869PP      PP23973  11.993  11.897   1.662 -0.0060  0.1165  0.1300
13870PP      PP23974   0.803  11.850  13.363 -0.0068  0.3169  0.1529
13871PP      PP23975  12.045   4.415  11.565 -0.1029 -0.0257 -0.2012
13872PP      PP23976  11.467  15.187   1.931 -0.1144 -0.0973 -0.0287
13873PP      PP23977   2.714   0.979   0.036  0.0084 -0.0767  0.1643
13874PP      PP23978   3.211   7.226  12.247 -0.1790  0.2071 -0.4470
13875PP      PP23979   6.184  10.378  12.012 -0.3836  0.2300 -0.2135
13876PP      PP23980  12.227   3.501   2.663 -0.0684 -0.4393 -0.0905
13877PP      PP23981   5.018   8.802  12.283  0.0345 -0.0098 -0.0864
13878PP      PP23982   1.210   8.820  12.742  0.1874  0.2563  0.2785
13879PP      PP23983   2.773   8.646   9.859  0.0197  0.1195  0.0845
13880PP      PP23984   4.029   7.774  12.542 -0.0029 -0.0183  0.2712
13881PP      PP23985   9.422   9.904   3.253 -0.2313 -0.2332 -0.1494
13882PP      PP23986   2.593  12.914  13.687 -0.1238 -0.0502  0.3898
13883PP      PP23987   2.177  14.861   2.218  0.1106 -0.1165 -0.1642
13884PP      PP23988   5.410   1.315  10.598  0.1119  0.1147  0.1460
13885PP      PP23989   6.387   7.142  10.840  0.1284  0.2348  0.2499
13886PP      PP23990   8.073   6.343   2.780  0.1187 -0.1032 -0.1290
13887PP      PP23991   0.996   1.494  10.199  0.1054  0.0973  0.0691
13888PP      PP23992  13.479   9.656   0.115  0.0100  0.1179 -0.1067
13889PP      PP23993   0.837   2.889   8.375  0.2456  0.0274 -0.0884
13890PP      PP23994   2.195   4.545   3.920  0.1002  0.2140  0.2257
13891PP      PP23995  10.216  14.436  10.367 -0.0014  0.0003  0.0771
13892PP      PP23996  12.875   9.073   2.420  0.1181  0.1727 -0.0331
13893PP      PP23997   3.126   5.515   2.136  0.0463 -0.0636  0.1064
13894PP      PP23998  10.233  14.230   4.765  0.1520  0.1382 -0.0234
13895PP      PP23999   3.837   1.776   8.405 -0.0721 -0.4725 -0.2346
13896PP      PP24000   6.142  10.691   1.206 -0.0447 -0.1128  0.1766
13897PP      PP24001   5.638   8.998   9.635  0.1099 -0.1505 -0.1997
13898PP      PP24002  12.525   4.542  13.313  0.0533  0.1084 -0.1815
13899PP      PP24003  15.327   3.258  13.463  0.0053 -0.0681  0.3438
13900PP      PP24004  11.313   3.455   4.299 -0.0159 -0.0262  0.2685
13901PP      PP24005   5.839  11.425   4.322 -0.0693 -0.0410 -0.0124
13902PP      PP24006   8.124   8.857   1.813 -0.0264 -0.0507  0.0099
13903PP      PP24007  14.530   6.444   1.976  0.0757 -0.1464 -0.1483
13904PP      PP24008   1.798   8.917  12.375  0.2300 -0.3610 -0.0421
13905PP      PP24009   5.880   2.750   8.940  0.4288 -0.1700  0.2706
13906PP      PP24010   3.608   8.388  10.334 -0.4236 -0.3082  0.0247
13907PP      PP24011   8.130  13.603  11.031  0.2763  0.2849  0.2295
13908PP      PP24012  11.534   9.659  11.302 -0.3629 -0.1913 -0.1526
13909PP      PP24013  15.463   5.363  12.656  0.3329  0.0896  0.0558
13910PP      PP24014   2.081   6.444  12.838  0.0623 -0.0446  0.0842
13911PP      PP24015  13.390  13.329   2.025  0.0015  0.2966 -0.3689
13912PP      PP24016  13.055   6.109  12.291 -0.3559 -0.1413 -0.2551
13913PP      PP24017  10.027  12.660   0.293 -0.1126  0.1612  0.2005
13914PP      PP24018   3.812  11.923   2.494 -0.1573  0.2780 -0.0701
13915PP      PP24019   3.527  14.581   9.137 -0.0917  0.0181 -0.1431
13916PP      PP24020  12.649  12.643   2.155 -0.1609 -0.3887  0.2157
13917PP      PP24021   3.901  14.257   8.918 -0.0168  0.0543 -0.0027
13918PP      PP24022   8.946  13.261  12.045  0.2246  0.0080 -0.2235
13919PP      PP24023  15.143  15.039  11.171 -0.2585 -0.0615 -0.0474
13920PP      PP24024  15.278  14.190   0.541  0.3498 -0.1187  0.2323
13921PP      PP24025   1.382   3.516   0.785  0.0903  0.0838  0.0815
13922PP      PP24026   0.392   7.309   0.558 -0.1063 -0.0517  0.2711
13923PP      PP24027   9.880  14.539  10.006  0.1411  0.0577 -0.2155
13924PP      PP24028   6.330   3.542   9.206  0.2670 -0.1040  0.0060
13925PP      PP24029  15.217  12.639   0.947  0.0243 -0.0169  0.1217
13926PP      PP24030   6.111  14.167   9.625 -0.0997 -0.0144  0.0002
13927PP      PP24031   5.029  14.836  12.480 -0.2342  0.6387  0.0341
13928PP      PP24032  11.569   0.137   9.932 -0.1268  0.1560  0.1646
13929PP      PP24033  13.620   4.809   4.887  0.2667 -0.2045  0.0254
13930PP      PP24034   1.643  13.208   3.845 -0.1395 -0.0938  0.1060
13931PP      PP24035   4.873   2.852   2.918  0.1351  0.4615  0.0414
13932PP      PP24036  12.293   3.850  12.793  0.1141 -0.1574 -0.1845
13933PP      PP24037   6.698  11.968  11.366 -0.0613  0.2789  0.1799
13934PP      PP24038   9.818   2.739   3.088  0.2377 -0.0622 -0.0122
13935PP      PP24039   2.485  10.321   3.769 -0.2574 -0.2335 -0.3493
13936PP      PP24040   4.018  12.012  12.741  0.0662  0.3568  0.2333
13937PP      PP24041  14.496   9.285   1.553 -0.3417 -0.0390  0.0355
13938PP      PP24042   4.098   1.835   3.463  0.0282 -0.1253 -0.1194
13939PP      PP24043   5.992   7.923   3.587 -0.1542 -0.3053  0.3974
13940PP      PP24044  14.823   6.467   0.988 -0.3082  0.2138 -0.1345
13941PP      PP24045   3.358  13.535  12.680 -0.0886  0.1368  0.2665
13942PP      PP24046   4.715   8.343   1.063 -0.0431  0.0195 -0.0162
13943PP      PP24047   7.695   6.670   9.359  0.0432 -0.0652 -0.1063
13944PP      PP24048  11.885  14.469  11.637  0.0498 -0.1247 -0.2294
13945PP      PP24049  14.499   6.355   9.831  0.0707  0.0715 -0.1282
13946PP      PP24050   6.522   4.778   1.104 -0.2152  0.0620  0.2643
13947PP      PP24051  12.190  11.112  11.526 -0.0822  0.0345 -0.1040
13948PP      PP24052  13.620   3.868   0.452  0.2475  0.1618  0.0490
13949PP      PP24053  12.023   8.122   3.865  0.2636  0.1406 -0.0245
13950PP      PP24054   0.990  11.500  11.291 -0.0016  0.4644 -0.0633
13951PP      PP24055  13.831   5.690   2.193 -0.1646  0.0213  0.1804
13952PP      PP24056   1.003   3.931   1.577 -0.0587  0.0838 -0.2546
13953PP      PP24057   0.615   4.385  11.823 -0.2879 -0.2441 -0.0283
13954PP      PP24058   1.132   6.654  11.804 -0.1944  0.2345 -0.0616
13955PP      PP24059   4.538  12.405  12.479 -0.0319  0.2051 -0.1114
13956PP      PP24060   6.766   6.584   9.688 -0.0998  0.0161 -0.0501
13957PP      PP24061   3.560  13.104  13.666 -0.1695  0.0329  0.0620
13958PP      PP24062  11.202  10.475   1.570 -0.1766  0.1784 -0.2544
13959PP      PP24063   7.331   7.982   3.917 -0.0769  0.0540  0.0910
13960PP      PP24064   1.373   5.875  10.308 -0.0078  0.1236 -0.0817
13961PP      PP24065   8.303   1.849  11.332 -0.3193 -0.3222 -0.4339
13962PP      PP24066   0.648   2.226   1.481  0.0627 -0.1185 -0.2071
13963PP      PP24067   3.668   7.585   1.062  0.1009 -0.2957 -0.1919
13964PP      PP24068  10.502   3.336   3.401 -0.2241  0.0138  0.2779
13965PP      PP24069   6.557   5.596  12.121  0.1961  0.2629 -0.0991
13966PP      PP24070  11.552   6.047   4.969 -0.1952 -0.1449 -0.1883
13967PP      PP24071  14.880   6.090   4.562  0.2990  0.1764  0.2995
13968PP      PP24072  11.695   9.361   3.709  0.1842 -0.4450  0.2576
13969PP      PP24073  13.225   7.874  10.147  0.0406  0.1567  0.2224
13970PP      PP24074   1.701   9.774  10.002 -0.1667  0.2298  0.0774
13971PP      PP24075  10.490   3.503  13.387 -0.3531 -0.2021  0.0391
13972PP      PP24076   4.060  11.986  12.203 -0.0033 -0.0164 -0.0245
13973PP      PP24077   5.815  11.375   9.409 -0.1279 -0.0706 -0.1237
13974PP      PP24078   8.167   0.488  10.683 -0.3292 -0.2153 -0.0244
13975PP      PP24079   1.339  14.194  11.556  0.0490 -0.0017  0.3459
13976PP      PP24080   9.212  12.785   4.145  0.0457  0.4164  0.0409
13977PP      PP24081   4.042  11.003  11.392  0.2814  0.0809  0.2270
13978PP      PP24082   8.494   9.214  13.036  0.1039  0.0538 -0.1280
13979PP      PP24083   4.915   9.280  12.485  0.3041 -0.1337  0.1359
13980PP      PP24084  12.101  13.620  10.690 -0.3802 -0.3832 -0.0396
13981PP      PP24085  13.150   7.329   3.478  0.1029 -0.1315 -0.2607
13982PP      PP24086   8.887  13.554  11.478 -0.0105  0.0476 -0.1370
13983PP      PP24087  10.428   0.785   1.496  0.1284  0.1559 -0.0937
13984PP      PP24088   0.734   1.292  12.326  0.2374 -0.0997 -0.1444
13985PP      PP24089   4.251  14.016  11.188  0.3342 -0.0116 -0.3172
13986PP      PP24090   8.957   0.077  11.781  0.0804  0.0084  0.4003
13987PP      PP24091  11.242   6.751   1.318 -0.0167  0.0818 -0.0546
13988PP      PP24092   3.206  11.551  12.969  0.3369 -0.0902  0.2856
13989PP      PP24093   1.362  10.770   9.021 -0.2072 -0.0596 -0.0145
13990PP      PP24094   9.900   3.707  10.371  0.1419 -0.1256  0.1793
13991PP      PP24095   4.910  12.382   9.977 -0.0232  0.2295 -0.3252
13992PP      PP24096  10.266  14.791  10.733  0.1389 -0.0458  0.1953
13993PP      PP24097   1.759  14.196   9.554  0.0335 -0.1224 -0.3801
13994PP      PP24098  15.285  14.556   0.966 -0.3015 -0.1288 -0.0292
13995PP      PP24099   9.959  13.964   0.373  0.0931 -0.0148 -0.1290
13996PP      PP24100  11.224   4.081   9.150 -0.1600 -0.0461 -0.0114
13997PP      PP24101   0.736   2.771   1.573  0.0330 -0.2051  0.2486
13998PP      PP24102   3.336   0.972  13.705  0.0988  0.2870  0.0448
13999PP      PP24103   3.636   4.877  13.700 -0.1375  0.2723 -0.0312
14000PP      PP24104  14.038   9.466   1.486  0.1936  0.2346  0.1666
14001PP      PP24105   8.836   4.987   9.458  0.2814 -0.2429 -0.2751
14002PP      PP24106  11.746   2.509   2.538 -0.0899 -0.2351  0.2636
14003PP      PP24107   4.987   4.644   3.522  0.0846  0.2088  0.0497
14004PP      PP24108  11.019   0.422  10.706  0.0583 -0.1321  0.2294
14005PP      PP24109  15.348   6.398  10.765 -0.2236  0.0663  0.0368
14006PP      PP24110   0.666   3.417   0.621  0.0674 -0.1032  0.1468
14007PP      PP24111   3.834   6.741  13.499  0.2359 -0.1316 -0.0628
14008PP      PP24112   4.251   0.848   7.982  0.2774 -0.0542  0.1148
14009PP      PP24113   4.105   5.072   2.809  0.2124 -0.3735  0.1265
14010PP      PP24114   7.730  14.759   0.368  0.1896  0.1339 -0.2552
14011PP      PP24115   9.944   9.351  11.854  0.0547 -0.1535  0.2721
14012PP      PP24116  12.156   9.766   2.941  0.0588 -0.1249  0.2328
14013PP      PP24117   6.830  11.664  10.484 -0.1065 -0.1682 -0.1339
14014PP      PP24118   2.686   1.765  13.462  0.2347 -0.1145  0.2059
14015PP      PP24119  14.409   9.623  10.646  0.3506 -0.1097  0.0865
14016PP      PP24120   6.408  13.664  12.524 -0.0043 -0.2776  0.0349
14017PP      PP24121   2.692   3.744   3.297 -0.3530 -0.0166  0.0988
14018PP      PP24122   6.314  14.692   3.251  0.4612 -0.2618 -0.0791
14019PP      PP24123  14.442  11.526  12.967  0.0105 -0.0209 -0.0319
14020PP      PP24124   8.967   7.842  10.183 -0.0408  0.2548 -0.1437
14021PP      PP24125   9.934   1.685  10.372 -0.0521  0.0764  0.0519
14022PP      PP24126   8.599  11.802   8.968  0.0134  0.1636 -0.0956
14023PP      PP24127  12.605   3.154  11.127 -0.0021 -0.1256 -0.0265
14024PP      PP24128  11.487  10.650   4.672 -0.1453 -0.0772  0.2223
14025PP      PP24129   8.049   9.840  11.852 -0.0140 -0.0976 -0.0730
14026PP      PP24130   4.515  10.038   9.725  0.2171  0.3207  0.0996
14027PP      PP24131   6.489  12.353   3.966 -0.0152 -0.1758  0.2775
14028PP      PP24132   0.508   5.370   2.027  0.2666 -0.0308 -0.2372
14029PP      PP24133  10.302  12.392  10.447 -0.0492 -0.1551 -0.5435
14030PP      PP24134   4.605   4.095  13.169 -0.2564  0.0836 -0.0791
14031PP      PP24135   5.800  10.312  11.566 -0.1286 -0.0223 -0.2248
14032PP      PP24136   9.667  14.573  13.152  0.0395 -0.2479  0.3863
14033PP      PP24137  14.162   7.144  10.772  0.2850  0.1938  0.1706
14034PP      PP24138   5.216   9.271   1.981  0.0050 -0.0797  0.0025
14035PP      PP24139  10.305   1.521  11.834  0.2036  0.1073 -0.1182
14036PP      PP24140   8.807  13.818   9.740  0.1631 -0.1664 -0.0169
14037PP      PP24141   5.130   0.530   1.233 -0.1274  0.1976 -0.2429
14038PP      PP24142   3.958  10.362   2.982 -0.0135  0.1352 -0.3465
14039PP      PP24143  10.243   1.093   0.792 -0.0080  0.3466 -0.0144
14040PP      PP24144   4.878  11.692   1.349  0.0438 -0.1669 -0.1973
14041PP      PP24145  10.425  12.683   9.900 -0.1344  0.0914 -0.2781
14042PP      PP24146   3.876   4.770  13.309  0.0463  0.0334 -0.2878
14043PP      PP24147   9.309   5.987   4.507 -0.0573 -0.3496  0.1805
14044PP      PP24148  10.793   1.141   1.554  0.0873 -0.1249 -0.0628
14045PP      PP24149   6.950  14.309  11.950  0.2847  0.0941  0.1176
14046PP      PP24150   7.436   5.880  13.567  0.1544 -0.1678  0.0791
14047PP      PP24151   0.681   9.474   2.110 -0.1640  0.0477  0.0394
14048PP      PP24152   6.247  11.164  10.116  0.0001  0.3589  0.1698
14049PP      PP24153   7.383   4.655   2.104  0.1109 -0.0287  0.0271
14050PP      PP24154   9.349   8.880  11.268 -0.0278  0.1942  0.1573
14051PP      PP24155   7.250   2.850   1.951  0.0771 -0.0526 -0.0954
14052PP      PP24156   8.663  12.680   0.373  0.3344  0.1053 -0.0493
14053PP      PP24157   6.200   4.644   8.915  0.1527  0.0742  0.5085
14054PP      PP24158   5.435   1.538   1.697 -0.0855 -0.0331  0.1688
14055PP      PP24159   6.595   0.307   2.384  0.0606  0.1333 -0.3316
14056PP      PP24160   8.396   7.002  11.744  0.2366  0.0916 -0.0481
14057PP      PP24161   2.385   1.833   8.986 -0.3125 -0.2269 -0.1905
14058PP      PP24162   8.149   0.782  10.301  0.0538  0.2731  0.2640
14059PP      PP24163   7.200   9.257   9.418  0.2525 -0.0684 -0.2160
14060PP      PP24164   6.851   6.928  11.495  0.0121 -0.3113  0.1875
14061PP      PP24165   0.790  15.211   3.328  0.0428  0.1770  0.1363
14062PP      PP24166  13.335  14.842   9.350 -0.0827  0.0433 -0.2007
14063PP      PP24167   6.160   5.847   0.582 -0.0399  0.4224 -0.1479
14064PP      PP24168   8.810   8.786   5.054 -0.0909  0.1677  0.0033
14065PP      PP24169  11.966  11.979   3.140  0.0164 -0.2410  0.2688
14066PP      PP24170   7.776  13.790  12.201 -0.2633  0.1005  0.0591
14067PP      PP24171   3.468  13.747  12.189 -0.1508 -0.0321 -0.0678
14068PP      PP24172   3.542  11.287   4.435 -0.0941 -0.1615 -0.1979
14069PP      PP24173   8.906  13.546   1.002  0.0583 -0.0422  0.2272
14070PP      PP24174   0.320  13.204   8.818 -0.0351 -0.2529  0.0381
14071PP      PP24175   0.437  10.379   3.497  0.3342  0.1832  0.1786
14072PP      PP24176   7.498  14.508  13.156 -0.1663  0.1283  0.4680
14073PP      PP24177   2.525   8.598   3.982  0.0316  0.0793 -0.2715
14074PP      PP24178   3.290   5.865   8.895  0.0078 -0.2782  0.1416
14075PP      PP24179   7.926   8.506   1.491  0.2153  0.0872  0.1137
14076PP      PP24180   1.849   4.886   3.199 -0.1270  0.3218 -0.1665
14077PP      PP24181  15.173  10.443  12.417  0.1257 -0.0318 -0.0693
14078PP      PP24182   3.128   0.696   0.301  0.2537  0.1474  0.0712
14079PP      PP24183   4.995   1.556   2.983 -0.1014 -0.2420  0.0262
14080PP      PP24184   6.228   8.208  12.144 -0.3256  0.0125 -0.1490
14081PP      PP24185  14.543   7.838  11.434  0.0187 -0.2466 -0.1983
14082PP      PP24186   7.577   0.087   8.597 -0.1196  0.4444  0.3619
14083PP      PP24187   0.913   9.963  12.007 -0.0646  0.2618  0.2003
14084PP      PP24188   0.857   8.839   3.253 -0.0758  0.0738 -0.0520
14085PP      PP24189   2.087   6.249  10.871  0.1075 -0.0158  0.2388
14086PP      PP24190   4.062   5.276  12.079  0.1329  0.0239  0.1107
14087PP      PP24191   9.464   2.535   8.558 -0.2283 -0.0560 -0.1012
14088PP      PP24192  11.976  14.992   2.110  0.1631 -0.3277  0.4838
14089PP      PP24193  14.064   8.040  11.318 -0.3722  0.0077 -0.0077
14090PP      PP24194   8.738  13.037  11.581  0.0166 -0.1246 -0.1240
14091PP      PP24195  15.429   4.205  13.350  0.1860  0.1390  0.3421
14092PP      PP24196  10.403   3.754  11.595 -0.1674  0.2643  0.1118
14093PP      PP24197  10.640   1.219   4.091  0.1848  0.0800 -0.0264
14094PP      PP24198   3.006   1.883  10.097 -0.0864  0.2818 -0.0411
14095PP      PP24199   8.833   0.447  12.289  0.1996  0.4302 -0.1284
14096PP      PP24200   4.704  11.052  10.147 -0.3490 -0.2077  0.0618
14097PP      PP24201   3.109   0.285  11.819  0.0195  0.0682 -0.1496
14098PP      PP24202   3.738   5.015   1.558  0.2405  0.1622  0.0825
14099PP      PP24203  10.567  10.975   1.792 -0.0491  0.0179  0.1963
14100PP      PP24204   8.271   9.186   4.242  0.1061 -0.1797  0.1004
14101PP      PP24205  13.915   2.740   2.065  0.1347  0.0493  0.2326
14102PP      PP24206   0.313   5.667   1.206  0.0876 -0.1017  0.3128
14103PP      PP24207  10.244   9.011  12.044  0.1597  0.3793 -0.1887
14104PP      PP24208   1.789  13.573   0.922  0.1342 -0.1835  0.2343
14105PP      PP24209   6.016   5.798  12.116  0.1240 -0.2726 -0.0935
14106PP      PP24210  10.071   9.337   2.220  0.0127 -0.1510  0.1574
14107PP      PP24211  15.367   6.775   0.734 -0.1930 -0.0180  0.1134
14108PP      PP24212  14.847  11.085   3.159 -0.1308 -0.3083  0.1223
14109PP      PP24213  10.227   2.450   3.583  0.0052 -0.1298  0.0960
14110PP      PP24214   4.835   1.759   0.880  0.1836  0.1242 -0.1137
14111PP      PP24215   7.392  10.707   9.133 -0.3087  0.2257  0.0868
14112PP      PP24216   0.119   2.824  12.309 -0.1208 -0.0234 -0.1042
14113PP      PP24217   8.674  11.913  12.395 -0.1712  0.0260  0.2588
14114PP      PP24218   5.514   7.416   0.214  0.2654  0.1553 -0.1885
14115PP      PP24219   5.132   3.988   3.136  0.1209  0.0116  0.0947
14116PP      PP24220   5.041   1.844  10.773  0.2527  0.1776  0.2427
14117PP      PP24221   8.872  10.509  10.261  0.3824 -0.0347 -0.3602
14118PP      PP24222   2.173   8.681  11.437  0.1264 -0.0058  0.0120
14119PP      PP24223  13.261  13.601  11.119  0.1483 -0.0884 -0.0672
14120PP      PP24224  12.809   8.309   0.174  0.0326  0.0846 -0.2599
14121PP      PP24225  13.938   6.360   4.727  0.1449  0.1755  0.2477
14122PP      PP24226   2.494  12.516   2.753 -0.2420 -0.3575  0.3077
14123PP      PP24227  14.949  15.499  11.007  0.1181 -0.0083 -0.2359
14124PP      PP24228  12.388  11.603   1.893  0.1021 -0.1428 -0.3324
14125PP      PP24229   1.073   6.368   2.435  0.0563 -0.1144  0.1434
14126PP      PP24230  14.248   5.753   1.294 -0.0266  0.1407 -0.1930
14127PP      PP24231  13.415  13.443   9.030 -0.1506  0.0154 -0.0149
14128PP      PP24232  13.567   5.243   3.203  0.1458  0.0491  0.1184
14129PP      PP24233   0.207   7.478   2.277 -0.0139  0.1839  0.0169
14130PP      PP24234  12.827  11.248   1.920 -0.0603  0.2056 -0.3323
14131PP      PP24235   0.581   8.964   1.709  0.0913 -0.1793  0.3123
14132PP      PP24236   2.024  10.297   9.629 -0.0969  0.0869 -0.2875
14133PP      PP24237   8.039   2.690   2.952 -0.1142 -0.0003 -0.0532
14134PP      PP24238   8.612   9.493   4.646  0.0564 -0.0080  0.4069
14135PP      PP24239  13.313  13.237  12.949 -0.0786 -0.3761 -0.2787
14136PP      PP24240  13.482   0.586   8.858 -0.0550  0.0067  0.0166
14137PP      PP24241   8.955   8.473   1.340  0.0470  0.0819  0.1136
14138PP      PP24242  10.872  13.381   3.036 -0.1034 -0.1264  0.2917
14139PP      PP24243   6.376  15.370   9.239 -0.2867 -0.0468  0.2915
14140PP      PP24244   5.775   8.413  13.490  0.0605  0.1936 -0.4742
14141PP      PP24245   1.227   3.230  12.513 -0.0106 -0.1245  0.3181
14142PP      PP24246   2.902   9.440  12.299  0.1879  0.0706 -0.1131
14143PP      PP24247  11.234   5.364   2.586 -0.0846  0.0808 -0.2742
14144PP      PP24248   4.910  15.139   1.326  0.3329 -0.1841  0.0570
14145PP      PP24249   3.695   2.679  12.258  0.2290 -0.1692 -0.2196
14146PP      PP24250  10.051   3.210   4.677  0.0193 -0.1158 -0.1842
14147PP      PP24251   1.978   7.612  11.358  0.0307 -0.0063  0.0439
14148PP      PP24252  10.517   9.347   4.271 -0.0967 -0.0134 -0.1692
14149PP      PP24253  11.115   4.183  13.125 -0.0894 -0.1490 -0.0817
14150PP      PP24254   4.291   4.370   8.264 -0.0937  0.0192  0.0044
14151PP      PP24255   9.578   1.411  10.209  0.0298 -0.4041  0.1631
14152PP      PP24256   4.330   1.847  10.739 -0.4141  0.0050 -0.1024
14153PP      PP24257   5.801  10.925   9.107  0.1661  0.1884  0.2294
14154PP      PP24258   3.238   8.614  10.071  0.1361  0.2177  0.1180
14155PP      PP24259  11.658   3.209   9.844  0.0016  0.1788 -0.0432
14156PP      PP24260   6.252  13.497  10.832 -0.0966  0.1201 -0.1120
14157PP      PP24261   4.917   0.548  12.263  0.0879 -0.0038 -0.1914
14158PP      PP24262  13.439  12.965  13.763  0.1528  0.2243 -0.1296
14159PP      PP24263  12.169   7.951  11.667  0.0326  0.2951  0.0184
14160PP      PP24264   1.528   1.527  10.197 -0.1047  0.0171  0.2127
14161PP      PP24265   3.973   8.462  13.022 -0.1696 -0.2732  0.2061
14162PP      PP24266  15.095   5.789  11.496 -0.1793  0.4588  0.2436
14163PP      PP24267   8.996  15.632  10.682 -0.3081 -0.1948  0.1008
14164PP      PP24268   2.811   5.849   1.283 -0.1421  0.1759  0.0098
14165PP      PP24269  10.230  12.385  11.707 -0.0678 -0.0606 -0.1125
14166PP      PP24270   0.407   8.867   0.000 -0.0217  0.0898 -0.1200
14167PP      PP24271   1.033   5.783  11.590 -0.1138 -0.0405  0.2326
14168PP      PP24272  10.013   6.123  10.324  0.3870 -0.1725  0.0747
14169PP      PP24273   0.806  14.474   4.729 -0.0009  0.0344 -0.1027
14170PP      PP24274   0.237   0.505   2.912 -0.0949  0.0166 -0.1687
14171PP      PP24275   8.210   3.225   0.890  0.1091 -0.0987  0.0134
14172PP      PP24276   9.216   5.368   0.145  0.2108  0.1325  0.1580
14173PP      PP24277   0.796   0.152   1.179 -0.1887 -0.0257  0.1647
14174PP      PP24278   1.411   1.356   4.622 -0.2014 -0.1360  0.1575
14175PP      PP24279   8.900   0.067  13.430 -0.0771  0.7071 -0.1663
14176PP      PP24280   1.744   9.072  12.941  0.3640  0.0704 -0.1701
14177PP      PP24281  14.419   4.011  11.434 -0.0659 -0.0157  0.1313
14178PP      PP24282  14.602   7.906  12.091 -0.0695  0.1432  0.2134
14179PP      PP24283   0.560   7.286  13.484  0.1401  0.0174 -0.0256
14180PP      PP24284   6.456  10.089  10.210  0.1209 -0.2285  0.4032
14181PP      PP24285   7.324   2.210  10.891 -0.1697  0.1707 -0.3940
14182PP      PP24286   8.203  15.452  13.001  0.0918 -0.1122 -0.2007
14183PP      PP24287   9.652  10.365   4.677 -0.1301 -0.2554  0.1773
14184PP      PP24288  10.006   5.405  10.937  0.0583  0.3253 -0.0514
14185PP      PP24289   0.997  14.653   0.815 -0.0014  0.0134 -0.0234
14186PP      PP24290   5.961   5.589   2.386  0.5016  0.0602 -0.0559
14187PP      PP24291   3.125  12.915  11.042  0.1836  0.0108 -0.1384
14188PP      PP24292   0.733   6.482  12.904 -0.1069 -0.0654  0.1245
14189PP      PP24293   4.414  13.032   2.152 -0.3003 -0.1056  0.2750
14190PP      PP24294   4.175   6.859  11.068 -0.4336  0.1096 -0.3321
14191PP      PP24295  13.163  12.818   2.132  0.1085  0.3361  0.1020
14192PP      PP24296   9.260  15.335   9.331 -0.5309 -0.1695  0.1965
14193PP      PP24297   1.555  10.570  13.096  0.1094  0.0027  0.1214
14194PP      PP24298   4.257   6.389   3.350 -0.1689 -0.2700  0.1637
14195PP      PP24299   9.972   3.978   1.324  0.0078 -0.0802 -0.2114
14196PP      PP24300  14.933  11.383  13.123 -0.0503  0.2758  0.2884
14197PP      PP24301   9.434   6.503  13.240 -0.2266  0.0339  0.0469
14198PP      PP24302  11.448  11.591   2.866 -0.1381 -0.1629  0.0301
14199PP      PP24303   9.307   9.559  12.450  0.1098  0.0647 -0.0471
14200PP      PP24304   3.784  12.526   1.994 -0.3071  0.1620  0.0631
14201PP      PP24305   6.967  11.665  13.133  0.1091 -0.1676  0.0493
14202PP      PP24306   7.638   6.887   0.685 -0.5670 -0.1331 -0.1261
14203PP      PP24307  14.638   8.712  12.377  0.0298  0.1242  0.2006
14204PP      PP24308  13.460  12.293  13.348  0.2098  0.0723  0.1641
14205PP      PP24309  14.605  14.914   9.870 -0.0146  0.1704  0.1358
14206PP      PP24310  11.617  10.791  10.825  0.4211 -0.0503 -0.2371
14207PP      PP24311   2.438   1.288   9.586 -0.1095  0.1073 -0.0575
14208PP      PP24312  12.444   0.562   4.702 -0.0203 -0.3383  0.0936
14209PP      PP24313   6.327   6.626  13.032 -0.3439  0.3205  0.0185
14210PP      PP24314  10.032   8.087   3.249 -0.0202  0.1425 -0.0359
14211PP      PP24315   6.596   9.690   0.764  0.1070 -0.1428  0.1089
14212PP      PP24316   3.402   8.767   4.333 -0.1282 -0.0427  0.0834
14213PP      PP24317  13.498   7.654   0.419 -0.0343  0.0036  0.0363
14214PP      PP24318  12.904   7.404  10.296 -0.0712  0.0065 -0.1454
14215PP      PP24319   7.130   1.345   1.984  0.0972 -0.1197  0.1110
14216PP      PP24320  11.976   6.871   2.978  0.0230  0.0508 -0.3336
14217PP      PP24321  13.915   2.456   0.702 -0.1144 -0.1604  0.0045
14218PP      PP24322   9.173   3.473   2.520 -0.1803  0.0643  0.3015
14219PP      PP24323   8.898  14.688  10.872  0.1325 -0.0682  0.2717
14220PP      PP24324   4.572   6.744  10.751  0.1156 -0.1507 -0.1889
14221PP      PP24325   8.524  11.080   4.305 -0.0498 -0.0295 -0.0447
14222PP      PP24326   8.306   3.356   1.373  0.0081 -0.0741  0.2727
14223PP      PP24327   6.188   9.211   4.655  0.3764 -0.1006  0.1334
14224PP      PP24328   5.956  12.370  12.227  0.2441 -0.1253  0.0888
14225PP      PP24329   1.492   7.003  11.224  0.1770  0.2678  0.1705
14226PP      PP24330   5.730   5.843  12.689  0.0406  0.1925  0.3517
14227PP      PP24331   2.207  11.508  10.896  0.0250  0.2662 -0.1113
14228PP      PP24332   2.649   4.673  12.397 -0.1756  0.1078  0.1538
14229PP      PP24333  15.508   1.955  13.573 -0.0910 -0.5239  0.0932
14230PP      PP24334  14.365   2.400   0.260  0.0569 -0.1710 -0.0527
14231PP      PP24335   1.466   2.179   9.879  0.0258  0.0411  0.0643
14232PP      PP24336   7.489   1.261  12.229  0.1800  0.1925  0.1131
14233PP      PP24337   4.111  14.288  10.442  0.0356  0.3753  0.0226
14234PP      PP24338   9.708  11.000  10.724 -0.1076 -0.2136 -0.0772
14235PP      PP24339  11.698   5.673   1.325  0.0920  0.3788  0.0906
14236PP      PP24340   2.146   0.946   4.253 -0.0577  0.0051  0.0638
14237PP      PP24341   2.625  11.110   0.783 -0.1082 -0.0054 -0.1369
14238PP      PP24342  13.929  12.811   0.328  0.0150 -0.0027 -0.3292
14239PP      PP24343  14.349   3.539   0.062  0.1105 -0.0581 -0.3795
14240PP      PP24344   1.536  10.360   9.773  0.0847  0.0466  0.0073
14241PP      PP24345   9.344   2.296   1.290  0.2333 -0.0665 -0.1142
14242PP      PP24346  11.897   9.776   1.937 -0.2650 -0.0825  0.0231
14243PP      PP24347   4.188  13.766  11.636  0.0102 -0.1404  0.0854
14244PP      PP24348   7.316  10.305  10.364  0.0030 -0.0843  0.2891
14245PP      PP24349  14.159   1.215   9.026  0.0219 -0.2232  0.1072
14246PP      PP24350   0.969   3.560   9.579  0.1795 -0.0754  0.1208
14247PP      PP24351   2.457  15.559   4.464 -0.0546 -0.2621  0.0355
14248PP      PP24352  13.177   6.365   2.217  0.3924  0.0797 -0.1088
14249PP      PP24353   1.994   8.990   1.155 -0.2588 -0.0398 -0.1670
14250PP      PP24354   8.454   6.911   1.702  0.2949  0.2083  0.1324
14251PP      PP24355   4.195   8.265   8.048 -0.2747 -0.2373 -0.0330
14252PP      PP24356   4.691   3.796  11.740 -0.3262  0.1480 -0.1449
14253PP      PP24357  12.864   1.941  11.963  0.1448 -0.1574  0.1916
14254PP      PP24358   7.187   5.721   8.082 -0.1333  0.3331  0.0403
14255PP      PP24359   1.673  14.247   8.927 -0.0521  0.2286  0.2140
14256PP      PP24360   5.064   1.722   9.329  0.2473  0.0133 -0.0135
14257PP      PP24361   1.136  12.919   3.149 -0.1058  0.0260  0.1634
14258PP      PP24362  11.509   8.244   2.218  0.3162  0.1184  0.2884
14259PP      PP24363   7.866   7.200   2.430  0.1368  0.0907 -0.2358
14260PP      PP24364  14.002  13.581  13.446  0.0412  0.0026  0.0389
14261PP      PP24365  12.760   8.245  12.918  0.1824 -0.0158 -0.0164
14262PP      PP24366   7.036   6.796   0.463  0.1058 -0.0486  0.0626
14263PP      PP24367   2.100  11.428  11.478  0.2011  0.0328  0.2626
14264PP      PP24368   0.265   3.724   0.175 -0.1206 -0.1728 -0.0167
14265PP      PP24369   8.040   6.278  13.650 -0.0422 -0.1146  0.0396
14266PP      PP24370   5.108  12.438   1.899  0.2480 -0.2732 -0.1471
14267PP      PP24371   2.193  14.463   3.238 -0.1042  0.0889 -0.0939
14268PP      PP24372  14.567   7.594   3.568  0.0119  0.1534 -0.0886
14269PP      PP24373   1.270  11.954  13.093  0.1791  0.3088 -0.0057
14270PP      PP24374  11.652   4.602   9.978  0.0725 -0.3756 -0.1828
14271PP      PP24375  12.081   6.157  13.102  0.0287  0.0111 -0.1435
14272PP      PP24376  15.470   3.454  13.027  0.2207  0.1183 -0.1601
14273PP      PP24377   6.843   6.601   2.603  0.0423 -0.3373 -0.1893
14274PP      PP24378   8.279  11.075   0.290 -0.1244  0.0081 -0.0661
14275PP      PP24379   4.712   9.218  12.029 -0.1083  0.2399 -0.0588
14276PP      PP24380   3.241   2.543  13.130 -0.1498 -0.2413  0.2375
14277PP      PP24381   2.657   6.950   1.417 -0.1429  0.0373  0.2958
14278PP      PP24382   2.246   1.585  10.778  0.3509  0.2546 -0.0621
14279PP      PP24383  12.370   3.666  11.407  0.0802 -0.0655 -0.3820
14280PP      PP24384   9.272  15.406   3.614 -0.1471 -0.0282  0.0420
14281PP      PP24385  14.245   0.317   9.375  0.1664 -0.1629 -0.3690
14282PP      PP24386  11.965   6.631  11.254  0.0253  0.0999 -0.1608
14283PP      PP24387  11.311  13.821   4.548  0.4183  0.0763 -0.0867
14284PP      PP24388   6.608  12.748   4.474 -0.3785 -0.2565 -0.1706
14285PP      PP24389   4.221  12.148   8.990 -0.0963 -0.0830  0.0159
14286PP      PP24390  11.423   5.119   3.186 -0.0435  0.3144  0.2415
14287PP      PP24391   0.765   1.954  13.497  0.0413  0.0516 -0.2404
14288PP      PP24392   0.553   0.580   4.389  0.0555 -0.0689  0.3045
14289PP      PP24393   0.548  14.320  11.700 -0.0940 -0.0800 -0.2098
14290PP      PP24394  12.336  15.579  11.202 -0.0317 -0.0402  0.0621
14291PP      PP24395  10.913   4.700   1.993 -0.1350 -0.2415  0.1619
14292PP      PP24396  11.674  11.485   3.464  0.1290 -0.0110 -0.4072
14293PP      PP24397   1.315   4.752  13.155  0.1053  0.0490  0.0463
14294PP      PP24398   8.383  13.512  12.938 -0.1452 -0.0886  0.3194
14295PP      PP24399  12.543   0.395  13.535 -0.0429  0.2626 -0.0015
14296PP      PP24400   5.354   2.311   8.483 -0.1356 -0.1745  0.2316
14297PP      PP24401   6.283  12.055  11.941  0.1547  0.0634  0.0697
14298PP      PP24402  13.710  14.169   4.820 -0.3131 -0.0897  0.3423
14299PP      PP24403   1.455   8.209   2.180  0.0573  0.1759 -0.0595
14300PP      PP24404  11.174  11.518  11.332 -0.2512 -0.0419  0.1503
14301PP      PP24405   7.106   5.371  12.658  0.0151  0.1542 -0.1843
14302PP      PP24406   3.672   0.885   8.764 -0.1929  0.1691 -0.2368
14303PP      PP24407  11.115   0.322  12.816 -0.0882 -0.1800  0.3231
14304PP      PP24408  14.522   6.261   2.429 -0.0687 -0.0816  0.1119
14305PP      PP24409  12.393   5.737  10.263 -0.1933  0.3631 -0.0347
14306PP      PP24410   3.289  11.417  13.422  0.0363  0.1099  0.1154
14307PP      PP24411   5.841  12.171   0.710 -0.1561 -0.0671 -0.0667
14308PP      PP24412   9.207  13.746   2.480 -0.3496  0.0896  0.2710
14309PP      PP24413  10.159  15.624   2.218 -0.2850 -0.1255 -0.0673
14310PP      PP24414   7.049   0.390   2.744  0.0992  0.1119 -0.1812
14311PP      PP24415  15.444   9.623   4.237  0.0545  0.0608  0.2089
14312PP      PP24416   8.261   5.843   0.834 -0.0095 -0.3223  0.1242
14313PP      PP24417  15.017  15.326   3.831 -0.1083  0.0607  0.1194
14314PP      PP24418  11.776  15.701  11.244 -0.3284 -0.3183 -0.0441
14315PP      PP24419   5.714   0.174  11.366  0.1242  0.0101 -0.2477
14316PP      PP24420   9.375  15.577  11.948 -0.0411  0.0336 -0.1277
14317PP      PP24421   3.997   3.389   8.662  0.1178  0.3329  0.0072
14318PP      PP24422   6.271   7.425  12.513  0.1622  0.0625  0.1049
14319PP      PP24423  10.727   1.617   2.387  0.2440 -0.0492 -0.1088
14320PP      PP24424   6.126  14.682   9.877 -0.2445  0.0991  0.0858
14321PP      PP24425   4.094   1.362   3.408 -0.0341 -0.0400 -0.0407
14322PP      PP24426   3.914   9.085   2.581  0.0781  0.3424 -0.2899
14323PP      PP24427   5.741  13.893  13.673 -0.1904 -0.0340  0.1333
14324PP      PP24428   8.673  14.132   0.388 -0.1382  0.1481  0.0555
14325PP      PP24429  12.629   7.703   4.875  0.0159  0.2090  0.0059
14326PP      PP24430   5.282   7.601   8.591 -0.0178  0.2424 -0.0761
14327PP      PP24431   8.832   6.820   9.752  0.0471  0.0678 -0.0450
14328PP      PP24432  13.091  14.581   3.977  0.3642 -0.2137  0.0540
14329PP      PP24433   7.191  10.644   9.605 -0.1114 -0.0215  0.0667
14330PP      PP24434   0.671   9.622   0.267 -0.2022 -0.2686 -0.1031
14331PP      PP24435   6.359   5.614   8.263 -0.1629  0.0850 -0.1645
14332PP      PP24436   4.397  15.562  10.791 -0.0484  0.0286 -0.2929
14333PP      PP24437   7.430   7.476   2.745 -0.2161 -0.2596  0.2326
14334PP      PP24438  11.822  10.265   0.190 -0.2243  0.2037 -0.0561
14335PP      PP24439   7.647  12.705  12.026 -0.0478  0.0627 -0.0096
14336PP      PP24440   4.503   3.212  12.471 -0.0535 -0.0779 -0.0198
14337PP      PP24441   5.086  14.893   9.165 -0.0175  0.0389  0.0921
14338PP      PP24442   6.211   5.175  13.002  0.2243  0.1340 -0.2100
14339PP      PP24443  12.238  14.954   4.078  0.4310  0.1369 -0.0495
14340PP      PP24444   8.058  10.047  13.580  0.2837 -0.1506 -0.3494
14341PP      PP24445  15.645   0.016  11.866  0.0874  0.1433 -0.2074
14342PP      PP24446   2.853  12.989   9.095 -0.1176  0.0628  0.1210
14343PP      PP24447   1.786   5.152   2.568 -0.0221  0.1081 -0.2060
14344PP      PP24448   3.951   6.030   9.584  0.1269  0.0917  0.1593
14345PP      PP24449   7.157   6.350   0.019  0.1015  0.0234 -0.0242
14346PP      PP24450   4.703   6.989   1.560  0.0436  0.1031 -0.1988
14347PP      PP24451  10.671   6.459  10.586  0.3398  0.1946  0.1777
14348PP      PP24452   6.672   4.294   9.083  0.0122 -0.0798  0.0218
14349PP      PP24453   4.512   9.194  10.109  0.2719 -0.0177  0.0369
14350PP      PP24454  12.475   3.436   4.137 -0.2957  0.1571 -0.1251
14351PP      PP24455   3.992   9.017   4.490 -0.1271  0.0055  0.1111
14352PP      PP24456  14.504  14.096  13.086 -0.2340  0.1463 -0.1857
14353PP      PP24457   2.959  11.401   0.046 -0.0967 -0.1898  0.1255
14354PP      PP24458  13.445   2.731  13.683  0.1489  0.2139 -0.3731
14355PP      PP24459   7.533  15.415  13.377 -0.2524  0.0059 -0.0431
14356PP      PP24460  13.098   6.125  10.409 -0.1804 -0.2181 -0.0363
14357PP      PP24461  10.445  13.244   4.518 -0.2297  0.1874  0.1615
14358PP      PP24462  13.550  14.425   9.182  0.0371  0.1317 -0.2484
14359PP      PP24463   3.563   6.841   2.914 -0.1672 -0.0567  0.2595
14360PP      PP24464   6.833   1.796   0.149 -0.0482 -0.2429  0.1686
14361PP      PP24465   1.324   7.356   9.703 -0.2123 -0.1127  0.1490
14362PP      PP24466   3.371  15.463  12.998  0.0040  0.0993  0.0113
14363PP      PP24467   4.792   4.795   0.231  0.1895 -0.1415  0.2939
14364PP      PP24468  15.483  10.803  11.181 -0.4381  0.0118 -0.1430
14365PP      PP24469   0.117   3.744  12.396  0.1462 -0.1790  0.1717
14366PP      PP24470   9.276   8.757   0.555  0.0138  0.0439 -0.2076
14367PP      PP24471   2.401  14.333  10.313 -0.0502  0.3312  0.0352
14368PP      PP24472   1.522   4.625   9.543 -0.0897  0.1773  0.1912
14369PP      PP24473   5.508  12.015   3.022 -0.1015  0.0358  0.1122
14370PP      PP24474   7.244   5.822   8.584  0.0684 -0.2918 -0.0256
14371PP      PP24475   6.930   2.637  10.069  0.0447  0.1029 -0.0212
14372PP      PP24476   4.851   7.077  11.695 -0.0074 -0.0935 -0.2637
14373PP      PP24477   4.557   4.049   0.279 -0.3282  0.0642  0.1430
14374PP      PP24478   6.378  11.160  12.247  0.1068  0.0964  0.1008
14375PP      PP24479   1.713  10.029   2.936  0.2429  0.1469  0.0320
14376PP      PP24480  11.364   8.305  11.408 -0.0406  0.3444  0.0821
14377PP      PP24481   7.838   6.451  11.314  0.0453  0.3348 -0.2895
14378PP      PP24482   8.195  15.347   4.335 -0.3773  0.0597  0.3827
14379PP      PP24483  11.510  15.713   0.904 -0.2491 -0.0018 -0.3479
14380PP      PP24484   6.155  14.902   0.072 -0.1151  0.0814 -0.1830
14381PP      PP24485  10.316   0.891   9.895 -0.4072 -0.1407  0.2453
14382PP      PP24486   5.281   0.864  13.032 -0.0579  0.1901 -0.1571
14383PP      PP24487   1.183   4.190   8.870 -0.0633 -0.1656  0.1210
14384PP      PP24488   7.319   3.996  10.681 -0.0637  0.2395 -0.0331
14385PP      PP24489  13.114   4.171  13.225  0.0563 -0.0583 -0.0136
14386PP      PP24490  14.670   3.157  12.044 -0.0467  0.1249 -0.1822
14387PP      PP24491   1.987  15.684  13.484 -0.0950  0.0815 -0.0466
14388PP      PP24492   2.053   5.194   2.156 -0.0777  0.0586 -0.3937
14389PP      PP24493   2.230   0.189  10.426 -0.3429  0.0454 -0.2742
14390PP      PP24494   8.333  12.837   5.179 -0.1392  0.3543 -0.0681
14391PP      PP24495   1.111   2.654   3.045  0.1866  0.0103 -0.0680
14392PP      PP24496  12.801   7.320   1.993  0.0063 -0.1429 -0.0602
14393PP      PP24497   1.375  14.732  12.341 -0.0145 -0.1788  0.3478
14394PP      PP24498  11.236   6.360   4.096  0.0060 -0.0464  0.2079
14395PP      PP24499   6.680  12.447  11.151  0.0439 -0.0244 -0.0590
14396PP      PP24500   4.327   7.348  13.025 -0.0307 -0.3635 -0.1627
14397PP      PP24501   9.673   7.343  11.501 -0.0782 -0.1266  0.0785
14398PP      PP24502  12.700  12.143   4.873  0.1141  0.0117  0.2200
14399PP      PP24503   5.020  12.185  12.483  0.0587 -0.0275  0.0079
14400PP      PP24504   5.790  12.414   3.285 -0.1863  0.0711  0.1013
14401PP      PP24505   0.302   0.862   4.752 -0.0213  0.0273 -0.0784
14402PP      PP24506   2.637   9.550   2.599  0.1012  0.1253  0.1179
14403PP      PP24507  10.810   1.111   2.405  0.1770  0.0509 -0.1839
14404PP      PP24508   9.100  11.885   2.527  0.1138 -0.0401  0.0234
14405PP      PP24509  11.780   3.110   9.099  0.0030 -0.2300  0.0669
14406PP      PP24510   7.017  13.137   4.673 -0.2086  0.1611 -0.1548
14407PP      PP24511   9.082   9.143  12.102  0.1195  0.1897 -0.0453
14408PP      PP24512   6.335   8.047   0.468  0.2404 -0.1093 -0.1042
14409PP      PP24513   3.296  15.688   9.750  0.3059 -0.5373  0.2270
14410PP      PP24514  12.775  10.706  12.660 -0.1413 -0.2238  0.0836
14411PP      PP24515   7.308   4.850  10.448  0.0390  0.0423  0.1716
14412PP      PP24516  14.339   6.995   9.138 -0.0758  0.3091 -0.2273
14413PP      PP24517  10.168  11.649   9.856 -0.1657 -0.0310 -0.3394
14414PP      PP24518   7.046   6.279   8.252  0.1381 -0.0962  0.1189
14415PP      PP24519   8.878   3.808   8.800 -0.2295 -0.1574 -0.3060
14416PP      PP24520   6.516   3.328  12.759  0.0966 -0.0081 -0.2149
14417PP      PP24521   3.088  13.206   1.937  0.3095 -0.0452  0.0902
14418PP      PP24522  14.731  14.132  10.776 -0.0242 -0.2120 -0.1911
14419PP      PP24523   8.322  11.737  13.415  0.1510 -0.3079  0.2289
14420PP      PP24524   1.237   6.741   3.117 -0.0163  0.0904 -0.3072
14421PP      PP24525  12.663  10.786  13.243  0.1312 -0.0353 -0.2440
14422PP      PP24526  11.556  10.499   2.504  0.3074 -0.1946 -0.1493
14423PP      PP24527  13.243   7.499   1.622  0.1194  0.0434  0.2545
14424PP      PP24528  11.308  11.194   3.252  0.1318 -0.2279  0.1490
14425PP      PP24529  15.323   1.823   2.020 -0.0491 -0.0711 -0.2951
14426PP      PP24530   0.027   2.023   4.508 -0.2409 -0.0924 -0.4194
14427PP      PP24531  14.238  13.483   2.613 -0.0055 -0.4356  0.0416
14428PP      PP24532   3.782  12.375  11.896  0.1353 -0.0290  0.1525
14429PP      PP24533   5.664   9.392   0.662 -0.0668 -0.1529  0.0002
14430PP      PP24534  10.215  14.391   9.225  0.0053  0.0280  0.1010
14431PP      PP24535  15.461  15.030  10.684  0.1605  0.0548 -0.1032
14432PP      PP24536   7.416   7.372  13.068  0.0182  0.1186 -0.0406
14433PP      PP24537   8.850  14.037  13.028 -0.4086 -0.2491 -0.5480
14434PP      PP24538   5.113   2.472   2.585  0.1871 -0.2252 -0.0839
14435PP      PP24539  11.920   0.283  11.599 -0.0034 -0.1955 -0.4114
14436PP      PP24540  13.540   4.077   9.875  0.0111 -0.0145  0.0984
14437PP      PP24541  14.766  14.034   2.950 -0.0407  0.2592 -0.0610
14438PP      PP24542  10.553   9.719  12.127  0.0120  0.4942 -0.0633
14439PP      PP24543   4.614   2.421   2.992  0.0632  0.0261  0.0204
14440PP      PP24544   1.362  10.331  11.305 -0.1881 -0.2517  0.2013
14441PP      PP24545   1.786   3.003  13.246  0.1595 -0.1355 -0.2032
14442PP      PP24546   2.423   4.242   1.487 -0.1649  0.0605 -0.1323
14443PP      PP24547   2.565  10.609  12.461 -0.0254 -0.1740  0.1826
14444PP      PP24548   8.870   6.071  11.488  0.0610 -0.2350  0.0016
14445PP      PP24549   4.309  15.497   8.940  0.0511  0.0791  0.3425
14446PP      PP24550   4.576   9.985   3.870  0.1399 -0.1757  0.3277
14447PP      PP24551   9.798   4.725   4.141 -0.1952  0.2181 -0.2363
14448PP      PP24552  13.827  11.070  10.453 -0.1988 -0.0572  0.0513
14449PP      PP24553  12.900  10.891   4.681  0.0543  0.0648 -0.1267
14450PP      PP24554  14.363   2.063   2.778 -0.1647 -0.0827 -0.0523
14451PP      PP24555   4.015  14.699  10.007  0.1274 -0.0171  0.1980
14452PP      PP24556  13.656  10.777  11.260 -0.0642  0.1090  0.3274
14453PP      PP24557   1.074   1.518   3.682  0.0005 -0.2412 -0.0818
14454PP      PP24558  14.149   8.832   2.981  0.0871  0.0414  0.0624
14455PP      PP24559   7.901  11.681   9.801 -0.0681  0.1206 -0.2330
14456PP      PP24560   4.419   7.858   9.774 -0.0517  0.1316  0.0018
14457PP      PP24561   7.316   9.409   2.788  0.0269  0.2903 -0.0564
14458PP      PP24562   3.880   3.412  10.339 -0.2545  0.1031 -0.0489
14459PP      PP24563   0.839   1.726   0.171  0.1160  0.1409 -0.0036
14460PP      PP24564   3.024  10.436   4.607 -0.1586 -0.1578 -0.1520
14461PP      PP24565   8.863   1.961   1.136 -0.1135 -0.1079 -0.0196
14462PP      PP24566   5.981  15.134   0.602  0.1033  0.0375 -0.2190
14463PP      PP24567  11.759   0.352   1.124  0.1104 -0.0418  0.1028
14464PP      PP24568  10.093   3.388   3.065 -0.1107  0.3410 -0.0378
14465PP      PP24569   5.388   9.184  13.191 -0.1322  0.1283  0.1853
14466PP      PP24570   9.866   5.716   9.032 -0.0578  0.0217 -0.1230
14467PP      PP24571   9.857  11.594  11.603  0.0259 -0.3791 -0.0240
14468PP      PP24572  12.370  14.759   1.157  0.0381  0.2556 -0.1294
14469PP      PP24573   8.360  13.993  11.357  0.0269  0.0325 -0.2138
14470PP      PP24574   7.114   6.979   9.705  0.0576  0.0949 -0.0644
14471PP      PP24575   6.403   1.602  10.705 -0.2950 -0.0357  0.2626
14472PP      PP24576   1.911   6.203   8.856 -0.1610 -0.0055 -0.0488
14473PP      PP24577   2.461   2.034   2.609 -0.3939 -0.0066 -0.2492
14474PP      PP24578   3.686   6.205   0.170  0.3369 -0.0328 -0.0609
14475PP      PP24579  13.652   7.666   4.706 -0.0450  0.0063 -0.0207
14476PP      PP24580   8.123   8.979  11.033  0.0656  0.2182  0.3877
14477PP      PP24581  12.712   6.650   4.706 -0.0023  0.1798  0.0058
14478PP      PP24582  10.877   4.301   1.629  0.0256 -0.0528 -0.2854
14479PP      PP24583   6.788  14.309  11.068 -0.2225  0.0402 -0.0450
14480PP      PP24584  11.207   5.173  10.013 -0.2761  0.0225 -0.2659
14481PP      PP24585   8.292   1.226  13.061 -0.0202 -0.4386  0.1847
14482PP      PP24586   1.909   4.085   0.641 -0.1545  0.0130  0.0603
14483PP      PP24587   5.042   8.190   9.083 -0.1561 -0.0266  0.0365
14484PP      PP24588   4.584   3.126   9.011 -0.1135  0.0583  0.1811
14485PP      PP24589   7.481  15.679  11.728 -0.2371  0.0908 -0.4617
14486PP      PP24590   7.928   1.878   2.246 -0.2690  0.1129  0.0694
14487PP      PP24591   0.717   7.407   3.887  0.1731  0.0682  0.0883
14488PP      PP24592  12.276  15.406   0.210 -0.0678 -0.1524 -0.3777
14489PP      PP24593   9.677  14.087   3.912  0.0064  0.0250  0.1132
14490PP      PP24594   4.446   9.719  11.862  0.1248  0.0790 -0.2495
14491PP      PP24595  14.751  13.575  13.167 -0.1073 -0.0784 -0.1525
14492PP      PP24596  15.031  14.201  10.354 -0.0142  0.1807  0.0358
14493PP      PP24597   8.759   4.185  10.343  0.1807  0.0721  0.0378
14494PP      PP24598   0.838   2.642  13.763 -0.0183  0.1784 -0.1827
14495PP      PP24599  12.327  14.112   1.932  0.1487  0.0279 -0.1342
14496PP      PP24600  14.770   1.924   9.762 -0.0434 -0.1217 -0.2533
14497PP      PP24601   5.525   9.451  11.653  0.3834 -0.2100  0.1002
14498PP      PP24602   1.243   6.461   3.989  0.0629  0.0469 -0.0143
14499PP      PP24603   1.702   8.158   0.651 -0.0156  0.0260 -0.0276
14500PP      PP24604   7.959   6.386   2.283  0.4438  0.1300 -0.0154
14501PP      PP24605   5.381  13.759  11.726 -0.3336  0.4723  0.0750
14502PP      PP24606  15.275  12.140   4.170 -0.0444 -0.1538 -0.1867
14503PP      PP24607   3.877  11.288   4.898 -0.0288 -0.0557 -0.2043
14504PP      PP24608   3.012   8.967   0.308 -0.0069  0.0648 -0.0798
14505PP      PP24609   6.666   3.687   0.774 -0.0446  0.3018  0.0452
14506PP      PP24610  13.370   0.228  11.123 -0.2406 -0.2849  0.2102
14507PP      PP24611   8.026  15.121  13.411 -0.0704  0.1640 -0.0623
14508PP      PP24612   8.322  11.658   1.954  0.1232  0.0828  0.0364
14509PP      PP24613  12.707   6.810   0.113 -0.2992 -0.1184  0.3547
14510PP      PP24614  11.617   7.636   0.363 -0.0836 -0.2094  0.0493
14511PP      PP24615   5.216   0.958   2.210  0.2245 -0.0841 -0.2574
14512PP      PP24616   7.352   6.873  12.972  0.0065 -0.0387  0.0385
14513PP      PP24617   1.290  14.994   4.150  0.0041 -0.1831 -0.0538
14514PP      PP24618   5.274  11.561   2.084  0.3301  0.5294 -0.5777
14515PP      PP24619   7.144  11.577   1.793  0.1001 -0.1333  0.1615
14516PP      PP24620   7.954   9.070   3.378  0.2216 -0.2067 -0.2912
14517PP      PP24621   5.770   0.706  13.343 -0.1430 -0.1299 -0.2388
14518PP      PP24622  10.940  10.787   5.709  0.1969  0.0492 -0.0677
14519PP      PP24623  13.072   5.241   3.098 -0.3523 -0.0085 -0.0312
14520PP      PP24624  12.368  14.202  12.964  0.1783  0.0336 -0.1098
14521PP      PP24625  10.390  10.722   1.374 -0.0591 -0.2002 -0.1912
14522PP      PP24626  15.610   7.820   2.089  0.0621  0.1745  0.0878
14523PP      PP24627   4.102  12.152   4.421  0.1708  0.2064  0.0512
14524PP      PP24628  11.412   0.043  10.386  0.0532  0.0654  0.0090
14525PP      PP24629  12.793   1.954   3.384  0.1033 -0.1583  0.2514
14526PP      PP24630   6.474   2.114   8.010  0.2379 -0.0185  0.5898
14527PP      PP24631   8.388  13.273   0.150 -0.1505  0.0189 -0.1744
14528PP      PP24632   7.357   0.125   3.539  0.1755  0.1635 -0.4813
14529PP      PP24633   7.500   0.775   0.020 -0.1287 -0.1098 -0.2193
14530PP      PP24634   3.017  14.683   8.810 -0.0938  0.1426  0.0538
14531PP      PP24635   1.303   9.257  13.031 -0.0517 -0.1348  0.1292
14532PP      PP24636  11.397   3.528  11.477 -0.0756 -0.2365  0.2097
14533PP      PP24637  13.849   8.676  10.360 -0.2432  0.1589 -0.1666
14534PP      PP24638   0.021  15.126   0.270  0.0023  0.1182 -0.2118
14535PP      PP24639  11.450   7.700  10.238  0.2731 -0.0339 -0.1363
14536PP      PP24640   6.156   1.331  10.322  0.2015  0.3271 -0.1098
14537PP      PP24641   5.235   0.260   2.725  0.1049  0.1322  0.2765
14538PP      PP24642   7.485   5.405   8.482  0.3555  0.0951  0.0023
14539PP      PP24643   9.211   7.054   3.015  0.1824  0.2881 -0.2387
14540PP      PP24644  12.454  10.688   9.424 -0.0330 -0.1588  0.2097
14541PP      PP24645   6.438  11.040   4.320 -0.0830 -0.0549  0.2447
14542PP      PP24646   2.109   5.509   8.744 -0.3781 -0.2151  0.0223
14543PP      PP24647  14.671   1.817   1.834 -0.0795 -0.1269 -0.1360
14544PP      PP24648   2.254  14.095   0.085  0.1650  0.1497 -0.0482
14545PP      PP24649   4.245  10.077   3.494  0.0358 -0.0068 -0.2026
14546PP      PP24650   9.346   5.298   2.543 -0.1507  0.1871  0.2033
14547PP      PP24651  15.494  12.008   1.933 -0.2024 -0.4006 -0.3018
14548PP      PP24652  14.459  11.658   1.563 -0.0604  0.2578 -0.0247
14549PP      PP24653   9.150  15.184   0.481  0.2687 -0.0722  0.0861
14550PP      PP24654   7.745   9.346   4.776  0.1131  0.0698 -0.0690
14551PP      PP24655  13.964   6.668   5.164  0.1893  0.0879 -0.1288
14552PP      PP24656   0.271   1.591  12.131 -0.0689 -0.4927  0.2104
14553PP      PP24657  10.696  12.242  10.147 -0.4078  0.0405 -0.1024
14554PP      PP24658   3.836  13.478  12.505  0.2611  0.0435 -0.4364
14555PP      PP24659   3.203  13.143   4.076 -0.2888  0.2029 -0.1968
14556PP      PP24660   6.563   7.426  10.412  0.0833  0.0880 -0.0911
14557PP      PP24661  13.392   1.354  11.832  0.0633 -0.0477  0.3901
14558PP      PP24662   0.738  10.804   3.482 -0.2784 -0.0987 -0.0331
14559PP      PP24663   1.148  15.016  13.744 -0.1186  0.0436  0.1036
14560PP      PP24664  10.474   1.529  11.321  0.4524  0.0866 -0.1181
14561PP      PP24665   0.597   1.946  12.257 -0.1121 -0.2255 -0.1504
14562PP      PP24666   2.497   6.292  12.437  0.0759 -0.3142  0.1766
14563PP      PP24667   4.705  13.004   4.374  0.0363  0.1131  0.0004
14564PP      PP24668   6.652   9.083  12.907  0.0255  0.0204 -0.1282
14565PP      PP24669   9.395   5.423   1.398 -0.1470  0.2056 -0.3227
14566PP      PP24670  13.799   2.097   4.021 -0.1089 -0.2557  0.1880
14567PP      PP24671  13.843  10.672  11.711  0.5340  0.0944  0.1481
14568PP      PP24672   4.288  12.386  13.420 -0.2285 -0.0331  0.1576
14569PP      PP24673  10.775  15.358  12.790 -0.0135 -0.2883  0.0048
14570PP      PP24674   7.216   8.147   1.059  0.0041 -0.5097 -0.2174
14571PP      PP24675   3.395   3.909  12.465  0.0259 -0.1948  0.2593
14572PP      PP24676   1.941   1.465  11.634  0.2018 -0.0937 -0.0270
14573PP      PP24677   9.003  15.676  12.316 -0.0051 -0.0488  0.1153
14574PP      PP24678   4.238   0.854   3.246 -0.0593  0.1804 -0.0675
14575PP      PP24679   5.554  10.796   0.542  0.0933  0.2035 -0.2004
14576PP      PP24680   0.868   2.742   3.733  0.1113  0.2156  0.3504
14577PP      PP24681   9.619  13.538  10.810 -0.0052 -0.0455  0.1777
14578PP      PP24682   3.739   2.497  13.213 -0.1593 -0.6402 -0.0999
14579PP      PP24683   3.262   4.477   9.010  0.0802  0.3080  0.0653
14580PP      PP24684  12.561  11.886   3.189 -0.1452  0.2203 -0.3927
14581PP      PP24685   1.477   2.857   9.155 -0.3761  0.0815  0.0903
14582PP      PP24686   9.618   0.072   3.972 -0.1476 -0.1912  0.0574
14583PP      PP24687   0.582   6.608   0.203 -0.2528  0.0850  0.0023
14584PP      PP24688   8.913   4.569  10.912 -0.0836  0.4728  0.3040
14585PP      PP24689  10.886   7.790  12.570  0.3777  0.2368  0.0597
14586PP      PP24690  14.690  14.683  11.097 -0.1399 -0.2865  0.0252
14587PP      PP24691  14.719   1.975   2.280 -0.0801 -0.2176  0.0551
14588PP      PP24692  15.493  12.919  11.534 -0.0118 -0.1004  0.1227
14589PP      PP24693   6.524  10.624   2.305  0.1728  0.2251  0.1194
14590PP      PP24694  12.907   3.621  10.259 -0.3201 -0.0464  0.4030
14591PP      PP24695  13.999   5.012   3.410  0.1268 -0.1675  0.0548
14592PP      PP24696  11.832   5.979  13.547  0.0092 -0.1516  0.1285
14593PP      PP24697  10.636   7.716  11.062  0.1975  0.3203 -0.1829
14594PP      PP24698  12.399  12.083  12.341  0.2860  0.1760 -0.0610
14595PP      PP24699   2.357   7.017   1.002 -0.0943 -0.1219  0.0505
14596PP      PP24700   9.227   2.927   0.539  0.3466 -0.0309 -0.1983
14597PP      PP24701  12.016  10.785   2.152  0.2927 -0.1590  0.3497
14598PP      PP24702   8.466  14.107   3.505  0.2363 -0.1702  0.1552
14599PP      PP24703  10.086  10.568   0.055  0.3110 -0.2920 -0.1442
14600PP      PP24704  13.175  12.001   9.516  0.0077  0.1691  0.0090
14601PP      PP24705  13.336  13.187   4.953  0.2995  0.1419  0.3077
14602PP      PP24706   6.100  12.696   0.525 -0.0157 -0.1977  0.2440
14603PP      PP24707  14.301   2.536  10.495 -0.0091 -0.2914  0.3462
14604PP      PP24708   6.563   5.503   0.861 -0.4835 -0.1096  0.1747
14605PP      PP24709  12.245   8.491   3.625 -0.1661 -0.2070  0.0171
14606PP      PP24710  14.209   0.188  13.743  0.0712  0.1099  0.1428
14607PP      PP24711   8.333   9.172  12.531  0.2964 -0.2444  0.0789
14608PP      PP24712   6.461   6.066   3.220 -0.1282 -0.0300 -0.0892
14609PP      PP24713   4.122  11.478  12.562 -0.1095  0.1073 -0.0763
14610PP      PP24714  14.112  14.639   4.428  0.0391  0.0473  0.1336
14611PP      PP24715  12.508   5.701   2.562  0.0908 -0.1111 -0.0633
14612PP      PP24716  13.478   0.138   0.902 -0.0801 -0.0378  0.2056
14613PP      PP24717  14.643   5.814  12.599 -0.1804  0.1232 -0.1992
14614PP      PP24718  11.682   0.813   4.335 -0.1721  0.2125 -0.1662
14615PP      PP24719   2.785   3.518   1.916  0.1362 -0.5146 -0.1081
14616PP      PP24720   7.995   1.393  10.290 -0.2581  0.0102  0.1467
14617PP      PP24721  10.327   4.327  11.291 -0.0293 -0.1564  0.0096
14618PP      PP24722   5.338   1.095   0.541 -0.0877 -0.3159 -0.1705
14619PP      PP24723   2.668   9.438  10.428  0.1756 -0.0930  0.2309
14620PP      PP24724  13.190   8.874  12.259 -0.4413  0.0965 -0.2876
14621PP      PP24725   1.642   5.340   3.458  0.3146  0.1172  0.1805
14622PP      PP24726   5.760  10.488  13.361  0.0758 -0.1903  0.1684
14623PP      PP24727  14.695  10.317   2.501  0.1108 -0.2126 -0.2030
14624PP      PP24728   7.888   5.910  13.369 -0.0145  0.1027 -0.3903
14625PP      PP24729  14.702  11.393  10.023  0.1465 -0.0892 -0.0680
14626PP      PP24730   7.375  12.976  13.720 -0.1442  0.0050  0.0461
14627PP      PP24731   4.684  15.150   2.573  0.0364 -0.1018 -0.2907
14628PP      PP24732   9.290  11.033  13.258  0.1064 -0.2620 -0.3980
14629PP      PP24733   6.807   9.753   4.703 -0.1245 -0.4050  0.0422
14630PP      PP24734  14.823   0.671  13.718  0.1294 -0.0220  0.0992
14631PP      PP24735   0.938  14.641   0.324 -0.1251 -0.3728 -0.1641
14632PP      PP24736  13.504   4.993   3.610  0.1018 -0.2769  0.0570
14633PP      PP24737   5.952   4.588  12.481  0.1180 -0.2578  0.1214
14634PP      PP24738   9.566   3.683  12.911  0.4568  0.1696  0.1470
14635PP      PP24739   7.866  14.382   9.158  0.0270  0.0105 -0.1029
14636PP      PP24740   1.416   6.559  11.062  0.2741 -0.3329 -0.1788
14637PP      PP24741  13.242   2.373  13.332  0.1384 -0.1728  0.0013
14638PP      PP24742  12.890   6.886   2.135  0.2272  0.1702  0.2454
14639PP      PP24743   4.333   1.922   0.610  0.1832  0.1028  0.1272
14640PP      PP24744  10.576  15.043   3.865 -0.1853  0.0506 -0.2167
14641PP      PP24745   8.680  13.675  11.017 -0.1694 -0.2293  0.0315
14642PP      PP24746  10.652   3.040  12.931  0.2577  0.0863  0.0442
14643PP      PP24747  12.087  10.416   1.068 -0.1131 -0.0601 -0.2361
14644PP      PP24748  14.100   3.972   0.233 -0.0620  0.0980  0.2020
14645PP      PP24749   1.446  12.220   9.252  0.0567 -0.0056  0.0380
14646PP      PP24750   1.878   8.438  11.772 -0.0368 -0.1757  0.1932
14647PP      PP24751  10.028   0.890   2.720  0.0904 -0.2431  0.1208
14648PP      PP24752   1.455   9.868   9.547 -0.1638  0.0646 -0.0800
14649PP      PP24753  14.695   2.104  12.479 -0.0976 -0.2253 -0.0572
14650PP      PP24754   1.651  14.056   3.379 -0.1553 -0.1701 -0.1022
14651PP      PP24755   6.616   8.947   4.605 -0.2669  0.2958 -0.1294
14652PP      PP24756  13.930   4.237  13.031  0.0611 -0.2964 -0.0209
14653PP      PP24757  10.210   7.843  10.830  0.3746  0.3401  0.3630
14654PP      PP24758   9.789   8.235   5.293 -0.1111  0.0066  0.1085
14655PP      PP24759   7.692   8.984  11.645 -0.1959 -0.0494  0.1742
14656PP      PP24760  12.943  10.569  10.801 -0.0554  0.1717 -0.1094
14657PP      PP24761   9.826   5.130  10.304 -0.0890  0.4241  0.0835
14658PP      PP24762   6.730  11.911   3.524 -0.0448  0.2719 -0.0273
14659PP      PP24763   7.410   7.077   9.136 -0.1239  0.2996 -0.0686
14660PP      PP24764  11.715   0.294  13.502  0.1176 -0.3643 -0.1739
14661PP      PP24765   2.560   7.494  10.448 -0.0769  0.1022  0.1440
14662PP      PP24766   5.318   0.389   2.193 -0.0686 -0.1988  0.5320
14663PP      PP24767  10.381  12.507  13.640 -0.0771 -0.0975 -0.7066
14664PP      PP24768  13.774   2.850  12.711 -0.1278  0.0665 -0.0447
14665PP      PP24769   6.853   5.277  11.740 -0.1150  0.0457  0.0483
14666PP      PP24770   7.706   2.656   9.973 -0.4649 -0.2697  0.1967
14667PP      PP24771   2.683   0.933   9.179 -0.0825  0.2136 -0.3187
14668PP      PP24772   0.859  12.409   4.205  0.1544  0.2387 -0.1104
14669PP      PP24773   6.259  14.028  11.678  0.0609 -0.2612 -0.0981
14670PP      PP24774   7.413   6.992  10.109 -0.2619 -0.2801 -0.1308
14671PP      PP24775   3.647   8.950   9.215  0.2675  0.0627  0.0305
14672PP      PP24776   2.491  13.372  12.362 -0.2695  0.2330  0.0418
14673PP      PP24777   0.737   8.384   3.010 -0.0484 -0.2293  0.0001
14674PP      PP24778  14.864   7.861   4.451  0.0963 -0.0301  0.4369
14675PP      PP24779   1.777   8.188  10.107  0.2177 -0.1477 -0.0967
14676PP      PP24780   5.558   8.508  10.881  0.0718  0.0523  0.1222
14677PP      PP24781   6.284  12.255  12.636  0.2204  0.1607 -0.3267
14678PP      PP24782  12.864  14.128   1.711 -0.0328 -0.0142 -0.4682
14679PP      PP24783   8.689  11.790   4.524 -0.1739 -0.1372 -0.2351
14680PP      PP24784  15.549   7.291  12.844  0.5583 -0.1264  0.2960
14681PP      PP24785  15.075  11.394  10.440  0.1949 -0.0582  0.0834
14682PP      PP24786  12.744  10.907  11.732 -0.1638 -0.3515  0.0859
14683PP      PP24787   7.803   5.165   9.563  0.0066  0.2145 -0.1376
14684PP      PP24788   9.841  10.166  11.082 -0.0196 -0.1179 -0.0276
14685PP      PP24789   6.569   8.582  12.982  0.0307  0.0604  0.0171
14686PP      PP24790  15.674  10.422   9.508 -0.0417  0.3365  0.0474
14687PP      PP24791   8.546  12.289   2.115 -0.0515  0.1207 -0.1160
14688PP      PP24792  11.607  13.104  11.391 -0.1191 -0.0650  0.0031
14689PP      PP24793   8.269  10.383   5.601 -0.0253 -0.0840  0.3618
14690PP      PP24794  14.775  10.975  10.510  0.0755  0.0169 -0.2499
14691PP      PP24795  12.541   1.231  13.764 -0.2420  0.0746 -0.2739
14692PP      PP24796   2.755  14.741   0.402  0.1054 -0.0943 -0.0650
14693PP      PP24797   7.522  11.678   3.354  0.1057  0.0016 -0.0554
14694PP      PP24798  14.755   5.651   5.394  0.1527  0.2651 -0.2397
14695PP      PP24799   5.759   9.474   4.608  0.2192 -0.1692  0.1258
14696PP      PP24800   5.537  10.024   3.458  0.0827  0.2495 -0.0978
14697PP      PP24801   9.274   7.479  10.279 -0.2599 -0.0528  0.0203
14698PP      PP24802   9.546  10.380   0.809  0.4332 -0.0748  0.0010
14699PP      PP24803   8.933   5.827  12.113  0.1229 -0.1924  0.2415
14700PP      PP24804   7.526  14.398   2.631  0.0135  0.0813 -0.1288
14701PP      PP24805   5.297  11.945   3.504 -0.0424 -0.2374 -0.0084
14702PP      PP24806  12.989  11.162   0.204 -0.0195  0.0726  0.1827
14703PP      PP24807  11.149   2.178   9.896 -0.2801 -0.2081 -0.4423
14704PP      PP24808   5.366   1.718  13.002  0.2180 -0.0072 -0.1467
14705PP      PP24809   2.867  11.772   3.152  0.2194 -0.0252 -0.2408
14706PP      PP24810   2.214   4.075   9.704 -0.1067 -0.2866  0.0167
14707PP      PP24811   0.280  10.704   2.053 -0.1798  0.4662  0.1887
14708PP      PP24812   8.043  13.136   2.377 -0.0500 -0.0862 -0.1767
14709PP      PP24813  15.453   0.358  10.415  0.2159  0.1384  0.2818
14710PP      PP24814   8.049   7.777  11.270  0.0202  0.0657  0.0059
14711PP      PP24815   3.208   2.302  11.046 -0.0812 -0.1040  0.5436
14712PP      PP24816   1.785  10.699  10.043  0.0941 -0.0062  0.3177
14713PP      PP24817   5.288   7.231  10.358  0.1806  0.1166  0.0626
14714PP      PP24818  14.453   4.882   1.474  0.1889  0.1219 -0.1189
14715PP      PP24819  12.916  15.707  11.833  0.0551 -0.2133  0.0484
14716PP      PP24820  15.443   2.475   9.939 -0.0215  0.1538  0.0289
14717PP      PP24821   9.750   2.070   1.074  0.3053 -0.4055  0.2612
14718PP      PP24822  10.628   5.508  11.264 -0.1363 -0.0039 -0.1734
14719PP      PP24823  10.223   6.098   4.205 -0.1135 -0.1463  0.1880
14720PP      PP24824   8.846  14.967   1.118 -0.0018  0.1283  0.3024
14721PP      PP24825  10.564  12.145   1.108 -0.1967 -0.0706 -0.0790
14722PP      PP24826   2.256  15.046  12.342 -0.2979  0.2835 -0.0349
14723PP      PP24827   7.351   9.150  11.961 -0.2082  0.0483  0.1744
14724PP      PP24828  13.175   1.079   3.247 -0.2054 -0.1555 -0.0692
14725PP      PP24829  15.425   0.303   9.567 -0.2380  0.1119 -0.0144
14726PP      PP24830   7.737   7.044  10.655 -0.0350  0.3956  0.3181
14727PP      PP24831  12.328   8.772   3.186 -0.0013 -0.1098  0.0197
14728PP      PP24832   7.963  10.681   0.109 -0.1807 -0.0519  0.2209
14729PP      PP24833   0.405   9.675  10.036 -0.0484 -0.0628 -0.0515
14730PP      PP24834   0.872  14.054   0.136 -0.2422  0.0121 -0.0118
14731PP      PP24835  13.254   6.101   3.076 -0.0225 -0.0404 -0.0688
14732PP      PP24836  14.750   8.248   1.641 -0.0107  0.2672  0.0354
14733PP      PP24837   9.639  10.950   0.098 -0.0650 -0.4727  0.2861
14734PP      PP24838   1.391   7.470  13.282 -0.0457 -0.0960 -0.2079
14735PP      PP24839   7.644  14.832  13.647 -0.1306 -0.1968 -0.0622
14736PP      PP24840   3.460  13.759   1.175  0.1302 -0.0702 -0.2755
14737PP      PP24841   8.731  13.218  11.114 -0.3300  0.2077  0.0073
14738PP      PP24842   2.281   1.782  13.250  0.1252  0.0283 -0.4071
14739PP      PP24843   8.508   0.730  11.971 -0.2430  0.2530  0.3010
14740PP      PP24844  14.420  13.098   9.981  0.0132 -0.3099  0.4112
14741PP      PP24845  15.272  14.156  13.384 -0.1540  0.0071 -0.0335
14742PP      PP24846   4.536  15.547  12.961  0.1078 -0.0388  0.1213
14743PP      PP24847   5.771   9.815  10.498  0.1913 -0.1737 -0.0178
14744PP      PP24848  13.915   3.225   8.741  0.0498 -0.2610  0.1941
14745PP      PP24849  13.151  12.916   9.986  0.1890  0.0558 -0.0972
14746PP      PP24850  14.168  12.049   1.018 -0.0731 -0.0938  0.2250
14747PP      PP24851   3.242  11.636   9.308  0.2207  0.2475 -0.0274
14748PP      PP24852  14.117   0.779   9.261 -0.3565  0.0727 -0.0321
14749PP      PP24853  14.670   6.064  11.324 -0.1104 -0.0345  0.1829
14750PP      PP24854   2.761  10.087  13.203 -0.0340 -0.0703 -0.1768
14751PP      PP24855   1.433   5.212   0.838 -0.2490 -0.0510 -0.0435
14752PP      PP24856  15.635  14.075   4.125 -0.1105 -0.2091  0.1634
14753PP      PP24857  14.553   8.318  11.304  0.0918 -0.0441 -0.3467
14754PP      PP24858   8.560   3.669   1.081 -0.1523 -0.1690  0.0485
14755PP      PP24859   7.719   2.473  12.511  0.0315  0.1733  0.0182
14756PP      PP24860   7.330  11.383   3.001 -0.1493  0.0692  0.1954
14757PP      PP24861  14.258  14.780   0.927 -0.1065 -0.0503  0.0406
14758PP      PP24862   1.374   8.535  11.528  0.1503 -0.5109  0.0638
14759PP      PP24863  12.823  15.304   9.384  0.1315 -0.0591  0.1285
14760PP      PP24864   1.022   1.497   2.126  0.0105  0.2659 -0.1553
14761PP      PP24865   3.024   9.655   3.019 -0.2823 -0.1464 -0.1150
14762PP      PP24866  11.293   5.285   0.484 -0.3359 -0.2635 -0.1486
14763PP      PP24867   4.630   7.485  10.594  0.2997 -0.0708 -0.1310
14764PP      PP24868   0.513   9.806  12.963 -0.0600  0.0279  0.1183
14765PP      PP24869   8.261   9.518   2.513  0.2554  0.2050  0.3243
14766PP      PP24870   5.585   0.729   3.113  0.0753  0.1026 -0.0162
14767PP      PP24871   4.906  10.356   9.581 -0.2251  0.0563  0.0857
14768PP      PP24872  10.035   7.658  12.758  0.0160 -0.0972 -0.0879
14769PP      PP24873   1.977  12.177   8.743  0.0346  0.1675 -0.0284
14770PP      PP24874   0.887   1.941   0.694  0.1472 -0.0351 -0.0771
14771PP      PP24875   9.200   3.898  11.984  0.1915  0.0904  0.3394
14772PP      PP24876   7.310   4.345   9.785 -0.2222 -0.1105 -0.0417
14773PP      PP24877   6.874   6.343   3.003  0.1657  0.0054 -0.1871
14774PP      PP24878   6.084  13.915   2.105  0.3759 -0.0246  0.0617
14775PP      PP24879   2.924  12.499  11.197 -0.0933  0.0335  0.3019
14776PP      PP24880   9.146  11.882  12.032 -0.3779 -0.0701 -0.0563
14777PP      PP24881   1.204   4.832   9.022 -0.3112 -0.1691 -0.5522
14778PP      PP24882   7.102  12.972  10.912  0.1430  0.1701 -0.0855
14779PP      PP24883   0.101   1.673   2.338  0.1090 -0.1462 -0.0902
14780PP      PP24884  10.591  14.599   1.945  0.0826 -0.2871 -0.3352
14781PP      PP24885   5.788  14.668  10.921  0.1593 -0.2965  0.2049
14782PP      PP24886   4.956  11.105   1.811 -0.0563  0.1545 -0.0672
14783PP      PP24887  15.220   7.753   0.658 -0.2728 -0.1989 -0.0008
14784PP      PP24888   5.506  14.396  11.652  0.0235 -0.1660  0.1511
14785PP      PP24889   0.212  13.712   9.574 -0.2586  0.0008  0.0782
14786PP      PP24890   2.582   7.144   9.564  0.0717  0.1816 -0.2029
14787PP      PP24891   1.453   3.778  12.837 -0.3263 -0.0395 -0.1328
14788PP      PP24892  14.353   4.229  11.988 -0.0389 -0.1301 -0.2278
14789PP      PP24893  12.538   2.782   1.975  0.2768  0.1845  0.3853
14790PP      PP24894   5.741   0.559  10.022 -0.0693 -0.2185 -0.3233
14791PP      PP24895  12.345   5.420  12.678  0.2356  0.1499  0.3427
14792PP      PP24896   9.706   1.395  12.986  0.0463 -0.3499  0.1039
14793PP      PP24897  15.420   5.590  13.695 -0.1413 -0.1639 -0.2339
14794PP      PP24898   2.377  14.428   1.989  0.2365  0.1412  0.3357
14795PP      PP24899   7.425   6.376   8.535  0.2677  0.1556 -0.0863
14796PP      PP24900  13.240   9.676  11.096  0.0313  0.0214 -0.0815
14797PP      PP24901  14.083   9.576  11.114 -0.0364 -0.2933  0.2603
14798PP      PP24902  13.564  13.038   4.112  0.4936 -0.1116 -0.0637
14799PP      PP24903  15.627   9.674  10.103 -0.0452  0.1166  0.6038
14800PP      PP24904   2.719   0.652   2.271 -0.0286  0.0743  0.0553
14801PP      PP24905  15.359   6.934  11.943 -0.0805 -0.0124 -0.3105
14802PP      PP24906  11.866   4.311   1.206 -0.0421  0.1791  0.0237
14803PP      PP24907   7.794  12.002   1.282  0.3000 -0.1142  0.2267
14804PP      PP24908   4.536   5.756   8.868  0.1511  0.3650  0.0230
14805PP      PP24909   7.247   6.299   0.527 -0.1161 -0.2178 -0.1249
14806PP      PP24910  12.883   6.657   2.562 -0.1551  0.0327  0.1403
14807PP      PP24911   3.773   5.795   0.971 -0.0397  0.1522 -0.0726
14808PP      PP24912  10.779   2.305  12.351  0.1517 -0.0389  0.3560
14809PP      PP24913  15.122   7.538   2.911  0.1928  0.1667 -0.1708
14810PP      PP24914   1.760  15.042   1.460 -0.1957 -0.1694 -0.0253
14811PP      PP24915   3.361  10.159  11.102  0.2397 -0.3375 -0.0854
14812PP      PP24916   9.938   1.577  10.971 -0.3349 -0.1263  0.0140
14813PP      PP24917  12.885   0.833  12.735 -0.0671  0.1154 -0.2945
14814PP      PP24918   5.017  14.664  12.937  0.3350  0.0660  0.0095
14815PP      PP24919   8.544  11.124  10.439  0.1360  0.1616  0.1065
14816PP      PP24920  14.582  14.735   2.594 -0.2076  0.1307  0.0669
14817PP      PP24921   6.091  12.762   4.566  0.0421  0.1335  0.0597
14818PP      PP24922  10.978   4.273   3.163  0.2889  0.0606 -0.0345
14819PP      PP24923  14.915   9.468  11.492 -0.3406  0.1722 -0.1513
14820PP      PP24924  13.173   1.193  11.391 -0.2215 -0.2089 -0.0554
14821PP      PP24925   2.398   3.329  10.518 -0.0781  0.1836  0.1716
14822PP      PP24926   8.391  10.384   5.051  0.1451  0.0975  0.2218
14823PP      PP24927   7.174   7.984   1.521  0.2111  0.0025  0.0532
14824PP      PP24928   4.317  11.643   3.703  0.0162 -0.0557 -0.0566
14825PP      PP24929  12.270   2.993   9.290 -0.0496 -0.0313  0.1010
14826PP      PP24930   5.560  13.273  10.293  0.3793 -0.0864  0.0668
14827PP      PP24931   9.918   8.791  12.386  0.0066  0.0961 -0.2372
14828PP      PP24932  13.985   7.250   9.396  0.1457  0.2544 -0.0868
14829PP      PP24933   2.895  14.436  12.539 -0.1944 -0.2205 -0.2566
14830PP      PP24934   4.434   4.475  10.341  0.0166  0.2840  0.0103
14831PP      PP24935  15.017   9.360   3.529 -0.0563  0.2021  0.1419
14832PP      PP24936   8.780  15.124   3.326  0.1670 -0.1945 -0.1564
14833PP      PP24937   6.699   6.348   0.350 -0.0276 -0.1009  0.0322
14834PP      PP24938   4.740   4.679   1.162 -0.2347  0.1251  0.2592
14835PP      PP24939  13.381  10.578  12.479 -0.1418  0.1827  0.2916
14836PP      PP24940   6.585   5.459   8.770 -0.2819  0.1767  0.1732
14837PP      PP24941   7.084   1.784   7.657 -0.0250 -0.1724  0.0293
14838PP      PP24942  14.300   6.940  11.783  0.1473  0.1993  0.0963
14839PP      PP24943   8.116   4.544  10.932 -0.0359  0.2601 -0.2332
14840PP      PP24944   4.605  14.827   9.947  0.2200 -0.1022 -0.2665
14841PP      PP24945   5.832  12.817  12.464 -0.2249 -0.1772  0.1085
14842PP      PP24946   2.683   2.732  11.111  0.2775 -0.1003  0.0586
14843PP      PP24947   0.160   2.994   2.985  0.1239 -0.2584  0.0340
14844PP      PP24948  15.567  13.017   1.765  0.2044 -0.2083  0.4193
14845PP      PP24949   9.639   3.847   0.187  0.0190  0.1461 -0.0042
14846PP      PP24950   7.547  13.248  12.148 -0.2093 -0.1619 -0.1221
14847PP      PP24951   3.476   8.688   0.290 -0.0078  0.1411 -0.3280
14848PP      PP24952  14.635  13.682   2.231  0.1026  0.1020 -0.1852
14849PP      PP24953   6.949   0.743   0.918  0.2409 -0.0163 -0.1325
14850PP      PP24954   9.738   0.881  13.057 -0.0686 -0.0615  0.1624
14851PP      PP24955   2.899  10.748   9.534 -0.0336  0.0343 -0.4006
14852PP      PP24956   5.060   0.998  10.744 -0.0350  0.0190  0.2759
14853PP      PP24957   0.635   5.295  10.387 -0.1966  0.1833  0.2503
14854PP      PP24958   8.637   3.634   1.946 -0.0627 -0.1296  0.2047
14855PP      PP24959  15.724   9.870  13.589  0.0222 -0.0765 -0.0279
14856PP      PP24960   0.096   1.807  11.335  0.2039  0.0979  0.0832
14857PP      PP24961   8.447   2.100   1.747 -0.4122  0.3266  0.2432
14858PP      PP24962  11.487  10.069   3.372 -0.0590 -0.1532 -0.0205
14859PP      PP24963  11.972  15.476   4.218  0.1112  0.0807 -0.0714
14860PP      PP24964   7.286   2.656   9.672  0.0341 -0.3504 -0.0770
14861PP      PP24965   1.473   0.789  13.519 -0.0196 -0.1176  0.0715
14862PP      PP24966   9.412   0.581   0.941 -0.0465  0.0518 -0.0124
14863PP      PP24967  15.431  13.947  11.433  0.1469  0.6387  0.2007
14864PP      PP24968   7.981   7.412  10.857 -0.0494 -0.0968  0.1661
14865PP      PP24969  15.467  13.113   0.025  0.1146  0.2153  0.2359
14866PP      PP24970  12.886   5.511   2.046 -0.2056  0.0250  0.3459
14867PP      PP24971   3.679   4.443  12.968  0.1064  0.0908 -0.2048
14868PP      PP24972   8.047  11.864  10.617 -0.2141 -0.0900  0.0528
14869PP      PP24973  12.600   9.104  10.718  0.1166 -0.1034  0.1024
14870PP      PP24974   4.815  14.092   3.592  0.0843  0.1641 -0.4003
14871PP      PP24975  12.316   1.167   3.528  0.1693  0.3762  0.0901
14872PP      PP24976   2.855  13.993  11.331  0.0513 -0.0868  0.1212
14873PP      PP24977  10.069   1.434   4.304  0.0763  0.1572 -0.0095
14874PP      PP24978   4.534   5.964  13.425  0.0023 -0.0786 -0.0300
14875PP      PP24979  11.283   4.576   9.021  0.0808 -0.0383 -0.0865
14876PP      PP24980   4.488   9.413  12.902 -0.1811  0.3030 -0.2473
14877PP      PP24981   4.296  14.188   2.678 -0.0672  0.3394 -0.1397
14878PP      PP24982   4.431   5.139   1.660 -0.0389 -0.0412 -0.0146
14879PP      PP24983   5.336   6.316   9.540 -0.1504  0.4856  0.0656
14880PP      PP24984  13.356   1.105  12.787 -0.2598  0.1578 -0.1088
14881PP      PP24985  12.432   4.105   4.453  0.4042  0.0292  0.2319
14882PP      PP24986   0.760   7.656   1.469  0.2261  0.2126  0.1679
14883PP      PP24987  10.905  15.169   1.301 -0.2959  0.0882 -0.0509
14884PP      PP24988  10.199   6.342   9.724 -0.0413 -0.2773 -0.1466
14885PP      PP24989   6.828  15.102   0.877 -0.1164 -0.0189  0.0300
14886PP      PP24990   7.664   7.299   1.148 -0.0811  0.1571 -0.1936
14887PP      PP24991   2.140   6.282   9.337  0.2509 -0.2668  0.1943
14888PP      PP24992   7.315  12.568   0.845 -0.2277 -0.1005 -0.1062
14889PP      PP24993   2.287   3.166  11.026  0.0528  0.0707  0.3172
14890PP      PP24994   1.868   1.645   3.209  0.1809  0.0975 -0.0105
14891PP      PP24995   2.147   4.690  10.955  0.2725 -0.1598 -0.1139
14892PP      PP24996   1.110   7.251  11.020  0.1060  0.0181  0.0060
14893PP      PP24997   1.111  12.298   9.997  0.0958 -0.2458 -0.2347
14894PP      PP24998  15.715  15.150   3.054  0.0276 -0.2307  0.0370
14895PP      PP24999   7.911  14.790  11.372  0.1572 -0.1413 -0.1266
14896PP      PP25000   9.845   0.323  11.235 -0.3752 -0.2143 -0.0761
14897PP      PP25001   6.659   4.936   8.253 -0.2069  0.0495  0.1088
14898PP      PP25002   7.612  14.306   0.588  0.0749  0.1381  0.1102
14899PP      PP25003  13.319  10.807   3.678  0.0192 -0.0288 -0.0787
14900PP      PP25004  10.065   8.319  10.977  0.2320  0.3441  0.0936
14901PP      PP25005   1.263   0.296   0.619  0.2051  0.0900  0.3038
14902PP      PP25006   9.891   2.372  11.594 -0.1517 -0.3344 -0.1488
14903PP      PP25007   7.707   4.300  11.567  0.2051 -0.0875  0.0884
14904PP      PP25008   9.440  10.335   9.875 -0.2515 -0.0253  0.1564
14905PP      PP25009   3.264   3.728   1.968  0.0258 -0.0644  0.0949
14906PP      PP25010   4.829   5.027   2.479  0.2747  0.0853 -0.0858
14907PP      PP25011   2.300   1.190  11.955 -0.0725 -0.0782 -0.2245
14908PP      PP25012   1.511   8.700  12.023 -0.0635  0.0412  0.1906
14909PP      PP25013   2.645   3.850  12.501 -0.1562  0.1420  0.0524
14910PP      PP25014   7.468  15.427  11.262  0.0124 -0.2500  0.0621
14911PP      PP25015  13.566   3.412   0.705 -0.1910 -0.2093  0.2508
14912PP      PP25016  13.075   4.134   3.770  0.0163 -0.0827  0.1657
14913PP      PP25017   5.349  13.535  12.435 -0.3558 -0.2596 -0.3581
14914PP      PP25018  10.508   8.796   5.694  0.2743 -0.0504 -0.3022
14915PP      PP25019   6.130   8.489   1.192 -0.4965 -0.3339  0.1737
14916PP      PP25020   9.497   8.239  13.614 -0.2019 -0.0372 -0.0988
14917PP      PP25021  14.527  10.091   1.179 -0.1585 -0.1306  0.3225
14918PP      PP25022   6.631   6.015  13.687 -0.3501  0.1021 -0.1530
14919PP      PP25023   5.082   3.704  10.779  0.0537  0.0040 -0.0429
14920PP      PP25024   8.629   0.110   8.952 -0.0787  0.1471  0.2310
14921PP      PP25025   2.531  12.122  13.230 -0.2173  0.1816 -0.2491
14922PP      PP25026  11.047   6.086  10.575  0.1003  0.1531 -0.1663
14923PP      PP25027  13.506  15.322  11.128 -0.2557  0.1566 -0.1401
14924PP      PP25028   0.781   1.459   0.937 -0.2087 -0.1950 -0.2211
14925PP      PP25029  11.883   9.032  12.289  0.0125 -0.0557  0.1234
14926PP      PP25030   4.141   0.324   3.319 -0.2028  0.0142  0.1801
14927PP      PP25031   2.940  10.170   4.062 -0.0132 -0.0559 -0.1867
14928PP      PP25032  13.155   9.242   1.133 -0.1577 -0.2004  0.0377
14929PP      PP25033   9.184   4.004   9.333 -0.0767  0.1955  0.4512
14930PP      PP25034   5.566   0.377  13.694 -0.2355  0.1211  0.0495
14931PP      PP25035   0.487  10.252  10.753 -0.6631 -0.3199  0.0750
14932PP      PP25036  12.610   8.666   3.867  0.1558  0.0308  0.0750
14933PP      PP25037   5.458   6.553   2.915 -0.2224  0.2908 -0.0233
14934PP      PP25038  13.222  14.127   3.881  0.1294 -0.2514 -0.0985
14935PP      PP25039   5.670  10.194  10.066 -0.0185  0.1765  0.0071
14936PP      PP25040   4.961   5.289   0.328  0.1189 -0.0045  0.0197
14937PP      PP25041   9.028   4.437  13.498 -0.1124 -0.1348 -0.2714
14938PP      PP25042   3.667  11.628  12.532 -0.1132 -0.3051  0.2817
14939PP      PP25043   9.494   5.498   0.556 -0.0636 -0.2344 -0.1327
14940PP      PP25044  14.169  10.148  10.520  0.2174 -0.1014  0.1041
14941PP      PP25045   5.432   6.836  10.781  0.1446 -0.0547 -0.5281
14942PP      PP25046  13.987  14.428   1.164  0.0480 -0.2077  0.2664
14943PP      PP25047  10.589   3.592  12.826 -0.4074 -0.3757  0.2735
14944PP      PP25048   4.814   6.298  11.938 -0.3621  0.1728 -0.3529
14945PP      PP25049  11.657   9.664   1.509  0.1548  0.0502  0.1162
14946PP      PP25050   5.339  15.296   0.540 -0.3771  0.3314 -0.0816
14947PP      PP25051   9.597   6.765   2.257 -0.3736  0.0457  0.1073
14948PP      PP25052   4.302   5.053   9.044  0.3158 -0.1871 -0.1770
14949PP      PP25053   7.807   8.246   3.271  0.0599  0.0893  0.3013
14950PP      PP25054  13.185  15.512   1.597  0.1747 -0.0463 -0.2655
14951PP      PP25055  14.183   9.533   0.682  0.2227  0.1692 -0.0159
14952PP      PP25056   4.090   9.711  12.865  0.1468  0.1419 -0.1741
14953PP      PP25057  13.646  11.738   2.620  0.3408 -0.1521 -0.0286
14954PP      PP25058  14.578   6.588  12.439  0.1793  0.0155 -0.1446
14955PP      PP25059  14.234  14.108  12.077  0.1431  0.1922  0.1960
14956PP      PP25060  12.939   8.709  10.628 -0.0675  0.0499  0.1771
14957PP      PP25061  10.917   8.520   3.602  0.1016  0.3074 -0.0190
14958PP      PP25062   6.215  12.733   3.438  0.1256 -0.0417  0.0015
14959PP      PP25063  11.686   7.245   3.273 -0.1991 -0.1645 -0.1297
14960PP      PP25064   4.787  13.388   2.226 -0.0163  0.4220 -0.1692
14961PP      PP25065   7.426   4.762  11.716 -0.0062 -0.1482 -0.2381
14962PP      PP25066   7.263  13.070   0.617  0.2091  0.0178  0.0125
14963PP      PP25067  11.848  15.412   1.037 -0.1068  0.0405 -0.0259
14964PP      PP25068   2.261  10.910  10.528 -0.0541  0.2861  0.0549
14965PP      PP25069   5.830  15.381   2.557  0.0471 -0.0509  0.1043
14966PP      PP25070   5.145   7.527   2.734 -0.1311  0.0136 -0.0745
14967PP      PP25071   5.819   2.578   9.925 -0.1038  0.0460 -0.0911
14968PP      PP25072  11.868   1.947  12.003  0.0522 -0.1488 -0.1225
14969PP      PP25073   6.514  14.209  12.569 -0.2046  0.0974 -0.1667
14970PP      PP25074  13.589   0.933   4.436 -0.1819  0.0732  0.3579
14971PP      PP25075  13.770   1.077  12.013  0.2883 -0.3612 -0.0837
14972PP      PP25076  14.751  13.609  10.763 -0.0169 -0.2171 -0.0863
14973PP      PP25077  14.647   7.462  12.735 -0.0179  0.1270 -0.1600
14974PP      PP25078  12.298  12.575  13.013 -0.1684  0.1012  0.3785
14975PP      PP25079   1.856  14.009   0.610  0.1647 -0.1457 -0.1873
14976PP      PP25080   4.268   3.298  13.442 -0.2463 -0.0070  0.0410
14977PP      PP25081   8.289  10.412   1.490  0.1443  0.0284 -0.3922
14978PP      PP25082   0.062  10.359   4.355 -0.2522 -0.3189 -0.0278
14979PP      PP25083   4.046  10.966  13.524  0.3742 -0.0603 -0.2621
14980PP      PP25084   4.011   1.822  12.914 -0.3623 -0.2321  0.2296
14981PP      PP25085  12.186   9.606   3.682 -0.0909  0.0904  0.0913
14982PP      PP25086   9.253   6.243   8.548  0.1091  0.1671  0.2108
14983PP      PP25087   9.222  14.964   9.646 -0.0283  0.0827  0.3480
14984PP      PP25088   2.173  12.610  10.497 -0.4487  0.3925  0.1513
14985PP      PP25089   5.250   2.796   1.140 -0.0327  0.2273 -0.2078
14986PP      PP25090   0.930   2.303  12.339  0.1452 -0.0904 -0.1876
14987PP      PP25091  13.447   9.327  11.874  0.2259 -0.1349  0.0353
14988PP      PP25092   0.784  15.025  10.237  0.2672  0.0790 -0.2970
14989PP      PP25093   3.869   6.466  11.448  0.2694 -0.0456  0.4047
14990PP      PP25094  13.419   9.842   2.481  0.2997 -0.1818  0.0228
14991PP      PP25095   6.221   0.110   1.592  0.0408 -0.1538 -0.0142
14992PP      PP25096  11.786  11.378  13.493  0.3548 -0.0308 -0.1132
14993PP      PP25097   3.186  14.694  11.622  0.2779  0.0596  0.3298
14994PP      PP25098   4.199  12.254   2.782 -0.1706 -0.1922 -0.3473
14995PP      PP25099  12.936   8.192  10.525 -0.0088  0.2137  0.2336
14996PP      PP25100   6.854   3.887   2.290  0.1725 -0.1827 -0.2560
14997PP      PP25101  10.391   3.592  10.266  0.0365  0.0468 -0.2652
14998PP      PP25102   0.403   9.168   3.083  0.2195 -0.2545  0.4797
14999PP      PP25103   4.550  12.838  13.329  0.3178 -0.2402  0.0496
15000PP      PP25104  10.428   5.395  12.097 -0.0715  0.1365 -0.0635
15001PP      PP25105   0.425   7.573   3.314 -0.1138 -0.0241  0.0336
15002PP      PP25106  14.695   9.302  11.972 -0.0388 -0.0753 -0.0004
15003PP      PP25107   7.717   2.619  11.090  0.2924  0.0440 -0.0477
15004PP      PP25108   7.098   8.623   1.901 -0.1042  0.3331 -0.1166
15005PP      PP25109   5.663   1.797   3.544  0.0807 -0.0274  0.1760
15006PP      PP25110   7.616   3.565  13.191 -0.1580 -0.0018  0.6249
15007PP      PP25111  15.261   7.608   9.504  0.1124 -0.0877 -0.1174
15008PP      PP25112  12.961   0.362  10.069  0.3740 -0.1820 -0.0577
15009PP      PP25113  11.932   2.034   3.894 -0.2584  0.0626 -0.1368
15010PP      PP25114   1.242  13.149   4.866 -0.0487 -0.3295 -0.1338
15011PP      PP25115  10.450   2.441   1.096 -0.0394 -0.1410 -0.1805
15012PP      PP25116  12.332   5.827   3.812 -0.2006 -0.0404 -0.2895
15013PP      PP25117   6.929   8.818   0.686  0.2497  0.1218  0.0482
15014PP      PP25118  10.124   2.628   0.699  0.0033 -0.1307  0.1128
15015PP      PP25119   0.651   3.324   2.815  0.3158 -0.1154 -0.3203
15016PP      PP25120  12.356   1.163  10.543  0.1203  0.2564 -0.0868
15017PP      PP25121   3.617   3.710   2.298 -0.1911 -0.1673 -0.0793
15018PP      PP25122   4.088  10.068   1.543  0.2879  0.0533 -0.1936
15019PP      PP25123   5.233   7.559  10.744  0.0622 -0.0934 -0.0055
15020PP      PP25124   1.721   6.759  10.610  0.1887 -0.1442 -0.2354
15021PP      PP25125   4.204   8.110   3.538 -0.1033 -0.1202  0.0320
15022PP      PP25126   8.613   5.998   0.434 -0.0191  0.1710 -0.4942
15023PP      PP25127   0.287  10.729  11.975 -0.3202 -0.1970  0.0824
15024PP      PP25128   9.243   6.970  13.341  0.1539 -0.1719  0.0372
15025PP      PP25129   5.783   6.494  13.206  0.1275  0.0152  0.1619
15026PP      PP25130   0.788   2.841   4.281 -0.1908  0.1801 -0.0433
15027PP      PP25131   1.812   5.329  10.045 -0.5864 -0.0738  0.1065
15028PP      PP25132   3.838   4.707   9.262  0.1012 -0.2732  0.0247
15029PP      PP25133   1.194   6.593   1.905  0.2467 -0.4198  0.3414
15030PP      PP25134  11.154  14.732   0.694  0.1904  0.1946 -0.5016
15031PP      PP25135   7.173  10.873   1.833 -0.0050  0.2163  0.1348
15032PP      PP25136   3.934   6.730   8.878  0.1405 -0.0535 -0.1347
15033PP      PP25137  14.073   5.336   0.646  0.0517  0.1080 -0.0587
15034PP      PP25138   1.740   5.884   0.576 -0.1943  0.1336 -0.1362
15035PP      PP25139   5.889   7.749   9.392 -0.0530  0.2314 -0.2915
15036PP      PP25140   7.739  13.146   0.683 -0.3939 -0.2200  0.0145
15037PP      PP25141   0.219   9.595  11.597 -0.1402 -0.2123  0.1347
15038PP      PP25142   5.788  10.393   9.085  0.0159  0.1432 -0.2254
15039PP      PP25143  13.298   7.647  13.520  0.0576 -0.1392  0.2369
15040PP      PP25144  14.038   0.796   4.147  0.2061  0.0180 -0.0213
15041PP      PP25145  10.813   9.237   5.625 -0.0754  0.0896  0.1961
15042PP      PP25146   6.327   8.024  10.856  0.2570 -0.4814 -0.1633
15043PP      PP25147   6.177  14.892  12.924  0.3549  0.0597 -0.1242
15044PP      PP25148   3.473   7.446   9.142  0.0463  0.1221  0.1219
15045PP      PP25149   8.227   7.700  11.811 -0.1882  0.0878  0.2627
15046PP      PP25150   2.580   1.545   3.813  0.3290  0.0715 -0.0942
15047PP      PP25151   4.866  14.385   9.970 -0.0018  0.3584 -0.2293
15048PP      PP25152   5.873  12.669  10.126  0.0249  0.0763  0.1120
15049PP      PP25153   0.342   3.486   1.271  0.3974  0.3098  0.1695
15050PP      PP25154  12.126  15.687   1.525 -0.1249 -0.2654  0.1617
15051PP      PP25155   6.774   9.873   3.523  0.4102 -0.3483 -0.0041
15052PP      PP25156   9.397   8.434  10.405 -0.1852 -0.3983 -0.0306
15053PP      PP25157   0.144   1.437   8.975  0.0270 -0.2069 -0.1167
15054PP      PP25158   4.708   8.374  13.248  0.0789 -0.0705  0.1031
15055PP      PP25159  11.523   2.289  12.365  0.1983 -0.0565 -0.2528
15056PP      PP25160  10.128   1.753   8.849  0.3808 -0.0431 -0.0074
15057PP      PP25161   8.954   7.351   2.173  0.0971 -0.3490  0.2786
15058PP      PP25162   3.669   5.364   0.652 -0.1620 -0.1897  0.2092
15059PP      PP25163  15.057   5.739   4.241  0.0284  0.1713 -0.1933
15060PP      PP25164  11.992   0.245  12.682 -0.2313 -0.1248 -0.0885
15061PP      PP25165   5.749   6.450   8.831 -0.0515  0.1654 -0.1078
15062PP      PP25166  13.634  12.745  10.995  0.0890  0.2380 -0.3525
15063PP      PP25167  11.634   6.711  10.877 -0.1541  0.1919  0.0833
15064PP      PP25168   7.437   2.146   7.770  0.0837 -0.0294 -0.3871
15065PP      PP25169  15.167   0.483   0.282 -0.1055 -0.2460  0.0322
15066PP      PP25170  13.948  13.429   1.140 -0.1562 -0.0562 -0.0038
15067PP      PP25171   6.087   9.421  11.791 -0.1207 -0.2295 -0.1617
15068PP      PP25172  11.441  12.079  12.783  0.0313  0.3867 -0.3093
15069PP      PP25173   3.076   5.382   1.130  0.0693  0.1823  0.2375
15070PP      PP25174   8.572   1.318  11.355  0.0801  0.0271 -0.3198
15071PP      PP25175   3.045   8.605   4.015  0.0124  0.3023 -0.1602
15072PP      PP25176   6.572  11.669  11.903 -0.0970  0.4272  0.1029
15073PP      PP25177  14.355   8.761  10.639 -0.1144  0.2189  0.0725
15074PP      PP25178   9.942   2.986  12.648  0.0709  0.2266  0.0291
15075PP      PP25179   6.333   0.687   0.758 -0.1962 -0.3884 -0.0950
15076PP      PP25180   4.174   9.604   8.864 -0.3616  0.1950 -0.0776
15077PP      PP25181   4.397  10.531   3.744  0.0403 -0.3547  0.0778
15078PP      PP25182   2.341  10.875   4.569 -0.3503  0.1012  0.0964
15079PP      PP25183  13.853   5.050  11.366  0.0971 -0.1864  0.0207
15080PP      PP25184  14.482   5.837   9.713 -0.0462  0.0296  0.1177
15081PP      PP25185   0.486   7.095   3.516  0.1856 -0.4828  0.1524
15082PP      PP25186   8.697   0.575   1.124  0.2692  0.0221 -0.2996
15083PP      PP25187  12.302   2.985  13.684 -0.1430  0.1859  0.1293
15084PP      PP25188   4.774  13.950   2.346 -0.2400 -0.0473  0.3189
15085PP      PP25189   1.255   8.827   9.513  0.1105 -0.1902  0.1061
15086PP      PP25190  13.326   6.033  11.810  0.1223  0.1940  0.3745
15087PP      PP25191   2.107  13.203   0.680 -0.1001  0.0232 -0.2187
15088PP      PP25192  11.784   9.854  11.771 -0.0635 -0.0153  0.1820
15089PP      PP25193   9.706  13.724  12.554  0.0725 -0.0859 -0.2087
15090PP      PP25194   0.156   5.238  12.920 -0.0837 -0.0982 -0.2132
15091PP      PP25195  14.439  13.677   9.499 -0.1238  0.2477 -0.0407
15092PP      PP25196   3.910   3.277  11.939  0.2127  0.5805 -0.1170
15093PP      PP25197   0.334  13.694  13.686 -0.1334 -0.2563  0.0978
15094PP      PP25198   8.847  12.799  11.990  0.2800  0.2261  0.1093
15095PP      PP25199   5.617   5.824   9.010  0.3171  0.1073  0.0255
15096PP      PP25200   9.159  10.033   2.708 -0.2689  0.3353  0.0688
15097PP      PP25201  12.417   3.043   1.037 -0.0296 -0.1324  0.2300
15098PP      PP25202  10.985  14.167   3.316 -0.0670 -0.0020  0.1085
15099PP      PP25203   2.133   9.326   9.217 -0.0350  0.1400 -0.1222
15100PP      PP25204  11.647   1.789   3.507  0.3523  0.0210 -0.2105
15101PP      PP25205  15.587   1.875  13.033  0.0537  0.1633  0.3279
15102PP      PP25206  14.152   2.485   4.138  0.2175 -0.1026  0.3019
15103PP      PP25207  13.639   3.126   0.088 -0.0768  0.1223 -0.0768
15104PP      PP25208   5.875  11.467   3.672 -0.1942 -0.1061 -0.3805
15105PP      PP25209   4.382   2.583   1.952 -0.0597 -0.0991 -0.1777
15106PP      PP25210   8.003  13.713   4.646 -0.0514 -0.1024 -0.1755
15107PP      PP25211   6.928   0.376  12.444  0.1429  0.0375 -0.1096
15108PP      PP25212  14.093  11.179   4.722 -0.1252 -0.3173 -0.3698
15109PP      PP25213   0.720   5.255  11.519  0.1576 -0.0266 -0.2727
15110PP      PP25214   8.711   8.718   9.946  0.3855  0.0582 -0.0698
15111PP      PP25215  11.794  12.331   4.770 -0.1462  0.1583 -0.0726
15112PP      PP25216  13.704   6.712  11.529 -0.2971 -0.0325 -0.2579
15113PP      PP25217   1.482   1.249   2.247  0.1996 -0.2733  0.0377
15114PP      PP25218   2.596   9.460   2.079  0.2434  0.3867  0.1080
15115PP      PP25219  13.387  10.364  10.628  0.2486  0.1095 -0.4123
15116PP      PP25220  11.458   3.495  12.883  0.0336  0.3433  0.1133
15117PP      PP25221  14.975   7.503  13.208  0.1598 -0.0738  0.0175
15118PP      PP25222   6.136  12.226  11.456 -0.2517  0.3234 -0.2026
15119PP      PP25223   8.641   2.418   6.912 -0.2149 -0.0308  0.0044
15120PP      PP25224   6.612   1.468   1.947  0.1089  0.1013 -0.1550
15121PP      PP25225   3.508   3.141  10.643  0.2386 -0.0899 -0.1985
15122PP      PP25226   9.873   7.910   2.806 -0.0143 -0.0188 -0.0526
15123PP      PP25227   5.805  11.209  12.302  0.1409 -0.0213 -0.0002
15124PP      PP25228   6.484  11.328   9.703  0.1809 -0.1241  0.1464
15125PP      PP25229   3.752   9.596   1.769 -0.0838 -0.1020  0.3871
15126PP      PP25230  14.275   5.402   2.798 -0.0456  0.2334 -0.1100
15127PP      PP25231  14.979   9.879   1.051  0.3995 -0.1430  0.1387
15128PP      PP25232  10.658   8.083   1.001  0.0597 -0.0686 -0.2006
15129PP      PP25233  13.533   3.439  13.359 -0.4120  0.1104 -0.2030
15130PP      PP25234  11.704   4.726  11.873 -0.1371 -0.0592  0.0697
15131PP      PP25235  12.918   2.992   1.697  0.5198  0.3054 -0.2598
15132PP      PP25236   4.944  11.436  11.460 -0.4027 -0.2920  0.1502
15133PP      PP25237  14.797   3.069   0.820  0.2082  0.3681 -0.1657
15134PP      PP25238   6.612  11.937   4.276 -0.0416 -0.1714 -0.1187
15135PP      PP25239   6.334   9.719   9.536  0.0518 -0.0705  0.1089
15136PP      PP25240   0.667  13.410   9.643 -0.3079 -0.1034  0.1381
15137PP      PP25241   1.434  12.776  11.755  0.1253 -0.1661 -0.0288
15138PP      PP25242   1.267   7.227  13.657  0.2929  0.1382  0.0142
15139PP      PP25243   1.565   6.545   3.528 -0.1601  0.1251  0.1337
15140PP      PP25244  14.365  12.381  11.377 -0.2154  0.4407  0.0463
15141PP      PP25245   3.354  10.370   2.771 -0.1023  0.2912  0.1478
15142PP      PP25246   5.561   8.937   0.277  0.1277 -0.0496  0.1941
15143PP      PP25247   0.131   8.488   4.346  0.0849  0.1173  0.0647
15144PP      PP25248  14.217  12.701  13.380 -0.1175 -0.1106  0.1322
15145PP      PP25249   6.912   9.777   0.252 -0.2764 -0.2003  0.3574
15146PP      PP25250   9.979  11.531  10.388 -0.0808  0.2236 -0.0776
15147PP      PP25251   1.360   0.716   2.280 -0.2576 -0.1248  0.5104
15148PP      PP25252   0.506  15.201  11.876 -0.1424  0.1423 -0.1157
15149PP      PP25253   0.450   6.292   0.653 -0.1480 -0.3550 -0.0739
15150PP      PP25254  10.819  10.907   1.192 -0.1019 -0.1167 -0.1461
15151PP      PP25255  10.974   8.663   5.490  0.0401 -0.2294 -0.0976
15152PP      PP25256  10.454   7.312   2.535 -0.1251 -0.3269 -0.2191
15153PP      PP25257  10.204   0.630   3.481 -0.1035  0.2075 -0.1259
15154PP      PP25258   7.400  10.785   0.160  0.0007 -0.2587 -0.1222
15155PP      PP25259   1.154   8.347  11.941 -0.2298  0.3007  0.0593
15156PP      PP25260   0.334   1.879   3.294 -0.0794 -0.1034  0.2857
15157PP      PP25261  11.690   4.094  10.837 -0.0971  0.1613  0.0002
15158PP      PP25262   0.810  13.632   2.322 -0.3582 -0.0490  0.4997
15159PP      PP25263  11.610   5.890   1.971  0.1266  0.2532  0.2013
15160PP      PP25264  10.463   0.275   1.827  0.1766 -0.2007  0.4765
15161PP      PP25265   7.417   1.408  10.381  0.2398 -0.0429 -0.0950
15162PP      PP25266  14.016   0.923   2.725  0.0794  0.0451  0.0717
15163PP      PP25267   0.218   7.287   9.962  0.1744  0.2831 -0.0308
15164PP      PP25268  14.730   3.289   2.204 -0.0621 -0.1423  0.0870
15165PP      PP25269  12.778   2.169  13.509 -0.2201 -0.0518  0.2961
15166PP      PP25270  13.867  11.649  11.427 -0.1308  0.0506 -0.1542
15167PP      PP25271  14.276   8.263   1.839 -0.0349  0.1802 -0.0543
15168PP      PP25272   6.646   9.327   2.420 -0.1803 -0.1744 -0.0195
15169PP      PP25273   4.725   7.397   2.355  0.0919 -0.3042 -0.1600
15170PP      PP25274  10.675   3.246   1.704 -0.0068  0.0995  0.1140
15171PP      PP25275   3.348   7.037  11.297 -0.0378  0.1817 -0.0234
15172PP      PP25276  15.517   8.624  13.104 -0.2292 -0.0762 -0.0235
15173PP      PP25277   1.460   1.217   8.823  0.2541  0.1361  0.0927
15174PP      PP25278   4.610   4.792  11.366 -0.1965  0.3105  0.1054
15175PP      PP25279   1.821   0.887  13.070 -0.2369 -0.2302  0.0240
15176PP      PP25280   1.983  15.015   3.392  0.1721  0.1351 -0.1547
15177PP      PP25281  11.946  11.588  11.639  0.0400 -0.1509  0.3497
15178PP      PP25282   3.930   9.408   8.401 -0.0962  0.1267 -0.0091
15179PP      PP25283   6.508   1.995   2.772 -0.1097 -0.0681 -0.0555
15180PP      PP25284   3.036   6.839   8.600  0.1966  0.0352  0.2848
15181PP      PP25285  11.317   8.342   4.082 -0.2732  0.0547 -0.3810
15182PP      PP25286  12.802   8.635  12.048 -0.1421  0.2084  0.0206
15183PP      PP25287   1.272   6.072  12.308  0.2610 -0.1457 -0.0135
15184PP      PP25288   2.869   9.795  11.870  0.2084 -0.0488  0.1239
15185PP      PP25289   1.341   2.051  10.678 -0.1081 -0.3736  0.1260
15186PP      PP25290  11.134   3.276   1.478 -0.2287  0.2179 -0.0101
15187PP      PP25291   7.881   1.688   9.272 -0.0375 -0.4391  0.0401
15188PP      PP25292  11.491   8.208   1.129 -0.1137 -0.1948  0.0294
15189PP      PP25293   7.372   2.174  12.715  0.0536 -0.1980 -0.0142
15190PP      PP25294  12.186   8.251   1.828  0.1463 -0.1223 -0.0116
15191PP      PP25295  11.828  14.771  12.414 -0.1487 -0.1389 -0.2334
15192PP      PP25296  12.357   3.191  10.710 -0.1024 -0.0713  0.0320
15193PP      PP25297  10.220   3.431  12.498 -0.0178 -0.0188  0.0622
15194PP      PP25298   7.348   2.378   1.953  0.1689 -0.1252  0.1413
15195PP      PP25299   2.048   5.343   3.798  0.0551 -0.5846  0.2981
15196PP      PP25300  13.362   6.516  10.645 -0.1057 -0.0858  0.1626
15197PP      PP25301   7.755  12.864   3.347  0.0034  0.2216  0.0407
15198PP      PP25302   3.388   3.443  11.143  0.1040 -0.0485 -0.1056
15199PP      PP25303   3.051   4.640   1.050 -0.6340 -0.1794 -0.2699
15200PP      PP25304  10.249   7.369   4.345  0.3137  0.1338  0.3815
15201PP      PP25305   2.871   1.679   2.727 -0.0154  0.2611  0.0346
15202PP      PP25306  10.296  10.047  12.421 -0.1028  0.0919 -0.0178
15203PP      PP25307   4.065   3.220   0.659 -0.2771 -0.1396 -0.0041
15204PP      PP25308  15.061   5.924   0.137  0.3953  0.1598 -0.0597
15205PP      PP25309  11.065   2.399   3.673 -0.1405  0.0682  0.1698
15206PP      PP25310   1.228   5.316  11.273 -0.1093 -0.0135 -0.2463
15207PP      PP25311   8.038  15.586   9.078  0.0969 -0.0300  0.1424
15208PP      PP25312   3.109  13.549  13.350 -0.0148  0.0006  0.0336
15209PP      PP25313  12.259   4.549  12.839 -0.0120 -0.2930 -0.3652
15210PP      PP25314   1.603   8.038   4.154 -0.3266  0.3396  0.3941
15211PP      PP25315   0.330  15.621   0.892 -0.2700  0.0414  0.0513
15212PP      PP25316   6.346  12.847   2.628 -0.1711 -0.1478 -0.1034
15213PP      PP25317  11.934   1.883  12.548 -0.0059  0.3576 -0.2176
15214PP      PP25318   8.601   0.714  10.002  0.1320  0.1775 -0.1088
15215PP      PP25319   0.049   2.773   0.341  0.0343 -0.2396 -0.0571
15216PP      PP25320  11.116   1.204  13.723  0.1491  0.1820  0.1389
15217PP      PP25321   3.057   5.585  10.902  0.0765  0.3240 -0.0640
15218PP      PP25322   0.382  14.696  13.538  0.1291 -0.1750  0.2334
15219PP      PP25323   4.196  15.252   0.090 -0.1082 -0.1721  0.1427
15220PP      PP25324  13.229  15.455   5.243 -0.2668  0.4345 -0.1627
15221PP      PP25325   6.717  11.024   3.763  0.1339  0.2048 -0.0777
15222PP      PP25326   7.481  11.687  13.604 -0.3169 -0.2631 -0.2694
15223PP      PP25327   7.592   5.443   7.819  0.2381 -0.0361 -0.1822
15224PP      PP25328  10.141   5.863   1.920  0.1011 -0.3634  0.0166
15225PP      PP25329  13.545  15.321  13.526  0.1502  0.2743 -0.3156
15226PP      PP25330  11.489  13.379   2.770  0.1818  0.0966  0.0880
15227PP      PP25331  11.134  11.005   0.276 -0.0490 -0.0690 -0.0659
15228PP      PP25332   2.980  14.593  12.066 -0.0762  0.0603 -0.2093
15229PP      PP25333   4.653   5.686   0.150 -0.1769 -0.1282  0.3137
15230PP      PP25334   5.677   2.936   1.589  0.0977  0.1838  0.3296
15231PP      PP25335   3.567  14.103   3.769  0.0156  0.0290 -0.2124
15232PP      PP25336   5.674  11.112   9.955 -0.0038 -0.0746  0.0385
15233PP      PP25337  12.438   1.511   4.461  0.1084  0.1753 -0.0520
15234PP      PP25338   9.556  11.021  12.259 -0.0762 -0.2013  0.2719
15235PP      PP25339   8.526  10.087   9.479 -0.0358 -0.2096  0.0487
15236PP      PP25340   7.085  12.860   4.239  0.0822 -0.2133  0.3183
15237PP      PP25341   3.058   8.043   0.883  0.3204 -0.2687 -0.0711
15238PP      PP25342  10.977   3.823   9.503  0.1326  0.2241  0.2095
15239PP      PP25343  14.876  11.723   2.920  0.0023  0.2100 -0.1432
15240PP      PP25344  13.104   9.668   9.907 -0.1567  0.0561  0.3015
15241PP      PP25345  12.743  11.727   9.549 -0.1211  0.0226  0.0809
15242PP      PP25346   0.011   4.959   3.351 -0.3722  0.1857  0.1609
15243PP      PP25347  11.426  15.185   1.338  0.0571  0.0319  0.0354
15244PP      PP25348   7.235   2.767   0.970  0.1453  0.0957  0.0236
15245PP      PP25349  15.734  10.041  12.470  0.2798  0.1688  0.0996
15246PP      PP25350   5.970   0.150   8.572 -0.0463 -0.4457 -0.2449
15247PP      PP25351   7.222   3.220  13.214  0.0712 -0.0458 -0.0086
15248PP      PP25352  10.082   7.649  11.865 -0.2012 -0.1474  0.0634
15249PP      PP25353   7.524  14.068   9.262 -0.0108  0.0916  0.0026
15250PP      PP25354   8.984   3.400  12.101  0.4059 -0.2073 -0.1558
15251PP      PP25355  13.463  10.893  10.796 -0.0093  0.0946 -0.0515
15252PP      PP25356  12.313  14.490   0.482  0.1155 -0.3425 -0.2476
15253PP      PP25357  11.217   7.837   2.152  0.2732  0.2508  0.0311
15254PP      PP25358  14.515  12.154  13.298  0.1496  0.1941 -0.1039
15255PP      PP25359   8.391   4.118   8.578 -0.0144 -0.0535 -0.2637
15256PP      PP25360   1.314   1.705   2.527  0.0924 -0.0578 -0.0889
15257PP      PP25361  12.386  12.600   4.726  0.2300 -0.0495  0.0643
15258PP      PP25362  13.756   5.138  10.352  0.1857  0.0613  0.0871
15259PP      PP25363   0.800  12.904  11.899  0.3959  0.1015 -0.1046
15260PP      PP25364   7.343  11.285  11.212  0.3789  0.0986  0.1259
15261PP      PP25365  10.214   2.195  12.869 -0.1848  0.0920 -0.0422
15262PP      PP25366   7.260  12.897  10.452  0.2392 -0.0983  0.1217
15263PP      PP25367   1.695   2.403  11.331  0.0128 -0.4737  0.0560
15264PP      PP25368   3.865  10.829   3.186  0.0225  0.3724  0.1707
15265PP      PP25369   4.143   0.165   9.160  0.1499  0.2224 -0.0835
15266PP      PP25370   4.868   5.195  10.604 -0.0681  0.0641 -0.3025
15267PP      PP25371   0.427   2.459  12.428 -0.1081 -0.0914  0.2559
15268PP      PP25372   6.762   7.629   3.332  0.1996 -0.0299 -0.2740
15269PP      PP25373   1.544   5.655  12.288 -0.2497  0.0922  0.3049
15270PP      PP25374   0.849  14.570  13.541  0.1803  0.1394 -0.3132
15271PP      PP25375  12.354   6.532  13.402  0.2969  0.1387 -0.2455
15272PP      PP25376   0.319   4.212   0.057 -0.1526 -0.1422 -0.1433
15273PP      PP25377   5.837   3.092   0.779  0.2848 -0.0415  0.0248
15274PP      PP25378  12.118   5.107  10.727  0.2668  0.1010  0.1421
15275PP      PP25379   9.400   7.122   0.784  0.1941 -0.1767  0.0484
15276PP      PP25380   7.249   2.374   8.826 -0.1307  0.1936 -0.2492
15277PP      PP25381   0.186   7.467   1.736 -0.1670 -0.0739  0.0280
15278PP      PP25382   6.013   1.460   1.315 -0.2251  0.0169 -0.1931
15279PP      PP25383   9.488   8.239   3.255 -0.2800 -0.2087  0.1396
15280PP      PP25384   7.449  12.593   2.406  0.3790  0.0890 -0.0103
15281PP      PP25385  12.738   8.169   1.971  0.0887  0.0002 -0.1536
15282PP      PP25386  10.132  10.318   5.162 -0.1299  0.0983  0.2296
15283PP      PP25387   6.885   2.384  12.565 -0.0153 -0.2648  0.0082
15284PP      PP25388  12.160   2.926  13.204 -0.1405  0.1080  0.0019
15285PP      PP25389   2.615   2.230  13.640  0.0195 -0.0617 -0.2123
15286PP      PP25390  15.341   4.960  11.606 -0.1844  0.0401 -0.0598
15287PP      PP25391   1.327   8.993  11.161  0.0261  0.0649  0.1757
15288PP      PP25392   4.455  12.159   4.073  0.0318 -0.0809  0.2456
15289PP      PP25393   0.826  12.516   0.788  0.0598 -0.0032  0.0938
15290PP      PP25394  13.024  15.387   2.982  0.0953  0.2003 -0.0905
15291PP      PP25395  12.233   9.046  12.627 -0.2045  0.3355  0.1947
15292PP      PP25396  13.712  11.125  10.009 -0.0222  0.2527 -0.2963
15293PP      PP25397  10.248   3.929  12.385 -0.3482 -0.2526  0.0446
15294PP      PP25398   1.124  11.895  11.075 -0.0181 -0.1184  0.0504
15295PP      PP25399  10.904   0.219   4.816 -0.0449 -0.2614  0.0631
15296PP      PP25400   0.535   0.776   3.854 -0.0128 -0.0410 -0.1571
15297PP      PP25401  12.219  13.442  10.239 -0.1599  0.0946 -0.2495
15298PP      PP25402   0.929   6.784  10.260 -0.1027  0.0436 -0.2013
15299PP      PP25403   3.114   2.353   0.843  0.1083 -0.1340  0.1732
15300PP      PP25404  11.783   5.088  10.196  0.0806  0.0952 -0.0746
15301PP      PP25405  10.418   4.893   9.994 -0.1610  0.0997 -0.0115
15302PP      PP25406  15.507  13.089  10.577  0.1039  0.0873 -0.2093
15303PP      PP25407   4.718   7.772   8.077  0.0833 -0.1017  0.2153
15304PP      PP25408   5.260   5.234  10.236 -0.0289  0.0656 -0.1117
15305PP      PP25409   2.214   0.328  11.354 -0.1954  0.0401  0.0409
15306PP      PP25410   7.511   8.969   2.045 -0.0671  0.1372  0.1617
15307PP      PP25411   0.418   9.238  13.466 -0.1382 -0.0630 -0.0228
15308PP      PP25412   2.935   1.255  13.397 -0.1603 -0.1885 -0.0843
15309PP      PP25413  12.116  12.432   1.845 -0.0895 -0.0797 -0.1980
15310PP      PP25414  12.855   3.381  12.093 -0.2094  0.1589 -0.0345
15311PP      PP25415   5.158   3.079  10.380  0.0146  0.0532 -0.1965
15312PP      PP25416   2.273  12.815   4.668 -0.1692  0.0613 -0.0333
15313PP      PP25417   6.130  13.118  11.078 -0.0614 -0.3343  0.1122
15314PP      PP25418   3.168  13.662  11.183 -0.1420  0.0796 -0.1200
15315PP      PP25419  13.809   0.367  13.370  0.2150  0.0752 -0.0730
15316PP      PP25420   5.449   6.426   0.365 -0.1347  0.1061 -0.1585
15317PP      PP25421  11.325  12.566   0.898  0.2627 -0.4725 -0.0507
15318PP      PP25422  13.104  13.860  13.529  0.0280  0.0677  0.2217
15319PP      PP25423  12.354   4.476   4.100 -0.1603  0.1510 -0.0851
15320PP      PP25424  13.958   9.474  12.532  0.0553  0.3235 -0.0171
15321PP      PP25425   1.529   8.484   2.971  0.0127 -0.0256  0.3904
15322PP      PP25426  13.707   6.454   9.702  0.3554  0.0900  0.3288
15323PP      PP25427  14.348   4.528  10.762  0.2828 -0.0968  0.0201
15324PP      PP25428   7.922  15.337   3.763 -0.0717 -0.0400 -0.1197
15325PP      PP25429  11.206   4.340   2.711 -0.1922  0.1118  0.0849
15326PP      PP25430   9.129  14.295  11.910 -0.1143  0.1955 -0.1469
15327PP      PP25431  12.302  12.976   5.078 -0.3394 -0.4264  0.1562
15328PP      PP25432   9.815   9.812  11.491 -0.5611  0.0053  0.1455
15329PP      PP25433  11.609   2.464   1.979 -0.1715 -0.1414 -0.2662
15330PP      PP25434  10.963  12.446  11.999 -0.0869 -0.0870 -0.0670
15331PP      PP25435   7.100  11.464   3.709 -0.1506 -0.1782  0.0418
15332PP      PP25436   9.897   2.879   2.175 -0.0334 -0.2037 -0.2018
15333PP      PP25437   8.703   2.389   8.211 -0.1768  0.0746  0.1021
15334PP      PP25438   5.106   6.666   2.513  0.1512 -0.1847  0.0472
15335PP      PP25439   2.737   1.147  11.616 -0.0227 -0.0933 -0.1606
15336PP      PP25440   1.323   8.585  10.429 -0.1833 -0.2856 -0.0056
15337PP      PP25441  13.484  15.254   4.718  0.0232  0.0192  0.0584
15338PP      PP25442   3.516   2.579  10.332  0.0302 -0.1483 -0.0821
15339PP      PP25443  10.598   2.583   1.845  0.2545  0.1140  0.1666
15340PP      PP25444  13.081   6.590   3.077 -0.5028 -0.0995  0.0206
15341PP      PP25445  13.461   5.028  13.548 -0.2595 -0.3971  0.1404
15342PP      PP25446   8.623   8.253   2.070  0.0908 -0.2249 -0.3846
15343PP      PP25447  13.773   6.064   3.248  0.1597  0.2624  0.0792
15344PP      PP25448   3.217   9.447  13.374  0.1015  0.0671  0.2333
15345PP      PP25449   5.072   2.028   1.322 -0.1214  0.0639  0.2101
15346PP      PP25450  10.346   5.943   2.871  0.1623 -0.1090  0.0628
15347PP      PP25451   1.227   3.529   3.276  0.2093  0.1437  0.2191
15348PP      PP25452  11.909   0.816   3.537  0.0964 -0.1139 -0.0226
15349PP      PP25453  14.322   8.362  13.466  0.0993 -0.0667  0.3039
15350PP      PP25454   9.849  14.329   2.442 -0.0602  0.2672  0.1928
15351PP      PP25455  13.055   3.864   2.570 -0.1240  0.0230 -0.1413
15352PP      PP25456  10.658   5.585  10.630  0.1696  0.2988  0.1223
15353PP      PP25457   4.904   0.613  13.367  0.1342 -0.1738 -0.1035
15354PP      PP25458   8.148   8.405   2.022  0.0967  0.0152 -0.2764
15355PP      PP25459   7.201   5.732   1.946  0.1194 -0.0969  0.1416
15356PP      PP25460   3.736   8.091   3.458 -0.0828  0.1200 -0.1748
15357PP      PP25461  10.324   0.480  11.165 -0.2883  0.0611  0.4259
15358PP      PP25462   6.249  13.636   9.868 -0.1380  0.1084  0.0333
15359PP      PP25463   7.418   8.603  11.897 -0.1552  0.3217  0.2606
15360PP      PP25464  15.693   4.563   0.447 -0.0290  0.2411  0.0895
15361PP      PP25465   6.142  14.330  10.675  0.0005  0.1611 -0.0830
15362PP      PP25466   9.664   9.599   1.253 -0.0877  0.0555 -0.0556
15363PP      PP25467  14.677  12.589  13.464  0.2525  0.0011  0.1058
15364PP      PP25468  13.765  10.692   2.911  0.2803  0.0464 -0.1849
15365PP      PP25469   2.932   9.438   9.382  0.0993 -0.0220  0.2901
15366PP      PP25470   8.225  14.732  10.158 -0.0193  0.1054  0.0424
15367PP      PP25471  13.960  14.398  10.076  0.4184 -0.0869  0.0464
15368PP      PP25472   4.835   1.482  12.445  0.0592 -0.2841  0.3464
15369PP      PP25473   7.851  13.497   3.828  0.0798  0.2397 -0.0155
15370PP      PP25474  10.457   8.387   3.200 -0.0074  0.0209  0.1411
15371PP      PP25475   5.733   2.921  10.379 -0.2685 -0.0616  0.0773
15372PP      PP25476   0.621  13.424   3.006 -0.1129 -0.1841 -0.2503
15373PP      PP25477   6.685   8.014   2.979  0.0975  0.1957 -0.0109
15374PP      PP25478   7.927  13.082   4.214 -0.0028  0.1350  0.2075
15375PP      PP25479   7.563   3.965   9.626  0.1952 -0.2112 -0.0355
15376PP      PP25480  13.266   5.510  10.713  0.3686  0.2222  0.0813
15377PP      PP25481   2.784   5.914   0.258 -0.1520  0.1787 -0.0555
15378PP      PP25482  13.299  13.869  11.563  0.0474  0.1364  0.0652
15379PP      PP25483  10.525  10.259   4.459  0.0718  0.1942 -0.0637
15380PP      PP25484  11.573  14.505   0.906  0.2549 -0.1667 -0.2171
15381PP      PP25485   9.837   6.605   8.814  0.1393 -0.0680  0.1505
15382PP      PP25486  11.328  10.628   4.189 -0.0291 -0.0041 -0.3009
15383PP      PP25487  15.691   6.758  10.719  0.0602 -0.2446  0.2828
15384PP      PP25488  14.375  13.940   9.048  0.1484 -0.0246 -0.2106
15385PP      PP25489  15.105  12.892   1.482 -0.1050  0.2008  0.3192
15386PP      PP25490  10.251   8.232  13.352 -0.1465 -0.1303 -0.2692
15387PP      PP25491   2.606  10.520   4.229  0.0835 -0.1443 -0.3369
15388PP      PP25492   2.578   1.416  12.465  0.2205  0.3183 -0.2745
15389PP      PP25493   1.573   3.842   9.334  0.3439  0.0586 -0.2067
15390PP      PP25494  15.565  14.201   7.819  0.0753  0.3490 -0.1415
15391PP      PP25495   2.653  13.211  11.894 -0.2914  0.0289  0.0220
15392PP      PP25496   1.752   9.494  10.863  0.0472  0.0634  0.2793
15393PP      PP25497   1.122  11.639   1.140  0.2840  0.2420  0.2611
15394PP      PP25498   9.751  14.280   4.621  0.0651  0.0453  0.1297
15395PP      PP25499  14.603  14.840   3.830 -0.3458 -0.1826 -0.1723
15396PP      PP25500   6.766  10.933   9.202 -0.2324 -0.1481 -0.2283
15397PP      PP25501   2.177  14.147  12.100  0.0872 -0.0367 -0.1850
15398PP      PP25502   5.528   6.865   9.638 -0.0285 -0.1151  0.0150
15399PP      PP25503  13.885   9.064  13.326  0.3310  0.1473  0.2662
15400PP      PP25504  15.555  10.486   2.190 -0.0935  0.0713  0.1146
15401PP      PP25505  15.158   5.697   1.057  0.0577  0.1048 -0.3645
15402PP      PP25506  11.245  10.272   9.905  0.3563  0.2419  0.0469
15403PP      PP25507   7.796   6.122   1.030 -0.2907 -0.0175 -0.0766
15404PP      PP25508   7.003   1.074  10.104  0.2409 -0.1142  0.1675
15405PP      PP25509  13.395   8.897   2.576  0.1796 -0.3995  0.0534
15406PP      PP25510   0.862   3.534  10.791  0.0632  0.1115  0.1205
15407PP      PP25511   2.685  15.492   1.628 -0.0041 -0.0650  0.1571
15408PP      PP25512   0.680   0.552  11.036  0.1326 -0.2723  0.1511
15409PP      PP25513  13.945  14.156   0.307  0.0157  0.1656  0.1275
15410PP      PP25514   4.130   8.105   2.236 -0.1022  0.1098 -0.0236
15411PP      PP25515  14.384   2.113   4.338  0.2892  0.0303 -0.2954
15412PP      PP25516  13.902   5.789   0.464 -0.0188 -0.0230 -0.0904
15413PP      PP25517   5.042  15.085  11.215 -0.0694  0.2384  0.4286
15414PP      PP25518   7.358   6.370  12.147 -0.0752 -0.0144 -0.0683
15415PP      PP25519  10.687  15.087   1.802  0.2495 -0.0418 -0.0642
15416PP      PP25520   6.375  12.525   3.014  0.0510  0.1618  0.0909
15417PP      PP25521   0.623   0.286  13.629  0.3228  0.0438 -0.1158
15418PP      PP25522   5.015   6.770   3.060 -0.0462 -0.0874 -0.1818
15419PP      PP25523   3.577  11.940  12.911 -0.4173 -0.2439 -0.1103
15420PP      PP25524   8.587   7.707   2.342  0.1356  0.1336 -0.0395
15421PP      PP25525  14.370   7.553   1.017  0.0121 -0.1206 -0.0031
15422PP      PP25526   6.079   2.831   2.641 -0.1636  0.3300  0.0205
15423PP      PP25527  15.721  14.738   0.716  0.2785  0.1385  0.1605
15424PP      PP25528   4.927   5.692   2.477  0.4745 -0.1630 -0.0804
15425PP      PP25529   5.047   7.166  13.091  0.2496  0.1314  0.4132
15426PP      PP25530   6.437   7.090   9.983 -0.2509  0.1279 -0.1587
15427PP      PP25531   1.292  15.503  11.519 -0.0598 -0.3839 -0.2044
15428PP      PP25532  15.307   8.429  10.547 -0.3658  0.1031 -0.0385
15429PP      PP25533   4.097   1.776  11.193  0.0790 -0.1472  0.2395
15430PP      PP25534  13.925  12.239  11.089 -0.1578  0.4456  0.0693
15431PP      PP25535   8.279  12.262  11.091 -0.2227  0.1903  0.0002
15432PP      PP25536   1.208  11.612   3.493  0.0482 -0.2991 -0.1397
15433PP      PP25537   2.836  14.742   9.627  0.0343 -0.5193  0.2773
15434PP      PP25538   5.323  13.591   0.918  0.0893 -0.0175  0.0625
15435PP      PP25539  10.464  13.046   3.421  0.1159  0.0459 -0.4611
15436PP      PP25540   4.426   2.059   2.697 -0.0300  0.1877  0.1350
15437PP      PP25541   6.403   5.047   8.624  0.0390 -0.1975 -0.1482
15438PP      PP25542   9.454  13.328   4.237  0.4063 -0.0206  0.1912
15439PP      PP25543   1.162   4.120  10.172 -0.1181  0.0777  0.1464
15440PP      PP25544   2.263  12.813  11.831  0.0798 -0.1137 -0.1291
15441PP      PP25545  13.122   1.038   1.743  0.0618 -0.1441 -0.2850
15442PP      PP25546   3.042   4.746  11.535 -0.1209  0.2449  0.0240
15443PP      PP25547  15.454  12.105  12.464  0.0684  0.1516  0.0509
15444PP      PP25548   1.771  12.704   1.868 -0.0401 -0.2282 -0.0249
15445PP      PP25549   7.812  15.292   9.371  0.2226 -0.0383 -0.0260
15446PP      PP25550   1.353   5.146  10.850  0.0292 -0.0678  0.1041
15447PP      PP25551   3.502  14.396  10.317  0.0171  0.0515 -0.0410
15448PP      PP25552   5.237  14.886   3.526 -0.0998  0.1644  0.3596
15449PP      PP25553  11.392  15.195  10.253 -0.0287 -0.1597 -0.1218
15450PP      PP25554  13.660  10.120   1.239  0.1161  0.3353  0.0533
15451PP      PP25555   1.643   9.612   3.584  0.2174 -0.0031  0.1688
15452PP      PP25556   9.212  13.957   1.119 -0.3171 -0.0142 -0.1280
15453PP      PP25557   2.639  13.472  13.579 -0.1672  0.1157  0.1315
15454PP      PP25558   0.412   2.275   3.622  0.0171 -0.2451  0.3085
15455PP      PP25559   5.360  13.718  11.069  0.0610  0.2173  0.0489
15456PP      PP25560  11.339   8.101   4.525 -0.0193 -0.0184 -0.0082
15457PP      PP25561  13.431   8.994   0.425  0.1205 -0.1348  0.1439
15458PP      PP25562  11.364   4.527  11.558  0.0864  0.3132 -0.1250
15459PP      PP25563  13.162   6.933  13.575 -0.3194 -0.2985  0.3343
15460PP      PP25564   2.974  14.813  10.126  0.2135 -0.2939 -0.1935
15461PP      PP25565   3.514   5.330  13.472  0.3300  0.0212 -0.2035
15462PP      PP25566  14.290   7.889   3.863 -0.0056  0.3443 -0.1194
15463PP      PP25567  11.613   1.072   0.644  0.3180  0.2360 -0.1282
15464PP      PP25568   6.108   2.578  12.013  0.0221 -0.0032 -0.5551
15465PP      PP25569  12.168  14.851  10.879 -0.1760 -0.0707  0.2202
15466PP      PP25570  11.176  10.453   1.046 -0.3386 -0.0692  0.2514
15467PP      PP25571   8.262  15.723   3.558  0.2590  0.2070 -0.0553
15468PP      PP25572  14.597   9.196  10.521 -0.2517 -0.2306  0.1037
15469PP      PP25573  11.600  13.389   0.626  0.0428 -0.2587 -0.0414
15470PP      PP25574  14.676  14.904  12.596 -0.3236 -0.3193 -0.0412
15471PP      PP25575   1.833   7.888   9.398 -0.0418 -0.0944 -0.2520
15472PP      PP25576   2.302   6.123  11.921 -0.0670 -0.0820  0.1685
15473PP      PP25577   0.186   2.812  11.267 -0.0098 -0.1197  0.1548
15474PP      PP25578  13.364  15.371   9.888  0.0859 -0.1643  0.5615
15475PP      PP25579   1.882   6.901  12.661 -0.0441  0.2748 -0.0515
15476PP      PP25580   7.330  10.105   2.734  0.1524  0.0666  0.0526
15477PP      PP25581  13.415   9.301   4.177 -0.1021 -0.2492 -0.0318
15478PP      PP25582   1.361  10.880   9.799  0.1479 -0.0736  0.0165
15479PP      PP25583   6.031   5.787   1.906  0.1175  0.1834 -0.0004
15480PP      PP25584   3.647  11.979  10.239  0.4452  0.5538  0.6122
15481PP      PP25585  10.997   2.271   2.267 -0.1612 -0.0438 -0.1099
15482PP      PP25586   6.884   2.117   1.714 -0.2429  0.0489 -0.0047
15483PP      PP25587   8.490   9.172   5.014 -0.5246 -0.1399 -0.0811
15484PP      PP25588   4.451   8.675  12.826  0.1609  0.1185  0.1231
15485PP      PP25589   6.594   7.281  13.751 -0.1382  0.4323  0.0620
15486PP      PP25590   3.532   0.065  12.663 -0.3095  0.1962  0.3151
15487PP      PP25591   2.270   8.847  12.926  0.3143 -0.1210  0.0265
15488PP      PP25592  15.303   4.578  10.701  0.3977 -0.1971  0.1241
15489PP      PP25593  11.719  14.256   4.242 -0.0735  0.0259  0.2313
15490PP      PP25594  14.636   4.911   1.998  0.2999  0.1577  0.1919
15491PP      PP25595  10.714  12.681  10.487  0.1365 -0.1503  0.2432
15492PP      PP25596  13.357  12.035   0.999 -0.0509  0.0067  0.0850
15493PP      PP25597  13.604   2.503   0.288 -0.1022  0.0336  0.0819
15494PP      PP25598   8.887  10.669  12.921  0.0891 -0.1261  0.0613
15495PP      PP25599   8.959  15.160  10.225  0.1208  0.2321 -0.0197
15496PP      PP25600   4.145   8.752   9.892 -0.0856 -0.2111 -0.1818
15497PP      PP25601   8.737   8.178  11.668 -0.0352 -0.0820  0.3416
15498PP      PP25602   3.837   7.670  12.973  0.0702  0.1050  0.0978
15499PP      PP25603   9.049   1.086  11.057 -0.1592 -0.1841  0.1799
15500PP      PP25604   4.690   9.843   3.402  0.5024 -0.0577 -0.2721
15501PP      PP25605  10.097   1.990  11.901  0.1071 -0.0759 -0.1701
15502PP      PP25606  10.591   9.936   5.170  0.1465  0.0890 -0.1383
15503PP      PP25607  12.468  10.155   0.215 -0.0699  0.2294 -0.0351
15504PP      PP25608   0.849  10.579   2.524 -0.2172 -0.1568  0.2146
15505PP      PP25609  11.037   7.427   9.742  0.2835 -0.1532  0.1004
15506PP      PP25610   5.528   6.923   0.199  0.0881 -0.3120 -0.1022
15507PP      PP25611  12.324  10.893  10.014  0.3395 -0.1646 -0.1427
15508PP      PP25612  12.508   7.980   1.520 -0.3680  0.0981 -0.2132
15509PP      PP25613   0.061   2.822  10.803 -0.1651  0.1608  0.0039
15510PP      PP25614  12.239   1.770  10.132 -0.2765  0.2271  0.1131
15511PP      PP25615   0.290  14.693  11.951 -0.3344 -0.0428  0.2886
15512PP      PP25616   7.275  12.036  10.514  0.1486 -0.2889  0.2168
15513PP      PP25617  10.170   0.115   3.549  0.1752 -0.0337 -0.1449
15514PP      PP25618   9.256   4.503  11.263  0.1560 -0.3735 -0.1936
15515PP      PP25619   0.673   7.247  11.523 -0.2341 -0.2487 -0.1349
15516PP      PP25620   3.767   4.306  12.495  0.2707 -0.3475 -0.1236
15517PP      PP25621  10.124  14.338   0.635  0.2922 -0.2221  0.1492
15518PP      PP25622  15.630  10.309   0.158  0.1049 -0.1532  0.4745
15519PP      PP25623   8.947   4.355  12.095 -0.2125  0.0583 -0.0318
15520PP      PP25624  15.036  14.719  10.197  0.0008 -0.4053 -0.2601
15521PP      PP25625   7.569  12.970  10.086  0.1265  0.1236  0.2913
15522PP      PP25626  13.234   8.997   4.764 -0.0688 -0.2947  0.1274
15523PP      PP25627   6.757  13.271   0.475 -0.2465 -0.2726 -0.2680
15524PP      PP25628   9.791   3.285   0.116  0.4207  0.3337  0.0110
15525PP      PP25629  13.833   3.270  10.151  0.0800  0.1155  0.0066
15526PP      PP25630   9.497   5.483  11.708 -0.3032  0.1410 -0.0163
15527PP      PP25631   9.299  14.407   3.821 -0.1233 -0.1817  0.1854
15528PP      PP25632   6.971   8.617   0.222  0.0908 -0.1137 -0.3438
15529PP      PP25633   8.016   4.756   9.826 -0.2193 -0.1632  0.1949
15530PP      PP25634   7.235  12.069   3.411 -0.0652  0.0232 -0.0015
15531PP      PP25635   3.048   6.620  10.285 -0.0867  0.1637 -0.1842
15532PP      PP25636   7.644   5.181   1.168 -0.3060  0.0930 -0.0574
15533PP      PP25637  13.453   2.562   1.940  0.1273 -0.0229 -0.2243
15534PP      PP25638   7.950  11.661   5.046  0.1484 -0.1087 -0.0903
15535PP      PP25639   3.897   6.465   3.002  0.1262  0.3003  0.0012
15536PP      PP25640   7.563   2.158  11.364 -0.0250 -0.2332 -0.1037
15537PP      PP25641  12.466  13.384   3.199  0.2396 -0.2380  0.1455
15538PP      PP25642   2.092  13.670   0.318 -0.0695  0.2544  0.0989
15539PP      PP25643  13.689   8.060  12.716 -0.1264  0.2309 -0.2455
15540PP      PP25644   2.284  14.181  11.655  0.2510  0.1949  0.1478
15541PP      PP25645   5.619  10.004   0.508  0.1633 -0.2472 -0.0010
15542PP      PP25646   5.194  13.904   9.728  0.0274 -0.0433 -0.2040
15543PP      PP25647  10.493   6.595   3.547 -0.3837  0.0818  0.4474
15544PP      PP25648  14.711   0.813   0.476 -0.0855 -0.0201  0.1351
15545PP      PP25649  10.141   2.880  11.478 -0.0813  0.2240  0.1361
15546PP      PP25650   9.745   2.351   2.347 -0.1526 -0.0409 -0.3018
15547PP      PP25651  11.920   5.055  12.178  0.2319 -0.0211 -0.1247
15548PP      PP25652   5.456  12.632  10.403  0.1578  0.2365 -0.0550
15549PP      PP25653  11.847   4.665   1.585  0.3067  0.0354  0.1911
15550PP      PP25654   6.558  11.360   0.573 -0.0242  0.3024  0.1857
15551PP      PP25655   2.747   0.368   1.288 -0.3404 -0.0897  0.0218
15552PP      PP25656   9.772   6.954   4.790 -0.3189  0.5124  0.0747
15553PP      PP25657   1.094   5.296  11.897  0.0387  0.0387  0.2000
15554PP      PP25658   8.153  12.643   2.355 -0.2625 -0.1789 -0.0099
15555PP      PP25659  11.456  11.612   4.360  0.1280 -0.0252  0.0680
15556PP      PP25660   3.581  11.498  10.915  0.2347 -0.0807 -0.0464
15557PP      PP25661  12.487   7.518   9.957 -0.0543  0.2887 -0.0680
15558PP      PP25662   9.385   2.184  12.403  0.1961  0.0174 -0.0623
15559PP      PP25663   9.571   3.571   9.465 -0.1013 -0.2133 -0.2325
15560PP      PP25664   9.370   1.687   4.185  0.0963  0.2343 -0.0683
15561PP      PP25665  10.619  14.770   0.965  0.1007  0.1002  0.0943
15562PP      PP25666  12.828   1.244   1.350  0.0122 -0.0926 -0.0715
15563PP      PP25667  11.483  12.422  10.823 -0.2400 -0.0734 -0.1055
15564PP      PP25668   8.154  10.702  12.192  0.2818 -0.0265 -0.0998
15565PP      PP25669  13.518  11.507  10.618 -0.3991 -0.2628 -0.1289
15566PP      PP25670   3.373  14.089   2.194  0.2763  0.1655 -0.0235
15567PP      PP25671   6.967   4.776  11.977  0.2974 -0.0715  0.3399
15568PP      PP25672  15.402   3.482   0.162 -0.4501 -0.1694 -0.1863
15569PP      PP25673  10.115  10.101   4.676 -0.1460 -0.2965  0.0755
15570PP      PP25674  12.912   0.727   0.664  0.1045  0.4918  0.2204
15571PP      PP25675   0.977   7.244   2.802 -0.1148  0.1069 -0.2818
15572PP      PP25676   6.084  12.723   9.705  0.1254  0.0557  0.0253
15573PP      PP25677   5.966   8.344   2.303 -0.0043 -0.0435 -0.0713
15574PP      PP25678   9.158   1.606  12.050  0.1397 -0.0773  0.1546
15575PP      PP25679   0.522  11.036  13.241 -0.1089 -0.1363  0.4193
15576PP      PP25680   7.973   4.276  12.011  0.1462 -0.2975  0.0395
15577PP      PP25681  13.770   4.349   0.469 -0.2823  0.0885  0.0343
15578PP      PP25682  10.273  12.384   2.066 -0.2848 -0.1953 -0.0950
15579PP      PP25683  13.803   6.343   1.263 -0.2779 -0.0702  0.2606
15580PP      PP25684  15.504   1.290   0.652  0.1812 -0.0866 -0.0904
15581PP      PP25685   1.384   7.236   9.088 -0.0514  0.1006 -0.0235
15582PP      PP25686   3.413   1.261   0.380 -0.0574 -0.2462 -0.2327
15583PP      PP25687   3.834   6.533   3.637 -0.0236 -0.2112  0.1912
15584PP      PP25688  15.631   2.615   0.830 -0.1491 -0.1878  0.1964
15585PP      PP25689  10.248   4.423  10.726 -0.1299  0.0604  0.0035
15586PP      PP25690  15.526  11.371  10.056 -0.1276 -0.0168 -0.1546
15587PP      PP25691  15.403  13.566  10.144  0.1188 -0.2789 -0.3598
15588PP      PP25692   7.230  13.027  12.485  0.2943  0.2320 -0.1986
15589PP      PP25693  13.598   9.386  11.018 -0.3473 -0.2195  0.0647
15590PP      PP25694   1.557   3.550   2.844 -0.1671  0.1397  0.2183
15591PP      PP25695   3.214   7.478   1.827 -0.0683  0.0049  0.0141
15592PP      PP25696   9.979   5.069   3.826  0.0257 -0.1674 -0.0235
15593PP      PP25697   1.180  10.908  12.450 -0.0611  0.0121  0.1962
15594PP      PP25698  10.464  12.798   1.911 -0.2996 -0.3062  0.0972
15595PP      PP25699  14.121   5.175  13.557  0.0471  0.0788  0.1562
15596PP      PP25700   3.530  10.799  12.324  0.2363 -0.2413 -0.0480
15597PP      PP25701   2.503   3.597  10.876 -0.0742  0.1847 -0.0392
15598PP      PP25702  10.472   7.913   3.401 -0.0560  0.1793 -0.2989
15599PP      PP25703   6.229   5.653   9.342  0.0584  0.0249  0.2822
15600PP      PP25704  15.099   5.403  11.947 -0.2525 -0.3630 -0.1268
15601PP      PP25705   2.989   3.580   8.284 -0.0330 -0.3717 -0.1618
15602PP      PP25706   5.919   4.533   7.935  0.1425 -0.0711 -0.2068
15603PP      PP25707  10.109   6.902  13.681  0.2073 -0.1292  0.1913
15604PP      PP25708   8.657   1.813  10.931 -0.1609  0.0874  0.0618
15605PP      PP25709   7.685   0.984  10.297  0.1644 -0.1272 -0.2320
15606PP      PP25710  15.520   4.091   1.263 -0.0491  0.0082  0.0942
15607PP      PP25711   9.105   6.280  12.694 -0.0419 -0.0741 -0.0446
15608PP      PP25712   8.194   0.177  12.855 -0.1126 -0.1784 -0.4605
15609PP      PP25713   1.945   2.500   0.564 -0.1093  0.1404 -0.2030
15610PP      PP25714  13.361   3.223   3.712  0.0915  0.0501  0.0543
15611PP      PP25715  14.806   0.595  11.541 -0.1037 -0.1860 -0.0639
15612PP      PP25716   9.903   6.545  13.462  0.0859 -0.3474 -0.1845
15613PP      PP25717   7.802   8.482  10.013 -0.2173  0.1345  0.0081
15614PP      PP25718   4.737   9.366   1.492 -0.1024 -0.1204  0.0121
15615PP      PP25719  14.905   6.827  13.726  0.0754  0.0291  0.0177
15616PP      PP25720   9.696  13.805   1.428 -0.0400  0.1722 -0.1265
15617PP      PP25721   4.974  12.294  10.465  0.0744  0.1483  0.1228
15618PP      PP25722   6.334   2.579   3.042  0.2239  0.1754 -0.0582
15619PP      PP25723   1.540  10.920   2.796 -0.1726 -0.0661 -0.0580
15620PP      PP25724  12.811   0.513  13.092 -0.1588  0.0761  0.0823
15621PP      PP25725   4.632   9.592  10.404  0.0459 -0.0785 -0.0116
15622PP      PP25726   3.632   9.280   9.611  0.0541  0.0891 -0.1691
15623PP      PP25727  15.351  14.461   2.207 -0.0868  0.0543 -0.0205
15624PP      PP25728   6.113   9.553   4.206  0.4280  0.1017  0.2346
15625PP      PP25729  11.794  11.140  11.189 -0.1460  0.1371 -0.3760
15626PP      PP25730  13.899   3.648  13.745 -0.2376 -0.0048 -0.1087
15627PP      PP25731   8.540   3.300  10.539 -0.2231  0.1341  0.3096
15628PP      PP25732   5.945  12.283   4.780 -0.2818  0.3648  0.0838
15629PP      PP25733  10.574   5.447  10.121 -0.2332  0.1423  0.0035
15630PP      PP25734   1.949   1.293   4.605 -0.0346  0.0371  0.1104
15631PP      PP25735  13.792   0.287  12.863 -0.1716  0.0449 -0.1276
15632PP      PP25736   5.574   1.146   1.977  0.1459 -0.2115 -0.1354
15633PP      PP25737  13.604   5.796   1.785  0.3156 -0.1951  0.0999
15634PP      PP25738  14.110  13.289  12.299  0.0452  0.0986  0.0183
15635PP      PP25739  10.819   8.269   2.718 -0.0487  0.0525 -0.2326
15636PP      PP25740   8.300   5.406   3.194 -0.1589 -0.1733  0.2340
15637PP      PP25741  11.041  12.051   2.208  0.2160 -0.0909  0.2484
15638PP      PP25742   8.529   1.158   8.662  0.1856 -0.2544 -0.2427
15639PP      PP25743   9.356   8.223  11.889  0.1615 -0.0354  0.0654
15640PP      PP25744  13.762   6.895   0.579  0.3949  0.0283  0.0487
15641PP      PP25745   6.125   8.624   0.048 -0.1211  0.1745 -0.0239
15642PP      PP25746   6.222   5.111   9.103 -0.2612  0.0293  0.2081
15643PP      PP25747  12.039   1.370   2.325 -0.0021  0.0830 -0.1111
15644PP      PP25748   7.094   3.635   8.455  0.0025  0.1588  0.0686
15645PP      PP25749   6.702   1.778  12.586  0.0695 -0.1195 -0.1014
15646PP      PP25750  14.839   4.018   1.664  0.0633 -0.4346  0.2390
15647PP      PP25751   8.622  15.088   0.249 -0.0035  0.0794  0.2041
15648PP      PP25752  10.898   2.469   9.599  0.1083 -0.0705 -0.3032
15649PP      PP25753  15.106  15.579   9.659 -0.0563 -0.1304 -0.0389
15650PP      PP25754  11.648  10.486   1.281  0.3670  0.2098  0.2581
15651PP      PP25755   9.509   0.788  11.996 -0.3375 -0.0311  0.2082
15652PP      PP25756  13.750   9.111   2.955  0.0310 -0.1534  0.0620
15653PP      PP25757  11.212  13.155   4.259 -0.0622  0.1457 -0.0439
15654PP      PP25758  15.347   9.041   1.017 -0.1572 -0.0550 -0.1080
15655PP      PP25759  13.508   5.361   0.710  0.1484 -0.1206 -0.2551
15656PP      PP25760   0.179   0.568   0.222  0.3632 -0.1154 -0.0230
15657PP      PP25761  14.526  15.154   0.898  0.2102 -0.1577 -0.2460
15658PP      PP25762  10.032   3.947  11.194 -0.1613 -0.1429 -0.2828
15659PP      PP25763   4.901  11.446  10.446 -0.2934  0.2342  0.3451
15660PP      PP25764   8.249   2.368  12.706 -0.1006 -0.0457  0.1911
15661PP      PP25765   3.636   6.141   1.318 -0.1448  0.0868 -0.1931
15662PP      PP25766   3.997   4.345   2.780 -0.0430 -0.3544  0.1881
15663PP      PP25767   3.348   6.459  11.342 -0.0544  0.2263 -0.5313
15664PP      PP25768   6.877  14.175   2.117  0.0466  0.2050 -0.0394
15665PP      PP25769  13.623  14.689  10.523  0.0201  0.2921 -0.1248
15666PP      PP25770  11.208   4.681   3.198  0.1076  0.0280  0.1001
15667PP      PP25771  11.232  11.476   0.569  0.0121 -0.1982 -0.1821
15668PP      PP25772   5.754   8.504   1.525  0.3503  0.2090  0.0767
15669PP      PP25773   1.272  10.345   1.917 -0.1576 -0.2208 -0.0372
15670PP      PP25774   6.220  15.371   1.661 -0.0353  0.2516 -0.1697
15671PP      PP25775  14.302   6.072  13.302 -0.3307  0.0412 -0.0139
15672PP      PP25776  12.710   7.342   1.509  0.1894 -0.0050 -0.0528
15673PP      PP25777   3.273   1.927   9.561  0.0915 -0.1174  0.0937
15674PP      PP25778   4.031   2.563  10.821 -0.5490 -0.3443 -0.2488
15675PP      PP25779  10.236   5.892  11.116  0.1407  0.2577  0.2888
15676PP      PP25780   1.830   8.565  10.439  0.1703 -0.1796  0.1228
15677PP      PP25781   2.885   1.980  11.854 -0.1364 -0.1214  0.1860
15678PP      PP25782  14.915   7.580  10.837  0.1378  0.2790 -0.0830
15679PP      PP25783   7.201  12.296  11.000 -0.1128 -0.0205  0.0579
15680PP      PP25784  12.671   1.214   4.133 -0.0601  0.0750  0.0976
15681PP      PP25785   6.901  10.195   1.206  0.4097 -0.2516  0.1390
15682PP      PP25786   5.433   4.681  12.254 -0.0286 -0.2452 -0.1672
15683PP      PP25787  12.643   5.145   9.529 -0.1433  0.2326  0.2302
15684PP      PP25788   9.920   0.788  10.962 -0.2324  0.0129  0.3946
15685PP      PP25789   0.720  10.218   9.915 -0.2314  0.0768 -0.1304
15686PP      PP25790   3.105  10.431   9.157 -0.2792 -0.0776  0.0565
15687PP      PP25791   6.910   4.101  13.670 -0.1892 -0.6018 -0.2278
15688PP      PP25792  13.028   0.998   0.269 -0.2589 -0.0068 -0.0077
15689PP      PP25793   0.584   3.901   0.495 -0.1297  0.2638  0.2536
15690PP      PP25794   3.346   0.912  12.282 -0.0752 -0.0646  0.1593
15691PP      PP25795   8.172   1.221   1.999 -0.0080 -0.0561 -0.0176
15692PP      PP25796   5.411   0.826  10.403 -0.2782  0.0199 -0.0244
15693PP      PP25797   8.323  12.659   4.021  0.2178 -0.1348  0.2146
15694PP      PP25798  15.409   4.700   2.066  0.1067  0.0115 -0.0382
15695PP      PP25799   9.874  12.335  11.074 -0.0435  0.1878  0.0811
15696PP      PP25800   7.791   8.261  12.083 -0.3621 -0.1140 -0.1815
15697PP      PP25801  11.142  15.624   1.199  0.0723  0.3323  0.2366
15698PP      PP25802   6.011   6.376  12.740 -0.0724 -0.1433  0.0218
15699PP      PP25803   3.550   8.689  12.670 -0.2933  0.1226 -0.3181
15700PP      PP25804   4.932   7.944  12.726 -0.0952  0.5636  0.0635
15701PP      PP25805   9.872   7.225   2.270  0.0187 -0.4147 -0.0624
15702PP      PP25806   4.810  13.014   9.515 -0.3586  0.0502 -0.1321
15703PP      PP25807   5.360   1.667   0.979 -0.3086  0.1254 -0.2603
15704PP      PP25808   2.276  10.281  12.239  0.1765  0.1078 -0.1734
15705PP      PP25809   1.763   2.616  13.584  0.2822  0.1691 -0.1065
15706PP      PP25810  15.241   8.980  11.257 -0.1740  0.1709 -0.4402
15707PP      PP25811   0.744   7.787   2.998 -0.1631  0.0769  0.2326
15708PP      PP25812  14.587   5.949   2.975 -0.0798 -0.1081 -0.0540
15709PP      PP25813  10.586   7.026   3.285  0.0751  0.0228 -0.1615
15710PP      PP25814   4.293  15.678   4.144  0.0293 -0.1185 -0.0115
15711PP      PP25815  10.694   6.582   1.123 -0.0365  0.1361 -0.2047
15712PP      PP25816  15.520   3.214   3.221  0.1775  0.0388 -0.1388
15713PP      PP25817   9.748  14.528   4.117  0.0192  0.1652  0.0169
15714PP      PP25818   8.945  12.717   2.467 -0.0007 -0.1687  0.0443
15715PP      PP25819   9.503   2.187   0.667 -0.0270  0.2213 -0.1654
15716PP      PP25820   4.142   7.069   8.101  0.0114 -0.0344 -0.2088
15717PP      PP25821  10.471  13.868   2.245 -0.0762 -0.0182 -0.3844
15718PP      PP25822   5.259   4.155   8.084 -0.1735 -0.1871 -0.2429
15719PP      PP25823  15.233  14.392   8.973 -0.0023  0.1271  0.0173
15720PP      PP25824   2.694   2.896   2.384 -0.0461 -0.0637 -0.0019
15721PP      PP25825  13.386  13.730  12.589 -0.0137  0.0422 -0.2775
15722PP      PP25826  15.253  13.926   1.044  0.2153  0.0227 -0.0661
15723PP      PP25827  13.196   4.579  12.521  0.2974 -0.4037  0.0741
15724PP      PP25828   9.711  14.213  12.757 -0.2457  0.0551  0.2842
15725PP      PP25829   8.035   0.644  11.960  0.0774 -0.0008  0.0027
15726PP      PP25830  15.681   0.249   0.982  0.4095 -0.0464 -0.0900
15727PP      PP25831  11.250   1.630   3.101  0.2116  0.0965 -0.0170
15728PP      PP25832   2.622  13.070   1.293 -0.1873  0.0279  0.0160
15729PP      PP25833  12.308   6.820  11.714  0.1260 -0.0457 -0.0155
15730PP      PP25834  10.828   6.429   1.643 -0.1299 -0.0914  0.2961
15731PP      PP25835   0.887   6.954  12.713 -0.4321  0.0467 -0.1362
15732PP      PP25836   1.756   3.014   9.676 -0.0783  0.1224  0.0411
15733PP      PP25837   0.530  10.743  10.921 -0.1805  0.0277 -0.1495
15734PP      PP25838   5.726   8.241   3.287  0.2986 -0.1398 -0.0374
15735PP      PP25839   9.229  15.273   3.106  0.2737  0.0698 -0.0181
15736PP      PP25840   4.838   5.116   8.634  0.4453  0.0478  0.0642
15737PP      PP25841   2.899   1.768   8.812 -0.2081 -0.2592  0.0980
15738PP      PP25842   7.374  11.247   0.604  0.1050 -0.2096  0.1939
15739PP      PP25843   0.840   1.642  13.085 -0.1405  0.1503 -0.0891
15740PP      PP25844   3.281  14.046   1.661 -0.0497  0.1046 -0.0541
15741PP      PP25845   2.551   8.957  13.728  0.4624 -0.0734  0.3929
15742PP      PP25846   8.178   9.396   9.730  0.1345 -0.0064  0.1402
15743PP      PP25847  11.730   0.231   4.320 -0.0360 -0.2226 -0.1027
15744PP      PP25848   2.235   8.961   4.222 -0.0552  0.1612  0.1921
15745PP      PP25849  13.137   6.622  11.627 -0.1306  0.1447  0.0612
15746PP      PP25850   0.242   7.058  12.643  0.0866 -0.0059  0.3035
15747PP      PP25851  14.741  13.280   1.364 -0.0336 -0.4768 -0.0042
15748PP      PP25852   9.286  10.195  13.711  0.1042  0.0423  0.0521
15749PP      PP25853  14.259   7.202   3.218 -0.1940  0.2639  0.1193
15750PP      PP25854  10.772   9.402   1.721 -0.0237 -0.0407 -0.0096
15751PP      PP25855  15.363   8.601  11.834  0.1032  0.0390 -0.0377
15752PP      PP25856  14.939  14.611   9.711 -0.0505 -0.0078 -0.1427
15753PP      PP25857   5.102   1.216   1.834 -0.3123 -0.0535  0.0265
15754PP      PP25858   5.860   6.906   2.668 -0.1616  0.0822 -0.0761
15755PP      PP25859  10.592   5.693   2.553 -0.0458 -0.4237 -0.0242
15756PP      PP25860  13.193   0.167   1.291  0.0391  0.0606 -0.1631
15757PP      PP25861   3.322   4.815  13.114  0.3047 -0.1007  0.1044
15758PP      PP25862  15.063   8.463  12.299  0.0556 -0.2180  0.3556
15759PP      PP25863   4.145   5.974  10.550  0.1256 -0.2540  0.0693
15760PP      PP25864   1.937   1.063   2.577 -0.0699  0.3781  0.1744
15761PP      PP25865   9.785   7.090   1.074  0.0752 -0.2676  0.2566
15762PP      PP25866   1.883  14.298   4.644  0.0916  0.1206 -0.1481
15763PP      PP25867   0.774   6.308   4.204 -0.0239 -0.0100  0.1304
15764PP      PP25868  15.548   6.564  13.332  0.3170  0.2074  0.3442
15765PP      PP25869   0.702   5.637   0.355 -0.0932 -0.1266 -0.3678
15766PP      PP25870   1.570   0.559   0.194 -0.0456 -0.0634  0.1000
15767PP      PP25871   6.448   7.859   3.722  0.2542 -0.0920  0.1057
15768PP      PP25872   7.485   9.632   1.021 -0.0634  0.1227 -0.0072
15769PP      PP25873  14.782   2.664   1.621 -0.2334  0.1291 -0.1764
15770PP      PP25874   8.196  14.445   2.683 -0.2077 -0.0133  0.0247
15771PP      PP25875  10.060   4.954   1.668  0.2072 -0.0747  0.1485
15772PP      PP25876   8.719  13.252   3.541  0.1086 -0.3432  0.0192
15773PP      PP25877   8.084  10.905  10.093  0.2100  0.0793  0.0298
15774PP      PP25878   3.080   9.233   3.249  0.1754  0.0956  0.2081
15775PP      PP25879   2.399  11.086  11.747  0.0749  0.2134 -0.3407
15776PP      PP25880  11.555  15.170   4.199  0.2340  0.2421  0.0686
15777PP      PP25881   7.557   9.226   4.223 -0.1936  0.0134 -0.0931
15778PP      PP25882  13.897  14.024   3.839  0.2256  0.0947 -0.0199
15779PP      PP25883  11.635  11.624   1.952 -0.1979 -0.3982 -0.1344
15780PP      PP25884  14.472   3.987   3.603  0.1404 -0.2806 -0.1673
15781PP      PP25885   7.327   4.848  13.748  0.1391 -0.0212 -0.1276
15782PP      PP25886  11.774  15.621   1.934 -0.1401 -0.1480  0.2201
15783PP      PP25887  10.616  15.555  13.348 -0.0011 -0.0154 -0.1988
15784PP      PP25888  13.620   0.030   1.552 -0.1215  0.1646  0.2392
15785PP      PP25889   8.782  14.883  13.441  0.1440 -0.4243 -0.0068
15786PP      PP25890  15.726   7.637  11.749  0.1209  0.1549 -0.2476
15787PP      PP25891   9.424  14.211   4.310  0.1791 -0.2241  0.0656
15788PP      PP25892   3.001  10.769  11.453 -0.0384  0.2151  0.2016
15789PP      PP25893   8.836  14.279  12.577 -0.0874  0.0563 -0.2466
15790PP      PP25894  10.456   4.388   1.941 -0.2819  0.0610  0.2703
15791PP      PP25895  13.367   4.039  12.272  0.1022 -0.0440 -0.0283
15792PP      PP25896   1.382  14.156   1.708 -0.1086  0.1579 -0.2453
15793PP      PP25897   6.199  15.390   0.171 -0.0886  0.2634  0.0776
15794PP      PP25898   5.262  10.709   1.349  0.2709  0.4752 -0.4779
15795PP      PP25899   7.575   7.174  12.629  0.0162 -0.1562  0.1459
15796PP      PP25900  11.960   5.958  10.075 -0.0227 -0.0669 -0.1442
15797PP      PP25901  11.519  12.088   4.473 -0.0183  0.4240  0.2682
15798PP      PP25902   9.013  12.574  13.191 -0.1401 -0.1255  0.0341
15799PP      PP25903  11.180   0.750   9.822 -0.1821 -0.0409 -0.1394
15800PP      PP25904   3.587   3.431  12.874  0.0600  0.3190 -0.0781
15801PP      PP25905   8.490   0.439   0.669 -0.4461 -0.0365  0.1405
15802PP      PP25906   8.142   3.749   7.833 -0.0748  0.0673  0.1945
15803PP      PP25907  15.614   8.896  13.629 -0.2351  0.4723 -0.1449
15804PP      PP25908   8.758   4.743   3.431  0.0936 -0.1931 -0.2240
15805PP      PP25909   7.061  12.864  11.577 -0.1140 -0.0963  0.3010
15806PP      PP25910   2.293   5.858   0.107  0.1407 -0.1586 -0.1546
15807PP      PP25911  15.104  12.373  13.718 -0.0864  0.0155 -0.0994
15808PP      PP25912   5.410   2.170  13.674  0.1413  0.2859 -0.1972
15809PP      PP25913   3.508   2.155  10.492 -0.4187 -0.3214 -0.1085
15810PP      PP25914  10.001   8.796   4.959  0.2143 -0.1106  0.2193
15811PP      PP25915  10.769   2.832  11.971 -0.1362  0.0867  0.0100
15812PP      PP25916  10.210  14.856   0.556 -0.0998 -0.0886 -0.0851
15813PP      PP25917   6.461   4.734   3.107 -0.0474 -0.2572 -0.0398
15814PP      PP25918   4.630  13.520   2.687 -0.0559  0.0873 -0.0867
15815PP      PP25919  14.694  12.576   2.732 -0.2472  0.2257  0.0260
15816PP      PP25920  11.844  14.495  13.189 -0.1089  0.1075  0.0560
15817PP      PP25921  15.287  12.607  11.134 -0.0361  0.0937  0.0331
15818PP      PP25922  10.243  12.752   3.793  0.1500  0.3040  0.0330
15819PP      PP25923   2.671  13.098  10.214  0.1331  0.0538 -0.0370
15820PP      PP25924   2.925   7.736  12.111  0.4448 -0.0046 -0.1833
15821PP      PP25925   3.053   5.289   9.858  0.1026  0.2344  0.0076
15822PP      PP25926   2.378   4.837   9.001 -0.1768  0.0943 -0.0670
15823PP      PP25927   5.813   6.813  12.413  0.0420 -0.4672 -0.1872
15824PP      PP25928  13.487   9.075  10.387  0.1426  0.1652 -0.0635
15825PP      PP25929   7.732   1.429   7.216 -0.1526  0.0564 -0.3350
15826PP      PP25930   6.151   1.193   0.462 -0.0032  0.0273  0.0844
15827PP      PP25931  11.607   9.973  13.412 -0.1617 -0.0049 -0.0372
15828PP      PP25932   3.877  13.747  10.872 -0.1323  0.2100 -0.3869
15829PP      PP25933   0.628   8.800  10.678 -0.0861  0.3089  0.0156
15830PP      PP25934  13.956  11.642   4.630  0.0846 -0.1068  0.4075
15831PP      PP25935   1.077   7.721  10.819 -0.0736 -0.0681  0.0407
15832PP      PP25936   0.278  11.454  12.616 -0.0059 -0.0786  0.3625
15833PP      PP25937   3.462   5.993  12.240  0.1305 -0.3466  0.1327
15834PP      PP25938   7.850   4.352   2.529 -0.1778  0.0399 -0.2798
15835PP      PP25939   8.109   7.460   2.090 -0.1696 -0.0191  0.0119
15836PP      PP25940  11.600   4.062   2.388 -0.1587  0.1695 -0.0943
15837PP      PP25941  12.790   6.329   3.823 -0.1964  0.0778 -0.1598
15838PP      PP25942   1.119   5.205  12.897 -0.0304  0.2377  0.2519
15839PP      PP25943   6.021  14.271   3.203  0.1165 -0.3421  0.1652
15840PP      PP25944  13.867  14.151   4.352  0.0496 -0.0716  0.1276
15841PP      PP25945   2.707   7.183   2.041  0.1427  0.1812 -0.2007
15842PP      PP25946  14.669   3.440   2.862 -0.2059 -0.2805  0.0759
15843PP      PP25947  14.574  12.191   3.605 -0.4014 -0.2208 -0.0420
15844PP      PP25948   6.850  12.686  10.056  0.2414  0.1604  0.1569
15845PP      PP25949   4.720   3.962  12.255  0.0061 -0.1780 -0.2249
15846PP      PP25950  15.367   7.235   3.272 -0.4143 -0.0614 -0.0461
15847PP      PP25951   6.124  11.864   4.425  0.0941  0.0849  0.1691
15848PP      PP25952  10.549   1.730  10.328  0.2277 -0.2419  0.1844
15849PP      PP25953  15.126  12.636   3.298  0.1235  0.1650  0.0582
15850PP      PP25954   2.886  13.761   0.764 -0.0199  0.0976 -0.1675
15851PP      PP25955  12.864   9.259  11.243 -0.0476  0.3602  0.2309
15852PP      PP25956   6.146   3.536   0.359  0.2269 -0.0531  0.1551
15853PP      PP25957  13.665  14.172  10.484  0.1221 -0.1459 -0.0026
15854PP      PP25958   5.573   8.328   3.795  0.2959  0.1027  0.4199
15855PP      PP25959  12.000   9.899  13.038  0.1224 -0.0209 -0.5652
15856PP      PP25960  13.319   7.113  12.411 -0.0032 -0.1926 -0.0894
15857PP      PP25961   1.239  12.361   0.455 -0.0458 -0.1706  0.0281
15858PP      PP25962  11.859  11.696  12.541 -0.3644 -0.0183 -0.2208
15859PP      PP25963  13.362  14.415  12.441  0.1893 -0.3168 -0.0878
15860PP      PP25964   1.895   1.547   8.874  0.2114  0.1192  0.0345
15861PP      PP25965   3.439  13.267  11.408  0.0102 -0.0923  0.1468
15862PP      PP25966  11.573  10.342   9.510  0.2813  0.0246  0.0262
15863PP      PP25967   3.135  12.158   4.150 -0.4312  0.2165 -0.1089
15864PP      PP25968   0.225   5.455  10.178 -0.2509  0.0158  0.0682
15865PP      PP25969  11.375   0.268   2.475  0.3548 -0.0565 -0.5129
15866PP      PP25970   4.339  13.280  12.127 -0.0786 -0.1520  0.1919
15867PP      PP25971   0.843  11.009  12.877  0.0982 -0.0857 -0.0513
15868PP      PP25972   8.733   8.592   4.191 -0.0348  0.2390  0.1816
15869PP      PP25973   3.645   9.048  11.922 -0.0825 -0.0704 -0.1233
15870PP      PP25974   6.500   3.252  11.592  0.1585  0.2211  0.0450
15871PP      PP25975   9.613   8.657  13.426  0.2594  0.0114  0.0730
15872PP      PP25976   1.207   9.516   9.929  0.0990  0.1863  0.0145
15873PP      PP25977  12.400  11.888   1.350 -0.1224  0.1155 -0.0896
15874PP      PP25978   1.948   1.744   0.943  0.0952 -0.2264 -0.0900
15875PP      PP25979  11.111   5.103  13.418 -0.1584 -0.2617  0.0779
15876PP      PP25980   0.124   0.039  10.438 -0.2437  0.0388 -0.0863
15877PP      PP25981  15.307  11.418  11.992  0.3933  0.2293  0.0605
15878PP      PP25982   0.339  15.553   2.414 -0.1233  0.2716 -0.1833
15879PP      PP25983  15.281  10.880   2.239 -0.1798  0.2380  0.3073
15880PP      PP25984   1.722   2.914  10.354  0.1678  0.1338  0.0414
15881PP      PP25985   9.496   9.871   3.941 -0.0153 -0.1526  0.0723
15882PP      PP25986  11.177   8.173  12.379  0.2738 -0.0777  0.1314
15883PP      PP25987  11.400   2.598   9.848  0.0365  0.0333 -0.0027
15884PP      PP25988  15.377   1.083   1.168  0.1356 -0.0893  0.2387
15885PP      PP25989   0.543   2.691   3.164 -0.0751 -0.2161  0.0226
15886PP      PP25990   7.246   0.975  13.243 -0.0546  0.2008 -0.0631
15887PP      PP25991   0.374  10.031   9.429  0.1439 -0.1287 -0.2584
15888PP      PP25992   7.050   8.443  12.995 -0.0524 -0.1525  0.0236
15889PP      PP25993  14.091   0.928  11.008 -0.0236  0.0874 -0.1835
15890PP      PP25994  15.023  13.210  10.491  0.2485  0.1394 -0.0965
15891PP      PP25995   8.539   7.836  11.382  0.2505 -0.0706 -0.4078
15892PP      PP25996   3.676   1.479   8.799  0.0307  0.1356 -0.0769
15893PP      PP25997   7.774   5.133   8.160 -0.0960  0.1325  0.2004
15894PP      PP25998  14.332   0.680   0.109 -0.0484  0.0094 -0.2646
15895PP      PP25999   1.946   5.386   8.300 -0.0254 -0.0564  0.2774
15896PP      PP26000  10.094  15.599  13.364  0.1225  0.1326  0.0776
15897PP      PP26001  11.051   3.822  12.789  0.1788  0.1771  0.0136
15898PP      PP26002  15.403  11.849  10.017  0.0798  0.1343  0.3252
15899PP      PP26003  12.180   2.366   2.665 -0.0954 -0.1954 -0.2298
15900PP      PP26004   8.291   7.909   1.950  0.1362 -0.0366 -0.1629
15901PP      PP26005  14.184   0.196   9.873  0.1991  0.0318 -0.0653
15902PP      PP26006   1.819  13.465  11.352  0.1499  0.0352  0.1293
15903PP      PP26007   4.705   2.091   9.963 -0.2289 -0.1551  0.0073
15904PP      PP26008   8.317   6.362   0.254  0.1810 -0.1641  0.0651
15905PP      PP26009  13.850  10.589   1.135  0.2709 -0.3604  0.1321
15906PP      PP26010  15.099   3.929   4.336  0.1671 -0.1443  0.0054
15907PP      PP26011   1.201  11.107   1.310  0.1559  0.2136  0.0691
15908PP      PP26012  14.373   4.737   0.886  0.0323  0.0850  0.1084
15909PP      PP26013   4.591   8.092   3.150  0.0350 -0.1812  0.1961
15910PP      PP26014  11.069   1.423   4.178 -0.1786 -0.1607  0.0586
15911PP      PP26015   4.239  12.201   0.668  0.3434 -0.0823 -0.0201
15912PP      PP26016  11.989   5.627   1.721  0.1968  0.1682 -0.0794
15913PP      PP26017   7.115   7.670   2.368 -0.0262 -0.1443 -0.4696
15914PP      PP26018   0.297   3.951   3.449  0.0066 -0.1726  0.1945
15915PP      PP26019   2.533   0.619  12.150  0.1039 -0.1056  0.0268
15916PP      PP26020  15.565  13.911   9.340  0.1820  0.0270 -0.2885
15917PP      PP26021  15.458  13.409   2.763  0.2166 -0.1350 -0.0575
15918PP      PP26022   9.099   7.282   9.900  0.3443  0.1361  0.5817
15919PP      PP26023   7.521  11.765  13.120  0.0890  0.0333  0.1079
15920PP      PP26024   3.202  12.458  10.747 -0.1075  0.2050  0.0239
15921PP      PP26025  14.102   4.609  11.300 -0.1876 -0.3348  0.2173
15922PP      PP26026   2.669   9.324   0.398  0.2358  0.2996  0.2653
15923PP      PP26027  13.136   3.269   0.465  0.1373 -0.0126 -0.0028
15924PP      PP26028   2.416   0.821  13.441 -0.0749 -0.2736  0.1721
15925PP      PP26029  10.555   6.665   4.551 -0.0173  0.0348 -0.3929
15926PP      PP26030   4.027   5.515   2.443  0.3100 -0.0233  0.1079
15927PP      PP26031  15.303   5.270   4.091  0.0930  0.2046  0.1523
15928PP      PP26032   6.263   5.725  12.991 -0.2562 -0.0995 -0.0060
15929PP      PP26033   8.494   6.598   9.369  0.1295 -0.0630  0.3597
15930PP      PP26034   9.368   3.950   0.836 -0.0413  0.0275  0.0498
15931PP      PP26035   9.965   5.522  11.985  0.2947  0.0445  0.1636
15932PP      PP26036   9.967   5.224   9.056 -0.0918  0.1022 -0.0762
15933PP      PP26037   2.208   9.677   1.755 -0.0586 -0.2672  0.1400
15934PP      PP26038   9.904   7.372   0.173 -0.2973  0.0183  0.1640
15935PP      PP26039   8.887   6.931  11.484  0.2633  0.3532  0.1866
15936PP      PP26040   7.601   8.285   5.110 -0.0449 -0.0984 -0.1482
15937PP      PP26041   8.865  12.587   1.814  0.3010 -0.0110 -0.2572
15938PP      PP26042  12.487   8.392  13.328 -0.2031 -0.1924  0.2278
15939PP      PP26043  11.550  13.553  11.656 -0.0984  0.0431  0.0685
15940PP      PP26044   2.130   0.531   1.889  0.3796  0.1311 -0.0560
15941PP      PP26045   7.673  15.468   0.854 -0.1355 -0.0716 -0.0123
15942PP      PP26046   2.474   8.846  11.037 -0.2992 -0.1204 -0.2332
15943PP      PP26047   4.422   8.649   0.107 -0.3409  0.2430  0.0517
15944PP      PP26048  14.507  10.573  10.852  0.1592  0.2434  0.1080
15945PP      PP26049   2.859  15.559  13.039 -0.0434  0.0129 -0.2141
15946PP      PP26050   6.004   5.310   1.622  0.0613 -0.2057 -0.0147
15947PP      PP26051  12.409   7.943   3.442 -0.1227  0.0775  0.1778
15948PP      PP26052  15.053   8.608   0.265  0.1705 -0.0639 -0.1665
15949PP      PP26053  13.108   7.074  11.259  0.1174 -0.0225  0.0035
15950PP      PP26054  14.879  12.128  12.518 -0.0353 -0.1383  0.5649
15951PP      PP26055  12.210   7.825  10.350  0.1533 -0.3944  0.2142
15952PP      PP26056   3.998   3.250   2.482  0.2714  0.1613 -0.0303
15953PP      PP26057   7.500   7.637   1.440  0.0148 -0.0132  0.2062
15954PP      PP26058   9.868   1.069  11.636  0.0790  0.2945 -0.0164
15955PP      PP26059   1.249   7.871  12.517 -0.2432 -0.6477 -0.3425
15956PP      PP26060   6.727   8.181  13.254 -0.1235  0.0208  0.1458
15957PP      PP26061  13.182   6.581  12.170 -0.3744 -0.1159 -0.0514
15958PP      PP26062   1.237   7.042   1.578  0.2320 -0.2067  0.0432
15959PP      PP26063   6.172   0.712  12.735 -0.1548  0.3773  0.0257
15960PP      PP26064   3.330  15.726   3.315  0.3103  0.2355  0.2906
15961PP      PP26065   0.620  12.108   0.585  0.3476 -0.2408 -0.0186
15962PP      PP26066   9.285   4.953  10.911  0.2836 -0.1409  0.0783
15963PP      PP26067   8.780  10.688  11.179 -0.2215  0.0080 -0.4067
15964PP      PP26068  15.506  15.368   4.737  0.1321 -0.0567 -0.2641
15965PP      PP26069   4.871  15.590   0.283 -0.0817  0.0052  0.1863
15966PP      PP26070   5.150  11.978   4.853 -0.3285  0.3422  0.1335
15967PP      PP26071   4.535   8.397   9.854 -0.2981 -0.0109 -0.0740
15968PP      PP26072  13.764   8.622   3.887 -0.1590  0.0241  0.1085
15969PP      PP26073  14.064  14.831   2.697 -0.0382  0.0813  0.1051
15970PP      PP26074   8.834   3.727   0.081 -0.3149  0.2140 -0.0024
15971PP      PP26075  15.632  15.253   8.937 -0.1448 -0.1647  0.3482
15972PP      PP26076   6.574   8.032  12.417  0.0646  0.0641 -0.1274
15973PP      PP26077   3.705  11.382  12.924  0.2940  0.1070  0.3690
15974PP      PP26078   2.992  14.346   2.395 -0.1699 -0.4106  0.1172
15975PP      PP26079   5.638   3.450  13.184 -0.1557 -0.1618  0.0640
15976PP      PP26080   4.926   6.220  11.460 -0.0839 -0.0076  0.0243
15977PP      PP26081  14.785   4.721   3.373 -0.0411 -0.3266  0.2314
15978PP      PP26082  12.122   0.592   4.294  0.1874  0.0056  0.3126
15979PP      PP26083   8.592  12.590  10.428  0.0859 -0.2882  0.0893
15980PP      PP26084   8.549   2.288  11.228  0.1550  0.5234 -0.1005
15981PP      PP26085  15.134   8.326  12.939  0.0142  0.1028  0.4657
15982PP      PP26086   4.176  13.033  10.073 -0.2551  0.0836  0.0973
15983PP      PP26087   1.722  13.548   8.981  0.1872 -0.0642  0.0987
15984PP      PP26088  10.687  15.027  13.135  0.1742  0.2157  0.2768
15985PP      PP26089  11.938  10.847  12.117 -0.0589 -0.3103 -0.0361
15986PP      PP26090   4.355   4.387   1.241  0.2374 -0.2618 -0.2963
15987PP      PP26091   9.652  11.734   4.463  0.1510  0.3479  0.1100
15988PP      PP26092   6.684   6.443   8.569 -0.0225  0.1288 -0.2557
15989PP      PP26093   3.692   3.171   0.322 -0.1085  0.0751  0.0544
15990PP      PP26094   2.172   7.708   3.124 -0.0337 -0.2925 -0.4421
15991PP      PP26095   3.554  12.708  12.391 -0.4319 -0.0576 -0.0531
15992PP      PP26096   8.887   7.800  12.608 -0.3482 -0.1465  0.1504
15993PP      PP26097   7.633  13.737  13.616  0.2731 -0.1383 -0.2539
15994PP      PP26098   3.001  11.889   4.650 -0.3989  0.3881 -0.0760
15995PP      PP26099  11.413   5.072   4.622 -0.2168  0.0409 -0.1519
15996PP      PP26100   1.003   9.821  13.634 -0.0942  0.0833 -0.0698
15997PP      PP26101  12.349   1.350  12.315 -0.1771 -0.4295  0.3184
15998PP      PP26102   0.924  11.906  11.577 -0.1391 -0.2041 -0.0238
15999PP      PP26103   5.176  13.769   2.947 -0.2860 -0.0299 -0.1184
16000PP      PP26104   0.615   4.568   3.175  0.2289  0.0669 -0.1519
16001PP      PP26105  15.589  13.587  13.674 -0.1498  0.2592  0.1373
16002PP      PP26106   8.115   5.690   7.993 -0.0677 -0.2429  0.0477
16003PP      PP26107   0.946   7.360  10.040 -0.1555 -0.2570  0.1136
16004PP      PP26108   9.597   0.579   4.151 -0.1166  0.0594  0.4199
16005PP      PP26109   9.076   8.115  10.591 -0.2526  0.1092  0.0130
16006PP      PP26110  13.703  13.682   2.867 -0.0723  0.0417 -0.0804
16007PP      PP26111   7.179   5.481  11.307  0.0134  0.3283 -0.0077
16008PP      PP26112   3.554   6.788   0.562  0.4500  0.0519  0.1120
16009PP      PP26113   7.899  10.309   2.050 -0.0377 -0.0168 -0.0689
16010PP      PP26114  14.226   4.639   0.110  0.0652  0.1207  0.3285
16011PP      PP26115   3.983   9.465   2.200  0.1524 -0.3782 -0.1440
16012PP      PP26116  15.489  12.225   1.157  0.1278  0.3301  0.1456
16013PP      PP26117   1.025  13.341   2.750  0.0744  0.2256  0.0220
16014PP      PP26118   9.717  13.495  13.050 -0.1554 -0.1468  0.0503
16015PP      PP26119   2.978   3.045   1.962 -0.1654  0.0805 -0.2697
16016PP      PP26120   1.279   9.187   0.602 -0.0691  0.4434 -0.2442
16017PP      PP26121   7.537   9.906  12.009 -0.1516 -0.2545  0.1934
16018PP      PP26122   7.783  10.524  10.324  0.0685 -0.2515 -0.0767
16019PP      PP26123   1.108   4.199   4.025 -0.0542  0.3892 -0.2801
16020PP      PP26124   1.660  15.162   3.033  0.1654 -0.1291 -0.3323
16021PP      PP26125   1.002   8.807   3.752  0.2588  0.1274 -0.1501
16022PP      PP26126   7.288   8.359   3.528 -0.0288 -0.0036 -0.1215
16023PP      PP26127   5.406  13.278  13.173 -0.2329 -0.2130 -0.0138
16024PP      PP26128   0.994   5.215   1.928  0.1853 -0.0221  0.1526
16025PP      PP26129   6.569  14.538   2.706  0.2430 -0.1950  0.0169
16026PP      PP26130  14.223   4.104   2.005  0.2063  0.0059 -0.1199
16027PP      PP26131  11.493   1.265   2.257  0.0287 -0.1222  0.2919
16028PP      PP26132   5.821   4.710   0.162 -0.1779  0.1422  0.0279
16029PP      PP26133   3.675   3.909  10.486 -0.0558  0.1347 -0.0624
16030PP      PP26134   1.760  10.824   9.306 -0.1617  0.2761 -0.0002
16031PP      PP26135   8.238   8.659   9.795 -0.0232  0.0049  0.1426
16032PP      PP26136  11.676  11.777  11.995 -0.2424 -0.0541 -0.1468
16033PP      PP26137   8.152   7.905  10.475  0.3932 -0.0856  0.1535
16034PP      PP26138   4.258  12.323   4.918  0.3715 -0.2383  0.2004
16035PP      PP26139  14.471   2.427   9.639  0.0997  0.1700 -0.3755
16036PP      PP26140  14.335   4.526   4.348 -0.1890  0.3342  0.0502
16037PP      PP26141   5.833   6.085   8.533  0.0865  0.0506  0.2706
16038PP      PP26142  13.995   3.589   2.284 -0.1669  0.0151  0.0281
16039PP      PP26143  11.169  10.886   2.426  0.0784 -0.1999 -0.1654
16040PP      PP26144  14.367   5.037  11.518  0.0238  0.1127  0.1951
16041PP      PP26145  10.886   9.961   3.683 -0.2327 -0.0362  0.2276
16042PP      PP26146  11.579   7.980   0.007  0.2101 -0.2602 -0.0061
16043PP      PP26147  10.415   5.268   3.558  0.0038  0.1017 -0.1968
16044PP      PP26148   1.875   4.226   1.816  0.2244 -0.1541 -0.1705
16045PP      PP26149   4.107   0.353   2.823  0.3994  0.2682  0.0607
16046PP      PP26150   3.195  14.913   9.265 -0.2009 -0.1239  0.2313
16047PP      PP26151   8.906   0.466   9.113  0.1099 -0.2679  0.0631
16048PP      PP26152  12.275   4.403   2.165  0.0148 -0.1690 -0.0436
16049PP      PP26153   5.434   8.289   8.768  0.1620  0.1731 -0.1738
16050PP      PP26154   0.779   6.715   3.327 -0.0724  0.5025 -0.1233
16051PP      PP26155  15.085  13.194  12.051 -0.1008  0.0337 -0.0637
16052PP      PP26156   2.734   9.069  12.533 -0.2657 -0.1822 -0.0786
16053PP      PP26157  13.069   5.327   2.627 -0.0980 -0.2890  0.0660
16054PP      PP26158   1.396  11.549  13.353  0.0319 -0.2021 -0.1729
16055PP      PP26159  12.771   7.242  10.772  0.0385  0.0086 -0.2115
16056PP      PP26160   0.610   8.740   4.096  0.3113 -0.0594 -0.2350
16057PP      PP26161   1.930  13.766   4.678 -0.0943 -0.3062  0.0161
16058PP      PP26162   5.915  15.044   1.389 -0.1334  0.0695 -0.2733
16059PP      PP26163   0.903  11.172   0.870 -0.1517  0.2789 -0.2980
16060PP      PP26164  14.991   2.059  11.605 -0.3151 -0.1535  0.0119
16061PP      PP26165  15.346  14.905   0.141 -0.0414  0.1097  0.0156
16062PP      PP26166  11.017   1.346   3.687 -0.0219 -0.0197  0.0987
16063PP      PP26167  12.757  14.805  12.776  0.1021  0.0708  0.0637
16064PP      PP26168   4.984  14.304   2.113 -0.2815 -0.0934 -0.1593
16065PP      PP26169   6.790   3.211   8.917 -0.0108  0.0465 -0.4650
16066PP      PP26170   8.611   2.623   9.770  0.0354 -0.3215 -0.1163
16067PP      PP26171   4.102   2.784   8.116 -0.1912  0.1564  0.1522
16068PP      PP26172  13.555   0.944  11.123  0.2342  0.3642  0.1368
16069PP      PP26173   2.891   7.511  13.450  0.2849  0.0779  0.3474
16070PP      PP26174   9.284   1.942   2.045 -0.0161  0.2284 -0.2405
16071PP      PP26175  12.607   8.702   5.846  0.0243 -0.0072 -0.1270
16072PP      PP26176  12.216   0.097   4.564 -0.0715  0.0168  0.1255
16073PP      PP26177   4.822  15.439   2.961 -0.1273 -0.2065  0.1519
16074PP      PP26178   5.954   6.650   0.917  0.2260  0.1204  0.6660
16075PP      PP26179   6.158   6.794   2.183 -0.0442  0.1929 -0.3146
16076PP      PP26180   5.309   0.789  13.569 -0.0139 -0.1559 -0.1099
16077PP      PP26181  10.886   5.023  10.375  0.0363  0.1151  0.0482
16078PP      PP26182  14.704  13.971   0.912  0.0613  0.1941 -0.2028
16079PP      PP26183  11.313   2.052   0.895 -0.0932 -0.1016 -0.1366
16080PP      PP26184   5.253   5.515  12.691  0.0026 -0.3062  0.0965
16081PP      PP26185  11.869   6.528  11.791 -0.2306 -0.0717  0.1474
16082PP      PP26186  10.596   0.350   3.735 -0.2135 -0.0449  0.0065
16083PP      PP26187   6.766  12.019  12.204 -0.1531 -0.0242 -0.1356
16084PP      PP26188   3.665   0.686  11.733  0.1277  0.1663 -0.1048
16085PP      PP26189   0.577   1.865   2.203  0.2053 -0.0100 -0.0210
16086PP      PP26190  12.666  12.965   9.681 -0.0240 -0.0265 -0.2971
16087PP      PP26191   5.781  11.405  13.738 -0.2641 -0.3803  0.3852
16088PP      PP26192  14.231  12.746   2.678  0.1630  0.1453 -0.1403
16089PP      PP26193   8.016  10.233  12.855 -0.0559  0.2217  0.2953
16090PP      PP26194  11.050  10.397   2.461 -0.2566 -0.0428  0.0984
16091PP      PP26195   4.543   4.949   2.894  0.0139  0.2032  0.2594
16092PP      PP26196  13.663   8.559  12.249 -0.1945  0.0744 -0.0864
16093PP      PP26197   8.800  14.767   1.639  0.1828  0.1980 -0.0588
16094PP      PP26198   6.712  12.782   3.390  0.0542 -0.2432 -0.0118
16095PP      PP26199   5.242  10.339   0.539 -0.0105 -0.0716 -0.2747
16096PP      PP26200   3.526   8.910   2.318 -0.2300  0.3052  0.3001
16097PP      PP26201  14.080   2.594  11.920  0.0660 -0.0453 -0.0531
16098PP      PP26202  13.259  13.807   0.967  0.2769  0.2203  0.3325
16099PP      PP26203  11.851   2.890  10.855  0.1247  0.2112 -0.1233
16100PP      PP26204   3.152   1.990   0.023  0.0844  0.1249  0.2076
16101PP      PP26205  13.141   7.542  10.857  0.1928  0.1055  0.1942
16102PP      PP26206   9.005  12.388  10.614 -0.0842  0.1941  0.1925
16103PP      PP26207  13.787   1.779  10.927  0.1195  0.3227  0.1036
16104PP      PP26208  11.549   1.301   4.352  0.2838  0.2130  0.1741
16105PP      PP26209   8.213   1.598  13.357  0.2269  0.1853 -0.0725
16106PP      PP26210   5.352  10.789  13.572 -0.1548 -0.1744 -0.0873
16107PP      PP26211   6.730   0.624  12.005  0.0352 -0.0982  0.0523
16108PP      PP26212   8.269  10.000   1.197 -0.0400  0.2314  0.1531
16109PP      PP26213   0.659  13.931  12.397  0.2795  0.1021 -0.5356
16110PP      PP26214   4.302   8.100   0.866 -0.0890 -0.4371  0.0862
16111PP      PP26215   6.445   9.784  11.739 -0.0465 -0.1218  0.1216
16112PP      PP26216   5.630   6.510  11.141 -0.0008  0.0077  0.2020
16113PP      PP26217  15.000   5.895  12.958 -0.0680 -0.4142  0.1022
16114PP      PP26218   9.685   6.638   3.706  0.0590 -0.0889 -0.0779
16115PP      PP26219   4.940   4.819   9.896  0.2995 -0.0368  0.1387
16116PP      PP26220  10.351  12.190   1.583  0.0835  0.4824 -0.2270
16117PP      PP26221  10.640   2.030   9.914  0.0662 -0.3123 -0.2474
16118PP      PP26222   9.955   0.222  13.715  0.3002 -0.2476  0.2142
16119PP      PP26223  11.250  15.561  12.750  0.0294  0.2608 -0.0608
16120PP      PP26224   9.870  11.998  13.659 -0.1762  0.0749 -0.0997
16121PP      PP26225  11.350   2.501   2.829  0.0448  0.0795 -0.1831
16122PP      PP26226   3.866  11.616   0.826 -0.0169  0.5240 -0.1043
16123PP      PP26227   4.482  11.942  12.506  0.0539 -0.0848  0.1260
16124PP      PP26228   9.901  13.305  12.244 -0.1311 -0.0666 -0.2970
16125PP      PP26229  11.072   1.801   3.565  0.1104  0.2615  0.2527
16126PP      PP26230   9.858   6.375  11.891 -0.1222  0.0631  0.0128
16127PP      PP26231  12.231  13.659   0.973  0.1129 -0.2990  0.2553
16128PP      PP26232   5.613   7.396   3.561  0.1799 -0.0283 -0.3727
16129PP      PP26233  11.129  12.316   1.370 -0.1495 -0.0934  0.0325
16130PP      PP26234   7.641  14.978  10.093  0.0915  0.2469 -0.2434
16131PP      PP26235   7.558  13.781   4.249 -0.2586  0.0515  0.0029
16132PP      PP26236  12.833   9.987   1.114  0.2522 -0.2593  0.0682
16133PP      PP26237  12.639   3.850  10.629  0.0793  0.2762 -0.0398
16134PP      PP26238   3.315   7.047   9.493  0.0248  0.3588 -0.1642
16135PP      PP26239   4.503   8.271   4.366 -0.1261 -0.0899  0.1395
16136PP      PP26240   0.829   2.315   1.001 -0.2186  0.1637 -0.0774
16137PP      PP26241   1.586  10.569   2.328 -0.1777 -0.0428 -0.1907
16138PP      PP26242   9.684  15.264   3.345 -0.0828  0.0213  0.0846
16139PP      PP26243  10.164   2.383   2.142 -0.0435 -0.1873 -0.0843
16140PP      PP26244   8.197   5.589   1.727  0.3671 -0.4431 -0.2306
16141PP      PP26245   9.942   2.645  10.697 -0.2981  0.3334 -0.3447
16142PP      PP26246   3.935   2.384   2.150 -0.3100  0.1110 -0.2748
16143PP      PP26247   0.985   8.389   4.072 -0.1026 -0.1222  0.0139
16144PP      PP26248  12.672   3.790   2.865 -0.0579 -0.3731 -0.0932
16145PP      PP26249   5.681  11.451   1.084  0.1486 -0.0212 -0.1936
16146PP      PP26250   4.960  10.595  10.035 -0.4123  0.3187  0.0018
16147PP      PP26251   7.627   2.283   7.223 -0.1106  0.1648 -0.0633
16148PP      PP26252   3.918  12.025  11.533  0.0661  0.0789 -0.3114
16149PP      PP26253  14.088   5.631  13.316 -0.1368 -0.2661  0.0039
16150PP      PP26254  12.536  13.800   4.511  0.1983 -0.0866 -0.1817
16151PP      PP26255   5.953   9.428   0.263  0.1602  0.3312  0.1556
16152PP      PP26256   7.566   6.787   1.181 -0.1888 -0.2074  0.1618
16153PP      PP26257   3.373   9.821  11.945  0.0882  0.0845 -0.2944
16154PP      PP26258  12.094   3.031  12.524 -0.4059 -0.0127 -0.4309
16155PP      PP26259   5.371   0.773  11.505 -0.1469  0.2856  0.2044
16156PP      PP26260  15.509   5.586   9.468 -0.1203  0.0136 -0.0251
16157PP      PP26261  13.153  14.649   3.501  0.3664  0.2104  0.3467
16158PP      PP26262   9.832   0.275   9.407 -0.4840 -0.1308  0.3267
16159PP      PP26263  15.027  10.438   2.169 -0.0989  0.2387 -0.0159
16160PP      PP26264   9.733   4.299  10.028 -0.1558  0.0305 -0.1616
16161PP      PP26265   7.434   5.240  10.070  0.2075 -0.2924  0.0536
16162PP      PP26266   9.204  10.609   2.138  0.2141  0.1699  0.3846
16163PP      PP26267  12.681   7.338  11.254 -0.0323 -0.3311 -0.1370
16164PP      PP26268   5.529   8.275   0.526 -0.2257  0.0460 -0.1607
16165PP      PP26269   2.359   7.800   1.652 -0.3390  0.1457  0.0136
16166PP      PP26270   0.698   9.540  12.484  0.1475  0.0293  0.0207
16167PP      PP26271  12.361  15.520   4.964  0.1735  0.1597  0.1438
16168PP      PP26272  12.097  10.836   0.779  0.0469 -0.1519 -0.0476
16169PP      PP26273   2.326   3.442   1.659  0.0759 -0.1357  0.2175
16170PP      PP26274  12.976   5.187  13.058  0.1348  0.0018 -0.1595
16171PP      PP26275   1.005  11.257   2.085 -0.1234 -0.1006  0.0072
16172PP      PP26276  13.651   5.145  11.865 -0.0682 -0.2514  0.0693
16173PP      PP26277   4.895  14.919  10.353 -0.2446  0.0018 -0.1651
16174PP      PP26278   5.304   6.379   2.106  0.0878 -0.1584  0.2202
16175PP      PP26279   0.520  12.202  13.593  0.3360 -0.1384  0.1254
16176PP      PP26280   6.026  12.044  13.153 -0.1614 -0.0293 -0.1211
16177PP      PP26281   0.274  11.378   2.483 -0.0246  0.4080  0.1311
16178PP      PP26282   1.906   3.326  10.656  0.0170 -0.0693  0.0362
16179PP      PP26283   0.773   4.958  13.269  0.0833  0.2349 -0.3813
16180PP      PP26284   3.799  13.320  11.806  0.0298 -0.0026  0.2471
16181PP      PP26285  13.720  14.422   3.490  0.2066  0.1312  0.0412
16182PP      PP26286   5.704   9.484  13.474 -0.0621  0.0425 -0.2714
16183PP      PP26287  13.104  11.677   3.157  0.0633 -0.1538  0.1335
16184PP      PP26288   4.270  12.950   9.510 -0.4322 -0.1113  0.0729
16185PP      PP26289  11.359  14.298  11.908  0.2344 -0.5737  0.1684
16186PP      PP26290   8.710   6.950  13.397 -0.1117  0.1982  0.2144
16187PP      PP26291   0.141  10.397  11.119  0.0137 -0.0986  0.2006
16188PP      PP26292   8.465   3.379  11.284  0.2379  0.0584 -0.1318
16189PP      PP26293   8.199   6.103  11.395 -0.0731 -0.1495 -0.0189
16190PP      PP26294  12.057  12.967  12.958 -0.0048 -0.2281  0.2424
16191PP      PP26295  12.758   4.441   0.466 -0.0598 -0.0954 -0.2331
16192PP      PP26296   3.455   0.505  10.435  0.0719 -0.0384 -0.0054
16193PP      PP26297  11.448   9.544   5.270 -0.2732 -0.0891  0.0993
16194PP      PP26298   6.732   5.075  12.305  0.1481 -0.0100 -0.4101
16195PP      PP26299  13.783   2.204   2.091  0.3694  0.2125  0.1686
16196PP      PP26300  12.621   2.520  10.185  0.1505 -0.0697 -0.0959
16197PP      PP26301  15.451   0.908   8.374 -0.2595 -0.1074 -0.0593
16198PP      PP26302  14.694  11.212   1.543 -0.1306 -0.1227 -0.0957
16199PP      PP26303  15.356  15.421   0.055 -0.3931 -0.2790  0.0352
16200PP      PP26304   6.061   5.580   1.030  0.0645  0.0357  0.1885
16201PP      PP26305   7.034  11.431   0.290 -0.1517 -0.0586  0.0172
16202PP      PP26306  15.282  13.869   3.833 -0.0776  0.1719  0.0398
16203PP      PP26307   2.486   2.311   1.403 -0.0451  0.0720  0.0475
16204PP      PP26308  13.852  10.172   2.980  0.1064 -0.0992  0.3995
16205PP      PP26309  14.977  11.154   9.594  0.1015 -0.0650 -0.0435
16206PP      PP26310   9.993   6.040  13.188 -0.1988  0.3311  0.0406
16207PP      PP26311   6.603  13.154   1.281  0.1283  0.4470  0.3044
16208PP      PP26312  15.396   4.836  12.709 -0.2183 -0.1071  0.2209
16209PP      PP26313   3.269   2.018   8.236  0.0978 -0.0068 -0.0704
16210PP      PP26314   0.288  11.709   3.466  0.4220 -0.2866  0.2519
16211PP      PP26315   8.228  10.978  13.494 -0.0169  0.1302 -0.0751
16212PP      PP26316  11.095   6.391  10.049  0.1374  0.1993 -0.0882
16213PP      PP26317   0.990   5.853   3.186  0.3236 -0.0170  0.1795
16214PP      PP26318   0.484   4.776   9.604  0.0821 -0.0148 -0.1736
16215PP      PP26319   0.579   9.530   1.659  0.2016  0.1530  0.0203
16216PP      PP26320   3.721   6.078   3.837  0.0662  0.1667 -0.0453
16217PP      PP26321  12.193   3.398   2.033  0.0104 -0.2329  0.0336
16218PP      PP26322   5.241   7.525  13.555  0.4378  0.0137 -0.2241
16219PP      PP26323   7.999   2.831   7.588  0.2987 -0.2034 -0.1023
16220PP      PP26324   1.479   3.036   3.145 -0.1255 -0.0030  0.0627
16221PP      PP26325   9.321   6.326   3.756 -0.0620 -0.2206  0.2090
16222PP      PP26326   4.987   2.768   0.746 -0.1067 -0.0789 -0.2068
16223PP      PP26327   0.987  15.633   8.737 -0.2440  0.3078 -0.1625
16224PP      PP26328  10.310   6.065  12.821  0.0391  0.0913  0.1322
16225PP      PP26329  12.239   2.127   0.617  0.1364  0.1018  0.0796
16226PP      PP26330   1.688  15.035  11.359 -0.0331 -0.0547 -0.0800
16227PP      PP26331   7.911  13.615   0.713  0.1276 -0.0284 -0.4638
16228PP      PP26332  12.067   4.726   9.565 -0.2601 -0.0658 -0.0860
16229PP      PP26333   4.006  15.622  12.886 -0.2551 -0.1374  0.1193
16230PP      PP26334  13.369   0.601   1.496  0.0454  0.2872 -0.1999
16231PP      PP26335  12.158   4.413  10.056 -0.0338 -0.0018 -0.1991
16232PP      PP26336  13.359  11.488   2.186 -0.1209 -0.0323  0.0937
16233PP      PP26337  14.897  12.649   1.925  0.1359  0.4882 -0.1620
16234PP      PP26338   5.778   9.820   1.155 -0.1716  0.1284 -0.0536
16235PP      PP26339   7.284   1.342   9.250  0.0876  0.1841 -0.0735
16236PP      PP26340  15.089   5.635  12.432  0.2183  0.0844 -0.0649
16237PP      PP26341   2.927   3.170   2.803  0.1835 -0.0901 -0.2488
16238PP      PP26342   2.263   1.484   2.961  0.1093 -0.0914 -0.1265
16239PP      PP26343  10.870   5.449  13.169  0.2355 -0.0585  0.1024
16240PP      PP26344   8.488  11.674  10.558  0.0308 -0.1681  0.1311
16241PP      PP26345   8.811   0.042   0.143 -0.3661 -0.0751  0.2130
16242PP      PP26346  10.257   6.818  12.522  0.2797  0.0558  0.0044
16243PP      PP26347   2.898   3.564   4.358  0.1028  0.1824  0.1498
16244PP      PP26348   9.132   0.916   1.195  0.0112 -0.1054 -0.1260
16245PP      PP26349   8.047  14.556   3.528 -0.1266  0.1673 -0.0000
16246PP      PP26350   4.399   0.693   9.071 -0.0496 -0.0273  0.1973
16247PP      PP26351  13.585   0.020   8.879 -0.0712  0.3327 -0.3470
16248PP      PP26352   5.700  12.557   2.822  0.0612 -0.1326 -0.1706
16249PP      PP26353  12.431   7.812  11.182  0.1823  0.3721 -0.0336
16250PP      PP26354   5.517   6.515  12.799 -0.0646  0.1734  0.0508
16251PP      PP26355  12.507   7.673   5.809  0.0551 -0.3291 -0.1309
16252PP      PP26356  12.970   9.100  12.653 -0.1220  0.3709 -0.1566
16253PP      PP26357  12.463  13.380  12.592  0.0849 -0.2345  0.1320
16254PP      PP26358   5.172   2.049   8.877  0.0144 -0.1451  0.1056
16255PP      PP26359  11.485   8.557   2.632  0.3623 -0.0491  0.4820
16256PP      PP26360   4.780   4.335  11.493  0.1881 -0.1921  0.2256
16257PP      PP26361   0.817   0.872   3.414  0.0886  0.0893 -0.0612
16258PP      PP26362  13.754   7.315   3.100 -0.1612 -0.1925 -0.0328
16259PP      PP26363  12.010  10.649   3.196  0.1131  0.0011  0.2010
16260PP      PP26364   6.378  10.232   0.464  0.3679 -0.1146  0.2018
16261PP      PP26365   6.042   3.012  11.821 -0.3215 -0.5229  0.2353
16262PP      PP26366   1.363  13.034  13.279  0.1007 -0.1536  0.1491
16263PP      PP26367  14.553   1.145  11.273  0.3297  0.2738  0.0696
16264PP      PP26368   3.715   4.375   0.257  0.0585 -0.0521  0.2144
16265PP      PP26369  11.308   9.261  11.135  0.0447 -0.1979 -0.0629
16266PP      PP26370   7.042   6.781   1.774 -0.0473 -0.1067  0.1287
16267PP      PP26371   5.476   5.967   1.808 -0.1302  0.1263 -0.2481
16268PP      PP26372   4.297  12.859  12.391  0.1916 -0.1100 -0.1311
16269PP      PP26373   3.705  13.612   0.302 -0.0809  0.0636  0.3828
16270PP      PP26374  12.746  11.239   0.977  0.0799 -0.3635  0.2022
16271PP      PP26375   7.880   1.050  11.722 -0.0644  0.1300 -0.1873
16272PP      PP26376   2.159   3.865   2.473 -0.1243 -0.1918 -0.0622
16273PP      PP26377   4.083   7.107  10.632  0.0509  0.1043 -0.0319
16274PP      PP26378  14.414   7.478  11.052  0.2635  0.3035 -0.2362
16275PP      PP26379  13.092   3.225  13.153  0.1151  0.1368 -0.0224
16276PP      PP26380   3.623   9.305  10.806 -0.0963  0.1198 -0.2208
16277PP      PP26381   6.151  11.820   1.047  0.1415  0.2579  0.0242
16278PP      PP26382   3.047  14.827   4.416  0.1138 -0.1222  0.0413
16279PP      PP26383   3.809  14.316  12.936  0.1923 -0.1736  0.0898
16280PP      PP26384   5.925   5.134  10.042 -0.2044 -0.0731 -0.0352
16281PP      PP26385   8.760  12.001   4.045  0.1536  0.0795 -0.0026
16282PP      PP26386   5.391  15.044   1.393  0.2346 -0.1660  0.1007
16283PP      PP26387   7.089   6.726  13.369 -0.5449  0.0402  0.0250
16284PP      PP26388   7.935  12.502  11.668  0.2355  0.1729  0.0909
16285PP      PP26389  13.244   1.675   3.465  0.4300 -0.3587  0.1569
16286PP      PP26390  14.664   8.359   3.958 -0.1189  0.2756  0.1057
16287PP      PP26391   5.774  11.163  11.677  0.1196 -0.0355  0.2778
16288PP      PP26392  10.453   5.190   2.526  0.2615 -0.1114 -0.3198
16289PP      PP26393   4.184   6.818  13.001  0.2297 -0.1287  0.5034
16290PP      PP26394   6.889   1.833   1.082 -0.0861  0.0393  0.0590
16291PP      PP26395   0.904  11.539   9.441  0.0407  0.2054  0.0785
16292PP      PP26396  14.196   9.469   2.784 -0.3718  0.1239 -0.0131
16293PP      PP26397  10.947   6.767  10.994 -0.1913 -0.3376 -0.0783
16294PP      PP26398   4.445  10.198  11.626  0.0670 -0.1526 -0.0638
16295PP      PP26399  11.786   3.487  10.653  0.0885 -0.0998  0.0010
16296PP      PP26400   7.675  10.781   9.642  0.2947  0.2551 -0.0412
16297PP      PP26401   8.980   0.987   0.272  0.0842 -0.0354 -0.0358
16298PP      PP26402  14.991   4.082   3.811  0.0793 -0.0330  0.1047
16299PP      PP26403   4.975  12.767   2.810  0.0496 -0.2553  0.0557
16300PP      PP26404   8.467   7.100   2.213 -0.1503 -0.3147  0.0453
16301PP      PP26405   0.286   6.237  12.665  0.0872  0.0937  0.1853
16302PP      PP26406   0.971  13.650  10.207  0.3636 -0.2265  0.2083
16303PP      PP26407  12.125   5.331   4.005  0.0355 -0.1045  0.0331
16304PP      PP26408  11.335   8.013   3.245 -0.1359 -0.2163 -0.1897
16305PP      PP26409   4.996  13.833  13.182 -0.2448 -0.0779 -0.1536
16306PP      PP26410   9.277  10.645  11.335 -0.2793 -0.3289 -0.1836
16307PP      PP26411   0.025   2.333   0.000 -0.0062 -0.0835 -0.0393
16308PP      PP26412  12.399  13.602   0.478  0.1105 -0.0984  0.1544
16309PP      PP26413   3.448  13.713  13.670  0.1802 -0.1041  0.1640
16310PP      PP26414  12.769   7.465   4.246 -0.0039  0.0309  0.3176
16311PP      PP26415   2.010   6.670   0.675 -0.2940  0.2198  0.0200
16312PP      PP26416   1.719   0.526  11.304 -0.0883  0.1076  0.0409
16313PP      PP26417   1.391   5.654   9.356  0.3571  0.1563 -0.2194
16314PP      PP26418  12.404   3.414   1.591 -0.0173  0.1578 -0.0622
16315PP      PP26419   0.861   8.506   1.474 -0.1978  0.0819  0.0013
16316PP      PP26420   7.829  14.161   9.691 -0.0969 -0.1001  0.2976
16317PP      PP26421  12.144   8.946   4.511 -0.1338  0.3089 -0.2388
16318PP      PP26422   1.069  15.159  10.677 -0.1507  0.0331  0.1973
16319PP      PP26423   5.867  15.374   2.023  0.1267  0.1188  0.0934
16320PP      PP26424   7.978   7.347  10.311 -0.0452 -0.2680  0.2747
16321PP      PP26425  14.523  14.490  11.569  0.1972 -0.0897  0.2507
16322PP      PP26426  12.885   2.414   0.670 -0.0856 -0.0761  0.0391
16323PP      PP26427  12.693   1.981   0.366 -0.0925 -0.1803 -0.0242
16324PP      PP26428   7.063   9.327   0.381  0.0084  0.0965  0.0391
16325PP      PP26429   5.432   7.809   9.472  0.2245  0.0348 -0.2812
16326PP      PP26430  11.302   7.677  12.318 -0.1880  0.2732  0.0161
16327PP      PP26431   6.500   4.815   9.988  0.2333 -0.0196  0.2556
16328PP      PP26432  12.030   7.768   1.686  0.0070 -0.1237  0.1317
16329PP      PP26433   0.261  14.964  13.114  0.1216  0.0645 -0.1459
16330PP      PP26434   9.777   0.195  13.226  0.0601  0.1483 -0.1305
16331PP      PP26435   4.655   0.610   0.972  0.0483 -0.2844  0.1132
16332PP      PP26436  11.969   6.310   3.099  0.1342  0.0742 -0.0517
16333PP      PP26437   9.472  10.224  12.559  0.0021  0.0889 -0.3496
16334PP      PP26438  10.923   8.714  12.546  0.3532  0.1724  0.3231
16335PP      PP26439   4.287  10.358   0.788  0.0271 -0.0278 -0.2266
16336PP      PP26440  14.754  12.906   0.089 -0.4403 -0.1407  0.1301
16337PP      PP26441  13.739   8.730   1.293 -0.0240 -0.0452 -0.0923
16338PP      PP26442   1.990   2.816  11.093  0.2069 -0.0949  0.1454
16339PP      PP26443   2.889   0.632  13.536  0.0948 -0.2228  0.2789
16340PP      PP26444   4.799  14.553   3.375 -0.1823 -0.0827  0.2452
16341PP      PP26445   1.900  11.515  12.420 -0.2278 -0.0793  0.1756
16342PP      PP26446   3.073   0.064   1.581  0.0233 -0.0694  0.1223
16343PP      PP26447   2.568  10.165  12.686  0.1040  0.0192  0.1288
16344PP      PP26448  10.133  15.395   3.771  0.1092 -0.1564 -0.1730
16345PP      PP26449   9.368  12.849   4.806 -0.1336 -0.0461 -0.1615
16346PP      PP26450  11.056  13.357   4.678  0.0871 -0.1664 -0.1331
16347PP      PP26451  10.977  12.619   1.800 -0.0020 -0.2841  0.1262
16348PP      PP26452   3.338   3.224   8.506  0.2100 -0.0749  0.1163
16349PP      PP26453   2.152  12.420  12.893  0.0545  0.2805 -0.3006
16350PP      PP26454   3.288   7.373   9.937 -0.0110 -0.1436 -0.1797
16351PP      PP26455   6.239  13.243   9.521 -0.0001 -0.2845 -0.0429
16352PP      PP26456  10.862   8.047   4.420  0.1764  0.4208 -0.3199
16353PP      PP26457   0.514   6.533   1.970  0.0948  0.3156 -0.5432
16354PP      PP26458  14.636   5.836   3.605  0.0591 -0.3038 -0.0470
16355PP      PP26459   6.591   8.546   9.856 -0.1095 -0.1242  0.1714
16356PP      PP26460  13.206   0.696   2.076 -0.1905 -0.2682 -0.0996
16357PP      PP26461   2.569   5.164   3.802 -0.0860  0.0571  0.0425
16358PP      PP26462  11.757   1.930  13.548 -0.0348  0.1083  0.1962
16359PP      PP26463   1.630   2.280  13.227  0.2998 -0.0145  0.0171
16360PP      PP26464   4.271  10.664  12.847  0.1635 -0.2119  0.2375
16361PP      PP26465   6.993   9.760  10.335  0.0927 -0.1600 -0.1866
16362PP      PP26466  15.436   2.827  10.331 -0.0239  0.0711  0.1311
16363PP      PP26467   2.046   7.517  12.737  0.0932 -0.1251  0.2414
16364PP      PP26468   6.983  11.059  13.745 -0.1931  0.3053  0.0893
16365PP      PP26469   8.805  13.754  10.466 -0.0732 -0.1892  0.3188
16366PP      PP26470   5.575  10.482   0.993 -0.0708  0.1397  0.1456
16367PP      PP26471   9.051  12.156   0.356 -0.0317 -0.0142 -0.1743
16368PP      PP26472  15.188   6.352  12.640  0.0616  0.4068  0.3504
16369PP      PP26473   2.175  12.971  10.145 -0.0146  0.4652 -0.0831
16370PP      PP26474   3.421  15.400  10.204  0.1304 -0.0985 -0.2399
16371PP      PP26475   8.232  14.873  12.637  0.1920 -0.0922  0.0105
16372PP      PP26476  15.399  14.193   2.617 -0.0621  0.0029 -0.1366
16373PP      PP26477   9.260   1.032  12.860 -0.0288 -0.0230 -0.2356
16374PP      PP26478   9.481  14.929   2.718 -0.0048  0.0882  0.2186
16375PP      PP26479   1.247   3.107  10.211 -0.1357  0.0348 -0.0670
16376PP      PP26480   1.031   4.065   0.613  0.0501  0.3492 -0.0201
16377PP      PP26481   3.818   8.480   9.397  0.2252  0.1816  0.3197
16378PP      PP26482   0.664  13.530   4.660 -0.1946 -0.0416 -0.0861
16379PP      PP26483  12.168  14.979  13.475 -0.2376  0.0259  0.1199
16380PP      PP26484   7.394  12.292   4.142  0.2021 -0.1387 -0.0374
16381PP      PP26485  12.851  11.629   0.402  0.0838  0.1341  0.0011
16382PP      PP26486   8.241   2.520   0.945 -0.1116  0.2553 -0.4423
16383PP      PP26487   7.713  11.713   0.354 -0.2846 -0.0107  0.0118
16384PP      PP26488   0.544   7.702  10.600  0.0559 -0.1448  0.3172
16385PP      PP26489   1.977   2.028   0.459 -0.0438 -0.1411  0.2858
16386PP      PP26490  13.683   4.250   4.399  0.3266 -0.0245 -0.1877
16387PP      PP26491   0.243   4.973  10.012  0.2289 -0.3308 -0.0061
16388PP      PP26492   6.348   4.375   9.748 -0.2155  0.0983  0.2030
16389PP      PP26493   9.124   6.941  10.254  0.1929  0.3868 -0.1852
16390PP      PP26494  11.231   9.666  13.703 -0.0501  0.1061  0.1772
16391PP      PP26495   2.751  10.582  12.965  0.2145 -0.2185  0.0921
16392PP      PP26496   6.641   0.800   9.698  0.0437 -0.0704 -0.0541
16393PP      PP26497  15.696  15.654   9.553 -0.1783 -0.2466 -0.0008
16394PP      PP26498  14.209   5.526   0.215 -0.0094  0.0982 -0.0602
16395PP      PP26499   0.099  14.442  10.067  0.2430 -0.1475  0.0212
16396PP      PP26500  15.715  11.478  11.658  0.2893  0.4367 -0.0522
16397PP      PP26501   8.625   4.174   2.016 -0.1795 -0.1271 -0.3879
16398PP      PP26502  12.755   9.833   1.604  0.0833 -0.1358 -0.1579
16399PP      PP26503   8.705  10.527   5.384  0.0602 -0.3053  0.0520
16400PP      PP26504   0.710  14.837   3.003  0.0450 -0.1325  0.2694
16401PP      PP26505  13.554   8.184  11.314  0.2272  0.2034  0.0332
16402PP      PP26506  14.289   0.681   0.735 -0.1541  0.0291  0.0524
16403PP      PP26507   7.110  13.597   2.887  0.1129 -0.0239  0.1947
16404PP      PP26508   7.892   5.478   3.591 -0.2501  0.0427  0.0386
16405PP      PP26509   7.929  13.170  11.282 -0.1175  0.2403 -0.1788
16406PP      PP26510   6.806   1.319   8.780  0.2409  0.0675 -0.0109
16407PP      PP26511   1.507   1.361   9.337 -0.4075  0.0995 -0.2488
16408PP      PP26512   0.289   8.879   9.142  0.0446  0.2283  0.0996
16409PP      PP26513  14.332  10.004   0.004 -0.1779 -0.0784 -0.2384
16410PP      PP26514   6.462   9.527  13.135  0.1825  0.1967  0.0771
16411PP      PP26515   4.650   6.705   1.116 -0.0050  0.1188 -0.1410
16412PP      PP26516   1.328   3.940  13.276  0.0064  0.4328  0.2786
16413PP      PP26517   0.134   4.700  12.696  0.1309 -0.2560 -0.1521
16414PP      PP26518   7.700  10.289   3.991 -0.0693 -0.0250 -0.0266
16415PP      PP26519  15.003  12.340  13.209  0.1272  0.2257 -0.0599
16416PP      PP26520   2.454   9.981   4.160  0.1843 -0.1444  0.0492
16417PP      PP26521  15.197  11.563  10.940  0.1380 -0.1900  0.1400
16418PP      PP26522  12.515   6.366   0.878  0.2927  0.2376 -0.5076
16419PP      PP26523   4.911  12.926   1.976 -0.1773  0.0449 -0.3609
16420PP      PP26524   8.817   9.725  10.135  0.1454 -0.1289 -0.0890
16421PP      PP26525   0.977  12.379  11.860 -0.1411  0.1082  0.0970
16422PP      PP26526  11.630  13.341   3.774  0.0018 -0.0145 -0.0242
16423PP      PP26527   9.416  12.652   1.628 -0.4186 -0.2401  0.2811
16424PP      PP26528   8.381   8.225   3.871 -0.1127  0.0605  0.0672
16425PP      PP26529  10.825  11.766  10.604 -0.2481 -0.1961 -0.1205
16426PP      PP26530   8.596   5.389  13.488 -0.1883  0.0874  0.2274
16427PP      PP26531   2.214  15.072  11.429  0.2763 -0.1770 -0.1707
16428PP      PP26532  14.341   6.698  10.924  0.1111 -0.1992 -0.0276
16429PP      PP26533  13.485   0.544   2.440 -0.0308  0.2681 -0.0025
16430PP      PP26534  13.569   1.058   2.489  0.2798  0.0834 -0.0334
16431PP      PP26535  10.939   6.780   3.719  0.0724 -0.1337  0.0575
16432PP      PP26536  11.454  13.365   5.002  0.2852  0.0879  0.0892
16433PP      PP26537   1.106   8.216  10.701  0.1040 -0.0867 -0.1069
16434PP      PP26538   6.583   0.260   0.767  0.1525 -0.1483 -0.3005
16435PP      PP26539  14.104   3.201   2.035 -0.0329  0.0527  0.3276
16436PP      PP26540   6.967   7.174  10.141  0.1169 -0.2481  0.0543
16437PP      PP26541  15.360   2.511   0.478  0.3090  0.1814 -0.0706
16438PP      PP26542  13.040  10.728   2.050 -0.0575  0.1988  0.2458
16439PP      PP26543  14.769  10.106   9.877  0.4518  0.3160 -0.1468
16440PP      PP26544   3.509   8.317   8.678  0.4292 -0.0541  0.0198
16441PP      PP26545   5.878   7.918   4.072 -0.1195 -0.0205  0.1546
16442PP      PP26546   4.783   6.709  13.620 -0.2000  0.1370  0.3971
16443PP      PP26547  10.366  14.330  10.835 -0.0597  0.2736 -0.2517
16444PP      PP26548   0.608   1.394   3.106  0.0198  0.1532  0.0669
16445PP      PP26549  14.209   6.268   5.244  0.3350 -0.0143  0.0638
16446PP      PP26550   6.603  13.542   1.033 -0.1717  0.0206  0.3489
16447PP      PP26551  10.259  11.307   0.521 -0.0112 -0.1990  0.1595
16448PP      PP26552  15.133   0.338   9.999  0.1607 -0.3003  0.0400
16449PP      PP26553   2.058   7.841   2.581  0.1001  0.0898 -0.0378
16450PP      PP26554   6.122   3.469  10.952 -0.0772  0.2060  0.0189
16451PP      PP26555  10.026  13.368   3.488  0.1317 -0.1412 -0.2243
16452PP      PP26556  15.329   4.950   3.607 -0.2312  0.2476 -0.1183
16453PP      PP26557  15.487  12.859   9.662  0.1303  0.1748  0.3509
16454PP      PP26558   3.658  13.890  10.189 -0.1250 -0.1053 -0.1160
16455PP      PP26559  14.133  13.200  11.765 -0.0206  0.2387 -0.2215
16456PP      PP26560   2.327   5.498   4.243 -0.0372 -0.2212 -0.0640
16457PP      PP26561  13.761   7.910  11.694  0.0371  0.3077 -0.2558
16458PP      PP26562  11.394  12.616  13.148  0.0047 -0.0732 -0.0352
16459PP      PP26563  11.739   0.518  12.275  0.1534 -0.1014 -0.2653
16460PP      PP26564  10.146   6.606  10.419 -0.0123 -0.3159  0.1764
16461PP      PP26565   4.818   0.128   0.994  0.0922  0.2444 -0.2451
16462PP      PP26566   0.366   0.769  13.003  0.1410 -0.1833 -0.3419
16463PP      PP26567  13.671   6.154  11.408 -0.2553  0.0879 -0.4270
16464PP      PP26568  12.498   9.998  11.074  0.1224 -0.1351  0.3341
16465PP      PP26569  11.579  15.643   1.426 -0.4448 -0.0446 -0.1989
16466PP      PP26570   3.574   1.574  11.299 -0.1650 -0.0138 -0.1045
16467PP      PP26571   8.248   7.229   3.867 -0.3124 -0.0074 -0.1056
16468PP      PP26572   0.197  12.350   3.522 -0.0114  0.1131  0.0195
16469PP      PP26573  15.407   8.809   2.488  0.0912 -0.0762 -0.2962
16470PP      PP26574   4.140   4.784  11.247  0.1233  0.0145  0.2040
16471PP      PP26575   7.125  13.497  13.053 -0.0256 -0.0173 -0.0239
16472PP      PP26576  13.122   2.492   1.565 -0.1821  0.1428  0.0610
16473PP      PP26577   4.799   3.164  10.775 -0.4744 -0.1301 -0.0302
16474PP      PP26578   0.030   0.498  11.001  0.1344 -0.1540  0.1340
16475PP      PP26579   8.043   9.020  13.143 -0.0448 -0.0617 -0.0225
16476PP      PP26580  10.974   8.457   3.134 -0.0048  0.3422 -0.2484
16477PP      PP26581  10.279  10.286  11.976 -0.0849 -0.0675 -0.1746
16478PP      PP26582  10.681   7.039   1.302 -0.5051  0.0104 -0.0010
16479PP      PP26583   8.268   7.511   3.177 -0.0366 -0.0709  0.2293
16480PP      PP26584   7.815   0.561  12.830  0.2812  0.4116 -0.1299
16481PP      PP26585   2.628   1.099  10.539 -0.0369  0.1091  0.1858
16482PP      PP26586   2.453   8.339   0.710  0.0677 -0.0801  0.2467
16483PP      PP26587   5.617  12.066   9.065  0.0043  0.2679  0.3117
16484PP      PP26588   9.739   7.223  12.104  0.2240  0.1298 -0.1975
16485PP      PP26589   5.344   4.313   0.933 -0.1021 -0.2025 -0.0322
16486PP      PP26590   9.342  11.455   3.375  0.0917  0.0662  0.1172
16487PP      PP26591  11.518   5.855  10.665 -0.2268 -0.2219 -0.1251
16488PP      PP26592   6.590  14.188   3.022 -0.2765  0.0855  0.0116
16489PP      PP26593   8.298   8.651   4.372  0.0407  0.0599 -0.3008
16490PP      PP26594  10.679  12.312   4.547  0.3324  0.0928  0.1799
16491PP      PP26595   6.474   1.825   9.856  0.4309  0.1897 -0.5035
16492PP      PP26596   1.527   3.873   0.444  0.1350 -0.3852 -0.2632
16493PP      PP26597  13.262  12.400   0.468  0.2786  0.0390 -0.3509
16494PP      PP26598  15.305   3.709  12.582 -0.1353  0.3888 -0.0823
16495PP      PP26599   1.295   5.467   3.066 -0.0515 -0.1270  0.0244
16496PP      PP26600   3.808  14.523   4.036  0.3084  0.0243 -0.0999
16497PP      PP26601   3.024   8.477  13.715 -0.2545 -0.1812 -0.2846
16498PP      PP26602   9.341   3.060  12.189  0.2358  0.2345  0.0690
16499PP      PP26603  15.336   4.533   9.856 -0.0730  0.3209 -0.2355
16500PP      PP26604   2.616   2.304  10.810 -0.3031 -0.2641 -0.1605
16501PP      PP26605   9.999   7.404   2.766 -0.0439  0.1805  0.0904
16502PP      PP26606   3.143   0.744   8.898 -0.1492 -0.2409 -0.0395
16503PP      PP26607   3.109  15.455  10.943  0.2285 -0.1641 -0.0658
16504PP      PP26608   7.307   6.015  11.616 -0.1004 -0.0328  0.0162
16505PP      PP26609  10.690   7.012   4.204 -0.4887 -0.0265 -0.1874
16506PP      PP26610   9.160   4.926   8.884 -0.0808 -0.0213  0.2461
16507PP      PP26611   8.803  15.651   9.347 -0.2661 -0.1354  0.1039
16508PP      PP26612   2.301   8.627   8.989 -0.1125  0.1539  0.1143
16509PP      PP26613  14.968   5.249   2.176  0.0896 -0.1564 -0.0969
16510PP      PP26614  15.521  11.031  11.659 -0.2014  0.1069 -0.0822
16511PP      PP26615   0.393   1.305   9.729 -0.1586 -0.3972  0.0999
16512PP      PP26616   6.453   7.239  11.353  0.0103 -0.1401  0.3752
16513PP      PP26617  11.684   6.381  10.467  0.0016  0.4102 -0.0914
16514PP      PP26618   7.255   1.783  12.302 -0.2617 -0.0445 -0.0779
16515PP      PP26619  12.564  14.042   9.959 -0.1052  0.1375 -0.0405
16516PP      PP26620   2.439   7.327   3.625 -0.0365  0.0829 -0.4163
16517PP      PP26621   8.794  10.295   0.100  0.0723 -0.0889 -0.2056
16518PP      PP26622   2.429   3.306  13.655  0.2082  0.2298 -0.2566
16519PP      PP26623  14.049   4.925   5.132  0.0056  0.2631  0.1514
16520PP      PP26624   5.632  11.559   2.579 -0.0765 -0.3947  0.0962
16521PP      PP26625  14.641   1.079   8.901  0.0794  0.2667  0.2546
16522PP      PP26626  14.838   2.172  11.148 -0.2762  0.0628  0.4391
16523PP      PP26627   5.000   9.848   4.267  0.2509  0.0656  0.1109
16524PP      PP26628   4.471  11.799  12.066  0.3152 -0.2030  0.0622
16525PP      PP26629  12.426  13.613   2.755  0.3139  0.1433  0.0722
16526PP      PP26630  13.157   3.108  13.602 -0.0252  0.0657 -0.2590
16527PP      PP26631  10.020  14.122   4.254 -0.3485 -0.1414 -0.0771
16528PP      PP26632   1.791  11.351   1.254  0.1010 -0.3620  0.5628
16529PP      PP26633  10.489  13.460   0.359 -0.0674 -0.0311 -0.0293
16530PP      PP26634  11.404   2.178  11.932  0.1250 -0.0414 -0.0003
16531PP      PP26635   5.596   9.687   2.247  0.0525  0.1471  0.1911
16532PP      PP26636   6.649   3.838  12.739 -0.0699  0.3258  0.2019
16533PP      PP26637   2.536   0.444   2.683 -0.0402 -0.0536  0.0275
16534PP      PP26638   3.925   8.513   1.959 -0.1362  0.1520  0.0878
16535PP      PP26639  14.356  14.365  11.116  0.1856 -0.1143 -0.2168
16536PP      PP26640   1.670  11.840  11.039  0.0178  0.0113  0.3196
16537PP      PP26641   7.599  14.420  10.084 -0.1849 -0.0700  0.2525
16538PP      PP26642   5.309   0.838  12.006 -0.3377 -0.0483  0.1923
16539PP      PP26643   7.351   8.112  11.818  0.0736  0.1151  0.0266
16540PP      PP26644   8.315   9.025   0.804  0.2650 -0.0645  0.0362
16541PP      PP26645  10.870  14.694   9.903 -0.0681 -0.0225 -0.1981
16542PP      PP26646  10.305  10.545  13.321 -0.1308  0.0900 -0.1883
16543PP      PP26647  13.080  11.203  12.020 -0.0050  0.0661 -0.2579
16544PP      PP26648   6.699  11.166  13.287  0.1641 -0.2748 -0.0833
16545PP      PP26649   4.578  13.604   0.348  0.0697 -0.0307 -0.1947
16546PP      PP26650   0.758  14.245   2.381  0.0886 -0.0027  0.0197
16547PP      PP26651   5.094   3.767   2.702  0.1734 -0.1711 -0.1576
16548PP      PP26652   8.389  14.594   0.589  0.0902 -0.4925 -0.1864
16549PP      PP26653   1.351   6.106  11.763  0.0890 -0.2777 -0.1594
16550PP      PP26654  13.101   3.660  13.442  0.0505 -0.0079 -0.2149
16551PP      PP26655  14.546   1.165   3.353  0.1055 -0.0604 -0.2439
16552PP      PP26656  15.425  11.852   1.461 -0.4198 -0.1191  0.0689
16553PP      PP26657  14.937   9.520  12.395 -0.0901 -0.1159  0.0760
16554PP      PP26658   5.232   0.018   0.702 -0.3178  0.0582  0.0664
16555PP      PP26659  12.752   6.145   4.882  0.0881 -0.1647  0.5045
16556PP      PP26660  11.490  12.915   2.454  0.0275  0.0933  0.1132
16557PP      PP26661   4.210   0.265   0.708 -0.0510 -0.3266  0.1021
16558PP      PP26662   5.726  14.590   9.181  0.2304 -0.2505  0.1405
16559PP      PP26663  12.906   5.383   0.046 -0.0340 -0.0901  0.1704
16560PP      PP26664  14.918  10.320  13.614  0.0687  0.7410  0.3218
16561PP      PP26665   4.157  13.128  10.641  0.4679  0.1508  0.0643
16562PP      PP26666   7.322   2.949  10.041  0.1965  0.0097  0.1268
16563PP      PP26667  15.173   8.724   3.909  0.1507 -0.1336  0.0433
16564PP      PP26668   0.680  11.392   1.331 -0.1898 -0.3576  0.3527
16565PP      PP26669   0.281  15.516  11.376  0.1500 -0.1029  0.0509
16566PP      PP26670   5.058   1.261   2.551 -0.0448 -0.2176 -0.0139
16567PP      PP26671   8.869   5.937   4.083 -0.3793  0.0036  0.0027
16568PP      PP26672  10.076   7.680   3.756 -0.0531 -0.0929  0.1231
16569PP      PP26673  13.299  12.463   1.407 -0.0152  0.1066  0.1146
16570PP      PP26674   1.800   2.880   3.737  0.1208  0.1664 -0.0887
16571PP      PP26675  12.661   2.710  10.838 -0.2008 -0.0543 -0.0662
16572PP      PP26676  14.773   1.832   1.190  0.0264  0.0287 -0.3019
16573PP      PP26677   6.823   1.585   9.238  0.0626 -0.1177  0.1845
16574PP      PP26678   1.014   8.588  10.977 -0.0800  0.1462 -0.0663
16575PP      PP26679  12.146   8.838  10.400 -0.1743  0.1963 -0.0154
16576PP      PP26680  14.624   0.911   1.569 -0.1744 -0.1494 -0.0492
16577PP      PP26681   4.963  14.829   1.728 -0.4001  0.0194  0.1190
16578PP      PP26682  15.330   0.427   1.814  0.1062  0.0786  0.0684
16579PP      PP26683   9.337   0.456   2.084 -0.1891 -0.2223  0.0200
16580PP      PP26684   6.026  13.242   3.660 -0.0680 -0.1375  0.1082
16581PP      PP26685   6.897   8.652  11.719 -0.1315 -0.0727 -0.0107
16582PP      PP26686   7.751   6.171  12.443  0.0856 -0.0921  0.1869
16583PP      PP26687   6.720  13.887  12.209  0.1187 -0.1399 -0.2430
16584PP      PP26688   0.882   0.594  12.947  0.1306  0.0857 -0.3215
16585PP      PP26689   3.292  13.396   9.187 -0.1437  0.3433 -0.2604
16586PP      PP26690   3.317   2.890   1.144  0.0563  0.2379 -0.4750
16587PP      PP26691   8.864   3.164   1.419 -0.2410 -0.1924 -0.4974
16588PP      PP26692  15.291   6.516   1.366  0.3028  0.2255  0.1756
16589PP      PP26693  13.541   8.491   1.634 -0.0121 -0.0339 -0.3696
16590PP      PP26694  10.704   8.525  13.446  0.1473 -0.0795 -0.0798
16591PP      PP26695   4.265   0.748  11.502 -0.0654  0.0940 -0.0263
16592PP      PP26696  10.633  10.405   2.711  0.0686  0.1850 -0.1629
16593PP      PP26697  12.337   9.471   1.703 -0.0007 -0.1249 -0.2082
16594PP      PP26698  10.865  12.931   0.625  0.1477  0.0428 -0.1909
16595PP      PP26699  13.301  14.796  12.061  0.0407 -0.1764 -0.0064
16596PP      PP26700   2.905  10.631   3.052 -0.3690 -0.1654  0.2324
16597PP      PP26701   0.611   6.055  11.509 -0.2028 -0.0482  0.1790
16598PP      PP26702   2.422   0.214   0.975 -0.2504  0.0526 -0.0381
16599PP      PP26703  13.170   7.591  11.975  0.1442  0.2178 -0.1392
16600PP      PP26704  13.056  12.243   3.627  0.0951  0.2910 -0.4773
16601PP      PP26705  11.236   2.693  11.055 -0.1563  0.0588 -0.1546
16602PP      PP26706   0.335  15.230   1.245 -0.0197  0.3134 -0.0115
16603PP      PP26707  12.717   7.910  10.188  0.0754  0.1567 -0.0076
16604PP      PP26708  11.090   9.346   2.372 -0.0257  0.0952  0.2951
16605PP      PP26709  13.123   5.305   9.650 -0.1766  0.0508 -0.0146
16606PP      PP26710  14.181  10.831   4.026 -0.0038  0.3127 -0.2004
16607PP      PP26711  13.971   8.249  13.767 -0.0632  0.2389 -0.0345
16608PP      PP26712  11.756   0.648   0.228 -0.0394 -0.3269  0.0910
16609PP      PP26713   0.533   7.047   3.003 -0.2090  0.0264  0.0220
16610PP      PP26714   5.837  15.528   3.114  0.2645  0.1480  0.0065
16611PP      PP26715  11.504   1.600  12.723 -0.1262  0.0259  0.1769
16612PP      PP26716   4.810  13.133  12.349  0.1101  0.1765 -0.1503
16613PP      PP26717   7.601  10.005   3.130 -0.0279  0.0874 -0.2754
16614PP      PP26718  13.061   5.029  10.996  0.1008  0.1884  0.2554
16615PP      PP26719   9.685  10.028  10.175 -0.0517  0.2420 -0.0060
16616PP      PP26720   7.804  13.397   2.783 -0.0050  0.0348 -0.1250
16617PP      PP26721   3.109   3.865   2.417 -0.0770 -0.0205  0.2016
16618PP      PP26722   2.601   1.109  11.070  0.0908 -0.0067  0.2400
16619PP      PP26723   4.634   3.352   0.102 -0.0880 -0.1217  0.0367
16620PP      PP26724   0.707  11.608   1.798  0.2974  0.3385  0.0608
16621PP      PP26725  13.157  11.540  11.000 -0.0819  0.0414 -0.1175
16622PP      PP26726  13.101  10.777  13.509 -0.3759  0.2146 -0.0347
16623PP      PP26727   3.130   8.992   9.376 -0.2857 -0.1333  0.1678
16624PP      PP26728  12.023   4.401  12.083 -0.1987  0.1202 -0.1035
16625PP      PP26729  10.199   0.530   2.368  0.0574 -0.1463  0.3538
16626PP      PP26730  10.213   3.020   0.999  0.1334 -0.0309  0.0022
16627PP      PP26731   9.867   8.890   2.787  0.0063  0.1354  0.2711
16628PP      PP26732   1.534  12.717   1.468  0.4795  0.1164 -0.4183
16629PP      PP26733   2.215   0.439  12.532 -0.1397 -0.0659 -0.0623
16630PP      PP26734   9.640   8.610   0.257 -0.1467  0.1009  0.3814
16631PP      PP26735   2.265   7.287  12.288  0.2054  0.4746 -0.0438
16632PP      PP26736   2.997   6.261   9.970  0.1165  0.0031  0.1784
16633PP      PP26737  10.068  15.577   1.279 -0.1112  0.1690  0.1244
16634PP      PP26738   6.537  10.484  12.791 -0.0574  0.3602 -0.4055
16635PP      PP26739   6.453   1.849  13.636 -0.0488  0.0386  0.1468
16636PP      PP26740   5.401  10.001   4.010  0.1206  0.0148  0.1160
16637PP      PP26741   6.112  14.717  11.748  0.0020  0.0343  0.0318
16638PP      PP26742  10.915  10.117  11.985 -0.0246  0.1721 -0.0139
16639PP      PP26743   3.435   8.457   2.753  0.1840  0.0180 -0.1458
16640PP      PP26744   9.212   8.290   2.539 -0.0019 -0.2092  0.0763
16641PP      PP26745   5.452   1.801  10.500  0.0688  0.1468  0.3157
16642PP      PP26746  15.183   3.720   3.008 -0.1054 -0.4291  0.0431
16643PP      PP26747  11.459  10.081   1.189 -0.1870  0.1609 -0.0093
16644PP      PP26748  10.441   7.820   4.712 -0.2504 -0.0518 -0.1227
16645PP      PP26749   0.383  14.345   0.546 -0.0713  0.0271  0.0250
16646PP      PP26750  10.878   5.462   0.781 -0.0047 -0.2004 -0.0298
16647PP      PP26751   4.928   3.516  12.141 -0.3201  0.3748 -0.0353
16648PP      PP26752   8.674   5.273   8.493 -0.0343  0.3128 -0.2516
16649PP      PP26753  13.280   6.189   1.293  0.2364 -0.0318  0.3921
16650PP      PP26754  12.705   9.526   3.558  0.0437 -0.0943  0.1035
16651PP      PP26755  10.651   0.780   1.960 -0.0956  0.2794 -0.2245
16652PP      PP26756   1.691  10.432   1.657  0.1080 -0.0023  0.3999
16653PP      PP26757   3.210   2.436   3.544 -0.3913  0.1937 -0.0419
16654PP      PP26758   2.098  11.292   3.854  0.3182 -0.3620  0.0027
16655PP      PP26759  15.067  14.624  10.772  0.1289 -0.0717  0.0099
16656PP      PP26760   6.401  10.223   2.587 -0.1645  0.1324 -0.0717
16657PP      PP26761  14.101  12.215   3.819  0.2368  0.2441  0.1861
16658PP      PP26762  15.085   0.678   1.357  0.0509  0.0020 -0.1161
16659PP      PP26763   2.578  15.518  10.328  0.1167  0.2594 -0.2993
16660PP      PP26764   9.635   8.745  12.007  0.1117  0.0765  0.0328
16661PP      PP26765   8.263   1.832  12.695 -0.1304  0.0113 -0.0529
16662PP      PP26766   9.909   9.331  12.691 -0.2218 -0.1780  0.0044
16663PP      PP26767   5.631   7.113   1.150 -0.1096  0.0542 -0.0477
16664PP      PP26768   4.575  11.370   1.120  0.2404 -0.0218 -0.2217
16665PP      PP26769   5.437  11.287  11.251 -0.2614  0.2911  0.0581
16666PP      PP26770   3.681  11.912   4.385 -0.0113  0.0042 -0.2473
16667PP      PP26771  12.424  14.078   0.690 -0.1642 -0.1672 -0.2668
16668PP      PP26772   2.168  15.430   0.653  0.2254  0.2706 -0.1772
16669PP      PP26773   2.907   4.258   2.250  0.3542 -0.1285  0.0401
16670PP      PP26774  15.552   2.209  10.490 -0.0619 -0.0755 -0.1265
16671PP      PP26775  15.686   9.232  11.232  0.1602 -0.1313  0.4676
16672PP      PP26776   2.021   6.297   4.283 -0.1317 -0.2418 -0.1841
16673PP      PP26777   0.033   1.354  12.837 -0.1822 -0.0396  0.1798
16674PP      PP26778   8.998  10.883   0.431 -0.3706 -0.0279 -0.3587
16675PP      PP26779   5.591   1.951   9.505 -0.1368 -0.1689 -0.2819
16676PP      PP26780   6.087   6.553   3.528  0.1792  0.1499  0.0784
16677PP      PP26781  14.619  13.486   0.901  0.1641  0.0684  0.0320
16678PP      PP26782   3.470   0.135  11.155  0.1124 -0.3353 -0.4618
16679PP      PP26783   0.884   2.987  10.567  0.0824  0.1368 -0.1080
16680PP      PP26784  14.058   2.174   1.190 -0.0239  0.1912  0.0078
16681PP      PP26785   5.845   1.070  12.973  0.0615 -0.1784  0.1972
16682PP      PP26786   5.181   3.527  10.141  0.1192  0.1296  0.0734
16683PP      PP26787   4.983   8.817  13.721  0.2660 -0.1563 -0.2969
16684PP      PP26788  13.648   9.293  12.879 -0.0383  0.2191  0.1897
16685PP      PP26789  13.628   5.605  10.388  0.1708 -0.0565  0.1784
16686PP      PP26790   8.632   4.261   3.516  0.0398 -0.2600  0.2119
16687PP      PP26791   3.514   3.966  10.947 -0.0099  0.3457 -0.2647
16688PP      PP26792   1.355   3.665   1.797 -0.0939 -0.3363 -0.2449
16689PP      PP26793   4.299   2.871  12.023  0.0604  0.3667  0.0974
16690PP      PP26794  12.771   3.900   4.153  0.0114  0.1316 -0.2868
16691PP      PP26795  14.877   0.193   9.431  0.2916 -0.4038 -0.0901
16692PP      PP26796   2.022  10.481   4.691 -0.0786  0.0474  0.2101
16693PP      PP26797  12.496   0.799   3.960 -0.0056  0.0083  0.0076
16694PP      PP26798   0.337   6.404  11.992 -0.2680  0.1206 -0.0216
16695PP      PP26799   1.027  13.260   4.335 -0.0471  0.2558  0.1893
16696PP      PP26800   5.790   8.191   2.820 -0.4398  0.1896 -0.0352
16697PP      PP26801  13.079   7.699   2.048  0.2058  0.1081  0.1963
16698PP      PP26802  10.190   5.530  13.432 -0.0251 -0.1254 -0.2217
16699PP      PP26803   1.561   4.159   8.405  0.0794  0.2027  0.3923
16700PP      PP26804  13.826   6.419  10.491 -0.3249 -0.0347 -0.1098
16701PP      PP26805  15.577   0.914  11.250 -0.1237  0.1385  0.1713
16702PP      PP26806   5.906  15.007  12.537  0.3158  0.0698  0.1317
16703PP      PP26807   4.137  13.138   1.271 -0.1528  0.1933 -0.0634
16704PP      PP26808   7.902  14.531  12.774 -0.0533 -0.1777  0.0068
16705PP      PP26809  15.613  12.133   9.246 -0.0472 -0.0374  0.0824
16706PP      PP26810   6.663  14.963  13.064  0.0512  0.3498  0.4218
16707PP      PP26811  14.366   0.126   3.761 -0.0026 -0.1074  0.2033
16708PP      PP26812  11.510   5.060   0.079 -0.1512 -0.0191 -0.1452
16709PP      PP26813   2.278   7.224   1.780 -0.0012 -0.0751 -0.1854
16710PP      PP26814  13.864   5.248   4.621  0.1848 -0.0388 -0.0841
16711PP      PP26815  14.626  12.328  12.109  0.0303  0.1029 -0.0172
16712PP      PP26816  12.008   2.779   0.251  0.0100 -0.1197  0.2022
16713PP      PP26817   9.891   4.256   8.900  0.0985  0.1177 -0.0711
16714PP      PP26818   1.730   7.486   8.889  0.1143  0.3812  0.0014
16715PP      PP26819  11.467   8.922   2.236 -0.0552  0.1900 -0.0710
16716PP      PP26820  12.159   1.916   1.570 -0.0596  0.1150 -0.3217
16717PP      PP26821   1.071  15.438   4.776  0.2778 -0.0655  0.0629
16718PP      PP26822  12.162   0.873   2.325  0.1803  0.2246  0.0686
16719PP      PP26823  13.669  13.608  10.788  0.3388  0.2140  0.0217
16720PP      PP26824   6.151   7.462   2.839 -0.1017 -0.0417  0.0695
16721PP      PP26825   4.909  12.469   9.440 -0.0718  0.1851  0.4343
16722PP      PP26826   6.608   0.349  12.810 -0.6793  0.0968  0.3989
16723PP      PP26827   4.882   8.970  12.965  0.1781 -0.0603  0.1532
16724PP      PP26828   9.467   3.344  11.083  0.3017 -0.2182 -0.0522
16725PP      PP26829   7.369   7.084  11.523 -0.0180 -0.0778 -0.1935
16726PP      PP26830  13.746   1.735  11.729  0.0451 -0.0471  0.2952
16727PP      PP26831   1.912   0.509  13.442 -0.2256 -0.0165 -0.0623
16728PP      PP26832   6.406   4.937   1.727 -0.0558  0.1739 -0.0544
16729PP      PP26833   5.346   4.764   2.613  0.2057 -0.1114  0.0088
16730PP      PP26834   0.872   4.374   9.200  0.2470 -0.0353  0.0500
16731PP      PP26835   1.821   3.745   2.069  0.0923 -0.4341 -0.0043
16732PP      PP26836   3.725   2.591   2.774  0.3795 -0.0174 -0.1809
16733PP      PP26837   5.636   3.785   1.244  0.3013 -0.1239  0.1525
16734PP      PP26838   2.699   4.634   1.916  0.1576 -0.0399  0.2304
16735PP      PP26839   9.191   8.465  11.430 -0.1152 -0.2285 -0.3018
16736PP      PP26840  10.304   6.354   1.821  0.0301  0.1264 -0.0853
16737PP      PP26841  13.751   1.128   1.453  0.0399  0.1075 -0.1572
16738PP      PP26842   1.519   6.924   0.788 -0.1430 -0.1781 -0.1954
16739PP      PP26843   3.033   4.234   3.640 -0.0325 -0.0499  0.2375
16740PP      PP26844  15.614   7.823  13.020 -0.0839 -0.1863  0.0824
16741PP      PP26845  11.975   3.843  12.120  0.2885 -0.1302 -0.2878
16742PP      PP26846   8.670   2.065   9.874  0.0969  0.3184 -0.1454
16743PP      PP26847  11.214   5.024   3.733 -0.4746 -0.0821 -0.0996
16744PP      PP26848  15.453   8.610   2.928 -0.1965  0.0565 -0.1135
16745PP      PP26849   9.838  11.185   2.521 -0.4214  0.3768 -0.0021
16746PP      PP26850   0.739  13.078   0.127  0.0705 -0.0332 -0.1832
16747PP      PP26851   7.189  10.753  10.551  0.0650  0.1353 -0.1690
16748PP      PP26852  13.674   2.197  13.535 -0.1893  0.0023  0.3509
16749PP      PP26853   3.545  13.488   4.179 -0.1121  0.3675  0.0673
16750PP      PP26854  15.001   0.769   4.162 -0.0432  0.0258  0.2343
16751PP      PP26855   1.631   1.399   1.768 -0.3114  0.1078  0.2265
16752PP      PP26856   9.098  13.006  12.474 -0.0340 -0.1004 -0.2713
16753PP      PP26857   4.789  12.335   8.952 -0.0813  0.2845  0.0819
16754PP      PP26858   9.894   2.854   8.481  0.3045  0.1276 -0.1028
16755PP      PP26859   1.581   3.613  12.376 -0.0445  0.1442  0.1753
16756PP      PP26860   8.840  10.027   0.593  0.0154  0.0647  0.2155
16757PP      PP26861   4.682  12.256   2.719 -0.3023  0.3018  0.0117
16758PP      PP26862   8.420  15.355   0.713  0.0081  0.2990  0.0134
16759PP      PP26863   9.849  10.397  10.577  0.1274  0.0731 -0.1934
16760PP      PP26864  10.467   8.899  13.166  0.3211  0.1306  0.2104
16761PP      PP26865   8.132  14.102  11.942  0.3578  0.1904  0.1897
16762PP      PP26866   3.317   9.561   1.558  0.1145 -0.2044  0.1292
16763PP      PP26867   1.591   9.965   3.974  0.2488 -0.0082 -0.1356
16764PP      PP26868   6.357   7.755   8.467  0.0297  0.1365 -0.0082
16765PP      PP26869   1.274  13.373   2.224  0.1968  0.0956  0.1214
16766PP      PP26870   4.380   6.417  13.225 -0.0242  0.3649  0.0230
16767PP      PP26871   3.150  14.634   0.135  0.2775 -0.3404  0.3015
16768PP      PP26872   4.717   9.486   3.030 -0.2669 -0.0484 -0.2914
16769PP      PP26873   1.191   9.656   0.413  0.0359  0.0213 -0.1403
16770PP      PP26874  11.799   0.407  10.907 -0.3634 -0.2487  0.1333
16771PP      PP26875   9.240   6.689   0.469  0.1633 -0.2105 -0.0811
16772PP      PP26876  14.527   4.492  11.601  0.0889 -0.1938 -0.0458
16773PP      PP26877  13.259   8.156   1.968 -0.2574  0.0037 -0.0512
16774PP      PP26878   4.130   9.817   0.509 -0.2959  0.0852  0.0533
16775PP      PP26879  10.313  14.242   0.103 -0.1975 -0.0671 -0.2095
16776PP      PP26880   5.606   5.485  11.719 -0.2208  0.3124  0.0812
16777PP      PP26881   7.267  10.828  11.081  0.2331  0.2653  0.0198
16778PP      PP26882   5.669  12.672  11.968 -0.0995 -0.3927 -0.3123
16779PP      PP26883   9.359   1.904   0.289  0.4436 -0.2488  0.2328
16780PP      PP26884  14.018   1.406  10.662  0.2851 -0.2462 -0.0380
16781PP      PP26885   6.364   9.630   3.757  0.0217  0.1344  0.1910
16782PP      PP26886  13.599   6.765   4.866 -0.0909  0.5390 -0.1602
16783PP      PP26887   0.052   2.352  12.105  0.0119 -0.0711 -0.0218
16784PP      PP26888   9.389   3.137   1.051  0.3181 -0.2060 -0.1551
16785PP      PP26889   2.899  13.889   3.476  0.0876 -0.1282 -0.0806
16786PP      PP26890   2.187  12.485   3.208  0.1129  0.4580  0.3235
16787PP      PP26891   1.010   3.333   1.112 -0.1066  0.1325  0.0019
16788PP      PP26892   0.589   6.936   9.221  0.1550  0.0268  0.1679
16789PP      PP26893  12.216   1.396   9.309 -0.0712 -0.0432 -0.1337
16790PP      PP26894   0.668   4.090   4.753  0.2434 -0.2045 -0.0188
16791PP      PP26895   3.701   2.241   0.283  0.0011 -0.1119 -0.0730
16792PP      PP26896   0.158  14.023  10.811 -0.2152 -0.0023 -0.2830
16793PP      PP26897   1.655   2.066   3.190  0.1456  0.0092  0.0572
16794PP      PP26898   1.334   8.346  12.729 -0.3228 -0.2117  0.0909
16795PP      PP26899   5.346  14.099   1.189 -0.0940  0.0333 -0.0696
16796PP      PP26900   5.159  11.144  13.270 -0.0733 -0.3375 -0.4485
16797PP      PP26901   5.366   8.672  13.359 -0.1080  0.0231  0.4885
16798PP      PP26902  14.303  10.866  10.263  0.0058  0.0545 -0.1641
16799PP      PP26903   4.309   8.593   3.408 -0.3307 -0.3257 -0.0442
16800PP      PP26904   1.175   4.086   9.476  0.0969 -0.2140  0.3210
16801PP      PP26905  12.183   6.814   1.916 -0.0041  0.0297  0.1133
16802PP      PP26906  13.778   8.696   0.155 -0.0846  0.1720  0.1366
16803PP      PP26907   5.373  12.899   3.136 -0.3919  0.1067  0.1866
16804PP      PP26908  10.648   0.916   3.614 -0.1601  0.0519 -0.3638
16805PP      PP26909   7.269  14.536   0.335  0.0202  0.0914  0.1196
16806PP      PP26910   6.489   9.864   3.114  0.1445 -0.1251 -0.2189
16807PP      PP26911   7.860  15.683  11.431 -0.0403  0.3871 -0.1276
16808PP      PP26912  12.070  13.098  11.097  0.0886 -0.0868 -0.0701
16809PP      PP26913   7.257   4.067   8.089  0.0754  0.1423 -0.0007
16810PP      PP26914   0.182   7.146  11.416  0.1652  0.1529 -0.3334
16811PP      PP26915  11.621   0.131  12.977  0.2931  0.0707 -0.2187
16812PP      PP26916   0.153   0.635  13.473  0.0631 -0.0035  0.1767
16813PP      PP26917  14.961   7.333   0.804  0.0879  0.0068 -0.2474
16814PP      PP26918   2.709   3.127  13.274 -0.4398 -0.2138 -0.3470
16815PP      PP26919  11.775   2.870   9.552  0.0976  0.1772  0.1467
16816PP      PP26920   4.704  15.376  12.100 -0.2928  0.1420 -0.0140
16817PP      PP26921  13.794  11.258   5.104  0.6157 -0.2534 -0.0563
16818PP      PP26922  13.342   8.879   5.236 -0.0151  0.1521  0.1948
16819PP      PP26923   2.172  15.394   8.661  0.0878 -0.0827 -0.3327
16820PP      PP26924   1.850   3.560   9.660 -0.2066 -0.1289  0.2078
16821PP      PP26925   2.273   7.580   4.075  0.0899 -0.3171  0.1384
16822PP      PP26926  11.717  14.752  10.433  0.0036 -0.0720  0.0193
16823PP      PP26927   7.106   5.027  11.388  0.0063  0.0506  0.2372
16824PP      PP26928  13.693  13.907   3.357 -0.2260 -0.2403 -0.0625
16825PP      PP26929  14.396   4.875   5.578  0.0625 -0.1293 -0.3720
16826PP      PP26930  10.494  13.805   9.745  0.1904 -0.0063 -0.0689
16827PP      PP26931  15.457  11.459   2.166 -0.2361 -0.0487 -0.1634
16828PP      PP26932   4.535   3.765   9.504  0.3211  0.0880 -0.2757
16829PP      PP26933  12.972   2.097  11.024  0.3430  0.1239 -0.0688
16830PP      PP26934   1.186   1.590  12.294 -0.0930  0.1249  0.0284
16831PP      PP26935   5.410   9.915   4.663  0.0672 -0.0468 -0.0296
16832PP      PP26936   7.267   2.072   8.345  0.1735  0.0682  0.1857
16833PP      PP26937   3.127   4.681  10.922 -0.0694  0.2304  0.2792
16834PP      PP26938  14.162   0.750  12.195 -0.2524  0.3241  0.2865
16835PP      PP26939  11.039  12.241  10.525 -0.1739  0.0926 -0.0228
16836PP      PP26940   0.138   0.069   3.777  0.3934  0.0663 -0.1001
16837PP      PP26941  10.253  12.761  12.794 -0.2325 -0.0060  0.1435
16838PP      PP26942  13.786  10.500   0.617  0.0703  0.3197 -0.2445
16839PP      PP26943   3.105   4.941  13.656  0.2169 -0.3388 -0.0595
16840PP      PP26944   4.057  14.785  11.183 -0.1712  0.2508  0.0443
16841PP      PP26945  15.249   4.789  11.165 -0.0520 -0.3519 -0.0087
16842PP      PP26946  13.142  14.461   2.758 -0.0408  0.0132 -0.0703
16843PP      PP26947  13.886   9.772  12.071  0.2127  0.0918 -0.0528
16844PP      PP26948   5.861  11.116   2.222 -0.1681  0.0368 -0.1379
16845PP      PP26949  12.169   2.267   4.584 -0.1712 -0.0013 -0.0482
16846PP      PP26950  12.468   7.996   0.013  0.1584  0.0223  0.3331
16847PP      PP26951   0.767   8.950  11.769 -0.1535  0.3704  0.0805
16848PP      PP26952  12.973  15.648   3.851 -0.1656  0.0947  0.1978
16849PP      PP26953  15.613   3.227   1.379  0.1803 -0.1799 -0.0925
16850PP      PP26954   8.309   0.019   2.739 -0.2319 -0.2716  0.1294
16851PP      PP26955   7.402   1.540   1.020 -0.0819  0.1884 -0.1378
16852PP      PP26956   9.907   8.271   4.086  0.3426 -0.0234  0.1758
16853PP      PP26957   3.381   1.854   0.561  0.0110 -0.1617 -0.1079
16854PP      PP26958  12.481  14.709  13.731  0.3506  0.0467 -0.0076
16855PP      PP26959   5.726  10.734   9.521 -0.3300 -0.1744 -0.2767
16856PP      PP26960  11.802   3.853   3.010 -0.1433 -0.1781 -0.1152
16857PP      PP26961   0.786  10.509  13.735  0.1673  0.0108 -0.1781
16858PP      PP26962   7.549   9.152  11.151 -0.0896  0.1224 -0.0255
16859PP      PP26963   0.681   8.019  11.031 -0.2481  0.2611 -0.1344
16860PP      PP26964   3.330   6.431   3.700 -0.3956  0.0719  0.0177
16861PP      PP26965   1.300   6.333  10.070  0.0543 -0.1999  0.2037
16862PP      PP26966  12.055   5.198   2.042  0.1101  0.3648  0.0425
16863PP      PP26967  14.234   3.704   3.292 -0.0011  0.5290  0.2012
16864PP      PP26968   8.920   1.285  13.470 -0.0801  0.0786 -0.0418
16865PP      PP26969   1.518  12.539   8.888  0.0569  0.0018 -0.0110
16866PP      PP26970  15.248   6.602   1.832 -0.2095  0.2239  0.0478
16867PP      PP26971  15.052   3.210   3.131  0.0074  0.1205 -0.1031
16868PP      PP26972   2.331   2.846   9.016 -0.1566  0.0387 -0.0166
16869PP      PP26973   2.331  13.275  11.348 -0.1938  0.2027  0.4423
16870PP      PP26974   8.548  14.949  10.493  0.2328  0.0250 -0.2521
16871PP      PP26975   3.058  13.895   9.107  0.2247  0.0666 -0.2296
16872PP      PP26976   3.284  11.833   2.757  0.3071 -0.2315  0.2364
16873PP      PP26977   4.244   2.652  11.415  0.0851 -0.0316  0.0496
16874PP      PP26978   5.253   1.233   0.094 -0.4310  0.2800 -0.0784
16875PP      PP26979  14.404   8.961   4.784  0.0370  0.2402 -0.1405
16876PP      PP26980  14.292  10.499   4.354  0.2470 -0.3326  0.0708
16877PP      PP26981  11.068  15.291   0.783 -0.1878  0.4772  0.1074
16878PP      PP26982   7.418   2.129   2.421  0.3250  0.0098 -0.0019
16879PP      PP26983  10.139  10.354   1.058 -0.1239  0.0445  0.3633
16880PP      PP26984  10.794   8.240  11.465  0.0040 -0.2335  0.2103
16881PP      PP26985  11.273   8.073   0.562  0.0116  0.0876 -0.1348
16882PP      PP26986   2.734   5.833  13.148 -0.0253 -0.0420  0.2858
16883PP      PP26987   2.824   5.903   4.922 -0.2166  0.3619  0.2248
16884PP      PP26988   1.205   2.438  11.169 -0.1310 -0.0728  0.1698
16885PP      PP26989  14.976   6.526   2.266  0.0869 -0.1681 -0.0783
16886PP      PP26990  13.685  15.204   0.808 -0.0763  0.2164 -0.0532
16887PP      PP26991   2.521   5.006  13.389  0.0616 -0.1486 -0.0488
16888PP      PP26992  11.123  15.606   9.957  0.2049  0.2156 -0.3103
16889PP      PP26993   8.656   0.248  10.667  0.3855 -0.1607 -0.0363
16890PP      PP26994   8.243  14.878   0.011 -0.1566 -0.2618 -0.0714
16891PP      PP26995   6.616   2.523   7.481  0.0427 -0.3734 -0.0947
16892PP      PP26996  13.533   5.097   2.699  0.3110  0.0749 -0.0016
16893PP      PP26997   2.747   6.603  10.749 -0.2796  0.3491 -0.1980
16894PP      PP26998  14.565  12.910   4.395  0.1969  0.2690 -0.0664
16895PP      PP26999   8.336   6.018   1.337 -0.2034 -0.0849  0.0217
16896PP      PP27000  11.312   1.321   1.448  0.0252 -0.0696 -0.1457
16897PP      PP27001  13.069   3.381   4.252  0.0555  0.0049  0.0396
16898PP      PP27002   9.699   8.570  12.773  0.3154 -0.0123 -0.0428
16899PP      PP27003   7.713   9.691   2.620  0.0482 -0.0691  0.1585
16900PP      PP27004   4.232  13.318   9.159  0.0408  0.0121 -0.3807
16901PP      PP27005  14.652   6.570  13.304  0.3796  0.0696  0.1830
16902PP      PP27006   5.438  14.124   2.292  0.0527  0.4415 -0.1034
16903PP      PP27007   3.187  13.206   8.730  0.0867 -0.1358  0.3422
16904PP      PP27008   5.380  12.496   2.428  0.1649 -0.1327  0.1361
16905PP      PP27009  14.712  14.070  11.966 -0.3533 -0.0085  0.1465
16906PP      PP27010  10.961   5.087  10.958 -0.2187 -0.1048  0.2848
16907PP      PP27011   2.062  13.828   2.434  0.0970  0.1253 -0.2301
16908PP      PP27012   2.991   2.175   3.995  0.0859 -0.2604 -0.0755
16909PP      PP27013   6.277   9.705   4.850 -0.0413  0.2314 -0.0170
16910PP      PP27014   6.441   1.438   0.123  0.0676  0.0631  0.0970
16911PP      PP27015   9.933  15.064   2.914  0.1259  0.1198 -0.1686
16912PP      PP27016   3.539   3.901  13.733 -0.0642  0.0689 -0.1368
16913PP      PP27017  10.754   0.625   2.506 -0.0293 -0.0783  0.0552
16914PP      PP27018   6.636   5.170  13.637  0.0278  0.2499  0.0350
16915PP      PP27019  10.215   1.966  11.182 -0.1724 -0.0977  0.0850
16916PP      PP27020  10.905   7.076  13.624 -0.1018  0.1542 -0.0826
16917PP      PP27021   2.799   8.172  11.918  0.0179  0.0951  0.1576
16918PP      PP27022   4.923  15.372   0.853 -0.0215 -0.1340  0.3229
16919PP      PP27023   6.600   7.605  10.957 -0.3337  0.1621  0.1148
16920PP      PP27024   6.301   3.342   0.807 -0.1006  0.3298 -0.0754
16921PP      PP27025   0.461   6.066   0.204 -0.2185 -0.0446  0.0036
16922PP      PP27026   7.569   7.639   0.249  0.1675  0.0596  0.2157
16923PP      PP27027  11.303   4.488  12.691 -0.0265  0.0593 -0.2296
16924PP      PP27028   6.544  14.529  11.533 -0.0235  0.1357 -0.0790
16925PP      PP27029  10.288  14.201   2.582  0.1104  0.1465  0.3179
16926PP      PP27030   7.055   5.122  13.333 -0.0316  0.2263 -0.2601
16927PP      PP27031   9.523   5.973  11.288  0.0266  0.2171 -0.0941
16928PP      PP27032   9.467   1.389  11.355  0.0382 -0.2328 -0.2004
16929PP      PP27033  10.189   7.179   3.498 -0.2906  0.2706  0.0186
16930PP      PP27034   2.385   2.507  11.481  0.2793  0.1258 -0.1561
16931PP      PP27035  13.175   6.144   5.223  0.0265 -0.1513  0.1263
16932PP      PP27036  14.194  11.005   3.219 -0.0255  0.1288 -0.2736
16933PP      PP27037   1.569   6.580   2.341  0.0700  0.3170  0.2075
16934PP      PP27038   7.268   7.519   9.374  0.1682 -0.2892 -0.0553
16935PP      PP27039  14.534   3.293  12.490  0.2673  0.3346  0.2528
16936PP      PP27040   7.960   7.241   0.523  0.0141  0.0352 -0.0145
16937PP      PP27041   8.346  11.313  13.161  0.3185  0.0616  0.0791
16938PP      PP27042   7.793   0.326  13.725  0.2741 -0.2222 -0.0430
16939PP      PP27043  12.315   2.688   4.236  0.1329  0.0209  0.2873
16940PP      PP27044  14.837   2.584  12.648 -0.1459  0.1369  0.1313
16941PP      PP27045  15.548   6.703  12.806  0.1034  0.0747  0.0982
16942PP      PP27046   6.817   1.841  11.508 -0.2336  0.2301  0.2477
16943PP      PP27047   7.233  10.581   4.365 -0.2352 -0.1124  0.0686
16944PP      PP27048   7.549  10.828  11.645  0.1224  0.0982  0.3792
16945PP      PP27049   7.764   0.280  11.940  0.1268  0.0567  0.2157
16946PP      PP27050  11.802   9.260   1.953 -0.2341 -0.2572  0.0345
16947PP      PP27051   5.787   7.560   4.373  0.1602  0.1549  0.0422
16948PP      PP27052   4.884   0.720   1.927 -0.0747 -0.3000 -0.1063
16949PP      PP27053  12.178  10.003   5.610  0.1863 -0.4483  0.0727
16950PP      PP27054   9.162   7.435  11.271  0.0916  0.0742 -0.0489
16951PP      PP27055  15.537   0.499   8.746  0.0753 -0.0493 -0.1088
16952PP      PP27056   8.551   6.238  12.840  0.1060  0.2273  0.2343
16953PP      PP27057  11.191  14.794  10.505 -0.0378 -0.0293  0.0087
16954PP      PP27058  11.882  12.117  11.173 -0.1303  0.1249 -0.0320
16955PP      PP27059   0.203  13.088   3.360 -0.1263  0.1092 -0.2183
16956PP      PP27060   7.495  15.364   3.263  0.0979  0.0229 -0.1742
16957PP      PP27061   1.664   8.282  12.227  0.0076  0.1032  0.1002
16958PP      PP27062   6.405   0.343  12.316 -0.0927  0.2446  0.2303
16959PP      PP27063   4.666  13.060   1.158  0.2739 -0.0476  0.0549
16960PP      PP27064   0.040  11.732   3.012  0.1241  0.0568  0.0322
16961PP      PP27065  14.399  15.482  11.257  0.0285 -0.1545  0.0630
16962PP      PP27066   1.095   9.699  12.857  0.1704  0.0369  0.1006
16963PP      PP27067  15.103   6.261  11.184  0.0642 -0.2123 -0.1362
16964PP      PP27068   2.130  14.802  12.785 -0.1261 -0.2667 -0.2486
16965PP      PP27069  14.138   2.814  11.364  0.1092  0.2167 -0.0256
16966PP      PP27070  13.635  14.306   1.783 -0.0695  0.2400  0.1831
16967PP      PP27071   6.924  15.561   2.370 -0.0291  0.0179 -0.0554
16968PP      PP27072   5.314   2.856  11.696  0.0347 -0.3266 -0.2180
16969PP      PP27073  10.624   9.511  13.190 -0.2879 -0.0885  0.1271
16970PP      PP27074   5.064   7.360   0.329 -0.2698 -0.1179 -0.2783
16971PP      PP27075   7.980   9.863  12.515  0.0840 -0.4229 -0.2244
16972PP      PP27076  14.497  11.398   3.026  0.0261  0.0773  0.2861
16973PP      PP27077   7.299   3.444   9.676  0.0568 -0.3372 -0.0526
16974PP      PP27078   6.674   1.112   0.438  0.2429  0.1582  0.0615
16975PP      PP27079   9.508  11.944   0.283 -0.2068  0.0363 -0.1266
16976PP      PP27080   8.426  11.925  11.553  0.1764  0.0245 -0.2189
16977PP      PP27081  12.303  12.904   1.886  0.1244  0.0932  0.1536
16978PP      PP27082   0.009  13.449   1.396 -0.0359 -0.0748 -0.1546
16979PP      PP27083   1.565   7.226  10.744  0.2496  0.1725 -0.0516
16980PP      PP27084   2.111   0.212   2.536  0.1411 -0.0487 -0.4284
16981PP      PP27085   8.009   2.795   1.344 -0.0054  0.0768 -0.2305
16982PP      PP27086  15.198  13.513  12.797 -0.1660 -0.0925 -0.1972
16983PP      PP27087   2.668   7.774   3.434  0.2796 -0.0524 -0.1488
16984PP      PP27088  14.396   3.661   4.272  0.3572 -0.0187  0.3417
16985PP      PP27089   1.361   4.914   3.397 -0.0448  0.0757 -0.0592
16986PP      PP27090   6.064  13.286   1.202  0.0419 -0.0136 -0.0676
16987PP      PP27091   3.528   8.322   2.223  0.0533 -0.2634 -0.2975
16988PP      PP27092   4.875   9.336   9.689 -0.1568  0.1165  0.3455
16989PP      PP27093  11.037   4.828  13.051  0.0260  0.0665  0.0590
16990PP      PP27094   9.596  13.007   0.159 -0.2650  0.0473  0.0744
16991PP      PP27095   3.925   4.362  11.270 -0.0241 -0.0276 -0.2073
16992PP      PP27096   0.477  15.730  11.872  0.0133  0.0842  0.2245
16993PP      PP27097  11.218  10.021   5.869 -0.2381  0.0891 -0.0143
16994PP      PP27098   4.987   7.702  11.394  0.2630 -0.2105 -0.2655
16995PP      PP27099   5.378  14.548  13.198  0.1028  0.0092  0.3274
16996PP      PP27100  10.819   8.128   2.058 -0.0432 -0.0509 -0.1969
16997PP      PP27101   6.577   8.850   1.283 -0.1406 -0.1215  0.0194
16998PP      PP27102  13.102  15.094  13.743 -0.3504  0.0273 -0.2917
16999PP      PP27103   5.181   0.590  10.053 -0.3180 -0.0628  0.1195
17000PP      PP27104   0.439   1.989  11.671  0.2015  0.1051 -0.0559
17001PP      PP27105  15.085   0.421   8.482 -0.1050  0.1277 -0.1272
17002PP      PP27106   3.844   5.978   3.335  0.0187  0.0492  0.0582
17003PP      PP27107   8.865   5.238  13.043  0.1936 -0.0678  0.2373
17004PP      PP27108   2.220  13.458  10.310 -0.0099 -0.2289  0.2568
17005PP      PP27109  11.779   5.019   2.611 -0.1340 -0.1373 -0.0149
17006PP      PP27110   4.077   1.028  11.885  0.0582 -0.4370  0.0691
17007PP      PP27111  10.446  11.438  10.286 -0.2558  0.1968  0.0458
17008PP      PP27112   2.558   0.615   4.220 -0.2680 -0.2984 -0.3476
17009PP      PP27113   1.977   7.805   2.063  0.4206 -0.2240 -0.1053
17010PP      PP27114  12.971  13.597   8.999 -0.1327  0.0403  0.1210
17011PP      PP27115   7.337  15.715  10.881 -0.1608  0.0066 -0.4525
17012PP      PP27116   2.968  10.342   3.489  0.1506  0.0500  0.4839
17013PP      PP27117  14.029   5.552  10.096 -0.0048 -0.0139 -0.1254
17014PP      PP27118  14.381   9.081  10.998  0.1031 -0.1412 -0.0222
17015PP      PP27119  10.232   6.167   8.857 -0.1185 -0.0057 -0.0079
17016PP      PP27120  14.044   2.416  10.918 -0.1448  0.1463 -0.0529
17017PP      PP27121   0.973   6.851   8.880 -0.3823 -0.0439 -0.1024
17018PP      PP27122  13.014   0.343   4.183  0.1404  0.1543 -0.1265
17019PP      PP27123   9.494   5.193   0.964  0.2025  0.4640 -0.0359
17020PP      PP27124   9.826   5.504   1.677  0.2859 -0.1786  0.2493
17021PP      PP27125   6.797   8.109  10.002  0.2327  0.1314 -0.0302
17022PP      PP27126  10.377   4.284   3.476  0.0307  0.1446 -0.0423
17023PP      PP27127   2.425  15.411  13.568 -0.1178 -0.0428  0.1575
17024PP      PP27128   9.796  12.127   4.004  0.0314  0.0162 -0.0139
17025PP      PP27129  10.288   2.333   3.078  0.0075 -0.0099 -0.0775
17026PP      PP27130  11.463   5.276  12.240 -0.1876 -0.1014 -0.0352
17027PP      PP27131  15.387   0.290   1.362  0.1364  0.1753  0.2753
17028PP      PP27132   5.245  10.736   4.135  0.0045 -0.0614  0.0356
17029PP      PP27133  14.391   4.972   3.068 -0.0032 -0.0799  0.0125
17030PP      PP27134   6.740  11.409   9.323  0.0325 -0.0759  0.0422
17031PP      PP27135   6.109   3.583   9.681 -0.0433 -0.1667  0.0950
17032PP      PP27136   5.319   9.479   4.340 -0.2348  0.2371 -0.2132
17033PP      PP27137  13.145  10.758   2.613  0.3949 -0.0650  0.1664
17034PP      PP27138   8.495  10.250   4.373  0.2654 -0.3047 -0.3563
17035PP      PP27139  13.063   9.868   4.695 -0.2755 -0.0573 -0.0726
17036PP      PP27140   6.460  11.443   3.590 -0.2487 -0.1004  0.0006
17037PP      PP27141   4.769  12.323  13.485  0.1960  0.0019 -0.4667
17038PP      PP27142   7.938  14.591   0.815 -0.0321 -0.0168  0.1187
17039PP      PP27143   0.401   0.367  11.418 -0.0716 -0.0583 -0.1036
17040PP      PP27144  13.700   3.390   1.732  0.1853 -0.1449  0.1842
17041PP      PP27145   5.628  10.210  12.374  0.1058 -0.3195  0.0515
17042PP      PP27146   9.704   5.046   0.358  0.1181 -0.1961 -0.0018
17043PP      PP27147  12.054  13.636   0.028  0.1407 -0.1697 -0.0450
17044PP      PP27148  14.945   1.183  13.468 -0.2215  0.3422 -0.0504
17045PP      PP27149   4.828   8.538   3.455 -0.1145 -0.0460 -0.1405
17046PP      PP27150   4.582   0.350   9.322  0.1247  0.3280  0.0470
17047PP      PP27151   5.587   3.447  10.482 -0.1098  0.1429 -0.0005
17048PP      PP27152   4.964   1.364  12.964  0.0834 -0.2458 -0.2359
17049PP      PP27153   2.365  11.631   2.956 -0.0396  0.1115 -0.1750
17050PP      PP27154  11.446   7.206   9.936 -0.0323  0.0808 -0.1050
17051PP      PP27155   0.272  12.197   4.028  0.0084  0.2107 -0.0307
17052PP      PP27156   6.401  15.397  13.052 -0.1458 -0.1719 -0.2097
17053PP      PP27157   8.057  13.688   2.265  0.0252  0.3610  0.2206
17054PP      PP27158   6.315  11.324   1.897  0.0188 -0.0688 -0.1691
17055PP      PP27159   9.519   6.199   8.991  0.0151 -0.2501  0.2248
17056PP      PP27160  15.616   9.259  11.733 -0.6355  0.1001 -0.1395
17057PP      PP27161   1.962   1.086   3.308 -0.3007  0.0921  0.0320
17058PP      PP27162   6.037   9.718  13.050  0.0031 -0.1467 -0.2538
17059PP      PP27163  13.304   2.103  11.744 -0.2183 -0.2778  0.0073
17060PP      PP27164   6.226   3.072   1.763  0.2234 -0.1751 -0.2985
17061PP      PP27165  13.491   6.743   1.997 -0.0939 -0.0439  0.1763
17062PP      PP27166   3.392   8.895   3.527  0.1531  0.2259  0.0234
17063PP      PP27167  14.416  15.101   0.015  0.0634  0.1722 -0.0051
17064PP      PP27168  13.335   1.010   1.220  0.1339  0.1760  0.2731
17065PP      PP27169  15.430   3.668  10.771  0.0436  0.1052  0.2999
17066PP      PP27170   5.583  13.343   3.126 -0.3857  0.2765  0.1248
17067PP      PP27171   7.772   7.983   3.672 -0.3227  0.1790 -0.1545
17068PP      PP27172   9.444  12.104   0.722  0.0363 -0.0334 -0.4315
17069PP      PP27173   7.445  11.203   1.505  0.2336  0.0872  0.1164
17070PP      PP27174  12.866   3.327  11.549 -0.3277 -0.0707  0.4132
17071PP      PP27175  13.505   4.821  10.068 -0.0136 -0.3839 -0.0678
17072PP      PP27176   3.830  12.238  13.233  0.1624  0.0958  0.1462
17073PP      PP27177   1.104   2.048   1.385 -0.0544 -0.2342 -0.2959
17074PP      PP27178   7.693   9.871   4.293 -0.1107  0.4111 -0.0108
17075PP      PP27179   5.595   5.747   0.823  0.0359  0.1938 -0.2310
17076PP      PP27180  14.051   7.729  13.046  0.1830 -0.1042  0.0298
17077PP      PP27181  10.002  11.707   3.738 -0.1322 -0.0231 -0.2204
17078PP      PP27182   3.600   3.642   8.534  0.2946  0.3040  0.0465
17079PP      PP27183  12.694   3.895   9.649 -0.0568  0.1409  0.1497
17080PP      PP27184  11.079  14.212   2.761  0.1294  0.5066 -0.1983
17081PP      PP27185  14.680  13.762   8.668  0.0436 -0.0663 -0.2312
17082PP      PP27186  14.689  12.388   3.191 -0.3527  0.1447  0.0541
17083PP      PP27187   2.053   4.870   0.122 -0.3937  0.3635 -0.0732
17084PP      PP27188   2.952   4.056   9.078 -0.0570  0.0366 -0.3399
17085PP      PP27189   5.790   4.091  12.483  0.0335 -0.0828 -0.0486
17086PP      PP27190   2.190   7.940   0.439 -0.1088  0.2125  0.1430
17087PP      PP27191  11.271   9.840  11.663  0.1231 -0.0613 -0.0730
17088PP      PP27192  10.899   0.723  13.630 -0.1158  0.1216  0.0423
17089PP      PP27193   9.301   6.646   9.883  0.2055  0.0042  0.0658
17090PP      PP27194   2.473   2.200   8.646 -0.2512  0.1213  0.3948
17091PP      PP27195  10.956  11.294   5.899 -0.0123  0.2840  0.0820
17092PP      PP27196  15.292  13.008   2.178 -0.0264  0.1665  0.0390
17093PP      PP27197  11.180  14.919  12.897  0.1715 -0.1431  0.2590
17094PP      PP27198   4.944  13.968  11.854  0.0303 -0.0256  0.1348
17095PP      PP27199   5.466   3.878  12.960 -0.2203  0.1430 -0.0376
17096PP      PP27200   1.494  11.118   2.316 -0.0688 -0.1645 -0.0594
17097PP      PP27201   4.401   3.094  11.597  0.1387 -0.1021  0.1864
17098PP      PP27202  14.320  11.906  10.231 -0.3671 -0.1707 -0.0302
17099PP      PP27203   2.834   6.608  12.679  0.1040  0.0515  0.1589
17100PP      PP27204  15.688   2.846   2.509 -0.0144  0.0438 -0.1466
17101PP      PP27205   4.680  12.321   3.212 -0.2370 -0.0672  0.0551
17102PP      PP27206  11.004   1.674   9.989  0.2545  0.0660  0.2135
17103PP      PP27207   6.671   9.891   1.745  0.1337 -0.0994  0.0337
17104PP      PP27208  13.307  14.020   9.044  0.1101 -0.0415 -0.1026
17105PP      PP27209  10.784   7.114  11.682  0.0524 -0.1915 -0.2577
17106PP      PP27210  11.459   1.676  10.112  0.1400  0.0913 -0.0587
17107PP      PP27211  15.334   4.249   2.984 -0.1581  0.2233  0.0274
17108PP      PP27212   4.536   3.850   8.462  0.2536  0.0544 -0.0756
17109PP      PP27213   8.661   0.883  12.497 -0.1393  0.1304 -0.1058
17110PP      PP27214   8.959   5.293   4.203 -0.0098  0.1667  0.0681
17111PP      PP27215   6.507   7.259   8.412 -0.1000 -0.1790  0.1339
17112PP      PP27216   9.790   0.318  12.360  0.0849 -0.3415  0.0820
17113PP      PP27217   7.297   0.049  10.247  0.3259 -0.2126  0.1702
17114PP      PP27218  15.076  11.628  12.635  0.0187  0.1730  0.0833
17115PP      PP27219   1.622  11.967   4.134 -0.4470  0.2441  0.2993
17116PP      PP27220   5.581   4.803   9.124  0.0975 -0.2281  0.2505
17117PP      PP27221   3.067   5.201  11.174  0.0974  0.3488  0.2436
17118PP      PP27222   4.022   3.726   9.130 -0.0190  0.0376  0.0990
17119PP      PP27223  13.043  11.555  10.428  0.0887 -0.1056  0.0902
17120PP      PP27224   2.518  11.120   9.473  0.0298  0.2302  0.0975
17121PP      PP27225   3.370  13.753   8.708  0.0829 -0.0365  0.0458
17122PP      PP27226   7.990   2.740   8.263 -0.1063  0.3655 -0.2155
17123PP      PP27227   3.473   2.158  13.472 -0.1703 -0.0779  0.1020
17124PP      PP27228   9.974   4.780  12.264  0.3216  0.1170 -0.2065
17125PP      PP27229  12.580   0.029   0.648 -0.1089  0.2076 -0.1514
17126PP      PP27230   8.541   5.103   2.449 -0.0309 -0.1169 -0.1389
17127PP      PP27231  12.545  14.779   2.771 -0.0195 -0.0913  0.0422
17128PP      PP27232   2.851   3.317  10.122  0.0672  0.1232  0.0005
17129PP      PP27233  10.559  15.485   1.049  0.0876 -0.1552  0.2956
17130PP      PP27234   0.618   4.239   1.516 -0.0209 -0.1862 -0.2863
17131PP      PP27235   3.374  15.733   2.432  0.2167  0.1639  0.4027
17132PP      PP27236   7.700   5.319  11.172 -0.0899 -0.0251 -0.1395
17133PP      PP27237   8.204   5.879   9.982  0.0472 -0.5318  0.1360
17134PP      PP27238  13.906  15.268  12.907 -0.0058  0.1228  0.0919
17135PP      PP27239   4.057   2.400  11.928  0.4236  0.4403  0.4682
17136PP      PP27240   8.230   6.039   8.916 -0.1608 -0.0788  0.1963
17137PP      PP27241  14.472  11.195  13.324 -0.0875 -0.3288 -0.1258
17138PP      PP27242   9.237  11.087   0.843 -0.4473  0.1783 -0.0891
17139PP      PP27243   0.603   1.367   2.412  0.1015 -0.1044 -0.1535
17140PP      PP27244  10.801  12.807   4.547  0.0599 -0.1981 -0.1892
17141PP      PP27245  13.287   1.979  10.578  0.1270 -0.1614 -0.2094
17142PP      PP27246  13.550  14.028  11.067  0.0836  0.1578  0.2046
17143PP      PP27247   0.879   1.040  13.286 -0.0677  0.2025  0.1718
17144PP      PP27248   7.546  11.346   9.924  0.1464 -0.0058  0.1409
17145PP      PP27249  10.445   4.171   1.448 -0.0615 -0.2105  0.0773
17146PP      PP27250   5.630   6.028  11.848 -0.3800 -0.1810 -0.3752
17147PP      PP27251   1.364  12.827   9.952 -0.0435 -0.2049 -0.2966
17148PP      PP27252   4.035   9.845   3.112  0.1409 -0.2329  0.0854
17149PP      PP27253   8.414  14.029  10.626 -0.1037  0.3463 -0.2129
17150PP      PP27254  10.969   8.494   1.209  0.1574 -0.0531 -0.1691
17151PP      PP27255   4.188  12.232  11.064  0.0101 -0.1322  0.2627
17152PP      PP27256   4.337   0.937   8.636  0.3358 -0.0406 -0.3207
17153PP      PP27257  13.538  11.344  12.996 -0.0280 -0.2201 -0.4738
17154PP      PP27258  15.681   9.996  12.001 -0.1685  0.0706  0.2939
17155PP      PP27259  13.229   0.931  12.280  0.0681  0.0030 -0.1271
17156PP      PP27260   6.092  14.011  12.368  0.1462 -0.2895  0.1051
17157PP      PP27261  11.214   0.674   2.829 -0.0166  0.1165 -0.1348
17158PP      PP27262   4.217   3.867   2.893 -0.0526 -0.2740 -0.0102
17159PP      PP27263   3.880   7.718   4.299 -0.0778 -0.0009  0.1543
17160PP      PP27264  15.553   1.058   9.705 -0.2148  0.1554  0.2213
17161PP      PP27265  12.604   4.880  12.838  0.2009  0.0444  0.2394
17162PP      PP27266  13.691   5.962   3.776  0.3562 -0.1209 -0.1177
17163PP      PP27267  13.162   4.049  13.720  0.1099 -0.2066 -0.0312
17164PP      PP27268   4.788   3.667  13.346 -0.3625 -0.0796 -0.3820
17165PP      PP27269  11.764   1.280  11.334  0.0486  0.3075  0.0329
17166PP      PP27270   7.577   6.442  13.467  0.0323 -0.1323 -0.2341
17167PP      PP27271   3.120  10.268   9.688  0.0470 -0.0900  0.3517
17168PP      PP27272   8.541  11.360  13.675  0.3887 -0.2709 -0.0685
17169PP      PP27273   9.093  13.315  10.770 -0.2716 -0.4334 -0.0258
17170PP      PP27274  12.556   8.780  11.082  0.1618  0.2948 -0.0691
17171PP      PP27275   3.994  10.456  11.544 -0.0439  0.0631  0.0103
17172PP      PP27276  15.469   2.844  12.032 -0.5080  0.2931  0.6540
17173PP      PP27277   3.043   9.295  12.830 -0.2218 -0.0928  0.1112
17174PP      PP27278   2.456  15.128   0.335 -0.1321 -0.1161  0.1483
17175PP      PP27279   2.409   5.502   3.420 -0.0934  0.0154 -0.0888
17176PP      PP27280   8.769  15.680   0.679  0.4002  0.2021 -0.1624
17177PP      PP27281   3.647   7.453  11.429  0.1079 -0.0394 -0.0417
17178PP      PP27282   3.631   5.245   3.704 -0.0242 -0.2210  0.0032
17179PP      PP27283   1.564  15.400  13.614  0.0099 -0.2537 -0.0137
17180PP      PP27284   5.941  10.572   9.996  0.0781  0.1363  0.4753
17181PP      PP27285  10.594   4.005  11.960 -0.2696  0.0092 -0.1120
17182PP      PP27286  12.516  13.179   4.116 -0.0584  0.0462  0.1603
17183PP      PP27287   3.326   4.027   8.396 -0.0522  0.0170  0.0823
17184PP      PP27288   5.691   1.782  12.483  0.2098 -0.1272 -0.0625
17185PP      PP27289   8.215   4.432   2.202 -0.2150 -0.2316 -0.0463
17186PP      PP27290   7.995   4.211   1.135 -0.2285  0.1504 -0.0720
17187PP      PP27291   5.980   2.293   2.846 -0.1768  0.1332 -0.0608
17188PP      PP27292   9.254  12.323   3.857 -0.0709  0.0903  0.1342
17189PP      PP27293  11.050   7.377   1.417 -0.3630  0.0948  0.0866
17190PP      PP27294   3.250   1.677   9.147  0.0109 -0.1510 -0.0493
17191PP      PP27295   5.817   7.227   0.610 -0.3068 -0.3167  0.2905
17192PP      PP27296  13.712  11.982  13.633 -0.4648  0.0377 -0.1401
17193PP      PP27297  13.567   0.587   4.043  0.0177 -0.1165 -0.1596
17194PP      PP27298  13.832  13.225  13.122 -0.1717 -0.0093  0.0677
17195PP      PP27299  11.989   4.807   0.247  0.1838 -0.1043  0.1380
17196PP      PP27300  13.186  14.183   3.176 -0.1326  0.2058  0.0765
17197PP      PP27301  14.451  13.602   1.710  0.0790 -0.2200  0.1835
17198PP      PP27302   3.536   9.593  12.385  0.0272 -0.0911  0.0071
17199PP      PP27303  10.433  14.092  13.370  0.0113 -0.4689 -0.1488
17200PP      PP27304   7.310   4.697  13.162 -0.1983  0.3823 -0.3927
17201PP      PP27305  12.788   8.341   5.565  0.0003 -0.1064  0.3350
17202PP      PP27306   6.617   9.617   9.970 -0.1396 -0.2089 -0.0545
17203PP      PP27307   2.036  15.431   3.710 -0.1899 -0.1849 -0.1130
17204PP      PP27308   8.296   4.652   0.773  0.1784  0.1421 -0.0982
17205PP      PP27309   5.876   4.299   2.558 -0.0916 -0.3636  0.0694
17206PP      PP27310   0.772   3.859  10.492 -0.2363 -0.2251  0.1926
17207PP      PP27311   0.178   5.878  11.310  0.0807 -0.2151 -0.4059
17208PP      PP27312   2.879  10.332   2.581  0.2097 -0.0900 -0.3312
17209PP      PP27313  14.192   5.866   2.674 -0.0570 -0.1746  0.3779
17210PP      PP27314  12.572   4.059   0.180  0.0246  0.1439 -0.0154
17211PP      PP27315   2.106  14.222   9.909  0.4278  0.0379 -0.0093
17212PP      PP27316   2.574  12.033  11.303 -0.1823 -0.0847 -0.0678
17213PP      PP27317  10.946  12.294   3.175 -0.0006  0.1756 -0.2136
17214PP      PP27318  13.875  10.352   2.417 -0.1550 -0.0888  0.1405
17215PP      PP27319   0.393   7.469   2.775  0.0172  0.0769  0.1683
17216PP      PP27320   6.794  10.408  10.397  0.0792  0.1670 -0.0103
17217PP      PP27321   5.749  13.794  12.122 -0.1778 -0.0503  0.0924
17218PP      PP27322   1.080  12.360   3.199 -0.2282  0.2662  0.0183
17219PP      PP27323   1.453   4.914   2.903  0.0142 -0.0540 -0.0293
17220PP      PP27324  13.620   2.338  10.007  0.0787 -0.1524 -0.0417
17221PP      PP27325   3.913   9.494  11.653  0.1696  0.4162 -0.0406
17222PP      PP27326   7.328   0.056   7.562 -0.1330 -0.0311  0.3273
17223PP      PP27327   0.861   1.906   1.819 -0.4334  0.0501 -0.0465
17224PP      PP27328  14.635  10.728   3.471  0.3021 -0.0231 -0.2697
17225PP      PP27329   8.450   6.494  10.896  0.0972 -0.0441  0.0667
17226PP      PP27330   0.466  11.045  10.545  0.1526 -0.2654  0.0876
17227PP      PP27331  13.649   5.001   1.467  0.0992  0.0462  0.2764
17228PP      PP27332   9.956   8.776   3.664 -0.2955  0.2531  0.1156
17229PP      PP27333   4.072   1.310  10.935  0.2935 -0.1084  0.1267
17230PP      PP27334   8.471  11.357   3.813  0.2246 -0.2649  0.3104
17231PP      PP27335   0.398   0.891  11.445  0.4583  0.1852 -0.0151
17232PP      PP27336  14.362   1.768  10.747  0.0352 -0.1997 -0.1414
17233PP      PP27337   7.829   7.093   4.084 -0.1380  0.1083  0.0760
17234PP      PP27338  10.264  13.366   4.976  0.2126  0.1410  0.3207
17235PP      PP27339   4.050   1.302   9.085  0.1422 -0.0383 -0.2668
17236PP      PP27340   1.607  14.363  10.079 -0.1618  0.1206 -0.0221
17237PP      PP27341   3.387   1.190  13.200 -0.2649  0.0090 -0.1888
17238PP      PP27342  14.577   4.242   0.186  0.2968 -0.1069  0.1505
17239PP      PP27343   8.170   0.813   3.820 -0.1697  0.2140 -0.1693
17240PP      PP27344   7.725  14.339  12.216 -0.1729 -0.1927  0.1610
17241PP      PP27345  10.424  13.526   2.609 -0.2664  0.2469 -0.1459
17242PP      PP27346  14.423   1.654  13.706  0.0572  0.5288  0.1415
17243PP      PP27347   6.053   9.980   3.367  0.0166 -0.0047  0.1945
17244PP      PP27348  13.946  13.077   8.791  0.1700  0.2783 -0.1167
17245PP      PP27349  13.056  13.023   9.076 -0.0092  0.0635 -0.1049
17246PP      PP27350  10.786   9.878  13.588  0.0041  0.0611 -0.1645
17247PP      PP27351  11.443   3.628   3.820  0.0285  0.1263 -0.1810
17248PP      PP27352   7.205  15.078  10.837 -0.0425  0.3041  0.0239
17249PP      PP27353   8.250   2.829  10.106 -0.0582  0.1364 -0.0429
17250PP      PP27354  11.562   5.599   0.071 -0.3765  0.1583  0.2286
17251PP      PP27355   0.193   2.619   2.197  0.1122  0.1546  0.1990
17252PP      PP27356   7.188   6.248  13.214 -0.0534 -0.1176 -0.2361
17253PP      PP27357   7.300   4.051   8.674 -0.1066  0.3695 -0.4772
17254PP      PP27358   0.209   8.131   2.282  0.1317  0.0373  0.0143
17255PP      PP27359   6.995   2.993   1.541 -0.0303 -0.3226  0.1162
17256PP      PP27360   0.262  14.915   3.359  0.0031 -0.2813 -0.0435
17257PP      PP27361  11.576   3.575   0.549  0.1037  0.0045 -0.1368
17258PP      PP27362   3.120   2.722  12.063 -0.1834  0.0509 -0.0691
17259PP      PP27363   1.922   5.198  12.168  0.0190  0.1647  0.2241
17260PP      PP27364   6.592  10.753  12.039  0.0688  0.1254 -0.1038
17261PP      PP27365   4.537   9.349   4.645 -0.0821 -0.1764 -0.4202
17262PP      PP27366   3.845   1.308  13.078  0.0348  0.1071  0.0164
17263PP      PP27367   6.411   5.285   1.304  0.1406  0.0404  0.2278
17264PP      PP27368   0.235   8.862  13.224 -0.2440 -0.1591  0.0538
17265PP      PP27369  14.282   4.277  12.680 -0.2747  0.0229  0.0473
17266PP      PP27370  10.619   7.842   0.066 -0.4150  0.1149  0.0792
17267PP      PP27371   5.632   8.514   1.003 -0.1187 -0.2730 -0.0335
17268PP      PP27372   9.938   2.983   8.962  0.0503  0.0488 -0.1145
17269PP      PP27373   1.552  14.505   0.797 -0.3462 -0.1596  0.0631
17270PP      PP27374   8.633   9.767   4.192  0.0310 -0.1775 -0.3035
17271PP      PP27375   9.236   5.025   0.551 -0.1127 -0.2239 -0.0987
17272PP      PP27376   2.963   6.324   3.378 -0.0242  0.1541  0.0155
17273PP      PP27377   2.086  13.941  12.508  0.0720 -0.1850 -0.0156
17274PP      PP27378   3.134  11.205  10.771  0.2743 -0.0774  0.0449
17275PP      PP27379  11.254   6.876   4.060 -0.1697 -0.2700 -0.3342
17276PP      PP27380   7.078   2.679  11.020  0.0808  0.0764  0.2275
17277PP      PP27381  12.144   6.724   0.967  0.2030 -0.1464  0.0050
17278PP      PP27382   2.696   2.910   0.041  0.2000 -0.4027  0.0621
17279PP      PP27383  13.588  10.725   4.890 -0.0190  0.0545 -0.0331
17280PP      PP27384  12.641  10.162   5.457  0.1718 -0.0889  0.3063
17281PP      PP27385  13.353   7.234   0.611 -0.0095  0.2610 -0.1542
17282PP      PP27386  11.148   6.386   4.617  0.2263 -0.1975  0.2683
17283PP      PP27387   6.139   9.094   1.545  0.0064  0.1072  0.2209
17284PP      PP27388   6.043  14.902   1.887 -0.0813 -0.1918  0.1278
17285PP      PP27389  13.453   6.653   1.432  0.0195 -0.1347  0.2096
17286PP      PP27390  13.978   5.869  10.613 -0.2121 -0.1072 -0.2161
17287PP      PP27391   8.759   2.334  12.429  0.4411 -0.0417  0.0476
17288PP      PP27392   4.467   6.986  11.452  0.0746  0.0398 -0.1408
17289PP      PP27393   4.171  12.586  11.571  0.0935  0.1152 -0.0842
17290PP      PP27394   7.484   4.128  12.992  0.1339 -0.0982  0.0078
17291PP      PP27395   2.707  10.734   3.470  0.2958 -0.0299 -0.2109
17292PP      PP27396   2.689  12.715   2.136  0.2064 -0.0068 -0.1533
17293PP      PP27397   9.978   8.644   4.476  0.0678 -0.0678  0.1138
17294PP      PP27398  11.799   7.952   0.789 -0.1451  0.1913 -0.0562
17295PP      PP27399   1.919  13.152   3.005 -0.0896  0.1019 -0.1474
17296PP      PP27400   4.293   0.896  10.484  0.0027 -0.3044  0.1877
17297PP      PP27401   2.242  13.013  13.308  0.0501  0.1442  0.0823
17298PP      PP27402   9.176   5.852  10.508 -0.1891 -0.0371  0.2336
17299PP      PP27403  13.176  14.339  11.823  0.3413  0.1061 -0.0484
17300PP      PP27404  10.574  14.927  11.379 -0.0367 -0.0146  0.2406
17301PP      PP27405   8.017  15.202  10.377 -0.1299 -0.0400  0.3486
17302PP      PP27406   7.170  10.336  11.955  0.1440  0.1281 -0.2406
17303PP      PP27407   3.627   9.160  13.210 -0.3297  0.0448 -0.1862
17304PP      PP27408   3.722   8.218   0.344 -0.1321 -0.3331  0.1775
17305PP      PP27409  10.007  12.911   1.199  0.0222  0.0332  0.2663
17306PP      PP27410  14.688   0.198   3.413 -0.2504 -0.3657 -0.1940
17307PP      PP27411   0.353   0.396   1.275  0.1255  0.1927  0.2934
17308PP      PP27412  15.518  14.899   3.633  0.1395  0.3029  0.0590
17309PP      PP27413   2.011   9.320   9.802 -0.1548  0.4733  0.2264
17310PP      PP27414   1.748  12.345  11.679  0.0725  0.2934 -0.1907
17311PP      PP27415  10.695   5.812  12.177 -0.1752  0.0199 -0.0564
17312PP      PP27416  12.886   1.619   2.397 -0.0728  0.0709  0.3650
17313PP      PP27417   2.123  12.153   2.716  0.0611 -0.0622 -0.0204
17314PP      PP27418  11.901   1.425   3.697  0.1655 -0.0935  0.0904
17315PP      PP27419  10.650  11.706   0.737 -0.0948 -0.1403  0.4252
17316PP      PP27420   7.380   6.730   3.260  0.0449  0.0481  0.2551
17317PP      PP27421  11.789   9.026  13.368  0.0509  0.0013  0.0396
17318PP      PP27422   2.760   7.747   4.184 -0.0028 -0.3286 -0.0164
17319PP      PP27423  15.073  13.845  11.065 -0.0049  0.1346 -0.0346
17320PP      PP27424  13.302   2.538   9.724  0.1934 -0.2830 -0.1164
17321PP      PP27425  10.326   9.584   5.719 -0.2427  0.1029  0.1042
17322PP      PP27426  14.060   4.761  10.422  0.1576 -0.2792  0.0811
17323PP      PP27427  11.480   9.224  10.690 -0.2069  0.2770 -0.0732
17324PP      PP27428   4.002   5.402  12.633  0.1040 -0.1553  0.1053
17325PP      PP27429  11.849  10.764   1.709 -0.0514  0.1957  0.0707
17326PP      PP27430   8.676   0.396   2.993 -0.4169  0.0862 -0.0572
17327PP      PP27431   1.347   9.994   1.525 -0.0041 -0.1945 -0.2337
17328PP      PP27432  13.667   5.465   3.645 -0.0234  0.0505  0.0728
17329PP      PP27433   9.507   2.581   0.894  0.3101 -0.2738 -0.1904
17330PP      PP27434   4.106  14.449   0.730 -0.1740  0.1363 -0.3858
17331PP      PP27435   8.566   8.309   3.211  0.0796 -0.0921 -0.0087
17332PP      PP27436   4.510   9.854  13.098 -0.1960 -0.1091 -0.0701
17333PP      PP27437   6.963  14.636   2.250  0.2611  0.1278 -0.0907
17334PP      PP27438   7.001   4.043   2.919 -0.0188  0.0765 -0.0234
17335PP      PP27439  10.333   4.170  13.118  0.1168  0.0837 -0.1160
17336PP      PP27440   1.426  10.218  13.468  0.4317 -0.1286 -0.2401
17337PP      PP27441   9.533  13.881  11.234 -0.2097  0.2347  0.1074
17338PP      PP27442   7.902  11.490  13.296 -0.0734  0.0700 -0.1645
17339PP      PP27443   5.002   2.753  13.058 -0.0349  0.2486  0.0462
17340PP      PP27444   2.340  15.225  12.852 -0.1659  0.2185  0.1336
17341PP      PP27445   1.104   3.682   3.938  0.1448  0.1442 -0.1399
17342PP      PP27446   3.799   9.879   2.490 -0.0756  0.0529 -0.0394
17343PP      PP27447  13.123   8.467   0.532 -0.3060  0.2048 -0.0750
17344PP      PP27448   7.884   3.226   1.674  0.1536 -0.0464  0.1571
17345PP      PP27449   8.290  12.597  12.689 -0.1266 -0.0317  0.2067
17346PP      PP27450   1.053   0.875   0.109 -0.2109 -0.0854  0.3301
17347PP      PP27451  12.868   4.434  13.752  0.1511 -0.2076 -0.1030
17348PP      PP27452   9.558   8.335  12.329 -0.0406  0.1065  0.2239
17349PP      PP27453  14.995   3.580   2.513  0.3736  0.0611  0.0776
17350PP      PP27454   8.327   7.710   3.974  0.2285 -0.0557 -0.2260
17351PP      PP27455   9.229   0.500   9.765  0.0216 -0.1039  0.4164
17352PP      PP27456   4.855   1.218   8.491  0.2059  0.2722  0.0514
17353PP      PP27457  12.332   4.394  13.739  0.0376  0.1066 -0.0044
17354PP      PP27458   9.557   9.342   4.464  0.4497 -0.0693  0.1046
17355PP      PP27459   2.692   5.911  10.388  0.1082  0.0274  0.0845
17356PP      PP27460   4.411   8.481  11.577  0.0382  0.1572  0.2811
17357PP      PP27461   5.014  10.017  12.967  0.0487 -0.1066  0.2944
17358PP      PP27462   8.123  11.989   1.630  0.1330 -0.2237  0.1035
17359PP      PP27463   4.439   9.292   2.243 -0.4565  0.2788  0.0356
17360PP      PP27464   3.858   8.121  12.160  0.1120 -0.0350  0.4424
17361PP      PP27465   0.875  10.163  13.123  0.0443  0.3428 -0.3676
17362PP      PP27466   1.437   3.037   0.009  0.0786  0.0134  0.3275
17363PP      PP27467  13.887  13.335   4.239 -0.1980 -0.0876  0.0690
17364PP      PP27468   0.495   8.385   0.135  0.2122 -0.0205  0.2084
17365PP      PP27469   8.788   5.865   0.895  0.1477 -0.0962 -0.0769
17366PP      PP27470   9.041  15.197  10.960  0.0539  0.2503  0.3005
17367PP      PP27471   4.215   8.308   0.432 -0.0251 -0.2009  0.1340
17368PP      PP27472   3.376  12.044   9.716 -0.0356  0.0712  0.1796
17369PP      PP27473   8.246   3.253   8.045  0.3583  0.5359 -0.0690
17370PP      PP27474  14.232   8.780   0.004  0.1894  0.1069 -0.3996
17371PP      PP27475   8.420  10.241   3.049 -0.1361 -0.0592 -0.0456
17372PP      PP27476   4.278   2.234  11.065  0.1100  0.1387 -0.0051
17373PP      PP27477   1.031   8.580  13.682  0.1999 -0.1388 -0.0203
17374PP      PP27478  15.122   5.132  12.360 -0.0788  0.1328 -0.0551
17375PP      PP27479   1.241  13.126   1.329 -0.2892 -0.3041  0.2483
17376PP      PP27480   0.097   7.240  10.777  0.0704  0.0466 -0.1778
17377PP      PP27481   9.404  13.063   1.950  0.0579  0.1317 -0.2409
17378PP      PP27482   4.243   1.754   9.466 -0.0809  0.2015  0.0279
17379PP      PP27483  12.876  11.344   4.483  0.1641  0.2419  0.1454
17380PP      PP27484   1.554  12.194   1.352 -0.1006 -0.4472 -0.1562
17381PP      PP27485   2.004   8.497  12.545  0.3881 -0.2553  0.1019
17382PP      PP27486   1.763   4.903   0.510 -0.1619  0.2591  0.0704
17383PP      PP27487  12.861  14.211   3.543  0.0732 -0.2556  0.0614
17384PP      PP27488  14.707   7.004  13.134 -0.1372 -0.1114  0.0621
17385PP      PP27489   2.603   2.627  10.324 -0.3133  0.0333  0.1104
17386PP      PP27490  11.114   5.483  11.429  0.0090 -0.0674 -0.0469
17387PP      PP27491   4.012   1.318   9.609  0.1851 -0.0592  0.0600
17388PP      PP27492   3.862   3.067  13.575 -0.1202  0.1894  0.0546
17389PP      PP27493  10.674   8.396  12.886  0.0260 -0.5809 -0.0745
17390PP      PP27494  10.816   4.420   0.040 -0.0993  0.0455  0.0249
17391PP      PP27495   9.285   3.306  10.004  0.1013 -0.0076 -0.2534
17392PP      PP27496  13.170  12.168   4.107 -0.2169  0.3722  0.0321
17393PP      PP27497   1.510   5.940   4.247 -0.2032 -0.2454 -0.1532
17394PP      PP27498  15.018   7.699  10.056  0.3481 -0.5275  0.0849
17395PP      PP27499  12.820   7.108  11.720  0.0890 -0.2297 -0.6602
17396PP      PP27500   9.592  10.614   1.817  0.0159  0.0980 -0.0880
17397PP      PP27501   3.217   9.593  10.665  0.1466 -0.1404 -0.1321
17398PP      PP27502   9.424   4.370   1.181  0.1293  0.1252 -0.0011
17399PP      PP27503   5.289   9.124   2.565  0.0541 -0.1692 -0.0728
17400PP      PP27504  11.060   6.709   0.856 -0.0653 -0.2867  0.1872
17401PP      PP27505  12.654   8.983  13.055  0.1327  0.0714  0.1274
17402PP      PP27506  13.103   4.813   9.370 -0.1350  0.0429  0.1608
17403PP      PP27507   8.622   7.190   3.541  0.2600 -0.1112  0.2355
17404PP      PP27508   5.496   7.289   1.951  0.1688  0.1005  0.3588
17405PP      PP27509   0.917   7.223   3.298  0.0557 -0.1171  0.0790
17406PP      PP27510  15.147   8.571   1.061  0.1179 -0.2101  0.0763
17407PP      PP27511   0.707  11.461   3.776  0.3104  0.3266 -0.1972
17408PP      PP27512   2.834   8.539   1.610  0.0012  0.0571 -0.0908
17409PP      PP27513   9.326   1.849  11.572  0.1581  0.2946  0.1235
17410PP      PP27514   2.851   7.687   2.964  0.4562 -0.2134 -0.1981
17411PP      PP27515  12.936   8.054  13.432  0.3034 -0.0452 -0.3352
17412PP      PP27516  15.389   4.481  11.940 -0.0248 -0.2209 -0.2033
17413PP      PP27517  11.822   2.517   3.065 -0.1984  0.1791 -0.0901
17414PP      PP27518  14.987   1.343   3.034 -0.1047 -0.4066 -0.2589
17415PP      PP27519  11.808   1.386  10.334 -0.1530  0.0545 -0.2082
17416PP      PP27520  10.900   7.350  12.335  0.1752  0.0463 -0.0215
17417PP      PP27521   9.023   9.514   1.928 -0.1473  0.0091 -0.4910
17418PP      PP27522   9.665   7.405   3.644  0.0439  0.0951 -0.1080
17419PP      PP27523   6.495   2.991   9.768 -0.1909  0.1042  0.0248
17420PP      PP27524  10.560   7.568  12.000  0.2986 -0.2002 -0.1134
17421PP      PP27525  11.951  14.936   2.685  0.2134  0.0438 -0.1328
17422PP      PP27526  11.306   1.770   9.624 -0.0806  0.2014 -0.1617
17423PP      PP27527   3.759   5.580   9.610  0.2596  0.0184  0.2510
17424PP      PP27528   2.007   5.532  12.542 -0.0397 -0.1422 -0.2312
17425PP      PP27529   6.901  12.331  12.591 -0.0880  0.1271  0.1473
17426PP      PP27530  13.774   6.886  12.096  0.0511  0.0294  0.1481
17427PP      PP27531   3.893   8.585   0.020  0.0562  0.1182  0.2714
17428PP      PP27532   7.628   9.907   0.032 -0.1779 -0.0124  0.1147
17429PP      PP27533  12.474  12.928  13.326  0.2270  0.0480 -0.0056
17430PP      PP27534  13.444  11.983   3.358  0.0198  0.2275  0.3015
17431PP      PP27535  14.092   6.600  12.622 -0.1529 -0.2543 -0.3296
17432PP      PP27536   9.222   6.729  11.831  0.0540 -0.1451  0.1074
17433PP      PP27537   3.800  11.451   1.434 -0.0474  0.0915  0.2333
17434PP      PP27538   0.560  11.843   1.367  0.2784  0.1942 -0.1772
17435PP      PP27539   3.537  12.708   1.594 -0.0888 -0.1811  0.0351
17436PP      PP27540   0.210  15.573   0.336 -0.0772 -0.1547  0.0601
17437PP      PP27541   1.635   7.528   3.930  0.1772 -0.2155 -0.1091
17438PP      PP27542   6.184  15.134   2.981  0.1879  0.2564  0.0525
17439PP      PP27543   5.655  10.945   1.159 -0.2022  0.0128  0.0779
17440PP      PP27544  10.277   3.645   1.067  0.3335  0.2218  0.3201
17441PP      PP27545  15.127   6.028  10.570  0.1570 -0.0159  0.1746
17442PP      PP27546   7.176   5.633   2.528 -0.1818 -0.1558 -0.0790
17443PP      PP27547   7.124   2.735  13.762  0.1742  0.0800  0.2962
17444PP      PP27548   8.591   7.075  12.647  0.0271  0.1003  0.1579
17445PP      PP27549  15.089   5.984   9.422  0.1306 -0.0150 -0.2556
17446PP      PP27550   8.478   7.841   0.723  0.4234  0.1511  0.0794
17447PP      PP27551  11.573   7.242   2.248 -0.1052 -0.2091  0.1327
17448PP      PP27552  13.389   3.433   1.313 -0.2302  0.3395 -0.1626
17449PP      PP27553   1.170  12.100   2.610  0.1071 -0.4594  0.1589
17450PP      PP27554  12.704  12.490  13.468  0.0860  0.1748  0.2438
17451PP      PP27555  13.229  13.932  10.603  0.2691 -0.3991  0.0194
17452PP      PP27556   5.590  13.614   0.375 -0.2974 -0.2482 -0.1385
17453PP      PP27557  10.656  13.366  12.678  0.1786 -0.1523 -0.0846
17454PP      PP27558   6.627   0.668  13.456  0.3931 -0.0103  0.3007
17455PP      PP27559   3.340  15.495   4.112 -0.1833 -0.0437  0.1905
17456PP      PP27560   1.405   1.804   0.925  0.0077  0.3500 -0.2366
17457PP      PP27561  11.512   7.304   4.038  0.3701 -0.3487  0.0306
17458PP      PP27562   4.736   1.671   8.268 -0.1409 -0.1374 -0.1090
17459PP      PP27563  15.444   8.196  12.592  0.2721 -0.0079  0.0734
17460PP      PP27564   9.675   8.986   3.978 -0.0067  0.2609 -0.1317
17461PP      PP27565  14.461  12.750   0.550 -0.4145 -0.0232  0.1717
17462PP      PP27566   0.286  14.070   9.268  0.0927  0.0879 -0.0587
17463PP      PP27567   6.746   6.164  12.899  0.0984 -0.2889 -0.0800
17464PP      PP27568   7.270   0.805   2.152  0.1102  0.0732 -0.3187
17465PP      PP27569   7.998  10.189   4.517  0.0626  0.0629  0.0602
17466PP      PP27570   8.017   7.130   3.447 -0.2178 -0.3288 -0.2381
17467PP      PP27571   1.963   4.209  11.133  0.1617  0.2269  0.2349
17468PP      PP27572  11.490   6.104   1.191  0.1673 -0.2042  0.0463
17469PP      PP27573   8.659  13.851   3.918  0.3046 -0.1354 -0.0964
17470PP      PP27574  12.463  13.860   2.361  0.0618 -0.0242  0.2627
17471PP      PP27575   5.064  10.188  12.228 -0.1178 -0.2919 -0.0827
17472PP      PP27576   8.661  13.184  10.556 -0.0189 -0.0091  0.1317
17473PP      PP27577  10.972   9.919  10.646  0.4450 -0.2174  0.2236
17474PP      PP27578  13.125   3.754   0.928  0.2681  0.1770 -0.1258
17475PP      PP27579   9.000   8.720   2.330  0.2806  0.0315  0.2962
17476PP      PP27580   9.891  10.780   0.924 -0.0823  0.2716  0.1785
17477PP      PP27581   3.507   7.703   9.620 -0.1855 -0.0278 -0.0998
17478PP      PP27582  14.744   9.009   9.781 -0.0817 -0.0278 -0.1708
17479PP      PP27583   7.247   0.513   1.252 -0.0564 -0.0189 -0.4314
17480PP      PP27584   3.380  13.498   9.702  0.2223 -0.2361  0.0161
17481PP      PP27585  10.797   3.025   3.846  0.1095  0.2312 -0.1828
17482PP      PP27586   2.612   2.026   1.802 -0.3603 -0.0461 -0.0346
17483PP      PP27587  11.787   7.453   0.802  0.1052 -0.0436 -0.1246
17484PP      PP27588   8.652   5.370  11.111 -0.0390 -0.0951  0.0301
17485PP      PP27589  13.184   9.090  10.850 -0.1329 -0.0335  0.1075
17486PP      PP27590   3.202   1.189  11.832  0.1968 -0.2593 -0.1547
17487PP      PP27591   9.537   5.115  13.510 -0.1011  0.0373 -0.1349
17488PP      PP27592   5.571  15.013   1.814  0.3239 -0.1279 -0.0792
17489PP      PP27593   9.337   8.769  13.050  0.2840 -0.0471  0.1394
17490PP      PP27594   1.568  12.649   9.496  0.2261 -0.2234  0.2210
17491PP      PP27595   0.571   2.165   9.699  0.1278 -0.0785 -0.1127
17492PP      PP27596   3.591  15.376   9.517  0.0619 -0.2296 -0.2486
17493PP      PP27597  13.385   6.323   3.494 -0.1010 -0.2050 -0.2116
17494PP      PP27598  13.638   7.466  12.277  0.1294 -0.2086 -0.1580
17495PP      PP27599   7.597  15.293   0.292  0.0587 -0.1024  0.3714
17496PP      PP27600  11.694   8.622  13.761 -0.0720 -0.5021 -0.1771
17497PP      PP27601  10.206   9.733  13.699  0.0521 -0.2376 -0.0648
17498PP      PP27602  11.807   7.978  10.054 -0.1421  0.1109 -0.0645
17499PP      PP27603  14.186   2.313   2.390  0.0212 -0.0675 -0.2222
17500PP      PP27604   2.344   7.839  13.180 -0.1561  0.4183  0.0216
17501PP      PP27605   8.781  14.058   0.868 -0.1313  0.1916  0.0492
17502PP      PP27606   9.785  12.617   4.005  0.1691  0.0450  0.1269
17503PP      PP27607  13.619  11.110   1.033  0.0578 -0.3244 -0.0108
17504PP      PP27608  12.492   4.516   2.939  0.1090  0.1829  0.0399
17505PP      PP27609  14.796   4.176   0.693 -0.2475 -0.0757 -0.0485
17506PP      PP27610   4.479  12.659   0.064 -0.1210 -0.0131 -0.0942
17507PP      PP27611  11.238  12.550   2.172  0.3066  0.0976  0.2069
17508PP      PP27612   1.375  12.407   4.379  0.0091 -0.2618  0.1539
17509PP      PP27613   0.030   8.959   2.768  0.1258  0.0693 -0.0368
17510PP      PP27614   6.535  12.609   1.305 -0.2664 -0.0790 -0.1518
17511PP      PP27615  11.665   3.751   9.904  0.0878 -0.0778  0.0192
17512PP      PP27616   6.929  14.282   1.308 -0.0007 -0.1118 -0.0165
17513PP      PP27617   4.750   1.116   0.953 -0.0572 -0.0763 -0.1040
17514PP      PP27618   2.219  14.585   0.317  0.1110 -0.0704 -0.1555
17515PP      PP27619   7.762   5.124  11.663 -0.3946 -0.0246 -0.0842
17516PP      PP27620   9.880   9.561   4.104  0.1684 -0.0284 -0.2332
17517PP      PP27621   4.657  13.166  10.898 -0.0127 -0.0645  0.0674
17518PP      PP27622   0.945  12.510   9.013  0.2368  0.2021 -0.1290
17519PP      PP27623  12.196   5.501   3.510  0.0943 -0.0679 -0.0872
17520PP      PP27624   4.718   0.374   0.001 -0.0591  0.0552  0.3800
17521PP      PP27625  14.192   4.291  10.004  0.0608 -0.0437 -0.1756
17522PP      PP27626   0.432   7.061   1.956  0.0323 -0.0291  0.2231
17523PP      PP27627   5.138  11.463   1.046  0.0282 -0.2548  0.3420
17524PP      PP27628  10.343   5.410   0.942 -0.0820 -0.2613 -0.3726
17525PP      PP27629   1.936   9.062  10.398 -0.1717  0.0252  0.2244
17526PP      PP27630   8.451  15.181  10.079  0.2320 -0.0171  0.6011
17527PP      PP27631  11.088  14.643   3.179 -0.0884 -0.1175  0.0006
17528PP      PP27632   5.080  10.841   3.710 -0.0349 -0.2333  0.0627
17529PP      PP27633   8.351  15.283  12.242 -0.1050  0.1462 -0.1039
17530PP      PP27634  10.081   4.987  11.777 -0.0336 -0.0676  0.1287
17531PP      PP27635   7.551   7.477  10.542 -0.2424 -0.0590 -0.3289
17532PP      PP27636  11.493   4.327  10.371  0.1322 -0.0004 -0.0069
17533PP      PP27637  12.088   7.523   4.041 -0.0706 -0.1181  0.2137
17534PP      PP27638   9.361   3.721   8.891  0.2169 -0.1376 -0.2802
17535PP      PP27639   7.191  10.443   3.851  0.0608 -0.2016  0.2062
17536PP      PP27640  14.264   8.688   4.052 -0.1775  0.0576 -0.0591
17537PP      PP27641  13.927   9.608   9.763 -0.3081  0.5465 -0.1241
17538PP      PP27642  11.355  11.657  10.591  0.3009 -0.1846  0.2120
17539PP      PP27643  13.137  15.053   0.763  0.0355 -0.0987  0.0832
17540PP      PP27644   8.153  15.277  11.386  0.1485  0.0865  0.1088
17541PP      PP27645   7.616   2.397   8.162  0.2534  0.0317  0.0749
17542PP      PP27646   0.138   4.536   3.924 -0.0738  0.2003 -0.2065
17543PP      PP27647   8.203   6.926   2.590 -0.1337 -0.0073 -0.3605
17544PP      PP27648   4.516   3.013   0.584 -0.0465 -0.0067 -0.0697
17545PP      PP27649  13.054  14.748  10.373  0.2589 -0.1626  0.2658
17546PP      PP27650  15.398   6.466  11.844  0.2111  0.0257  0.0440
17547PP      PP27651  12.246   5.477  13.173  0.0953  0.0387  0.0681
17548PP      PP27652   6.316  12.016  10.491  0.5085  0.2004 -0.1972
17549PP      PP27653   0.707  13.453  12.645  0.3483  0.1993 -0.0540
17550PP      PP27654   7.714  10.514   1.581  0.3075 -0.2783  0.0760
17551PP      PP27655   3.123   5.159   8.508  0.2127 -0.2723 -0.0559
17552PP      PP27656   0.678   1.456  13.519 -0.2003  0.0784 -0.0946
17553PP      PP27657  10.919  13.607   2.554 -0.1037 -0.0177  0.0095
17554PP      PP27658   7.578   6.170   0.169 -0.1302  0.0104  0.0061
17555PP      PP27659   1.882   4.806   9.173 -0.2236 -0.1409  0.1830
17556PP      PP27660   6.204   9.029  10.314 -0.1544 -0.0114  0.0521
17557PP      PP27661   3.283   5.041   9.016  0.1854  0.0055  0.0252
17558PP      PP27662   8.530   5.000   1.584  0.0133  0.0459 -0.2842
17559PP      PP27663  10.417   4.358   9.065 -0.0582 -0.2122 -0.1400
17560PP      PP27664  13.407   5.690   4.824  0.0495  0.0668  0.1494
17561PP      PP27665  12.352   0.646  12.936 -0.0420 -0.2491 -0.2860
17562PP      PP27666   9.236   1.151   9.971  0.0854  0.0121 -0.0986
17563PP      PP27667  14.201  12.442   1.803  0.0220 -0.0352  0.1129
17564PP      PP27668  13.048  10.464   1.345 -0.0093 -0.1854 -0.1975
17565PP      PP27669   9.128  13.820  10.905  0.0970  0.1771 -0.1863
17566PP      PP27670   7.748  11.967  10.198 -0.0359  0.1331  0.2894
17567PP      PP27671  13.119  15.254  11.798 -0.0329  0.2094 -0.1024
17568PP      PP27672  13.879  14.860   9.250  0.0831 -0.2345 -0.0393
17569PP      PP27673   8.393  10.769  12.983  0.0582  0.0926 -0.1222
17570PP      PP27674   7.125   5.068   2.434 -0.0368  0.0707  0.1032
17571PP      PP27675   7.686   0.675   1.296 -0.0180 -0.0957  0.2350
17572PP      PP27676  10.921   7.739   1.774  0.0541 -0.0722  0.0013
17573PP      PP27677   7.452   1.150   3.310  0.1036 -0.2104 -0.0649
17574PP      PP27678  14.846   8.766   1.768  0.1909  0.1343  0.2672
17575PP      PP27679   7.056   8.803  12.171 -0.1431 -0.0091 -0.1027
17576PP      PP27680  10.021   3.403   9.364  0.1616  0.0536  0.1540
17577PP      PP27681   5.892  11.161  12.842  0.4301 -0.0792 -0.2637
17578PP      PP27682   5.847   3.899   8.092  0.2799 -0.1012 -0.0119
17579PP      PP27683  12.825   6.202   2.785 -0.0663 -0.1362  0.0849
17580PP      PP27684   2.883  14.335  10.089 -0.2574  0.3052  0.1850
17581PP      PP27685  12.905  11.597  13.151 -0.1452 -0.1869 -0.1498
17582PP      PP27686  12.638   5.032   1.390 -0.1412 -0.0818  0.0132
17583PP      PP27687  10.912   1.307  10.380  0.1533 -0.4002 -0.1172
17584PP      PP27688   3.096   7.990   9.817  0.0422 -0.1389 -0.3829
17585PP      PP27689   4.696   6.434  10.175 -0.0862 -0.1723  0.0405
17586PP      PP27690   7.550   9.672  13.241 -0.3685 -0.1180 -0.0758
17587PP      PP27691   6.595   1.869   7.518  0.2475  0.0819 -0.2668
17588PP      PP27692   5.942   7.907  12.562  0.1012  0.1100 -0.0501
17589PP      PP27693   4.128  10.149  10.028  0.2697  0.1152 -0.3630
17590PP      PP27694   6.861   6.297   0.843  0.0309  0.1669  0.3615
17591PP      PP27695   6.106  12.351   2.434  0.0650  0.3923 -0.1900
17592PP      PP27696  10.816   8.235  10.380  0.0949 -0.3918 -0.0298
17593PP      PP27697   5.420   3.066  13.013  0.1160  0.0522 -0.4373
17594PP      PP27698   1.345  10.102   2.367 -0.1582  0.1477 -0.1651
17595PP      PP27699  14.959   3.039   1.343 -0.1139 -0.1722  0.0370
17596PP      PP27700  15.715  14.535   4.484  0.2357 -0.0309  0.3652
17597PP      PP27701   6.518   9.336  11.486 -0.3571 -0.2129 -0.0221
17598PP      PP27702   2.548   5.194   8.646 -0.1511 -0.0281  0.3011
17599PP      PP27703   4.992   2.643  13.631  0.0221  0.0978  0.0780
17600PP      PP27704   5.317   5.903  11.435  0.0985  0.0203 -0.1429
17601PP      PP27705  14.468  11.388   1.128  0.1642 -0.0627  0.1920
17602PP      PP27706   9.556   1.797   3.435  0.0782 -0.0019 -0.5286
17603PP      PP27707   9.975   8.399  13.737 -0.3599 -0.0334  0.2813
17604PP      PP27708  10.575   8.263  10.942 -0.0449 -0.2664  0.1106
17605PP      PP27709   4.440  11.029   1.549  0.1079  0.3339  0.0178
17606PP      PP27710  14.366   7.393  11.541  0.1728 -0.0076 -0.0641
17607PP      PP27711   7.419  12.752  11.256  0.3159  0.3520  0.1108
17608PP      PP27712   7.346   8.734   1.059 -0.1510 -0.1381 -0.2917
17609PP      PP27713   3.828   3.169   8.208  0.2286 -0.2612 -0.2239
17610PP      PP27714  14.770   0.135  11.597  0.1885  0.1120 -0.2202
17611PP      PP27715   1.798   8.042  12.769  0.1459  0.0583 -0.0293
17612PP      PP27716  10.590  12.288  10.840  0.0517 -0.1166 -0.0516
17613PP      PP27717  10.838   2.030   9.445  0.0793  0.0155 -0.0789
17614PP      PP27718   2.137  10.442   1.344 -0.0903 -0.0702 -0.1325
17615PP      PP27719  13.202   5.879   3.885 -0.1131  0.3493 -0.0628
17616PP      PP27720   2.166   3.339  13.207  0.0601  0.1714  0.0183
17617PP      PP27721  13.949  14.189   8.908  0.0136 -0.1033  0.0375
17618PP      PP27722   3.401   5.751   8.393  0.2560 -0.0900 -0.2701
17619PP      PP27723  10.342   3.814   2.728 -0.2587  0.1396 -0.2247
17620PP      PP27724  12.598   6.025  13.534  0.0257  0.4750  0.0681
17621PP      PP27725   3.750   2.181   3.438  0.1846 -0.2327  0.1162
17622PP      PP27726  13.917  11.763   9.924  0.0311 -0.0205  0.0174
17623PP      PP27727   2.308   6.110  11.365  0.0901 -0.0750 -0.1373
17624PP      PP27728   6.062   9.945   2.851 -0.1599  0.1460  0.1879
17625PP      PP27729   4.719   2.840   8.633 -0.2795 -0.1104  0.0154
17626PP      PP27730   8.572  12.220   0.621 -0.0021  0.1378  0.1804
17627PP      PP27731   1.949  15.114  10.496  0.0688  0.3869 -0.0984
17628PP      PP27732   0.561   6.349  13.509  0.1502 -0.1596  0.1327
17629PP      PP27733   6.059  11.305   2.781 -0.1432 -0.0257  0.0470
17630PP      PP27734   3.911   9.398  11.166 -0.0594  0.0117 -0.0532
17631PP      PP27735   9.476   5.982   4.062 -0.4579 -0.1514  0.1942
17632PP      PP27736   7.753   4.622  13.531  0.0580  0.0659 -0.0316
17633PP      PP27737   5.769  12.765   1.467 -0.0612 -0.0073  0.1685
17634PP      PP27738  10.284   9.833   4.272  0.4473 -0.5834 -0.1154
17635PP      PP27739  11.675   2.260  10.166  0.0880  0.2930 -0.1903
17636PP      PP27740   6.820   4.515   2.352 -0.1435 -0.2651 -0.0021
17637PP      PP27741  11.043   6.054   4.983  0.1937 -0.0965 -0.1840
17638PP      PP27742   0.588   6.176  10.991 -0.0121  0.0522  0.3988
17639PP      PP27743   2.851  11.260   3.344 -0.1990  0.0573 -0.1823
17640PP      PP27744  10.806   1.572   0.246  0.1004 -0.1267  0.0472
17641PP      PP27745   3.771   9.751   9.168 -0.1692 -0.3884  0.0172
17642PP      PP27746  15.628   1.494  13.410  0.0128  0.1501 -0.3272
17643PP      PP27747   7.190   8.941  12.953  0.3087  0.0794  0.1537
17644PP      PP27748   8.832   7.426   3.128 -0.3093 -0.0737 -0.0936
17645PP      PP27749   0.278   3.331  11.316 -0.1154  0.0792 -0.1843
17646PP      PP27750   5.611   4.124   7.739 -0.2118 -0.6956 -0.1259
17647PP      PP27751  11.584   0.959   3.052  0.1305  0.1029  0.0971
17648PP      PP27752   0.815  10.035  12.632  0.0433 -0.0964 -0.3116
17649PP      PP27753   6.913   5.745   3.122  0.1413  0.2051 -0.1612
17650PP      PP27754   0.657   8.038   1.029 -0.1212 -0.1616 -0.0230
17651PP      PP27755   1.335  14.504   4.458 -0.2943  0.1921  0.1273
17652PP      PP27756   0.913   2.392  13.189 -0.0831  0.3928 -0.1607
17653PP      PP27757  15.568  13.150   3.662  0.1307 -0.2016  0.2307
17654PP      PP27758   4.291   1.613  12.265 -0.1261  0.3492 -0.2426
17655PP      PP27759   2.865  14.870   2.244  0.0217  0.0300 -0.1536
17656PP      PP27760  10.501  13.595   1.805  0.1394 -0.2337  0.2909
17657PP      PP27761  14.489   1.126   9.374 -0.2612  0.1579 -0.2562
17658PP      PP27762   7.803  10.047  11.440  0.1969 -0.0160  0.0407
17659PP      PP27763  15.692  15.194  11.776  0.0951  0.3158 -0.1685
17660PP      PP27764   6.586   1.466  10.141 -0.0272 -0.4475 -0.2027
17661PP      PP27765  12.691  11.505   1.463  0.2299  0.2183  0.1392
17662PP      PP27766  13.035   1.515   9.746 -0.2480 -0.0300  0.3450
17663PP      PP27767   0.279   6.086   2.831 -0.0813  0.1503 -0.0892
17664PP      PP27768   7.622   7.937   2.915  0.2251 -0.0295 -0.1294
17665PP      PP27769   1.779  13.070  11.087  0.1878  0.4372 -0.0289
17666PP      PP27770   7.225   4.871  12.414  0.1547 -0.0535  0.0575
17667PP      PP27771   5.634   8.114   1.304  0.2359 -0.0052  0.1604
17668PP      PP27772   4.571  10.177   1.761 -0.1380  0.1945  0.1808
17669PP      PP27773  12.021  15.540  12.953  0.1875  0.0580 -0.2002
17670PP      PP27774   8.179  15.314   0.289 -0.3287 -0.1482  0.1390
17671PP      PP27775   8.500   1.757   1.381 -0.0196  0.2284 -0.2124
17672PP      PP27776  13.402  13.412   4.440 -0.1017 -0.2540  0.2476
17673PP      PP27777  13.533   1.703   1.602  0.0836  0.1197 -0.0767
17674PP      PP27778   6.773   5.985   9.377  0.0019  0.1131  0.1375
17675PP      PP27779  12.573   6.729  10.440 -0.2854  0.0487  0.0122
17676PP      PP27780   0.336  11.136  11.753 -0.0397 -0.0387  0.1095
17677PP      PP27781  12.163  15.094  12.834 -0.5424  0.1502  0.1203
17678PP      PP27782   7.454  12.400   1.278  0.0388  0.1759 -0.1313
17679PP      PP27783  14.027   2.037  10.474  0.0674 -0.0198 -0.0542
17680PP      PP27784  13.376   7.267   2.058 -0.0534 -0.2354  0.1856
17681PP      PP27785  15.416   1.920  10.101 -0.1297 -0.2694  0.0560
17682PP      PP27786   7.494   5.881   0.667  0.2844  0.4022  0.1214
17683PP      PP27787   1.759  14.487   4.092 -0.0316  0.1541  0.3236
17684PP      PP27788   9.521   0.696  11.272 -0.2810  0.0279 -0.0327
17685PP      PP27789   6.774   1.277  10.921  0.0116  0.0511  0.1926
17686PP      PP27790   3.758   0.055   4.122  0.2068 -0.0598  0.0511
17687PP      PP27791   2.385   3.826  12.955  0.0009  0.0268 -0.0050
17688PP      PP27792   2.837   0.662  11.356  0.0593 -0.3271  0.2004
17689PP      PP27793   0.276   9.518   2.416  0.1330  0.4422  0.3889
17690PP      PP27794  11.950  12.484  10.711 -0.1182 -0.0009 -0.1363
17691PP      PP27795   3.724   6.401  12.375  0.0456  0.0136 -0.1049
17692PP      PP27796  15.101   6.462  13.155 -0.0114  0.1928 -0.2765
17693PP      PP27797   2.337   0.677  10.314 -0.0273 -0.0240 -0.0754
17694PP      PP27798   5.786  14.479   2.066 -0.0384  0.1551 -0.1646
17695PP      PP27799   0.901   0.983   1.451 -0.0787  0.2646 -0.1763
17696PP      PP27800  14.865   4.691   9.812  0.0412 -0.2204  0.0933
17697PP      PP27801   4.384   1.343   2.931  0.1246  0.1171  0.0095
17698PP      PP27802  14.016   7.777  10.929  0.2835  0.2118 -0.0610
17699PP      PP27803  12.581  12.857  12.631  0.1358  0.3388  0.1629
17700PP      PP27804  12.628  13.164  11.173  0.1025 -0.1987  0.2213
17701PP      PP27805  15.479   0.648   2.733  0.0425 -0.1319  0.0372
17702PP      PP27806  13.120   6.073  13.214 -0.1002 -0.1401  0.1240
17703PP      PP27807   9.591   5.043  12.506  0.1436 -0.1002 -0.1517
17704PP      PP27808   1.507   7.624  11.056  0.0718  0.0221  0.0772
17705PP      PP27809   8.055  12.999  11.774 -0.0858  0.2281  0.3076
17706PP      PP27810  15.354   7.141   1.428 -0.1029 -0.0676 -0.0799
17707PP      PP27811   6.677   9.124  10.031  0.2567  0.3455  0.3090
17708PP      PP27812   8.741   7.457  11.675  0.1203  0.0935 -0.0998
17709PP      PP27813  14.033   1.918   0.587 -0.1575 -0.1753 -0.1162
17710PP      PP27814   3.523  13.167  12.186  0.0628 -0.4566  0.1633
17711PP      PP27815  14.368   3.032   0.039 -0.1576  0.1549 -0.0213
17712PP      PP27816   0.236   6.980   9.570  0.3749 -0.1694  0.0826
17713PP      PP27817   5.530   7.308   9.340 -0.2978  0.1126  0.1962
17714PP      PP27818   5.220  14.755   9.992 -0.0811 -0.0821 -0.1734
17715PP      PP27819   2.741   7.670   1.124  0.0178 -0.0884  0.0018
17716PP      PP27820  14.863   4.169   9.583  0.1703  0.1812  0.0782
17717PP      PP27821  13.038   2.698  13.059 -0.1459 -0.1602 -0.2536
17718PP      PP27822  13.042   9.523  13.640  0.0615 -0.3318  0.1122
17719PP      PP27823  11.107  14.276   0.555  0.1271 -0.0138 -0.1675
17720PP      PP27824   0.010  11.029  10.347  0.0393  0.0729  0.0186
17721PP      PP27825  15.705  12.288  12.080  0.1612  0.0767 -0.2304
17722PP      PP27826   0.724   6.972  10.821  0.0687 -0.2198 -0.1267
17723PP      PP27827   9.721  13.419   1.740 -0.2302  0.0799 -0.1993
17724PP      PP27828   5.358   8.020  10.497 -0.0647 -0.2210 -0.2421
17725PP      PP27829   3.532   7.974   0.746 -0.0762  0.1380 -0.1575
17726PP      PP27830  10.446   2.014   2.275  0.1241  0.5810 -0.0550
17727PP      PP27831   3.226  13.858   4.399 -0.1544  0.1855 -0.1092
17728PP      PP27832   1.212   1.054  10.666 -0.1047  0.0090 -0.1942
17729PP      PP27833  14.306  15.241  12.482 -0.1146 -0.3312  0.1428
17730PP      PP27834  11.974   1.321  12.606 -0.1668  0.1236 -0.1123
17731PP      PP27835   4.439   5.701  11.231  0.0594 -0.0164 -0.1070
17732PP      PP27836  15.649   0.979   1.645 -0.3252  0.0286  0.0461
17733PP      PP27837   2.803   2.426   2.707  0.0576 -0.0584  0.1619
17734PP      PP27838   7.769   7.850  13.281 -0.0894 -0.1068  0.0255
17735PP      PP27839   9.568  12.020   4.831  0.0285  0.1088  0.2165
17736PP      PP27840   7.602  12.713   0.483 -0.0247  0.1171  0.3575
17737PP      PP27841   9.111   7.206   3.556  0.2046 -0.2458  0.0864
17738PP      PP27842   9.766   6.048  13.675 -0.0198 -0.0511  0.0449
17739PP      PP27843   4.105   8.256   3.063 -0.2666  0.0899  0.1348
17740PP      PP27844   2.188  13.421   1.702 -0.3221 -0.0491  0.2638
17741PP      PP27845  15.376   9.586  11.437  0.0619  0.1523  0.1834
17742PP      PP27846   1.869  10.648  11.886  0.1929 -0.0356  0.0074
17743PP      PP27847   4.271  10.556   1.609  0.1525  0.0758  0.3305
17744PP      PP27848   6.419   7.169  12.898 -0.0871  0.1541  0.0044
17745PP      PP27849   6.178   6.698   8.974  0.1453  0.3381 -0.0541
17746PP      PP27850   4.925  11.875   1.870 -0.1935  0.1578  0.1167
17747PP      PP27851  12.723   9.706  10.270  0.0006  0.1967 -0.1150
17748PP      PP27852  12.631   3.586  13.036  0.0269  0.1542  0.1891
17749PP      PP27853  14.026   3.912   0.736 -0.3117 -0.1303  0.2073
17750PP      PP27854  14.058  14.778   8.738  0.0294  0.0275 -0.0793
17751PP      PP27855  13.662   9.090  12.280 -0.0766 -0.0969 -0.0182
17752PP      PP27856   3.909   1.193  10.087 -0.1499 -0.0485  0.2209
17753PP      PP27857  11.349   6.667  12.889 -0.0933  0.0114 -0.2366
17754PP      PP27858   5.111   5.415   0.890  0.0369 -0.4729  0.1125
17755PP      PP27859   4.930   0.087  13.097  0.1036 -0.0456 -0.1230
17756PP      PP27860   1.522   1.517   3.565 -0.0612 -0.2279 -0.1211
17757PP      PP27861  14.866   7.310   3.291  0.1859 -0.3395  0.1055
17758PP      PP27862   3.816  11.748   3.542  0.0111 -0.0669 -0.0200
17759PP      PP27863   8.615  14.991  11.944  0.1265 -0.0301 -0.0057
17760PP      PP27864   4.874   3.807   1.638  0.1595 -0.2158  0.0432
17761PP      PP27865   9.606   3.403  13.399 -0.1012  0.0444 -0.0348
17762PP      PP27866   2.827   3.148   8.506  0.1994  0.3117 -0.0964
17763PP      PP27867  11.740  12.280  13.356  0.2475  0.1402 -0.2966
17764PP      PP27868  11.641  14.721   2.279 -0.2400 -0.1259  0.1784
17765PP      PP27869  13.368   5.641   2.876 -0.2181  0.1925 -0.1828
17766PP      PP27870  10.921   4.924   0.032  0.1107 -0.2774 -0.0315
17767PP      PP27871   3.809  14.749  12.627  0.1204  0.4134 -0.2164
17768PP      PP27872  10.785   5.993   0.755  0.0339 -0.2041  0.2391
17769PP      PP27873   1.400   3.413  10.835  0.1021 -0.1882  0.3108
17770PP      PP27874   5.657  14.576   1.602  0.0478 -0.0791 -0.1536
17771PP      PP27875  13.068   5.901   4.410  0.0268 -0.0789 -0.1279
17772PP      PP27876   9.944   4.374   1.728 -0.1852  0.0936 -0.1514
17773PP      PP27877   9.488   3.330  11.690 -0.0310  0.2405 -0.1481
17774PP      PP27878  10.595  15.391   4.231  0.0901 -0.0606 -0.1310
17775PP      PP27879   4.296  14.958  12.854 -0.2525  0.2095  0.3252
17776PP      PP27880   9.312   6.959  12.826 -0.0683  0.0165  0.1999
17777PP      PP27881  13.774   9.685   2.849  0.2393 -0.2504  0.0415
17778PP      PP27882  13.854   3.189   1.319  0.1262 -0.0980 -0.0041
17779PP      PP27883   5.305  10.668   3.203 -0.0543  0.1093 -0.0799
17780PP      PP27884   2.355  14.455   1.286  0.1313 -0.0879  0.0275
17781PP      PP27885  11.407   9.002   4.766  0.2112 -0.2766  0.0012
17782PP      PP27886   0.725  12.861  11.112 -0.5762 -0.0190  0.0547
17783PP      PP27887  14.485   1.535   4.134 -0.1510  0.3804 -0.0601
17784PP      PP27888   7.909   4.122   8.491  0.5977 -0.0902 -0.0180
17785PP      PP27889  11.649  15.095  12.837  0.0358 -0.2066 -0.2303
17786PP      PP27890  10.361   1.008  11.912  0.0595  0.5480  0.3127
17787PP      PP27891  10.607  14.455   0.531  0.0638  0.2546 -0.0042
17788PP      PP27892   0.164   3.748  13.042  0.1392  0.1349 -0.1346
17789PP      PP27893  11.618  12.136   0.895 -0.0661  0.0957  0.2834
17790PP      PP27894   6.018  15.206  12.029  0.4468 -0.0396  0.0285
17791PP      PP27895   8.261   3.199   7.481 -0.1891  0.6594 -0.1420
17792PP      PP27896   3.547   7.456   3.959 -0.0096  0.1709  0.5370
17793PP      PP27897  12.380   0.003  11.691  0.0959 -0.1286 -0.0092
17794PP      PP27898  10.627   0.624  13.180 -0.0981 -0.1224  0.1126
17795PP      PP27899   2.483   6.704   2.012 -0.0890  0.0930  0.2126
17796PP      PP27900   1.468  14.037  13.458 -0.0745  0.0615 -0.1070
17797PP      PP27901   7.515   1.718   7.540 -0.0873  0.1854 -0.0237
17798PP      PP27902   5.265  11.154  10.212 -0.0530 -0.2626 -0.1390
17799PP      PP27903   5.922  15.541  12.592  0.1859 -0.1506  0.3947
17800PP      PP27904   2.943  15.495   3.602  0.2237 -0.1405 -0.0857
17801PP      PP27905   7.191   4.053   0.636 -0.0577 -0.0684 -0.2126
17802PP      PP27906  13.838   7.715   3.833  0.0521 -0.2316  0.2331
17803PP      PP27907   1.358  15.394   8.973  0.2727  0.4239 -0.0254
17804PP      PP27908   7.841   5.832   1.497  0.0068  0.3913 -0.1350
17805PP      PP27909   4.962  11.782  10.924  0.2932 -0.0031  0.1935
17806PP      PP27910   6.219   4.311  11.674  0.0666  0.0194 -0.2442
17807PP      PP27911  13.027   0.315  13.563  0.2267  0.1560 -0.0606
17808PP      PP27912  11.809  10.994  10.207 -0.6313  0.0110  0.3360
17809PP      PP27913  14.442  10.784  12.279  0.0203  0.1535 -0.0214
17810PP      PP27914   7.966   6.677  10.172 -0.5237  0.2550 -0.1601
17811PP      PP27915   6.923   5.693  10.226  0.0409 -0.3747 -0.0699
17812PP      PP27916   3.194  14.113   0.091  0.2167  0.2167  0.1571
17813PP      PP27917  12.614  15.182  13.733  0.0778  0.1306 -0.4338
17814PP      PP27918   5.317  11.526  13.564  0.0020 -0.2965 -0.0238
17815PP      PP27919   3.770   0.824  13.353 -0.0172 -0.2073  0.2365
17816PP      PP27920   5.334   6.119  10.971  0.1986 -0.1849  0.2713
17817PP      PP27921  14.899   0.977   9.997  0.2251  0.0760 -0.2580
17818PP      PP27922   4.659   6.650   3.374  0.2790  0.0816 -0.0999
17819PP      PP27923   5.300   3.602  13.625 -0.0241  0.1460 -0.0163
17820PP      PP27924   5.276   2.634   1.611  0.1339 -0.1952 -0.2536
17821PP      PP27925   5.529  13.804  10.402 -0.1647  0.1309  0.0193
17822PP      PP27926  12.148   8.880   1.166  0.1227  0.0663  0.1526
17823PP      PP27927  12.148   7.096   1.464  0.2613 -0.2191  0.1097
17824PP      PP27928   0.251   0.954   4.215  0.0316 -0.1628  0.2905
17825PP      PP27929   9.663   5.557   2.212 -0.0958 -0.1491  0.0083
17826PP      PP27930   0.432   0.785   1.621  0.1325  0.1197 -0.1037
17827PP      PP27931   3.809  11.566   4.036 -0.2472 -0.0654 -0.0329
17828PP      PP27932   8.483  15.674  11.584  0.2003 -0.2023 -0.0367
17829PP      PP27933   3.589   9.435   3.486  0.0445 -0.3129  0.2777
17830PP      PP27934   2.742  11.730   2.603  0.0027 -0.1356 -0.3000
17831PP      PP27935  13.508   7.675   1.052 -0.0607 -0.0475  0.1431
17832PP      PP27936   0.686  11.068   4.066  0.0425 -0.0056  0.2698
17833PP      PP27937   5.415   6.807   8.707 -0.2895  0.1248  0.3247
17834PP      PP27938   6.835  11.201   1.533  0.2153  0.1422 -0.3703
17835PP      PP27939   3.029  14.208  13.426 -0.0428  0.1107 -0.3070
17836PP      PP27940   3.649   8.056  11.453 -0.0822 -0.3170 -0.0308
17837PP      PP27941   3.648   8.690   4.773 -0.1160  0.0296 -0.0168
17838PP      PP27942  14.559   0.850  13.173 -0.0622  0.2768  0.2707
17839PP      PP27943   3.132   9.412   0.714 -0.2531 -0.0704 -0.2167
17840PP      PP27944  15.343  14.849   1.403  0.1438 -0.0128 -0.2818
17841PP      PP27945   8.490   9.949   3.483 -0.0018 -0.2303 -0.0539
17842PP      PP27946   9.024   5.620   9.311 -0.0490  0.1332  0.0311
17843PP      PP27947  14.822   5.297  10.382 -0.0714 -0.3556  0.2956
17844PP      PP27948  12.656   3.393   9.395 -0.1973 -0.2921 -0.3407
17845PP      PP27949  10.452  14.386   9.840  0.0441 -0.3416  0.2148
17846PP      PP27950   2.494   1.010   1.919  0.0551 -0.1735  0.1361
17847PP      PP27951  13.969   6.251   0.729  0.1718  0.1670  0.2691
17848PP      PP27952  11.117   8.792  13.679 -0.0094  0.0769 -0.0544
17849PP      PP27953  10.090   7.185  12.956 -0.0706  0.2136  0.2504
17850PP      PP27954   2.496   9.470  12.001 -0.0032 -0.2340 -0.3277
17851PP      PP27955  12.301   4.664   4.558 -0.4328 -0.0113 -0.2022
17852PP      PP27956   2.099  14.450  11.262  0.0699 -0.2043  0.0810
17853PP      PP27957   6.732   0.159  13.245 -0.2267 -0.2603  0.0132
17854PP      PP27958   8.157  12.297  13.390 -0.1472 -0.2150 -0.0553
17855PP      PP27959  12.944   0.286   1.702  0.3393 -0.1261 -0.3321
17856PP      PP27960  12.418   2.292  12.062  0.2365 -0.0677 -0.0219
17857PP      PP27961   6.178   8.995  11.448 -0.0809 -0.1610  0.1169
17858PP      PP27962  11.493  14.657   3.719 -0.1717 -0.0947  0.2046
17859PP      PP27963   3.380  10.639   2.273  0.1002 -0.0080  0.0523
17860PP      PP27964  10.220   6.840   4.291 -0.1929  0.2715 -0.1381
17861PP      PP27965   9.523   6.510  12.477  0.1477  0.0373  0.2739
17862PP      PP27966   3.778   0.374  12.974 -0.1753 -0.0279 -0.3431
17863PP      PP27967   9.156   0.015   1.929 -0.1180  0.2131 -0.2794
17864PP      PP27968   1.162   1.139  12.023 -0.3226 -0.0618 -0.0420
17865PP      PP27969   9.840  11.304   0.923 -0.3255 -0.1036 -0.1360
17866PP      PP27970   3.518  10.999  11.142  0.2037  0.2394 -0.0392
17867PP      PP27971  10.553   9.617   0.252 -0.1270  0.3256  0.1581
17868PP      PP27972   4.066   2.864  10.352  0.0860 -0.1787 -0.2601
17869PP      PP27973  12.340   2.661   0.685  0.2787  0.1814 -0.2051
17870PP      PP27974  15.584   1.857  10.843 -0.0898 -0.2669  0.3386
17871PP      PP27975   3.306  12.820   9.035  0.3013  0.1389  0.0138
17872PP      PP27976   3.907   2.650   9.626 -0.0870 -0.2981  0.1584
17873PP      PP27977   0.754   2.560  12.784 -0.3479 -0.2633 -0.1417
17874PP      PP27978   2.251   1.710  12.768  0.0203  0.2769 -0.0894
17875PP      PP27979  13.167   9.964   1.997  0.2488 -0.0511  0.2211
17876PP      PP27980   7.555  13.994  11.774  0.2111 -0.0220  0.1730
17877PP      PP27981   1.677  10.949   0.744 -0.0304  0.2064 -0.0967
17878PP      PP27982   2.386   0.574   0.102 -0.2066  0.0609 -0.0997
17879PP      PP27983   6.589  12.998  10.609  0.0105 -0.0376  0.1512
17880PP      PP27984   1.439   7.612   2.107 -0.0752  0.1737  0.0287
17881PP      PP27985  12.823  13.156  12.215  0.0299  0.1689  0.1076
17882PP      PP27986   2.715  10.523  10.378  0.1081 -0.1306 -0.0649
17883PP      PP27987  13.620  15.257   1.753  0.0996 -0.0238 -0.1769
17884PP      PP27988  11.196   6.086  11.570 -0.2009 -0.0616  0.1215
17885PP      PP27989   6.565   1.416   1.394  0.1315  0.0083  0.1052
17886PP      PP27990   1.259   9.098  10.333  0.1852  0.2179  0.1870
17887PP      PP27991   1.690  14.444   0.367  0.2051 -0.1864 -0.1655
17888PP      PP27992  11.858  15.184   1.663  0.2046 -0.1022 -0.0105
17889PP      PP27993   8.280  14.008   1.976  0.0460 -0.1438 -0.1975
17890PP      PP27994   1.835   8.041   0.145 -0.3794 -0.3387 -0.0569
17891PP      PP27995   7.644   6.714   2.766 -0.2986 -0.0963  0.1684
17892PP      PP27996  11.777   9.704   5.702 -0.0243 -0.1566  0.2941
17893PP      PP27997  13.609  12.453  12.301 -0.4600 -0.1829  0.2731
17894PP      PP27998   8.225   1.017   9.883  0.1454 -0.1611 -0.3054
17895PP      PP27999   4.217   4.983  11.734 -0.0045  0.2651  0.0195
17896PP      PP28000   2.631  14.673   2.609 -0.3745  0.0442  0.0911
17897PP      PP28001   3.630   9.942   3.642  0.0262 -0.0146 -0.0007
17898PP      PP28002  15.241  10.843  12.031 -0.0131  0.0355  0.0890
17899PP      PP28003  13.977  10.791   3.595 -0.0434  0.0982  0.0610
17900PP      PP28004  14.453   8.329  12.175 -0.3138 -0.2440 -0.0906
17901PP      PP28005  15.353   4.609   1.177  0.0340 -0.2780  0.1242
17902PP      PP28006   2.241  12.743   4.200  0.1741 -0.2544 -0.0869
17903PP      PP28007   9.727   0.763   2.247  0.4607 -0.0548 -0.1021
17904PP      PP28008  11.495   4.926  12.867 -0.1520  0.1228  0.1161
17905PP      PP28009   8.113  14.569  13.200  0.3036 -0.1039  0.0379
17906PP      PP28010   0.218   8.414   2.686 -0.1619  0.3874  0.3113
17907PP      PP28011   5.052   5.651   8.899 -0.0061 -0.1093 -0.2607
17908PP      PP28012   0.023   6.676   2.045  0.0881  0.1443  0.2350
17909PP      PP28013   7.655  15.049   2.926 -0.2161  0.0573  0.0771
17910PP      PP28014   2.405   9.471   3.983  0.0387  0.0653  0.0965
17911PP      PP28015  15.283  14.326   9.980 -0.2965  0.4103 -0.0191
17912PP      PP28016   5.399  12.537  12.774 -0.0922 -0.1544  0.0263
17913PP      PP28017  14.978   6.710   3.872  0.1010 -0.0503 -0.0488
17914PP      PP28018  15.564  11.133   0.569  0.1935  0.0011  0.0257
17915PP      PP28019   8.505   7.724   9.901  0.2303 -0.1760  0.2637
17916PP      PP28020  13.109   4.717   1.245 -0.2123 -0.0752 -0.0395
17917PP      PP28021   1.929  12.647   8.640  0.0518  0.1666  0.2625
17918PP      PP28022   3.397   6.023   9.442  0.1735  0.1255  0.2919
17919PP      PP28023   3.958   8.557  10.643 -0.1282  0.0320  0.0532
17920PP      PP28024   5.736   0.208   1.970 -0.0315  0.0148 -0.2591
17921PP      PP28025   9.992   7.415  13.384  0.0003 -0.2372 -0.4862
17922PP      PP28026   8.585   2.773   7.293  0.2469  0.4525  0.0360
17923PP      PP28027  12.247  10.405  10.931  0.2034 -0.0642 -0.0911
17924PP      PP28028  12.728   9.767   3.119  0.0568 -0.0112 -0.0444
17925PP      PP28029   5.024   2.430   8.002  0.0525  0.0497  0.0282
17926PP      PP28030   9.222  12.596   3.427  0.0060  0.0099 -0.0095
17927PP      PP28031   6.019   0.632  11.043 -0.1149 -0.0423  0.2161
17928PP      PP28032  14.354   0.606   1.268 -0.0579 -0.2184 -0.1939
17929PP      PP28033   3.332   5.410  10.365  0.0255  0.0789  0.1701
17930PP      PP28034   5.290  13.915  12.784  0.1121 -0.0970  0.1421
17931PP      PP28035  14.372  14.220   4.619  0.0280 -0.0514  0.1417
17932PP      PP28036   5.365  11.641   0.263 -0.1733 -0.1382  0.1861
17933PP      PP28037   2.673   9.037   2.429  0.0882 -0.0171 -0.1274
17934PP      PP28038  14.403  15.092  12.980  0.0452  0.0345  0.1988
17935PP      PP28039   0.464   8.086  13.434  0.0677  0.1377  0.2872
17936PP      PP28040   4.464  10.547   9.695 -0.0425  0.0254 -0.2174
17937PP      PP28041   5.143  12.710   3.871 -0.0545 -0.1725  0.0190
17938PP      PP28042  10.912   5.318  11.833  0.1649  0.0975 -0.1838
17939PP      PP28043  13.701  14.535  11.963  0.0342  0.0387 -0.3242
17940PP      PP28044   7.022   7.287   0.587  0.0210  0.3763  0.1900
17941PP      PP28045   9.793  10.706   2.258  0.1451 -0.0076 -0.1020
17942PP      PP28046  11.937   7.628  11.280  0.3513 -0.1887 -0.0505
17943PP      PP28047  14.025   6.486  10.068 -0.1080  0.0650  0.0288
17944PP      PP28048   2.770   2.955  10.654  0.1535 -0.0884  0.1819
17945PP      PP28049  13.547   4.654  11.777  0.1748  0.2434  0.0075
17946PP      PP28050   8.420   1.278   3.769  0.1779  0.2576 -0.0465
17947PP      PP28051  10.203  12.689  10.827  0.0515 -0.0695 -0.0898
17948PP      PP28052   2.252   3.316   8.833  0.1437 -0.0327 -0.0046
17949PP      PP28053   1.523  11.117   3.883 -0.1812 -0.1291  0.0007
17950PP      PP28054  14.362  11.557  11.864 -0.1472 -0.4602  0.0915
17951PP      PP28055  15.015   4.420  11.495  0.0220  0.1472  0.1409
17952PP      PP28056  14.502   7.039   3.619  0.1845 -0.1889  0.1142
17953PP      PP28057  12.351   2.227   9.828  0.2259  0.2282 -0.0643
17954PP      PP28058  11.613   6.540   2.671  0.3064 -0.0301 -0.0308
17955PP      PP28059   2.854   1.452   9.859  0.2471  0.2203 -0.0509
17956PP      PP28060   4.115   0.779  11.001  0.0423  0.0045  0.3551
17957PP      PP28061   7.011   0.319   2.152 -0.1725 -0.1405 -0.7081
17958PP      PP28062  14.059  13.167   9.266  0.0300 -0.1093  0.3554
17959PP      PP28063   3.107  10.248   8.546 -0.0512  0.1611  0.0194
17960PP      PP28064   8.400   0.843   2.907 -0.1701  0.0584  0.0344
17961PP      PP28065   9.962   0.322   3.053 -0.1094  0.0107 -0.1231
17962PP      PP28066   2.529  10.215  10.918  0.2596 -0.2271  0.1614
17963PP      PP28067  11.175  15.615  11.455  0.0100  0.7161 -0.1188
17964PP      PP28068  10.912   3.562  11.343 -0.0556  0.0807  0.4000
17965PP      PP28069   1.638   3.717   3.740  0.1335  0.1304 -0.0962
17966PP      PP28070  11.964  14.604  13.745  0.1702 -0.2535 -0.4091
17967PP      PP28071  10.205  11.582   2.428  0.3386  0.1574  0.1051
17968PP      PP28072   3.519   2.407   9.386  0.0502 -0.1196  0.0656
17969PP      PP28073  12.622   7.420   0.853 -0.0849  0.1265  0.3147
17970PP      PP28074   9.960  15.473   0.149  0.0973  0.1056 -0.1900
17971PP      PP28075   6.020  10.213   1.022  0.2105 -0.2059  0.1990
17972PP      PP28076   9.612   7.897   3.562 -0.1530 -0.1421  0.3162
17973PP      PP28077   1.906  11.878  11.493  0.0617  0.1641  0.0496
17974PP      PP28078   3.711  14.359   4.703  0.0203 -0.2075 -0.0107
17975PP      PP28079   3.585  10.242   9.496 -0.1417 -0.0916  0.0300
17976PP      PP28080   5.981   4.090  13.053 -0.1957  0.1148 -0.0833
17977PP      PP28081  15.684  14.856  12.717 -0.0942 -0.0767 -0.0166
17978PP      PP28082   4.536   3.573   2.590  0.0055  0.3052  0.1692
17979PP      PP28083   2.994  11.348   2.814  0.1749 -0.3149 -0.0481
17980PP      PP28084  13.859   2.850  10.529  0.1433 -0.1322 -0.0175
17981PP      PP28085   5.419  13.178  11.648  0.0768 -0.4778  0.2510
17982PP      PP28086   2.315   6.911   3.023 -0.3591 -0.0437  0.5171
17983PP      PP28087   6.110   0.397   1.155 -0.1677 -0.2108  0.2968
17984PP      PP28088  11.258   0.368   1.121  0.0145  0.1396  0.3330
17985PP      PP28089   2.178   2.540   1.013  0.3363 -0.0060  0.1588
17986PP      PP28090   2.883  10.899   1.425 -0.2200 -0.0884  0.0922
17987PP      PP28091   8.020   1.912   8.831  0.5181  0.1712 -0.1168
17988PP      PP28092  13.808  11.831   4.203 -0.1894 -0.2407 -0.0648
17989PP      PP28093  15.565   6.311   0.634 -0.0422 -0.0840  0.1408
17990PP      PP28094  12.646  11.089   4.103  0.2447  0.0419 -0.2237
17991PP      PP28095  11.153   7.314   2.489 -0.4893 -0.0749 -0.1889
17992PP      PP28096  11.357   4.819  10.364 -0.1469 -0.2034  0.2076
17993PP      PP28097   8.750  15.736   3.671  0.1737 -0.0059  0.0765
17994PP      PP28098  10.571   3.493   0.531  0.0780  0.0180  0.2955
17995PP      PP28099   0.137   5.888   0.782 -0.0498  0.1510  0.1101
17996PP      PP28100   5.758  10.333   3.895  0.0239 -0.1588  0.0500
17997PP      PP28101   6.397   1.954   1.356 -0.0438  0.1425 -0.0518
17998PP      PP28102   2.905   4.816   8.786  0.1369  0.1943  0.1519
17999PP      PP28103   0.935   8.146  13.257  0.4130 -0.0942 -0.4218
18000PP      PP28104   5.170   4.835   8.873 -0.1634 -0.0090 -0.3758
18001PP      PP28105   6.304   9.309   0.608  0.0655 -0.1554 -0.0045
18002PP      PP28106  15.655  14.550   4.008 -0.3025  0.0081 -0.3341
18003PP      PP28107   9.320   2.808   0.060  0.3488  0.3275 -0.2054
18004PP      PP28108  12.462   5.510   5.373  0.0318  0.0809 -0.1663
18005PP      PP28109   3.909  15.718  10.928  0.1319  0.0695  0.1200
18006PP      PP28110   1.222   4.570   9.938  0.3494 -0.3538 -0.4123
18007PP      PP28111  13.054  15.165  11.264 -0.2556  0.3856 -0.0244
18008PP      PP28112  13.472   7.018   0.229  0.1005 -0.0908  0.0186
18009PP      PP28113  13.012  12.491   4.477  0.2836 -0.0098  0.0641
18010PP      PP28114   0.869   2.049  10.862  0.0747 -0.2818 -0.1585
18011PP      PP28115   1.512  10.684  13.644  0.0810 -0.1843 -0.1862
18012PP      PP28116  10.538   9.621   1.280 -0.0830  0.2553 -0.2277
18013PP      PP28117   7.926  12.869   1.534 -0.4389  0.1116 -0.2172
18014PP      PP28118   8.069   9.882  11.050  0.0427  0.1064  0.0557
18015PP      PP28119   6.892   9.433   8.969  0.0342  0.0848 -0.1723
18016PP      PP28120   4.662  13.200   9.960  0.0875 -0.0889 -0.0556
18017PP      PP28121   9.024   0.188   8.623  0.0384 -0.1411  0.0680
18018PP      PP28122   1.029   3.781   2.749 -0.0870 -0.0351  0.0666
18019PP      PP28123   8.920  11.819  11.531 -0.3337  0.0748 -0.1820
18020PP      PP28124  11.026   5.858   3.484  0.1007 -0.0278  0.0199
18021PP      PP28125  12.702  11.263  11.249 -0.4231 -0.0747  0.2917
18022PP      PP28126   5.274  12.444  11.842  0.1729  0.2807  0.1390
18023PP      PP28127  15.544  10.006   1.994 -0.1531  0.0038  0.1279
18024PP      PP28128  14.794   2.292  13.065 -0.2200 -0.4287  0.0961
18025PP      PP28129   5.018  14.277   0.235  0.1946 -0.1835 -0.2194
18026PP      PP28130   6.118  14.268   9.127  0.0926  0.0111  0.0812
18027PP      PP28131  14.482   4.780   2.519  0.0616 -0.0508  0.1283
18028PP      PP28132  15.078   4.567   3.760 -0.0881  0.2484 -0.3444
18029PP      PP28133   7.272   9.561   4.017 -0.0933  0.0593 -0.2705
18030PP      PP28134   1.441  12.552  10.443  0.1193  0.2016  0.0031
18031PP      PP28135  10.999   9.893   1.391  0.2334 -0.2113  0.0792
18032PP      PP28136   6.617  15.658  11.348  0.0001  0.0178  0.2572
18033PP      PP28137   3.295  15.461   2.810 -0.2782  0.0884 -0.3642
18034PP      PP28138  12.509   5.400   0.642  0.2632 -0.1577  0.0793
18035PP      PP28139  10.149  14.692   2.643  0.0433 -0.0388 -0.0150
18036PP      PP28140  14.687  13.259   4.019  0.0188  0.1329  0.0057
18037PP      PP28141   9.923  10.567   1.445 -0.1005 -0.1330 -0.4395
18038PP      PP28142   1.684   3.957   3.215  0.0591 -0.2305 -0.0162
18039PP      PP28143   0.593  14.981   2.120 -0.3631 -0.1914  0.1825
18040PP      PP28144   3.360  12.581   1.092 -0.0681 -0.2624 -0.0143
18041PP      PP28145   7.238   0.858  10.502 -0.0865  0.1983  0.1382
18042PP      PP28146  10.557  15.474   3.610  0.3312 -0.2553  0.0941
18043PP      PP28147   1.651   6.685  10.088  0.0609 -0.3343  0.1428
18044PP      PP28148   2.536   6.294  13.072  0.3542 -0.2188 -0.1445
18045PP      PP28149  15.221   2.297  12.467 -0.0239  0.0030 -0.0243
18046PP      PP28150   1.546   0.320   9.756 -0.1409 -0.0172 -0.1267
18047PP      PP28151   2.973  13.836   1.343  0.0829 -0.1814 -0.2517
18048PP      PP28152   5.252   2.377   9.891 -0.2842 -0.4359  0.0270
18049PP      PP28153  11.634   6.793   4.312  0.3855 -0.0439 -0.3663
18050PP      PP28154   1.564   5.154  10.409 -0.2289  0.0815 -0.2214
18051PP      PP28155   1.992   5.137   9.547  0.0715  0.0650  0.0930
18052PP      PP28156  11.910   6.043  11.405  0.0151 -0.0560  0.3087
18053PP      PP28157   4.819  12.452   4.588 -0.5253  0.1657  0.1108
18054PP      PP28158  14.193   5.400   3.704 -0.1799  0.1514  0.0046
18055PP      PP28159   5.234   6.570  12.263  0.1912  0.1154 -0.1188
18056PP      PP28160   3.469  12.545   3.424  0.2346 -0.2456 -0.0305
18057PP      PP28161   6.756  11.281  10.856 -0.0256  0.0725 -0.3181
18058PP      PP28162  10.007  12.709   1.686  0.1348  0.0164  0.3127
18059PP      PP28163  12.027  13.630   2.098 -0.1642 -0.1124  0.2004
18060PP      PP28164   6.855   8.787  13.365  0.2196 -0.2352  0.3246
18061PP      PP28165   5.182   0.922   8.796  0.0657 -0.0160 -0.1453
18062PP      PP28166   2.694  11.308   9.898  0.0319 -0.2063 -0.1109
18063PP      PP28167   6.255   1.187  10.936  0.2965 -0.0121  0.0445
18064PP      PP28168   1.138   3.033   0.690 -0.1660  0.1135 -0.1441
18065PP      PP28169   4.672   5.225   1.200 -0.2448  0.0828  0.1959
18066PP      PP28170   9.483   1.201  12.261 -0.3728  0.1067 -0.1204
18067PP      PP28171   9.546   1.867   2.500 -0.0630  0.1417 -0.1963
18068PP      PP28172   2.933   9.763  10.990  0.0864  0.0583  0.0263
18069PP      PP28173   7.430   0.843   9.081  0.1582 -0.2544 -0.0275
18070PP      PP28174   0.477  14.502   2.054  0.2970  0.5270 -0.0441
18071PP      PP28175  12.391  12.851   0.598 -0.1697  0.0411  0.0193
18072PP      PP28176  14.921   4.230  10.075 -0.1413 -0.2370  0.0255
18073PP      PP28177   3.446   0.372   8.181  0.2532 -0.0494 -0.1331
18074PP      PP28178   5.828  12.775   2.369  0.1368  0.1195 -0.2240
18075PP      PP28179  11.766  13.914   1.124  0.0619  0.1624  0.0277
18076PP      PP28180   5.755   1.037  10.178 -0.1369  0.0253 -0.2144
18077PP      PP28181   7.137  14.397   0.872  0.1015  0.1076  0.1037
18078PP      PP28182  12.966  15.215   4.869 -0.1400 -0.1047  0.0547
18079PP      PP28183   6.049   0.664  12.176  0.2729 -0.2861  0.1939
18080PP      PP28184  13.486  11.269   3.666  0.1967 -0.1323 -0.1414
18081PP      PP28185   9.395   5.999  11.805 -0.1737  0.0551  0.2508
18082PP      PP28186  12.273  15.470   2.725  0.3003 -0.2274 -0.1883
18083PP      PP28187   6.282   3.665   8.021 -0.1061 -0.0861  0.1426
18084PP      PP28188  10.879  11.811   1.358 -0.0286  0.0172 -0.5525
18085PP      PP28189   4.588  11.362   2.630  0.2485  0.0760 -0.1126
18086PP      PP28190  12.950   0.570   1.160  0.0986 -0.1944  0.0393
18087PP      PP28191  11.555   1.628  12.251  0.1849  0.3361 -0.0317
18088PP      PP28192  14.827   0.188   3.908  0.3414 -0.0814 -0.3880
18089PP      PP28193   8.420  12.603   0.950 -0.0762  0.0526  0.1682
18090PP      PP28194   3.847   8.611   8.847 -0.1736  0.0749  0.0880
18091PP      PP28195   0.785   6.430   9.197 -0.1385 -0.1529 -0.1838
18092PP      PP28196   3.610   1.142   9.223 -0.0361  0.0288  0.1360
18093PP      PP28197  15.446  14.519  10.446  0.2691  0.0512  0.2603
18094PP      PP28198   4.023   4.895  12.386  0.3028 -0.0042  0.0050
18095PP      PP28199  11.973   8.388   5.386 -0.2042 -0.0601  0.0666
18096PP      PP28200  13.104   5.683   1.444  0.0934  0.2627 -0.0842
18097PP      PP28201   5.381  14.555   0.654  0.0279 -0.2762 -0.3643
18098PP      PP28202   2.068  15.420   2.628 -0.0025  0.0978 -0.0251
18099PP      PP28203   1.681   2.377   9.066  0.1113 -0.0578 -0.1981
18100PP      PP28204  15.167   5.372   9.196  0.0347  0.1189 -0.1382
18101PP      PP28205   7.504   4.054  11.949  0.0805 -0.1237  0.3818
18102PP      PP28206  12.345  14.780  12.322  0.1190 -0.2856  0.1141
18103PP      PP28207   8.344   3.630   9.851  0.0943  0.2475 -0.0591
18104PP      PP28208   7.580   7.017  11.988  0.3823  0.0961 -0.3803
18105PP      PP28209   5.833   2.707  11.504  0.3372  0.1519 -0.0946
18106PP      PP28210   9.109   4.336   0.322 -0.0713 -0.1418 -0.2421
18107PP      PP28211  10.197   3.285  13.015  0.0244 -0.1765 -0.1432
18108PP      PP28212   9.724   7.895   0.264  0.1252  0.0244 -0.4084
18109PP      PP28213  15.643   8.677  11.438  0.1071 -0.1377 -0.2317
18110PP      PP28214  13.306   8.086   4.684  0.0443  0.1710  0.1782
18111PP      PP28215   3.274   4.281  10.469  0.1738  0.3592 -0.3111
18112PP      PP28216  13.855   3.411  12.064  0.2545  0.1008  0.0994
18113PP      PP28217  15.548   5.834  12.519  0.0761 -0.3369  0.4637
18114PP      PP28218   5.652  12.062  11.081 -0.0373 -0.1259 -0.2227
18115PP      PP28219  15.402   8.081  12.020  0.0886  0.0303 -0.0820
18116PP      PP28220   1.193   3.560  12.049  0.1435  0.2148 -0.0533
18117PP      PP28221  10.645   0.759  11.536  0.0172  0.2549 -0.0713
18118PP      PP28222  13.623  10.983  12.260  0.0089  0.1613 -0.0518
18119PP      PP28223  13.076   6.788   3.522  0.1514 -0.0850  0.1882
18120PP      PP28224   5.343   9.129   3.078  0.3231  0.2093 -0.1660
18121PP      PP28225   1.261  13.353   8.769 -0.1177  0.0893  0.0288
18122PP      PP28226   9.939   1.891  12.327 -0.0168  0.4175  0.3102
18123PP      PP28227   1.870  13.056   8.969  0.1586  0.2860  0.0631
18124PP      PP28228   6.430   8.616   0.497  0.1606 -0.0497  0.0178
18125PP      PP28229  14.411   7.997   3.298  0.0688 -0.0399  0.0131
18126PP      PP28230   1.734   7.311  12.419  0.1016  0.1449 -0.1103
18127PP      PP28231  13.486   8.061   3.293  0.0195 -0.3565 -0.0118
18128PP      PP28232   8.308   0.301   9.712  0.0581 -0.1182  0.0914
18129PP      PP28233  10.445   2.956   1.386 -0.0844 -0.1064 -0.0783
18130PP      PP28234   8.803  12.642  12.651 -0.2125 -0.1705  0.0607
18131PP      PP28235   1.600   1.957   1.405 -0.3499  0.2745  0.1342
18132PP      PP28236   3.755   7.154   9.398 -0.1623 -0.1689 -0.1177
18133PP      PP28237   8.504   1.404  12.600  0.1492 -0.1614  0.1087
18134PP      PP28238   2.811  14.477   3.401 -0.1270  0.2433 -0.1449
18135PP      PP28239  11.171   2.315  12.723  0.1566  0.0845  0.1235
18136PP      PP28240   4.115   7.430   9.669 -0.0364  0.1544 -0.3159
18137PP      PP28241   4.111   3.683   2.105  0.1421  0.1480 -0.0020
18138PP      PP28242   2.278  12.645  11.399  0.0715  0.5459 -0.0832
18139PP      PP28243   5.652   0.901  12.448  0.0292 -0.3176 -0.0760
18140PP      PP28244   7.166   2.872   8.785  0.1442  0.1784  0.4056
18141PP      PP28245  13.076   6.894  10.374  0.0956  0.1493  0.0611
18142PP      PP28246   5.877   7.024  10.720 -0.2886 -0.2250  0.0000
18143PP      PP28247  11.418  10.671  12.135  0.3009 -0.0464  0.0478
18144PP      PP28248   6.840   9.560  12.760 -0.2223  0.0205  0.1157
18145PP      PP28249  14.724  15.216  11.529 -0.2729 -0.0160 -0.0699
18146PP      PP28250  14.744   8.873   4.174 -0.0226 -0.1997  0.0933
18147PP      PP28251   9.141   4.623   8.268  0.1593  0.0032  0.1112
18148PP      PP28252  14.599  12.305  10.392 -0.0544 -0.2134 -0.4490
18149PP      PP28253   5.010   8.841   9.760 -0.5432 -0.0598  0.1530
18150PP      PP28254   4.921   0.000  11.928 -0.4147  0.1158 -0.1220
18151PP      PP28255  14.489   1.133   2.021 -0.0775  0.1523 -0.0060
18152PP      PP28256   6.829   4.979   1.384  0.1103  0.3499 -0.0691
18153PP      PP28257   7.021   3.959   9.772  0.3130  0.3436  0.1846
18154PP      PP28258   7.848   6.853  11.575 -0.0728  0.0042 -0.4403
18155PP      PP28259   1.030  11.809  10.028  0.0042  0.1609 -0.2456
18156PP      PP28260   5.912   2.746   3.139 -0.1503  0.1542  0.1753
18157PP      PP28261   9.731   8.942   1.810 -0.3536 -0.0725 -0.2070
18158PP      PP28262   3.364   2.626   9.867 -0.0827  0.1533 -0.0924
18159PP      PP28263  11.762   9.246   5.566  0.1777  0.3764 -0.4155
18160PP      PP28264   4.846   9.887  12.501  0.1582  0.0102  0.4575
18161PP      PP28265   0.820  15.112   3.861  0.1531  0.0005 -0.0041
18162PP      PP28266  13.203   2.511  10.781  0.0481  0.0614  0.1630
18163PP      PP28267   1.566   3.450  11.761  0.1576  0.4558  0.1713
18164PP      PP28268   6.939  12.844   2.388  0.0602  0.1562  0.2364
18165PP      PP28269   9.823   1.683   0.173 -0.1234  0.0607  0.1246
18166PP      PP28270   4.433   3.441  12.014  0.1419 -0.1457  0.1316
18167PP      PP28271  10.384   1.290   2.732 -0.3794 -0.2668  0.0038
18168PP      PP28272  11.287  12.847   0.272 -0.0861  0.1952 -0.2348
18169PP      PP28273  11.819  14.217   3.684 -0.0218  0.0013 -0.0138
18170PP      PP28274   1.237   5.279   2.581  0.2685  0.2985 -0.1254
18171PP      PP28275  14.174  11.128   2.401  0.0987 -0.0860 -0.2594
18172PP      PP28276   9.921   6.172   1.541 -0.0657 -0.1950  0.2325
18173PP      PP28277   7.472  12.271  11.814 -0.0115 -0.2668 -0.4558
18174PP      PP28278   6.943   7.051   2.663 -0.0397 -0.0997  0.0977
18175PP      PP28279   5.941  15.592   1.221  0.0045  0.3988 -0.0617
18176PP      PP28280   5.912   3.433  13.703 -0.1144  0.1753 -0.2118
18177PP      PP28281  12.225  14.336   4.637  0.3013 -0.0825  0.1690
18178PP      PP28282   1.548   8.979  10.760  0.0774 -0.2384 -0.0155
18179PP      PP28283  15.558  14.559  13.506  0.1285  0.0217 -0.3493
18180PP      PP28284   0.659  14.099  10.943 -0.0765 -0.2393 -0.0384
18181PP      PP28285   1.766  14.434  11.597  0.1144  0.1826  0.2278
18182PP      PP28286   5.604   3.534  11.009 -0.0130  0.3096  0.2866
18183PP      PP28287   2.110   4.583   0.745 -0.1890  0.1144 -0.1711
18184PP      PP28288  10.077  15.534   3.051 -0.0808  0.0799 -0.1130
18185PP      PP28289   2.496  12.885   0.780 -0.4513  0.0003 -0.0202
18186PP      PP28290   4.837   7.676   0.035 -0.0050  0.1659 -0.1393
18187PP      PP28291  10.875   2.832   1.508 -0.2172  0.0847 -0.0170
18188PP      PP28292   7.776   4.984   8.621 -0.1533  0.0586 -0.2036
18189PP      PP28293  11.900   7.727   4.665  0.0064 -0.1029  0.0124
18190PP      PP28294  12.828   5.021   0.929 -0.1949  0.0350 -0.0632
18191PP      PP28295  15.638   8.466   3.690 -0.1060  0.1046  0.1194
18192PP      PP28296  13.681  14.860   3.083  0.3375  0.1624 -0.1422
18193PP      PP28297   6.953   5.379   8.418  0.0184  0.2502 -0.1020
18194PP      PP28298   4.387   0.923   1.810  0.1238 -0.0377 -0.0824
18195PP      PP28299  10.747   7.951   0.548 -0.1682  0.0806 -0.1963
18196PP      PP28300  11.247   4.102  11.264 -0.1178  0.0279 -0.0452
18197PP      PP28301   3.343   9.497   9.962 -0.0674 -0.0950 -0.0219
18198PP      PP28302   1.616  15.553  10.050 -0.0269  0.1917 -0.1175
18199PP      PP28303   4.137   9.792  13.392 -0.0016 -0.1633 -0.0231
18200PP      PP28304   1.948  14.643  10.317 -0.0497  0.0668 -0.2278
18201PP      PP28305   9.538   0.627  10.660 -0.2745  0.0035 -0.2682
18202PP      PP28306  13.080   8.844   2.032 -0.0440  0.1232 -0.2501
18203PP      PP28307  10.169   1.549   2.258  0.0881 -0.3501 -0.0319
18204PP      PP28308   4.894  10.305   4.077  0.0262  0.0314  0.2388
18205PP      PP28309   2.726   7.769   2.001 -0.1306  0.0460  0.2187
18206PP      PP28310   2.227   8.777   2.773  0.0125  0.0672  0.0531
18207PP      PP28311   2.262  12.023  10.601 -0.0966  0.2353 -0.3071
18208PP      PP28312   9.735   8.774  11.495  0.1160  0.0282 -0.6334
18209PP      PP28313  10.733   2.596  10.870 -0.2071 -0.1985  0.2350
18210PP      PP28314   5.560   7.253  13.250  0.2797 -0.0445  0.0808
18211PP      PP28315   3.529   2.170   2.365 -0.0036 -0.0774  0.1473
18212PP      PP28316  14.597   6.901  11.362 -0.0784 -0.2383  0.0446
18213PP      PP28317   8.862   7.921  11.052 -0.0790 -0.1298  0.3450
18214PP      PP28318  15.493   5.565   3.468 -0.0179 -0.2398  0.0976
18215PP      PP28319   6.917   6.821   3.069 -0.1372 -0.0674  0.1960
18216PP      PP28320   4.101  15.534   9.540 -0.1363 -0.1591  0.1615
18217PP      PP28321  12.693  12.264   9.904 -0.1657 -0.2429  0.2161
18218PP      PP28322   9.834   2.837  11.883  0.0797  0.0376  0.3055
18219PP      PP28323  14.150   3.978  13.475 -0.0676 -0.1497  0.1713
18220PP      PP28324  10.293   8.957   1.727 -0.1552 -0.0342  0.0826
18221PP      PP28325   0.492   2.126  12.895 -0.1475 -0.1257  0.1843
18222PP      PP28326  11.009   6.043   1.897 -0.2122  0.0188  0.3250
18223PP      PP28327   9.334   4.407   9.046  0.3774 -0.0828  0.1399
18224PP      PP28328   8.546  11.759  11.052 -0.1620 -0.1889  0.1970
18225PP      PP28329  12.583  10.956   5.841 -0.2022 -0.0320 -0.0190
18226PP      PP28330   9.112  13.844   4.130 -0.0415 -0.0508  0.0968
18227PP      PP28331  15.693   6.843   3.431 -0.0238  0.3025  0.4888
18228PP      PP28332   7.812  14.315  11.501 -0.3780 -0.3192  0.0919
18229PP      PP28333   4.329   7.328  11.027 -0.0357  0.2810  0.3318
18230PP      PP28334  12.237  11.365  10.119  0.1461  0.5152  0.3048
18231PP      PP28335   9.529   3.446   0.655  0.0097 -0.2593  0.1467
18232PP      PP28336  15.318  11.779   3.488  0.1199  0.0552 -0.1712
18233PP      PP28337   9.674   4.645   0.004  0.0766 -0.0712  0.2595
18234PP      PP28338  10.265   6.797   0.986  0.4449  0.2202  0.0384
18235PP      PP28339   7.139   2.579   0.426  0.0179  0.0366  0.0096
18236PP      PP28340  14.130  15.409  12.053  0.2770 -0.2609  0.0334
18237PP      PP28341   4.339   6.223   8.720  0.2253  0.0295 -0.0094
18238PP      PP28342   6.254   8.476  13.349 -0.1352  0.3676 -0.1353
18239PP      PP28343   1.727  10.064   2.009  0.3730  0.1199 -0.0578
18240PP      PP28344  11.713  11.255   5.231  0.1520 -0.0459 -0.2190
18241PP      PP28345  15.466   1.843   4.157 -0.2280  0.2820 -0.0390
18242PP      PP28346   6.016  12.321   4.288 -0.1138  0.0181 -0.0514
18243PP      PP28347  13.793  10.171   4.189  0.0508  0.2142 -0.1477
18244PP      PP28348  11.453  15.258  12.384 -0.1740  0.2184  0.1526
18245PP      PP28349   3.296   1.443  13.707  0.0807 -0.0480 -0.1016
18246PP      PP28350  13.031   4.966   2.292 -0.0260 -0.1001 -0.1910
18247PP      PP28351   6.228   9.625   1.600  0.2426  0.1971 -0.2202
18248PP      PP28352   2.472   8.116   1.243  0.1582  0.2920  0.1988
18249PP      PP28353   3.814   5.682   1.470 -0.3228  0.0896 -0.2360
18250PP      PP28354  12.765  13.166   3.642  0.0457 -0.0384  0.1480
18251PP      PP28355   7.575  12.202   0.493 -0.0997 -0.1723 -0.0114
18252PP      PP28356   0.812   4.374   9.750  0.2058  0.0461 -0.1540
18253PP      PP28357  12.391   4.891   0.534  0.0838 -0.3001 -0.1866
18254PP      PP28358   7.834   8.626  10.879 -0.2041 -0.0583 -0.1165
18255PP      PP28359   3.359   1.494   1.943  0.0375  0.0625 -0.1321
18256PP      PP28360   4.163  13.836   0.050 -0.0153  0.2820 -0.2936
18257PP      PP28361   5.709   4.579   1.196 -0.0612  0.4220  0.0978
18258PP      PP28362   4.188  13.397   1.887  0.1305  0.2828  0.0767
18259PP      PP28363   9.142  10.133  12.120  0.0803 -0.0515  0.0757
18260PP      PP28364   2.299  13.522   4.399  0.2649 -0.1434  0.1055
18261PP      PP28365   7.489   0.935  11.269 -0.0815 -0.4535  0.0749
18262PP      PP28366   8.787   6.772  10.675  0.0968  0.1462  0.1822
18263PP      PP28367  11.526  11.125  13.145  0.1250 -0.0341 -0.4183
18264PP      PP28368   8.654   8.672  13.692  0.3010  0.2906  0.0642
18265PP      PP28369  15.112   8.515  11.414  0.3731 -0.0505 -0.1081
18266PP      PP28370  14.441  11.551   2.044  0.0726  0.2824 -0.2464
18267PP      PP28371  10.356   8.015   2.900  0.1457 -0.0161  0.0277
18268PP      PP28372   6.673   5.711   9.787 -0.0657  0.1745  0.1492
18269PP      PP28373   1.158   3.859   4.411 -0.0311  0.0750  0.1737
18270PP      PP28374  11.892  12.208   2.724  0.0831  0.2289 -0.0021
18271PP      PP28375   0.686   8.931  12.655  0.2008 -0.1054  0.3403
18272PP      PP28376   4.408   0.898   0.602 -0.0666  0.1365  0.1183
18273PP      PP28377   1.480   6.081  13.289  0.1682  0.2690 -0.0033
18274PP      PP28378   7.584  12.161  12.792  0.0198  0.1444  0.1249
18275PP      PP28379   5.580   9.539   8.913 -0.0392  0.2550  0.1480
18276PP      PP28380   1.116  14.020   3.540 -0.2247 -0.2321 -0.2505
18277PP      PP28381  11.193   2.663   3.301 -0.2682  0.2130  0.2505
18278PP      PP28382   1.594   7.078   3.613  0.2695 -0.1792 -0.0153
18279PP      PP28383   9.435  12.612   1.133 -0.2176  0.3077 -0.2305
18280PP      PP28384   5.057  10.270   3.025  0.0160  0.1912  0.2232
18281PP      PP28385   0.125  13.600  11.065 -0.2243 -0.0050  0.2422
18282PP      PP28386  14.390   5.839   2.030  0.2118  0.0513  0.3367
18283PP      PP28387   6.887   1.196   9.520  0.0392 -0.1060  0.0447
18284PP      PP28388  12.219  12.108   4.735 -0.0644 -0.0179  0.0951
18285PP      PP28389   7.890  13.887  10.090  0.1344  0.0261 -0.1547
18286PP      PP28390  10.359  11.188  13.248  0.1747  0.0393 -0.0594
18287PP      PP28391   5.434   0.850   0.985  0.1830  0.0058  0.2146
18288PP      PP28392   8.684   0.999   0.709 -0.0177 -0.3207 -0.3096
18289PP      PP28393   8.376   2.283   8.935 -0.0623 -0.1633 -0.4092
18290PP      PP28394   2.489  11.994   0.346 -0.0621  0.0432  0.1045
18291PP      PP28395   9.482   7.998   1.136  0.0719 -0.0415 -0.2354
18292PP      PP28396   8.035   8.273   4.614  0.3787  0.0389  0.0175
18293PP      PP28397  11.292  11.483   0.100  0.0801 -0.0798  0.3445
18294PP      PP28398  14.369   2.954  10.222  0.1648  0.0030 -0.0488
18295PP      PP28399   2.617  13.625  11.056 -0.0301  0.2248 -0.2214
18296PP      PP28400  13.991  12.671  11.359 -0.0741 -0.0623 -0.2141
18297PP      PP28401  12.494  13.993  10.909  0.0099 -0.1378  0.1195
18298PP      PP28402   0.939   2.162   2.524 -0.0865 -0.0675  0.0200
18299PP      PP28403   3.507  10.290   1.583 -0.1718 -0.0540  0.3682
18300PP      PP28404   4.993   6.567   9.696 -0.0194  0.0882  0.0441
18301PP      PP28405  14.127  13.649   2.117 -0.3656 -0.3626  0.1212
18302PP      PP28406   1.155  10.643   0.980  0.0185  0.0609 -0.0528
18303PP      PP28407  14.192  10.007   2.662 -0.0509  0.0693  0.1303
18304PP      PP28408  14.570   5.440   3.197  0.2252  0.1075  0.2318
18305PP      PP28409   3.000  15.211   8.763 -0.0497 -0.0676  0.0320
18306PP      PP28410   6.328  13.957   3.997 -0.0558 -0.0397  0.0425
18307PP      PP28411  10.087   3.168  13.534 -0.0094 -0.0910 -0.0870
18308PP      PP28412   8.293   5.020   1.087 -0.2018 -0.0225 -0.1221
18309PP      PP28413   9.584  11.227  10.237  0.2040 -0.0840  0.0771
18310PP      PP28414  13.576   1.497   4.334 -0.0175  0.1049 -0.0926
18311PP      PP28415   8.287  13.110  10.882 -0.1200 -0.2978 -0.3645
18312PP      PP28416   1.436  15.683  12.868  0.2580  0.2238  0.1515
18313PP      PP28417   4.295   2.295   9.675 -0.0781  0.2655  0.0441
18314PP      PP28418   7.557   2.919   8.201  0.1877 -0.0470 -0.2719
18315PP      PP28419   0.817   6.240  10.123 -0.2763  0.0301  0.1380
18316PP      PP28420   4.807   2.311  10.647 -0.1524  0.1107 -0.1341
18317PP      PP28421  14.581   4.442   1.749 -0.0703  0.2033 -0.3210
18318PP      PP28422  12.561   9.681  11.570 -0.1844  0.1851 -0.0880
18319PP      PP28423  10.055  13.935  10.726 -0.2366 -0.0238 -0.1367
18320PP      PP28424  11.121  13.943   2.116 -0.0439 -0.0382 -0.4299
18321PP      PP28425  10.746   0.534   9.754  0.0896  0.0010  0.0465
18322PP      PP28426  13.694  11.554   3.232 -0.1540 -0.0565  0.1673
18323PP      PP28427   7.200   0.176   1.754 -0.1689  0.2197  0.0082
18324PP      PP28428   5.707   6.897   9.108  0.2219  0.0779 -0.0988
18325PP      PP28429  12.987   0.417   4.757 -0.0919  0.0429 -0.0734
18326PP      PP28430   5.681   3.894   8.673  0.0362  0.0752 -0.2337
18327PP      PP28431   3.296  13.025   9.497  0.1046 -0.0611 -0.2532
18328PP      PP28432   5.224   1.917   8.183 -0.2316 -0.0064  0.1035
18329PP      PP28433   9.890   9.985  12.791  0.0163  0.2223 -0.0818
18330PP      PP28434  14.054  10.314   3.704  0.0704 -0.3083  0.1179
18331PP      PP28435   4.501   0.468  10.729 -0.1031 -0.0874  0.1289
18332PP      PP28436   4.510   7.592  12.518  0.1532  0.2959 -0.0891
18333PP      PP28437  15.022   6.609   4.330 -0.3500 -0.3355 -0.0892
18334PP      PP28438  14.692   0.700   9.596 -0.0651 -0.1028  0.0967
18335PP      PP28439  12.722   4.194  10.967 -0.1350  0.2038  0.3122
18336PP      PP28440   0.678   4.345  10.253 -0.2761  0.0398 -0.0371
18337PP      PP28441  14.425  13.158  13.290  0.4185  0.0494  0.0077
18338PP      PP28442  15.101  15.720   0.411  0.0765 -0.0821 -0.0555
18339PP      PP28443  10.805  15.615   0.434 -0.0816 -0.1936  0.4045
18340PP      PP28444  13.583   7.765  11.132  0.2237 -0.0478 -0.0428
18341PP      PP28445  15.698   2.131   1.147 -0.1230  0.0725  0.0002
18342PP      PP28446  11.193   2.789   3.985 -0.1344  0.0187 -0.3505
18343PP      PP28447  14.518   0.887  11.850  0.0415 -0.0594  0.1953
18344PP      PP28448  14.588   3.118   9.256  0.2266 -0.2145 -0.0629
18345PP      PP28449  10.848   4.297   2.330  0.2345  0.1087  0.2535
18346PP      PP28450   9.924   7.656  10.165  0.2327 -0.0345 -0.0313
18347PP      PP28451   5.556  14.705  12.353 -0.1019  0.0094  0.1627
18348PP      PP28452  12.951   4.388   3.262 -0.2453 -0.3999  0.0415
18349PP      PP28453   8.002  12.523   4.891 -0.2845  0.0377 -0.1791
18350PP      PP28454   7.948   8.640  11.825  0.0170 -0.1233 -0.0248
18351PP      PP28455   0.624   8.586  13.371  0.2013 -0.2494 -0.1886
18352PP      PP28456   0.024   3.251   2.187 -0.1564  0.0140  0.0497
18353PP      PP28457   6.473  14.995   9.674 -0.0871  0.2026 -0.0414
18354PP      PP28458  13.890  15.700  11.274  0.0754 -0.2084  0.0752
18355PP      PP28459   9.286   9.129   5.157  0.0372 -0.0761  0.0709
18356PP      PP28460   4.281   7.916  13.324  0.1804  0.1078 -0.0094
18357PP      PP28461   1.212   9.289   1.204  0.1158 -0.1044 -0.0918
18358PP      PP28462  14.896  14.518  13.423  0.0502  0.0571  0.1189
18359PP      PP28463   0.405   5.433   3.485  0.1075  0.1215  0.2253
18360PP      PP28464   3.356  14.955   1.168  0.0136  0.0602 -0.2036
18361PP      PP28465  11.454   3.120   0.060 -0.0900 -0.0745 -0.1325
18362PP      PP28466   9.155  11.653  11.054 -0.4124 -0.1566 -0.1619
18363PP      PP28467   1.307  14.829   1.176 -0.0858 -0.2935  0.3286
18364PP      PP28468  12.093  12.094   0.726  0.0304 -0.1382 -0.0158
18365PP      PP28469   0.530  11.849  10.185  0.0954  0.2391 -0.0652
18366PP      PP28470   2.133   6.737  13.322 -0.0463 -0.2043  0.1278
18367PP      PP28471   7.995  15.425   3.195 -0.1778  0.0831 -0.0463
18368PP      PP28472  13.652  13.763   1.896  0.2049  0.0757 -0.2170
18369PP      PP28473   2.899   9.659   4.069  0.0378 -0.2411 -0.0395
18370PP      PP28474   7.827  13.291  13.550 -0.0040  0.0468  0.0555
18371PP      PP28475   7.378   3.303   1.648  0.1664 -0.2620  0.3576
18372PP      PP28476  15.530   5.571  11.671 -0.2242  0.1008  0.2900
18373PP      PP28477   2.578   5.609  13.587  0.0955  0.3206  0.0032
18374PP      PP28478  12.434   6.547   3.181 -0.0957 -0.0411  0.4105
18375PP      PP28479  15.413   0.920   3.730  0.3147 -0.2317 -0.0517
18376PP      PP28480   2.362   1.888   0.101 -0.0014 -0.0598  0.0608
18377PP      PP28481   7.785  11.647   2.081 -0.5399 -0.2014 -0.0689
18378PP      PP28482  12.785   4.260  12.082  0.1074  0.0789 -0.2856
18379PP      PP28483  10.458  12.824   2.415 -0.0168 -0.2532 -0.0677
18380PP      PP28484   8.021   8.308  11.163  0.0114  0.1614 -0.2255
18381PP      PP28485   3.297  12.172   0.015 -0.0788  0.0541  0.0520
18382PP      PP28486   1.920  10.842   3.552 -0.0053 -0.0941  0.0803
18383PP      PP28487   9.789   4.246  12.457 -0.0123  0.3754  0.1903
18384PP      PP28488   8.083   0.551  13.391  0.0527  0.0664  0.0357
18385PP      PP28489  12.553  11.374  10.629  0.0562  0.1723 -0.1475
18386PP      PP28490  10.267  13.725   0.020  0.0622  0.0623  0.4683
18387PP      PP28491   7.344  15.268   8.917  0.0229  0.2035  0.0468
18388PP      PP28492   3.982   5.648   3.629 -0.0051  0.1018  0.1225
18389PP      PP28493  15.013  14.256   1.305 -0.2092 -0.0898 -0.0359
18390PP      PP28494   8.504  13.020   9.823  0.3943 -0.2653 -0.0633
18391PP      PP28495   2.573  13.531   3.092 -0.0632 -0.1634 -0.1025
18392PP      PP28496  15.052   6.913   1.110  0.0796  0.1758 -0.0590
18393PP      PP28497  10.140  12.674  11.296  0.0588 -0.0157 -0.3668
18394PP      PP28498   4.971   7.049   0.920  0.0845  0.0676  0.2696
18395PP      PP28499  12.414   6.452  11.073 -0.0927  0.1028  0.2506
18396PP      PP28500  12.274   6.532  12.807 -0.0501 -0.2952 -0.1855
18397PP      PP28501   6.004   0.240   2.926 -0.0172 -0.1255  0.2993
18398PP      PP28502  11.706   5.802  13.126 -0.0625  0.1402  0.1956
18399PP      PP28503   9.636   8.432   3.692  0.0004  0.3976 -0.1500
18400PP      PP28504  14.301   8.252  10.699  0.0250  0.0950 -0.1270
18401PP      PP28505   4.842   0.974   3.492  0.0394 -0.2661 -0.2886
18402PP      PP28506   3.028   5.073   3.838 -0.0538 -0.1796 -0.1819
18403PP      PP28507   7.916  12.366   9.890 -0.2838 -0.0378 -0.3952
18404PP      PP28508   8.203   4.963   8.290 -0.2196 -0.0835  0.2466
18405PP      PP28509  14.651   8.939  12.797  0.0519  0.2274 -0.0965
18406PP      PP28510  13.302   2.112   2.248  0.0287  0.0627  0.0765
18407PP      PP28511   0.383  14.773   9.726 -0.4074  0.0975  0.2222
18408PP      PP28512   9.191   9.420   1.187 -0.2442 -0.1296 -0.0583
18409PP      PP28513  13.156  14.517   1.567  0.1528  0.0446  0.0229
18410PP      PP28514  10.219  15.714  10.199  0.1540 -0.1933 -0.3066
18411PP      PP28515  13.120   8.651   3.911 -0.0973  0.1821  0.1040
18412PP      PP28516  10.826   3.263   9.696  0.1947 -0.1423  0.2351
18413PP      PP28517   2.638   1.620  10.374 -0.0348  0.2143 -0.3278
18414PP      PP28518   9.470  12.893   9.686 -0.3305  0.0365  0.0003
18415PP      PP28519   0.418  12.611   2.521  0.3468 -0.0426  0.1653
18416PP      PP28520  13.766   1.362   9.241  0.1666 -0.2673 -0.1887
18417PP      PP28521   0.656   4.643  12.369  0.1640  0.1208  0.0943
18418PP      PP28522   5.450  12.377  12.335  0.1087 -0.0124  0.1401
18419PP      PP28523   6.738   7.511  12.601  0.3416 -0.1252  0.0484
18420PP      PP28524  14.763   8.616  13.626 -0.1082 -0.1979 -0.2077
18421PP      PP28525  12.754   0.006   4.609  0.2364  0.1126  0.1473
18422PP      PP28526   8.514   5.648   2.657  0.0253  0.2204  0.0408
18423PP      PP28527   4.337   8.679   1.064 -0.3067 -0.1230  0.0945
18424PP      PP28528  10.885   2.918   2.023  0.1785  0.1003  0.0369
18425PP      PP28529  11.752   8.320  12.835  0.0372 -0.0646  0.0192
18426PP      PP28530   3.184  12.962  10.490 -0.1952 -0.1689  0.1857
18427PP      PP28531  12.862  14.770   0.408  0.1929 -0.2956 -0.3220
18428PP      PP28532   2.884   4.499   9.358 -0.0750 -0.0357  0.0225
18429PP      PP28533   6.242   9.808  12.175  0.0707  0.0948 -0.4442
18430PP      PP28534   0.378   5.248   4.592 -0.0286 -0.2708  0.2276
18431PP      PP28535  15.699   9.605   4.766  0.1718  0.1295  0.2986
18432PP      PP28536   4.688   6.177  11.055 -0.0013 -0.1736 -0.0377
18433PP      PP28537   3.566   2.691   3.337 -0.1218  0.0266 -0.0546
18434PP      PP28538   5.366   1.318  12.630 -0.1799 -0.0109 -0.0691
18435PP      PP28539   4.736   3.024   9.482 -0.3271  0.0969  0.2530
18436PP      PP28540  13.616  12.148   9.605 -0.0452  0.1019 -0.2875
18437PP      PP28541  12.898  10.787  10.295 -0.1863 -0.1201  0.2190
18438PP      PP28542   0.784  14.466  12.163  0.2888 -0.2468 -0.0913
18439PP      PP28543   8.478   1.569  10.552 -0.5626 -0.0616  0.1217
18440PP      PP28544   8.624   0.459   3.854 -0.2206 -0.0206  0.1923
18441PP      PP28545  10.630   4.688   1.498  0.1662  0.1868  0.0823
18442PP      PP28546   4.449   3.283   2.078  0.2802 -0.0516  0.3180
18443PP      PP28547   2.993   1.338  12.748  0.1519 -0.0456 -0.0099
18444PP      PP28548  11.443  14.735  11.654 -0.1127  0.4805  0.1944
18445PP      PP28549  14.432   3.662   1.960 -0.1802  0.1306  0.0806
18446PP      PP28550  12.983   4.060  10.006 -0.0270  0.1619  0.3666
18447PP      PP28551  12.332  12.720  10.916 -0.0881 -0.0772 -0.0498
18448PP      PP28552  15.735  14.469   9.569 -0.0249 -0.4400  0.0161
18449PP      PP28553   9.869   9.131   0.435  0.0268  0.2027 -0.2393
18450PP      PP28554   9.851   0.062  11.882  0.2516 -0.3096 -0.3501
18451PP      PP28555  14.889   7.345  11.280 -0.0818 -0.0103 -0.2118
18452PP      PP28556   7.286  14.022   0.305 -0.0957 -0.0731 -0.1492
18453PP      PP28557   8.292   9.845   9.982  0.0326  0.1895 -0.0278
18454PP      PP28558   2.050   2.481  10.465 -0.0933 -0.0011  0.1570
18455PP      PP28559  15.322   1.128   2.727  0.0104 -0.1468 -0.0121
18456PP      PP28560  15.130  13.422   9.232  0.0558 -0.1752 -0.1530
18457PP      PP28561  13.850  14.629   2.053  0.0833 -0.1167  0.1554
18458PP      PP28562   2.384   8.077   9.245  0.1979  0.1728  0.1037
18459PP      PP28563   8.617   2.347   1.322 -0.0311 -0.3390 -0.4259
18460PP      PP28564  11.230   3.123   8.965 -0.2012 -0.0677  0.3376
18461PP      PP28565   9.302   6.373   1.969 -0.1959  0.0632  0.3858
18462PP      PP28566   3.201   3.814  11.385  0.2235  0.1263  0.2928
18463PP      PP28567   5.418  11.559  11.722 -0.2035 -0.1463 -0.4850
18464PP      PP28568  15.119  11.414   3.837 -0.0266 -0.0045  0.0849
18465PP      PP28569   5.304   8.464   3.365 -0.0391 -0.3589  0.1068
18466PP      PP28570  14.019   7.387   9.866  0.0186  0.1726 -0.1519
18467PP      PP28571   5.798  12.466  13.454  0.3457  0.0203 -0.0830
18468PP      PP28572   9.787   8.329   2.652 -0.0934 -0.2307 -0.0535
18469PP      PP28573   8.925  10.423  13.350 -0.2151 -0.1021 -0.0972
18470PP      PP28574   4.879   9.239  13.480 -0.1931  0.2228  0.2434
18471PP      PP28575   6.696  13.750   8.820 -0.3745  0.2047 -0.1291
18472PP      PP28576   6.100   0.700   8.391  0.0214 -0.0338 -0.2390
18473PP      PP28577   8.730  10.460  12.101 -0.0174  0.0436  0.3169
18474PP      PP28578  15.560  13.441   2.206  0.1625  0.1969 -0.0142
18475PP      PP28579   8.487  10.856   3.856 -0.1378  0.0210 -0.1994
18476PP      PP28580  15.434  13.538   0.421 -0.0515  0.1058  0.2255
18477PP      PP28581   2.279   2.854   3.561 -0.1294  0.1486 -0.3978
18478PP      PP28582   1.937   5.412  13.004  0.0391  0.2200  0.3348
18479PP      PP28583   9.050   2.755   8.372 -0.2104 -0.2955 -0.3274
18480PP      PP28584   3.040  14.604   0.858 -0.0358  0.3038  0.2111
18481PP      PP28585  12.296  15.295   1.835 -0.3592  0.0572 -0.1197
18482PP      PP28586   7.594  10.253   9.656  0.1796 -0.0063 -0.3637
18483PP      PP28587   9.072   7.312  12.611 -0.0426  0.0192 -0.2135
18484PP      PP28588  12.017   8.198   0.021 -0.0131 -0.0546  0.1561
18485PP      PP28589   2.509   2.301   9.809  0.1188  0.2642  0.0881
18486PP      PP28590  14.193   3.106   3.642  0.1120  0.0168  0.0707
18487PP      PP28591   2.378  13.535   2.156  0.0256 -0.1683  0.0974
18488PP      PP28592   3.482  10.416   4.682 -0.0355 -0.0382  0.3691
18489PP      PP28593  11.040  10.848   1.882  0.0036  0.2627 -0.1209
18490PP      PP28594  15.134  14.171  12.270 -0.0421 -0.2058  0.1322
18491PP      PP28595   4.708   6.670  12.350 -0.0329 -0.0932  0.2504
18492PP      PP28596   2.215   3.530   3.696 -0.1107 -0.4566  0.2940
18493PP      PP28597   0.333  12.934   9.771 -0.0324 -0.1747  0.1113
18494PP      PP28598   8.985   7.241   1.596  0.2776  0.1429 -0.0354
18495PP      PP28599   4.263  13.746  13.320 -0.2404 -0.1688 -0.0895
18496PP      PP28600   5.421   6.874   0.690  0.0419  0.0427 -0.0466
18497PP      PP28601   3.811   1.595   1.238 -0.2620  0.1961 -0.3202
18498PP      PP28602   6.696   4.258   0.457  0.0842 -0.0807  0.0600
18499PP      PP28603   3.025   5.955   1.853  0.0279 -0.0304  0.1054
18500PP      PP28604   9.859  10.927  13.347  0.0540 -0.1072 -0.0611
18501PP      PP28605   0.303   5.093  12.373  0.3179 -0.0650  0.0724
18502PP      PP28606   6.832   3.870   8.896  0.0883 -0.3617 -0.2530
18503PP      PP28607   8.992   9.411   9.814  0.0478 -0.1379  0.3061
18504PP      PP28608   6.116   0.922   2.087  0.0400  0.3247  0.2217
18505PP      PP28609   0.490  14.774   4.467  0.1251  0.1970 -0.3385
18506PP      PP28610   8.153  14.917   2.944 -0.0204  0.2196 -0.0813
18507PP      PP28611   2.756  14.132   9.608  0.1153  0.0989  0.0338
18508PP      PP28612   5.706   0.228  12.564  0.0095  0.0207  0.1596
18509PP      PP28613   0.887   1.133  11.598  0.3571 -0.0004  0.3238
18510PP      PP28614   8.204   9.667   4.408  0.0654 -0.1277 -0.3353
18511PP      PP28615  14.728  14.375   3.778  0.0252 -0.2907  0.1816
18512PP      PP28616   8.082   1.467   1.347  0.2272  0.0806 -0.2202
18513PP      PP28617  15.700   6.668   4.589  0.0638 -0.1814 -0.0241
18514PP      PP28618  12.477   9.187   0.975 -0.0574  0.0366 -0.1003
18515PP      PP28619  10.670   9.019  13.626  0.4338  0.0753  0.0006
18516PP      PP28620   5.076   9.778   3.710  0.0148 -0.1207  0.1905
18517PP      PP28621  10.518   3.614   9.483  0.3291 -0.0115 -0.2019
18518PP      PP28622   2.624   2.117  11.313  0.2617  0.0448  0.2480
18519PP      PP28623   1.956   4.859  10.462 -0.1279 -0.2385 -0.2611
18520PP      PP28624  14.295   3.730  11.875 -0.1223  0.0553 -0.5075
18521PP      PP28625   1.104   0.441   1.453  0.3550 -0.2802 -0.0387
18522PP      PP28626   8.792   3.788   2.562 -0.0251 -0.3651 -0.2447
18523PP      PP28627  11.649   4.076   3.950  0.2091  0.0133  0.0989
18524PP      PP28628   3.390   3.172   7.843 -0.2094  0.1511 -0.2395
18525PP      PP28629  11.135  14.995  13.567  0.4957 -0.2796  0.1226
18526PP      PP28630   1.270   4.940   0.449 -0.0545 -0.1261  0.0689
18527PP      PP28631  13.059   0.762   3.905  0.0284 -0.1023 -0.0536
18528PP      PP28632   0.469   8.639  12.271 -0.1562 -0.3216 -0.0471
18529PP      PP28633   7.637   4.718  10.091 -0.0218  0.0697 -0.1314
18530PP      PP28634   7.073   1.415  13.630 -0.1669  0.1027 -0.1259
18531PP      PP28635  11.129   4.153  11.851 -0.0985  0.2139 -0.0144
18532PP      PP28636  10.977  13.741  12.790 -0.0825  0.1051  0.0552
18533PP      PP28637   9.203   8.719  12.373 -0.2356 -0.2851 -0.0881
18534PP      PP28638  15.176  13.458   0.830 -0.1638 -0.0132  0.0810
18535PP      PP28639   3.626  11.095   4.008  0.0497 -0.0318  0.0903
18536PP      PP28640   0.810   4.447   2.088 -0.1286 -0.0134 -0.2140
18537PP      PP28641  14.511  11.911   2.336 -0.1885 -0.0291  0.1145
18538PP      PP28642  10.117   0.596  12.123  0.0084 -0.0857 -0.1017
18539PP      PP28643   2.005   9.773  13.550  0.1591  0.0559  0.0606
18540PP      PP28644   6.020  13.471  13.098 -0.0067  0.0970 -0.2106
18541PP      PP28645   9.482  13.596   3.311  0.0685  0.1567 -0.0334
18542PP      PP28646  12.475   9.531  12.019  0.2302 -0.0111  0.0210
18543PP      PP28647  13.802   8.257  10.865  0.1237 -0.0087  0.1162
18544PP      PP28648   0.360   4.945  10.560 -0.1957 -0.0506 -0.1265
18545PP      PP28649  14.464   7.224   4.994  0.4399  0.1008  0.1929
18546PP      PP28650  13.616   8.275  10.049 -0.0654 -0.1618 -0.0013
18547PP      PP28651  13.129   0.725   9.509 -0.0055  0.1267 -0.0930
18548PP      PP28652   1.480   5.610  11.739 -0.0690  0.3002  0.2120
18549PP      PP28653  10.023  15.135   9.960  0.0388  0.1652 -0.2129
18550PP      PP28654   4.883  15.020   9.585 -0.0444  0.1970 -0.0638
18551PP      PP28655   7.069   4.820  10.031  0.3356  0.2324  0.2725
18552PP      PP28656   0.079  12.995   2.279  0.0098 -0.0488  0.1677
18553PP      PP28657  11.893  15.255   9.450  0.0843 -0.1284  0.0204
18554PP      PP28658   1.448   8.431   3.869 -0.1659 -0.3984 -0.0840
18555PP      PP28659   3.548   3.490   9.611  0.1727 -0.1145 -0.0455
18556PP      PP28660  14.877  10.413  11.618 -0.0690  0.3089  0.0839
18557PP      PP28661   0.292  14.525  10.518  0.3902  0.1159  0.0514
18558PP      PP28662  11.570   9.928  12.349  0.3517  0.0692 -0.1851
18559PP      PP28663   2.229   0.695   3.475 -0.0716  0.1390 -0.0000
18560PP      PP28664  13.892   0.417   4.765  0.0467  0.3482  0.2015
18561PP      PP28665   1.706  15.541  10.591  0.2240 -0.2121  0.0077
18562PP      PP28666   5.318   8.928   4.241 -0.0661  0.1203 -0.1821
18563PP      PP28667  10.750   4.569   2.868  0.0104 -0.2131 -0.1951
18564PP      PP28668   6.415   2.310  12.331  0.0619 -0.4821  0.0379
18565PP      PP28669  13.437  10.050  12.503  0.1314  0.1184  0.0768
18566PP      PP28670   2.283   8.021  13.645 -0.2339  0.1325 -0.0538
18567PP      PP28671  14.027   2.739   8.952 -0.1303 -0.1982 -0.0876
18568PP      PP28672  14.072  11.701   2.890  0.0512  0.1186 -0.0226
18569PP      PP28673   1.087   6.571  12.458 -0.1209  0.0980  0.1239
18570PP      PP28674  13.294  15.582   9.396  0.0720  0.2256 -0.3076
18571PP      PP28675   4.208  15.738   8.466 -0.0982  0.0645  0.1069
18572PP      PP28676  15.331   1.534   9.731  0.3067  0.3284 -0.1408
18573PP      PP28677   3.078  12.155   1.969  0.1955  0.0333 -0.1328
18574PP      PP28678   2.043  15.172  13.261 -0.0482  0.1361 -0.1989
18575PP      PP28679  14.529   1.151  12.299  0.1051 -0.1043  0.3303
18576PP      PP28680  10.474   8.755   4.700 -0.2263 -0.1024  0.1371
18577PP      PP28681  10.640   6.111   3.251  0.0263  0.1871 -0.2446
18578PP      PP28682  10.001   3.311  11.640  0.0188  0.0830  0.3101
18579PP      PP28683  10.446  14.837  10.145  0.3790  0.1942 -0.0786
18580PP      PP28684   9.478   0.310  11.622 -0.0415  0.0713 -0.1906
18581PP      PP28685   8.715  13.046   2.918  0.1038 -0.0806 -0.0788
18582PP      PP28686  10.343   5.202   9.524 -0.1199 -0.0560  0.1633
18583PP      PP28687  11.740   8.647   4.569  0.1286  0.1611  0.3346
18584PP      PP28688  15.169  14.270   9.481 -0.0054 -0.3588  0.2800
18585PP      PP28689  15.262   9.593   1.900 -0.2137  0.0056 -0.3075
18586PP      PP28690   9.001   1.441  10.631  0.2698  0.1038 -0.1285
18587PP      PP28691   9.136   1.979  10.940  0.5115 -0.0549  0.0837
18588PP      PP28692  14.220   0.359  12.525  0.0862  0.2328 -0.2298
18589PP      PP28693  13.181   8.895   9.229  0.0367 -0.1443 -0.0159
18590PP      PP28694   7.993   8.651   3.021 -0.0087  0.3047 -0.2566
18591PP      PP28695   3.204   8.776   8.317 -0.1180 -0.0019 -0.0182
18592PP      PP28696  13.037  14.694   1.058 -0.0169  0.0547  0.1017
18593PP      PP28697  14.397   8.668   1.555  0.2227 -0.1040  0.1664
18594PP      PP28698  12.411  10.471   2.218  0.0864  0.1418  0.0599
18595PP      PP28699   3.299   7.865   1.286  0.2940  0.0463 -0.3872
18596PP      PP28700   7.951   2.355  12.038 -0.2775  0.2649  0.1310
18597PP      PP28701  15.738  12.231  12.899 -0.3320  0.1051 -0.1057
18598PP      PP28702   2.638   1.497  13.060  0.0726  0.3183 -0.0781
18599PP      PP28703  10.586   7.038  12.160  0.1266  0.0485  0.4995
18600PP      PP28704  15.372   1.513  10.407 -0.0456  0.3551 -0.0966
18601PP      PP28705   2.157   1.689  11.250  0.0522  0.0893  0.0378
18602PP      PP28706   2.930   5.074   1.954 -0.0008 -0.0741 -0.2000
18603PP      PP28707   3.150   3.490   9.392  0.1203  0.4651 -0.0075
18604PP      PP28708   7.702   3.883   0.636  0.1209 -0.2546 -0.1894
18605PP      PP28709   9.851   8.165   1.487  0.1062  0.1390  0.1135
18606PP      PP28710  12.106   1.593  11.443  0.0771  0.1416  0.2862
18607PP      PP28711   3.034   0.298   2.558 -0.0640  0.0463 -0.0566
18608PP      PP28712   3.859   0.764   8.274 -0.0310  0.0389  0.0531
18609PP      PP28713   9.672  15.025   3.795  0.0431  0.2483  0.0390
18610PP      PP28714   8.595   1.203  10.831 -0.1712 -0.1255  0.0069
18611PP      PP28715   9.533   4.693   0.740 -0.0459  0.1882 -0.2730
18612PP      PP28716   6.750   5.898   7.919 -0.0605  0.3385  0.0452
18613PP      PP28717  14.571  13.784  11.183 -0.1684  0.0504  0.2860
18614PP      PP28718   2.237   1.804   9.524 -0.1433  0.1377 -0.1813
18615PP      PP28719   6.016   3.165  12.344 -0.1171  0.0810 -0.0156
18616PP      PP28720   8.535   3.187   1.767  0.1338 -0.2397 -0.5091
18617PP      PP28721   8.531  11.335  12.424  0.3367  0.1315  0.2024
18618PP      PP28722   6.812   3.062  12.360 -0.1609 -0.3333  0.1069
18619PP      PP28723   5.232  10.786  11.033 -0.2415  0.1914  0.2833
18620PP      PP28724   6.393   7.978  10.344 -0.1636 -0.1148  0.2174
18621PP      PP28725  15.037   7.175  12.770 -0.2196 -0.0197  0.0823
18622PP      PP28726   9.725   5.052  11.051  0.1661 -0.2332 -0.1579
18623PP      PP28727   0.462   7.155  10.438 -0.0270 -0.1782  0.0691
18624PP      PP28728  11.941   4.563  10.563 -0.2683 -0.0401 -0.0939
18625PP      PP28729  10.366   8.319   4.428  0.2585  0.0474 -0.1202
18626PP      PP28730  11.137  10.792  10.166  0.0578  0.1792 -0.2104
18627PP      PP28731   3.100  10.659   1.832  0.0214  0.1926 -0.2341
18628PP      PP28732  13.848  14.450  10.989  0.4058 -0.0008  0.1870
18629PP      PP28733  13.071   2.200   1.156 -0.0704 -0.1339 -0.0236
18630PP      PP28734   0.561   3.766   1.794 -0.1443  0.2437  0.1922
18631PP      PP28735   8.963  13.256   4.116 -0.1263  0.0498 -0.0436
18632PP      PP28736  12.719   0.606   2.189  0.0983  0.2114  0.1518
18633PP      PP28737  13.670   3.568  10.544 -0.2408  0.1696  0.0240
18634PP      PP28738   9.400   2.799   1.508 -0.0337 -0.2557 -0.0181
18635PP      PP28739   5.942   5.426  12.483  0.0112  0.2073  0.2074
18636PP      PP28740  11.743  14.190   2.790  0.0044 -0.1571 -0.1103
18637PP      PP28741   4.231  13.446   2.424  0.0968 -0.0348  0.2195
18638PP      PP28742  10.084  15.291   1.880  0.4823  0.0783  0.5669
18639PP      PP28743  14.024   9.654   0.215 -0.0119 -0.1410 -0.2340
18640PP      PP28744   0.415  13.125  12.994  0.0571  0.1561  0.1887
18641PP      PP28745  10.132  13.822   0.865 -0.0424 -0.0471  0.2635
18642PP      PP28746   3.145   0.460  10.858 -0.1154  0.1464 -0.1628
18643PP      PP28747  11.766   2.165   1.072 -0.0782 -0.2693  0.1239
18644PP      PP28748   0.338  15.428  12.910 -0.0144  0.0113  0.0288
18645PP      PP28749  15.094  11.190   2.679 -0.0519 -0.1916  0.0254
18646PP      PP28750   1.846  14.744   8.980 -0.3470 -0.3911  0.0804
18647PP      PP28751   2.973   6.568   2.282  0.1434  0.0062  0.2844
18648PP      PP28752  13.939  10.025  12.533 -0.1236  0.0264  0.1061
18649PP      PP28753  10.050   9.634   0.462 -0.1239  0.0837  0.1664
18650PP      PP28754   4.924   3.908   8.854  0.0279  0.0107  0.0715
18651PP      PP28755   8.173  12.241   2.636  0.0083 -0.1713 -0.0543
18652PP      PP28756   4.402  14.971  11.536  0.2338 -0.1951  0.0576
18653PP      PP28757   4.297  10.142   2.593 -0.1391 -0.2490  0.0893
18654PP      PP28758   7.277  11.374  12.872 -0.0424 -0.4041  0.1868
18655PP      PP28759  15.341  13.915   2.186 -0.1849 -0.3077  0.2281
18656PP      PP28760   4.469  14.043  11.924 -0.1121 -0.0923 -0.0382
18657PP      PP28761  14.409   9.749  13.203  0.1851 -0.0298  0.1278
18658PP      PP28762   5.432   4.057   9.515 -0.3037 -0.1821  0.0295
18659PP      PP28763   9.615  11.461   1.621 -0.1431 -0.2069 -0.1253
18660PP      PP28764   9.147  15.302   4.575 -0.0890  0.3670  0.1025
18661PP      PP28765   7.205   9.215   1.108  0.2015  0.0338 -0.0044
18662PP      PP28766   4.775  11.588   0.209 -0.2657  0.0062 -0.2490
18663PP      PP28767   0.998   5.048   3.045 -0.1846  0.2001 -0.2933
18664PP      PP28768   0.533   7.395   9.533 -0.2101  0.0385 -0.2271
18665PP      PP28769   1.960   9.245  11.956  0.0442  0.0884  0.0249
18666PP      PP28770   0.155   0.961  10.094 -0.2491 -0.0568 -0.1143
18667PP      PP28771  13.361   5.491  11.673  0.0566 -0.0065 -0.1021
18668PP      PP28772   0.922  12.072   9.229 -0.1092  0.1807 -0.2531
18669PP      PP28773  14.381   6.602   1.505 -0.1971 -0.1664 -0.0130
18670PP      PP28774   3.479   9.744  13.699 -0.1849  0.1114  0.0566
18671PP      PP28775   4.712   1.634   1.408 -0.0563  0.0589 -0.2267
18672PP      PP28776  14.011   6.762   1.043  0.1196  0.3246 -0.1117
18673PP      PP28777  12.247   3.716  10.920  0.1213 -0.0511  0.1934
18674PP      PP28778   6.981   2.391   2.334 -0.1661  0.0211  0.2808
18675PP      PP28779   8.350   7.469   0.264 -0.2650 -0.3208  0.2441
18676PP      PP28780   9.485  14.922  10.121 -0.1824  0.0633 -0.1739
18677PP      PP28781  14.841  15.424  13.743 -0.2299 -0.2361 -0.0325
18678PP      PP28782   5.895   1.655   8.674  0.2669 -0.2957  0.0478
18679PP      PP28783   2.623   4.151  13.318 -0.3529  0.1052 -0.1391
18680PP      PP28784  11.263   3.162  10.169  0.1690  0.0695 -0.2930
18681PP      PP28785   3.573   4.066   2.727  0.1387 -0.1679 -0.1530
18682PP      PP28786   3.826  15.467   2.728 -0.2795 -0.0445  0.1140
18683PP      PP28787  12.762   0.237  10.493  0.1018 -0.1283  0.0197
18684PP      PP28788   6.731   9.734  12.311  0.0758 -0.0360 -0.0041
18685PP      PP28789  12.986   4.116   4.533 -0.0858  0.1438  0.1930
18686PP      PP28790  11.529  12.235  11.934  0.1444 -0.0030  0.2265
18687PP      PP28791   9.917   5.685   0.847  0.0413 -0.2561  0.1265
18688PP      PP28792   5.328   9.911  10.813 -0.0704  0.0672 -0.0195
18689PP      PP28793   2.058   3.645  11.102 -0.4373  0.0530  0.0229
18690PP      PP28794  12.042   6.157  12.541  0.1522  0.0438 -0.0938
18691PP      PP28795   9.865   1.164   0.435 -0.3540  0.0042  0.1881
18692PP      PP28796  14.507  11.317  12.406 -0.2257  0.2132 -0.1253
18693PP      PP28797   7.666   5.715   2.052  0.0887 -0.0965  0.0178
18694PP      PP28798   2.770   7.947  12.927  0.1281 -0.1976  0.1372
18695PP      PP28799   7.638  13.560  13.180 -0.1538 -0.1369  0.0432
18696PP      PP28800   2.950   9.368   8.718  0.0054 -0.1203  0.5351
18697PP      PP28801  12.184  10.142   3.983 -0.0314  0.0615  0.0040
18698PP      PP28802   8.397  10.678  11.608  0.1229 -0.0536  0.0159
18699PP      PP28803   6.940   2.826  12.915  0.1648  0.0571  0.0366
18700PP      PP28804  12.278  15.272   1.240 -0.0767  0.1850  0.1406
18701PP      PP28805   7.309  11.934  12.132 -0.2711  0.3081 -0.0987
18702PP      PP28806  10.596   1.682   3.837 -0.2269 -0.1729 -0.4345
18703PP      PP28807   3.898   4.966  10.851  0.2964  0.0303  0.2867
18704PP      PP28808  15.518  10.392  10.802 -0.0263  0.0780  0.1552
18705PP      PP28809  13.999  11.860   9.396  0.1333 -0.0118 -0.1486
18706PP      PP28810   1.111  15.128   2.191  0.0470 -0.2251 -0.0645
18707PP      PP28811  10.283  15.212  12.859  0.2074  0.1259  0.1754
18708PP      PP28812  12.584   9.086  12.194  0.1449 -0.1431 -0.0357
18709PP      PP28813  13.142  12.038  12.972  0.5190 -0.2177 -0.0100
18710PP      PP28814  13.102   4.334   2.780 -0.0657 -0.0541 -0.0958
18711PP      PP28815   2.809   5.740   0.796 -0.0046 -0.1031 -0.1489
18712PP      PP28816  13.979   8.934   1.628 -0.0061  0.2102  0.1771
18713PP      PP28817   0.653   0.096   0.336 -0.1442 -0.3880  0.2480
18714PP      PP28818   4.724   8.954   3.844 -0.1074 -0.0744 -0.3706
18715PP      PP28819   6.050   8.472  10.601 -0.0803 -0.0187 -0.0556
18716PP      PP28820   8.757  10.952  13.326  0.0782  0.1704  0.0762
18717PP      PP28821   8.121   7.528   1.472 -0.0926  0.1602 -0.1346
18718PP      PP28822   8.018   0.585  11.201  0.1263  0.1424  0.1337
18719PP      PP28823   9.410   0.794   0.451  0.3471  0.0781 -0.1030
18720PP      PP28824  11.028  10.093   3.252  0.0251  0.0286  0.0168
18721PP      PP28825  11.863   2.490   0.688 -0.1257  0.1904  0.0955
18722PP      PP28826   4.796   0.861   9.222  0.2319  0.0803  0.3437
18723PP      PP28827   5.081   8.729   4.691  0.1022  0.0782 -0.0944
18724PP      PP28828   4.052   3.284   1.136 -0.1487  0.0277  0.2133
18725PP      PP28829   3.461   3.240   9.006  0.2106 -0.1386  0.2383
18726PP      PP28830  12.809   8.166   4.939  0.1881 -0.0395 -0.1867
18727PP      PP28831   1.129   1.071   9.473  0.0831 -0.0357 -0.0951
18728PP      PP28832   4.622  13.072  12.837  0.1275 -0.0407 -0.0953
18729PP      PP28833   3.503   2.311   1.790 -0.0610 -0.1588  0.1543
18730PP      PP28834   7.537  15.660   9.143 -0.0533 -0.0476  0.0065
18731PP      PP28835   8.896  10.472   3.102 -0.1758  0.0227  0.3198
18732PP      PP28836   7.979   0.237   1.273  0.1996  0.1290  0.0463
18733PP      PP28837  11.898   8.011   1.267 -0.3402 -0.0779  0.1495
18734PP      PP28838  15.188   2.930   9.936 -0.1350 -0.2031  0.0361
18735PP      PP28839  13.142   7.966   0.284 -0.2327 -0.2754  0.2618
18736PP      PP28840   0.127  13.318   0.544  0.2855 -0.1207  0.3341
18737PP      PP28841   3.347  15.534   8.654  0.1447  0.0637  0.2048
18738PP      PP28842   6.372  11.510  10.473  0.1967 -0.3868 -0.2041
18739PP      PP28843   1.978  12.262  13.367 -0.1036 -0.0401  0.1589
18740PP      PP28844   5.399  15.392  10.312  0.0142  0.2055  0.0165
18741PP      PP28845   3.155   7.361   8.719  0.0085  0.4869  0.2919
18742PP      PP28846  12.343   7.152   4.150 -0.1364 -0.0172  0.1021
18743PP      PP28847   7.160   5.556   9.692 -0.0942 -0.0417  0.0612
18744PP      PP28848  15.401   7.085  12.433  0.1019  0.1244  0.0274
18745PP      PP28849   9.128   7.775   3.384 -0.4166  0.1100 -0.1896
18746PP      PP28850   2.420   5.106  11.743 -0.2090 -0.0861 -0.0835
18747PP      PP28851   9.438  12.977   3.714  0.1519 -0.1085  0.1216
18748PP      PP28852  10.699   0.841  10.292  0.0190 -0.2223  0.0998
18749PP      PP28853   6.057   7.967  13.397  0.2718  0.1955 -0.1589
18750PP      PP28854  15.389   5.354   1.820 -0.0072 -0.1907 -0.0813
18751PP      PP28855  13.452   5.415   2.320 -0.2324 -0.0315 -0.2171
18752PP      PP28856   1.619  11.860   3.388 -0.0079 -0.1090 -0.0871
18753PP      PP28857   7.736   0.169  11.019  0.1344  0.2309  0.3822
18754PP      PP28858   8.009   5.546   9.244 -0.0304 -0.4827  0.1728
18755PP      PP28859   1.414   7.852  11.597  0.0295  0.0649 -0.3602
18756PP      PP28860  13.734   8.113   5.074  0.0040  0.2997 -0.0129
18757PP      PP28861   5.791  11.966   3.469 -0.0983  0.3022 -0.0711
18758PP      PP28862   9.549   5.007   1.695  0.1923 -0.1238  0.1710
18759PP      PP28863  10.134   2.892  10.072  0.4900 -0.3409  0.0553
18760PP      PP28864  11.142   9.765  13.232  0.1620 -0.3671  0.2476
18761PP      PP28865   8.176   3.489   1.941  0.4281  0.0705 -0.0468
18762PP      PP28866   2.685  12.407   3.969  0.1452 -0.2740  0.1504
18763PP      PP28867  11.037  11.386   1.045 -0.0216 -0.0342  0.0846
18764PP      PP28868   2.553  12.446  10.166 -0.0568  0.3279  0.3231
18765PP      PP28869   8.197   2.988   8.753  0.0884 -0.0249 -0.2304
18766PP      PP28870  15.039   2.967  11.089  0.0503 -0.0639  0.2477
18767PP      PP28871   3.089  14.940   2.803 -0.0093  0.0539 -0.0065
18768PP      PP28872  14.025   3.153  13.467  0.4623  0.0751  0.2644
18769PP      PP28873   3.489   5.344  10.900  0.1138  0.2499 -0.1497
18770PP      PP28874  14.798   5.260  11.511  0.2457 -0.0555  0.2085
18771PP      PP28875  13.256  13.147   3.622 -0.0990  0.0983 -0.3157
18772PP      PP28876  13.318   2.978   1.032 -0.0792 -0.2376  0.2590
18773PP      PP28877  12.038   5.055   4.439  0.0110 -0.2891 -0.1968
18774PP      PP28878  12.596   6.860   1.679 -0.2582  0.0003 -0.1162
18775PP      PP28879  11.532  12.343  11.375 -0.2133  0.2889 -0.1676
18776PP      PP28880   4.283  12.443  12.034  0.1055 -0.3150 -0.1117
18777PP      PP28881   8.143   1.062  10.685 -0.1543  0.1500 -0.1199
18778PP      PP28882  14.168   7.502  12.501  0.1248  0.2182  0.0444
18779PP      PP28883   4.896   2.576   9.049 -0.1437  0.0664  0.2063
18780PP      PP28884  10.289   2.949   1.879 -0.3177  0.1125  0.1885
18781PP      PP28885  10.443  12.981   0.367  0.1224 -0.2967  0.2390
18782PP      PP28886   6.500   5.433  12.608 -0.0378  0.1061 -0.1500
18783PP      PP28887   3.336   7.347  10.843 -0.2227 -0.0859 -0.1825
18784PP      PP28888   7.395   1.842   7.079 -0.1627  0.0441 -0.1112
18785PP      PP28889   3.302   5.834   0.915  0.1271  0.0309 -0.0471
18786PP      PP28890  12.332   1.981   4.213 -0.0541  0.1208 -0.0499
18787PP      PP28891   8.826  14.305  13.547  0.2416  0.1309 -0.1619
18788PP      PP28892   2.036   8.487   3.140  0.1214  0.0653 -0.2060
18789PP      PP28893   6.942   1.129   1.517  0.1052 -0.1161  0.3632
18790PP      PP28894   5.213  14.993   2.726 -0.1216 -0.2049  0.2873
18791PP      PP28895   2.217   6.648   8.827 -0.3740 -0.3182 -0.1166
18792PP      PP28896   4.253  10.890   3.437  0.2059  0.0714 -0.0144
18793PP      PP28897   8.283  14.601  10.677  0.0503 -0.1062  0.1019
18794PP      PP28898   1.703   7.990   3.082 -0.2043  0.0809 -0.0677
18795PP      PP28899  13.253   8.297   5.288 -0.1741  0.2856  0.1441
18796PP      PP28900   1.445   6.380   8.953 -0.2271 -0.0985 -0.1010
18797PP      PP28901   6.112  12.636  11.056 -0.0483 -0.1260 -0.1792
18798PP      PP28902   3.365   1.014   1.605  0.0261  0.3190 -0.0658
18799PP      PP28903   2.371   6.967  11.914 -0.1449  0.0296  0.0990
18800PP      PP28904   3.823   1.782   0.799  0.1107 -0.2466 -0.0487
18801PP      PP28905  12.632   5.406   9.913 -0.2853 -0.0986  0.1350
18802PP      PP28906  12.645  13.776  12.830 -0.0001 -0.1358  0.0636
18803PP      PP28907  15.359   5.489  10.717 -0.3734 -0.1720  0.1795
18804PP      PP28908   4.416   7.503  13.543 -0.0758 -0.1311  0.1668
18805PP      PP28909   5.974   9.642  10.090  0.0846 -0.1633  0.1239
18806PP      PP28910  14.607   5.320  12.526 -0.1226  0.0103  0.0988
18807PP      PP28911   8.792  12.370   3.710 -0.0345 -0.0346  0.1235
18808PP      PP28912   1.376  14.545  13.750 -0.3614  0.0206 -0.0673
18809PP      PP28913  13.736  13.478   2.342 -0.3485  0.1003  0.2191
18810PP      PP28914  13.470   2.116  11.009  0.1328  0.2115 -0.0445
18811PP      PP28915   7.325   9.614   3.354  0.1075  0.1600  0.1224
18812PP      PP28916   0.392   2.701   3.961  0.1778  0.0266  0.0298
18813PP      PP28917   6.806   4.462   2.911  0.2620  0.1462  0.1256
18814PP      PP28918   5.372   6.803  13.133  0.1003 -0.0248  0.0834
18815PP      PP28919  10.374  13.429  11.958 -0.0913 -0.0128  0.0379
18816PP      PP28920  12.681   8.446   3.275  0.2980  0.2486 -0.0749
18817PP      PP28921   9.238   3.757  13.565  0.2317  0.0607 -0.5126
18818PP      PP28922  12.516  15.702   9.432 -0.1500  0.1335 -0.0492
18819PP      PP28923   5.940  10.472   0.523 -0.0845  0.1511 -0.1785
18820PP      PP28924  12.044   2.631   3.694  0.0657  0.0102 -0.0520
18821PP      PP28925  11.179   7.778   4.189  0.0014  0.0393 -0.0169
18822PP      PP28926   4.836   0.026  10.767  0.4108  0.1142  0.2132
18823PP      PP28927   2.979  11.343   1.840  0.0264  0.2688  0.0343
18824PP      PP28928   3.754  10.083   2.024  0.1383  0.1724  0.0180
18825PP      PP28929  11.770  14.527  10.925  0.3028  0.1533 -0.0838
18826PP      PP28930   6.520   4.958  11.848 -0.0118 -0.0883  0.1597
18827PP      PP28931  12.654   2.977  13.352 -0.0887 -0.1205 -0.1209
18828PP      PP28932  13.068  14.696  11.281 -0.4205 -0.1531 -0.0322
18829PP      PP28933  10.319   5.847   9.937 -0.0621  0.1311  0.0035
18830PP      PP28934   4.927   7.439  12.741 -0.1782  0.1278 -0.2700
18831PP      PP28935   0.717  10.208   0.395 -0.2489 -0.0431  0.0456
18832PP      PP28936  14.930   6.718  12.752  0.0731 -0.1704  0.1584
18833PP      PP28937   6.636  11.155   4.868  0.0276 -0.2618 -0.1426
18834PP      PP28938   6.400   3.747  11.741  0.0040 -0.1981  0.0209
18835PP      PP28939  14.303   6.188  12.771 -0.0612 -0.0690  0.0113
18836PP      PP28940   6.209  10.215  12.513 -0.0657 -0.0321  0.1062
18837PP      PP28941   3.149   7.370   1.274  0.0209  0.0686  0.2637
18838PP      PP28942   8.517  15.040   2.117 -0.0727  0.0616  0.1661
18839PP      PP28943  10.496   4.967  12.377  0.0116 -0.1517 -0.1474
18840PP      PP28944   0.550   2.254  10.176  0.2438 -0.2833 -0.1488
18841PP      PP28945  13.117  13.285   9.559  0.2559 -0.0307  0.0810
18842PP      PP28946   7.971  13.699  11.459 -0.1093  0.1669 -0.2786
18843PP      PP28947   4.620  11.982  10.294  0.1554 -0.2411  0.2098
18844PP      PP28948  10.970  15.092  12.308  0.3089 -0.0929  0.2118
18845PP      PP28949  13.875   8.559  13.440 -0.0235  0.2261 -0.1811
18846PP      PP28950  10.418   2.603  10.463 -0.2328 -0.3114 -0.0413
18847PP      PP28951  11.888  13.812   4.550 -0.0238 -0.1979  0.2082
18848PP      PP28952  10.050   6.560   2.697  0.2482 -0.2012  0.0793
18849PP      PP28953  11.333  11.383   1.627 -0.0247 -0.0170 -0.2912
18850PP      PP28954  13.818  14.999   0.007 -0.3484  0.0484 -0.0923
18851PP      PP28955   1.376   7.398   2.578 -0.1037  0.2242  0.1050
18852PP      PP28956  11.048   1.018  12.737  0.1990  0.0997  0.1424
18853PP      PP28957  10.165   8.710   0.281 -0.0568  0.2483 -0.2117
18854PP      PP28958   9.826   7.855  12.317  0.1023  0.2128  0.2642
18855PP      PP28959  14.523  15.134  10.925  0.0412  0.2155  0.4128
18856PP      PP28960  14.541   3.286   0.422 -0.1501 -0.0349 -0.1799
18857PP      PP28961   4.725  12.428   3.754 -0.0937  0.1416 -0.5516
18858PP      PP28962   5.507  14.287  10.640 -0.3278 -0.1408 -0.1766
18859PP      PP28963   1.484   4.495  12.022  0.0644  0.1902  0.1192
18860PP      PP28964  11.460   5.856  11.225  0.1608 -0.2044 -0.3066
18861PP      PP28965  10.871   4.146   1.112 -0.1556  0.0273 -0.0766
18862PP      PP28966   8.391  13.167  13.358  0.0309  0.2577 -0.1174
18863PP      PP28967   0.875  13.329  10.574 -0.1183  0.0794  0.2062
18864PP      PP28968  15.140   4.397   1.630  0.3057  0.1433  0.1116
18865PP      PP28969  14.148  10.389   1.935  0.0082 -0.1515 -0.0495
18866PP      PP28970   2.389  12.941   3.081 -0.2770 -0.0559 -0.0288
18867PP      PP28971  12.736   4.112   9.167 -0.1108 -0.0007 -0.0949
18868PP      PP28972   0.617   7.815  12.471 -0.3308 -0.0551  0.1841
18869PP      PP28973   5.409   8.277   2.142  0.0294 -0.0871  0.2911
18870PP      PP28974  11.161   8.478   0.284 -0.0038 -0.0436  0.1617
18871PP      PP28975   3.408   8.534   9.125  0.3305 -0.0618 -0.3047
18872PP      PP28976   5.126   4.918   3.046  0.3405  0.1721 -0.2509
18873PP      PP28977   4.522   7.920   3.998  0.2707  0.1578  0.1347
18874PP      PP28978   4.357  10.717  11.718  0.1037  0.1048 -0.0150
18875PP      PP28979  12.013   3.354  12.910 -0.3068 -0.0713  0.0373
18876PP      PP28980  10.133   7.819  13.629  0.3259  0.1306 -0.0281
18877PP      PP28981  10.017   4.713   2.163  0.0270 -0.0024 -0.1847
18878PP      PP28982   2.251   3.753  13.443 -0.1174  0.0352 -0.3580
18879PP      PP28983   2.996   9.440   1.193  0.2089 -0.1539 -0.1375
18880PP      PP28984   6.555   4.474   8.545  0.1223  0.1992  0.0583
18881PP      PP28985  11.602   0.616   2.100 -0.1482 -0.1806 -0.0523
18882PP      PP28986   5.500   6.138   3.892 -0.0706  0.1010  0.1778
18883PP      PP28987   8.641   7.887   3.076 -0.2654 -0.0783 -0.2105
18884PP      PP28988   6.007   8.910   0.529 -0.0868  0.2054  0.1812
18885PP      PP28989   3.190   3.719   9.830  0.4111 -0.1153 -0.0815
18886PP      PP28990   0.768   8.420   3.600  0.0046  0.1123  0.4116
18887PP      PP28991  10.211   7.177  11.815  0.1581 -0.0034  0.1422
18888PP      PP28992   9.391   7.873  11.267  0.5299 -0.2141  0.0722
18889PP      PP28993   7.784   1.867   2.779 -0.0335  0.1627 -0.1460
18890PP      PP28994  14.871   1.127   2.392  0.0720  0.0026 -0.1796
18891PP      PP28995   3.739   7.977  13.343 -0.3032  0.1909 -0.0899
18892PP      PP28996  14.550   1.012   4.141  0.0116  0.1415 -0.1848
18893PP      PP28997   7.116  15.104   2.320  0.1406  0.3943 -0.1729
18894PP      PP28998  13.005  10.679   4.167  0.1028  0.2698 -0.1172
18895PP      PP28999   0.826  11.253   9.888  0.1648  0.3352 -0.0571
18896PP      PP29000  14.736  15.159   3.431  0.1401 -0.1069  0.0710
18897PP      PP29001   6.250   2.747  10.743 -0.3539  0.0548  0.0262
18898PP      PP29002   9.291  11.439   2.807  0.1415 -0.0345  0.2343
18899PP      PP29003   3.934  14.370  12.297  0.1091 -0.1372  0.0456
18900PP      PP29004   3.576   4.854  11.246  0.2149 -0.2229  0.2398
18901PP      PP29005   1.383   6.415  10.553  0.1412  0.0043 -0.2849
18902PP      PP29006   0.176   0.598   9.567 -0.2010  0.1053  0.5195
18903PP      PP29007  15.377  13.373  11.440  0.0925  0.0261  0.1346
18904PP      PP29008   7.755   2.312  13.031 -0.2280  0.2570  0.1279
18905PP      PP29009   8.586   3.600   9.432  0.1345 -0.1406 -0.0346
18906PP      PP29010   4.415  14.734  10.432 -0.1536 -0.2314 -0.1170
18907PP      PP29011   5.020   7.438   3.649 -0.0731 -0.0397  0.2384
18908PP      PP29012  14.739   6.797   9.984  0.3197 -0.0483 -0.1129
18909PP      PP29013   6.088  13.680   4.341 -0.0436  0.1062  0.3295
18910PP      PP29014   6.493   7.287   1.798 -0.0476  0.3359 -0.0704
18911PP      PP29015   5.771   0.673   1.866  0.0800 -0.2242 -0.0034
18912PP      PP29016  10.003  14.663  12.308  0.1080 -0.0909  0.0801
18913PP      PP29017  13.246  15.554   0.110 -0.1383  0.1223 -0.1734
18914PP      PP29018  15.307  11.920  11.981 -0.1282  0.0003 -0.2695
18915PP      PP29019   2.682   9.637  12.755  0.0127 -0.1005  0.2013
18916PP      PP29020   5.835   3.173   8.601  0.4312  0.0340 -0.1956
18917PP      PP29021  12.441   9.708   1.112  0.1832  0.2704  0.2284
18918PP      PP29022  11.598  12.981   3.050 -0.0600 -0.0443  0.0585
18919PP      PP29023   3.227   6.318   1.116 -0.1714  0.1332  0.1459
18920PP      PP29024   0.374   9.833   3.428  0.2568  0.2402 -0.3597
18921PP      PP29025  11.430   0.320  11.335  0.0276  0.2164  0.0167
18922PP      PP29026   9.427   1.110  10.726 -0.0253  0.1042  0.2310
18923PP      PP29027   0.039   4.959  11.302  0.2769 -0.2704 -0.0332
18924PP      PP29028  11.054   9.257  13.403  0.0912  0.1989  0.0293
18925PP      PP29029   8.608   7.498  11.021 -0.0462 -0.0839  0.0638
18926PP      PP29030  10.199   5.600   3.918  0.0101 -0.0434  0.1431
18927PP      PP29031  13.536   6.748   3.268  0.1286 -0.1535 -0.0404
18928PP      PP29032   5.757  11.837   3.982  0.2178 -0.0881 -0.1249
18929PP      PP29033   6.429   6.232   9.665  0.0778 -0.2581 -0.0704
18930PP      PP29034  13.313  13.692   3.610 -0.0600  0.3487  0.2967
18931PP      PP29035  15.320   3.099   4.738  0.0968  0.2352 -0.2479
18932PP      PP29036   6.051   1.181  12.441  0.1719 -0.1682  0.4105
18933PP      PP29037   7.424   4.085   0.133  0.0104  0.1715 -0.2134
18934PP      PP29038   4.463   4.834  12.634  0.0512 -0.1386 -0.0897
18935PP      PP29039   2.823  13.501   8.994  0.2793 -0.2955  0.3465
18936PP      PP29040  14.587   3.094  13.369 -0.1079  0.0510 -0.0074
18937PP      PP29041  10.182   3.319   1.522 -0.1763 -0.1912  0.2161
18938PP      PP29042   4.197   7.423   3.990  0.0413 -0.1765 -0.1573
18939PP      PP29043   2.839   2.469  12.760 -0.0283  0.0321  0.1448
18940PP      PP29044   5.378   9.836  11.925  0.3109  0.1224 -0.1888
18941PP      PP29045   4.182   6.317  11.088 -0.1763  0.0844 -0.3882
18942PP      PP29046  11.678   9.177   1.259  0.2530  0.2465 -0.0960
18943PP      PP29047   0.945   5.721  12.618  0.0833 -0.1860  0.0294
18944PP      PP29048  13.844  12.247   1.346  0.2446  0.2211  0.0717
18945PP      PP29049  14.193   3.234   3.017 -0.0840 -0.4416 -0.0559
18946PP      PP29050   2.050   7.152   3.949  0.0962 -0.1376 -0.0493
18947PP      PP29051   8.544  11.899   2.460 -0.0468  0.0374  0.0539
18948PP      PP29052   0.233  11.478   1.199 -0.1824 -0.3297  0.2800
18949PP      PP29053   4.587  13.511  11.786 -0.3284  0.1989  0.3813
18950PP      PP29054  13.171   9.116  13.147  0.2303 -0.1905  0.1956
18951PP      PP29055  10.481  12.435   0.349  0.2387  0.0879 -0.0090
18952PP      PP29056   0.693   6.296   3.699  0.2730 -0.2163 -0.1691
18953PP      PP29057   7.539   1.731   9.632  0.0884  0.2196 -0.3093
18954PP      PP29058  14.258   6.894  10.260 -0.0506  0.0563  0.0618
18955PP      PP29059   5.227   3.812  11.862 -0.0139 -0.0524  0.2654
18956PP      PP29060  15.396   2.691  11.348 -0.2272 -0.1430  0.0857
18957PP      PP29061   1.457   9.175   2.108 -0.2652 -0.0169 -0.0845
18958PP      PP29062   6.052  12.804   0.005  0.1719 -0.1328  0.0380
18959PP      PP29063  15.633   1.342  12.351  0.1407  0.0278 -0.0493
18960PP      PP29064   4.329   5.757   9.834 -0.1213  0.2631  0.2636
18961PP      PP29065   8.502  12.457   9.833  0.0935  0.0467 -0.1689
18962PP      PP29066   0.459  10.773  10.138 -0.0298 -0.1278  0.5504
18963PP      PP29067   1.965   1.638  10.347  0.1275  0.3073  0.0594
18964PP      PP29068  10.573  13.157  13.630 -0.2970 -0.1723  0.0361
18965PP      PP29069   5.971   9.893   2.028  0.1393  0.1739  0.0920
18966PP      PP29070   4.279   3.825  13.608 -0.2271 -0.1313  0.1124
18967PP      PP29071  10.651   8.710  10.509  0.0528 -0.1207 -0.0015
18968PP      PP29072   3.750  14.956   2.604 -0.0443 -0.3894 -0.0182
18969PP      PP29073  11.126   6.537  12.449 -0.0495 -0.1185  0.2332
18970PP      PP29074  12.734   0.935   3.548  0.1857 -0.4428  0.0183
18971PP      PP29075  14.202  10.481   3.248  0.0986  0.2418 -0.0666
18972PP      PP29076   7.536   6.237  10.942 -0.1458 -0.2392 -0.1262
18973PP      PP29077   4.758   8.415   2.510 -0.2022  0.2187  0.0010
18974PP      PP29078   6.588   8.452   3.997  0.1029  0.0928 -0.2326
18975PP      PP29079  12.718   7.121   3.307 -0.1426  0.1757 -0.0199
18976PP      PP29080  15.577   8.406   9.812  0.0980  0.2624 -0.4164
18977PP      PP29081  15.591  15.167   1.034  0.1447 -0.3341 -0.0273
18978PP      PP29082   3.306  13.897  13.017 -0.1217 -0.6156 -0.1475
18979PP      PP29083   1.128  13.152  10.206  0.1358  0.0889  0.3217
18980PP      PP29084  12.773  15.178  10.565  0.1682  0.2803  0.1845
18981PP      PP29085   3.234  11.119   2.220  0.0663 -0.4101 -0.3304
18982PP      PP29086   4.381   8.034  12.836 -0.0286 -0.2305  0.1617
18983PP      PP29087   7.060   5.348   3.430  0.0802 -0.1399  0.1888
18984PP      PP29088   3.797  10.875   4.429  0.0384  0.0327  0.1271
18985PP      PP29089  12.832   0.364   9.573 -0.2499 -0.0287  0.3232
18986PP      PP29090   0.057  15.405  12.224  0.2443  0.2683  0.0058
18987PP      PP29091  10.708   6.303  11.788 -0.0693 -0.0081  0.1321
18988PP      PP29092   1.063  15.078  11.215  0.0451  0.0565 -0.0446
18989PP      PP29093   6.243  10.918  13.553 -0.1320 -0.1851 -0.1311
18990PP      PP29094   0.743   5.881   2.149  0.3293  0.1278  0.0198
18991PP      PP29095  14.961   1.889   0.682 -0.2655 -0.0929 -0.0920
18992PP      PP29096   2.238  12.413   3.724  0.1470 -0.1050  0.2824
18993PP      PP29097  13.195   4.371   4.145 -0.0406  0.4960  0.1400
18994PP      PP29098   3.247  11.876  10.527  0.0703  0.0890 -0.0462
18995PP      PP29099   3.056   9.460   2.283  0.1490 -0.1623  0.2172
18996PP      PP29100   5.177   5.821   9.367  0.0603 -0.1126 -0.0135
18997PP      PP29101  11.385  13.426  10.088  0.0994  0.0178 -0.3336
18998PP      PP29102   7.478   3.663   1.297  0.0420  0.1398 -0.2629
18999PP      PP29103   6.028  10.263  10.391  0.1664 -0.2418  0.2413
19000PP      PP29104  11.862   1.443   0.819  0.0973  0.1380  0.0857
19001PP      PP29105   5.580  12.621  10.972 -0.0392  0.1409  0.1084
19002PP      PP29106  10.806   6.216  13.549 -0.0212  0.2817 -0.1735
19003PP      PP29107  13.225  14.966  10.781 -0.0814 -0.0492 -0.0825
19004PP      PP29108   0.551   8.203  11.934  0.0841  0.1252 -0.0032
19005PP      PP29109  12.769   5.031  11.619  0.1569  0.3118  0.1665
19006PP      PP29110  12.813   0.432   0.258 -0.0300  0.1231 -0.0052
19007PP      PP29111   5.651   8.865   9.169  0.0515  0.1527 -0.1656
19008PP      PP29112   7.855   2.211  10.921  0.1133 -0.1180  0.0840
19009PP      PP29113  12.619   4.236   1.240  0.3022  0.0089  0.1676
19010PP      PP29114   6.571  15.119   0.410 -0.0818 -0.0497 -0.2032
19011PP      PP29115   2.736   9.127   2.974  0.2306 -0.1678 -0.1920
19012PP      PP29116  13.336   3.159  11.879 -0.0812  0.1500 -0.1843
19013PP      PP29117   8.087  12.599  12.172  0.1348  0.1693  0.1113
19014PP      PP29118  11.532   3.685  11.017 -0.0706  0.0473 -0.0250
19015PP      PP29119   2.525  13.598   1.228  0.1390 -0.1960  0.1774
19016PP      PP29120  13.626  12.470   0.956  0.1249  0.1310 -0.3967
19017PP      PP29121  12.382   5.875   1.012  0.2299 -0.0286 -0.0825
19018PP      PP29122   0.689  13.601   4.184 -0.0130  0.0938 -0.0764
19019PP      PP29123   0.604   5.685   9.879 -0.2678  0.1737  0.1279
19020PP      PP29124  10.164   7.305  12.345  0.0697 -0.0928 -0.1849
19021PP      PP29125   6.283  11.040  10.659 -0.4440 -0.0698 -0.0352
19022PP      PP29126  15.546   8.557   0.209 -0.0257  0.1140  0.0781
19023PP      PP29127  14.039  13.883   1.611 -0.1596 -0.3730  0.0983
19024PP      PP29128   1.552   9.478  10.377  0.0535  0.1394 -0.1478
19025PP      PP29129  14.408   8.089   0.803  0.4981 -0.3550  0.1218
19026PP      PP29130   2.533   9.881   3.657 -0.3600 -0.0674 -0.2226
19027PP      PP29131   2.951   6.118   8.627 -0.0118 -0.5252 -0.0125
19028PP      PP29132  10.786   2.274   1.434  0.2477  0.2455 -0.1485
19029PP      PP29133   0.299  12.230   1.471  0.2759  0.1224 -0.1836
19030PP      PP29134  13.824   7.265  11.789 -0.1373 -0.1280 -0.0862
19031PP      PP29135   5.888   3.515   8.922 -0.0089 -0.2612  0.2703
19032PP      PP29136  13.948  11.273   3.658 -0.2801 -0.1501 -0.0453
19033PP      PP29137   0.803   7.912   4.000  0.0730  0.1094 -0.0793
19034PP      PP29138   4.990   5.785  13.528  0.2396  0.0872 -0.2288
19035PP      PP29139   1.769  12.630  10.760  0.2918  0.0723 -0.4073
19036PP      PP29140  15.607   2.115   3.656  0.0139 -0.0422 -0.0584
19037PP      PP29141  13.599  12.123   3.805 -0.0069  0.0408  0.0199
19038PP      PP29142   8.603  12.737   3.428 -0.0340  0.3364  0.0902
19039PP      PP29143   6.819   7.685   9.128  0.1362 -0.0226 -0.3054
19040PP      PP29144   5.702   6.437   9.864 -0.0873 -0.0538  0.0592
19041PP      PP29145   6.822   7.867  10.511 -0.1077  0.2937  0.0376
19042PP      PP29146   7.460  10.237   0.442 -0.0889 -0.0132 -0.1006
19043PP      PP29147   6.842   9.138  11.836  0.1348 -0.1998 -0.0326
19044PP      PP29148  14.371   4.372   2.806  0.0279  0.0315 -0.0772
19045PP      PP29149   6.974   6.939  11.018 -0.0228  0.0813  0.0987
19046PP      PP29150   4.067  10.037   3.971 -0.2611  0.0454 -0.0744
19047PP      PP29151   5.608   7.161   4.095  0.1106 -0.0583 -0.1185
19048PP      PP29152  10.703  10.528   3.668  0.0870  0.0062  0.2259
19049PP      PP29153   5.373   8.025  11.809  0.1790  0.2814  0.1064
19050PP      PP29154   2.107  11.448   1.698 -0.0481  0.3671  0.0124
19051PP      PP29155  10.021   6.701   3.354  0.0588  0.1185 -0.0328
19052PP      PP29156   0.489  14.634   2.583 -0.2285  0.3512  0.1012
19053PP      PP29157  10.993  11.699   1.853  0.0985  0.0633 -0.2774
19054PP      PP29158  13.568  10.691  10.303  0.2398  0.2645  0.0195
19055PP      PP29159   9.503  14.238   0.525 -0.2257  0.0150 -0.0855
19056PP      PP29160   7.658  15.440  12.181 -0.2277 -0.0320  0.0096
19057PP      PP29161  10.809  11.893  11.126  0.0262 -0.2430  0.2055
19058PP      PP29162   0.068   8.087  10.486 -0.3204 -0.0464  0.0196
19059PP      PP29163   1.649   8.261   9.647  0.1794  0.1510  0.1246
19060PP      PP29164  12.603   0.925   1.029 -0.1441 -0.3085  0.0124
19061PP      PP29165   4.407   4.160  11.929 -0.1424 -0.0030  0.1801
19062PP      PP29166  13.455   9.578  10.570  0.0979 -0.0513  0.7798
19063PP      PP29167   8.949  10.046   3.838 -0.0246  0.2672  0.2494
19064PP      PP29168  10.129  10.877   5.134  0.0641  0.0186 -0.2912
19065PP      PP29169   6.066   4.272  13.574  0.2034  0.2291  0.1440
19066PP      PP29170   6.819  10.154  11.561  0.2182 -0.0603  0.1888
19067PP      PP29171  12.228   5.958   1.440 -0.1315 -0.1783 -0.1458
19068PP      PP29172   0.898   6.169   8.804  0.1437 -0.0385 -0.2365
19069PP      PP29173   1.037   4.418   0.229 -0.0472  0.2772 -0.1419
19070PP      PP29174   1.350   0.940  12.943 -0.1547  0.1648  0.1725
19071PP      PP29175  13.865  10.462  10.863 -0.0886  0.1402 -0.1498
19072PP      PP29176  11.040   1.941   4.005  0.1137  0.2478 -0.0472
19073PP      PP29177  11.680   2.145   4.535  0.2414 -0.0679  0.2883
19074PP      PP29178  13.829   8.918  11.685  0.0224  0.0311 -0.3635
19075PP      PP29179   1.611   8.665   1.401  0.0542 -0.1659 -0.3157
19076PP      PP29180  15.120  12.278  10.329  0.0492  0.0789  0.0071
19077PP      PP29181  11.675   4.187  11.837 -0.0515  0.2887 -0.1487
19078PP      PP29182  12.627   9.913   9.810  0.0676 -0.0278  0.3625
19079PP      PP29183   7.999   9.429   0.779 -0.1625  0.0006  0.2540
19080PP      PP29184  10.345  11.900   5.452  0.0931 -0.2572  0.1938
19081PP      PP29185  13.012   9.885   3.597 -0.0305 -0.1187  0.4447
19082PP      PP29186   2.312  12.551   9.779  0.0151  0.1718 -0.0227
19083PP      PP29187  10.027   5.327  12.508 -0.3845 -0.0999 -0.2860
19084PP      PP29188   4.132   8.758   2.901 -0.0820 -0.1443 -0.0787
19085PP      PP29189   7.672  12.185   9.534  0.4852  0.0652 -0.3085
19086PP      PP29190   0.340   2.335  13.293 -0.2365 -0.1673 -0.0552
19087PP      PP29191   0.359   3.066   3.453 -0.0652 -0.2684  0.1933
19088PP      PP29192  11.777  12.030  10.700  0.1041  0.1047  0.0833
19089PP      PP29193  14.334  11.799  11.444  0.1912 -0.0574 -0.1342
19090PP      PP29194   2.093  10.785   2.581 -0.2493 -0.1541  0.0444
19091PP      PP29195   0.283   9.123  12.398 -0.1152 -0.1838 -0.1242
19092PP      PP29196   6.477  15.677   1.146  0.1258 -0.4412 -0.1287
19093PP      PP29197  12.527   0.198   9.940  0.3456  0.5614  0.1498
19094PP      PP29198  11.229   8.034  10.610 -0.1605 -0.3897  0.0428
19095PP      PP29199   5.056  13.229   4.005  0.1941  0.1638 -0.2955
19096PP      PP29200  15.557   0.592   0.578  0.0020 -0.0803 -0.1845
19097PP      PP29201   9.859  11.843  11.165 -0.0473 -0.2549  0.1240
19098PP      PP29202  14.095   2.757   3.249  0.2854 -0.0292  0.0314
19099PP      PP29203   1.240  15.178   1.691 -0.3027  0.0732  0.0069
19100PP      PP29204  12.585  15.429  12.147  0.3194  0.0663 -0.2356
19101PP      PP29205   0.556  11.779   2.217  0.0908 -0.1442  0.2053
19102PP      PP29206   4.878   2.410   1.838  0.0446  0.1077  0.0152
19103PP      PP29207   6.124   3.088   7.701 -0.1388  0.1881 -0.1563
19104PP      PP29208  11.564  10.274  10.736 -0.1585 -0.1502 -0.1674
19105PP      PP29209  11.889   7.340   1.848  0.3385  0.0336  0.0670
19106PP      PP29210   6.619  14.355   9.338  0.0424 -0.2617  0.0510
19107PP      PP29211   1.820  14.587   3.587 -0.0681  0.1122 -0.2048
19108PP      PP29212   5.995   2.956  11.067 -0.0116 -0.2073  0.0642
19109PP      PP29213  13.583   9.538   1.969  0.1586 -0.2706  0.0665
19110PP      PP29214  10.035  14.717  12.813 -0.0352 -0.1745 -0.0694
19111PP      PP29215   0.421   9.686   1.142 -0.2830  0.0783  0.4183
19112PP      PP29216   9.510   7.818   5.095  0.0642 -0.2092  0.1033
19113PP      PP29217   2.738   0.960   0.560  0.0407  0.2041  0.0226
19114PP      PP29218   7.893  11.966  11.673 -0.2320 -0.1981 -0.0372
19115PP      PP29219   2.418  11.216   2.627 -0.0151 -0.1067  0.0615
19116PP      PP29220   6.330   0.644  11.737  0.0579  0.0165 -0.0376
19117PP      PP29221   9.024   9.516   5.224 -0.2839 -0.1546  0.2727
19118PP      PP29222   2.897  12.367  13.441 -0.1568  0.1975 -0.0282
19119PP      PP29223  10.626   5.304   0.293  0.0694  0.2978  0.3947
19120PP      PP29224  14.196   2.902   1.574 -0.0908  0.2355 -0.1969
19121PP      PP29225  14.621   7.583   0.575  0.2371  0.1440 -0.0463
19122PP      PP29226   8.034  11.348   1.685  0.0667  0.1546 -0.1117
19123PP      PP29227   5.267   3.031   2.006 -0.4394 -0.0085 -0.1823
19124PP      PP29228   9.650   7.694  13.569 -0.1542  0.2765  0.3607
19125PP      PP29229  13.683   4.407  12.561 -0.1829 -0.0195 -0.1054
19126PP      PP29230   7.566   0.337  10.594  0.1293  0.1483  0.2486
19127PP      PP29231   2.061   4.980  13.372  0.3170  0.1576 -0.0520
19128PP      PP29232   8.035  14.149   4.932  0.1652 -0.0057 -0.1661
19129PP      PP29233  15.626   0.338   3.207 -0.0117 -0.0388  0.0464
19130PP      PP29234   2.339   2.736  10.752  0.0643  0.0472 -0.1030
19131PP      PP29235   9.331  13.289   0.869  0.0098 -0.2691  0.1957
19132PP      PP29236   6.120   7.368   1.293  0.2314 -0.0127  0.0299
19133PP      PP29237  14.686  13.470   9.092  0.3088 -0.1086  0.0682
19134PP      PP29238  12.070  14.680   3.685 -0.1467 -0.2134  0.0516
19135PP      PP29239   9.012   8.254   3.039 -0.1712  0.1674  0.0160
19136PP      PP29240   2.541   8.915   1.851 -0.0322  0.2585  0.0160
19137PP      PP29241   2.754   8.009   0.150 -0.2351 -0.1646 -0.2667
19138PP      PP29242   8.145   4.313  10.401 -0.4856 -0.1537  0.0058
19139PP      PP29243   3.245  11.023   3.156  0.3182  0.0204  0.0993
19140PP      PP29244   8.931  10.355  10.799  0.3144  0.1922  0.0264
19141PP      PP29245  10.626   6.051   2.186  0.4726  0.2283 -0.1269
19142PP      PP29246   8.230   8.025   2.437  0.2597  0.0057 -0.1301
19143PP      PP29247   8.407   6.447  10.390 -0.0737  0.3446 -0.3259
19144PP      PP29248  13.095  11.577  12.688 -0.4265  0.2099 -0.0220
19145PP      PP29249   2.098   1.297   2.007  0.0365 -0.2417 -0.0683
19146PP      PP29250   1.505  15.506   3.997  0.0664  0.1105 -0.0199
19147PP      PP29251  12.655   0.739   9.851  0.1653  0.0553  0.0713
19148PP      PP29252   2.454  15.649   2.848  0.1065  0.0246  0.2619
19149PP      PP29253   4.755   6.172  12.450  0.0821 -0.1814 -0.3596
19150PP      PP29254   0.620   4.995  12.774 -0.1394 -0.3482 -0.2435
19151PP      PP29255   0.726   3.014  11.537  0.0872  0.3444  0.0242
19152PP      PP29256   5.797   5.183   2.622  0.0960 -0.0945 -0.0693
19153PP      PP29257   6.867  15.550  10.904 -0.0861 -0.0939 -0.0201
19154PP      PP29258   1.687   0.306  10.274  0.1873  0.0350 -0.1587
19155PP      PP29259  13.712   7.953  13.303  0.0798  0.1235  0.0581
19156PP      PP29260   0.777   4.530  11.251 -0.2432 -0.1110  0.1772
19157PP      PP29261  12.131   5.692   3.015 -0.0750 -0.2752 -0.1457
19158PP      PP29262   9.633   1.491   4.546  0.0433 -0.0470 -0.1083
19159PP      PP29263   0.562   4.878   2.682 -0.0635  0.3255  0.0261
19160PP      PP29264  10.228   5.735   3.378  0.0281 -0.0188  0.0184
19161PP      PP29265   6.567   1.293   8.174 -0.0884 -0.1637 -0.2201
19162PP      PP29266   5.330  11.951  10.611 -0.1062  0.1749 -0.1087
19163PP      PP29267  14.215   5.284  11.137  0.0160  0.0695 -0.3427
19164PP      PP29268   9.319   1.931   8.618 -0.2728  0.0944  0.3227
19165PP      PP29269   6.920   8.549   3.258 -0.0168  0.1613  0.0471
19166PP      PP29270   8.899   3.707  10.297  0.2972 -0.0439 -0.1823
19167PP      PP29271   5.023   9.307  10.192  0.2181 -0.3278 -0.0449
19168PP      PP29272   4.819   8.812  11.584  0.2456  0.0515  0.0902
19169PP      PP29273   5.115   8.785   0.458  0.0862  0.1718 -0.1867
19170PP      PP29274   9.263   1.551  12.995 -0.3188 -0.2157 -0.0936
19171PP      PP29275   6.410   5.557   0.170  0.1210  0.0704 -0.1115
19172PP      PP29276   4.363  13.355   4.049 -0.1059  0.2607  0.0733
19173PP      PP29277   6.228   6.337   1.659 -0.1671  0.0293  0.1460
19174PP      PP29278  14.985  13.860   2.510 -0.2828  0.0269  0.0248
19175PP      PP29279   2.594   1.395   0.884 -0.1320  0.1207 -0.1656
19176PP      PP29280   2.192   5.851  10.556  0.2311  0.1193 -0.2952
19177PP      PP29281   8.833   0.892  11.540  0.0056 -0.2215 -0.1829
19178PP      PP29282  14.553   0.962  10.387 -0.2429  0.3183  0.0242
19179PP      PP29283   3.562   8.752   1.727 -0.1302 -0.0189  0.0339
19180PP      PP29284   8.238   6.458  11.836  0.2501  0.2087 -0.3972
19181PP      PP29285  13.189   9.344   5.434 -0.0595 -0.1300 -0.0716
19182PP      PP29286   7.418   6.478   1.578  0.1769  0.0483 -0.0650
19183PP      PP29287   7.656   5.723   8.851 -0.1320  0.2053  0.2108
19184PP      PP29288   5.004  11.375  11.943 -0.0922 -0.2487  0.1232
19185PP      PP29289   4.814   9.640   1.961 -0.0949 -0.2224  0.1710
19186PP      PP29290  12.371   9.859   5.130 -0.1816 -0.3076 -0.4358
19187PP      PP29291   6.758   1.850  10.998  0.3006  0.1436  0.0216
19188PP      PP29292   2.212   6.709   1.619  0.1258  0.0228 -0.1620
19189PP      PP29293   3.603   5.291   2.800 -0.0785  0.2299 -0.1893
19190PP      PP29294   8.843   8.830  11.429  0.1761 -0.1105  0.1172
19191PP      PP29295   1.946   1.428   9.838  0.0751  0.0515 -0.1036
19192PP      PP29296   0.846   7.328   1.826  0.2523  0.2085 -0.2294
19193PP      PP29297  14.419   7.354  12.095 -0.1994 -0.0193  0.0132
19194PP      PP29298   5.990   3.365   2.273  0.0229  0.2817  0.1136
19195PP      PP29299  15.370   5.098  13.120 -0.0987  0.1913  0.3034
19196PP      PP29300  10.741  12.897  12.580 -0.1639 -0.0274 -0.0658
19197PP      PP29301  13.732  12.957  12.130 -0.0547 -0.0082  0.1454
19198PP      PP29302   6.826   8.923   3.765  0.0862 -0.0088  0.4115
19199PP      PP29303  10.832  13.877   0.899 -0.1108 -0.4117 -0.2896
19200PP      PP29304   5.324   0.331   1.692  0.0093 -0.0227  0.1201
19201PP      PP29305   5.208   7.004  13.628 -0.0908  0.1531  0.0885
19202PP      PP29306   3.802   4.884   0.945 -0.0434 -0.1181  0.2154
19203PP      PP29307  15.568   5.875   1.796  0.2078 -0.0187 -0.0669
19204PP      PP29308   8.576   1.535   8.323  0.2550 -0.1315 -0.0220
19205PP      PP29309   4.222   1.424   1.510 -0.1526 -0.1083  0.1404
19206PP      PP29310   3.909   5.703  10.125  0.0713  0.4231  0.1057
19207PP      PP29311   1.457   0.432   1.783 -0.0470  0.1121  0.0272
19208PP      PP29312   9.071   0.821  13.561 -0.1384  0.0762 -0.0857
19209PP      PP29313  15.331  11.398  13.405  0.1047 -0.0485  0.0301
19210PP      PP29314   9.286   6.426   4.297  0.1610  0.2563  0.1846
19211PP      PP29315   4.432   0.021  10.333 -0.2022 -0.0776  0.1681
19212PP      PP29316  11.114   7.932   1.239  0.1963 -0.0596  0.2667
19213PP      PP29317  11.929   5.712   5.187  0.0049 -0.0541 -0.0852
19214PP      PP29318  15.328  11.795   0.061 -0.0808 -0.4246 -0.2109
19215PP      PP29319  12.696   7.750  10.742  0.2405  0.4345  0.0820
19216PP      PP29320   3.037  12.603  13.003 -0.0303 -0.1136 -0.0589
19217PP      PP29321   2.361  10.594   0.107 -0.0128 -0.3209 -0.3493
19218PP      PP29322  14.107  14.400   1.638  0.2247 -0.1922 -0.2667
19219PP      PP29323  11.181   7.163   0.998  0.2101  0.1077 -0.2877
19220PP      PP29324   2.472   9.695  10.808  0.0563  0.1628 -0.0552
19221PP      PP29325  11.280   7.112  10.868 -0.0302  0.0878  0.0158
19222PP      PP29326   9.828  12.022   5.406  0.1739 -0.4576 -0.0150
19223PP      PP29327   8.322   3.877   0.118  0.0661 -0.3224 -0.0722
19224PP      PP29328   9.405   4.180   8.035  0.0298 -0.2393  0.0235
19225PP      PP29329  11.335  11.529  12.742 -0.3872 -0.0671  0.1530
19226PP      PP29330   6.748   7.951   0.788  0.0302 -0.2469  0.1407
19227PP      PP29331  15.272   9.779   3.780  0.3411  0.0669  0.0043
19228PP      PP29332   1.717   6.029   9.376 -0.0452  0.0008  0.2906
19229PP      PP29333  13.261  12.912   4.577  0.0550 -0.0884  0.0978
19230PP      PP29334   4.296   2.914   9.764  0.1350 -0.1278  0.0461
19231PP      PP29335   0.090   8.771  12.761  0.3769  0.2454  0.2640
19232PP      PP29336   6.931   0.147   0.302 -0.0920 -0.3634 -0.0678
19233PP      PP29337  12.064   4.629   0.911 -0.2734  0.3469  0.2959
19234PP      PP29338   9.322   3.394   0.145 -0.2096 -0.2557  0.0864
19235PP      PP29339   3.572  14.454  11.909 -0.0092  0.1776  0.0754
19236PP      PP29340   5.292  15.522   2.711  0.2890 -0.0462  0.0122
19237PP      PP29341   4.088  11.087  10.312 -0.0267  0.1465 -0.2071
19238PP      PP29342  11.837  12.188   0.194 -0.0530  0.1032  0.1701
19239PP      PP29343  13.317  11.364   2.779  0.1120  0.1604 -0.1561
19240PP      PP29344   1.469   5.157   2.141  0.0924  0.1132 -0.2142
19241PP      PP29345   9.984   5.831  11.609 -0.0620 -0.1038  0.1454
19242PP      PP29346  14.986   5.384  12.913 -0.4084 -0.2261  0.1713
19243PP      PP29347   9.968   9.836  10.644  0.2344  0.0670  0.1113
19244PP      PP29348   6.332  13.122   0.201 -0.1491  0.1391 -0.2918
19245PP      PP29349   5.051   1.291   1.354  0.2290  0.2203 -0.0194
19246PP      PP29350   5.170   2.244   9.372  0.0808  0.1212 -0.1827
19247PP      PP29351  11.820  10.788  12.768 -0.1378  0.0711  0.0706
19248PP      PP29352   6.319   4.608  12.173  0.2018  0.2275  0.4703
19249PP      PP29353   4.866   9.934  10.673  0.2162 -0.2410 -0.1116
19250PP      PP29354   6.324  11.761   9.443 -0.1146  0.0470 -0.1959
19251PP      PP29355  10.058  15.335   4.600  0.1555 -0.2313  0.0092
19252PP      PP29356  13.644   8.738  12.805  0.0281  0.1175 -0.0957
19253PP      PP29357   3.075   4.174  11.016  0.2137  0.0960  0.0993
19254PP      PP29358   2.205   9.898   4.631 -0.1713 -0.0812 -0.2515
19255PP      PP29359   4.746   8.287  12.315 -0.2572 -0.1502  0.0518
19256PP      PP29360   4.221   5.881   0.116  0.1397 -0.0960 -0.0859
19257PP      PP29361  13.823   1.922   9.254  0.2673 -0.1319  0.1631
19258PP      PP29362  14.799   8.756  11.883 -0.3281 -0.2526  0.0826
19259PP      PP29363   1.334  13.912   0.942 -0.0010 -0.0633  0.1072
19260PP      PP29364   4.705   2.579  11.114  0.2170  0.1691 -0.2546
19261PP      PP29365   6.519   1.425  11.325  0.1691  0.1158  0.0014
19262PP      PP29366   8.550   5.454   0.636 -0.3385 -0.1417  0.1311
19263PP      PP29367   7.162  11.316  13.405  0.0440 -0.3055 -0.0373
19264PP      PP29368   0.992  14.406   9.525  0.1763  0.3163 -0.0404
19265PP      PP29369  14.398   6.077   4.785  0.0968 -0.0185  0.0465
19266PP      PP29370   1.156   6.170  12.796 -0.3352 -0.0800 -0.0369
19267PP      PP29371   1.053   4.356  13.328 -0.0560 -0.3959  0.3316
19268PP      PP29372  13.643  12.758  13.205  0.1053 -0.3230  0.1515
19269PP      PP29373  12.215   5.681  13.617 -0.2581 -0.1234 -0.2947
19270PP      PP29374   3.537   2.650  10.869 -0.1569 -0.1367 -0.2241
19271PP      PP29375  13.219  11.358  11.486  0.1579 -0.0107  0.1214
19272PP      PP29376  15.545   0.990  13.083  0.1158 -0.0424  0.0839
19273PP      PP29377   0.028   4.511  11.611 -0.1978 -0.2236 -0.0013
19274PP      PP29378   1.682  11.162   0.299  0.2085  0.2913 -0.0779
19275PP      PP29379   1.144   4.900  13.715  0.1382 -0.1266 -0.2785
19276PP      PP29380   3.532   4.115   3.625 -0.1034 -0.0878  0.0255
19277PP      PP29381   1.323  12.348  11.442 -0.2111 -0.1571  0.0586
19278PP      PP29382   5.310   2.752  12.458 -0.0677 -0.4132  0.2877
19279PP      PP29383   7.090   0.662   1.705 -0.3499  0.0418 -0.0753
19280PP      PP29384   0.787   5.957   0.781 -0.0164 -0.1496  0.1449
19281PP      PP29385   9.073   3.119   9.069  0.4855  0.0960  0.2104
19282PP      PP29386  11.358   5.460   9.516 -0.1495 -0.0047  0.0223
19283PP      PP29387  13.316   0.337  10.606  0.1048 -0.0822 -0.0669
19284PP      PP29388  10.359   6.600  13.345  0.1005 -0.0977  0.1968
19285PP      PP29389  14.679  12.418   0.241  0.3411  0.0893 -0.1636
19286PP      PP29390   7.196  11.675   9.964 -0.2592  0.2923  0.0298
19287PP      PP29391  11.079  12.953  13.491  0.2448  0.1385  0.0538
19288PP      PP29392   1.148   8.179   9.458 -0.0500  0.1467  0.2621
19289PP      PP29393  11.462   5.916   2.548 -0.0340 -0.0490 -0.0156
19290PP      PP29394   6.334  15.417   8.673  0.0016 -0.1686 -0.2700
19291PP      PP29395  11.062   9.813   9.903 -0.1182 -0.0558  0.0715
19292PP      PP29396   5.023  13.954  12.344  0.3847  0.0611 -0.3036
19293PP      PP29397   2.607  13.349   0.795 -0.0060 -0.1887  0.1160
19294PP      PP29398  12.178   1.863   1.078 -0.2238 -0.0633  0.0585
19295PP      PP29399   6.076  13.274   2.789 -0.0342  0.1721 -0.3594
19296PP      PP29400  11.467  14.299   3.259 -0.1839  0.2332 -0.1769
19297PP      PP29401   2.670  14.088  12.241  0.1226  0.0555 -0.1547
19298PP      PP29402  12.885  14.797   3.112  0.0446  0.2968 -0.1730
19299PP      PP29403  13.018  13.400   3.235 -0.0113 -0.1780 -0.0959
19300PP      PP29404   2.335  13.643   8.892  0.3819 -0.1728  0.0362
19301PP      PP29405   3.071   1.507   0.751 -0.1105  0.1609  0.3039
19302PP      PP29406   4.672  13.571   1.367 -0.4030 -0.0241  0.3987
19303PP      PP29407  11.831   4.890  11.395 -0.0828 -0.0853 -0.2793
19304PP      PP29408  10.977   6.169   1.198  0.4822 -0.1832 -0.0044
19305PP      PP29409   0.209   9.126   1.391 -0.0538 -0.0307 -0.1789
19306PP      PP29410  12.327  13.978  11.416 -0.2715  0.3630 -0.0647
19307PP      PP29411   7.610  12.301   4.629 -0.0371 -0.2217  0.0655
19308PP      PP29412   0.815   8.586   4.544 -0.3226  0.1566 -0.2123
19309PP      PP29413  11.552  12.902  10.919 -0.0427  0.0876 -0.0530
19310PP      PP29414   2.844   3.372   7.888  0.1347 -0.0008 -0.0445
19311PP      PP29415   0.710   6.829   3.852  0.0100  0.2134  0.3673
19312PP      PP29416   3.923  13.879   3.429  0.0228  0.1506  0.0393
19313PP      PP29417  14.175   4.460   5.304  0.2158 -0.0249 -0.0702
19314PP      PP29418  10.654   1.292  12.130 -0.0962  0.1599 -0.3803
19315PP      PP29419   3.611   5.263   9.981 -0.2827 -0.0969 -0.3404
19316PP      PP29420   1.746   7.531   2.868  0.1146 -0.1424  0.0678
19317PP      PP29421   9.566  10.890   9.895  0.2314  0.2254  0.0842
19318PP      PP29422   4.985  15.247   2.146  0.0424 -0.0481 -0.1010
19319PP      PP29423   4.310   8.720  10.950 -0.3861 -0.1496  0.2115
19320PP      PP29424   1.957  11.875   0.663  0.5954  0.1558  0.3164
19321PP      PP29425   7.644  12.278  11.288  0.1827  0.3723 -0.1120
19322PP      PP29426   9.508   5.094   3.984  0.4465 -0.2422  0.2596
19323PP      PP29427   5.198   6.915   9.988  0.1681  0.0618  0.0229
19324PP      PP29428   7.858   8.952   3.875 -0.0094  0.1808 -0.3268
19325PP      PP29429  10.551  13.283   2.190  0.0454 -0.0041 -0.1619
19326PP      PP29430   9.221  14.364  12.880 -0.0105 -0.0802 -0.0873
19327PP      PP29431  13.342   2.464  12.403 -0.1916 -0.0528  0.4813
19328PP      PP29432   1.262   2.570   2.388  0.1585 -0.1679 -0.0461
19329PP      PP29433   3.693   6.216  10.999 -0.0476  0.0593  0.0940
19330PP      PP29434   4.715   8.538   8.235 -0.1617 -0.0603 -0.0497
19331PP      PP29435  13.654  10.285  12.093  0.3314  0.1040 -0.0492
19332PP      PP29436   1.174  14.750  10.124 -0.1403  0.2874  0.0183
19333PP      PP29437  10.744  14.611  13.525 -0.0355  0.0786 -0.0654
19334PP      PP29438   5.846   0.285  11.866 -0.0660  0.0646 -0.3688
19335PP      PP29439  12.420   1.745   2.429 -0.0854 -0.0564  0.1755
19336PP      PP29440   3.173   2.747   8.618  0.0927  0.0620 -0.2228
19337PP      PP29441  13.165  12.010   4.970 -0.1619 -0.1510  0.1716
19338PP      PP29442   4.030  14.516   1.229 -0.1687  0.0197 -0.1557
19339PP      PP29443  10.415   1.285  10.434  0.0371  0.1692 -0.1303
19340PP      PP29444   9.234  10.095  11.177 -0.0150  0.1159 -0.0948
19341PP      PP29445  12.096   7.956  10.903  0.1679 -0.0279  0.1613
19342PP      PP29446   2.100  14.003   4.211 -0.0060 -0.0192 -0.0648
19343PP      PP29447  12.141   8.592   0.302  0.2688 -0.0158 -0.0147
19344PP      PP29448   1.188   5.901   0.433  0.0648 -0.2211  0.1256
19345PP      PP29449  15.157   6.650  12.306 -0.3751 -0.0671 -0.1197
19346PP      PP29450  15.483   1.130  13.751 -0.0940  0.0328 -0.2649
19347PP      PP29451   1.756   2.576   1.167  0.1295 -0.0028 -0.1492
19348PP      PP29452  10.904  10.555   0.608  0.1467  0.0715  0.0693
19349PP      PP29453   2.037  13.106  10.630  0.4732  0.1407 -0.1401
19350PP      PP29454  14.699  12.018  13.760  0.2267  0.2191 -0.1824
19351PP      PP29455  15.597  15.316  10.283 -0.1210 -0.2175  0.3425
19352PP      PP29456  11.625  13.356  10.632  0.1124 -0.2569 -0.3084
19353PP      PP29457   4.482   1.450   0.456  0.1290  0.1042 -0.0010
19354PP      PP29458  14.338   4.251   0.605  0.1453  0.1582  0.0205
19355PP      PP29459   4.259   8.214   9.376  0.0920  0.2315 -0.2666
19356PP      PP29460   1.156   8.000   4.387 -0.2526  0.0393  0.0102
19357PP      PP29461  14.020   2.190   4.660 -0.0550 -0.1034 -0.3491
19358PP      PP29462   8.503   7.325   0.753  0.1268  0.0335  0.0222
19359PP      PP29463   3.272  14.026   9.659  0.0750 -0.2277 -0.1184
19360PP      PP29464   1.218   8.911   1.536  0.1852  0.2352 -0.2628
19361PP      PP29465  15.216   9.523  11.967 -0.2532  0.0665  0.0590
19362PP      PP29466   2.404   4.868   2.222 -0.1171  0.0078 -0.0202
19363PP      PP29467   7.106   2.689   7.544 -0.0154 -0.1349  0.2584
19364PP      PP29468   8.986   4.824   1.679  0.1234 -0.2620  0.0733
19365PP      PP29469   0.632  11.662  12.196 -0.0393 -0.0004 -0.1008
19366PP      PP29470   7.781   3.799   2.821 -0.1875 -0.2223 -0.2468
19367PP      PP29471   1.697   4.935   3.713  0.2331  0.3208 -0.3053
19368PP      PP29472  15.361  11.982   2.851  0.1609 -0.0570 -0.1571
19369PP      PP29473   2.376  14.210   4.556 -0.1350 -0.0754 -0.0290
19370PP      PP29474  14.436  10.190  11.457 -0.1819  0.0537 -0.1620
19371PP      PP29475   7.873   0.416   1.748 -0.2114 -0.2760  0.1842
19372PP      PP29476   1.230  11.888   9.583 -0.1059 -0.0854  0.1150
19373PP      PP29477  12.161  11.151  12.497  0.0563  0.1426 -0.0806
19374PP      PP29478   0.508  12.473   9.576 -0.3143  0.0570 -0.1078
19375PP      PP29479   5.405  11.815   1.640 -0.1064 -0.0933  0.0905
19376PP      PP29480   6.751  12.149   3.057  0.0005 -0.0737 -0.1346
19377PP      PP29481   2.862   8.126  12.429  0.1129  0.0769  0.1889
19378PP      PP29482   8.350   2.440   8.499 -0.0067 -0.0150  0.0973
19379PP      PP29483   7.856  10.239   2.717  0.2434  0.0348 -0.0745
19380PP      PP29484   5.771   5.942   9.526 -0.0726  0.1532  0.1716
19381PP      PP29485  14.823   3.705   3.443  0.0995  0.0641 -0.1530
19382PP      PP29486  12.942   8.649   5.014  0.1353  0.2065 -0.2177
19383PP      PP29487   6.802  15.264   1.395 -0.1800 -0.4034 -0.1632
19384PP      PP29488   5.653  13.350  13.668  0.0997  0.0532 -0.2811
19385PP      PP29489   4.046   5.591  10.884  0.0778 -0.2700  0.0896
19386PP      PP29490   4.259   7.578   1.472  0.0152  0.1257  0.1469
19387PP      PP29491   6.686   2.393   9.682 -0.0110 -0.3867  0.0482
19388PP      PP29492   0.269   4.969   0.121  0.3175 -0.4164  0.0075
19389PP      PP29493  11.744   5.529   2.717  0.4035 -0.1989  0.1211
19390PP      PP29494  14.328  10.375   0.406 -0.0595 -0.2337 -0.0474
19391PP      PP29495   8.520   4.126   7.454 -0.2139 -0.4038 -0.0537
19392PP      PP29496   0.689   5.101   0.428 -0.2966 -0.1556 -0.0401
19393PP      PP29497   5.265   0.436  12.643  0.3065 -0.0701 -0.0096
19394PP      PP29498  14.931   0.631   3.712 -0.0705  0.1254  0.1964
19395PP      PP29499   8.871   4.380   1.556  0.1214 -0.1065 -0.0929
19396PP      PP29500   5.782   9.965  13.437  0.2234  0.1325  0.2965
19397PP      PP29501   2.786  14.117  12.915  0.3246  0.6728  0.2515
19398PP      PP29502   6.406  10.417  10.695  0.0695  0.0406 -0.6598
19399PP      PP29503   7.717  12.308  10.740  0.2231  0.0397 -0.3085
19400PP      PP29504   6.964   8.388  10.492  0.3761  0.2255  0.0903
19401PP      PP29505   3.923  14.200   9.932  0.1572  0.2527 -0.1413
19402PP      PP29506  13.516   9.792   4.321 -0.0346  0.2230  0.0547
19403PP      PP29507   4.842   2.993  12.095  0.1202  0.3148  0.2638
19404PP      PP29508   8.797  15.710   2.763 -0.2411  0.1387 -0.1552
19405PP      PP29509   4.937   0.507  11.738  0.0075  0.1386 -0.1083
19406PP      PP29510   5.975  10.640   2.603 -0.2780 -0.0841  0.0182
19407PP      PP29511   7.033  12.619   0.396 -0.2904  0.1312 -0.0578
19408PP      PP29512   5.481  11.540   3.137  0.0772  0.0332  0.0247
19409PP      PP29513   9.792   2.463  11.076 -0.0036  0.0759  0.0857
19410PP      PP29514   7.233   7.005   0.898  0.3303 -0.1809 -0.3458
19411PP      PP29515  11.721   8.264  12.031  0.0712 -0.1956 -0.1132
19412PP      PP29516  13.125  11.724  12.159 -0.1836  0.1894  0.1841
19413PP      PP29517   3.467   9.017   0.676 -0.3279  0.2816 -0.0972
19414PP      PP29518   2.228   8.984   4.771  0.0100 -0.1244 -0.2453
19415PP      PP29519   0.247  11.235   3.780  0.0919  0.2869 -0.0546
19416PP      PP29520  15.114   2.405   1.408 -0.5187  0.1109 -0.1417
19417PP      PP29521   7.619  13.474  10.119 -0.1398  0.1233  0.0035
19418PP      PP29522   3.663   8.231   4.432 -0.1973 -0.0978  0.4076
19419PP      PP29523   1.651   9.622  11.813  0.0667  0.0079 -0.2089
19420PP      PP29524  15.656   0.160   9.108 -0.2863 -0.0963 -0.1855
19421PP      PP29525   0.846   9.846  10.355 -0.2325 -0.1848 -0.1618
19422PP      PP29526   0.872   8.100  13.764  0.0047 -0.0367  0.1583
19423PP      PP29527  15.659  14.296  12.624  0.0883  0.2043  0.3227
19424PP      PP29528  14.017   7.210   1.304 -0.2167 -0.0946 -0.2640
19425PP      PP29529  12.821   1.472   1.842  0.0628  0.1277 -0.0569
19426PP      PP29530  14.556  12.864  12.932 -0.1799  0.0974  0.2256
19427PP      PP29531  14.908   9.308   3.982 -0.0911 -0.1686 -0.0602
19428PP      PP29532  14.149   7.671  10.492  0.1262 -0.0429  0.0589
19429PP      PP29533   3.523   1.575   9.867  0.3901 -0.1014  0.1398
19430PP      PP29534   3.004  15.127  12.953 -0.3397  0.2615 -0.0782
19431PP      PP29535   0.078   7.876   4.400  0.0966 -0.0697 -0.0640
19432PP      PP29536  10.283   0.674   0.516  0.0297  0.2924  0.2692
19433PP      PP29537   6.361  10.353   1.534  0.0619  0.2374  0.2972
19434PP      PP29538  13.838   7.913   2.464  0.1870  0.2604  0.0546
19435PP      PP29539   6.803   5.904   0.511  0.0106  0.3788 -0.1024
19436PP      PP29540   8.734   1.684  11.690  0.0220 -0.1994 -0.2267
19437PP      PP29541   7.454   6.567  11.693  0.0922 -0.1226  0.0640
19438PP      PP29542   2.617  14.535   8.519 -0.0565 -0.1675  0.1257
19439PP      PP29543   4.465   9.650  12.398  0.3054  0.3533  0.2450
19440PP      PP29544  11.482  13.891  10.679 -0.1822  0.1416  0.0784
19441PP      PP29545  13.662  14.859   4.454  0.0298 -0.0636 -0.2659
19442PP      PP29546   2.186  12.853   1.600  0.4290  0.1618  0.0685
19443PP      PP29547   1.742   8.955   2.903 -0.1787 -0.1973  0.0510
19444PP      PP29548   6.563   6.478   1.224  0.0969 -0.0462 -0.1444
19445PP      PP29549  11.769   8.183   5.009  0.1135 -0.2787 -0.3258
19446PP      PP29550   9.436  10.556  10.810 -0.1134 -0.0516  0.0219
19447PP      PP29551  13.236   4.134   1.955 -0.1952 -0.0734  0.1775
19448PP      PP29552   5.684   8.207  12.924  0.0614  0.3212  0.2099
19449PP      PP29553   8.616  10.753  12.483  0.0391 -0.2117  0.0216
19450PP      PP29554   1.283   2.700  13.100 -0.0203  0.1591 -0.1394
19451PP      PP29555   0.802  15.094   4.358  0.2406 -0.1163  0.0045
19452PP      PP29556  11.999   5.157  13.572 -0.0902  0.3779 -0.1959
19453PP      PP29557   1.786   0.622   3.577  0.2435  0.1262 -0.0577
19454PP      PP29558   3.855  13.213   2.644  0.2081  0.0691  0.1632
19455PP      PP29559  10.953   3.525   3.397  0.1457 -0.0622 -0.2543
19456PP      PP29560  11.920   1.648  13.092 -0.2109  0.0563  0.0756
19457PP      PP29561   5.775   7.788   3.145 -0.1302  0.3059 -0.1097
19458PP      PP29562  10.358   6.093   3.701  0.1227 -0.1291  0.1921
19459PP      PP29563   1.531   1.348   0.722  0.0753 -0.0517  0.2620
19460PP      PP29564  13.095   2.486   9.258 -0.0914  0.0217  0.0809
19461PP      PP29565   0.822  14.640   1.405  0.2597 -0.1670  0.0427
19462PP      PP29566   5.194   8.756   1.947 -0.3923 -0.2139 -0.1623
19463PP      PP29567  10.413  10.699   4.109  0.1878 -0.0045 -0.2626
19464PP      PP29568  11.275  13.332   3.287  0.0618  0.1690 -0.1549
19465PP      PP29569  10.803   6.329   5.449  0.0043 -0.2876 -0.1942
19466PP      PP29570   1.204   8.820   4.206 -0.0051 -0.1793  0.0745
19467PP      PP29571  13.494   6.319  13.539  0.1500  0.1115 -0.0439
19468PP      PP29572   7.108   1.962   9.086 -0.1488 -0.0773 -0.1856
19469PP      PP29573   5.846  13.547  12.621  0.1291 -0.0999  0.4134
19470PP      PP29574  14.030   9.274  12.046  0.4519 -0.0626 -0.1140
19471PP      PP29575  11.231  13.796   3.046  0.0242  0.2522  0.1664
19472PP      PP29576   4.460   4.314  12.783  0.2581 -0.0739  0.3634
19473PP      PP29577  11.517  15.075   0.783  0.0194 -0.0534 -0.1980
19474PP      PP29578   9.875   2.625   1.716 -0.1865  0.2403 -0.1240
19475PP      PP29579   3.395   0.632   3.452  0.0622 -0.1271  0.0087
19476PP      PP29580   6.579   2.654   1.615 -0.0624  0.3234  0.0920
19477PP      PP29581   1.438   0.693  12.141 -0.0390 -0.2749 -0.6542
19478PP      PP29582   8.126  13.307   9.465 -0.0269  0.0296 -0.1719
19479PP      PP29583   8.391   9.437   1.156 -0.3074  0.1165 -0.1985
19480PP      PP29584  12.329   7.824  12.151  0.1263  0.1083 -0.2471
19481PP      PP29585  14.219  14.916   8.286 -0.4009 -0.1360  0.0944
19482PP      PP29586  13.718   2.484  11.414  0.0251 -0.0048  0.1896
19483PP      PP29587   3.023  10.849   2.599 -0.2945  0.1553  0.1080
19484PP      PP29588   2.211   9.405  12.808 -0.3803  0.1474  0.1112
19485PP      PP29589   0.042  15.180   4.348  0.0856  0.2427  0.2299
19486PP      PP29590   8.489  11.240  11.902  0.0499 -0.2986 -0.0753
19487PP      PP29591  12.623   3.998   3.373 -0.0399 -0.1204  0.1885
19488PP      PP29592   1.881   9.421  12.431 -0.0719  0.0115  0.1482
19489PP      PP29593   1.607  12.206   9.848 -0.1920 -0.1517  0.0917
19490PP      PP29594   3.094  10.090  10.209 -0.3003  0.0996 -0.2170
19491PP      PP29595   8.338  11.053   1.046  0.1730 -0.0289 -0.0661
19492PP      PP29596   7.988   9.690   2.053 -0.0575 -0.1013 -0.4227
19493PP      PP29597  14.702  10.909   9.962 -0.1663 -0.0109  0.3328
19494PP      PP29598  11.479  12.047   5.058 -0.0060  0.0959  0.0272
19495PP      PP29599  11.663  10.844   2.891 -0.2521 -0.2590  0.0550
19496PP      PP29600   2.639  12.470  12.677  0.4023 -0.0939 -0.0658
19497PP      PP29601  13.750  15.054   2.357 -0.0324  0.2843  0.0655
19498PP      PP29602   6.046  11.517   4.785  0.0659 -0.0340  0.0864
19499PP      PP29603   3.568  13.932   4.802  0.0092  0.0403  0.0680
19500PP      PP29604   1.496   4.529   1.642 -0.2108 -0.0124  0.1786
19501PP      PP29605   0.284  12.908  10.893  0.3980  0.1462 -0.1545
19502PP      PP29606   0.120   4.062   3.911  0.0111 -0.4073 -0.3794
19503PP      PP29607   2.978   8.406   8.563 -0.0392 -0.1817  0.0940
19504PP      PP29608   9.252   7.047   2.471  0.1854 -0.0955 -0.0990
19505PP      PP29609  14.503   2.784   3.943  0.1303 -0.0415 -0.0904
19506PP      PP29610  13.942  13.093  13.543  0.1588 -0.1071 -0.1642
19507PP      PP29611   3.751  13.892  11.808  0.0141 -0.2895  0.0821
19508PP      PP29612   2.004   9.799   9.399 -0.0589 -0.0278 -0.1422
19509PP      PP29613  12.174   7.136   3.334  0.1618 -0.0246 -0.1241
19510PP      PP29614   2.639   9.367  11.144  0.2436 -0.1259  0.1866
19511PP      PP29615  14.047   4.455   3.801 -0.0720 -0.1644  0.3708
19512PP      PP29616   0.414   4.047   9.831  0.0308  0.0087 -0.1311
19513PP      PP29617  11.335   9.574   1.925  0.4126 -0.1248 -0.2620
19514PP      PP29618   0.800  14.187   3.865  0.1179 -0.0170 -0.0488
19515PP      PP29619  11.599   0.672   1.428  0.1695  0.0226 -0.0409
19516PP      PP29620   2.838   8.303   2.029  0.0516  0.0503  0.5857
19517PP      PP29621   8.307   8.443   0.636 -0.0124 -0.2625 -0.0999
19518PP      PP29622   0.487  13.614   9.051 -0.1788  0.0676 -0.0961
19519PP      PP29623  12.893  15.545   1.983 -0.0879 -0.1351 -0.0472
19520PP      PP29624   0.212   5.189   1.042  0.1863  0.3668 -0.2267
19521PP      PP29625   7.837  12.824   2.053 -0.0656 -0.0032  0.3654
19522PP      PP29626   7.147   5.900   0.185 -0.1254  0.2797  0.1304
19523PP      PP29627   1.077   2.574  11.889  0.1297  0.0969  0.2689
19524PP      PP29628   4.030   1.226   8.361 -0.0316 -0.0656  0.1583
19525PP      PP29629  14.602  10.075  10.696  0.1180 -0.3481  0.1564
19526PP      PP29630   2.497   8.753   0.455 -0.2439  0.2559  0.3265
19527PP      PP29631   2.661   5.414   2.997  0.2227  0.6458  0.6254
19528PP      PP29632  10.326   3.027  10.850 -0.0871 -0.1392 -0.1761
19529PP      PP29633   3.479  14.295  12.374  0.0615 -0.2572 -0.1464
19530PP      PP29634   6.651   4.791  10.924  0.0012  0.1844  0.2894
19531PP      PP29635   3.021   8.195  10.449  0.0176 -0.1875 -0.1011
19532PP      PP29636  14.563   5.790   4.365 -0.1591  0.2373 -0.5535
19533PP      PP29637   5.203  14.112  11.432 -0.0448 -0.2991 -0.0824
19534PP      PP29638   7.796   8.886  13.573 -0.2755 -0.0024 -0.0067
19535PP      PP29639   3.000   5.810   3.150 -0.0399  0.1482  0.1338
19536PP      PP29640  14.738  12.839  10.338  0.1049 -0.0027  0.0332
19537PP      PP29641  15.696   3.819  11.580 -0.1051  0.3555 -0.0892
19538PP      PP29642   3.990  10.862   2.702  0.2149 -0.0070 -0.3087
19539PP      PP29643   8.171   8.693  12.300  0.2693 -0.2309  0.0945
19540PP      PP29644   6.962  14.860  12.266  0.1424 -0.1609 -0.3613
19541PP      PP29645  13.396   2.105   9.499  0.1657 -0.2765 -0.0025
19542PP      PP29646   6.707  13.520   1.678  0.2149  0.0920  0.0364
19543PP      PP29647   0.323   0.231  13.199 -0.0059  0.1445  0.0435
19544PP      PP29648  13.024   5.960   1.889 -0.1391  0.0294  0.3205
19545PP      PP29649  13.324   3.821   4.220  0.5980  0.4125 -0.0873
19546PP      PP29650   0.574  13.336  10.977  0.0480  0.2966  0.2219
19547PP      PP29651  11.624   9.083   4.126 -0.1889 -0.3509 -0.0734
19548PP      PP29652  12.428  13.838   9.443  0.0654 -0.1236  0.0834
19549PP      PP29653   4.813  14.893   3.848  0.2548 -0.0814  0.1089
19550PP      PP29654   0.617   2.764  13.223  0.2312  0.3581 -0.2438
19551PP      PP29655   8.535  15.186   2.858 -0.3157  0.1077 -0.1921
19552PP      PP29656   7.328   1.549   2.445  0.2176  0.0054  0.1724
19553PP      PP29657   9.026   5.004  11.990 -0.0599 -0.0860 -0.3151
19554PP      PP29658  10.743   0.775   0.754  0.6222  0.2538  0.1401
19555PP      PP29659   2.911   0.674   8.410 -0.2417 -0.0033  0.0586
19556PP      PP29660   4.541   6.224   1.280  0.0754 -0.1242 -0.1005
19557PP      PP29661   8.312   8.686  12.750  0.1267 -0.0119 -0.1541
19558PP      PP29662  15.696  14.563   1.765  0.2141  0.3701  0.2325
19559PP      PP29663   8.107   1.257   2.926 -0.0165 -0.2518 -0.0534
19560PP      PP29664  12.262  13.635   1.613  0.0442 -0.2530 -0.0143
19561PP      PP29665   2.500   7.583  11.004 -0.1279 -0.2324 -0.3056
19562PP      PP29666   4.901  12.074  13.022 -0.1565 -0.2901  0.0582
19563PP      PP29667   4.550   2.214  11.516 -0.0546 -0.2646  0.1373
19564PP      PP29668   4.582   8.524   0.641  0.0205 -0.1473  0.2022
19565PP      PP29669   9.117  14.892  12.807  0.3132 -0.0610  0.1392
19566PP      PP29670   6.596  12.330  11.711  0.2329  0.0953  0.2957
19567PP      PP29671   0.207  11.278   4.268  0.1904  0.2576  0.0586
19568PP      PP29672   8.000  10.627   0.607 -0.2260  0.3642 -0.2230
19569PP      PP29673   8.153   9.549   4.900 -0.3848  0.2233 -0.2242
19570PP      PP29674   2.361  10.913  13.216  0.2116 -0.3941 -0.2028
19571PP      PP29675   7.536   6.121   8.105 -0.1482 -0.2135 -0.0612
19572PP      PP29676   6.391  15.495   2.194 -0.0481 -0.1385 -0.2040
19573PP      PP29677   8.704   1.695   3.579 -0.3644  0.0296 -0.1805
19574PP      PP29678  10.381   4.453  11.818  0.0208 -0.2575 -0.2773
19575PP      PP29679   8.594   3.269   9.000 -0.2330 -0.1995 -0.2038
19576PP      PP29680   3.479  11.907  11.919  0.0836 -0.3751  0.2696
19577PP      PP29681   5.148  15.252   0.013 -0.2901  0.0342 -0.2724
19578PP      PP29682   9.437   6.194   0.660  0.0434  0.1613  0.1280
19579PP      PP29683  14.425   1.598   1.434  0.3247 -0.0149  0.0030
19580PP      PP29684  13.700   7.294   4.183 -0.1540 -0.3019  0.1366
19581PP      PP29685   8.428  12.329   5.111 -0.0250  0.3347 -0.4037
19582PP      PP29686   9.434  13.548  13.456 -0.0616 -0.0230  0.0067
19583PP      PP29687   7.664   9.523  11.614 -0.0076 -0.2916 -0.0249
19584PP      PP29688   5.338   5.228   8.599 -0.1493  0.1099 -0.1526
19585PP      PP29689   5.883   5.498   8.066 -0.0455  0.1114 -0.0994
19586PP      PP29690  15.659   6.075   9.345  0.2343  0.4539  0.1413
19587PP      PP29691  14.056  11.175  13.109  0.1749  0.0138  0.0394
19588PP      PP29692   8.537  10.612   3.393 -0.1117  0.0608 -0.0197
19589PP      PP29693   4.591  14.091   0.126  0.0953 -0.3339  0.1914
19590PP      PP29694  14.017   5.531   3.237  0.1910 -0.0511  0.0953
19591PP      PP29695   5.565   5.058  12.571  0.0211 -0.1038  0.0622
19592PP      PP29696   5.272   9.234   0.460 -0.0911 -0.1513  0.1384
19593PP      PP29697  14.252  10.507  13.624  0.0025 -0.2865  0.0241
19594PP      PP29698  12.160   5.969   4.241 -0.2111  0.3229 -0.1421
19595PP      PP29699   0.925  10.283  11.598 -0.3607 -0.5968  0.0867
19596PP      PP29700  10.757   9.096  12.871 -0.0764 -0.0127  0.1251
19597PP      PP29701  14.803   5.346   1.322 -0.0594 -0.1957  0.2883
19598PP      PP29702   5.186  12.063   9.558  0.0587 -0.0139 -0.1296
19599PP      PP29703   2.920   2.152  13.226 -0.4664 -0.1856 -0.0580
19600PP      PP29704   8.305   3.967  11.646 -0.0936 -0.3058 -0.0087
19601PP      PP29705   4.981  10.920  10.553  0.0466 -0.0921  0.2629
19602PP      PP29706  15.225   3.297   0.996  0.1696 -0.0971  0.0351
19603PP      PP29707   6.154   5.246   2.064 -0.1781 -0.3207 -0.0919
19604PP      PP29708   0.295  13.962   3.833 -0.1273 -0.2054  0.0255
19605PP      PP29709   8.087  11.206  12.258 -0.0968 -0.2482  0.0117
19606PP      PP29710   7.737   0.891   9.786 -0.0979  0.3266  0.1433
19607PP      PP29711   2.782   5.998  11.790  0.1503 -0.2215 -0.0314
19608PP      PP29712   3.869   4.318   9.723  0.0473 -0.4230  0.0582
19609PP      PP29713   5.429   2.531   8.961 -0.1463 -0.3260 -0.4470
19610PP      PP29714  14.056   1.632   9.954  0.0122 -0.0036 -0.2261
19611PP      PP29715  12.366   5.432   1.278 -0.3627  0.2385 -0.1866
19612PP      PP29716   2.419   1.808   0.628 -0.1825 -0.1456 -0.1714
19613PP      PP29717   0.681   5.644  10.719  0.2539  0.0832  0.1901
19614PP      PP29718   5.538  14.676   8.656  0.2019 -0.0030  0.2807
19615PP      PP29719  10.024   3.737   9.749 -0.0385  0.1920 -0.2830
19616PP      PP29720   3.648   9.689   8.720  0.0030  0.2146 -0.4296
19617PP      PP29721   4.761  12.360  11.967  0.0309  0.2613 -0.0589
19618PP      PP29722   6.773  12.327   5.135 -0.1530 -0.0802 -0.1212
19619PP      PP29723  15.325   1.412  11.935  0.0615 -0.5004  0.0426
19620PP      PP29724  13.001  11.281   5.727  0.4195 -0.0045 -0.0509
19621PP      PP29725  11.879   5.657  10.968 -0.1028 -0.2141  0.1016
19622PP      PP29726   9.563  13.082   1.301 -0.1498  0.0511  0.0659
19623PP      PP29727   1.287  14.324   1.252  0.0038 -0.0985 -0.0331
19624PP      PP29728   3.388   6.613   0.042 -0.2475 -0.2215  0.1450
19625PP      PP29729   1.634   7.931   1.738 -0.2316  0.0870  0.1754
19626PP      PP29730   5.346  12.281   4.466 -0.0996 -0.0612 -0.1649
19627PP      PP29731  11.106  10.109   1.870  0.0581 -0.0984  0.1053
19628PP      PP29732  12.644  15.585  10.853 -0.3028 -0.1135 -0.3139
19629PP      PP29733   4.637  12.127   2.170 -0.0355 -0.1155  0.0873
19630PP      PP29734   9.733   9.995   4.997  0.4258  0.2914 -0.2192
19631PP      PP29735   4.506   3.008   2.455 -0.0901 -0.1068 -0.0556
19632PP      PP29736  12.705  13.791   1.199 -0.2903  0.1265  0.2536
19633PP      PP29737  14.002  15.187   4.710  0.1976 -0.0962 -0.1372
19634PP      PP29738   2.453   7.901  10.129 -0.5351  0.0309  0.0083
19635PP      PP29739   5.739   6.448   2.531  0.1756  0.0706  0.3196
19636PP      PP29740  11.530   1.070   1.807 -0.1669 -0.1406  0.0253
19637PP      PP29741   3.781  12.503   0.619 -0.2551  0.1157 -0.0741
19638PP      PP29742   3.606  11.104   1.026 -0.1652  0.2365  0.0418
19639PP      PP29743   3.058   2.339  10.276 -0.2420  0.1586  0.0386
19640PP      PP29744   8.574   9.500  13.400  0.2235 -0.0354 -0.3845
19641PP      PP29745  10.704   9.633   2.245 -0.0183 -0.1648  0.1123
19642PP      PP29746   3.107   7.551   0.181  0.1449  0.1329 -0.1983
19643PP      PP29747   2.366  13.796   4.879 -0.4170 -0.2675 -0.0777
19644PP      PP29748   5.639   3.027   9.562 -0.4379  0.1452 -0.1532
19645PP      PP29749   3.396   6.812   9.967  0.2094  0.0949 -0.2419
19646PP      PP29750   1.816  13.702  12.944 -0.0234 -0.0702  0.1230
19647PP      PP29751   4.458  12.211  11.639 -0.3887  0.0381  0.3580
19648PP      PP29752   4.730   0.697   8.103 -0.0874  0.2544 -0.0891
19649PP      PP29753  13.374  14.370   4.338  0.4296  0.3241 -0.0069
19650PP      PP29754   0.489   1.090  11.921  0.1077  0.1644  0.2792
19651PP      PP29755  12.224   8.475  11.940  0.0946  0.1009  0.0966
19652PP      PP29756   5.519  12.406   4.948  0.1660 -0.0450 -0.0649
19653PP      PP29757   9.016   5.698   1.306  0.3202 -0.0574 -0.0028
19654PP      PP29758   4.695  13.968   2.980 -0.2730  0.0893  0.0535
19655PP      PP29759   5.102   3.143  13.356  0.1081  0.0225 -0.0899
19656PP      PP29760   4.005  12.530  10.142  0.0174  0.0274  0.1048
19657PP      PP29761   8.411  12.584  11.765 -0.0126  0.1214 -0.3456
19658PP      PP29762   6.769   6.725   0.014 -0.0284  0.1075  0.1209
19659PP      PP29763  11.618  14.070   9.652  0.0116 -0.0195 -0.1950
19660PP      PP29764   6.952   7.326  10.709 -0.0594  0.1154 -0.4721
19661PP      PP29765   8.237   3.871  13.233  0.0397  0.1749 -0.3205
19662PP      PP29766  11.965   2.036   2.421 -0.0413 -0.0990 -0.2484
19663PP      PP29767   0.334   7.787   3.934 -0.1611 -0.2037 -0.1097
19664PP      PP29768   9.547  12.364   9.863  0.0827  0.0965 -0.1914
19665PP      PP29769   4.250   2.255  12.917  0.0895 -0.2480  0.0437
19666PP      PP29770   4.085   1.619  13.398  0.3224  0.1800  0.3100
19667PP      PP29771   8.954  11.510  12.309 -0.2459 -0.0835 -0.4213
19668PP      PP29772   7.836  14.295   4.473 -0.0198 -0.3037  0.3276
19669PP      PP29773  11.256  14.077   3.788 -0.0675 -0.1835 -0.2756
19670PP      PP29774  14.771  13.742   4.125 -0.2191  0.1589  0.0928
19671PP      PP29775   8.607   1.628  13.688 -0.0510  0.3734  0.1316
19672PP      PP29776   1.492   7.755   0.889  0.0043  0.0045  0.0106
19673PP      PP29777   6.829   2.594  12.121  0.2381 -0.1609  0.1525
19674PP      PP29778  11.560   6.029  12.651  0.0290  0.0504 -0.1007
19675PP      PP29779  12.589   6.514   2.069  0.2141 -0.0103  0.0466
19676PP      PP29780   8.109   9.685   0.377  0.0308 -0.0461  0.3295
19677PP      PP29781  10.983   6.911  10.481  0.1219  0.3833  0.0638
19678PP      PP29782   0.844  11.464  10.439  0.1186 -0.4839  0.0278
19679PP      PP29783   6.813   9.959  10.710  0.2544 -0.0135  0.2126
19680PP      PP29784   3.688   3.801   1.782  0.1569 -0.1450  0.1110
19681PP      PP29785  10.785   0.931   2.888  0.1397  0.0507 -0.0345
19682PP      PP29786   5.851  12.284   9.812  0.1336 -0.0889  0.2228
19683PP      PP29787   5.608   2.321  11.237 -0.4132  0.0285 -0.3830
19684PP      PP29788   5.228  13.644   2.438 -0.3068 -0.0975 -0.0341
19685PP      PP29789  15.500   7.697  12.470  0.1340  0.2364  0.0512
19686PP      PP29790   2.914   0.735  11.872 -0.0413  0.5954  0.2399
19687PP      PP29791   8.094  15.189   2.504 -0.1240  0.1243  0.1196
19688PP      PP29792   0.448   4.364  12.886  0.0459  0.0642 -0.1863
19689PP      PP29793   1.001   3.524  13.016 -0.0078 -0.1110  0.2265
19690PP      PP29794  13.043   1.010   9.982  0.0734 -0.1682 -0.4327
19691PP      PP29795   3.161   3.080   9.700 -0.1174 -0.0596 -0.0295
19692PP      PP29796   3.194  12.271  11.990 -0.0854 -0.3602 -0.1802
19693PP      PP29797   9.224   6.683  10.849  0.0518  0.0227 -0.0400
19694PP      PP29798  10.307  11.870   4.117  0.1364 -0.0291 -0.2540
19695PP      PP29799  15.224   4.530  13.037  0.0340  0.1396 -0.1950
19696PP      PP29800   6.950   4.791   1.897  0.0126  0.1013  0.0552
19697PP      PP29801   1.699  12.676   3.135  0.1607 -0.1035 -0.0521
19698PP      PP29802  14.888   3.247  10.193  0.2831  0.2712  0.0522
19699PP      PP29803   2.000   1.271   9.338 -0.2803  0.0068 -0.0797
19700PP      PP29804   5.705   6.020   2.261  0.1306 -0.2726  0.1156
19701PP      PP29805   2.403   9.610   0.741 -0.0097  0.1420 -0.2898
19702PP      PP29806   8.571  13.760  13.432 -0.3351 -0.2138  0.2636
19703PP      PP29807   7.054   9.844  11.954 -0.0172  0.0083  0.2468
19704PP      PP29808  14.488   2.482   3.106 -0.1602 -0.0859 -0.3276
19705PP      PP29809  10.118  13.195   0.035 -0.0996 -0.0938 -0.0134
19706PP      PP29810   7.678  13.526   1.200  0.1311  0.4657 -0.1719
19707PP      PP29811  11.898  10.601   9.789 -0.0510 -0.0814  0.0754
19708PP      PP29812   8.451  15.550  10.459 -0.0336 -0.0374  0.2470
19709PP      PP29813   5.353   0.896   9.422  0.1982  0.2534 -0.2878
19710PP      PP29814   2.884   4.861   0.677  0.1390 -0.0525  0.2480
19711PP      PP29815   0.111   7.595   9.510 -0.0517 -0.0710  0.1723
19712PP      PP29816   6.092  14.750   4.231  0.1976 -0.1606  0.0865
19713PP      PP29817  14.378  12.186   2.702 -0.0556  0.2020  0.1693
19714PP      PP29818   8.107  11.446  12.738  0.3020 -0.0717 -0.3271
19715PP      PP29819   7.944   9.404  13.502  0.0294 -0.1272  0.0918
19716PP      PP29820   6.049  13.606   0.262  0.1966  0.2859  0.0465
19717PP      PP29821  15.007   6.417   0.480 -0.1067  0.0154 -0.0023
19718PP      PP29822   4.420   5.953   9.375  0.0783 -0.1232  0.1549
19719PP      PP29823   9.199  11.126   2.361  0.3061  0.1282 -0.2522
19720PP      PP29824  14.791  14.668   9.207  0.3142 -0.2685 -0.2256
19721PP      PP29825   4.386   1.470  12.735 -0.1409  0.1113 -0.2234
19722PP      PP29826  13.545  15.585  10.363 -0.2681  0.3409 -0.0904
19723PP      PP29827   5.821   7.685  13.046  0.2641 -0.3927 -0.1198
19724PP      PP29828   6.298  12.936   2.089 -0.0732  0.1340 -0.3591
19725PP      PP29829   2.533  14.111   2.460 -0.1116 -0.0351  0.2950
19726PP      PP29830   1.136  13.336   3.631 -0.1651 -0.0367  0.2250
19727PP      PP29831   5.463  10.970   1.915 -0.0261  0.3711  0.1346
19728PP      PP29832   4.748   5.340  13.606  0.1292  0.0241 -0.0111
19729PP      PP29833   2.981   1.286   9.373 -0.0613  0.0431  0.1382
19730PP      PP29834   0.961   9.446  13.276  0.1640 -0.0754  0.1516
19731PP      PP29835  14.681   5.331  11.012  0.0250  0.1424  0.2087
19732PP      PP29836  12.018  10.266  12.749 -0.1635  0.0800 -0.1908
19733PP      PP29837   6.030  14.627   8.760  0.0007  0.1909  0.0112
19734PP      PP29838   5.638   6.648  11.973  0.1767  0.0280 -0.0481
19735PP      PP29839   8.846   7.292   0.015  0.1277 -0.1201  0.0694
19736PP      PP29840   4.617  15.124   0.326  0.1761  0.3172  0.0027
19737PP      PP29841  12.497  10.214  12.413 -0.1753  0.0610  0.0418
19738PP      PP29842  13.196  12.600   2.715  0.1453  0.3377 -0.0908
19739PP      PP29843  15.680   6.002   0.259 -0.0341  0.3798 -0.1043
19740PP      PP29844  14.470   9.706  12.527 -0.1846 -0.1000 -0.0268
19741PP      PP29845   5.803   7.476  12.398 -0.0550  0.2385 -0.0596
19742PP      PP29846   6.138   3.633  12.821 -0.1078 -0.1307  0.0352
19743PP      PP29847  12.850   6.596   1.331 -0.2024  0.0951 -0.0434
19744PP      PP29848  12.764  13.722   0.738 -0.0176  0.0155  0.2456
19745PP      PP29849   4.809   3.769   0.722 -0.0306  0.0460 -0.1457
19746PP      PP29850   9.105   9.577   2.888 -0.2146 -0.4339 -0.1297
19747PP      PP29851   8.393  11.452   4.727 -0.2035  0.1712 -0.0492
19748PP      PP29852  10.802   8.523   1.742 -0.1298 -0.1759 -0.0777
19749PP      PP29853   6.976  10.921  12.890 -0.1512  0.0274 -0.4567
19750PP      PP29854   3.981   5.394   0.051 -0.0935 -0.4159  0.0481
19751PP      PP29855  11.491   6.372   1.784  0.0906  0.2628 -0.2201
19752PP      PP29856   6.574  14.712   1.049  0.2077 -0.1201  0.1106
19753PP      PP29857   0.609   3.751  12.127 -0.2185 -0.0318 -0.0619
19754PP      PP29858  13.195  13.429  10.607 -0.1884 -0.0781  0.2980
19755PP      PP29859   5.332  13.727   1.514 -0.3086 -0.3448  0.2353
19756PP      PP29860   7.314   3.236   9.214 -0.2610 -0.2248  0.0143
19757PP      PP29861   5.648   6.324  12.415  0.0619  0.3722 -0.0492
19758PP      PP29862   2.389   3.682   9.467 -0.0620  0.3028 -0.0802
19759PP      PP29863   8.785  12.220  11.801 -0.1725  0.0863  0.0905
19760PP      PP29864   1.854   4.618   4.345 -0.0886 -0.1188 -0.2013
19761PP      PP29865   9.791   4.532  10.983  0.0293 -0.0111  0.2062
19762PP      PP29866   3.109   9.794   0.407 -0.1409  0.1880  0.0940
19763PP      PP29867   7.241  15.573  12.389 -0.0795  0.2398  0.2645
19764PP      PP29868  12.711   0.411  11.692 -0.0950  0.1739 -0.0718
19765PP      PP29869  11.533   6.873  11.665  0.0509  0.2479 -0.1657
19766PP      PP29870   4.946  12.250   1.489 -0.0122  0.0155  0.1206
19767PP      PP29871  15.303  13.404  10.924  0.1390  0.1633 -0.1080
19768PP      PP29872   0.981   0.205  11.766 -0.0062  0.1483  0.0112
19769PP      PP29873   1.670  10.731   1.200  0.1254 -0.0281  0.0585
19770PP      PP29874   7.266   0.532   0.420 -0.2240 -0.4006 -0.0484
19771PP      PP29875   0.956   6.353   0.481  0.1931  0.1370 -0.1062
19772PP      PP29876   6.441   9.303  12.139  0.0068  0.1249  0.2497
19773PP      PP29877   2.073   9.921  10.906 -0.0026 -0.0542 -0.3726
19774PP      PP29878   6.138   7.516   3.369 -0.1157  0.5571  0.0809
19775PP      PP29879   1.328   3.864  11.604  0.0332 -0.3206  0.1590
19776TPN    PA129880   5.296   7.612   7.397 -0.0172  0.0873 -0.1919
19776TPN    PA229881   5.249   7.408   7.272  0.4212  0.4291 -0.4936
19776TPN    PA329882   5.138   7.346   7.455 -0.2742  0.2832  0.0450
19776TPN    PA429883   5.024   7.136   7.366  0.0947  0.1805  0.0512
19777TPN    PA129884   1.371   2.408   3.371  0.2437 -0.2189 -0.0606
19777TPN    PA229885   1.453   2.620   3.289 -0.1844  0.0769 -0.3023
19777TPN    PA329886   1.359   2.683   3.529 -0.0362  0.2736  0.5921
19777TPN    PA429887   1.225   2.874   3.475 -0.1272 -0.3234  0.0698
19778TPN    PA129888  10.065   0.130   9.023  0.2248 -0.2796  0.0603
19778TPN    PA229889  10.042   0.062   8.811 -0.2980  0.0465 -0.0631
19778TPN    PA329890  10.245  -0.013   8.786 -0.0112 -0.1942  0.1134
19778TPN    PA429891  10.227  -0.113   8.552 -0.2466 -0.0134 -0.0914
19779TPN    PA129892   2.999  15.200   8.212 -0.3737 -0.0892 -0.0207
19779TPN    PA229893   3.155  15.173   8.040  0.0247 -0.5103 -0.1248
19779TPN    PA329894   3.022  15.252   7.922 -0.0495  0.0677  0.0099
19779TPN    PA429895   3.109  15.213   7.687  0.1290  0.1196 -0.2416
19780TPN    PA129896   1.981  13.957  11.000 -0.1061  0.0860  0.6097
19780TPN    PA229897   2.073  13.923  11.218  0.2020 -0.1806 -0.3475
19780TPN    PA329898   2.220  13.887  11.123 -0.0939  0.0574  0.0364
19780TPN    PA429899   2.421  13.996  11.219 -0.2317 -0.1405  0.1074
19781TPN    PA129900   5.194  10.257   5.037  0.1277  0.0080 -0.1577
19781TPN    PA229901   5.282  10.474   4.960 -0.1297 -0.1954 -0.2257
19781TPN    PA329902   5.477  10.356   4.912  0.2857 -0.2337  0.3686
19781TPN    PA429903   5.569  10.491   4.726 -0.0422 -0.1061 -0.1128
19782TPN    PA129904   8.731   5.378  12.332 -0.2711 -0.0033  0.3228
19782TPN    PA229905   8.789   5.342  12.088 -0.3830  0.1276 -0.4145
19782TPN    PA329906   8.645   5.181  12.127  0.1487 -0.1615  0.0527
19782TPN    PA429907   8.482   5.198  11.942  0.0154 -0.2161 -0.2296
19783TPN    PA129908  12.514  10.270   4.954 -0.1129 -0.0080  0.0540
19783TPN    PA229909  12.652  10.092   4.933  0.1245 -0.2520  0.1342
19783TPN    PA329910  12.791  10.216   5.023 -0.4000  0.0555 -0.0715
19783TPN    PA429911  12.918  10.035   5.153  0.1546  0.0663 -0.0225
19784TPN    PA129912   6.207   8.550   8.647 -0.1548  0.0286  0.1374
19784TPN    PA229913   6.443   8.592   8.591 -0.0256  0.0085 -0.4106
19784TPN    PA329914   6.486   8.576   8.803 -0.1509 -0.0469 -0.0941
19784TPN    PA429915   6.693   8.700   8.842  0.2470  0.0056 -0.0528
19785TPN    PA129916   6.903   8.678   6.510  0.0703 -0.0312 -0.0756
19785TPN    PA229917   6.844   8.723   6.754  0.3627  0.1441 -0.3110
19785TPN    PA329918   6.961   8.516   6.770  0.3214 -0.4786 -0.1593
19785TPN    PA429919   6.784   8.359   6.889 -0.1706 -0.1600  0.1151
19786TPN    PA129920   0.099   3.798   9.227 -0.1035  0.0959  0.4481
19786TPN    PA229921  -0.023   3.993   9.167 -0.0400  0.1644 -0.1551
19786TPN    PA329922  -0.206   3.853   9.146 -0.1244 -0.0628  0.5906
19786TPN    PA429923  -0.327   3.973   8.983 -0.1938  0.2153  0.2258
19787TPN    PA129924   6.226   1.905   3.148  0.2324  0.2437 -0.0664
19787TPN    PA229925   6.349   1.801   3.320 -0.1975  0.6171  0.3479
19787TPN    PA329926   6.497   1.948   3.297 -0.2526 -0.4972  0.2819
19787TPN    PA429927   6.620   1.974   3.501 -0.2863 -0.1024  0.0399
19788TPN    PA129928  12.652   6.238  10.654 -0.2104 -0.0576  0.0747
19788TPN    PA229929  12.459   6.188  10.726 -0.0107 -0.1633 -0.0550
19788TPN    PA329930  12.527   6.016  10.863  0.2352 -0.3712  0.0748
19788TPN    PA429931  12.325   5.996  11.021 -0.1952  0.1179  0.0156
19789TPN    PA129932   7.427   0.344  12.272 -0.1374 -0.1678  0.3630
19789TPN    PA229933   7.416   0.576  12.182  0.1981 -0.4998 -0.5356
19789TPN    PA329934   7.586   0.626  12.343  0.1314 -0.1075  0.0123
19789TPN    PA429935   7.699   0.820  12.231 -0.2958 -0.2081 -0.0367
19790TPN    PA129936  10.768   5.816   8.758  0.1298  0.5215  0.0046
19790TPN    PA229937  10.562   5.915   8.777  0.2814 -0.0183  0.3817
19790TPN    PA329938  10.505   5.690   8.837 -0.2959  0.0557 -0.1484
19790TPN    PA429939  10.281   5.629   8.738  0.0227  0.2401  0.0494
19791TPN    PA129940   9.035   2.777   7.461 -0.2739  0.1832 -0.2621
19791TPN    PA229941   9.097   2.641   7.272 -0.2568 -0.0059 -0.0833
19791TPN    PA329942   9.305   2.676   7.306 -0.0569 -0.0624 -0.2572
19791TPN    PA429943   9.436   2.599   7.116  0.2491  0.1556 -0.0482
19792TPN    PA129944   9.323   9.742  10.237  0.0171  0.2897 -0.0248
19792TPN    PA229945   9.392   9.679  10.021  0.3526 -0.2008  0.3594
19792TPN    PA329946   9.262   9.792   9.934  0.1725 -0.1670 -0.1511
19792TPN    PA429947   9.399   9.922   9.746 -0.0594  0.1369  0.0791
19793TPN    PA129948   4.357   1.910   1.091  0.0033 -0.1278  0.0919
19793TPN    PA229949   4.304   1.732   1.170 -0.3306 -0.1293  0.3713
19793TPN    PA329950   4.294   1.595   0.997  0.3194 -0.2049  0.2583
19793TPN    PA429951   4.402   1.389   1.056  0.1078 -0.4565 -0.0525
19794TPN    PA129952   3.828   4.156   4.477  0.0294  0.2621  0.1022
19794TPN    PA229953   3.656   4.158   4.651  0.1721 -0.6825  0.0086
19794TPN    PA329954   3.773   3.944   4.696 -0.2465  0.0641  0.0426
19794TPN    PA429955   3.701   3.895   4.921 -0.0863  0.2770  0.0520
19795TPN    PA129956   6.525   0.824   7.582 -0.0945  0.0539 -0.2627
19795TPN    PA229957   6.553   0.659   7.394 -0.1777 -0.1430  0.3170
19795TPN    PA329958   6.399   0.561   7.482 -0.2575  0.2337 -0.2385
19795TPN    PA429959   6.214   0.505   7.339 -0.1183  0.0619 -0.2969
19796TPN    PA129960   3.597   5.336  12.269 -0.5023 -0.4284  0.3775
19796TPN    PA229961   3.723   5.122  12.320 -0.0248 -0.3526  0.0625
19796TPN    PA329962   3.627   5.067  12.130 -0.2894  0.0117 -0.1638
19796TPN    PA429963   3.518   4.878  12.171  0.2081 -0.2189  0.1779
19797TPN    PA129964   1.941   4.419  12.031  0.0260 -0.2134 -0.1513
19797TPN    PA229965   2.167   4.356  12.071  0.3426 -0.7570  0.0907
19797TPN    PA329966   2.115   4.170  12.062  0.1073 -0.0924 -0.3860
19797TPN    PA429967   2.202   4.069  12.273  0.2004 -0.1640  0.1843
19798TPN    PA129968  11.801   7.329  13.234 -0.0692 -0.0614  0.0605
19798TPN    PA229969  11.757   7.331  13.010  0.0671 -0.0318 -0.0319
19798TPN    PA329970  11.862   7.146  12.968  0.0719  0.1170  0.1441
19798TPN    PA429971  11.713   7.020  12.796 -0.0440 -0.4692 -0.1814
19799TPN    PA129972   9.596   3.566   7.554  0.1547 -0.3457 -0.2335
19799TPN    PA229973   9.470   3.756   7.560 -0.1841 -0.1845 -0.2275
19799TPN    PA329974   9.668   3.848   7.677  0.0594 -0.2860  0.2577
19799TPN    PA429975   9.697   4.100   7.574  0.4538 -0.1257  0.0603
19800TPN    PA129976   6.791   9.102   5.340 -0.0919 -0.1909 -0.3240
19800TPN    PA229977   6.553   9.069   5.222 -0.4210 -0.0447 -0.1126
19800TPN    PA329978   6.705   8.948   5.112  0.0219 -0.4381 -0.0883
19800TPN    PA429979   6.573   8.762   5.052 -0.0102  0.0363 -0.1148
19801TPN    PA129980   7.330  14.449   4.527 -0.6225  0.1746  0.1146
19801TPN    PA229981   7.209  14.285   4.379 -0.1519  0.3735  0.2108
19801TPN    PA329982   7.406  14.257   4.271  0.1105 -0.2032  0.0277
19801TPN    PA429983   7.366  14.284   4.021  0.1158 -0.0332 -0.2846
19802TPN    PA129984  10.260  11.010   3.803  0.1457  0.0694  0.0116
19802TPN    PA229985  10.448  10.847   3.745 -0.1254  0.4269  0.6687
19802TPN    PA329986  10.539  10.973   3.624  0.3584 -0.0411 -0.3204
19802TPN    PA429987  10.565  10.870   3.404  0.0448  0.0423  0.0465
19803TPN    PA129988  10.865   4.574   3.488  0.3477  0.3574  0.3408
19803TPN    PA229989  10.640   4.598   3.589 -0.3996 -0.5741  0.1079
19803TPN    PA329990  10.584   4.761   3.491  0.0082  0.2065  0.3988
19803TPN    PA429991  10.370   4.746   3.437  0.1483 -0.0803 -0.0202
19804TPN    PA129992  14.537   7.382  10.570  0.4142  0.0203 -0.0709
19804TPN    PA229993  14.540   7.212  10.406  0.2953 -0.1923  0.0276
19804TPN    PA329994  14.456   7.350  10.255  0.1343  0.1492 -0.0182
19804TPN    PA429995  14.553   7.306  10.039 -0.0403  0.1565 -0.3454
19805TPN    PA129996  10.444   3.545   8.797  0.0236  0.0906  0.0393
19805TPN    PA229997  10.585   3.459   8.585  0.4547  0.3199  0.4348
19805TPN    PA329998  10.736   3.406   8.711  0.2420 -0.2979 -0.0539
19805TPN    PA429999  10.932   3.507   8.640 -0.2111 -0.3685  0.4822
19806TPN    PA130000   3.204   5.610   4.816 -0.1225  0.2211  0.2796
19806TPN    PA230001   3.282   5.496   5.020 -0.1345  0.0057  0.0104
19806TPN    PA330002   3.315   5.300   4.904 -0.0779  0.1574 -0.0572
19806TPN    PA430003   3.547   5.202   4.981  0.1225 -0.1009 -0.4411
19807TPN    PA130004  13.365   2.547   8.714 -0.1180  0.1776  0.1787
19807TPN    PA230005  13.313   2.597   8.960 -0.0994  0.2801  0.7333
19807TPN    PA330006  13.538   2.550   8.963  0.2562 -0.2444  0.2380
19807TPN    PA430007  13.569   2.362   9.110  0.0941  0.2662 -0.2458
19808TPN    PA130008   8.669   4.725   2.073 -0.1729 -0.0096  0.1841
19808TPN    PA230009   8.521   4.766   1.908 -0.1504  0.3293  0.4988
19808TPN    PA330010   8.435   4.909   2.048 -0.1253  0.2104 -0.3129
19808TPN    PA430011   8.175   4.926   2.009 -0.2121 -0.2552  0.2592
19809TPN    PA130012  11.899   8.438   0.873  0.1565  0.2861  0.2689
19809TPN    PA230013  12.105   8.304   0.812  0.0497  0.1740  0.1550
19809TPN    PA330014  12.190   8.521   0.763  0.0121  0.0613  0.1256
19809TPN    PA430015  12.404   8.516   0.816 -0.0614 -0.0545  0.0470
19810TPN    PA130016  13.165   0.236   5.929 -0.5753 -0.2169 -0.2928
19810TPN    PA230017  13.167   0.026   5.993  0.0272 -0.0155 -0.0204
19810TPN    PA330018  12.977  -0.019   5.888 -0.1428 -0.0852  0.0979
19810TPN    PA430019  12.875  -0.205   6.010 -0.3044 -0.0118  0.3513
19811TPN    PA130020  10.867  13.665  10.306  0.1057 -0.0945  0.1061
19811TPN    PA230021  10.769  13.717  10.091  0.3871 -0.2286 -0.4558
19811TPN    PA330022  10.829  13.927  10.169  0.2270 -0.2675  0.0402
19811TPN    PA430023  10.703  14.084  10.072  0.0233 -0.3559 -0.1583
19812TPN    PA130024  12.743   2.490   9.652 -0.0016  0.2792 -0.0304
19812TPN    PA230025  12.690   2.652   9.810  0.4756 -0.1436 -0.2252
19812TPN    PA330026  12.573   2.768   9.684  0.3369 -0.1872 -0.2244
19812TPN    PA430027  12.610   3.007   9.754 -0.2712 -0.3033  0.1213
19813TPN    PA130028   7.958   5.407   7.082 -0.1650 -0.2933  0.0894
19813TPN    PA230029   7.816   5.228   7.035 -0.2226 -0.0124 -0.2304
19813TPN    PA330030   7.726   5.224   7.224 -0.1725  0.0067 -0.1038
19813TPN    PA430031   7.710   5.003   7.281 -0.0955  0.4392 -0.1112
19814TPN    PA130032   8.630  10.798   4.777  0.3118 -0.1476  0.5274
19814TPN    PA230033   8.852  10.700   4.818  0.5016  0.3124  0.2527
19814TPN    PA330034   8.797  10.511   4.691  0.2077 -0.3149  0.0655
19814TPN    PA430035   9.005  10.430   4.561 -0.1799 -0.3582  0.1032
19815TPN    PA130036   0.634  10.645   3.922  0.3018 -0.1300  0.0279
19815TPN    PA230037   0.405  10.537   3.877  0.3088  0.0474 -0.1616
19815TPN    PA330038   0.321  10.735   3.855  0.0007 -0.0384  0.2674
19815TPN    PA430039   0.101  10.724   3.984 -0.1306  0.2400 -0.1417
19816TPN    PA130040  12.112   9.852   0.552 -0.0627 -0.0606  0.2993
19816TPN    PA230041  11.942  10.008   0.483 -0.2531  0.2430  0.3396
19816TPN    PA330042  12.046  10.142   0.627  0.0757 -0.2578  0.2442
19816TPN    PA430043  12.067  10.361   0.541  0.0613 -0.5269 -0.2444
19817TPN    PA130044   8.373   2.194   3.456 -0.1233  0.1380 -0.2254
19817TPN    PA230045   8.378   1.992   3.584 -0.3949 -0.1218 -0.2389
19817TPN    PA330046   8.185   2.041   3.639  0.0172 -0.2268  0.0459
19817TPN    PA430047   8.194   2.026   3.883  0.2917 -0.3206  0.1889
19818TPN    PA130048  14.589   0.338   2.405  0.1344 -0.2937  0.0258
19818TPN    PA230049  14.365   0.312   2.475 -0.1805  0.0837 -0.2873
19818TPN    PA330050  14.335   0.140   2.367 -0.2001  0.2205 -0.1762
19818TPN    PA430051  14.117   0.166   2.289  0.0272  0.2719  0.1006
19819TPN    PA130052   5.039   7.608   4.476  0.0543 -0.0645  0.5125
19819TPN    PA230053   5.103   7.392   4.526 -0.0763 -0.4193 -0.3393
19819TPN    PA330054   5.322   7.458   4.539 -0.1436  0.1074  0.4081
19819TPN    PA430055   5.415   7.357   4.729 -0.0935  0.0679 -0.3472
19820TPN    PA130056  10.017   9.864   9.416 -0.3828 -0.0193  0.1080
19820TPN    PA230057  10.017   9.942   9.638 -0.0838 -0.3192  0.2032
19820TPN    PA330058   9.825   9.885   9.660  0.1441 -0.0160 -0.3881
19820TPN    PA430059   9.814   9.763   9.892  0.2151  0.0098 -0.0959
19821TPN    PA130060  14.640   9.080   9.295 -0.1823  0.0064  0.0047
19821TPN    PA230061  14.679   8.889   9.144 -0.2352  0.4738  0.4868
19821TPN    PA330062  14.828   8.816   9.271 -0.0504 -0.1200 -0.2788
19821TPN    PA430063  15.030   8.786   9.161 -0.3154  0.0745  0.3391
19822TPN    PA130064  10.757   8.650   8.280 -0.3097 -0.2035 -0.1751
19822TPN    PA230065  10.874   8.870   8.269  0.3191  0.0909  0.0450
19822TPN    PA330066  10.723   8.944   8.430  0.5189 -0.1214  0.0978
19822TPN    PA430067  10.835   9.037   8.597  0.2478  0.1689  0.1556
19823TPN    PA130068   6.307  10.345   4.685  0.2355  0.2847 -0.1287
19823TPN    PA230069   6.248  10.436   4.923 -0.5161  0.1020  0.2643
19823TPN    PA330070   6.044  10.484   4.802 -0.3525  0.0807  0.0593
19823TPN    PA430071   5.881  10.481   5.002  0.3542  0.0000  0.1887
19824TPN    PA130072   0.864   5.317   4.695 -0.1554 -0.2691  0.4155
19824TPN    PA230073   1.077   5.425   4.679  0.4235 -0.1631 -0.1784
19824TPN    PA330074   1.022   5.524   4.479  0.3677  0.1817 -0.0711
19824TPN    PA430075   1.100   5.721   4.481  0.2346 -0.2268  0.1859
19825TPN    PA130076   1.405  11.555  11.436 -0.1628  0.1343 -0.4008
19825TPN    PA230077   1.246  11.714  11.530 -0.0476  0.3750 -0.0485
19825TPN    PA330078   1.427  11.863  11.502  0.0916 -0.1111 -0.3993
19825TPN    PA430079   1.438  12.002  11.698  0.2145  0.1368 -0.0355
19826TPN    PA130080  11.055  14.299   9.967 -0.1953 -0.0013  0.0428
19826TPN    PA230081  11.023  14.321  10.201  0.3764 -0.2654 -0.1995
19826TPN    PA330082  11.175  14.452  10.213 -0.5546 -0.0252  0.2102
19826TPN    PA430083  11.338  14.375  10.412 -0.0078 -0.1424 -0.0050
19827TPN    PA130084  12.387   6.522   9.314 -0.2089 -0.1436  0.2120
19827TPN    PA230085  12.462   6.770   9.353 -0.0199  0.1877 -0.1020
19827TPN    PA330086  12.617   6.657   9.503 -0.1055 -0.2391 -0.0217
19827TPN    PA430087  12.564   6.724   9.729 -0.2050  0.0519  0.2329
19828TPN    PA130088  14.918  13.621   1.824  0.0060 -0.4199 -0.3254
19828TPN    PA230089  15.138  13.636   1.882 -0.2944 -0.0354  0.1885
19828TPN    PA330090  15.167  13.432   1.777 -0.0634  0.1659 -0.0339
19828TPN    PA430091  15.416  13.422   1.680  0.2864  0.1033  0.2058
19829TPN    PA130092   2.001  10.262   5.061 -0.3290 -0.1393 -0.1815
19829TPN    PA230093   1.787  10.239   4.968  0.4308 -0.4217 -0.1006
19829TPN    PA330094   1.754  10.101   5.098 -0.0485 -0.0905  0.2163
19829TPN    PA430095   1.631   9.929   4.967 -0.0852  0.1830  0.0497
19830TPN    PA130096   7.766   3.151  10.928  0.2875  0.1912 -0.0948
19830TPN    PA230097   7.729   3.189  10.690  0.5260  0.5532 -0.1969
19830TPN    PA330098   7.738   3.423  10.737  0.1316  0.1531  0.2138
19830TPN    PA430099   7.742   3.513  10.512 -0.1249 -0.3242 -0.0554
19831TPN    PA130100  12.520   9.694  10.773  0.3786  0.2245  0.2183
19831TPN    PA230101  12.705   9.754  10.677 -0.2532 -0.2296 -0.0336
19831TPN    PA330102  12.764   9.539  10.686 -0.2802  0.0329  0.0721
19831TPN    PA430103  12.965   9.503  10.781 -0.1433 -0.0863  0.4755
19832TPN    PA130104   4.536   9.723   4.923 -0.0076  0.0037 -0.0127
19832TPN    PA230105   4.470   9.561   5.089 -0.3544  0.4113 -0.2492
19832TPN    PA330106   4.674   9.481   5.111  0.1036 -0.1776 -0.3718
19832TPN    PA430107   4.771   9.479   5.336 -0.3046 -0.1302 -0.1149
19833TPN    PA130108   1.930   9.581   4.786 -0.0181  0.0757 -0.0841
19833TPN    PA230109   2.018   9.361   4.780  0.2021  0.2856 -0.3960
19833TPN    PA330110   2.013   9.360   4.569  0.2174  0.2118  0.2087
19833TPN    PA430111   1.875   9.168   4.467  0.0044 -0.2468  0.2139
19834TPN    PA130112   4.208   3.576   3.333 -0.1662  0.2434  0.0628
19834TPN    PA230113   4.248   3.419   3.515 -0.2688 -0.2241  0.0334
19834TPN    PA330114   4.442   3.377   3.406 -0.2562 -0.1324  0.2716
19834TPN    PA430115   4.614   3.358   3.594 -0.1487 -0.2168  0.0940
19835TPN    PA130116   1.962   0.172  11.739 -0.4318 -0.1064  0.0808
19835TPN    PA230117   2.119   0.327  11.843 -0.0825 -0.2332 -0.5465
19835TPN    PA330118   2.098   0.192  12.030  0.4753 -0.2119  0.1750
19835TPN    PA430119   2.319   0.148  12.124  0.0614  0.0200  0.3972
19836TPN    PA130120   6.938  13.476   9.092  0.2706 -0.2661 -0.2256
19836TPN    PA230121   6.752  13.330   9.189 -0.3533  0.0677  0.1597
19836TPN    PA330122   6.690  13.309   8.986 -0.3687  0.4298  0.1855
19836TPN    PA430123   6.655  13.068   8.938  0.0623 -0.3205 -0.3707
19837TPN    PA130124  12.074  14.521  10.194  0.2227  0.1174  0.0310
19837TPN    PA230125  11.905  14.597  10.025 -0.2053  0.1093  0.2879
19837TPN    PA330126  11.837  14.406  10.005  0.3422  0.0429 -0.1934
19837TPN    PA430127  11.577  14.431   9.977 -0.3196  0.1142 -0.2904
19838TPN    PA130128   1.023   4.588   8.652  0.0601 -0.0429  0.0004
19838TPN    PA230129   0.914   4.811   8.655  0.2678 -0.4377  0.3089
19838TPN    PA330130   1.113   4.862   8.545  0.2050 -0.0030 -0.0858
19838TPN    PA430131   1.060   4.967   8.328 -0.1925 -0.0321 -0.2057
19839TPN    PA130132   2.001   1.245   6.734  0.1768 -0.2638 -0.0850
19839TPN    PA230133   1.780   1.144   6.748  0.3859 -0.1346  0.1133
19839TPN    PA330134   1.860   0.951   6.667 -0.0834  0.1957 -0.0345
19839TPN    PA430135   1.765   0.749   6.810 -0.1925  0.1083 -0.2052
19840TPN    PA130136  11.411  12.947   6.613  0.2696 -0.0845  0.1512
19840TPN    PA230137  11.438  13.197   6.567 -0.4885  0.0631 -0.2189
19840TPN    PA330138  11.248  13.205   6.475 -0.0914 -0.0560 -0.2410
19840TPN    PA430139  11.205  13.450   6.479 -0.0688 -0.0087 -0.0088
19841TPN    PA130140   6.248  13.132   9.081 -0.2715 -0.1193  0.0920
19841TPN    PA230141   6.316  12.960   8.930 -0.0968 -0.1706  0.5623
19841TPN    PA330142   6.164  13.103   8.771 -0.1373  0.0067 -0.1023
19841TPN    PA430143   6.277  13.111   8.586 -0.2385 -0.2817  0.1676
19842TPN    PA130144   0.207   4.256   8.418  0.0867 -0.0671 -0.1097
19842TPN    PA230145   0.105   4.457   8.405  0.3157  0.1393 -0.1597
19842TPN    PA330146   0.101   4.509   8.573  0.0361  0.0455 -0.0283
19842TPN    PA430147   0.118   4.770   8.557  0.1715 -0.3945 -0.0199
19843TPN    PA130148   1.878   9.266  13.625 -0.0821 -0.1747 -0.3432
19843TPN    PA230149   1.679   9.231  13.489  0.0337 -0.0748  0.3012
19843TPN    PA330150   1.820   9.068  13.392  0.0066 -0.2591 -0.0861
19843TPN    PA430151   1.729   8.859  13.432  0.0345 -0.2266 -0.0177
19844TPN    PA130152   5.982  12.743   9.029  0.1800  0.2947  0.3945
19844TPN    PA230153   6.036  12.561   9.162  0.0264  0.3025  0.4508
19844TPN    PA330154   5.835  12.550   9.237 -0.1128 -0.2393 -0.1355
19844TPN    PA430155   5.828  12.309   9.333  0.2090 -0.1267 -0.0250
19845TPN    PA130156  13.839  10.394   4.657 -0.0715  0.1344 -0.3367
19845TPN    PA230157  14.078  10.435   4.678  0.1914  0.2477  0.4990
19845TPN    PA330158  14.063  10.580   4.817 -0.1563 -0.1074  0.3200
19845TPN    PA430159  14.242  10.713   4.782 -0.3796 -0.1308  0.1980
19846TPN    PA130160   9.511  11.428  11.147 -0.1484 -0.1500  0.2158
19846TPN    PA230161   9.324  11.326  11.016  0.3537 -0.1228 -0.1718
19846TPN    PA330162   9.374  11.155  11.164 -0.0844  0.0247  0.2505
19846TPN    PA430163   9.250  10.981  11.034 -0.1575  0.1802 -0.0507
19847TPN    PA130164  10.815  13.499  10.774 -0.0748  0.0677 -0.3527
19847TPN    PA230165  10.930  13.377  10.619 -0.2877 -0.1266 -0.0871
19847TPN    PA330166  11.120  13.514  10.696  0.2373  0.1211  0.2758
19847TPN    PA430167  11.205  13.612  10.471 -0.0098  0.0995  0.0816
19848TPN    PA130168  14.158  15.261   7.534 -0.0040 -0.1805  0.3275
19848TPN    PA230169  14.382  15.210   7.533  0.3856 -0.0171  0.0866
19848TPN    PA330170  14.387  15.297   7.742 -0.0228 -0.1322 -0.0654
19848TPN    PA430171  14.570  15.147   7.854 -0.1143  0.2275  0.0901
19849TPN    PA130172   9.041   7.578   0.615 -0.1131 -0.0829 -0.2686
19849TPN    PA230173   9.066   7.619   0.393  0.3850 -0.1500 -0.2555
19849TPN    PA330174   8.828   7.606   0.388  0.1438 -0.2194  0.0209
19849TPN    PA430175   8.754   7.743   0.220  0.0424 -0.2431  0.0921
19850TPN    PA130176  14.107   2.309  13.406 -0.0843 -0.0487 -0.3875
19850TPN    PA230177  14.274   2.212  13.228 -0.0378  0.1073 -0.2291
19850TPN    PA330178  14.180   2.044  13.309  0.1861  0.0473 -0.0577
19850TPN    PA430179  14.083   1.928  13.120 -0.1448  0.2560  0.3267
19851TPN    PA130180  12.123   2.732   8.985 -0.1142  0.2731  0.4948
19851TPN    PA230181  12.275   2.549   8.882  0.2331  0.2260  0.1539
19851TPN    PA330182  12.335   2.731   8.782 -0.1450 -0.0898  0.0654
19851TPN    PA430183  12.575   2.692   8.757 -0.2179 -0.2800 -0.0878
19852TPN    PA130184  13.092   7.052   4.433  0.0197  0.1006 -0.6151
19852TPN    PA230185  12.984   7.042   4.207 -0.2471 -0.0495 -0.1934
19852TPN    PA330186  13.005   6.818   4.257  0.1299  0.1974 -0.0403
19852TPN    PA430187  13.073   6.711   4.037 -0.1294 -0.1100 -0.1580
19853TPN    PA130188  11.560   9.742   3.078 -0.0180 -0.0166  0.2006
19853TPN    PA230189  11.782   9.805   3.163 -0.0043  0.2729  0.6332
19853TPN    PA330190  11.799   9.651   3.301  0.3625  0.0887  0.1195
19853TPN    PA430191  11.993   9.498   3.242  0.3714 -0.1089  0.2571
19854TPN    PA130192   0.715  12.089   1.047 -0.1473 -0.2282  0.2281
19854TPN    PA230193   0.916  11.962   1.025  0.1723 -0.2495 -0.2439
19854TPN    PA330194   1.030  12.114   0.986 -0.0924  0.3567  0.1926
19854TPN    PA430195   1.226  12.077   1.139  0.0695 -0.0567 -0.0277
19855TPN    PA130196   5.877  15.042   7.695  0.1213 -0.2558 -0.1016
19855TPN    PA230197   5.762  14.893   7.877  0.3847  0.3417 -0.2178
19855TPN    PA330198   5.590  14.910   7.744 -0.0872 -0.2571 -0.0956
19855TPN    PA430199   5.390  15.006   7.882  0.2014 -0.0698  0.1629
19856OST    PA130200  10.614   7.089   9.659  0.1049  0.1438  0.0376
19856OST    PA230201  10.426   7.355   9.774  0.1509 -0.5605  0.0237
19856OST    PA330202  10.708   7.401   9.931  0.1227  0.0171  0.1509
19856OST    PA430203  10.309   7.424   9.932  0.0126 -0.0703 -0.0976
19856OST    PA530204  10.028   7.304   9.902 -0.0448  0.1093 -0.4135
19856OST    PA630205  10.079   7.213   9.718 -0.0459 -0.2495 -0.0886
19857OST    PA130206  13.834   6.549   2.878 -0.1628 -0.0063 -0.3517
19857OST    PA230207  14.161   6.431   2.823  0.0520 -0.0188 -0.1636
19857OST    PA330208  14.036   6.210   2.996 -0.2581  0.1165  0.1242
19857OST    PA430209  14.347   6.346   2.850  0.1181 -0.6140 -0.1987
19857OST    PA530210  14.473   6.657   2.812 -0.1656 -0.2410  0.4758
19857OST    PA630211  14.246   6.776   2.791  0.0041  0.1340  0.4367
19858OST    PA130212   9.105   0.499   4.167  0.2117  0.1203  0.2019
19858OST    PA230213   9.134   0.295   3.883  0.0864  0.0713  0.0029
19858OST    PA330214   8.887   0.155   4.039  0.3711  0.0454 -0.0573
19858OST    PA430215   9.192   0.113   3.759  0.2914  0.1109 -0.1950
19858OST    PA530216   9.386   0.305   3.580  0.0582  0.0176 -0.4923
19858OST    PA630217   9.349   0.518   3.740 -0.0321  0.1595  0.0878
19859OST    PA130218   3.009  12.149  11.494 -0.1005 -0.0276  0.1190
19859OST    PA230219   3.006  11.851  11.644 -0.0499  0.3311 -0.1343
19859OST    PA330220   3.047  11.721  11.403 -0.0027  0.2298  0.0859
19859OST    PA430221   3.083  11.684  11.771 -0.3741 -0.1293  0.1665
19859OST    PA530222   2.966  11.808  12.018 -0.2882  0.1249 -0.1523
19859OST    PA630223   2.846  11.971  11.963 -0.0863  0.1438 -0.2249
19860OST    PA130224  11.217   9.448   4.739 -0.3404 -0.0509  0.0883
19860OST    PA230225  11.026   9.244   4.522  0.1821  0.1695  0.1305
19860OST    PA330226  11.191   9.246   4.263 -0.1361  0.2353  0.2819
19860OST    PA430227  11.001   9.043   4.526  0.2353  0.1478  0.3282
19860OST    PA530228  10.737   9.063   4.692  0.2125 -0.1359  0.2418
19860OST    PA630229  10.792   9.299   4.772  0.1056  0.2964 -0.0420
19861OST    PA130230  13.728   9.370   9.381  0.0659  0.4968 -0.0244
19861OST    PA230231  13.630   9.019   9.329  0.0484 -0.1670 -0.1522
19861OST    PA330232  13.882   9.008   9.201 -0.5419 -0.0354  0.0899
19861OST    PA430233  13.639   8.836   9.420 -0.1746 -0.1065  0.5128
19861OST    PA530234  13.431   8.901   9.637 -0.0449  0.0865 -0.1683
19861OST    PA630235  13.398   9.112   9.577 -0.1641  0.1163 -0.1245
19862OST    PA130236   6.913  14.893  10.381 -0.4010 -0.1522 -0.2603
19862OST    PA230237   7.192  14.795  10.151 -0.0226  0.2007  0.0143
19862OST    PA330238   7.373  14.700  10.355 -0.2305  0.0304 -0.2235
19862OST    PA430239   7.263  14.653  10.023 -0.3136 -0.0500  0.1202
19862OST    PA530240   7.181  14.867   9.798 -0.0507 -0.1476  0.1537
19862OST    PA630241   7.034  15.012   9.925 -0.0761  0.2255 -0.3438
19863OST    PA130242   9.692   4.244  11.533  0.2037  0.1135 -0.0372
19863OST    PA230243   9.960   4.165  11.753  0.3710 -0.0241 -0.1488
19863OST    PA330244   9.971   3.916  11.611  0.0761  0.1768 -0.2199
19863OST    PA430245  10.073   4.107  11.914 -0.0913 -0.2698  0.2325
19863OST    PA530246  10.049   4.352  12.126 -0.2569 -0.2210 -0.2158
19863OST    PA630247   9.936   4.464  11.930 -0.2711 -0.1187 -0.1322
19864OST    PA130248   6.733   0.743   2.570 -0.0756  0.2265  0.1779
19864OST    PA230249   6.578   0.900   2.271  0.1424 -0.3560  0.0297
19864OST    PA330250   6.382   1.036   2.450  0.0934 -0.1674  0.2798
19864OST    PA430251   6.601   1.079   2.160  0.1567 -0.1104  0.0758
19864OST    PA530252   6.787   0.929   1.968  0.5740 -0.0104  0.2396
19864OST    PA630253   6.782   0.713   2.071 -0.5136  0.1603  0.0322
19865OST    PA130254  11.811   1.095   9.370 -0.1240  0.0447 -0.2395
19865OST    PA230255  11.916   0.766   9.306  0.2621  0.0622 -0.0540
19865OST    PA330256  11.784   0.653   9.549  0.4653  0.0418  0.2242
19865OST    PA430257  11.865   0.625   9.185  0.1726  0.1791  0.1720
19865OST    PA530258  12.195   0.627   9.092  0.1236 -0.2369  0.1056
19865OST    PA630259  12.220   0.842   9.221 -0.3695  0.0951  0.0883
19866OST    PA130260  13.871   6.854   0.060  0.0600 -0.0479  0.3457
19866OST    PA230261  13.967   7.097  -0.188  0.0135 -0.2941 -0.2384
19866OST    PA330262  13.699   7.201  -0.090 -0.0498 -0.2713  0.2353
19866OST    PA430263  14.028   7.281  -0.251 -0.1801  0.0690  0.2454
19866OST    PA530264  14.307   7.117  -0.339  0.1029 -0.0503  0.1804
19866OST    PA630265  14.259   6.897  -0.242 -0.0467 -0.0011  0.1727
19867OST    PA130266   9.974  10.854   0.478  0.2562 -0.0493 -0.0186
19867OST    PA230267   9.629  10.835   0.527 -0.0865  0.5314  0.0909
19867OST    PA330268   9.616  11.125   0.604 -0.6196 -0.1322  0.1643
19867OST    PA430269   9.439  10.796   0.515 -0.0982 -0.0421  0.2011
19867OST    PA530270   9.411  10.538   0.347  0.1401  0.3536 -0.0946
19867OST    PA630271   9.624  10.493   0.343 -0.1610  0.0697  0.0603
19868OST    PA130272   2.480  10.089   2.684  0.1198 -0.1921 -0.0158
19868OST    PA230273   2.363  10.406   2.519 -0.0777  0.0352 -0.3830
19868OST    PA330274   2.284  10.230   2.314  0.0514 -0.1802  0.0633
19868OST    PA430275   2.466  10.528   2.410 -0.0223 -0.3208 -0.1264
19868OST    PA530276   2.570  10.706   2.657  0.2093  0.2681  0.3610
19868OST    PA630277   2.488  10.581   2.804 -0.4100  0.1268 -0.3517
19869OST    PA130278  14.740   6.023  10.146  0.0825 -0.0918 -0.1170
19869OST    PA230279  14.881   6.362  10.168 -0.0545  0.0126 -0.3323
19869OST    PA330280  14.773   6.283  10.441 -0.1403 -0.0696 -0.3973
19869OST    PA430281  15.060   6.460  10.264  0.0550 -0.4341 -0.3525
19869OST    PA530282  15.194   6.458   9.981  0.0840  0.4278 -0.3625
19869OST    PA630283  15.013   6.376   9.850 -0.4105 -0.0208  0.0550
19870OST    PA130284   2.812   8.297   9.157 -0.2794  0.0587 -0.0683
19870OST    PA230285   3.009   7.991   9.241  0.0098 -0.1231 -0.1326
19870OST    PA330286   2.881   7.900   9.485 -0.0901 -0.5766  0.3752
19870OST    PA430287   3.071   7.823   9.189  0.0397  0.1867  0.0870
19870OST    PA530288   3.246   7.919   8.919  0.0094 -0.0872 -0.2187
19870OST    PA630289   3.183   8.160   8.953 -0.0235 -0.0014 -0.2340
19871OST    PA130290   2.611   7.017   8.891  0.1886  0.0880 -0.1159
19871OST    PA230291   2.576   7.359   8.986  0.0131 -0.0752  0.1856
19871OST    PA330292   2.339   7.334   8.876 -0.0387 -0.0615  0.3095
19871OST    PA430293   2.639   7.533   8.900 -0.0667 -0.1305  0.0622
19871OST    PA530294   2.937   7.533   9.015 -0.0620  0.2314  0.2105
19871OST    PA630295   2.867   7.309   9.146  0.1692 -0.1130 -0.0729
19872OST    PA130296   1.612   4.266  13.422 -0.0943  0.1363 -0.0405
19872OST    PA230297   1.968   4.293  13.417 -0.2624  0.2146  0.0864
19872OST    PA330298   1.980   4.350  13.674  0.1412 -0.3216 -0.0494
19872OST    PA430299   2.158   4.195  13.417 -0.1092  0.0175 -0.1208
19872OST    PA530300   2.120   4.070  13.123 -0.3456  0.2155 -0.4534
19872OST    PA630301   1.938   4.142  13.100 -0.0309  0.0749  0.1940
19873OST    PA130302  12.483   1.157   8.896 -0.3138  0.0512 -0.2060
19873OST    PA230303  12.431   0.899   8.632 -0.1485  0.2029  0.0255
19873OST    PA330304  12.423   1.117   8.454 -0.0926 -0.4366 -0.1546
19873OST    PA430305  12.391   0.735   8.504  0.1640 -0.1938  0.0426
19873OST    PA530306  12.455   0.504   8.711 -0.0248  0.4520 -0.1140
19873OST    PA630307  12.548   0.673   8.880  0.1437  0.0340  0.0208
19874OST    PA130308   2.812  13.782  11.849  0.0802 -0.1766 -0.2501
19874OST    PA230309   2.467  13.750  11.872  0.0215 -0.0015  0.0623
19874OST    PA330310   2.572  13.730  12.164  0.1018  0.2769 -0.1192
19874OST    PA430311   2.311  13.731  11.915  0.0920 -0.1080  0.3636
19874OST    PA530312   2.226  13.679  11.608  0.3985  0.4707 -0.1686
19874OST    PA630313   2.408  13.707  11.496  0.2501 -0.2234 -0.4339
19875OST    PA130314   3.828   5.100   4.144  0.0365  0.1491 -0.1620
19875OST    PA230315   4.174   5.071   4.108 -0.1319 -0.3342 -0.0190
19875OST    PA330316   4.234   5.341   4.152 -0.3015  0.1608 -0.2626
19875OST    PA430317   4.300   5.054   3.967 -0.0181 -0.0149  0.2081
19875OST    PA530318   4.298   4.719   3.946 -0.0693  0.1308  0.0965
19875OST    PA630319   4.153   4.713   4.153  0.0313 -0.0875 -0.2722
19876OST    PA130320  10.241   8.844  10.226 -0.3416 -0.0328  0.1949
19876OST    PA230321  10.137   9.130  10.076  0.1072 -0.1422 -0.0678
19876OST    PA330322   9.901   8.975  10.001 -0.2917 -0.2608 -0.1397
19876OST    PA430323  10.061   9.294  10.035 -0.1484 -0.6000 -0.1198
19876OST    PA530324  10.242   9.513  10.203 -0.0687 -0.4216  0.1176
19876OST    PA630325  10.365   9.320  10.289  0.4178  0.4921  0.0082
19877OST    PA130326   5.798   3.927   9.265 -0.0330  0.0914  0.1290
19877OST    PA230327   6.054   4.168   9.341 -0.1616 -0.3188 -0.3351
19877OST    PA330328   6.238   3.962   9.266  0.0648  0.7477  0.4981
19877OST    PA430329   6.180   4.328   9.301  0.2239  0.3386  0.4426
19877OST    PA530330   5.946   4.539   9.279 -0.0154  0.0259  0.2492
19877OST    PA630331   5.780   4.368   9.372  0.0878  0.0180  0.2573
19878OST    PA130332  14.089   0.077   2.763 -0.1605 -0.0779 -0.3348
19878OST    PA230333  13.857  -0.098   2.596  0.9302  0.0606 -0.0388
19878OST    PA330334  14.079  -0.276   2.511 -0.2710 -0.4623 -0.3336
19878OST    PA430335  13.718  -0.218   2.485 -0.0258 -0.0387  0.1102
19878OST    PA530336  13.506   0.028   2.421  0.0425  0.1593  0.3265
19878OST    PA630337  13.644   0.146   2.558 -0.0151 -0.0823  0.0038
19879OST    PA130338  11.338   1.040  11.488 -0.1329  0.1366 -0.1127
19879OST    PA230339  11.160   0.804  11.670 -0.3950  0.4439  0.2571
19879OST    PA330340  11.191   0.660  11.412 -0.1562  0.4606  0.1078
19879OST    PA430341  11.034   0.657  11.753 -0.0524 -0.6019  0.1279
19879OST    PA530342  10.883   0.873  11.961 -0.0335 -0.0949 -0.1462
19879OST    PA630343  11.016   1.047  11.895 -0.4601 -0.1185  0.1911
19880OST    PA130344   1.373   2.739   1.936 -0.0553 -0.4267 -0.0085
19880OST    PA230345   1.329   2.836   1.606 -0.1411  0.1818  0.3195
19880OST    PA330346   1.413   2.596   1.431  0.4556 -0.0781 -0.2056
19880OST    PA430347   1.179   2.887   1.476  0.1726  0.1181  0.1647
19880OST    PA530348   1.133   3.178   1.556 -0.2385  0.3909  0.5368
19880OST    PA630349   1.339   3.181   1.668  0.2441 -0.1208  0.0074
19881OST    PA130350   1.327  11.116  11.265 -0.1940 -0.1122 -0.1653
19881OST    PA230351   1.265  10.987  11.586  0.1504 -0.2251  0.0833
19881OST    PA330352   1.226  11.220  11.722  0.3789  0.0383 -0.0095
19881OST    PA430353   1.108  10.894  11.643 -0.3189 -0.0963  0.3756
19881OST    PA530354   1.230  10.596  11.642  0.1391  0.0715 -0.1774
19881OST    PA630355   1.468  10.690  11.568 -0.1059  0.0372  0.2843
19882OST    PA130356   1.551   2.225   0.470  0.2112  0.0329 -0.1737
19882OST    PA230357   1.404   2.239   0.801  0.0894  0.1719 -0.1807
19882OST    PA330358   1.191   2.411   0.752  0.0536  0.1568  0.4128
19882OST    PA430359   1.412   2.282   0.995 -0.1401 -0.4110  0.0868
19882OST    PA530360   1.714   2.193   1.068 -0.1738  0.2383 -0.1057
19882OST    PA630361   1.729   2.107   0.836  0.2809 -0.3772  0.1502
19883OST    PA130362   0.818   9.454  11.707  0.1730  0.0279 -0.2225
19883OST    PA230363   0.731   9.309  12.042  0.0353  0.0267 -0.2130
19883OST    PA330364   1.051   9.273  12.029 -0.3754 -0.3494  0.2547
19883OST    PA430365   0.719   9.149  12.179  0.0638  0.1115  0.1721
19883OST    PA530366   0.427   9.028  12.027  0.0215  0.1553 -0.2303
19883OST    PA630367   0.411   9.183  11.877  0.4059 -0.3844  0.1022
19884OST    PA130368   0.771   8.120   9.804  0.2532  0.0308  0.0868
19884OST    PA230369   0.878   7.816   9.657  0.1581 -0.2972 -0.2342
19884OST    PA330370   1.084   7.834   9.857 -0.2148  0.0064 -0.6438
19884OST    PA430371   0.946   7.669   9.571  0.3690  0.0477 -0.2040
19884OST    PA530372   0.730   7.707   9.309  0.1874  0.3720  0.4412
19884OST    PA630373   0.622   7.918   9.374  0.2262  0.1465 -0.1197
19885OST    PA130374  11.831   5.514  11.453 -0.1320  0.1235 -0.2866
19885OST    PA230375  12.052   5.293  11.263 -0.0331  0.1376 -0.4156
19885OST    PA330376  11.832   5.227  11.114 -0.0278  0.2724  0.0655
19885OST    PA430377  12.186   5.200  11.150 -0.1240 -0.3225 -0.1562
19885OST    PA530378  12.420   5.262  11.346  0.1516  0.2707 -0.0248
19885OST    PA630379  12.278   5.358  11.516 -0.1749  0.1080 -0.1473
19886OST    PA130380  13.332   4.878   4.396  0.0163  0.1118 -0.0596
19886OST    PA230381  13.196   4.676   4.635  0.1946  0.2933 -0.1677
19886OST    PA330382  13.272   4.399   4.602 -0.0066 -0.3095  0.7258
19886OST    PA430383  13.111   4.628   4.808 -0.3413 -0.3003 -0.0018
19886OST    PA530384  12.898   4.890   4.824  0.0188 -0.1880  0.0604
19886OST    PA630385  12.944   4.972   4.625  0.2806  0.0927  0.4901
19887OST    PA130386   6.075   0.965   3.308 -0.1783 -0.2061 -0.0258
19887OST    PA230387   6.376   0.967   3.105 -0.0478 -0.2300 -0.3886
19887OST    PA330388   6.298   0.745   2.977  0.0023  0.3951 -0.1388
19887OST    PA430389   6.581   0.988   3.021 -0.0565  0.1474 -0.0442
19887OST    PA530390   6.683   1.035   3.304 -0.0686  0.3291  0.0876
19887OST    PA630391   6.477   1.028   3.436 -0.3713  0.3407 -0.1330
19888OST    PA130392   3.600  12.899   3.788 -0.2021  0.0125  0.2116
19888OST    PA230393   3.680  12.593   3.962  0.3369  0.3357 -0.0073
19888OST    PA330394   3.428  12.428   3.882 -0.0812  0.4744 -0.3722
19888OST    PA430395   3.814  12.430   3.936  0.0421  0.0615  0.3150
19888OST    PA530396   4.081  12.552   4.049  0.1686  0.2150  0.2720
19888OST    PA630397   3.949  12.729   4.143  0.1410 -0.0694  0.2015
19889OST    PA130398   7.864   3.544  13.661 -0.3153  0.0984 -0.0734
19889OST    PA230399   7.947   3.563  14.017  0.2787  0.2846 -0.1701
19889OST    PA330400   7.749   3.786  13.961 -0.0778 -0.1110 -0.4363
19889OST    PA430401   8.012   3.640  14.189  0.2859 -0.1615 -0.0945
19889OST    PA530402   8.020   3.339  14.311  0.0921  0.0112  0.1289
19889OST    PA630403   7.958   3.211  14.120  0.2079 -0.2814 -0.3657
19890OST    PA130404   6.401   3.496   1.605  0.0384  0.0620 -0.0415
19890OST    PA230405   6.574   3.808   1.456 -0.1552 -0.0725  0.1818
19890OST    PA330406   6.623   3.758   1.169 -0.1796  0.1541  0.0048
19890OST    PA430407   6.612   4.000   1.453  0.1099 -0.1015  0.2699
19890OST    PA530408   6.701   4.033   1.765  0.0347 -0.1756 -0.1845
19890OST    PA630409   6.685   3.786   1.807 -0.1504 -0.4700 -0.0532
19891OST    PA130410   4.802   5.561   1.585  0.0861  0.0855 -0.0182
19891OST    PA230411   4.979   5.770   1.334  0.1290  0.0187 -0.2316
19891OST    PA330412   5.168   5.799   1.539 -0.0221  0.2941 -0.4617
19891OST    PA430413   5.095   5.822   1.181 -0.2924  0.0578 -0.5027
19891OST    PA530414   4.869   5.794   0.952 -0.1894  0.3807 -0.0686
19891OST    PA630415   4.705   5.773   1.122 -0.0837 -0.0796 -0.2137
19892OST    PA130416  14.298  11.986  10.907  0.0312 -0.1974  0.0701
19892OST    PA230417  14.138  11.674  10.860  0.0420  0.1283  0.0882
19892OST    PA330418  13.918  11.833  10.698 -0.2696  0.3277  0.1303
19892OST    PA430419  13.993  11.561  10.925 -0.1293  0.4240 -0.0356
19892OST    PA530420  14.208  11.399  11.100  0.1620  0.0155  0.1912
19892OST    PA630421  14.396  11.565  11.050  0.2773 -0.0026  0.3367
19893OST    PA130422   1.963  13.977  10.307 -0.2792 -0.2928 -0.1267
19893OST    PA230423   1.803  13.689  10.408  0.1984 -0.6589 -0.5253
19893OST    PA330424   1.987  13.755  10.654  0.1773 -0.1609  0.1142
19893OST    PA430425   1.732  13.510  10.478 -0.0490 -0.2004 -0.2571
19893OST    PA530426   1.462  13.496  10.304 -0.2068 -0.1244 -0.0742
19893OST    PA630427   1.478  13.744  10.233 -0.1494  0.0394 -0.0556
19894OST    PA130428  11.118  13.710  11.873  0.2514  0.4953 -0.0987
19894OST    PA230429  11.017  13.947  12.121 -0.3938  0.0990  0.1436
19894OST    PA330430  10.876  14.115  11.997  0.2859  0.1264  0.6045
19894OST    PA430431  11.113  14.093  12.267 -0.3493 -0.1986  0.0270
19894OST    PA530432  11.192  13.867  12.469 -0.4102  0.2798  0.1871
19894OST    PA630433  11.157  13.700  12.324  0.0689 -0.1200 -0.4190
19895OST    PA130434  10.258  10.238   1.583  0.3057 -0.0165 -0.0048
19895OST    PA230435  10.457  10.481   1.786  0.0049 -0.1252  0.1671
19895OST    PA330436  10.226  10.639   1.886 -0.1208  0.1906 -0.2688
19895OST    PA430437  10.580  10.507   1.934 -0.1484 -0.1062  0.0075
19895OST    PA530438  10.799  10.372   1.790 -0.0768 -0.4866  0.1180
19895OST    PA630439  10.716  10.358   1.577  0.1607  0.0145  0.1383
19896OST    PA130440   0.900   8.409  10.232 -0.3032 -0.4052  0.0904
19896OST    PA230441   1.200   8.433  10.021 -0.1490 -0.2850 -0.0878
19896OST    PA330442   1.176   8.733  10.062 -0.0346 -0.1721 -0.1116
19896OST    PA430443   1.266   8.453   9.816  0.3619  0.6047 -0.2484
19896OST    PA530444   1.254   8.111   9.861 -0.0637  0.0874  0.2024
19896OST    PA630445   1.262   8.127  10.143  0.2481 -0.1062 -0.1084
19897OST    PA130446  11.888   0.277   3.414 -0.1594 -0.2262 -0.3113
19897OST    PA230447  11.923   0.025   3.697 -0.1363 -0.0482  0.4406
19897OST    PA330448  11.775  -0.196   3.538 -0.1945  0.0715  0.0210
19897OST    PA430449  12.033  -0.107   3.818 -0.0973 -0.0382  0.1368
19897OST    PA530450  12.130   0.077   4.017  0.5077 -0.5780  0.0320
19897OST    PA630451  12.041   0.269   3.938 -0.1315 -0.0951 -0.1182
19898OST    PA130452  10.350   4.155   0.953  0.0941 -0.2705 -0.2892
19898OST    PA230453  10.220   4.271   0.632  0.0764  0.0550  0.1039
19898OST    PA330454  10.286   4.004   0.519  0.3538  0.1376  0.0359
19898OST    PA430455  10.066   4.307   0.542 -0.2014 -0.2126  0.0488
19898OST    PA530456   9.980   4.564   0.682  0.0565 -0.0289 -0.0315
19898OST    PA630457  10.177   4.570   0.806  0.0255  0.2091  0.0237
19899OST    PA130458   6.029   7.362   8.175 -0.3292 -0.1182  0.3538
19899OST    PA230459   5.840   7.507   8.420  0.2166  0.0798  0.0080
19899OST    PA330460   5.615   7.515   8.202 -0.1823 -0.1342 -0.2738
19899OST    PA430461   5.742   7.631   8.568  0.1025  0.1775 -0.0245
19899OST    PA530462   5.908   7.537   8.777 -0.1191  0.1457 -0.3917
19899OST    PA630463   6.040   7.372   8.663 -0.1697 -0.3363  0.1693
19900OST    PA130464   3.525  14.772   4.513  0.0670  0.1794  0.0461
19900OST    PA230465   3.824  14.886   4.675  0.0612  0.2556  0.2013
19900OST    PA330466   3.618  14.893   4.911 -0.5263 -0.0472  0.0813
19900OST    PA430467   3.926  15.007   4.698 -0.0528  0.1547  0.2505
19900OST    PA530468   4.121  14.917   4.473  0.1337  0.2176 -0.5561
19900OST    PA630469   3.985  14.758   4.387  0.0327 -0.4073 -0.1622
19901OST    PA130470   7.154  14.144   3.646  0.0516 -0.2910 -0.1918
19901OST    PA230471   6.856  13.997   3.753 -0.3129  0.2163 -0.1545
19901OST    PA330472   6.772  14.163   3.988 -0.1559  0.3576  0.3935
19901OST    PA430473   6.707  13.899   3.734 -0.3233 -0.2710  0.1114
19901OST    PA530474   6.782  13.583   3.669 -0.0261 -0.6940  0.0127
19901OST    PA630475   7.033  13.698   3.660 -0.2618  0.2374 -0.0915
19902OST    PA130476  14.107   5.195   9.743  0.0665  0.0106  0.0905
19902OST    PA230477  14.316   4.948   9.913  0.0776  0.0235 -0.1045
19902OST    PA330478  14.270   4.693   9.791  0.2206  0.4014 -0.0818
19902OST    PA430479  14.497   4.930   9.978 -0.4059  0.1555 -0.0672
19902OST    PA530480  14.456   5.150  10.224 -0.3508  0.5445  0.1950
19902OST    PA630481  14.252   5.143  10.219 -0.0030 -0.3375  0.1141
19903OST    PA130482   5.686   8.209  11.487 -0.2970  0.2188 -0.0709
19903OST    PA230483   5.557   7.898  11.342 -0.2245  0.0538  0.0468
19903OST    PA330484   5.300   8.060  11.320 -0.0586 -0.1243  0.2589
19903OST    PA430485   5.469   7.727  11.361  0.0569 -0.1177  0.3265
19903OST    PA530486   5.692   7.565  11.519  0.2519  0.1810 -0.4097
19903OST    PA630487   5.837   7.749  11.531  0.1604 -0.0141  0.4345
19904OST    PA130488   9.950   8.987   9.569 -0.0182  0.0090  0.1497
19904OST    PA230489   9.799   9.299   9.669  0.0600 -0.0969 -0.3278
19904OST    PA330490  10.040   9.510   9.662 -0.4511 -0.2592  0.0079
19904OST    PA430491   9.656   9.429   9.762 -0.1902 -0.3413 -0.1552
19904OST    PA530492   9.397   9.239   9.717 -0.1430 -0.1625 -0.2095
19904OST    PA630493   9.511   9.097   9.606  0.3435  0.0528 -0.3319
19905OST    PA130494   0.710   9.799  10.817  0.2093  0.0382  0.2783
19905OST    PA230495   0.525   9.638  11.070 -0.5269  0.1578 -0.0920
19905OST    PA330496   0.694   9.407  11.008 -0.3718  0.1471 -0.2016
19905OST    PA430497   0.370   9.536  11.143  0.4433  0.2565  0.2386
19905OST    PA530498   0.180   9.755  11.216 -0.1323  0.2350 -0.0389
19905OST    PA630499   0.322   9.937  11.154 -0.3080 -0.3108 -0.2268
19906OST    PA130500   4.486  10.028   9.165 -0.0697 -0.1007 -0.0284
19906OST    PA230501   4.134   9.999   9.291  0.0449 -0.3873  0.1564
19906OST    PA330502   4.198   9.704   9.317  0.0010 -0.0190  0.0391
19906OST    PA430503   4.067  10.036   9.474 -0.2988  0.1993 -0.0136
19906OST    PA530504   4.045  10.354   9.518 -0.0985 -0.5617 -0.3165
19906OST    PA630505   4.182  10.354   9.304 -0.3196  0.0614 -0.3142
19907OST    PA130506   1.289   2.096   2.165 -0.0545  0.0240 -0.0357
19907OST    PA230507   1.320   2.304   1.889  0.1532 -0.0635  0.0615
19907OST    PA330508   1.623   2.225   1.923  0.1568 -0.4454 -0.5564
19907OST    PA430509   1.319   2.299   1.709 -0.0158 -0.1554 -0.0438
19907OST    PA530510   1.032   2.456   1.691 -0.1236  0.1855 -0.2716
19907OST    PA630511   1.006   2.480   1.934  0.1085  0.1168 -0.1747
19908OST    PA130512   2.298  14.405   4.057 -0.0517 -0.0733  0.1603
19908OST    PA230513   2.245  14.627   3.768  0.2454 -0.0557 -0.2035
19908OST    PA330514   2.376  14.422   3.650  0.1424  0.6751 -0.2240
19908OST    PA430515   2.363  14.793   3.688  0.3623 -0.1842 -0.1228
19908OST    PA530516   2.198  15.001   3.850 -0.1522  0.0511  0.0228
19908OST    PA630517   2.054  14.849   3.950  0.0084  0.1152  0.0355
19909OST    PA130518  14.725   7.614  13.587  0.3072  0.2821  0.0800
19909OST    PA230519  14.461   7.424  13.710 -0.2432 -0.1826  0.0690
19909OST    PA330520  14.580   7.187  13.623  0.1748  0.2831 -0.4417
19909OST    PA430521  14.323   7.313  13.840 -0.0490  0.1816 -0.2056
19909OST    PA530522  14.317   7.545  14.031 -0.1381 -0.1354 -0.0505
19909OST    PA630523  14.412   7.707  13.912 -0.0622  0.3796  0.2365
19910OST    PA130524   4.574  11.282   2.042 -0.3993  0.2830  0.2276
19910OST    PA230525   4.243  11.323   2.183 -0.3570 -0.0876 -0.0209
19910OST    PA330526   4.240  11.107   2.416  0.0413 -0.0666  0.5116
19910OST    PA430527   4.031  11.376   2.202  0.0239 -0.3936  0.2353
19910OST    PA530528   3.994  11.689   2.164 -0.2365  0.1408 -0.3221
19910OST    PA630529   4.276  11.677   2.168  0.4830  0.3108  0.0994
19911OST    PA130530   9.716   4.167   4.017 -0.0983 -0.5029  0.2698
19911OST    PA230531   9.742   4.014   3.696  0.1430 -0.1188 -0.7233
19911OST    PA330532  10.022   4.123   3.623  0.0877  0.1274 -0.1783
19911OST    PA430533   9.754   3.846   3.588  0.4506 -0.0399  0.0729
19911OST    PA530534   9.449   3.787   3.664 -0.1609 -0.1514  0.0540
19911OST    PA630535   9.396   3.997   3.728 -0.6109  0.1198  0.2864
19912OST    PA130536  15.621  11.618   0.900 -0.2113  0.1060 -0.0336
19912OST    PA230537  15.399  11.615   0.637 -0.1158 -0.2849 -0.1135
19912OST    PA330538  15.383  11.879   0.519  0.2392  0.0950 -0.0029
19912OST    PA430539  15.355  11.525   0.477 -0.0384 -0.2119 -0.2123
19912OST    PA530540  15.137  11.347   0.618  0.2561 -0.1865  0.1614
19912OST    PA630541  15.222  11.407   0.856 -0.0138  0.1398  0.1814
19913OST    PA130542  15.637   3.733   2.850 -0.2212 -0.1007 -0.0483
19913OST    PA230543  15.855   3.717   2.562  0.0116 -0.0948  0.0709
19913OST    PA330544  15.776   3.959   2.425 -0.1829  0.0379  0.1013
19913OST    PA430545  16.038   3.689   2.465 -0.2368  0.2160 -0.1218
19913OST    PA530546  16.106   3.374   2.514  0.1235 -0.3382 -0.0568
19913OST    PA630547  15.932   3.363   2.632 -0.0255  0.4099 -0.3852
19914OST    PA130548  12.452   5.569   9.347 -0.1344 -0.3319  0.2275
19914OST    PA230549  12.747   5.709   9.504  0.2031 -0.0356 -0.0136
19914OST    PA330550  12.546   5.835   9.691 -0.2571 -0.0678 -0.2898
19914OST    PA430551  12.901   5.841   9.573  0.1138  0.0967  0.3100
19914OST    PA530552  13.097   5.678   9.385 -0.0418  0.1834  0.0504
19914OST    PA630553  12.960   5.574   9.258  0.1930 -0.1437  0.2225
19915OST    PA130554  10.252   3.984   3.930 -0.0975  0.1076  0.0233
19915OST    PA230555  10.392   4.108   4.221 -0.4785 -0.2655  0.0507
19915OST    PA330556  10.160   4.273   4.122 -0.1905 -0.0252 -0.2158
19915OST    PA430557  10.511   4.259   4.283 -0.0218 -0.0298  0.0784
19915OST    PA530558  10.752   4.033   4.318 -0.4904 -0.2250 -0.2259
19915OST    PA630559  10.625   3.869   4.232  0.1030  0.4359  0.1053
19916OST    PA130560  12.448  15.301   3.753  0.2145  0.1956 -0.1067
19916OST    PA230561  12.766  15.185   3.726  0.0652 -0.1630  0.1351
19916OST    PA330562  12.657  15.030   3.972  0.4791  0.0238  0.0114
19916OST    PA430563  12.856  15.020   3.637  0.0346 -0.0659 -0.2337
19916OST    PA530564  12.911  15.200   3.372 -0.1141 -0.6027 -0.0254
19916OST    PA630565  12.834  15.396   3.447 -0.0169  0.0824 -0.3431
19917OST    PA130566   6.389   2.584   0.964  0.1366  0.1454  0.1297
19917OST    PA230567   6.589   2.375   1.154 -0.4349  0.0528 -0.0129
19917OST    PA330568   6.362   2.387   1.298  0.1551 -0.0967 -0.5891
19917OST    PA430569   6.715   2.305   1.304  0.1726 -0.0477 -0.0586
19917OST    PA530570   6.945   2.309   1.084 -0.2389 -0.2791 -0.2670
19917OST    PA630571   6.821   2.393   0.902  0.0474 -0.5471 -0.1767
19918OST    PA130572   9.248  14.871   1.436 -0.2675 -0.2331  0.1648
19918OST    PA230573   9.235  15.017   1.755  0.1884  0.3585 -0.0825
19918OST    PA330574   9.378  14.818   1.933  0.3224  0.3444 -0.3939
19918OST    PA430575   9.253  15.166   1.878  0.3738 -0.2033  0.0694
19918OST    PA530576   9.062  15.381   1.758  0.2446  0.3342 -0.3745
19918OST    PA630577   9.004  15.224   1.594 -0.2428  0.0142  0.2122
19919OST    PA130578   7.495   9.496  10.687 -0.1286  0.0083 -0.0238
19919OST    PA230579   7.219   9.227  10.648  0.2382 -0.0687 -0.2210
19919OST    PA330580   7.343   8.999  10.762 -0.1429 -0.1581 -0.1038
19919OST    PA430581   7.096   9.122  10.524 -0.1924 -0.4432 -0.0152
19919OST    PA530582   6.891   9.364  10.578  0.4508 -0.4673  0.3289
19919OST    PA630583   7.012   9.509  10.745  0.1311  0.0693 -0.0310
19920OST    PA130584   6.153   7.514  12.018  0.0604  0.1299  0.0191
19920OST    PA230585   6.499   7.414  12.087  0.0769  0.2325 -0.0646
19920OST    PA330586   6.498   7.669  12.220 -0.2036 -0.1152 -0.0478
19920OST    PA430587   6.640   7.331  12.206 -0.1426  0.2823 -0.3257
19920OST    PA530588   6.659   7.088  12.002  0.2945  0.0358 -0.3152
19920OST    PA630589   6.482   7.171  11.837 -0.0185  0.3641  0.3436
19921OST    PA130590  15.623   5.814   3.084  0.1832 -0.3383  0.2018
19921OST    PA230591  15.338   5.980   3.254  0.1467 -0.1590 -0.3796
19921OST    PA330592  15.550   6.106   3.408  0.5294 -0.2467  0.2284
19921OST    PA430593  15.206   6.136   3.285 -0.0796 -0.0008 -0.2952
19921OST    PA530594  15.068   6.106   2.995 -0.0628  0.2560 -0.1900
19921OST    PA630595  15.162   5.915   2.937 -0.0954  0.2107  0.0104
19922OST    PA130596  13.038   1.762  12.376  0.0695 -0.1341  0.0050
19922OST    PA230597  13.376   1.880  12.292  0.1646 -0.0308 -0.0348
19922OST    PA330598  13.244   1.748  12.066 -0.3503 -0.3687 -0.1215
19922OST    PA430599  13.466   1.993  12.210 -0.0773 -0.3592 -0.1570
19922OST    PA530600  13.670   2.052  12.450 -0.1280 -0.2176  0.0583
19922OST    PA630601  13.556   1.889  12.590 -0.1345  0.0267  0.1455
19923OST    PA130602   5.838   0.287   9.091  0.0457 -0.0872  0.2305
19923OST    PA230603   5.917   0.315   9.434  0.0823 -0.3130 -0.4043
19923OST    PA330604   6.167   0.166   9.414 -0.4506  0.2079  0.0600
19923OST    PA430605   5.875   0.256   9.588  0.5054 -0.1849 -0.0591
19923OST    PA530606   5.601   0.464   9.611 -0.3099 -0.2889 -0.3564
19923OST    PA630607   5.670   0.567   9.391 -0.0235 -0.0377 -0.0848
19924OST    PA130608   7.453   4.168   1.098  0.3613  0.2345  0.2683
19924OST    PA230609   7.156   4.047   1.252  0.1283 -0.0144  0.0795
19924OST    PA330610   7.093   4.174   0.997 -0.5387 -0.2130 -0.1165
19924OST    PA430611   6.974   4.000   1.297 -0.1578  0.7142  0.0678
19924OST    PA530612   7.007   3.914   1.594  0.2464 -0.0652 -0.3910
19924OST    PA630613   7.255   3.937   1.568 -0.2859  0.1573 -0.0807
19925OST    PA130614  12.169   9.532   0.243 -0.1746  0.1471 -0.0169
19925OST    PA230615  11.892   9.712   0.211 -0.2382 -0.2811  0.0822
19925OST    PA330616  11.706   9.792   0.420 -0.1424  0.5745 -0.1150
19925OST    PA430617  11.742   9.731   0.053  0.0943  0.1070  0.1460
19925OST    PA530618  11.955   9.919  -0.126  0.0721 -0.3685  0.2264
19925OST    PA630619  12.130   9.934   0.025 -0.5115 -0.0376  0.3371
19926OST    PA130620  12.384  14.804   1.949  0.3896  0.0268  0.0590
19926OST    PA230621  12.142  14.724   1.703 -0.4677  0.0672 -0.1947
19926OST    PA330622  12.204  14.925   1.513  0.0352  0.2545  0.3282
19926OST    PA430623  12.044  14.579   1.548 -0.0855 -0.0013 -0.0625
19926OST    PA530624  11.873  14.426   1.744 -0.0188  0.1523 -0.3539
19926OST    PA630625  11.939  14.518   1.944  0.1560 -0.4000 -0.1933
19927OST    PA130626  12.081  12.816   1.430 -0.2103 -0.1652  0.0475
19927OST    PA230627  12.211  13.145   1.310  0.1499  0.4235  0.0425
19927OST    PA330628  12.211  13.260   1.597  0.1266  0.1809  0.0632
19927OST    PA430629  12.151  13.308   1.228 -0.2553 -0.4184 -0.0605
19927OST    PA530630  12.031  13.210   1.007  0.2352  0.0054  0.6998
19927OST    PA630631  12.120  12.985   1.013 -0.1082 -0.0399  0.2803
19928OST    PA130632   0.283   4.157  11.375  0.1438 -0.1050 -0.1124
19928OST    PA230633   0.286   3.815  11.207  0.3833 -0.0070 -0.1853
19928OST    PA330634  -0.009   3.874  11.185  0.0959 -0.4983  0.2226
19928OST    PA430635   0.292   3.709  11.043 -0.0543  0.1312 -0.0989
19928OST    PA530636   0.597   3.642  11.100 -0.2621  0.0555  0.5459
19928OST    PA630637   0.594   3.732  11.340  0.0066  0.0716 -0.0384
19929OST    PA130638  12.284  14.686   8.762 -0.1797 -0.0498  0.2772
19929OST    PA230639  12.532  14.658   8.974 -0.1038  0.0501 -0.0938
19929OST    PA330640  12.661  14.436   8.822  0.2173 -0.2440 -0.3394
19929OST    PA430641  12.635  14.601   9.132  0.2938 -0.0405  0.0217
19929OST    PA530642  12.690  14.921   9.199 -0.4623  0.5459 -0.3716
19929OST    PA630643  12.569  15.019   8.997 -0.2151  0.0685 -0.0069
19930OST    PA130644   5.817   2.762   3.675  0.0957 -0.1251 -0.3303
19930OST    PA230645   5.543   2.939   3.621  0.1493 -0.1437  0.0050
19930OST    PA330646   5.649   3.167   3.787 -0.0909 -0.2777 -0.2366
19930OST    PA430647   5.364   2.989   3.626  0.2180  0.2568 -0.2289
19930OST    PA530648   5.291   2.803   3.379  0.4214  0.0563 -0.6068
19930OST    PA630649   5.525   2.746   3.346 -0.1788 -0.0468 -0.0828
19931OST    PA130650  13.809  11.774   0.781 -0.0679  0.0989  0.0519
19931OST    PA230651  14.002  11.526   0.613  0.1843  0.2749 -0.1132
19931OST    PA330652  13.713  11.438   0.536 -0.1689 -0.1005  0.1816
19931OST    PA430653  14.074  11.347   0.605 -0.1883 -0.2604 -0.3732
19931OST    PA530654  14.366  11.430   0.670 -0.0609  0.0400  0.1156
19931OST    PA630655  14.337  11.682   0.685 -0.1187  0.2515  0.0838
19932OST    PA130656   7.319   3.386  10.678  0.1414  0.0088 -0.2582
19932OST    PA230657   7.378   3.032  10.696 -0.1667 -0.0983 -0.2334
19932OST    PA330658   7.323   3.011  10.431 -0.2398 -0.4668  0.2418
19932OST    PA430659   7.464   2.819  10.725 -0.3384 -0.3560  0.1672
19932OST    PA530660   7.468   2.908  11.045 -0.4750  0.2450  0.4440
19932OST    PA630661   7.374   3.121  11.037 -0.0922  0.3286  0.0968
19933OST    PA130662   7.743   1.054   0.323  0.1401 -0.0156 -0.0675
19933OST    PA230663   7.733   1.328   0.569  0.3092  0.1998 -0.0243
19933OST    PA330664   7.520   1.208   0.741  0.4406  0.2124  0.1447
19933OST    PA430665   7.701   1.521   0.635 -0.2129  0.1662  0.1316
19933OST    PA530666   7.950   1.632   0.441 -0.4791 -0.1105  0.2330
19933OST    PA630667   8.031   1.426   0.377  0.1786  0.0875  0.1267
19934OST    PA130668   3.844   4.600   7.625  0.0604  0.1463  0.0345
19934OST    PA230669   3.979   4.570   7.290  0.0731 -0.0314 -0.0026
19934OST    PA330670   3.771   4.362   7.258  0.4071 -0.2390  0.2236
19934OST    PA430671   4.080   4.511   7.135 -0.1204 -0.4262  0.0787
19934OST    PA530672   4.325   4.656   7.239  0.2406 -0.0530  0.1599
19934OST    PA630673   4.271   4.718   7.442 -0.0925  0.1335  0.0716
19935OST    PA130674   9.829   0.873   3.243  0.4050  0.1003 -0.1802
19935OST    PA230675   9.517   0.831   3.419 -0.1232 -0.0650 -0.2137
19935OST    PA330676   9.663   0.575   3.496 -0.0828 -0.0194  0.2052
19935OST    PA430677   9.327   0.764   3.402  0.0006 -0.1988  0.2292
19935OST    PA530678   9.234   1.089   3.337 -0.4595  0.3856 -0.1075
19935OST    PA630679   9.483   1.164   3.404  0.0199 -0.1557  0.1070
19936OST    PA130680  10.913   7.881  12.080 -0.2370 -0.0910  0.0817
19936OST    PA230681  11.114   8.134  11.893 -0.1031 -0.1250 -0.1105
19936OST    PA330682  11.290   7.924  11.966  0.2088  0.0914  0.3002
19936OST    PA430683  11.261   8.285  11.890 -0.1359 -0.3901 -0.2207
19936OST    PA530684  11.028   8.510  11.959  0.3094 -0.0968 -0.3514
19936OST    PA630685  10.839   8.344  11.951 -0.0559 -0.0979  0.2108
19937OST    PA130686   0.207   8.174  11.260  0.2124 -0.1331 -0.2573
19937OST    PA230687   0.381   8.414  11.067 -0.2560 -0.0469 -0.1192
19937OST    PA330688   0.293   8.256  10.831  0.2914 -0.0544 -0.1227
19937OST    PA430689   0.552   8.473  10.980 -0.2459  0.3882 -0.1103
19937OST    PA530690   0.533   8.771  11.140  0.2243  0.4164  0.1620
19937OST    PA630691   0.313   8.739  11.226  0.0867 -0.1750  0.3334
19938OST    PA130692   9.482   9.787   2.022  0.1476 -0.2781 -0.1549
19938OST    PA230693   9.700   9.913   2.299  0.1525  0.0223 -0.1698
19938OST    PA330694   9.910   9.729   2.233 -0.0879  0.2305  0.2446
19938OST    PA430695   9.848  10.076   2.339 -0.0152 -0.1046  0.0314
19938OST    PA530696   9.644  10.311   2.303 -0.4268 -0.0539  0.3238
19938OST    PA630697   9.462  10.215   2.253 -0.3458 -0.0977  0.1227
19939OST    PA130698   2.890   2.060   3.552  0.3432  0.0161 -0.0727
19939OST    PA230699   2.690   2.231   3.303  0.0492  0.2786 -0.5101
19939OST    PA330700   2.967   2.289   3.213 -0.2888  0.5513  0.2774
19939OST    PA430701   2.590   2.301   3.154  0.1639  0.1191  0.0208
19939OST    PA530702   2.325   2.315   3.342  0.0051 -0.4400  0.0423
19939OST    PA630703   2.427   2.336   3.556 -0.1161  0.1765 -0.2363
19940OST    PA130704   8.959   6.307   0.749 -0.0520  0.2677 -0.0225
19940OST    PA230705   8.837   6.518   0.996  0.0321 -0.4926 -0.1418
19940OST    PA330706   8.728   6.291   1.100  0.0387 -0.7619 -0.5786
19940OST    PA430707   8.889   6.588   1.184  0.3120 -0.0969 -0.3846
19940OST    PA530708   8.978   6.871   1.086  0.4797 -0.1529 -0.0444
19940OST    PA630709   8.933   6.809   0.826 -0.1308 -0.0761  0.1337
19941OST    PA130710  14.577  15.677   2.702 -0.1279  0.0695  0.0856
19941OST    PA230711  14.796  15.912   2.868 -0.0590 -0.1382 -0.4704
19941OST    PA330712  14.548  15.940   3.023  0.1380  0.4229  0.0567
19941OST    PA430713  14.840  16.110   2.883 -0.1380  0.0047  0.1435
19941OST    PA530714  15.029  16.060   2.642  0.2980 -0.1783  0.4799
19941OST    PA630715  15.016  15.819   2.565  0.2622 -0.3791  0.1126
19942OST    PA130716   1.304  13.328  11.140 -0.0275  0.0446  0.2659
19942OST    PA230717   1.221  13.279  11.474  0.2678  0.1220 -0.0660
19942OST    PA330718   1.452  13.118  11.494 -0.4458  0.6038 -0.5118
19942OST    PA430719   1.156  13.240  11.668 -0.1874  0.3061  0.2554
19942OST    PA530720   0.867  13.342  11.626 -0.2628 -0.3914  0.2111
19942OST    PA630721   0.870  13.371  11.388  0.0465  0.0042 -0.0085
19943OST    PA130722  10.964   8.673  10.153 -0.0519 -0.1778 -0.2731
19943OST    PA230723  11.210   8.867  10.268 -0.1512 -0.2794 -0.2956
19943OST    PA330724  11.403   8.685  10.161 -0.6705  0.1114  0.4305
19943OST    PA430725  11.352   9.044  10.272  0.2495  0.0363 -0.0627
19943OST    PA530726  11.143   9.274  10.348 -0.2973 -0.2121 -0.1365
19943OST    PA630727  10.977   9.119  10.360  0.3196  0.0197 -0.2348
19944OST    PA130728   5.744   7.664   1.537 -0.1783 -0.1276 -0.1341
19944OST    PA230729   5.475   7.763   1.748 -0.0723 -0.0730 -0.0742
19944OST    PA330730   5.257   7.722   1.573  0.0237  0.1789  0.4725
19944OST    PA430731   5.353   7.865   1.884 -0.2904 -0.0970  0.0778
19944OST    PA530732   5.557   7.851   2.126 -0.0117  0.0625  0.3013
19944OST    PA630733   5.694   7.701   2.050  0.0929 -0.3205  0.0814
19945OST    PA130734  12.601  14.315   9.519 -0.3726 -0.0604  0.1371
19945OST    PA230735  12.254  14.296   9.496 -0.1456 -0.1322  0.2086
19945OST    PA330736  12.197  14.220   9.768 -0.1947 -0.1857  0.0246
19945OST    PA430737  12.058  14.252   9.445 -0.1584 -0.2185  0.0427
19945OST    PA530738  12.035  14.445   9.206  0.3710 -0.6473  0.0757
19945OST    PA630739  12.232  14.522   9.243 -0.1139 -0.2904  0.2032
19946OST    PA130740  12.327  12.896   2.630 -0.1270 -0.0990 -0.1869
19946OST    PA230741  12.139  12.871   2.957  0.3858  0.4340  0.1863
19946OST    PA330742  12.195  13.063   3.133 -0.2907 -0.0218  0.3915
19946OST    PA430743  12.118  12.715   3.098  0.0128  0.0493 -0.0042
19946OST    PA530744  11.860  12.626   2.949 -0.3575 -0.2357 -0.2329
19946OST    PA630745  11.885  12.684   2.749  0.0670 -0.2011 -0.0262
19947OST    PA130746   2.680  15.724  10.877  0.2050  0.4049  0.1880
19947OST    PA230747   2.390  15.564  10.750 -0.0926 -0.3347 -0.0401
19947OST    PA330748   2.206  15.796  10.841  0.3965 -0.0254  0.0851
19947OST    PA430749   2.264  15.482  10.646 -0.4979 -0.1044  0.0855
19947OST    PA530750   2.392  15.186  10.693 -0.1142 -0.1157  0.3042
19947OST    PA630751   2.537  15.251  10.865  0.0532 -0.0643  0.2296
19948OST    PA130752   1.744   4.194  12.458  0.1895 -0.0579  0.0276
19948OST    PA230753   1.431   4.121  12.353  0.1687 -0.1842  0.3144
19948OST    PA330754   1.335   4.276  12.573  0.0534  0.1835 -0.2573
19948OST    PA430755   1.282   4.142  12.240  0.0197 -0.1063  0.0348
19948OST    PA530756   1.456   3.994  11.997  0.4768 -0.4743  0.1188
19948OST    PA630757   1.628   3.956  12.089 -0.0088 -0.0984  0.0314
19949OST    PA130758  11.573  13.836   2.075 -0.0659 -0.1618  0.0437
19949OST    PA230759  11.661  13.716   1.760 -0.2835 -0.1377  0.1414
19949OST    PA330760  11.502  13.446   1.839  0.0977  0.0585  0.1529
19949OST    PA430761  11.611  13.743   1.570 -0.1496  0.0582  0.0310
19949OST    PA530762  11.826  13.970   1.580  0.3805 -0.6085  0.3353
19949OST    PA630763  11.913  13.989   1.769  0.0361  0.1033 -0.0703
19950OST    PA130764  10.181   8.314  12.794  0.3107  0.0067  0.3398
19950OST    PA230765  10.202   8.338  12.429  0.1170 -0.2746  0.1662
19950OST    PA330766   9.960   8.242  12.485  0.1124  0.1229 -0.1206
19950OST    PA430767  10.160   8.414  12.234  0.3963 -0.0564 -0.0506
19950OST    PA530768  10.361   8.696  12.312  0.0889 -0.0474 -0.1976
19950OST    PA630769  10.442   8.640  12.494 -0.0117 -0.1300  0.4686
19951OST    PA130770   7.118  10.380  10.889  0.1575  0.3053  0.0454
19951OST    PA230771   7.333  10.355  11.182  0.1914 -0.0208  0.2181
19951OST    PA330772   7.577  10.277  11.033  0.4059  0.6429 -0.3829
19951OST    PA430773   7.428  10.403  11.371 -0.0172  0.2785  0.4804
19951OST    PA530774   7.202  10.547  11.573 -0.0172 -0.1611 -0.3667
19951OST    PA630775   7.074  10.536  11.400 -0.1183 -0.0972  0.2720
19952OST    PA130776  11.368  15.708   3.401 -0.1144  0.3889 -0.2188
19952OST    PA230777  11.006  15.724   3.406 -0.0961  0.1720 -0.0991
19952OST    PA330778  10.957  15.764   3.128  0.2301 -0.0397 -0.4450
19952OST    PA430779  10.840  15.818   3.490 -0.1642  0.1570  0.0330
19952OST    PA530780  10.876  15.711   3.766  0.2263 -0.0472 -0.2200
19952OST    PA630781  11.022  15.531   3.705  0.0963  0.1473 -0.0362
19953OST    PA130782   2.148   6.604  10.134 -0.2825 -0.1421  0.2703
19953OST    PA230783   2.079   6.859   9.905  0.0555 -0.2062  0.3396
19953OST    PA330784   1.947   6.952  10.156  0.3930 -0.0855  0.3276
19953OST    PA430785   1.940   6.963   9.757 -0.1359  0.1154 -0.0459
19953OST    PA530786   2.067   6.801   9.513  0.0564  0.1188  0.0216
19953OST    PA630787   2.231   6.647   9.654 -0.3062  0.0439  0.3711
19954OST    PA130788  15.447   6.626   9.393  0.2038  0.1209 -0.2508
19954OST    PA230789  15.611   6.854   9.177 -0.1318  0.0635  0.1356
19954OST    PA330790  15.626   7.103   9.336  0.1839  0.2121  0.1394
19954OST    PA430791  15.602   6.959   8.976 -0.5175 -0.1841 -0.4986
19954OST    PA530792  15.689   6.741   8.759  0.4392 -0.1077 -0.2518
19954OST    PA630793  15.697   6.573   8.945 -0.0552  0.0679 -0.2336
19955OST    PA130794  10.585   3.723   0.097  0.1105 -0.1037 -0.1199
19955OST    PA230795  10.240   3.776   0.062  0.1171 -0.5100  0.0141
19955OST    PA330796  10.062   3.691   0.289  0.1331  0.2121  0.1081
19955OST    PA430797  10.142   3.639  -0.076 -0.1691 -0.0225 -0.1988
19955OST    PA530798  10.237   3.836  -0.307 -0.0141  0.1351 -0.0933
19955OST    PA630799  10.258   4.053  -0.213 -0.5272  0.1449  0.1201
19956OST    PA130800  15.465   4.369   9.118  0.0420  0.0275  0.1059
19956OST    PA230801  15.578   4.307   9.464 -0.1805 -0.1192  0.1690
19956OST    PA330802  15.323   4.157   9.462  0.4999 -0.1021 -0.0014
19956OST    PA430803  15.684   4.158   9.562  0.2182 -0.0981  0.1933
19956OST    PA530804  15.968   4.244   9.482 -0.1097 -0.4341  0.3779
19956OST    PA630805  15.891   4.444   9.354  0.0919  0.3277 -0.1813
19957OST    PA130806   5.664   2.587   2.510  0.1129  0.2843  0.0188
19957OST    PA230807   5.518   2.331   2.735  0.1165 -0.1212  0.3190
19957OST    PA330808   5.610   2.482   2.984 -0.0804 -0.5462 -0.0601
19957OST    PA430809   5.541   2.157   2.823 -0.0566  0.0642 -0.0191
19957OST    PA530810   5.700   2.037   2.564  0.1195  0.0810  0.0544
19957OST    PA630811   5.513   2.098   2.431  0.5372  0.1062  0.1521
19958OST    PA130812  14.190   9.023   9.479  0.0330  0.0178  0.2539
19958OST    PA230813  14.108   8.858   9.775 -0.3061  0.2514 -0.0025
19958OST    PA330814  14.277   8.662   9.676  0.1150  0.0618  0.4551
19958OST    PA430815  14.002   8.725   9.900 -0.0319  0.3582 -0.1993
19958OST    PA530816  13.753   8.908   9.892 -0.3866 -0.7501  0.4979
19958OST    PA630817  13.830   9.074   9.753  0.1292  0.1137  0.0196
19959OST    PA130818   6.916  12.148   0.605  0.0473 -0.1684 -0.0689
19959OST    PA230819   6.766  12.007   0.321  0.1455  0.3489 -0.0097
19959OST    PA330820   6.746  11.710   0.353 -0.1874  0.2929  0.1329
19959OST    PA430821   6.570  12.045   0.203 -0.0495  0.4024 -0.0278
19959OST    PA530822   6.699  12.244  -0.008 -0.4550 -0.2617 -0.2802
19959OST    PA630823   6.893  12.233   0.112  0.0613  0.0214  0.0539
19960OST    PA130824   1.302   9.645   9.176  0.1236  0.1544  0.1046
19960OST    PA230825   1.335   9.906   8.953  0.0977  0.1175 -0.3825
19960OST    PA330826   1.111   9.825   8.775  0.2132  0.0218 -0.2850
19960OST    PA430827   1.414  10.035   8.823 -0.1256  0.2523  0.3182
19960OST    PA530828   1.708  10.121   8.928  0.2536  0.2289 -0.0566
19960OST    PA630829   1.658   9.991   9.120 -0.2090  0.0957  0.6044
19961OST    PA130830   3.031   5.056  12.783  0.1483  0.0910  0.1445
19961OST    PA230831   3.274   5.288  12.864  0.2492  0.3007 -0.0967
19961OST    PA330832   3.424   5.222  12.630  0.0458  0.2082  0.4026
19961OST    PA430833   3.449   5.355  12.965 -0.1263 -0.1354 -0.3597
19961OST    PA530834   3.292   5.637  13.032 -0.2130 -0.0861  0.2903
19961OST    PA630835   3.073   5.547  12.944  0.0320  0.1755 -0.0892
19962OST    PA130836   2.916  15.288  13.490  0.0766  0.0210  0.0908
19962OST    PA230837   2.981  15.232  13.851 -0.0682  0.1457 -0.2051
19962OST    PA330838   3.227  15.076  13.861 -0.4117  0.1085 -0.0936
19962OST    PA430839   2.910  15.167  14.017 -0.0350  0.0352 -0.2076
19962OST    PA530840   2.728  15.435  14.049 -0.2495  0.4201  0.0120
19962OST    PA630841   2.867  15.563  13.943 -0.1410  0.2176 -0.0793
19963OST    PA130842  10.426   4.208   0.213 -0.0648 -0.2009 -0.0624
19963OST    PA230843  10.656   4.254   0.512  0.2328  0.1122  0.6139
19963OST    PA330844  10.696   3.959   0.536  0.1951  0.1616 -0.2818
19963OST    PA430845  10.851   4.290   0.507  0.3019  0.0892  0.0901
19963OST    PA530846  10.808   4.616   0.429 -0.0507  0.3732  0.1660
19963OST    PA630847  10.576   4.574   0.450  0.0561 -0.0630  0.0938
19964OST    PA130848   8.056   4.994  12.054 -0.1761 -0.0021  0.1999
19964OST    PA230849   7.766   4.809  12.086  0.0577 -0.1563  0.3757
19964OST    PA330850   7.845   4.711  11.836  0.1470 -0.3184  0.4332
19964OST    PA430851   7.670   4.651  12.141 -0.1554  0.0238 -0.0507
19964OST    PA530852   7.632   4.777  12.452  0.2798  0.3027  0.3582
19964OST    PA630853   7.713   5.000  12.413  0.1452 -0.1144  0.2933
19965OST    PA130854  10.954   1.688  10.811 -0.1605  0.1922 -0.2413
19965OST    PA230855  11.169   1.928  10.700  0.2817 -0.2697 -0.2269
19965OST    PA330856  11.132   2.065  10.960 -0.0349 -0.1835 -0.2380
19965OST    PA430857  11.374   1.973  10.692  0.0512  0.2487  0.0280
19965OST    PA530858  11.370   1.990  10.378 -0.3654 -0.6367  0.3634
19965OST    PA630859  11.118   1.954  10.370  0.0784 -0.1624 -0.0312
19966OST    PA130860  10.285   2.994  11.984 -0.0593 -0.0917 -0.0694
19966OST    PA230861  10.305   2.728  12.224  0.2058 -0.2413  0.0398
19966OST    PA330862  10.267   2.969  12.390  0.3711 -0.0020  0.2060
19966OST    PA430863  10.323   2.609  12.358  0.1492 -0.1370 -0.3885
19966OST    PA530864  10.411   2.368  12.185  0.5084 -0.2657  0.2930
19966OST    PA630865  10.428   2.514  11.979 -0.5817 -0.0466  0.1697
19967OST    PA130866   0.563   5.031   3.252  0.1038  0.2138  0.4489
19967OST    PA230867   0.571   4.868   3.567 -0.4063 -0.2263 -0.1986
19967OST    PA330868   0.309   4.973   3.623  0.1237  0.0778  0.2773
19967OST    PA430869   0.565   4.724   3.698 -0.1246  0.1003  0.3094
19967OST    PA530870   0.865   4.782   3.825  0.3109 -0.1614  0.4722
19967OST    PA630871   0.918   4.907   3.639  0.2081  0.1113  0.0708
19968OST    PA130872  13.076  15.184   8.520  0.1791  0.2015 -0.1135
19968OST    PA230873  12.863  14.939   8.703  0.0064  0.0457  0.2663
19968OST    PA330874  12.631  14.929   8.568  0.0724  0.3327 -0.0569
19968OST    PA430875  12.874  14.717   8.732 -0.0623 -0.1457 -0.0289
19968OST    PA530876  12.987  14.789   9.021  0.1624  0.0423 -0.4072
19968OST    PA630877  12.995  15.065   9.027  0.1204  0.0540  0.4661
19969OST    PA130878  10.448   6.186   4.926  0.3296  0.2089  0.1395
19969OST    PA230879  10.160   6.442   4.939 -0.1827 -0.0487  0.1442
19969OST    PA330880  10.234   6.494   5.216 -0.5274 -0.4505 -0.0398
19969OST    PA430881  10.105   6.634   4.904  0.2623  0.0494 -0.1345
19969OST    PA530882  10.038   6.616   4.604 -0.1333 -0.0617 -0.2414
19969OST    PA630883  10.139   6.363   4.602 -0.0755  0.0604 -0.0336
19970OST    PA130884   6.933  11.256   2.061 -0.1928 -0.2951 -0.3287
19970OST    PA230885   7.147  11.306   2.357  0.0106 -0.2463  0.5103
19970OST    PA330886   7.022  11.461   2.543  0.2493  0.0137 -0.2389
19970OST    PA430887   7.335  11.328   2.431 -0.0805  0.2105  0.0415
19970OST    PA530888   7.435  11.051   2.359  0.0872  0.0195  0.0004
19970OST    PA630889   7.228  10.944   2.286  0.3337 -0.0117  0.0030
19971OST    PA130890   6.652   0.561   3.366 -0.0406 -0.2406  0.0825
19971OST    PA230891   6.794   0.253   3.462  0.1217 -0.2235  0.0511
19971OST    PA330892   6.516   0.200   3.592 -0.5718  0.2509 -0.1115
19971OST    PA430893   6.818   0.047   3.417 -0.1520 -0.3128 -0.0381
19971OST    PA530894   7.075   0.065   3.210  0.1716 -0.0904 -0.3758
19971OST    PA630895   7.078   0.327   3.235  0.0276  0.3433 -0.1945
19972OST    PA130896  12.567   5.905   4.523  0.0591  0.1814  0.2241
19972OST    PA230897  12.619   5.918   4.173 -0.0262  0.4240  0.1046
19972OST    PA330898  12.582   6.209   4.199 -0.2819 -0.1495 -0.1036
19972OST    PA430899  12.767   5.925   4.033 -0.0709  0.1582  0.0408
19972OST    PA530900  12.881   5.628   4.045 -0.0311 -0.2405 -0.0025
19972OST    PA630901  12.740   5.571   4.206 -0.1245 -0.2866  0.2691
19973OST    PA130902   9.365  12.043   5.289  0.0289 -0.2700 -0.1683
19973OST    PA230903   9.151  11.931   5.036 -0.1382 -0.1409 -0.1466
19973OST    PA330904   9.229  12.242   4.979 -0.2248  0.2123  0.0679
19973OST    PA430905   9.127  11.876   4.870  0.2609 -0.2581  0.0781
19973OST    PA530906   8.927  11.619   4.941 -0.3566 -0.1166  0.1231
19973OST    PA630907   9.032  11.638   5.180 -0.3699 -0.1182 -0.1776
19974OST    PA130908   3.175  12.778   3.121  0.1959  0.0354  0.2135
19974OST    PA230909   2.954  13.072   3.057  0.2206 -0.5313  0.1877
19974OST    PA330910   2.780  13.011   3.306  0.3167  0.1555 -0.0480
19974OST    PA430911   2.854  13.204   2.996  0.1489 -0.1747  0.0205
19974OST    PA530912   3.104  13.419   2.947 -0.2190  0.1729  0.3691
19974OST    PA630913   3.260  13.258   3.001  0.1690  0.2952 -0.1201
19975OST    PA130914  13.111   2.333   4.792 -0.0253 -0.1854 -0.1933
19975OST    PA230915  12.931   2.222   4.524 -0.0678 -0.1114  0.2528
19975OST    PA330916  13.032   1.945   4.649  0.6422 -0.2521 -0.0870
19975OST    PA430917  12.798   2.128   4.419  0.3454 -0.0963 -0.3852
19975OST    PA530918  12.564   2.336   4.439  0.0392  0.3336  0.2414
19975OST    PA630919  12.711   2.498   4.564 -0.0845  0.2426  0.0336
19976OST    PA130920   3.873   4.164  11.709 -0.0011 -0.2222  0.0668
19976OST    PA230921   3.697   3.937  11.916  0.0036 -0.0598  0.0482
19976OST    PA330922   3.444   3.992  11.783 -0.2663  0.2414 -0.1412
19976OST    PA430923   3.625   3.817  12.035  0.2901 -0.0541 -0.2876
19976OST    PA530924   3.794   3.955  12.280 -0.0946  0.4674  0.1118
19976OST    PA630925   3.987   4.002  12.132 -0.0309  0.1412 -0.0094
19977OST    PA130926   2.679   3.392  12.246 -0.2652 -0.3757  0.1961
19977OST    PA230927   2.697   3.573  11.932  0.0719  0.3047  0.0476
19977OST    PA330928   2.717   3.321  11.795  0.3029  0.5577  0.3452
19977OST    PA430929   2.660   3.680  11.768 -0.5373 -0.0965  0.3982
19977OST    PA530930   2.405   3.837  11.895 -0.1281 -0.0359 -0.0007
19977OST    PA630931   2.413   3.738  12.073  0.0040  0.1805 -0.0125
19978OST    PA130932   0.559   2.493   9.350  0.1374 -0.0610  0.2437
19978OST    PA230933   0.751   2.767   9.189 -0.0945  0.1582  0.0739
19978OST    PA330934   0.485   2.882   9.282  0.1895 -0.1555  0.4172
19978OST    PA430935   0.765   2.853   9.031 -0.1540 -0.0606  0.0647
19978OST    PA530936   1.027   2.698   8.955 -0.0075  0.0650 -0.0559
19978OST    PA630937   1.064   2.575   9.122  0.3853  0.0534 -0.2103
19979OST    PA130938   8.834   4.119  11.083  0.0477 -0.1449 -0.2055
19979OST    PA230939   8.978   4.128  11.430  0.1733  0.0071  0.0645
19979OST    PA330940   8.714   4.221  11.517 -0.0337 -0.0482  0.1690
19979OST    PA430941   9.035   4.118  11.622  0.0188 -0.1243  0.1867
19979OST    PA530942   9.300   4.042  11.564 -0.1326 -0.5454 -0.1746
19979OST    PA630943   9.299   4.067  11.344  0.2217  0.3408  0.2576
19980OST    PA130944  15.574   6.399  10.245 -0.4174 -0.3637 -0.1237
19980OST    PA230945  15.495   6.252   9.936 -0.0912 -0.3416 -0.4404
19980OST    PA330946  15.668   6.458   9.777 -0.4903  0.3348 -0.0840
19980OST    PA430947  15.420   6.191   9.768  0.4766 -0.0168 -0.1531
19980OST    PA530948  15.220   5.977   9.885 -0.1871  0.7438  0.0731
19980OST    PA630949  15.212   6.085  10.101 -0.0181  0.0590  0.0826
19981OST    PA130950  14.761   5.612   9.286  0.0369 -0.2685 -0.0217
19981OST    PA230951  14.559   5.345   9.370  0.6422  0.1245 -0.4003
19981OST    PA330952  14.298   5.466   9.440 -0.1087 -0.2795 -0.1969
19981OST    PA430953  14.474   5.137   9.427 -0.1782 -0.1185 -0.2322
19981OST    PA530954  14.732   5.004   9.570 -0.0237  0.2942  0.0502
19981OST    PA630955  14.883   5.190   9.539  0.2038 -0.0767 -0.1485
19982OST    PA130956   0.149   9.725  10.505 -0.2363  0.2916 -0.3264
19982OST    PA230957   0.107   9.914  10.794 -0.0599  0.0622 -0.0975
19982OST    PA330958   0.117  10.144  10.641  0.0462  0.2990 -0.3694
19982OST    PA430959  -0.024   9.997  10.945 -0.0357 -0.2582  0.3916
19982OST    PA530960  -0.152   9.724  11.029  0.0456  0.1105  0.1951
19982OST    PA630961  -0.046   9.598  10.905 -0.0159  0.1254 -0.1499
19983OST    PA130962  10.321  13.764   4.594 -0.1243  0.1125 -0.0257
19983OST    PA230963  10.653  13.795   4.441 -0.1263  0.0316 -0.1727
19983OST    PA330964  10.656  14.064   4.549 -0.2465 -0.0925 -0.4440
19983OST    PA430965  10.858  13.761   4.514  0.3216 -0.1434  0.5399
19983OST    PA530966  10.875  13.556   4.278  0.0793  0.4245  0.3595
19983OST    PA630967  10.674  13.564   4.158  0.2726 -0.1367 -0.1088
19984OST    PA130968   1.651   6.002   9.867  0.4455 -0.0008  0.2350
19984OST    PA230969   1.726   6.347   9.771 -0.2631  0.0731  0.0481
19984OST    PA330970   1.928   6.327   9.957  0.0014 -0.5804  0.2579
19984OST    PA430971   1.838   6.501   9.646  0.6028 -0.2639  0.2684
19984OST    PA530972   1.570   6.495   9.465  0.3010 -0.0359  0.1116
19984OST    PA630973   1.429   6.378   9.609  0.3802  0.2208 -0.0610
19985OST    PA130974   2.830  10.054   9.271  0.0047 -0.0435  0.1437
19985OST    PA230975   2.715  10.091   8.926 -0.3739 -0.5116 -0.1493
19985OST    PA330976   2.726  10.410   8.955  0.1825  0.4935  0.0601
19985OST    PA430977   2.636  10.100   8.740 -0.2786 -0.1261 -0.0714
19985OST    PA530978   2.805   9.866   8.619 -0.2414 -0.3375 -0.1812
19985OST    PA630979   2.922   9.803   8.835 -0.3234 -0.1508  0.0788
19986OST    PA130980  13.658   0.640   1.909  0.1793 -0.0325  0.1273
19986OST    PA230981  13.703   0.285   1.919 -0.0617  0.1741 -0.0142
19986OST    PA330982  13.991   0.401   1.933  0.5544  0.2954 -0.3006
19986OST    PA430983  13.751   0.093   1.995 -0.2764 -0.0849 -0.2357
19986OST    PA530984  13.443   0.001   2.021 -0.0909 -0.1096 -0.1648
19986OST    PA630985  13.352   0.237   1.965 -0.1467  0.0562  0.0976
19987OST    PA130986   5.614  15.371   9.851 -0.4247  0.0078 -0.1363
19987OST    PA230987   5.832  15.101   9.990  0.5858  0.1980  0.0009
19987OST    PA330988   5.657  14.881   9.913  0.2091  0.1213  0.5685
19987OST    PA430989   5.887  15.004  10.149 -0.1652  0.0411 -0.4218
19987OST    PA530990   6.148  15.155  10.228  0.2750 -0.2599  0.4172
19987OST    PA630991   6.118  15.273  10.034 -0.2059  0.0847 -0.3956
19988OST    PA130992   2.857   6.032  12.658 -0.2048 -0.1616 -0.0490
19988OST    PA230993   3.149   5.831  12.577  0.6150 -0.1103  0.2425
19988OST    PA330994   3.265   5.925  12.834 -0.3152  0.2076  0.2350
19988OST    PA430995   3.255   5.636  12.571  0.1430 -0.0021  0.0473
19988OST    PA530996   3.171   5.599  12.279 -0.1208  0.2288  0.4027
19988OST    PA630997   3.028   5.792  12.245  0.1455  0.1437  0.0719
19989OST    PA130998   5.553  14.011   4.239  0.0239 -0.0815  0.4129
19989OST    PA230999   5.551  13.895   3.888  0.0534  0.0646  0.0810
19989OST    PA331000   5.392  14.141   3.864  0.0570 -0.0012  0.0442
19989OST    PA431001   5.401  13.759   3.782 -0.2058 -0.3225 -0.0499
19989OST    PA531002   5.619  13.554   3.697  0.0060  0.3288 -0.3699
19989OST    PA631003   5.771  13.610   3.882 -0.0418  0.2055 -0.0213
19990OST    PA131004   5.979   8.123   8.490 -0.1072  0.2706 -0.1132
19990OST    PA231005   6.078   8.178   8.827 -0.2053  0.2506 -0.1378
19990OST    PA331006   6.027   7.888   8.789  0.4627  0.3567  0.2353
19990OST    PA431007   6.116   8.167   9.009  0.1090 -0.2300  0.1795
19990OST    PA531008   5.912   8.372   9.083 -0.4219 -0.0764  0.1055
19990OST    PA631009   5.851   8.465   8.889 -0.4114  0.3038  0.0442
19991OST    PA131010   2.712   1.284   2.968  0.0360  0.3564  0.2133
19991OST    PA231011   2.815   1.557   3.165 -0.1303 -0.1552  0.1073
19991OST    PA331012   2.856   1.453   3.462  0.1109 -0.1374  0.1796
19991OST    PA431013   2.975   1.692   3.182  0.1396 -0.3100  0.1605
19991OST    PA531014   2.819   1.943   3.088 -0.3296 -0.0382 -0.6673
19991OST    PA631015   2.629   1.847   3.037  0.1475 -0.3559 -0.3575
19992OST    PA131016  11.493   5.476   1.770 -0.0485  0.1622  0.1087
19992OST    PA231017  11.165   5.621   1.723 -0.3692 -0.1183  0.2257
19992OST    PA331018  11.154   5.383   1.903  0.0392  0.1844  0.0204
19992OST    PA431019  10.983   5.630   1.671  0.0495 -0.2153 -0.1940
19992OST    PA531020  11.061   5.875   1.471 -0.4352  0.0831 -0.2809
19992OST    PA631021  11.283   5.885   1.549 -0.4408  0.1453  0.0677
19993OST    PA131022   4.274   5.476   2.042  0.0883  0.0507  0.0983
19993OST    PA231023   4.446   5.213   2.178  0.0471  0.3358 -0.3524
19993OST    PA331024   4.233   5.030   2.318 -0.2423  0.1778 -0.0849
19993OST    PA431025   4.563   5.054   2.150 -0.0088  0.0765  0.2269
19993OST    PA531026   4.836   5.202   2.065  0.0509  0.1116  0.2495
19993OST    PA631027   4.725   5.420   2.117  0.1308  0.0238  0.1013
19994OST    PA131028  11.858   9.432   4.546  0.0648  0.0507 -0.0162
19994OST    PA231029  12.142   9.460   4.763 -0.2171 -0.1854  0.0451
19994OST    PA331030  12.281   9.515   4.506 -0.0673 -0.2238 -0.2015
19994OST    PA431031  12.311   9.413   4.855  0.0881  0.2387  0.3201
19994OST    PA531032  12.178   9.155   4.975 -0.0725  0.1974 -0.0180
19994OST    PA631033  11.958   9.228   4.964 -0.3286  0.0674 -0.4809
19995OST    PA131034   8.724  14.465   2.096  0.0083 -0.0975 -0.1280
19995OST    PA231035   8.701  14.152   2.298 -0.0766  0.0190 -0.0997
19995OST    PA331036   8.601  14.304   2.512 -0.2155 -0.1868 -0.2383
19995OST    PA431037   8.838  14.021   2.409  0.1809 -0.2624 -0.0305
19995OST    PA531038   8.855  13.789   2.201 -0.3003 -0.3182  0.3112
19995OST    PA631039   8.722  13.923   2.046 -0.1552 -0.1535 -0.2269
19996OST    PA131040   9.995   4.546   3.194 -0.1606  0.0068 -0.2135
19996OST    PA231041   9.873   4.215   3.195 -0.5128  0.4261 -0.1277
19996OST    PA331042   9.682   4.257   3.407  0.0607 -0.2072  0.1718
19996OST    PA431043   9.830   4.011   3.134 -0.0286  0.0611 -0.4677
19996OST    PA531044  10.102   3.935   3.002 -0.2832  0.3593 -0.1745
19996OST    PA631045  10.239   4.149   3.038  0.0267 -0.1458  0.0581
19997OST    PA131046  10.830   8.451   4.162  0.0215 -0.2653 -0.0187
19997OST    PA231047  10.957   8.611   4.441 -0.1967  0.2090 -0.4709
19997OST    PA331048  10.740   8.438   4.576 -0.0013 -0.1195 -0.0159
19997OST    PA431049  11.104   8.527   4.538  0.0086  0.0693 -0.0093
19997OST    PA531050  11.316   8.685   4.365 -0.1393 -0.3151 -0.3107
19997OST    PA631051  11.153   8.785   4.213  0.1362  0.1267 -0.1182
19998OST    PA131052  10.231  11.268   4.643  0.4092 -0.1719  0.1306
19998OST    PA231053  10.443  11.461   4.830 -0.2199 -0.0190 -0.0847
19998OST    PA331054  10.319  11.353   5.067  0.2329  0.0367  0.3193
19998OST    PA431055  10.453  11.678   4.913  0.4869 -0.2590 -0.1872
19998OST    PA531056  10.532  11.816   4.628  0.1562 -0.0027 -0.0251
19998OST    PA631057  10.559  11.612   4.506  0.1989  0.3579  0.0028
19999OST    PA131058  14.728   9.030   0.199 -0.0873 -0.2947  0.4439
19999OST    PA231059  14.703   9.373   0.112  0.1237 -0.1319  0.4235
19999OST    PA331060  14.741   9.277  -0.141  0.2184 -0.2319  0.0503
19999OST    PA431061  14.558   9.545   0.046 -0.1314  0.4344  0.2009
19999OST    PA531062  14.495   9.679   0.336 -0.4321  0.6744 -0.0626
19999OST    PA631063  14.643   9.494   0.426 -0.3295  0.2427  0.0680
20000OST    PA131064   0.015   5.245   3.897 -0.1013  0.0902  0.0863
20000OST    PA231065   0.369   5.237   3.981  0.0699 -0.2031 -0.1332
20000OST    PA331066   0.363   5.545   3.882  0.0006  0.2331 -0.5335
20000OST    PA431067   0.522   5.190   3.884  0.2525  0.0265 -0.3438
20000OST    PA531068   0.458   4.895   4.029  0.1223 -0.0219 -0.4281
20000OST    PA631069   0.272   4.931   4.164  0.0334 -0.4255  0.3536
20001OST    PA131070  11.913  10.807   4.805 -0.2799 -0.0129 -0.1017
20001OST    PA231071  12.021  10.493   4.615 -0.2069  0.2038 -0.2835
20001OST    PA331072  12.216  10.466   4.853 -0.3686 -0.2307  0.1782
20001OST    PA431073  12.148  10.394   4.501  0.2551 -0.1876  0.0441
20001OST    PA531074  12.068  10.626   4.254 -0.1139  0.2930  0.1463
20001OST    PA631075  11.895  10.724   4.348  0.1346  0.1488  0.0887
20002OST    PA131076   0.322  13.895   5.462 -0.2452  0.1928  0.0587
20002OST    PA231077   0.092  13.813   5.195 -0.0991 -0.1593 -0.5225
20002OST    PA331078  -0.055  13.742   5.431  0.0039  0.3506 -0.1270
20002OST    PA431079  -0.022  13.744   5.061 -0.2827  0.0150  0.1115
20002OST    PA531080   0.217  13.733   4.858 -0.2739 -0.2107  0.1439
20002OST    PA631081   0.374  13.809   4.976 -0.0250 -0.2493 -0.0311
20003OST    PA131082   9.067   5.176   3.690 -0.0069  0.0946  0.1340
20003OST    PA231083   9.024   5.499   3.557  0.0948 -0.1116 -0.1621
20003OST    PA331084   9.121   5.611   3.829 -0.0045  0.5732  0.2724
20003OST    PA431085   8.851   5.606   3.539 -0.3248 -0.2270 -0.1786
20003OST    PA531086   8.715   5.399   3.344  0.0844 -0.0517 -0.2257
20003OST    PA631087   8.879   5.237   3.307 -0.5949 -0.2600 -0.2386
20004OST    PA131088  15.276   6.562   3.110  0.1557  0.0230 -0.1870
20004OST    PA231089  15.490   6.364   2.915 -0.0349  0.0738 -0.1909
20004OST    PA331090  15.698   6.285   3.116 -0.1009 -0.0190  0.0464
20004OST    PA431091  15.464   6.193   2.853 -0.0301  0.1325  0.2857
20004OST    PA531092  15.387   6.213   2.574 -0.0648  0.1494  0.0326
20004OST    PA631093  15.350   6.456   2.590 -0.0398 -0.4304  0.1756
20005OST    PA131094  11.679  13.000   1.068  0.1363 -0.0465  0.2249
20005OST    PA231095  11.664  13.319   1.183 -0.4234 -0.1627 -0.1868
20005OST    PA331096  11.845  13.488   0.995  0.1366 -0.1059 -0.2903
20005OST    PA431097  11.682  13.421   1.334 -0.1256 -0.2319  0.1332
20005OST    PA531098  11.444  13.341   1.509 -0.0402 -0.3006 -0.2921
20005OST    PA631099  11.344  13.227   1.372  0.3186  0.5254 -0.0604
20006OST    PA131100  13.835  14.996  11.931  0.2647  0.1307 -0.3456
20006OST    PA231101  14.014  15.026  11.613 -0.3144  0.1969  0.3010
20006OST    PA331102  13.842  15.090  11.371  0.0278 -0.2280 -0.0888
20006OST    PA431103  14.148  15.145  11.570 -0.1576 -0.4074  0.2166
20006OST    PA531104  14.393  15.008  11.686 -0.2477  0.2401  0.3336
20006OST    PA631105  14.264  14.816  11.770 -0.3527  0.0010  0.1405
20007OST    PA131106   2.806   2.179   9.106  0.0655 -0.1414  0.2072
20007OST    PA231107   3.113   2.333   8.973  0.1158  0.3009  0.4516
20007OST    PA331108   3.220   2.208   9.201  0.4075 -0.1271  0.3498
20007OST    PA431109   3.284   2.431   8.892  0.2635  0.1747 -0.2717
20007OST    PA531110   3.166   2.341   8.584  0.2272  0.1996  0.0026
20007OST    PA631111   2.980   2.228   8.638 -0.3117 -0.4021  0.2272
20008OST    PA131112   2.307   1.167  11.441 -0.2017 -0.1533 -0.0285
20008OST    PA231113   2.146   1.017  11.158  0.3723 -0.1207  0.1219
20008OST    PA331114   1.969   1.235  11.095 -0.4110 -0.2168  0.1067
20008OST    PA431115   2.007   0.879  11.089  0.4963 -0.0417  0.1353
20008OST    PA531116   2.209   0.643  11.102 -0.0589 -0.0356  0.1053
20008OST    PA631117   2.357   0.750  11.184 -0.4040 -0.0782 -0.1775
20009OST    PA131118   0.221   4.595   1.858 -0.1751 -0.2047  0.1006
20009OST    PA231119   0.187   4.497   1.510 -0.2664  0.0957 -0.2967
20009OST    PA331120   0.186   4.202   1.564 -0.3927 -0.1109  0.1279
20009OST    PA431121   0.024   4.488   1.365 -0.7161 -0.0096 -0.3410
20009OST    PA531122   0.143   4.763   1.222  0.1068  0.2689 -0.0085
20009OST    PA631123   0.331   4.785   1.391  0.1415 -0.1162  0.0366
20010OST    PA131124  12.440  10.224   3.219  0.3665  0.0283  0.0203
20010OST    PA231125  12.427  10.075   3.527 -0.0240 -0.0256 -0.0448
20010OST    PA331126  12.296   9.859   3.356  0.2654 -0.4057 -0.4529
20010OST    PA431127  12.462   9.948   3.674  0.0423  0.1588 -0.0124
20010OST    PA531128  12.642  10.171   3.795  0.1003 -0.1386  0.0185
20010OST    PA631129  12.602  10.347   3.622 -0.1413  0.1896 -0.2598
20011OST    PA131130   0.486   7.188   1.454 -0.2851 -0.2594  0.0643
20011OST    PA231131   0.747   6.962   1.445 -0.3806 -0.2062 -0.3916
20011OST    PA331132   0.752   6.806   1.711  0.1621 -0.1188  0.0952
20011OST    PA431133   0.848   6.815   1.332 -0.0492  0.2352 -0.0728
20011OST    PA531134   1.095   7.005   1.196 -0.1685  0.1051 -0.3666
20011OST    PA631135   0.939   7.194   1.289 -0.1619 -0.4392  0.0190
20012OST    PA131136   1.821   3.961  13.743  0.1366 -0.0019  0.4647
20012OST    PA231137   2.094   3.867  13.917 -0.2812 -0.2209  0.2827
20012OST    PA331138   1.900   3.771  14.102 -0.1417  0.2881 -0.2246
20012OST    PA431139   2.224   3.707  13.917  0.0387  0.0114  0.2131
20012OST    PA531140   2.461   3.870  13.776  0.1561 -0.4157  0.1360
20012OST    PA631141   2.331   4.096  13.770  0.0152 -0.0148 -0.0078
20013OST    PA131142   5.034  10.885   0.455 -0.2209  0.0362  0.0343
20013OST    PA231143   5.167  11.049   0.752  0.1988 -0.0449  0.4469
20013OST    PA331144   5.161  10.795   0.888  0.2997 -0.0610  0.1163
20013OST    PA431145   5.349  11.110   0.826 -0.0809  0.6197  0.1856
20013OST    PA531146   5.362  11.367   0.648 -0.0944 -0.2217 -0.3223
20013OST    PA631147   5.163  11.335   0.546  0.0357 -0.1079  0.2500
20014OST    PA131148  12.623  12.923   1.334 -0.4207  0.0103  0.1839
20014OST    PA231149  12.705  12.802   1.010  0.1254 -0.1314  0.0462
20014OST    PA331150  12.414  12.734   1.051 -0.0904 -0.1643 -0.0268
20014OST    PA431151  12.774  12.644   0.904 -0.1864 -0.1401  0.0616
20014OST    PA531152  13.080  12.727   0.960 -0.1329  0.0543  0.0229
20014OST    PA631153  13.056  12.874   1.118 -0.1196 -0.2982  0.5483
20015OST    PA131154  13.455  12.839   0.565  0.4919 -0.1678 -0.2059
20015OST    PA231155  13.198  12.998   0.398  0.0865 -0.0322 -0.3255
20015OST    PA331156  13.322  13.243   0.255  0.2292 -0.2900 -0.3106
20015OST    PA431157  13.070  12.992   0.281 -0.0854  0.1482  0.0552
20015OST    PA531158  12.846  12.823   0.433 -0.0506 -0.0997  0.1309
20015OST    PA631159  13.000  12.774   0.590 -0.2295 -0.0162  0.1804
  15.73924  15.73924  13.77418
