Generated with cgbuilder
  946
    094T5    B0    1   3.260   3.546   3.503
    094T5    B1    2   3.431   3.381   3.490
    094T5    B2    3   3.540   3.570   3.505
    094T5    B3    4   3.768   3.504   3.501
    1         W    5   5.253   6.638   2.773
    2         W    6   1.170   6.184   1.169
    3         W    7   2.022   5.277   3.179
    4         W    8   5.391   5.159   5.482
    5         W    9   5.022   1.148   2.829
    6         W   10   5.028   4.777   1.384
    7         W   11   1.744   0.699   4.653
    8         W   12   0.186   4.203   4.049
    9         W   13   1.675   4.190   5.991
   10         W   14   0.243   5.106   1.878
   11         W   15   1.803   5.726   1.043
   12         W   16   0.453   3.767   4.853
   13         W   17   2.066   1.721   6.198
   14         W   18   2.489   5.020   6.982
   15         W   19   4.264   0.384   1.773
   16         W   20   2.268   4.777   2.201
   17         W   21   5.269   4.729   1.044
   18         W   22   2.600   6.611   1.137
   19         W   23   4.241   2.519   6.509
   20         W   24   3.289   3.029   4.274
   21         W   25   0.980   2.674   1.169
   22         W   26   1.712   4.978   5.216
   23         W   27   6.092   6.082   6.866
   24         W   28   1.116   5.141   4.331
   25         W   29   6.077   2.739   2.699
   26         W   30   4.130   2.436   6.806
   27         W   31   1.638   2.537   1.116
   28         W   32   1.434   3.824   6.383
   29         W   33   3.638   4.884   4.143
   30         W   34   4.582   1.690   6.286
   31         W   35   5.829   4.743   2.640
   32         W   36   3.989   3.668   5.056
   33         W   37   4.531   1.698   0.322
   34         W   38   6.051   2.531   2.539
   35         W   39   5.543   3.672   2.929
   36         W   40   0.572   2.374   2.263
   37         W   41   4.614   4.002   6.408
   38         W   42   3.574   2.361   2.361
   39         W   43   4.685   2.627   5.026
   40         W   44   3.185   0.840   0.340
   41         W   45   3.554   2.334   4.634
   42         W   46   6.435   3.842   5.674
   43         W   47   1.989   4.389   4.381
   44         W   48   0.062   0.997   4.135
   45         W   49   0.734   5.106   4.171
   46         W   50   4.104   4.642   0.573
   47         W   51   5.553   1.292   3.731
   48         W   52   4.558   5.989   3.002
   49         W   53   4.178   6.020   1.291
   50         W   54   6.751   0.208   0.437
   51         W   55   2.052   1.461   3.915
   52         W   56   5.094   0.875   0.890
   53         W   57   4.505   0.845   4.373
   54         W   58   2.782   1.053   5.726
   55         W   59   2.636   0.606   6.485
   56         W   60   1.252   5.218   3.422
   57         W   61   5.484   6.361   0.679
   58         W   62   2.863   0.685   4.712
   59         W   63   3.770   2.617   2.296
   60         W   64   1.925   1.480   2.350
   61         W   65   4.315   0.186   0.080
   62         W   66   2.740   4.011   2.319
   63         W   67   2.840   3.164   2.851
   64         W   68   3.721   5.284   4.002
   65         W   69   1.010   1.014   1.583
   66         W   70   4.369   5.692   1.508
   67         W   71   5.911   4.115   5.691
   68         W   72   1.226   1.436   2.752
   69         W   73   5.999   4.850   0.475
   70         W   74   4.922   4.172   0.222
   71         W   75   1.168   4.829   6.624
   72         W   76   0.942   4.640   6.560
   73         W   77   1.881   4.354   6.429
   74         W   78   2.288   5.380   2.415
   75         W   79   0.749   6.876   5.960
   76         W   80   1.163   4.268   4.460
   77         W   81   5.583   2.623   2.750
   78         W   82   4.043   2.783   2.778
   79         W   83   4.513   0.466   3.694
   80         W   84   4.511   2.893   2.850
   81         W   85   3.087   1.421   5.616
   82         W   86   3.914   6.585   1.146
   83         W   87   1.697   3.942   5.394
   84         W   88   3.027   1.755   4.936
   85         W   89   5.355   6.802   2.379
   86         W   90   2.488   1.325   6.780
   87         W   91   5.402   2.450   3.752
   88         W   92   6.452   2.597   4.114
   89         W   93   5.016   0.221   3.252
   90         W   94   2.345   0.549   6.935
   91         W   95   2.443   5.239   4.376
   92         W   96   0.168   5.211   6.189
   93         W   97   5.823   2.184   1.014
   94         W   98   4.494   3.996   4.800
   95         W   99   2.875   5.940   1.337
   96         W  100   0.611   3.563   5.159
   97         W  101   6.828   3.650   1.283
   98         W  102   6.035   6.425   2.533
   99         W  103   3.468   2.222   6.683
  100         W  104   2.249   5.455   6.034
  101         W  105   3.386   3.587   4.842
  102         W  106   2.862   6.084   6.638
  103         W  107   0.923   3.259   2.286
  104         W  108   5.946   5.549   2.989
  105         W  109   3.056   2.653   3.876
  106         W  110   3.966   1.482   6.799
  107         W  111   6.698   1.725   6.496
  108         W  112   2.217   4.350   0.231
  109         W  113   2.616   5.616   1.622
  110         W  114   0.646   0.406   6.136
  111         W  115   3.005   5.324   2.238
  112         W  116   5.640   5.747   2.826
  113         W  117   0.244   5.542   2.115
  114         W  118   0.887   2.441   5.274
  115         W  119   3.140   5.651   3.622
  116         W  120   1.300   6.603   3.169
  117         W  121   2.920   3.380   1.916
  118         W  122   3.191   1.730   3.832
  119         W  123   5.635   4.987   6.200
  120         W  124   6.557   6.283   1.585
  121         W  125   3.341   4.832   0.377
  122         W  126   5.294   0.353   6.120
  123         W  127   0.718   6.641   5.373
  124         W  128   3.128   0.697   4.277
  125         W  129   1.576   6.469   6.515
  126         W  130   0.243   6.833   5.420
  127         W  131   6.468   2.327   5.665
  128         W  132   3.074   6.589   0.180
  129         W  133   2.474   3.216   2.193
  130         W  134   5.840   6.575   5.048
  131         W  135   2.632   1.316   4.837
  132         W  136   4.901   3.721   0.344
  133         W  137   0.096   1.200   1.903
  134         W  138   5.285   1.445   4.483
  135         W  139   1.742   5.392   4.162
  136         W  140   4.001   2.284   2.208
  137         W  141   6.303   3.470   0.339
  138         W  142   4.196   2.733   4.950
  139         W  143   6.294   6.830   6.442
  140         W  144   2.099   1.990   2.472
  141         W  145   4.572   2.281   4.855
  142         W  146   4.527   5.060   1.817
  143         W  147   0.841   4.004   1.786
  144         W  148   5.129   0.704   4.707
  145         W  149   4.583   3.763   4.662
  146         W  150   0.823   0.964   3.467
  147         W  151   1.999   4.893   1.396
  148         W  152   3.279   0.858   3.484
  149         W  153   4.890   0.951   1.353
  150         W  154   1.869   5.059   5.604
  151         W  155   6.773   3.495   2.978
  152         W  156   1.196   2.601   1.592
  153         W  157   4.032   2.105   2.712
  154         W  158   3.951   2.616   2.612
  155         W  159   6.762   6.535   0.527
  156         W  160   6.620   3.108   0.591
  157         W  161   0.327   1.875   3.188
  158         W  162   5.858   1.202   1.365
  159         W  163   1.870   6.866   3.577
  160         W  164   1.316   3.043   0.364
  161         W  165   4.851   5.638   2.197
  162         W  166   0.647   1.370   6.284
  163         W  167   6.438   5.525   0.728
  164         W  168   0.797   6.605   2.975
  165         W  169   6.198   2.882   3.468
  166         W  170   0.791   1.332   2.813
  167         W  171   5.322   2.000   4.564
  168         W  172   6.261   2.212   3.525
  169         W  173   1.233   5.563   5.480
  170         W  174   0.801   0.294   0.926
  171         W  175   6.325   6.065   1.324
  172         W  176   0.922   0.889   3.862
  173         W  177   2.342   1.509   3.540
  174         W  178   4.001   4.964   4.846
  175         W  179   0.562   2.077   2.707
  176         W  180   6.319   4.529   1.173
  177         W  181   5.940   6.842   5.542
  178         W  182   2.020   4.843   0.339
  179         W  183   6.795   6.842   0.224
  180         W  184   1.180   4.656   1.271
  181         W  185   1.352   1.451   2.344
  182         W  186   6.931   0.980   1.030
  183         W  187   4.720   2.409   0.476
  184         W  188   1.672   3.682   1.198
  185         W  189   1.177   5.219   5.971
  186         W  190   3.997   2.951   4.418
  187         W  191   3.515   2.118   1.974
  188         W  192   2.208   4.276   1.899
  189         W  193   3.949   4.318   5.236
  190         W  194   5.659   3.590   2.582
  191         W  195   3.687   5.920   5.132
  192         W  196   4.671   3.437   5.123
  193         W  197   3.086   2.824   5.462
  194         W  198   0.159   6.202   3.798
  195         W  199   1.496   5.715   1.076
  196         W  200   6.994   0.406   2.854
  197         W  201   2.573   5.471   6.319
  198         W  202   6.845   6.187   4.474
  199         W  203   4.379   5.181   2.779
  200         W  204   2.152   5.739   3.321
  201         W  205   1.592   0.582   3.469
  202         W  206   6.076   4.704   6.857
  203         W  207   0.135   5.533   4.582
  204         W  208   1.373   2.671   6.058
  205         W  209   4.851   2.036   4.162
  206         W  210   6.039   0.072   1.616
  207         W  211   2.652   4.551   2.778
  208         W  212   0.507   6.559   6.245
  209         W  213   3.531   3.888   1.717
  210         W  214   2.296   2.359   4.417
  211         W  215   5.057   4.098   3.007
  212         W  216   2.852   4.838   5.562
  213         W  217   4.653   1.005   6.329
  214         W  218   3.064   1.529   3.707
  215         W  219   5.436   0.646   4.187
  216         W  220   1.558   5.206   3.941
  217         W  221   4.239   6.656   5.913
  218         W  222   3.546   0.780   4.628
  219         W  223   5.773   3.066   3.925
  220         W  224   0.383   2.196   6.520
  221         W  225   1.656   1.365   2.849
  222         W  226   6.189   5.173   3.288
  223         W  227   4.683   0.069   1.101
  224         W  228   2.342   2.028   1.498
  225         W  229   2.337   3.892   0.598
  226         W  230   3.952   2.687   5.438
  227         W  231   0.788   6.258   1.425
  228         W  232   5.001   1.402   6.045
  229         W  233   0.087   0.936   6.818
  230         W  234   5.112   1.242   2.551
  231         W  235   0.768   5.498   0.883
  232         W  236   6.588   0.081   1.648
  233         W  237   3.478   6.137   4.035
  234         W  238   4.205   3.712   1.392
  235         W  239   4.368   4.180   6.219
  236         W  240   0.347   0.646   2.186
  237         W  241   4.708   0.508   2.381
  238         W  242   6.288   2.669   0.728
  239         W  243   2.942   6.577   5.146
  240         W  244   0.242   4.416   2.595
  241         W  245   1.951   2.534   3.687
  242         W  246   2.215   3.141   0.164
  243         W  247   0.815   3.551   5.224
  244         W  248   5.160   5.630   6.846
  245         W  249   2.832   1.658   1.667
  246         W  250   6.329   5.630   4.884
  247         W  251   6.397   6.124   3.277
  248         W  252   5.392   3.412   1.924
  249         W  253   4.057   0.637   1.613
  250         W  254   1.268   2.381   6.989
  251         W  255   1.793   4.692   3.119
  252         W  256   0.348   0.490   4.603
  253         W  257   3.119   0.868   5.987
  254         W  258   2.781   5.161   2.307
  255         W  259   2.366   5.789   0.280
  256         W  260   3.923   2.092   1.718
  257         W  261   3.182   2.996   2.784
  258         W  262   3.756   4.666   2.915
  259         W  263   1.577   3.335   4.273
  260         W  264   1.639   0.319   3.428
  261         W  265   0.475   0.661   6.846
  262         W  266   2.442   4.403   4.948
  263         W  267   6.511   0.865   0.648
  264         W  268   6.322   5.845   5.751
  265         W  269   5.586   0.864   0.505
  266         W  270   1.160   1.804   3.745
  267         W  271   0.315   3.575   6.794
  268         W  272   0.535   1.361   1.085
  269         W  273   1.564   3.991   3.534
  270         W  274   1.858   5.511   1.566
  271         W  275   2.018   1.459   6.800
  272         W  276   5.717   6.256   4.495
  273         W  277   5.675   1.177   4.707
  274         W  278   5.892   0.478   6.633
  275         W  279   0.157   1.667   4.341
  276         W  280   5.065   6.705   5.921
  277         W  281   6.976   4.205   5.170
  278         W  282   1.199   3.429   4.178
  279         W  283   3.516   2.218   6.184
  280         W  284   3.902   4.479   2.194
  281         W  285   4.116   5.195   5.824
  282         W  286   0.576   3.369   6.835
  283         W  287   0.713   5.390   1.712
  284         W  288   3.750   3.509   0.181
  285         W  289   4.424   5.236   3.174
  286         W  290   2.128   1.264   0.669
  287         W  291   0.657   0.833   0.111
  288         W  292   5.620   5.237   1.439
  289         W  293   6.773   6.460   1.112
  290         W  294   1.041   2.670   6.314
  291         W  295   2.801   1.976   0.780
  292         W  296   3.968   6.168   2.063
  293         W  297   3.111   0.604   1.085
  294         W  298   6.876   6.528   6.945
  295         W  299   0.862   2.220   6.398
  296         W  300   6.448   3.065   5.896
  297         W  301   3.632   0.284   6.173
  298         W  302   2.555   1.740   4.682
  299         W  303   3.506   1.920   6.593
  300         W  304   4.922   2.552   4.001
  301         W  305   0.421   2.899   4.897
  302         W  306   3.726   6.932   5.277
  303         W  307   6.491   0.095   2.140
  304         W  308   3.178   2.097   1.793
  305         W  309   1.713   0.394   5.372
  306         W  310   2.663   6.298   1.992
  307         W  311   2.317   3.620   5.132
  308         W  312   1.581   6.685   5.219
  309         W  313   0.315   1.425   0.803
  310         W  314   4.028   6.133   5.186
  311         W  315   1.439   3.172   4.858
  312         W  316   2.213   5.604   3.590
  313         W  317   4.106   2.030   4.466
  314         W  318   3.770   0.314   0.624
  315         W  319   6.014   1.105   6.243
  316         W  320   0.304   6.369   4.107
  317         W  321   3.868   2.028   2.947
  318         W  322   2.502   0.857   2.705
  319         W  323   4.911   3.315   3.373
  320         W  324   3.595   6.157   0.525
  321         W  325   2.476   1.661   2.578
  322         W  326   6.909   3.232   0.841
  323         W  327   3.853   0.870   6.571
  324         W  328   4.239   6.324   1.853
  325         W  329   4.540   3.472   6.108
  326         W  330   4.645   3.001   2.239
  327         W  331   0.530   6.856   4.505
  328         W  332   2.224   3.438   5.527
  329         W  333   1.793   4.814   5.022
  330         W  334   5.984   2.744   6.490
  331         W  335   6.439   0.646   4.265
  332         W  336   5.937   1.461   5.476
  333         W  337   0.678   5.173   3.222
  334         W  338   0.523   0.513   0.088
  335         W  339   6.559   4.163   5.710
  336         W  340   0.737   0.232   2.118
  337         W  341   2.495   0.695   3.871
  338         W  342   3.375   1.733   1.608
  339         W  343   1.522   6.143   0.711
  340         W  344   2.940   1.129   1.006
  341         W  345   3.078   2.322   3.227
  342         W  346   3.178   1.850   6.618
  343         W  347   1.396   4.106   0.815
  344         W  348   4.977   0.772   3.696
  345         W  349   5.600   6.781   0.850
  346         W  350   1.617   0.474   4.741
  347         W  351   0.953   0.470   1.019
  348         W  352   1.245   0.716   3.852
  349         W  353   2.756   2.328   3.630
  350         W  354   2.200   1.740   0.799
  351         W  355   2.214   6.108   5.000
  352         W  356   4.100   1.540   4.455
  353         W  357   0.621   0.606   4.093
  354         W  358   3.707   1.314   5.443
  355         W  359   6.246   0.224   5.042
  356         W  360   5.648   1.869   2.839
  357         W  361   3.380   4.533   1.940
  358         W  362   2.379   0.811   5.936
  359         W  363   0.436   6.576   5.711
  360         W  364   1.756   1.449   1.639
  361         W  365   6.857   4.541   4.759
  362         W  366   1.980   6.290   0.419
  363         W  367   4.290   0.305   6.404
  364         W  368   4.573   1.104   5.040
  365         W  369   6.790   4.716   6.548
  366         W  370   5.782   1.992   3.921
  367         W  371   0.518   0.454   4.728
  368         W  372   3.690   2.692   2.557
  369         W  373   3.971   5.599   5.664
  370         W  374   5.541   4.960   5.093
  371         W  375   5.522   4.052   3.593
  372         W  376   3.020   4.658   3.627
  373         W  377   0.963   0.875   2.224
  374         W  378   4.745   6.526   2.895
  375         W  379   6.749   4.510   3.349
  376         W  380   4.728   2.831   1.713
  377         W  381   4.517   1.520   4.503
  378         W  382   4.815   3.341   4.305
  379         W  383   1.346   2.898   6.754
  380         W  384   1.493   5.589   5.903
  381         W  385   4.070   4.482   1.189
  382         W  386   4.206   3.709   2.512
  383         W  387   6.192   2.925   1.858
  384         W  388   0.394   4.667   2.483
  385         W  389   4.425   6.396   0.302
  386         W  390   4.839   3.989   6.125
  387         W  391   1.579   1.734   2.914
  388         W  392   4.595   1.044   1.971
  389         W  393   6.716   6.038   5.191
  390         W  394   2.964   6.817   5.668
  391         W  395   4.132   3.803   0.119
  392         W  396   5.623   4.369   6.850
  393         W  397   5.411   5.088   4.857
  394         W  398   5.592   0.267   5.987
  395         W  399   6.178   0.484   6.273
  396         W  400   2.276   4.106   5.631
  397         W  401   2.364   1.722   4.121
  398         W  402   5.487   2.961   5.520
  399         W  403   5.114   3.044   4.190
  400         W  404   3.670   2.928   6.655
  401         W  405   3.169   3.991   2.007
  402         W  406   6.295   4.199   3.931
  403         W  407   1.348   1.463   3.001
  404         W  408   4.502   1.377   1.858
  405         W  409   1.983   1.276   5.045
  406         W  410   3.419   4.436   4.383
  407         W  411   3.100   2.392   3.432
  408         W  412   5.007   3.375   0.061
  409         W  413   5.305   1.851   6.540
  410         W  414   5.810   3.422   6.238
  411         W  415   0.210   4.774   6.514
  412         W  416   0.901   3.880   1.548
  413         W  417   1.922   3.415   3.654
  414         W  418   4.321   6.854   1.800
  415         W  419   3.379   6.101   1.228
  416         W  420   2.446   0.813   0.857
  417         W  421   1.390   6.898   6.645
  418         W  422   1.447   5.240   3.507
  419         W  423   5.469   3.151   3.935
  420         W  424   3.839   5.646   0.674
  421         W  425   1.144   0.892   6.885
  422         W  426   3.719   1.638   0.269
  423         W  427   1.620   2.774   3.254
  424         W  428   5.761   5.761   4.381
  425         W  429   2.579   6.994   4.389
  426         W  430   0.029   3.049   6.802
  427         W  431   6.395   2.936   1.632
  428         W  432   3.790   3.698   4.499
  429         W  433   6.628   0.472   0.741
  430         W  434   5.911   3.919   4.501
  431         W  435   5.045   4.603   2.665
  432         W  436   5.000   1.238   5.212
  433         W  437   6.567   2.991   5.705
  434         W  438   2.721   5.405   0.747
  435         W  439   4.372   0.794   3.027
  436         W  440   4.740   0.920   3.675
  437         W  441   0.014   0.088   4.153
  438         W  442   1.802   1.762   1.690
  439         W  443   4.472   6.632   4.049
  440         W  444   1.167   1.981   3.390
  441         W  445   2.841   1.235   2.924
  442         W  446   0.244   6.164   2.044
  443         W  447   3.324   1.526   2.024
  444         W  448   1.732   4.487   4.168
  445         W  449   5.273   4.538   0.739
  446         W  450   5.737   3.876   6.678
  447         W  451   1.145   6.809   5.455
  448         W  452   6.191   2.161   5.189
  449         W  453   3.320   2.405   4.286
  450         W  454   2.391   6.432   0.623
  451         W  455   2.628   4.223   4.286
  452         W  456   1.171   2.409   5.040
  453         W  457   2.659   2.891   0.783
  454         W  458   1.917   6.272   5.048
  455         W  459   3.389   4.757   4.818
  456         W  460   0.910   5.011   3.971
  457         W  461   0.235   4.019   0.043
  458         W  462   1.210   1.834   5.677
  459         W  463   0.082   4.395   3.809
  460         W  464   5.586   1.417   2.950
  461         W  465   5.157   6.699   3.815
  462         W  466   1.839   1.040   4.774
  463         W  467   2.513   1.541   0.582
  464         W  468   4.527   5.162   0.700
  465         W  469   5.459   2.164   4.478
  466         W  470   4.051   5.771   0.572
  467         W  471   3.148   2.575   1.081
  468         W  472   2.215   3.115   0.682
  469         W  473   0.033   6.010   4.441
  470         W  474   3.727   2.984   5.480
  471         W  475   5.871   1.684   0.426
  472         W  476   2.425   6.453   2.831
  473         W  477   4.680   6.363   1.006
  474         W  478   4.401   6.045   0.873
  475         W  479   5.002   6.216   2.732
  476         W  480   1.928   3.106   2.880
  477         W  481   1.557   1.079   4.117
  478         W  482   4.889   0.351   6.220
  479         W  483   4.872   3.599   6.332
  480         W  484   5.291   5.919   6.678
  481         W  485   5.709   4.208   4.902
  482         W  486   0.592   2.422   1.643
  483         W  487   6.934   3.714   0.029
  484         W  488   0.277   0.736   1.279
  485         W  489   1.197   2.377   1.581
  486         W  490   1.234   0.727   0.416
  487         W  491   2.705   4.597   1.643
  488         W  492   3.697   4.737   1.353
  489         W  493   2.090   0.090   0.564
  490         W  494   5.285   5.767   1.762
  491         W  495   6.202   5.242   1.440
  492         W  496   1.673   1.136   6.186
  493         W  497   1.310   1.513   0.167
  494         W  498   5.762   5.546   6.494
  495         W  499   2.310   0.222   6.351
  496         W  500   2.902   0.551   3.673
  497         W  501   5.624   4.824   0.682
  498         W  502   4.889   3.113   6.103
  499         W  503   0.587   4.393   4.988
  500         W  504   3.814   4.075   1.129
  501         W  505   2.238   4.662   1.848
  502         W  506   4.522   2.132   3.766
  503         W  507   5.107   4.178   6.676
  504         W  508   3.712   1.656   3.676
  505         W  509   6.004   5.625   4.030
  506         W  510   0.275   1.619   4.569
  507         W  511   1.795   5.429   1.801
  508         W  512   1.449   2.825   4.352
  509         W  513   0.775   6.700   5.748
  510         W  514   6.621   0.734   5.411
  511         W  515   5.716   4.629   6.337
  512         W  516   5.013   5.989   1.487
  513         W  517   3.059   2.549   5.526
  514         W  518   3.280   4.302   5.171
  515         W  519   2.037   0.492   6.685
  516         W  520   1.602   4.522   0.585
  517         W  521   2.504   5.912   2.214
  518         W  522   6.900   5.937   3.123
  519         W  523   6.050   2.250   4.435
  520         W  524   1.216   0.358   3.936
  521         W  525   5.797   5.875   6.795
  522         W  526   4.276   2.097   0.460
  523         W  527   0.464   0.346   3.356
  524         W  528   3.321   2.038   3.288
  525         W  529   6.974   1.992   1.280
  526         W  530   5.718   2.260   0.744
  527         W  531   3.087   2.735   5.835
  528         W  532   5.060   0.510   6.287
  529         W  533   4.501   3.519   5.025
  530         W  534   0.732   4.913   0.067
  531         W  535   4.065   5.057   3.891
  532         W  536   3.304   5.584   2.235
  533         W  537   1.231   4.836   2.016
  534         W  538   3.428   5.725   0.929
  535         W  539   3.891   3.334   1.454
  536         W  540   1.721   2.302   2.122
  537         W  541   1.700   2.753   1.548
  538         W  542   2.274   0.201   5.668
  539         W  543   2.653   3.625   2.754
  540         W  544   5.316   0.924   3.510
  541         W  545   0.874   4.582   4.047
  542         W  546   5.385   5.034   3.052
  543         W  547   1.419   2.693   4.904
  544         W  548   1.862   1.160   5.877
  545         W  549   3.270   0.979   3.212
  546         W  550   0.674   2.355   0.584
  547         W  551   1.836   0.880   2.758
  548         W  552   5.036   3.656   0.922
  549         W  553   0.675   2.427   3.778
  550         W  554   0.495   5.571   6.922
  551         W  555   2.640   4.207   5.208
  552         W  556   6.207   6.853   1.360
  553         W  557   3.925   3.666   3.434
  554         W  558   0.632   4.886   1.339
  555         W  559   6.116   0.992   2.190
  556         W  560   1.864   4.964   5.824
  557         W  561   0.424   5.189   3.239
  558         W  562   5.930   2.334   2.398
  559         W  563   2.353   0.662   1.025
  560         W  564   2.701   6.234   6.516
  561         W  565   3.947   4.403   5.505
  562         W  566   0.164   4.614   6.763
  563         W  567   3.228   1.240   4.578
  564         W  568   2.613   3.270   1.823
  565         W  569   1.438   5.060   3.215
  566         W  570   4.263   4.179   2.055
  567         W  571   5.372   5.070   2.531
  568         W  572   2.727   6.753   1.520
  569         W  573   1.592   2.754   6.819
  570         W  574   0.800   6.800   1.798
  571         W  575   2.835   2.506   3.924
  572         W  576   2.425   3.946   2.033
  573         W  577   2.352   5.680   4.985
  574         W  578   1.684   1.294   4.062
  575         W  579   5.468   6.718   1.230
  576         W  580   2.549   2.813   2.248
  577         W  581   2.042   4.302   2.387
  578         W  582   4.027   0.393   5.650
  579         W  583   6.803   2.382   4.549
  580         W  584   4.412   5.805   0.064
  581         W  585   6.081   3.009   0.961
  582         W  586   4.991   4.838   3.868
  583         W  587   6.669   4.816   5.432
  584         W  588   5.615   0.400   4.511
  585         W  589   4.612   5.101   4.607
  586         W  590   3.675   6.399   6.151
  587         W  591   0.832   3.214   4.720
  588         W  592   3.022   3.433   3.267
  589         W  593   3.275   1.247   2.391
  590         W  594   1.450   5.089   0.107
  591         W  595   0.477   2.985   0.831
  592         W  596   4.439   2.770   1.914
  593         W  597   2.427   4.437   1.741
  594         W  598   1.810   0.711   5.050
  595         W  599   6.329   3.951   3.420
  596         W  600   6.044   5.052   0.004
  597         W  601   2.997   5.447   3.766
  598         W  602   1.565   1.938   5.829
  599         W  603   6.524   4.400   3.706
  600         W  604   5.875   1.643   4.448
  601         W  605   0.936   5.525   3.974
  602         W  606   5.835   3.683   5.523
  603         W  607   1.640   0.909   3.525
  604         W  608   2.738   4.368   0.747
  605         W  609   6.467   5.754   5.892
  606         W  610   6.291   1.493   0.161
  607         W  611   5.305   6.384   2.077
  608         W  612   3.217   1.408   6.138
  609         W  613   6.470   1.110   6.405
  610         W  614   6.033   6.190   5.689
  611         W  615   3.411   3.697   3.076
  612         W  616   3.467   6.870   0.508
  613         W  617   4.191   4.960   6.766
  614         W  618   2.973   3.637   2.550
  615         W  619   1.918   3.028   3.218
  616         W  620   1.379   0.980   2.781
  617         W  621   6.846   2.662   3.654
  618         W  622   6.296   3.867   6.738
  619         W  623   0.789   3.661   5.780
  620         W  624   5.434   3.295   0.161
  621         W  625   1.238   5.713   3.379
  622         W  626   3.848   6.168   2.518
  623         W  627   5.459   1.513   6.703
  624         W  628   3.269   0.167   1.475
  625         W  629   0.873   1.520   5.837
  626         W  630   1.800   4.886   3.779
  627         W  631   0.789   1.313   6.665
  628         W  632   4.460   1.126   1.428
  629         W  633   1.570   2.775   3.861
  630         W  634   1.129   0.924   6.266
  631         W  635   5.653   1.528   5.863
  632         W  636   3.232   6.276   0.680
  633         W  637   4.879   5.947   3.639
  634         W  638   6.674   2.366   6.118
  635         W  639   1.026   0.628   3.161
  636         W  640   4.508   5.681   3.475
  637         W  641   6.155   0.693   6.188
  638         W  642   1.768   0.086   1.886
  639         W  643   1.972   0.299   4.102
  640         W  644   6.053   1.936   0.988
  641         W  645   5.122   2.261   0.356
  642         W  646   1.628   4.453   2.295
  643         W  647   5.726   4.882   3.769
  644         W  648   0.593   1.864   0.316
  645         W  649   5.148   3.262   6.194
  646         W  650   2.602   4.650   0.227
  647         W  651   0.857   6.607   2.712
  648         W  652   2.720   2.584   6.089
  649         W  653   3.825   0.367   3.753
  650         W  654   4.201   0.083   4.594
  651         W  655   3.514   0.033   2.079
  652         W  656   5.358   4.362   4.781
  653         W  657   1.895   5.887   3.323
  654         W  658   2.562   0.505   5.719
  655         W  659   2.560   4.153   3.761
  656         W  660   2.500   2.758   3.642
  657         W  661   1.112   0.127   6.549
  658         W  662   6.815   3.783   2.942
  659         W  663   0.679   2.801   2.833
  660         W  664   5.912   5.909   1.885
  661         W  665   2.879   2.215   0.035
  662         W  666   5.104   6.215   6.481
  663         W  667   2.659   3.895   2.864
  664         W  668   5.944   6.216   4.877
  665         W  669   4.579   6.348   3.006
  666         W  670   1.667   3.283   5.089
  667         W  671   4.491   0.642   2.520
  668         W  672   5.277   0.175   4.354
  669         W  673   6.572   5.265   5.547
  670         W  674   3.126   6.867   5.847
  671         W  675   3.465   5.815   5.289
  672         W  676   5.526   6.345   3.116
  673         W  677   4.762   2.970   2.948
  674         W  678   2.979   6.921   3.645
  675         W  679   4.756   6.068   4.479
  676         W  680   4.075   0.780   0.227
  677         W  681   3.381   4.209   0.826
  678         W  682   0.239   6.683   4.095
  679         W  683   0.671   3.036   0.494
  680         W  684   2.657   0.541   0.607
  681         W  685   0.728   4.393   6.966
  682         W  686   2.525   1.900   0.779
  683         W  687   4.883   1.753   0.228
  684         W  688   0.603   4.483   3.524
  685         W  689   5.001   2.482   6.510
  686         W  690   1.475   5.651   1.439
  687         W  691   2.646   0.710   2.858
  688         W  692   1.131   5.116   2.810
  689         W  693   0.350   3.176   1.679
  690         W  694   3.297   1.103   5.316
  691         W  695   0.564   2.135   1.790
  692         W  696   3.409   5.832   4.497
  693         W  697   4.673   0.746   5.003
  694         W  698   2.518   6.990   6.872
  695         W  699   4.437   6.451   6.854
  696         W  700   6.555   1.698   0.652
  697         W  701   4.515   2.855   2.107
  698         W  702   2.495   2.572   2.395
  699         W  703   3.762   2.257   3.602
  700         W  704   3.325   3.861   1.928
  701         W  705   3.101   1.689   1.405
  702         W  706   6.468   2.087   2.638
  703         W  707   4.544   5.986   3.309
  704         W  708   3.650   6.795   5.535
  705         W  709   2.261   6.430   6.375
  706         W  710   2.812   1.445   4.191
  707         W  711   2.405   1.150   5.487
  708         W  712   0.644   6.217   1.039
  709         W  713   2.926   6.987   4.090
  710         W  714   6.569   1.016   5.679
  711         W  715   6.185   2.432   3.747
  712         W  716   2.716   4.212   2.763
  713         W  717   5.966   3.887   2.718
  714         W  718   1.471   2.520   2.545
  715         W  719   6.765   6.903   1.805
  716         W  720   4.396   1.674   2.444
  717         W  721   1.267   0.382   0.096
  718         W  722   2.210   2.753   6.487
  719         W  723   1.852   6.457   5.294
  720         W  724   0.315   2.342   4.033
  721         W  725   0.783   1.575   4.487
  722         W  726   5.311   2.977   0.822
  723         W  727   3.799   3.014   2.214
  724         W  728   5.272   4.856   5.971
  725         W  729   6.238   0.802   6.631
  726         W  730   6.673   2.138   2.822
  727         W  731   4.966   1.922   3.868
  728         W  732   1.854   2.611   6.513
  729         W  733   2.877   2.490   6.932
  730         W  734   3.066   3.303   0.092
  731         W  735   3.023   1.180   0.184
  732         W  736   1.454   3.966   5.389
  733         W  737   5.453   4.725   5.856
  734         W  738   2.304   5.160   4.724
  735         W  739   1.396   0.292   5.386
  736         W  740   6.400   1.660   2.976
  737         W  741   1.880   4.262   1.513
  738         W  742   5.478   6.816   6.644
  739         W  743   4.859   1.513   0.671
  740         W  744   4.924   4.924   6.025
  741         W  745   0.584   6.173   0.357
  742         W  746   2.444   5.760   1.985
  743         W  747   5.034   2.695   6.359
  744         W  748   4.707   0.537   3.818
  745         W  749   3.815   2.977   3.224
  746         W  750   1.268   3.942   0.178
  747         W  751   5.013   1.739   3.599
  748         W  752   2.073   1.906   2.899
  749         W  753   6.127   4.699   4.305
  750         W  754   5.811   5.718   1.680
  751         W  755   5.818   5.207   0.126
  752         W  756   5.678   1.380   6.011
  753         W  757   1.310   1.980   0.355
  754         W  758   4.154   0.994   6.490
  755         W  759   5.417   4.913   3.796
  756         W  760   4.875   1.189   2.403
  757         W  761   0.508   6.130   1.288
  758         W  762   5.404   0.083   1.655
  759         W  763   6.388   0.781   1.716
  760         W  764   6.569   4.786   4.591
  761         W  765   4.629   4.415   6.431
  762         W  766   0.847   3.649   4.530
  763         W  767   3.014   2.450   2.552
  764         W  768   5.399   0.198   5.175
  765         W  769   4.209   0.671   6.386
  766         W  770   3.820   1.114   2.757
  767         W  771   5.200   4.490   5.233
  768         W  772   6.907   6.895   4.761
  769         W  773   6.818   0.686   5.131
  770         W  774   4.058   5.965   5.646
  771         W  775   5.417   6.829   0.474
  772         W  776   6.087   3.025   5.063
  773         W  777   0.280   5.173   0.595
  774         W  778   2.526   6.909   2.602
  775         W  779   1.039   6.852   6.988
  776         W  780   4.409   5.660   4.370
  777         W  781   0.004   2.375   4.392
  778         W  782   3.963   6.935   0.205
  779         W  783   0.151   4.039   2.731
  780         W  784   1.226   1.141   3.335
  781         W  785   2.007   1.789   0.104
  782         W  786   1.165   1.048   6.616
  783         W  787   1.185   5.788   0.226
  784         W  788   4.998   6.385   1.278
  785         W  789   4.097   6.940   0.032
  786         W  790   3.483   5.124   1.223
  787         W  791   2.630   4.222   6.819
  788         W  792   3.273   1.067   6.207
  789         W  793   1.740   2.761   4.198
  790         W  794   3.542   3.350   2.575
  791         W  795   6.114   1.062   2.706
  792         W  796   4.966   1.345   0.829
  793         W  797   2.553   1.649   1.761
  794         W  798   5.592   2.244   2.653
  795         W  799   5.874   5.170   2.134
  796         W  800   6.552   5.886   3.973
  797         W  801   2.211   4.771   0.728
  798         W  802   6.813   3.846   4.956
  799         W  803   2.051   4.407   6.654
  800         W  804   1.257   3.285   3.108
  801         W  805   1.645   6.864   5.347
  802         W  806   4.838   6.676   2.252
  803         W  807   5.771   5.862   3.318
  804         W  808   4.906   4.969   5.348
  805         W  809   0.508   2.641   2.601
  806         W  810   6.465   1.696   3.926
  807         W  811   1.541   0.344   3.852
  808         W  812   5.051   1.422   0.566
  809         W  813   2.778   5.290   0.195
  810         W  814   0.984   4.568   3.032
  811         W  815   4.558   4.192   5.510
  812         W  816   3.807   1.598   6.428
  813         W  817   6.120   2.007   1.341
  814         W  818   4.407   0.846   3.811
  815         W  819   6.974   6.131   0.875
  816         W  820   2.748   2.022   5.412
  817         W  821   5.992   1.305   2.811
  818         W  822   6.916   0.707   6.036
  819         W  823   2.817   5.478   3.160
  820         W  824   3.739   0.346   1.838
  821         W  825   4.421   5.651   6.820
  822         W  826   5.665   3.072   4.835
  823         W  827   3.942   3.514   3.137
  824         W  828   6.537   1.082   2.559
  825         W  829   0.183   0.760   0.552
  826         W  830   0.495   3.943   6.734
  827         W  831   5.072   4.938   2.359
  828         W  832   5.770   1.349   6.465
  829         W  833   1.018   0.414   3.650
  830         W  834   2.963   3.521   1.475
  831         W  835   4.907   2.124   0.018
  832         W  836   6.854   0.632   0.110
  833         W  837   0.288   6.781   6.733
  834         W  838   4.047   6.772   3.122
  835         W  839   0.961   2.935   4.053
  836         W  840   1.644   1.352   6.228
  837         W  841   5.641   5.093   3.818
  838         W  842   0.316   1.213   5.560
  839         W  843   2.339   0.042   4.939
  840         W  844   3.083   1.904   2.864
  841         W  845   0.444   3.425   5.158
  842         W  846   4.352   4.599   6.518
  843         W  847   2.793   1.899   4.010
  844         W  848   3.363   4.630   1.223
  845         W  849   0.850   5.794   2.685
  846         W  850   5.425   3.236   3.537
  847         W  851   0.459   4.840   5.836
  848         W  852   2.981   6.693   0.878
  849         W  853   6.180   6.158   4.859
  850         W  854   2.118   1.598   0.177
  851         W  855   6.219   2.775   1.248
  852         W  856   4.980   1.372   3.651
  853         W  857   1.823   4.960   6.046
  854         W  858   2.395   5.700   5.785
  855         W  859   5.721   6.575   3.239
  856         W  860   5.973   3.227   6.081
  857         W  861   3.534   3.734   0.987
  858         W  862   4.475   3.678   4.406
  859         W  863   3.994   5.410   6.483
  860         W  864   1.103   0.042   5.313
  861         W  865   0.078   1.900   4.367
  862         W  866   2.958   0.939   4.380
  863         W  867   5.574   2.000   1.425
  864         W  868   0.943   1.395   5.074
  865         W  869   6.436   0.235   2.661
  866         W  870   6.267   3.298   6.116
  867         W  871   3.287   5.856   5.895
  868         W  872   2.534   6.583   3.850
  869         W  873   5.770   5.247   0.489
  870         W  874   1.041   2.928   2.871
  871         W  875   4.752   2.025   5.015
  872         W  876   3.802   3.315   6.576
  873         W  877   0.289   4.322   2.198
  874         W  878   3.318   4.313   4.628
  875         W  879   6.121   1.251   4.066
  876         W  880   4.985   0.161   6.046
  877         W  881   4.478   3.857   1.605
  878         W  882   5.203   5.590   0.300
  879         W  883   0.508   4.770   2.745
  880         W  884   1.741   4.700   0.329
  881         W  885   2.045   4.319   4.660
  882         W  886   2.101   3.204   2.120
  883         W  887   6.965   5.160   3.233
  884         W  888   4.675   3.294   0.077
  885         W  889   0.975   3.035   5.464
  886         W  890   6.634   5.324   3.658
  887         W  891   2.219   6.028   5.437
  888         W  892   4.185   6.660   2.006
  889         W  893   5.496   6.739   0.095
  890         W  894   2.359   1.874   6.623
  891         W  895   6.034   2.550   6.992
  892         W  896   0.285   4.136   3.237
  893         W  897   0.162   1.095   0.387
  894         W  898   6.749   3.446   2.576
  895         W  899   1.202   2.095   3.899
  896         W  900   6.180   3.304   5.685
  897         W  901   2.150   6.663   5.870
  898         W  902   6.294   3.688   1.268
  899         W  903   5.253   3.662   1.098
  900         W  904   2.189   4.184   5.382
  901         W  905   3.419   3.925   4.157
  902         W  906   0.870   0.225   2.708
  903         W  907   5.049   2.940   2.944
  904         W  908   0.513   4.848   5.314
  905         W  909   5.638   1.942   3.092
  906         W  910   6.597   6.881   5.811
  907         W  911   6.004   4.261   5.206
  908         W  912   4.001   2.407   3.779
  909         W  913   1.088   5.788   4.784
  910         W  914   3.725   7.000   5.969
  911         W  915   4.445   1.845   4.645
  912         W  916   2.725   6.471   3.401
  913         W  917   0.467   4.220   5.553
  914         W  918   4.113   5.532   1.997
  915         W  919   5.206   1.726   0.625
  916         W  920   4.003   2.339   4.106
  917         W  921   3.306   5.908   4.835
  918         W  922   3.005   3.473   3.038
  919         W  923   4.484   4.301   1.235
  920         W  924   2.491   3.793   6.971
  921         W  925   1.161   4.069   0.010
  922         W  926   5.916   1.864   1.805
  923         W  927   0.353   4.729   1.804
  924         W  928   4.080   6.784   2.341
  925         W  929   1.527   4.754   6.165
  926         W  930   5.855   5.011   5.539
  927         W  931   2.081   3.845   1.781
  928         W  932   5.420   3.940   2.566
  929         W  933   4.200   4.857   0.724
  930         W  934   2.147   1.210   6.970
  931         W  935   4.977   6.631   3.036
  932         W  936   1.332   0.610   3.260
  933         W  937   5.994   4.434   6.374
  934         W  938   6.069   3.967   5.709
  935         W  939   6.599   0.730   6.443
  936         W  940   6.045   3.410   6.620
  937         W  941   2.498   2.063   1.830
  938         W  942   3.716   6.654   1.514
  939         W  943   0.341   5.599   0.271
  940         W  944   1.161   2.686   4.032
  941         W  945   0.472   3.172   6.120
  942         W  946   5.067   6.554   4.684
   7.00000   7.00000   7.00000
