Generated with cgbuilder
  946
    1LIN     B0    1   3.477   3.250   3.508
    1LIN     B1    2   3.640   3.383   3.392
    1LIN     B2    3   3.482   3.553   3.463
    1LIN     B3    4   3.403   3.814   3.638
    2         W    5   5.836   4.102   0.999
    3         W    6   0.130   3.958   0.945
    4         W    7   6.865   1.190   6.182
    5         W    8   6.480   6.898   2.171
    6         W    9   1.004   4.257   5.297
    7         W   10   2.272   2.752   3.352
    8         W   11   6.601   4.064   1.314
    9         W   12   6.294   5.394   3.830
   10         W   13   0.938   1.793   6.353
   11         W   14   5.939   0.987   1.072
   12         W   15   3.688   2.535   1.099
   13         W   16   2.447   4.642   2.752
   14         W   17   1.748   5.623   0.290
   15         W   18   3.740   5.592   6.416
   16         W   19   2.352   0.615   2.674
   17         W   20   0.188   4.251   6.410
   18         W   21   2.330   2.893   2.263
   19         W   22   5.449   2.482   6.873
   20         W   23   1.958   2.333   2.345
   21         W   24   2.920   4.184   5.293
   22         W   25   2.534   6.441   2.393
   23         W   26   1.616   2.625   6.628
   24         W   27   2.823   0.240   5.675
   25         W   28   2.857   6.087   6.186
   26         W   29   5.219   4.161   5.266
   27         W   30   1.898   2.031   1.567
   28         W   31   4.071   1.800   3.462
   29         W   32   3.101   2.500   1.224
   30         W   33   4.851   2.558   4.590
   31         W   34   3.953   3.161   4.450
   32         W   35   6.051   0.542   3.924
   33         W   36   3.583   0.112   3.875
   34         W   37   1.235   4.483   2.577
   35         W   38   4.546   1.286   3.781
   36         W   39   2.416   6.153   3.168
   37         W   40   5.848   0.782   0.057
   38         W   41   6.279   2.621   5.002
   39         W   42   6.577   6.247   5.324
   40         W   43   6.396   1.535   1.313
   41         W   44   3.142   2.283   4.564
   42         W   45   4.226   1.178   3.734
   43         W   46   5.940   3.462   1.325
   44         W   47   6.320   4.877   4.995
   45         W   48   3.142   4.308   1.438
   46         W   49   3.656   5.467   4.942
   47         W   50   1.358   2.501   3.004
   48         W   51   2.533   3.261   0.193
   49         W   52   1.961   3.074   2.082
   50         W   53   0.912   0.758   3.446
   51         W   54   2.001   5.962   1.389
   52         W   55   2.610   5.438   2.570
   53         W   56   2.966   5.270   3.889
   54         W   57   2.056   0.398   3.356
   55         W   58   5.883   0.750   4.059
   56         W   59   1.548   0.629   2.216
   57         W   60   6.634   3.061   2.109
   58         W   61   0.606   3.651   3.816
   59         W   62   5.879   3.469   5.941
   60         W   63   2.721   6.572   6.000
   61         W   64   5.967   3.065   5.973
   62         W   65   0.035   1.931   0.844
   63         W   66   4.158   4.782   4.219
   64         W   67   6.165   3.760   0.235
   65         W   68   0.926   2.118   3.667
   66         W   69   2.037   4.586   4.887
   67         W   70   6.916   5.079   0.148
   68         W   71   3.004   6.006   0.257
   69         W   72   5.675   2.054   2.902
   70         W   73   2.322   0.506   5.557
   71         W   74   5.358   6.173   5.382
   72         W   75   6.354   4.161   1.481
   73         W   76   2.292   2.007   4.027
   74         W   77   0.844   5.053   2.781
   75         W   78   3.854   2.059   3.105
   76         W   79   4.956   1.418   6.495
   77         W   80   0.945   6.160   3.619
   78         W   81   4.386   5.406   0.065
   79         W   82   1.435   4.960   1.396
   80         W   83   2.366   5.965   1.220
   81         W   84   1.372   1.444   4.037
   82         W   85   0.682   4.650   3.899
   83         W   86   6.853   1.591   6.661
   84         W   87   0.357   5.524   3.627
   85         W   88   3.863   6.561   4.925
   86         W   89   3.473   5.335   1.055
   87         W   90   1.112   0.314   2.391
   88         W   91   5.510   2.890   3.801
   89         W   92   1.921   6.702   3.809
   90         W   93   0.879   4.993   1.338
   91         W   94   3.265   0.212   3.651
   92         W   95   5.688   4.182   2.551
   93         W   96   4.245   6.588   2.739
   94         W   97   3.775   5.186   6.734
   95         W   98   4.603   1.483   3.909
   96         W   99   1.361   5.190   4.722
   97         W  100   1.202   5.117   4.069
   98         W  101   3.860   1.252   6.056
   99         W  102   2.597   2.625   5.099
  100         W  103   3.839   5.933   2.095
  101         W  104   1.357   2.985   5.106
  102         W  105   0.876   6.412   3.572
  103         W  106   5.513   3.437   4.637
  104         W  107   4.004   6.869   5.482
  105         W  108   1.764   0.159   1.277
  106         W  109   5.110   5.790   0.114
  107         W  110   1.466   5.316   4.157
  108         W  111   1.297   6.190   1.402
  109         W  112   5.084   6.205   3.154
  110         W  113   3.678   1.335   2.345
  111         W  114   0.740   5.768   3.026
  112         W  115   1.055   3.998   2.645
  113         W  116   6.775   5.359   5.230
  114         W  117   3.534   6.260   1.231
  115         W  118   6.014   0.437   1.082
  116         W  119   0.862   4.966   6.827
  117         W  120   5.594   2.797   6.035
  118         W  121   1.328   3.284   4.162
  119         W  122   3.884   2.890   4.862
  120         W  123   3.843   0.908   3.909
  121         W  124   6.842   2.675   1.821
  122         W  125   5.060   3.147   5.378
  123         W  126   5.310   2.872   5.045
  124         W  127   5.394   5.169   3.051
  125         W  128   0.082   4.252   1.878
  126         W  129   1.127   2.324   5.433
  127         W  130   4.641   2.593   2.588
  128         W  131   4.520   4.854   5.583
  129         W  132   5.241   5.829   3.332
  130         W  133   3.231   4.117   6.200
  131         W  134   4.214   4.005   4.944
  132         W  135   1.411   6.296   1.656
  133         W  136   6.743   0.482   1.444
  134         W  137   4.160   3.310   5.179
  135         W  138   6.509   5.207   1.266
  136         W  139   0.392   3.047   3.514
  137         W  140   6.445   6.064   3.246
  138         W  141   4.698   6.630   4.705
  139         W  142   1.291   2.089   6.958
  140         W  143   0.344   6.624   0.788
  141         W  144   1.666   3.412   4.197
  142         W  145   2.866   4.620   4.573
  143         W  146   0.173   5.291   1.667
  144         W  147   5.812   0.747   6.089
  145         W  148   4.764   4.739   3.165
  146         W  149   6.103   0.719   2.750
  147         W  150   4.159   3.966   6.271
  148         W  151   2.489   5.972   4.894
  149         W  152   5.911   6.004   0.227
  150         W  153   0.338   3.238   3.176
  151         W  154   5.203   6.127   4.143
  152         W  155   3.291   1.253   6.515
  153         W  156   0.269   4.734   6.402
  154         W  157   4.031   6.368   1.386
  155         W  158   1.657   3.786   0.293
  156         W  159   5.922   3.688   6.054
  157         W  160   4.883   5.741   4.881
  158         W  161   5.894   3.967   6.794
  159         W  162   6.159   3.267   5.398
  160         W  163   5.544   5.928   3.160
  161         W  164   0.131   3.542   2.517
  162         W  165   4.756   2.186   3.236
  163         W  166   6.266   6.796   2.794
  164         W  167   3.643   4.640   0.830
  165         W  168   2.271   5.830   4.806
  166         W  169   1.745   4.470   5.466
  167         W  170   2.622   6.506   6.730
  168         W  171   5.231   1.351   1.761
  169         W  172   1.250   6.655   2.300
  170         W  173   0.207   0.101   2.794
  171         W  174   4.206   2.989   1.069
  172         W  175   6.335   6.265   3.290
  173         W  176   2.273   2.583   0.938
  174         W  177   4.469   5.274   6.807
  175         W  178   6.104   5.355   6.331
  176         W  179   6.106   3.413   1.626
  177         W  180   5.534   2.619   5.168
  178         W  181   6.393   6.043   2.885
  179         W  182   5.997   4.348   6.501
  180         W  183   2.852   0.123   5.484
  181         W  184   3.207   6.549   2.586
  182         W  185   0.758   0.633   6.308
  183         W  186   1.955   1.586   6.809
  184         W  187   2.124   1.585   0.668
  185         W  188   3.084   3.397   5.551
  186         W  189   5.861   2.106   0.215
  187         W  190   5.175   5.258   4.089
  188         W  191   0.467   6.013   2.552
  189         W  192   1.105   4.729   6.354
  190         W  193   5.397   4.509   2.163
  191         W  194   3.108   2.125   3.497
  192         W  195   5.176   0.222   0.126
  193         W  196   2.802   6.227   3.752
  194         W  197   3.464   3.942   5.636
  195         W  198   6.425   1.378   1.605
  196         W  199   6.732   4.909   0.262
  197         W  200   0.709   1.249   3.815
  198         W  201   1.700   3.689   1.799
  199         W  202   6.907   2.210   2.885
  200         W  203   1.623   3.304   3.328
  201         W  204   2.329   1.971   6.963
  202         W  205   2.275   5.822   6.953
  203         W  206   1.847   4.222   6.916
  204         W  207   0.543   0.725   4.968
  205         W  208   3.341   1.353   0.052
  206         W  209   5.837   4.821   5.978
  207         W  210   5.298   0.269   2.502
  208         W  211   5.748   3.027   0.098
  209         W  212   4.774   5.163   6.180
  210         W  213   2.232   1.282   4.345
  211         W  214   4.387   1.065   3.144
  212         W  215   6.702   1.923   4.722
  213         W  216   1.578   3.806   3.694
  214         W  217   2.190   2.175   4.242
  215         W  218   2.139   3.963   3.962
  216         W  219   6.302   2.772   3.762
  217         W  220   6.258   1.983   4.522
  218         W  221   5.348   4.743   3.419
  219         W  222   3.465   3.366   2.111
  220         W  223   4.071   6.424   5.149
  221         W  224   5.094   0.898   1.817
  222         W  225   4.309   5.589   3.448
  223         W  226   2.864   4.575   3.335
  224         W  227   0.539   3.862   4.876
  225         W  228   2.157   2.196   2.439
  226         W  229   4.812   4.898   1.352
  227         W  230   1.733   1.441   0.555
  228         W  231   3.179   2.571   3.811
  229         W  232   3.684   4.332   5.829
  230         W  233   2.181   1.629   4.387
  231         W  234   0.316   0.918   6.576
  232         W  235   1.713   0.156   4.350
  233         W  236   2.232   6.144   3.976
  234         W  237   0.271   2.685   4.531
  235         W  238   3.936   6.835   2.103
  236         W  239   6.757   3.238   0.374
  237         W  240   2.485   1.776   5.520
  238         W  241   1.132   1.527   5.695
  239         W  242   1.326   2.932   2.222
  240         W  243   4.633   4.934   4.130
  241         W  244   2.127   3.211   1.247
  242         W  245   3.887   2.584   4.672
  243         W  246   0.028   3.555   2.973
  244         W  247   2.652   5.158   2.280
  245         W  248   6.260   3.587   2.761
  246         W  249   4.794   2.264   1.526
  247         W  250   1.516   0.354   0.527
  248         W  251   6.843   1.626   5.262
  249         W  252   4.108   2.465   0.567
  250         W  253   4.424   2.563   3.167
  251         W  254   5.001   3.187   2.174
  252         W  255   2.829   0.979   4.323
  253         W  256   2.334   2.976   0.539
  254         W  257   6.948   0.152   1.204
  255         W  258   4.448   3.627   6.899
  256         W  259   1.589   1.759   5.755
  257         W  260   2.921   0.926   1.148
  258         W  261   0.537   0.798   6.802
  259         W  262   6.021   1.135   4.631
  260         W  263   4.319   2.526   6.509
  261         W  264   4.346   4.151   6.090
  262         W  265   5.739   2.624   0.929
  263         W  266   2.992   1.758   0.787
  264         W  267   4.845   2.976   5.339
  265         W  268   3.697   5.077   6.233
  266         W  269   3.461   3.758   0.001
  267         W  270   5.950   3.528   0.746
  268         W  271   4.416   0.522   4.180
  269         W  272   3.334   5.633   4.703
  270         W  273   2.373   3.281   4.503
  271         W  274   3.594   6.648   3.921
  272         W  275   4.995   1.616   0.100
  273         W  276   0.800   1.142   6.108
  274         W  277   4.520   5.382   2.832
  275         W  278   1.191   5.203   2.400
  276         W  279   0.459   4.399   3.047
  277         W  280   5.866   1.935   0.575
  278         W  281   5.256   3.360   1.430
  279         W  282   2.935   3.415   2.222
  280         W  283   0.098   3.886   1.747
  281         W  284   6.054   1.132   1.177
  282         W  285   0.567   5.861   5.805
  283         W  286   6.059   3.478   1.108
  284         W  287   0.056   5.577   6.915
  285         W  288   0.945   1.073   1.654
  286         W  289   6.438   2.835   4.605
  287         W  290   2.583   0.690   0.369
  288         W  291   4.775   6.965   1.545
  289         W  292   4.729   5.676   5.537
  290         W  293   3.873   1.905   5.436
  291         W  294   0.229   2.061   3.766
  292         W  295   3.014   0.112   1.537
  293         W  296   4.197   6.971   4.730
  294         W  297   3.241   4.431   5.028
  295         W  298   4.136   3.603   2.121
  296         W  299   4.190   6.751   6.546
  297         W  300   3.998   5.784   5.622
  298         W  301   3.829   5.689   4.806
  299         W  302   0.328   4.666   5.936
  300         W  303   1.859   1.179   5.326
  301         W  304   4.313   6.131   0.197
  302         W  305   2.337   5.384   6.043
  303         W  306   5.786   1.679   4.401
  304         W  307   1.285   2.056   3.458
  305         W  308   5.380   1.252   4.996
  306         W  309   4.571   0.092   3.221
  307         W  310   0.798   6.628   4.728
  308         W  311   2.266   2.057   1.367
  309         W  312   2.798   3.598   3.008
  310         W  313   6.588   2.702   0.482
  311         W  314   0.958   3.069   2.291
  312         W  315   5.811   1.639   6.215
  313         W  316   0.689   6.889   5.547
  314         W  317   2.354   6.435   6.306
  315         W  318   4.678   5.364   3.222
  316         W  319   6.012   6.379   4.115
  317         W  320   6.502   1.684   0.902
  318         W  321   6.100   5.419   3.102
  319         W  322   2.924   0.433   0.084
  320         W  323   5.751   5.683   4.609
  321         W  324   1.819   5.716   0.830
  322         W  325   6.223   5.992   3.200
  323         W  326   3.627   4.373   1.971
  324         W  327   0.114   0.991   6.959
  325         W  328   3.596   5.176   3.455
  326         W  329   0.614   4.131   5.738
  327         W  330   2.166   4.890   5.711
  328         W  331   5.450   2.571   5.690
  329         W  332   0.102   1.705   5.470
  330         W  333   4.783   1.477   0.064
  331         W  334   4.136   4.665   0.384
  332         W  335   6.897   3.526   1.000
  333         W  336   1.468   6.831   4.518
  334         W  337   2.273   6.851   0.564
  335         W  338   6.287   6.088   6.205
  336         W  339   3.760   0.387   5.596
  337         W  340   5.174   0.087   1.437
  338         W  341   3.751   6.917   4.416
  339         W  342   3.443   6.036   2.601
  340         W  343   0.497   0.044   6.763
  341         W  344   3.981   4.691   2.345
  342         W  345   1.793   2.995   2.861
  343         W  346   4.930   1.579   4.810
  344         W  347   2.406   1.177   1.007
  345         W  348   1.422   3.430   1.425
  346         W  349   1.129   5.541   0.009
  347         W  350   5.480   1.410   3.902
  348         W  351   2.747   4.763   1.882
  349         W  352   6.291   3.306   2.672
  350         W  353   5.653   5.416   6.999
  351         W  354   2.970   1.615   4.271
  352         W  355   1.697   0.785   5.583
  353         W  356   3.772   1.697   5.940
  354         W  357   1.281   0.491   4.795
  355         W  358   2.392   6.877   5.847
  356         W  359   0.468   2.451   5.114
  357         W  360   3.965   2.030   4.441
  358         W  361   1.179   3.075   6.991
  359         W  362   6.876   1.154   6.779
  360         W  363   6.992   0.339   2.409
  361         W  364   5.613   0.034   3.259
  362         W  365   6.747   2.857   4.029
  363         W  366   1.032   4.121   6.785
  364         W  367   6.532   1.025   3.554
  365         W  368   2.702   2.470   3.061
  366         W  369   1.644   6.135   2.678
  367         W  370   2.163   4.921   2.403
  368         W  371   5.585   0.301   3.648
  369         W  372   4.979   5.875   1.891
  370         W  373   5.324   6.096   0.291
  371         W  374   4.461   5.113   0.388
  372         W  375   1.183   0.292   5.241
  373         W  376   4.788   3.351   5.240
  374         W  377   3.574   5.778   1.070
  375         W  378   1.234   2.751   6.899
  376         W  379   5.267   6.867   0.853
  377         W  380   5.028   3.694   5.125
  378         W  381   4.593   6.649   6.295
  379         W  382   0.092   4.823   3.007
  380         W  383   6.544   1.934   0.963
  381         W  384   5.598   4.873   6.713
  382         W  385   4.603   1.306   2.812
  383         W  386   3.701   1.696   4.621
  384         W  387   6.401   4.629   3.176
  385         W  388   2.962   2.285   1.871
  386         W  389   1.111   6.050   0.478
  387         W  390   0.912   3.005   0.952
  388         W  391   0.827   4.082   1.411
  389         W  392   2.215   5.212   4.219
  390         W  393   5.819   5.586   1.916
  391         W  394   2.845   4.560   5.374
  392         W  395   3.196   4.055   3.772
  393         W  396   2.652   2.432   5.206
  394         W  397   5.129   5.732   1.388
  395         W  398   2.444   4.552   0.564
  396         W  399   4.738   0.070   2.290
  397         W  400   1.485   3.289   2.951
  398         W  401   5.513   4.564   6.436
  399         W  402   0.151   0.791   6.180
  400         W  403   3.900   5.176   5.157
  401         W  404   0.789   0.958   6.375
  402         W  405   2.810   2.524   1.690
  403         W  406   5.974   5.424   0.972
  404         W  407   2.125   3.549   0.595
  405         W  408   0.407   1.285   2.427
  406         W  409   1.966   6.938   1.244
  407         W  410   4.602   4.195   4.043
  408         W  411   0.303   0.359   3.500
  409         W  412   5.545   4.951   0.113
  410         W  413   6.203   4.300   5.584
  411         W  414   1.118   1.004   1.368
  412         W  415   0.089   0.103   3.953
  413         W  416   1.406   1.760   4.983
  414         W  417   6.120   1.818   1.869
  415         W  418   1.930   3.938   0.862
  416         W  419   6.058   6.029   4.534
  417         W  420   6.051   3.518   2.549
  418         W  421   1.662   2.380   5.313
  419         W  422   6.734   4.962   4.734
  420         W  423   3.825   6.808   0.494
  421         W  424   0.085   3.670   5.632
  422         W  425   3.517   3.955   3.528
  423         W  426   5.423   0.663   0.219
  424         W  427   3.558   0.370   2.247
  425         W  428   4.104   4.326   0.026
  426         W  429   2.111   6.697   0.836
  427         W  430   5.120   5.869   6.878
  428         W  431   4.639   5.753   4.186
  429         W  432   4.911   3.316   1.665
  430         W  433   3.602   1.655   2.746
  431         W  434   6.387   4.063   4.922
  432         W  435   4.303   3.981   2.383
  433         W  436   2.359   0.956   6.104
  434         W  437   4.953   5.260   5.809
  435         W  438   6.178   2.257   0.707
  436         W  439   5.770   0.962   3.531
  437         W  440   1.064   1.717   5.856
  438         W  441   6.720   3.246   5.286
  439         W  442   5.145   4.215   4.346
  440         W  443   6.079   4.187   2.364
  441         W  444   6.502   6.536   2.620
  442         W  445   6.497   1.485   3.163
  443         W  446   2.190   2.537   3.449
  444         W  447   0.773   6.875   5.309
  445         W  448   0.214   5.630   0.391
  446         W  449   6.282   4.993   5.927
  447         W  450   0.611   0.630   0.236
  448         W  451   1.131   2.310   1.419
  449         W  452   2.898   4.642   6.853
  450         W  453   0.883   1.862   1.124
  451         W  454   1.750   6.571   2.639
  452         W  455   2.607   3.351   1.492
  453         W  456   4.411   5.733   1.119
  454         W  457   5.390   1.799   3.638
  455         W  458   4.380   0.196   4.797
  456         W  459   4.564   2.134   4.115
  457         W  460   1.829   4.693   2.086
  458         W  461   5.408   5.222   6.891
  459         W  462   3.124   4.791   2.377
  460         W  463   4.845   1.269   6.235
  461         W  464   2.088   2.649   6.140
  462         W  465   6.233   2.681   1.297
  463         W  466   2.738   1.987   4.213
  464         W  467   4.800   6.598   6.742
  465         W  468   2.834   6.622   4.259
  466         W  469   4.771   5.198   4.362
  467         W  470   1.223   6.304   2.650
  468         W  471   6.773   3.340   3.072
  469         W  472   1.032   4.955   4.735
  470         W  473   6.711   5.862   3.085
  471         W  474   1.933   0.251   2.943
  472         W  475   5.749   0.242   2.683
  473         W  476   5.546   0.461   2.344
  474         W  477   2.096   5.202   6.497
  475         W  478   0.215   5.950   1.989
  476         W  479   1.507   0.023   2.865
  477         W  480   0.271   3.350   0.896
  478         W  481   2.382   2.440   6.535
  479         W  482   5.815   2.145   0.756
  480         W  483   1.319   5.062   1.859
  481         W  484   5.720   4.248   3.893
  482         W  485   2.616   4.410   2.857
  483         W  486   4.018   6.141   3.604
  484         W  487   3.310   6.566   5.937
  485         W  488   2.422   4.128   1.941
  486         W  489   0.523   0.937   4.357
  487         W  490   3.563   2.057   6.810
  488         W  491   0.849   0.962   2.140
  489         W  492   3.342   6.726   5.540
  490         W  493   0.644   3.456   6.381
  491         W  494   2.864   5.356   3.669
  492         W  495   2.226   0.471   1.768
  493         W  496   4.089   1.925   3.158
  494         W  497   1.258   0.702   1.332
  495         W  498   3.321   4.577   5.551
  496         W  499   4.283   5.192   3.426
  497         W  500   1.512   4.213   2.591
  498         W  501   0.866   4.188   0.194
  499         W  502   1.819   0.365   2.111
  500         W  503   6.923   1.033   4.501
  501         W  504   0.826   3.291   6.033
  502         W  505   0.000   3.037   2.424
  503         W  506   3.239   4.583   0.769
  504         W  507   3.830   6.132   0.308
  505         W  508   3.213   2.632   3.253
  506         W  509   2.603   3.943   4.834
  507         W  510   2.601   5.527   4.273
  508         W  511   4.854   4.116   0.360
  509         W  512   2.248   1.107   3.769
  510         W  513   3.858   0.620   0.237
  511         W  514   5.888   0.172   3.462
  512         W  515   4.914   0.510   2.478
  513         W  516   2.676   1.572   3.781
  514         W  517   2.409   1.728   4.775
  515         W  518   4.883   0.621   1.776
  516         W  519   0.293   0.200   0.462
  517         W  520   3.521   4.863   3.956
  518         W  521   3.766   0.517   2.100
  519         W  522   3.805   3.908   0.294
  520         W  523   1.099   3.272   3.339
  521         W  524   3.600   6.793   6.082
  522         W  525   2.592   1.269   4.927
  523         W  526   4.652   1.361   3.238
  524         W  527   2.205   5.046   0.758
  525         W  528   4.116   0.664   3.621
  526         W  529   1.994   6.565   3.164
  527         W  530   5.774   2.345   0.277
  528         W  531   3.701   6.325   1.569
  529         W  532   2.502   6.917   4.274
  530         W  533   2.996   3.788   4.160
  531         W  534   4.325   4.482   6.698
  532         W  535   5.370   6.503   2.777
  533         W  536   1.099   5.354   4.733
  534         W  537   4.023   0.849   5.623
  535         W  538   0.924   0.844   2.876
  536         W  539   6.726   6.276   5.129
  537         W  540   4.356   0.264   4.039
  538         W  541   6.491   5.486   2.880
  539         W  542   2.553   3.884   5.444
  540         W  543   2.040   5.281   0.416
  541         W  544   6.467   5.205   2.079
  542         W  545   6.388   2.666   2.685
  543         W  546   0.504   6.922   4.527
  544         W  547   2.485   3.962   2.775
  545         W  548   6.368   3.708   6.061
  546         W  549   1.993   6.864   6.635
  547         W  550   4.592   3.461   2.373
  548         W  551   2.108   3.170   2.922
  549         W  552   2.276   3.326   3.448
  550         W  553   5.036   5.558   4.214
  551         W  554   1.844   3.319   3.344
  552         W  555   3.999   0.374   2.232
  553         W  556   1.884   3.079   0.728
  554         W  557   1.208   1.327   1.669
  555         W  558   6.656   1.419   2.923
  556         W  559   3.480   1.536   1.015
  557         W  560   1.989   3.172   5.523
  558         W  561   5.691   2.891   4.576
  559         W  562   3.218   4.739   1.748
  560         W  563   1.812   5.316   1.048
  561         W  564   5.881   3.207   6.777
  562         W  565   1.343   6.667   6.067
  563         W  566   2.162   0.694   5.161
  564         W  567   5.817   4.238   3.560
  565         W  568   2.884   3.144   2.449
  566         W  569   3.578   1.132   5.349
  567         W  570   3.999   3.983   1.246
  568         W  571   6.242   1.581   0.462
  569         W  572   4.169   4.341   6.092
  570         W  573   0.442   1.392   3.134
  571         W  574   2.841   6.793   2.431
  572         W  575   1.677   4.137   1.637
  573         W  576   6.880   5.848   5.766
  574         W  577   4.724   1.997   4.744
  575         W  578   3.138   1.742   0.002
  576         W  579   1.816   5.910   1.971
  577         W  580   4.074   5.316   6.000
  578         W  581   5.415   0.039   2.020
  579         W  582   4.639   3.437   1.728
  580         W  583   1.134   3.952   4.320
  581         W  584   6.918   5.935   2.424
  582         W  585   0.985   4.150   5.854
  583         W  586   3.734   3.260   0.786
  584         W  587   5.867   1.343   1.930
  585         W  588   1.641   3.581   6.773
  586         W  589   1.420   2.702   0.363
  587         W  590   5.709   3.357   0.191
  588         W  591   5.270   4.345   0.881
  589         W  592   4.217   1.823   1.068
  590         W  593   4.405   3.980   6.735
  591         W  594   6.842   0.801   4.795
  592         W  595   3.782   1.738   6.465
  593         W  596   5.973   3.410   3.649
  594         W  597   3.693   6.901   4.731
  595         W  598   3.085   3.303   5.973
  596         W  599   3.814   5.096   3.655
  597         W  600   6.312   2.110   4.274
  598         W  601   5.554   1.389   4.507
  599         W  602   0.333   6.837   0.790
  600         W  603   4.868   0.775   0.345
  601         W  604   0.161   4.175   0.271
  602         W  605   4.032   1.931   1.903
  603         W  606   3.031   6.476   5.443
  604         W  607   5.779   5.168   1.623
  605         W  608   5.196   0.776   3.239
  606         W  609   0.437   6.247   0.432
  607         W  610   0.341   3.815   0.118
  608         W  611   5.583   4.361   4.529
  609         W  612   2.224   2.245   2.633
  610         W  613   4.335   0.672   3.547
  611         W  614   5.677   0.820   1.531
  612         W  615   5.740   4.292   0.789
  613         W  616   6.149   2.657   4.606
  614         W  617   5.444   6.159   1.759
  615         W  618   1.140   0.815   3.035
  616         W  619   4.107   0.272   2.667
  617         W  620   0.589   0.511   0.701
  618         W  621   3.837   5.478   5.494
  619         W  622   4.075   0.927   3.449
  620         W  623   0.992   5.196   1.373
  621         W  624   4.507   5.581   3.561
  622         W  625   2.866   3.745   6.720
  623         W  626   1.678   1.296   0.772
  624         W  627   2.844   4.432   0.310
  625         W  628   4.117   4.021   2.127
  626         W  629   0.973   1.119   0.280
  627         W  630   1.931   4.330   4.827
  628         W  631   3.779   0.198   5.718
  629         W  632   4.255   3.887   5.581
  630         W  633   5.506   3.510   3.863
  631         W  634   1.324   5.727   5.457
  632         W  635   1.370   1.210   6.130
  633         W  636   3.219   5.536   3.923
  634         W  637   3.849   1.303   3.406
  635         W  638   0.605   6.995   6.381
  636         W  639   3.010   4.548   6.666
  637         W  640   2.116   0.285   5.428
  638         W  641   3.390   3.238   2.466
  639         W  642   4.289   0.074   5.499
  640         W  643   3.881   3.670   5.853
  641         W  644   4.168   4.890   0.676
  642         W  645   3.109   2.650   6.280
  643         W  646   4.332   1.188   1.651
  644         W  647   0.263   4.193   1.014
  645         W  648   4.259   5.907   2.444
  646         W  649   0.972   4.265   3.013
  647         W  650   3.210   0.412   0.996
  648         W  651   5.731   3.106   1.650
  649         W  652   3.705   1.185   5.122
  650         W  653   4.197   2.550   5.084
  651         W  654   2.407   6.139   4.183
  652         W  655   1.258   5.538   3.455
  653         W  656   4.614   0.956   1.230
  654         W  657   6.842   5.569   5.270
  655         W  658   4.155   5.845   6.905
  656         W  659   5.940   4.591   6.604
  657         W  660   4.113   6.769   6.204
  658         W  661   0.409   0.923   3.727
  659         W  662   4.602   2.347   3.583
  660         W  663   0.151   1.851   4.552
  661         W  664   0.407   4.942   2.005
  662         W  665   2.993   0.196   4.251
  663         W  666   2.873   2.025   6.048
  664         W  667   2.972   5.312   3.212
  665         W  668   1.201   6.703   3.897
  666         W  669   2.889   1.865   2.471
  667         W  670   3.279   3.734   1.015
  668         W  671   3.663   2.698   4.267
  669         W  672   1.725   4.098   3.453
  670         W  673   6.439   0.895   6.072
  671         W  674   4.045   0.997   5.176
  672         W  675   2.278   0.201   6.478
  673         W  676   5.577   0.553   4.088
  674         W  677   4.656   5.180   2.862
  675         W  678   2.817   1.688   1.173
  676         W  679   0.440   1.469   4.519
  677         W  680   5.060   5.940   6.379
  678         W  681   2.730   3.267   5.168
  679         W  682   1.579   0.841   4.336
  680         W  683   1.005   3.587   3.072
  681         W  684   2.232   4.867   6.857
  682         W  685   6.404   3.660   3.215
  683         W  686   3.491   1.877   3.034
  684         W  687   4.425   1.649   2.089
  685         W  688   2.993   1.202   3.993
  686         W  689   4.302   4.902   2.779
  687         W  690   2.787   0.018   6.782
  688         W  691   5.561   0.225   4.215
  689         W  692   3.355   4.902   6.543
  690         W  693   2.521   6.871   2.122
  691         W  694   4.533   1.571   1.274
  692         W  695   6.738   5.738   6.092
  693         W  696   2.894   3.508   0.181
  694         W  697   1.842   2.689   3.915
  695         W  698   0.952   0.544   6.314
  696         W  699   5.393   0.132   0.598
  697         W  700   2.553   1.515   6.926
  698         W  701   3.463   0.424   1.863
  699         W  702   4.058   4.157   0.148
  700         W  703   6.039   1.855   6.859
  701         W  704   0.013   3.617   6.600
  702         W  705   3.131   6.544   2.878
  703         W  706   1.086   4.133   4.098
  704         W  707   0.507   2.458   0.768
  705         W  708   6.628   5.467   1.177
  706         W  709   3.191   5.154   6.985
  707         W  710   3.852   4.390   4.947
  708         W  711   6.794   3.964   4.969
  709         W  712   5.009   0.289   3.951
  710         W  713   5.640   2.587   3.276
  711         W  714   4.760   6.038   0.298
  712         W  715   0.756   0.849   1.847
  713         W  716   3.424   5.694   4.495
  714         W  717   5.767   5.648   4.280
  715         W  718   0.696   3.653   5.928
  716         W  719   1.166   1.321   6.572
  717         W  720   1.897   5.163   0.642
  718         W  721   2.084   3.326   0.290
  719         W  722   0.879   4.413   3.366
  720         W  723   0.012   0.138   2.529
  721         W  724   5.764   0.756   4.334
  722         W  725   4.198   2.953   2.310
  723         W  726   0.706   4.478   0.304
  724         W  727   2.267   3.429   2.448
  725         W  728   6.783   1.663   2.041
  726         W  729   5.502   2.071   0.763
  727         W  730   3.181   4.433   1.121
  728         W  731   0.891   4.663   4.463
  729         W  732   0.047   6.759   2.809
  730         W  733   1.045   4.054   3.353
  731         W  734   1.238   2.501   2.468
  732         W  735   0.069   6.415   0.496
  733         W  736   3.976   1.894   4.274
  734         W  737   6.799   5.351   5.658
  735         W  738   1.741   0.049   4.980
  736         W  739   4.587   2.017   6.975
  737         W  740   4.967   4.847   6.218
  738         W  741   6.134   0.310   5.459
  739         W  742   5.934   3.202   0.719
  740         W  743   3.466   1.720   2.400
  741         W  744   6.689   6.705   4.478
  742         W  745   6.299   1.471   6.809
  743         W  746   6.984   2.852   3.549
  744         W  747   2.564   1.291   1.956
  745         W  748   2.195   5.037   3.396
  746         W  749   6.672   4.233   2.056
  747         W  750   3.429   6.684   6.764
  748         W  751   0.414   6.492   4.007
  749         W  752   2.117   1.138   2.073
  750         W  753   5.886   1.901   5.573
  751         W  754   2.406   3.919   4.293
  752         W  755   0.963   0.481   2.663
  753         W  756   6.967   5.245   3.071
  754         W  757   6.721   2.139   1.551
  755         W  758   1.122   5.526   1.708
  756         W  759   4.289   3.532   5.217
  757         W  760   1.750   4.293   1.049
  758         W  761   5.831   6.184   1.143
  759         W  762   6.143   5.146   0.998
  760         W  763   6.902   2.037   6.323
  761         W  764   3.682   1.988   1.833
  762         W  765   4.808   6.194   2.139
  763         W  766   5.273   6.031   3.866
  764         W  767   3.142   1.082   0.010
  765         W  768   2.407   2.549   6.083
  766         W  769   1.729   6.921   1.740
  767         W  770   0.993   0.754   0.220
  768         W  771   0.495   2.266   1.859
  769         W  772   3.283   1.843   4.304
  770         W  773   4.156   0.147   0.922
  771         W  774   6.987   0.579   3.497
  772         W  775   5.095   0.856   3.833
  773         W  776   6.610   3.158   2.527
  774         W  777   5.413   6.323   6.425
  775         W  778   0.145   0.810   0.159
  776         W  779   0.996   3.792   4.795
  777         W  780   4.180   1.330   0.839
  778         W  781   5.809   2.279   6.140
  779         W  782   2.016   5.920   0.452
  780         W  783   1.458   2.371   0.380
  781         W  784   6.465   3.938   3.848
  782         W  785   0.619   3.224   4.456
  783         W  786   2.081   2.142   5.651
  784         W  787   1.677   2.627   2.520
  785         W  788   3.795   5.117   2.657
  786         W  789   3.070   4.462   4.000
  787         W  790   6.113   1.887   2.444
  788         W  791   6.080   6.462   5.373
  789         W  792   2.137   2.883   5.514
  790         W  793   5.125   5.875   2.716
  791         W  794   5.529   4.435   2.345
  792         W  795   6.341   3.857   1.504
  793         W  796   3.117   4.048   0.249
  794         W  797   4.494   1.773   6.852
  795         W  798   3.057   4.269   1.060
  796         W  799   3.068   4.982   3.194
  797         W  800   5.349   4.582   6.736
  798         W  801   3.591   2.651   0.123
  799         W  802   3.920   0.507   4.187
  800         W  803   4.334   2.145   2.572
  801         W  804   3.778   2.252   1.632
  802         W  805   3.111   6.945   4.354
  803         W  806   2.107   5.290   4.844
  804         W  807   6.848   4.478   1.620
  805         W  808   6.466   5.128   4.451
  806         W  809   3.095   1.054   2.598
  807         W  810   6.647   0.443   5.173
  808         W  811   2.261   4.580   4.223
  809         W  812   5.757   2.362   0.947
  810         W  813   0.666   0.225   3.413
  811         W  814   5.105   3.576   2.399
  812         W  815   0.750   1.920   6.442
  813         W  816   0.258   3.359   2.040
  814         W  817   4.165   1.044   4.845
  815         W  818   0.676   4.097   4.810
  816         W  819   0.308   1.473   3.838
  817         W  820   6.556   2.083   5.582
  818         W  821   3.183   2.049   4.670
  819         W  822   2.855   1.841   3.608
  820         W  823   6.513   4.109   0.427
  821         W  824   1.457   4.961   5.723
  822         W  825   0.424   0.315   4.295
  823         W  826   2.741   5.217   1.529
  824         W  827   0.358   2.117   1.028
  825         W  828   3.095   6.633   4.703
  826         W  829   0.873   3.781   6.950
  827         W  830   4.534   2.536   6.289
  828         W  831   4.737   0.960   3.486
  829         W  832   0.503   3.058   0.413
  830         W  833   6.447   4.568   6.314
  831         W  834   4.415   2.620   0.828
  832         W  835   3.615   6.228   3.385
  833         W  836   0.774   5.665   1.014
  834         W  837   4.589   5.700   1.727
  835         W  838   0.129   3.875   5.390
  836         W  839   2.347   0.453   0.261
  837         W  840   0.059   3.222   1.056
  838         W  841   2.911   6.143   3.956
  839         W  842   0.063   6.462   6.999
  840         W  843   0.992   4.209   4.610
  841         W  844   5.956   1.137   1.662
  842         W  845   2.272   6.015   1.795
  843         W  846   1.202   5.013   4.510
  844         W  847   6.014   1.375   5.398
  845         W  848   3.661   6.087   2.854
  846         W  849   2.609   5.599   5.411
  847         W  850   4.411   3.068   4.210
  848         W  851   1.290   1.328   2.989
  849         W  852   3.271   5.536   2.840
  850         W  853   6.815   0.763   0.835
  851         W  854   3.029   3.592   3.727
  852         W  855   3.138   1.540   3.564
  853         W  856   4.695   3.319   4.290
  854         W  857   3.687   6.196   4.135
  855         W  858   3.254   5.180   6.517
  856         W  859   0.938   2.264   0.678
  857         W  860   5.246   4.290   3.523
  858         W  861   1.198   0.719   3.243
  859         W  862   2.390   3.847   1.624
  860         W  863   2.309   5.255   2.139
  861         W  864   0.210   2.348   5.510
  862         W  865   0.733   0.914   3.089
  863         W  866   2.896   2.115   6.240
  864         W  867   5.164   4.371   2.590
  865         W  868   4.480   5.840   3.836
  866         W  869   1.678   3.419   5.228
  867         W  870   1.961   3.889   2.954
  868         W  871   5.931   2.928   2.532
  869         W  872   6.240   1.655   1.166
  870         W  873   4.317   1.988   3.120
  871         W  874   4.984   6.881   6.228
  872         W  875   0.682   5.353   0.474
  873         W  876   4.846   5.963   5.264
  874         W  877   2.930   4.089   2.752
  875         W  878   1.311   5.383   0.763
  876         W  879   1.192   4.041   6.287
  877         W  880   4.755   6.657   5.875
  878         W  881   1.892   6.937   0.453
  879         W  882   2.910   5.900   4.689
  880         W  883   4.581   2.352   4.399
  881         W  884   2.581   0.399   2.771
  882         W  885   6.755   3.471   5.097
  883         W  886   5.322   5.437   3.317
  884         W  887   5.863   5.055   0.049
  885         W  888   2.851   3.385   4.504
  886         W  889   3.386   3.112   2.924
  887         W  890   0.719   5.559   0.540
  888         W  891   6.672   2.665   3.220
  889         W  892   4.193   4.927   1.647
  890         W  893   3.225   5.617   3.306
  891         W  894   3.723   3.940   1.161
  892         W  895   5.587   1.953   4.457
  893         W  896   2.508   0.942   3.060
  894         W  897   4.966   1.200   0.625
  895         W  898   3.565   6.732   5.046
  896         W  899   4.202   3.656   1.777
  897         W  900   4.747   5.263   1.584
  898         W  901   4.846   4.596   6.813
  899         W  902   0.044   5.928   4.531
  900         W  903   1.400   5.027   6.420
  901         W  904   5.586   5.864   6.708
  902         W  905   3.428   0.960   1.866
  903         W  906   1.269   2.525   2.685
  904         W  907   6.065   2.746   0.802
  905         W  908   5.590   3.916   2.220
  906         W  909   1.865   5.791   3.581
  907         W  910   3.370   2.824   4.151
  908         W  911   0.604   0.136   5.438
  909         W  912   1.766   5.101   6.199
  910         W  913   4.210   6.245   4.870
  911         W  914   4.171   0.193   4.996
  912         W  915   2.740   1.772   0.633
  913         W  916   6.333   5.903   0.918
  914         W  917   0.015   0.921   5.403
  915         W  918   4.827   6.355   6.136
  916         W  919   1.390   0.572   5.947
  917         W  920   0.650   1.378   6.251
  918         W  921   5.470   3.115   6.741
  919         W  922   6.386   1.350   6.551
  920         W  923   1.004   1.674   0.307
  921         W  924   4.894   6.364   6.367
  922         W  925   2.425   4.435   5.289
  923         W  926   6.669   4.373   3.844
  924         W  927   1.689   1.857   2.251
  925         W  928   6.672   1.324   6.371
  926         W  929   1.162   3.446   0.894
  927         W  930   2.569   4.438   3.415
  928         W  931   3.234   6.017   2.619
  929         W  932   0.067   1.253   1.750
  930         W  933   6.205   4.755   1.025
  931         W  934   0.719   5.693   6.399
  932         W  935   4.931   3.078   4.160
  933         W  936   2.481   5.240   4.298
  934         W  937   6.928   0.794   6.829
  935         W  938   4.012   3.754   2.995
  936         W  939   6.251   3.814   5.482
  937         W  940   6.896   4.903   6.897
  938         W  941   0.819   0.003   2.184
  939         W  942   6.402   0.706   0.900
  940         W  943   6.785   4.210   3.582
  941         W  944   2.981   0.803   3.086
  942         W  945   4.458   4.640   0.474
  943         W  946   2.140   0.603   4.365
   7.00000   7.00000   7.00000
