; Include forcefield paraLINers
#include "martini_v3.0.b.3.2.itp"

#include "cg_model.itp"

#include "martini_v3.0_solvents.itp"
#include "martini_v3.0_phospholipids.itp"
[ system ]
; Name
LIN in water

[ molecules ]
; Compound        #mols
LIN                1
WN                 942
               
