[ moleculetype ]
; molname        nrexcl
EPH               1


[ atoms ] 
; id type   EPHnr   residue  atom   cgnr    charge

 1     SC4     1      EPH     PA1    1      0.00000
 2     SC4     1      EPH     PA2    2      0.00000
 3     SC4     1      EPH     PA3    3      0.00000
 4      P1     1      EPH     PA4    4      0.00000
 5      Nd     1      EPH     PA5    5      0.00000

[ bonds ]
;   i     j     funct    length   force

; bond group 1
    3     4       1        0        0        ; 

; bond group 2
    4     5       1        0        0        ; 

[ constraints ]
;   i     j     funct    length   

; constraint group 1
    1     2       1        0         ; 

; constraint group 2
    1     3       1        0         ; 
    
; constraint group 3
    2     3       1        0         ; 



[ angles ]
;   i     j     k     funct   angle   force.c.

; angle group 1
    3     4     5      2       0         0           ; A1


; angle group 2
    1     3     4      2       0         0           ; A2


; angle group 3
    2     3     4      2       0         0           ; A3


  
[ dihedrals ]
;   i     j     k    l   funct     angle   force.c.

; dihedral group 1
    1    2    3    4     1       0         120     1           ; 


                                                                                         
