[ moleculetype ]
; molname        nrexcl
EPH              1


[ atoms ]
; id type resnr residue   atom  cgnr    charge     mass

1     SC4     1     EPH    PA1  1      0.00000     45.00
2     SC4     1     EPH    PA2  2      0.00000     45.00
3     SC4     1     EPH    PA3  3      0.00000     45.00
4      P1     1     EPH    PA4  4      0.00000     72.00
5      Nd     1     EPH    PA5  5      0.00000     72.00


[ constraints ]
;   i     j   funct   length

; constraint type 1
    1     2       1    0.223      ; 1

; constraint type 2
    1     3       1    0.217      ; 2

; constraint type 3
    2     3       1    0.226      ; 3


[ bonds ]
;   i     j   funct   length   force.c.

; bond type 1
    3     4       1    0.223  15076.03           ; 1

; bond type 2
    4     5       1    0.240  7992.07           ; 2


[ angles ]
;   i     j     k   funct     angle   force.c.

; angle type 1
    3     4     5       2     89.74    446.07           ; 1

; angle type 2
    1     3     4       2    173.26   1283.05           ; 2

; angle type 3
    2     3     4       2     97.38    714.20           ; 3


[ dihedrals ]
;   i     j     k     l   funct     dihedral   force.c.   mult.

; dihedral type 1
    1     2     3     4       1        10.30    1.30       1     ; 1


