frame t= 0.000
 1151
    1EPH    PA1    1   1.814   3.845   4.572
    1EPH    PA2    2   2.000   3.869   4.456
    1EPH    PA3    3   1.804   3.867   4.356
    1EPH    PA4    4   1.817   3.892   4.131
    1EPH    PA5    5   1.805   4.157   4.104
    2W        W    6   0.084   3.595   3.359
    3W        W    7   0.460   2.488   2.882
    4W        W    8   3.165   2.218   0.652
    5W        W    9   3.295   3.303   2.679
    6W        W   10   1.213   3.294   0.205
    7W        W   11   1.296   1.446   1.188
    8W        W   12   0.811   1.294   1.352
    9W        W   13   1.802   2.109   0.786
   10W        W   14   1.477   3.201   3.141
   11W        W   15   0.126   0.762   3.104
   12W        W   16   0.888   0.042   2.906
   13W        W   17   2.582   0.430   1.793
   14W        W   18   2.231   1.301   0.363
   15W        W   19   2.801   0.735   3.454
   16W        W   20   0.167   0.527   2.579
   17W        W   21   0.266   3.146   3.600
   18W        W   22   1.788   2.536   0.332
   19W        W   23   0.220   1.319   2.025
   20W        W   24   1.113   1.210   3.262
   21W        W   25   3.572   1.069   1.761
   22W        W   26   3.336   2.112   2.620
   23W        W   27   1.644   1.445   1.647
   24W        W   28   2.190   2.784   2.016
   25W        W   29   0.690   2.218   2.248
   26W        W   30   0.049   1.746   1.819
   27W        W   31   1.085   1.718   3.011
   28W        W   32   3.356   1.501   3.265
   29W        W   33   0.972   2.945   1.710
   30W        W   34   2.093   2.634   2.844
   31W        W   35   1.313   1.274   2.069
   32W        W   36   1.605   2.058   1.712
   33W        W   37   2.602   2.831   3.560
   34W        W   38   1.681   2.151   3.570
   35W        W   39   1.662   1.867   3.048
   36W        W   40   0.071   1.258   3.570
   37W        W   41   2.903   2.793   3.169
   38W        W   42   0.484   0.375   1.167
   39W        W   43   1.011   2.633   2.166
   40W        W   44   3.474   2.416   1.456
   41W        W   45   2.887   0.816   2.023
   42W        W   46   3.172   0.769   0.118
   43W        W   47   3.637   1.570   2.424
   44W        W   48   1.604   3.277   2.177
   45W        W   49   3.378   2.743   0.615
   46W        W   50   0.507   3.529   0.369
   47W        W   51   0.900   3.575   1.045
   48W        W   52   0.697   0.329   2.471
   49W        W   53   3.320   1.347   2.746
   50W        W   54   2.725   1.769   1.205
   51W        W   55   2.691   1.457   0.232
   52W        W   56   1.899   2.601   2.372
   53W        W   57   1.705   0.931   1.571
   54W        W   58   2.305   3.018   2.565
   55W        W   59   3.176   1.809   0.987
   56W        W   60   2.078   0.467   1.003
   57W        W   61   0.735   3.161   0.686
   58W        W   62   0.106   0.660   1.285
   59W        W   63   2.892   1.267   1.759
   60W        W   64   0.350   2.884   1.674
   61W        W   65   1.691   3.234   0.544
   62W        W   66   3.083   1.260   0.008
   63W        W   67   0.106   3.018   2.172
   64W        W   68   0.897   2.590   2.652
   65W        W   69   1.270   1.950   1.271
   66W        W   70   1.292   0.355   2.364
   67W        W   71   3.521   0.117   1.661
   68W        W   72   0.740   1.989   0.129
   69W        W   73   0.395   1.022   0.308
   70W        W   74   0.457   2.978   1.102
   71W        W   75   1.588   2.461   1.350
   72W        W   76   2.920   3.320   3.064
   73W        W   77   1.846   0.962   0.748
   74W        W   78   3.229   3.360   1.520
   75W        W   79   2.906   1.213   3.118
   76W        W   80   3.619   2.869   1.252
   77W        W   81   2.246   2.161   2.736
   78W        W   82   0.012   1.712   0.942
   79W        W   83   1.123   2.127   2.515
   80W        W   84   2.327   1.391   0.893
   81W        W   85   2.204   1.881   0.997
   82W        W   86   0.547   1.301   2.471
   83W        W   87   0.532   1.177   3.393
   84W        W   88   0.422   0.094   1.552
   85W        W   89   2.190   0.441   2.113
   86W        W   90   1.838   0.626   3.276
   87W        W   91   2.193   0.775   0.454
   88W        W   92   3.376   3.168   3.208
   89W        W   93   2.343   0.249   3.247
   90W        W   94   3.362   2.550   3.369
   91W        W   95   2.792   0.717   2.965
   92W        W   96   2.592   0.655   1.235
   93W        W   97   2.985   1.789   3.639
   94W        W   98   0.725   3.365   1.625
   95W        W   99   1.383   1.082   0.611
   96W        W  100   0.952   0.366   3.275
   97W        W  101   3.004   0.850   0.956
   98W        W  102   3.371   1.332   0.901
   99W        W  103   1.114   3.549   3.372
  100W        W  104   1.040   0.085   0.607
  101W        W  105   3.361   0.619   1.642
  102W        W  106   3.511   2.868   0.087
  103W        W  107   0.418   2.071   1.789
  104W        W  108   2.335   0.658   0.019
  105W        W  109   3.469   2.990   1.739
  106W        W  110   3.508   0.184   2.489
  107W        W  111   1.953   1.396   3.043
  108W        W  112   2.046   2.735   0.746
  109W        W  113   2.446   2.029   3.486
  110W        W  114   2.120   0.006   1.795
  111W        W  115   0.732   0.909   1.858
  112W        W  116   0.286   2.109   2.632
  113W        W  117   2.145   3.302   1.338
  114W        W  118   3.339   0.899   2.210
  115W        W  119   1.976   3.246   2.977
  116W        W  120   3.319   2.305   0.182
  117W        W  121   1.754   1.788   1.243
  118W        W  122   3.606   0.299   2.984
  119W        W  123   1.755   2.134   2.578
  120W        W  124   1.972   1.020   2.023
  121W        W  125   2.824   1.318   0.861
  122W        W  126   3.111   1.051   0.503
  123W        W  127   2.920   3.091   0.892
  124W        W  128   2.754   2.694   1.688
  125W        W  129   2.650   1.773   0.666
  126W        W  130   2.083   1.983   1.652
  127W        W  131   2.964   1.771   1.719
  128W        W  132   0.339   0.786   2.143
  129W        W  133   3.117   1.838   2.970
  130W        W  134   3.468   3.456   2.116
  131W        W  135   1.398   2.900   1.518
  132W        W  136   2.405   3.433   2.842
  133W        W  137   2.399   0.763   2.606
  134W        W  138   1.606   3.471   2.667
  135W        W  139   3.303   0.425   1.133
  136W        W  140   3.094   1.744   2.434
  137W        W  141   0.077   1.065   2.472
  138W        W  142   2.937   0.860   1.490
  139W        W  143   3.348   1.011   3.267
  140W        W  144   2.233   2.710   1.485
  141W        W  145   1.489   3.301   1.098
  142W        W  146   0.604   0.481   0.356
  143W        W  147   1.708   0.135   2.166
  144W        W  148   0.736   3.255   0.014
  145W        W  149   1.110   1.721   0.765
  146W        W  150   1.764   2.350   3.078
  147W        W  151   1.594   0.708   1.068
  148W        W  152   2.950   0.305   1.496
  149W        W  153   2.670   3.587   1.824
  150W        W  154   2.082   3.235   2.164
  151W        W  155   1.478   2.272   2.125
  152W        W  156   3.248   2.995   2.251
  153W        W  157   0.942   0.498   1.020
  154W        W  158   1.464   2.795   1.980
  155W        W  159   0.947   0.726   0.045
  156W        W  160   1.748   1.335   2.439
  157W        W  161   2.596   0.201   2.309
  158W        W  162   0.016   2.044   2.194
  159W        W  163   1.720   1.862   0.352
  160W        W  164   0.988   0.177   0.122
  161W        W  165   1.726   1.258   1.173
  162W        W  166   2.696   0.234   2.872
  163W        W  167   1.284   2.246   2.981
  164W        W  168   2.088   2.028   3.198
  165W        W  169   2.705   2.058   3.091
  166W        W  170   1.989   0.198   3.596
  167W        W  171   1.211   0.814   1.989
  168W        W  172   0.637   0.770   1.387
  169W        W  173   0.423   3.482   1.063
  170W        W  174   1.755   2.812   3.188
  171W        W  175   0.790   2.297   0.547
  172W        W  176   2.470   1.682   1.768
  173W        W  177   2.750   1.481   2.167
  174W        W  178   1.955   2.155   2.101
  175W        W  179   2.425   2.529   0.233
  176W        W  180   2.097   0.550   1.561
  177W        W  181   3.576   0.828   0.829
  178W        W  182   0.070   3.417   2.860
  179W        W  183   0.487   2.643   2.392
  180W        W  184   0.054   3.489   0.624
  181W        W  185   1.953   0.759   2.430
  182W        W  186   1.316   2.782   0.279
  183W        W  187   3.221   3.164   0.465
  184W        W  188   2.196   1.817   0.479
  185W        W  189   1.039   1.008   0.996
  186W        W  190   1.871   0.918   0.048
  187W        W  191   2.455   2.483   3.226
  188W        W  192   2.808   0.389   0.843
  189W        W  193   0.138   0.237   0.291
  190W        W  194   1.424   2.556   2.581
  191W        W  195   1.223   2.472   1.673
  192W        W  196   0.965   2.424   0.071
  193W        W  197   0.206   2.665   0.839
  194W        W  198   0.710   1.735   3.281
  195W        W  199   1.414   0.295   3.467
  196W        W  200   2.123   0.437   2.823
  197W        W  201   1.318   0.205   1.104
  198W        W  202   2.377   0.282   0.609
  199W        W  203   0.322   0.214   2.186
  200W        W  204   0.370   1.177   1.556
  201W        W  205   3.059   0.285   1.962
  202W        W  206   0.481   0.783   0.776
  203W        W  207   3.052   0.471   2.392
  204W        W  208   3.448   1.674   0.077
  205W        W  209   0.740   0.432   1.896
  206W        W  210   1.854   1.004   2.836
  207W        W  211   0.002   0.694   0.314
  208W        W  212   0.788   2.083   2.875
  209W        W  213   2.146   1.481   2.054
  210W        W  214   2.013   3.560   0.350
  211W        W  215   0.159   2.067   0.047
  212W        W  216   0.894   2.478   3.173
  213W        W  217   0.415   1.645   2.804
  214W        W  218   1.406   1.750   2.598
  215W        W  219   3.174   0.109   2.860
  216W        W  220   3.572   1.719   2.851
  217W        W  221   3.560   1.919   0.537
  218W        W  222   2.423   2.251   0.636
  219W        W  223   2.897   3.551   0.331
  220W        W  224   2.074   1.541   3.473
  221W        W  225   0.404   2.508   3.513
  222W        W  226   3.610   0.430   3.465
  223W        W  227   3.328   1.358   2.086
  224W        W  228   1.636   3.488   3.563
  225W        W  229   1.491   0.117   0.290
  226W        W  230   3.030   2.716   0.233
  227W        W  231   0.799   0.809   3.119
  228W        W  232   1.233   2.803   2.981
  229W        W  233   3.359   0.794   2.779
  230W        W  234   2.570   3.453   0.747
  231W        W  235   2.809   2.072   2.114
  232W        W  236   1.059   0.488   2.781
  233W        W  237   1.528   1.557   3.538
  234W        W  238   1.031   2.736   0.732
  235W        W  239   2.786   2.234   0.996
  236W        W  240   0.554   0.860   2.720
  237W        W  241   1.883   2.922   1.184
  238W        W  242   3.633   1.482   1.365
  239W        W  243   1.855   0.115   3.084
  240W        W  244   2.635   2.820   2.163
  241W        W  245   2.938   3.164   1.871
  242W        W  246   2.157   2.966   0.299
  243W        W  247   0.167   2.858   3.141
  244W        W  248   0.910   0.850   2.379
  245W        W  249   0.880   0.198   1.489
  246W        W  250   2.501   1.040   2.181
  247W        W  251   1.299   2.211   0.381
  248W        W  252   3.297   2.153   1.880
  249W        W  253   0.624   2.911   3.303
  250W        W  254   3.011   3.593   1.100
  251W        W  255   1.110   0.613   1.545
  252W        W  256   0.879   2.106   1.635
  253W        W  257   1.192   3.517   2.385
  254W        W  258   3.259   3.613   3.417
  255W        W  259   2.418   1.801   2.350
  256W        W  260   0.267   1.599   0.265
  257W        W  261   3.401   3.257   0.962
  258W        W  262   3.238   0.581   0.581
  259W        W  263   1.377   0.100   2.984
  260W        W  264   3.083   2.902   1.442
  261W        W  265   3.112   1.458   1.347
  262W        W  266   1.229   1.131   1.563
  263W        W  267   1.474   1.393   2.887
  264W        W  268   2.585   2.546   2.750
  265W        W  269   1.235   1.000   2.862
  266W        W  270   1.214   3.466   1.478
  267W        W  271   0.531   3.425   3.112
  268W        W  272   0.643   2.786   0.242
  269W        W  273   3.160   2.544   1.052
  270W        W  274   0.764   1.336   2.938
  271W        W  275   3.537   1.266   0.419
  272W        W  276   1.282   2.323   0.890
  273W        W  277   2.381   1.705   2.971
  274W        W  278   2.272   1.333   2.515
  275W        W  279   0.832   1.705   2.544
  276W        W  280   3.042   3.593   2.373
  277W        W  281   2.833   0.227   3.367
  278W        W  282   0.497   0.377   2.954
  279W        W  283   0.836   1.400   2.007
  280W        W  284   1.205   1.214   0.129
  281W        W  285   0.008   2.973   2.674
  282W        W  286   1.593   1.682   2.117
  283W        W  287   1.416   0.707   0.222
  284W        W  288   0.551   1.523   1.003
  285W        W  289   0.322   3.375   2.440
  286W        W  290   3.117   1.601   0.548
  287W        W  291   3.212   0.517   3.234
  288W        W  292   2.648   2.726   1.197
  289W        W  293   0.246   1.650   3.374
  290W        W  294   3.212   0.114   0.670
  291W        W  295   2.732   2.589   0.681
  292W        W  296   1.634   1.647   0.766
  293W        W  297   2.821   0.451   0.289
  294W        W  298   2.886   1.058   2.475
  295W        W  299   0.595   1.651   1.682
  296W        W  300   0.889   2.590   1.331
  297W        W  301   2.652   1.210   1.296
  298W        W  302   1.675   0.589   1.992
  299W        W  303   3.637   2.500   2.503
  300W        W  304   3.555   0.487   2.064
  301W        W  305   0.094   3.317   1.440
  302W        W  306   0.603   2.504   0.976
  303W        W  307   0.518   0.121   3.529
  304W        W  308   1.637   2.974   3.631
  305W        W  309   3.392   1.942   1.421
  306W        W  310   2.746   2.119   0.301
  307W        W  311   2.041   3.640   2.513
  308W        W  312   2.898   2.362   3.550
  309W        W  313   1.713   0.072   0.830
  310W        W  314   2.426   0.941   1.689
  311W        W  315   0.112   2.528   2.021
  312W        W  316   1.365   0.490   0.662
  313W        W  317   1.169   1.974   3.511
  314W        W  318   2.163   0.955   1.225
  315W        W  319   2.368   2.365   2.347
  316W        W  320   0.522   2.970   2.782
  317W        W  321   1.113   2.953   3.505
  318W        W  322   0.964   0.750   0.519
  319W        W  323   2.481   0.892   0.844
  320W        W  324   2.439   3.000   3.081
  321W        W  325   1.124   1.592   1.680
  322W        W  326   0.779   3.290   2.545
  323W        W  327   3.524   3.407   0.146
  324W        W  328   0.387   2.079   3.142
  325W        W  329   2.382   2.341   1.830
  326W        W  330   0.818   1.990   1.072
  327W        W  331   1.189   2.997   2.467
  328W        W  332   1.567   0.416   1.508
  329W        W  333   0.178   2.400   0.438
  330W        W  334   1.697   1.351   0.308
  331W        W  335   0.343   1.900   1.327
  332W        W  336   1.633   0.542   2.791
  333W        W  337   3.305   0.251   0.218
  334W        W  338   3.398   1.997   3.317
  335W        W  339   2.052   3.254   3.469
  336W        W  340   3.610   2.348   2.991
  337W        W  341   3.018   3.146   3.602
  338W        W  342   0.757   3.602   2.080
  339W        W  343   3.616   2.224   0.954
  340W        W  344   2.146   1.491   1.467
  341W        W  345   1.913   0.103   1.357
  342W        W  346   0.972   3.087   1.194
  343W        W  347   1.471   0.828   2.419
  344W        W  348   1.171   0.197   1.888
  345W        W  349   0.234   3.019   0.436
  346W        W  350   2.050   2.383   1.154
  347W        W  351   0.925   3.178   3.033
  348W        W  352   0.402   2.001   0.729
  349W        W  353   0.287   0.544   1.728
  350W        W  354   1.835   2.509   1.785
  351W        W  355   0.087   0.363   0.805
  352W        W  356   2.751   1.569   2.732
  353W        W  357   2.628   0.955   0.304
  354W        W  358   3.145   2.627   1.952
  355W        W  359   1.806   3.111   1.783
  356W        W  360   1.218   3.215   0.694
  357W        W  361   2.500   0.118   0.124
  358W        W  362   0.300   3.378   1.865
  359W        W  363   2.497   1.136   3.500
  360W        W  364   0.480   0.666   3.499
  361W        W  365   0.211   1.266   0.832
  362W        W  366   0.902   1.255   0.557
  363W        W  367   2.665   1.582   3.374
  364W        W  368   1.008   1.863   2.083
  365W        W  369   2.482   0.149   1.203
  366W        W  370   1.613   3.580   1.706
  367W        W  371   2.827   3.042   2.643
  368W        W  372   2.411   3.191   1.754
  369W        W  373   2.430   2.171   1.348
  370W        W  374   1.892   0.396   0.419
  371W        W  375   3.573   0.024   1.141
  372W        W  376   1.261   1.659   0.304
  373W        W  377   3.427   0.996   1.294
  374W        W  378   2.119   2.166   0.171
  375W        W  379   3.055   2.366   2.919
  376W        W  380   2.709   3.067   0.386
  377W        W  381   1.324   0.742   3.292
  378W        W  382   1.144   1.326   2.533
  379W        W  383   3.236   2.821   2.810
  380W        W  384   2.336   0.771   3.187
  381W        W  385   0.180   1.242   2.964
  382W        W  386   1.940   1.719   2.690
  383W        W  387   0.297   2.477   1.347
  384W        W  388   0.444   1.774   2.237
  385W        W  389   2.761   2.060   2.587
  386W        W  390   2.533   3.440   3.398
  387W        W  391   2.429   1.179   2.951
  388W        W  392   2.706   3.233   1.356
  389W        W  393   1.708   2.953   2.679
  390W        W  394   1.193   3.308   1.948
  391W        W  395   2.998   2.479   2.367
  392W        W  396   2.048   2.551   3.504
  393W        W  397   0.653   2.504   1.843
  394W        W  398   2.999   2.263   1.488
  395W        W  399   2.640   3.329   2.239
  396W        W  400   0.618   3.058   2.109
  397W        W  401   1.639   1.110   3.319
  398W        W  402   2.090   3.276   0.830
  399W        W  403   1.398   2.531   3.468
  400W        W  404   1.524   2.769   0.845
  401W        W  405   0.745   1.509   0.104
  402W        W  406   3.165   2.218   4.296
  403W        W  407   1.213   3.294   3.849
  404W        W  408   1.296   1.446   4.832
  405W        W  409   0.811   1.294   4.996
  406W        W  410   1.802   2.109   4.430
  407W        W  411   2.231   1.301   4.007
  408W        W  412   1.788   2.536   3.976
  409W        W  413   0.484   0.375   4.811
  410W        W  414   3.172   0.769   3.762
  411W        W  415   3.378   2.743   4.259
  412W        W  416   0.507   3.529   4.013
  413W        W  417   0.900   3.575   4.689
  414W        W  418   2.725   1.769   4.849
  415W        W  419   2.691   1.457   3.876
  416W        W  420   1.705   0.931   5.215
  417W        W  421   3.176   1.809   4.631
  418W        W  422   2.078   0.467   4.647
  419W        W  423   0.735   3.161   4.330
  420W        W  424   0.106   0.660   4.929
  421W        W  425   1.691   3.234   4.188
  422W        W  426   3.083   1.260   3.652
  423W        W  427   1.270   1.950   4.915
  424W        W  428   3.521   0.117   5.305
  425W        W  429   0.740   1.989   3.773
  426W        W  430   0.395   1.022   3.952
  427W        W  431   0.457   2.978   4.746
  428W        W  432   1.588   2.461   4.994
  429W        W  433   1.846   0.962   4.392
  430W        W  434   3.229   3.360   5.164
  431W        W  435   3.619   2.869   4.896
  432W        W  436   0.012   1.712   4.586
  433W        W  437   2.327   1.391   4.537
  434W        W  438   2.204   1.881   4.641
  435W        W  439   0.422   0.094   5.196
  436W        W  440   2.193   0.775   4.098
  437W        W  441   2.592   0.655   4.879
  438W        W  442   0.725   3.365   5.269
  439W        W  443   1.383   1.082   4.255
  440W        W  444   3.004   0.850   4.600
  441W        W  445   3.371   1.332   4.545
  442W        W  446   1.040   0.085   4.251
  443W        W  447   3.361   0.619   5.286
  444W        W  448   3.511   2.868   3.731
  445W        W  449   2.335   0.658   3.663
  446W        W  450   2.046   2.735   4.390
  447W        W  451   2.145   3.302   4.982
  448W        W  452   3.319   2.305   3.826
  449W        W  453   1.754   1.788   4.887
  450W        W  454   2.824   1.318   4.505
  451W        W  455   3.111   1.051   4.147
  452W        W  456   2.920   3.091   4.536
  453W        W  457   2.650   1.773   4.310
  454W        W  458   2.083   1.983   5.296
  455W        W  459   3.303   0.425   4.777
  456W        W  460   2.937   0.860   5.134
  457W        W  461   2.233   2.710   5.129
  458W        W  462   1.489   3.301   4.742
  459W        W  463   0.604   0.481   4.000
  460W        W  464   0.736   3.255   3.658
  461W        W  465   1.110   1.721   4.409
  462W        W  466   1.594   0.708   4.712
  463W        W  467   2.950   0.305   5.140
  464W        W  468   0.942   0.498   4.664
  465W        W  469   0.947   0.726   3.689
  466W        W  470   1.720   1.862   3.996
  467W        W  471   0.988   0.177   3.766
  468W        W  472   1.726   1.258   4.817
  469W        W  473   0.637   0.770   5.031
  470W        W  474   0.423   3.482   4.707
  471W        W  475   0.790   2.297   4.191
  472W        W  476   2.425   2.529   3.877
  473W        W  477   2.097   0.550   5.205
  474W        W  478   3.576   0.828   4.473
  475W        W  479   0.054   3.489   4.268
  476W        W  480   1.316   2.782   3.923
  477W        W  481   3.221   3.164   4.109
  478W        W  482   2.196   1.817   4.123
  479W        W  483   1.039   1.008   4.640
  480W        W  484   1.871   0.918   3.692
  481W        W  485   2.808   0.389   4.487
  482W        W  486   0.138   0.237   3.935
  483W        W  487   0.965   2.424   3.715
  484W        W  488   0.206   2.665   4.483
  485W        W  489   1.318   0.205   4.748
  486W        W  490   2.377   0.282   4.253
  487W        W  491   0.481   0.783   4.420
  488W        W  492   3.448   1.674   3.721
  489W        W  493   0.002   0.694   3.958
  490W        W  494   2.013   3.560   3.994
  491W        W  495   0.159   2.067   3.691
  492W        W  496   3.560   1.919   4.181
  493W        W  497   2.423   2.251   4.280
  494W        W  498   2.897   3.551   3.975
  495W        W  499   1.491   0.117   3.934
  496W        W  500   3.030   2.716   3.877
  497W        W  501   2.570   3.453   4.391
  498W        W  502   1.031   2.736   4.376
  499W        W  503   2.786   2.234   4.640
  500W        W  504   1.883   2.922   4.828
  501W        W  505   3.633   1.482   5.009
  502W        W  506   2.157   2.966   3.943
  503W        W  507   1.299   2.211   4.025
  504W        W  508   3.011   3.593   4.744
  505W        W  509   1.110   0.613   5.189
  506W        W  510   0.879   2.106   5.279
  507W        W  511   0.267   1.599   3.909
  508W        W  512   3.401   3.257   4.606
  509W        W  513   3.238   0.581   4.225
  510W        W  514   3.083   2.902   5.086
  511W        W  515   0.643   2.786   3.886
  512W        W  516   3.160   2.544   4.696
  513W        W  517   3.537   1.266   4.063
  514W        W  518   1.282   2.323   4.534
  515W        W  519   1.205   1.214   3.773
  516W        W  520   1.416   0.707   3.866
  517W        W  521   0.551   1.523   4.647
  518W        W  522   3.117   1.601   4.192
  519W        W  523   2.648   2.726   4.841
  520W        W  524   3.212   0.114   4.314
  521W        W  525   2.732   2.589   4.325
  522W        W  526   1.634   1.647   4.410
  523W        W  527   2.821   0.451   3.933
  524W        W  528   2.652   1.210   4.940
  525W        W  529   0.094   3.317   5.084
  526W        W  530   0.603   2.504   4.620
  527W        W  531   3.392   1.942   5.065
  528W        W  532   2.746   2.119   3.945
  529W        W  533   1.713   0.072   4.474
  530W        W  534   1.365   0.490   4.306
  531W        W  535   2.163   0.955   4.869
  532W        W  536   0.964   0.750   4.163
  533W        W  537   2.481   0.892   4.488
  534W        W  538   3.524   3.407   3.790
  535W        W  539   0.818   1.990   4.716
  536W        W  540   1.567   0.416   5.152
  537W        W  541   0.178   2.400   4.082
  538W        W  542   1.697   1.351   3.952
  539W        W  543   0.343   1.900   4.971
  540W        W  544   3.305   0.251   3.862
  541W        W  545   3.616   2.224   4.598
  542W        W  546   2.146   1.491   5.111
  543W        W  547   1.913   0.103   5.001
  544W        W  548   0.972   3.087   4.838
  545W        W  549   0.234   3.019   4.080
  546W        W  550   2.050   2.383   4.798
  547W        W  551   0.402   2.001   4.373
  548W        W  552   0.087   0.363   4.449
  549W        W  553   2.628   0.955   3.948
  550W        W  554   1.218   3.215   4.338
  551W        W  555   2.500   0.118   3.768
  552W        W  556   0.211   1.266   4.476
  553W        W  557   0.902   1.255   4.201
  554W        W  558   2.482   0.149   4.847
  555W        W  559   2.430   2.171   4.992
  556W        W  560   1.892   0.396   4.063
  557W        W  561   3.573   0.024   4.785
  558W        W  562   1.261   1.659   3.948
  559W        W  563   3.427   0.996   4.938
  560W        W  564   2.119   2.166   3.815
  561W        W  565   2.709   3.067   4.030
  562W        W  566   0.297   2.477   4.991
  563W        W  567   2.706   3.233   5.000
  564W        W  568   2.999   2.263   5.132
  565W        W  569   2.090   3.276   4.474
  566W        W  570   1.524   2.769   4.489
  567W        W  571   0.745   1.509   3.748
  568W        W  572   0.811   4.938   1.352
  569W        W  573   0.126   4.406   3.104
  570W        W  574   0.888   3.686   2.906
  571W        W  575   2.582   4.074   1.793
  572W        W  576   2.231   4.945   0.363
  573W        W  577   2.801   4.379   3.454
  574W        W  578   0.167   4.171   2.579
  575W        W  579   0.220   4.963   2.025
  576W        W  580   1.113   4.854   3.262
  577W        W  581   3.572   4.713   1.761
  578W        W  582   1.644   5.089   1.647
  579W        W  583   3.356   5.145   3.265
  580W        W  584   1.313   4.918   2.069
  581W        W  585   0.071   4.902   3.570
  582W        W  586   0.484   4.019   1.167
  583W        W  587   2.887   4.460   2.023
  584W        W  588   3.172   4.413   0.118
  585W        W  589   0.697   3.973   2.471
  586W        W  590   3.320   4.991   2.746
  587W        W  591   2.691   5.101   0.232
  588W        W  592   1.705   4.575   1.571
  589W        W  593   2.078   4.111   1.003
  590W        W  594   0.106   4.304   1.285
  591W        W  595   2.892   4.911   1.759
  592W        W  596   3.083   4.904   0.008
  593W        W  597   1.292   3.999   2.364
  594W        W  598   3.521   3.761   1.661
  595W        W  599   0.395   4.666   0.308
  596W        W  600   1.846   4.606   0.748
  597W        W  601   2.906   4.857   3.118
  598W        W  602   2.327   5.035   0.893
  599W        W  603   0.547   4.945   2.471
  600W        W  604   0.532   4.821   3.393
  601W        W  605   0.422   3.738   1.552
  602W        W  606   2.190   4.085   2.113
  603W        W  607   1.838   4.270   3.276
  604W        W  608   2.193   4.419   0.454
  605W        W  609   2.343   3.893   3.247
  606W        W  610   2.792   4.361   2.965
  607W        W  611   2.592   4.299   1.235
  608W        W  612   1.383   4.726   0.611
  609W        W  613   0.952   4.010   3.275
  610W        W  614   3.004   4.494   0.956
  611W        W  615   3.371   4.976   0.901
  612W        W  616   1.040   3.729   0.607
  613W        W  617   3.361   4.263   1.642
  614W        W  618   2.335   4.302   0.019
  615W        W  619   3.508   3.828   2.489
  616W        W  620   2.120   3.650   1.795
  617W        W  621   0.732   4.553   1.858
  618W        W  622   3.339   4.543   2.210
  619W        W  623   3.606   3.943   2.984
  620W        W  624   1.972   4.664   2.023
  621W        W  625   2.824   4.962   0.861
  622W        W  626   3.111   4.695   0.503
  623W        W  627   0.339   4.430   2.143
  624W        W  628   2.399   4.407   2.606
  625W        W  629   3.303   4.069   1.133
  626W        W  630   0.077   4.709   2.472
  627W        W  631   2.937   4.504   1.490
  628W        W  632   3.348   4.655   3.267
  629W        W  633   0.604   4.125   0.356
  630W        W  634   1.708   3.779   2.166
  631W        W  635   1.594   4.352   1.068
  632W        W  636   2.950   3.949   1.496
  633W        W  637   0.942   4.142   1.020
  634W        W  638   0.947   4.370   0.045
  635W        W  639   1.748   4.979   2.439
  636W        W  640   2.596   3.845   2.309
  637W        W  641   0.988   3.821   0.122
  638W        W  642   1.726   4.902   1.173
  639W        W  643   2.696   3.878   2.872
  640W        W  644   1.989   3.842   3.596
  641W        W  645   1.211   4.458   1.989
  642W        W  646   0.637   4.414   1.387
  643W        W  647   2.750   5.125   2.167
  644W        W  648   2.097   4.194   1.561
  645W        W  649   3.576   4.472   0.829
  646W        W  650   1.953   4.403   2.430
  647W        W  651   1.039   4.652   0.996
  648W        W  652   1.871   4.562   0.048
  649W        W  653   2.808   4.033   0.843
  650W        W  654   0.138   3.881   0.291
  651W        W  655   1.414   3.939   3.467
  652W        W  656   2.123   4.081   2.823
  653W        W  657   1.318   3.849   1.104
  654W        W  658   2.377   3.926   0.609
  655W        W  659   0.322   3.858   2.186
  656W        W  660   0.370   4.821   1.556
  657W        W  661   3.059   3.929   1.962
  658W        W  662   0.481   4.427   0.776
  659W        W  663   3.052   4.115   2.392
  660W        W  664   0.740   4.076   1.896
  661W        W  665   1.854   4.648   2.836
  662W        W  666   0.002   4.338   0.314
  663W        W  667   2.146   5.125   2.054
  664W        W  668   3.174   3.753   2.860
  665W        W  669   3.610   4.074   3.465
  666W        W  670   3.328   5.002   2.086
  667W        W  671   1.491   3.761   0.290
  668W        W  672   0.799   4.453   3.119
  669W        W  673   3.359   4.438   2.779
  670W        W  674   1.059   4.132   2.781
  671W        W  675   0.554   4.504   2.720
  672W        W  676   3.633   5.126   1.365
  673W        W  677   1.855   3.759   3.084
  674W        W  678   0.910   4.494   2.379
  675W        W  679   0.880   3.842   1.489
  676W        W  680   2.501   4.684   2.181
  677W        W  681   1.110   4.257   1.545
  678W        W  682   3.238   4.225   0.581
  679W        W  683   1.377   3.744   2.984
  680W        W  684   3.112   5.102   1.347
  681W        W  685   1.229   4.775   1.563
  682W        W  686   1.235   4.644   2.862
  683W        W  687   3.537   4.910   0.419
  684W        W  688   2.272   4.977   2.515
  685W        W  689   2.833   3.871   3.367
  686W        W  690   0.497   4.021   2.954
  687W        W  691   0.836   5.044   2.007
  688W        W  692   1.205   4.858   0.129
  689W        W  693   1.416   4.351   0.222
  690W        W  694   0.551   5.167   1.003
  691W        W  695   3.212   4.161   3.234
  692W        W  696   0.246   5.294   3.374
  693W        W  697   3.212   3.758   0.670
  694W        W  698   1.634   5.291   0.766
  695W        W  699   2.821   4.095   0.289
  696W        W  700   2.886   4.702   2.475
  697W        W  701   0.595   5.295   1.682
  698W        W  702   2.652   4.854   1.296
  699W        W  703   1.675   4.233   1.992
  700W        W  704   3.555   4.131   2.064
  701W        W  705   0.518   3.765   3.529
  702W        W  706   1.713   3.716   0.830
  703W        W  707   2.426   4.585   1.689
  704W        W  708   1.365   4.134   0.662
  705W        W  709   2.163   4.599   1.225
  706W        W  710   0.964   4.394   0.519
  707W        W  711   2.481   4.536   0.844
  708W        W  712   1.124   5.236   1.680
  709W        W  713   1.567   4.060   1.508
  710W        W  714   1.697   4.995   0.308
  711W        W  715   1.633   4.186   2.791
  712W        W  716   3.305   3.895   0.218
  713W        W  717   2.146   5.135   1.467
  714W        W  718   1.913   3.747   1.357
  715W        W  719   1.471   4.472   2.419
  716W        W  720   1.171   3.841   1.888
  717W        W  721   0.287   4.188   1.728
  718W        W  722   0.087   4.007   0.805
  719W        W  723   2.628   4.599   0.304
  720W        W  724   2.500   3.762   0.124
  721W        W  725   2.497   4.780   3.500
  722W        W  726   0.480   4.310   3.499
  723W        W  727   0.211   4.910   0.832
  724W        W  728   0.902   4.899   0.557
  725W        W  729   2.482   3.793   1.203
  726W        W  730   1.892   4.040   0.419
  727W        W  731   3.573   3.668   1.141
  728W        W  732   1.261   5.303   0.304
  729W        W  733   3.427   4.640   1.294
  730W        W  734   1.324   4.386   3.292
  731W        W  735   1.144   4.970   2.533
  732W        W  736   2.336   4.415   3.187
  733W        W  737   0.180   4.886   2.964
  734W        W  738   2.429   4.823   2.951
  735W        W  739   1.639   4.754   3.319
  736W        W  740   0.745   5.153   0.104
  737W        W  741   0.811   4.938   4.996
  738W        W  742   2.231   4.945   4.007
  739W        W  743   0.484   4.019   4.811
  740W        W  744   3.172   4.413   3.762
  741W        W  745   2.691   5.101   3.876
  742W        W  746   1.705   4.575   5.215
  743W        W  747   2.078   4.111   4.647
  744W        W  748   0.106   4.304   4.929
  745W        W  749   3.083   4.904   3.652
  746W        W  750   3.521   3.761   5.305
  747W        W  751   0.395   4.666   3.952
  748W        W  752   1.846   4.606   4.392
  749W        W  753   2.327   5.035   4.537
  750W        W  754   0.422   3.738   5.196
  751W        W  755   2.193   4.419   4.098
  752W        W  756   2.592   4.299   4.879
  753W        W  757   1.383   4.726   4.255
  754W        W  758   3.004   4.494   4.600
  755W        W  759   3.371   4.976   4.545
  756W        W  760   1.040   3.729   4.251
  757W        W  761   3.361   4.263   5.286
  758W        W  762   2.335   4.302   3.663
  759W        W  763   2.824   4.962   4.505
  760W        W  764   3.111   4.695   4.147
  761W        W  765   3.303   4.069   4.777
  762W        W  766   2.937   4.504   5.134
  763W        W  767   0.604   4.125   4.000
  764W        W  768   1.594   4.352   4.712
  765W        W  769   2.950   3.949   5.140
  766W        W  770   0.942   4.142   4.664
  767W        W  771   0.947   4.370   3.689
  768W        W  772   0.988   3.821   3.766
  769W        W  773   1.726   4.902   4.817
  770W        W  774   0.637   4.414   5.031
  771W        W  775   2.097   4.194   5.205
  772W        W  776   3.576   4.472   4.473
  773W        W  777   1.039   4.652   4.640
  774W        W  778   1.871   4.562   3.692
  775W        W  779   2.808   4.033   4.487
  776W        W  780   0.138   3.881   3.935
  777W        W  781   1.318   3.849   4.748
  778W        W  782   2.377   3.926   4.253
  779W        W  783   0.481   4.427   4.420
  780W        W  784   0.002   4.338   3.958
  781W        W  785   1.491   3.761   3.934
  782W        W  786   3.633   5.126   5.009
  783W        W  787   1.110   4.257   5.189
  784W        W  788   3.238   4.225   4.225
  785W        W  789   3.537   4.910   4.063
  786W        W  790   1.205   4.858   3.773
  787W        W  791   1.416   4.351   3.866
  788W        W  792   0.551   5.167   4.647
  789W        W  793   3.212   3.758   4.314
  790W        W  794   1.634   5.291   4.410
  791W        W  795   2.821   4.095   3.933
  792W        W  796   2.652   4.854   4.940
  793W        W  797   1.365   4.134   4.306
  794W        W  798   2.163   4.599   4.869
  795W        W  799   0.964   4.394   4.163
  796W        W  800   2.481   4.536   4.488
  797W        W  801   1.567   4.060   5.152
  798W        W  802   1.697   4.995   3.952
  799W        W  803   3.305   3.895   3.862
  800W        W  804   2.146   5.135   5.111
  801W        W  805   1.913   3.747   5.001
  802W        W  806   0.087   4.007   4.449
  803W        W  807   2.628   4.599   3.948
  804W        W  808   2.500   3.762   3.768
  805W        W  809   0.211   4.910   4.476
  806W        W  810   0.902   4.899   4.201
  807W        W  811   2.482   3.793   4.847
  808W        W  812   3.573   3.668   4.785
  809W        W  813   1.261   5.303   3.948
  810W        W  814   3.427   4.640   4.938
  811W        W  815   0.745   5.153   3.748
  812W        W  816   3.728   3.595   3.359
  813W        W  817   4.104   2.488   2.882
  814W        W  818   4.857   3.294   0.205
  815W        W  819   4.940   1.446   1.188
  816W        W  820   4.455   1.294   1.352
  817W        W  821   5.121   3.201   3.141
  818W        W  822   3.770   0.762   3.104
  819W        W  823   4.532   0.042   2.906
  820W        W  824   3.811   0.527   2.579
  821W        W  825   3.910   3.146   3.600
  822W        W  826   3.864   1.319   2.025
  823W        W  827   4.757   1.210   3.262
  824W        W  828   5.288   1.445   1.647
  825W        W  829   4.334   2.218   2.248
  826W        W  830   3.693   1.746   1.819
  827W        W  831   4.729   1.718   3.011
  828W        W  832   4.616   2.945   1.710
  829W        W  833   4.957   1.274   2.069
  830W        W  834   5.306   1.867   3.048
  831W        W  835   3.715   1.258   3.570
  832W        W  836   4.128   0.375   1.167
  833W        W  837   4.655   2.633   2.166
  834W        W  838   5.248   3.277   2.177
  835W        W  839   4.151   3.529   0.369
  836W        W  840   4.544   3.575   1.045
  837W        W  841   4.341   0.329   2.471
  838W        W  842   4.379   3.161   0.686
  839W        W  843   3.750   0.660   1.285
  840W        W  844   3.994   2.884   1.674
  841W        W  845   3.750   3.018   2.172
  842W        W  846   4.541   2.590   2.652
  843W        W  847   4.914   1.950   1.271
  844W        W  848   4.936   0.355   2.364
  845W        W  849   4.384   1.989   0.129
  846W        W  850   4.039   1.022   0.308
  847W        W  851   4.101   2.978   1.102
  848W        W  852   3.656   1.712   0.942
  849W        W  853   4.767   2.127   2.515
  850W        W  854   4.191   1.301   2.471
  851W        W  855   4.176   1.177   3.393
  852W        W  856   4.066   0.094   1.552
  853W        W  857   4.369   3.365   1.625
  854W        W  858   5.027   1.082   0.611
  855W        W  859   4.596   0.366   3.275
  856W        W  860   4.758   3.549   3.372
  857W        W  861   4.684   0.085   0.607
  858W        W  862   4.062   2.071   1.789
  859W        W  863   4.376   0.909   1.858
  860W        W  864   3.930   2.109   2.632
  861W        W  865   3.983   0.786   2.143
  862W        W  866   5.042   2.900   1.518
  863W        W  867   5.250   3.471   2.667
  864W        W  868   3.721   1.065   2.472
  865W        W  869   5.133   3.301   1.098
  866W        W  870   4.248   0.481   0.356
  867W        W  871   4.380   3.255   0.014
  868W        W  872   4.754   1.721   0.765
  869W        W  873   5.238   0.708   1.068
  870W        W  874   5.122   2.272   2.125
  871W        W  875   4.586   0.498   1.020
  872W        W  876   5.108   2.795   1.980
  873W        W  877   4.591   0.726   0.045
  874W        W  878   3.660   2.044   2.194
  875W        W  879   4.632   0.177   0.122
  876W        W  880   4.928   2.246   2.981
  877W        W  881   4.855   0.814   1.989
  878W        W  882   4.281   0.770   1.387
  879W        W  883   4.067   3.482   1.063
  880W        W  884   4.434   2.297   0.547
  881W        W  885   3.714   3.417   2.860
  882W        W  886   4.131   2.643   2.392
  883W        W  887   3.698   3.489   0.624
  884W        W  888   4.960   2.782   0.279
  885W        W  889   4.683   1.008   0.996
  886W        W  890   3.782   0.237   0.291
  887W        W  891   5.068   2.556   2.581
  888W        W  892   4.867   2.472   1.673
  889W        W  893   4.609   2.424   0.071
  890W        W  894   3.850   2.665   0.839
  891W        W  895   4.354   1.735   3.281
  892W        W  896   4.962   0.205   1.104
  893W        W  897   3.966   0.214   2.186
  894W        W  898   4.014   1.177   1.556
  895W        W  899   4.125   0.783   0.776
  896W        W  900   4.384   0.432   1.896
  897W        W  901   3.646   0.694   0.314
  898W        W  902   4.432   2.083   2.875
  899W        W  903   3.803   2.067   0.047
  900W        W  904   4.538   2.478   3.173
  901W        W  905   4.059   1.645   2.804
  902W        W  906   5.050   1.750   2.598
  903W        W  907   4.048   2.508   3.513
  904W        W  908   5.280   3.488   3.563
  905W        W  909   4.443   0.809   3.119
  906W        W  910   4.877   2.803   2.981
  907W        W  911   4.703   0.488   2.781
  908W        W  912   4.675   2.736   0.732
  909W        W  913   4.198   0.860   2.720
  910W        W  914   3.811   2.858   3.141
  911W        W  915   4.554   0.850   2.379
  912W        W  916   4.524   0.198   1.489
  913W        W  917   4.943   2.211   0.381
  914W        W  918   4.268   2.911   3.303
  915W        W  919   4.754   0.613   1.545
  916W        W  920   4.523   2.106   1.635
  917W        W  921   4.836   3.517   2.385
  918W        W  922   3.911   1.599   0.265
  919W        W  923   5.021   0.100   2.984
  920W        W  924   4.873   1.131   1.563
  921W        W  925   4.879   1.000   2.862
  922W        W  926   4.858   3.466   1.478
  923W        W  927   4.175   3.425   3.112
  924W        W  928   4.287   2.786   0.242
  925W        W  929   4.408   1.336   2.938
  926W        W  930   4.926   2.323   0.890
  927W        W  931   4.476   1.705   2.544
  928W        W  932   4.141   0.377   2.954
  929W        W  933   4.480   1.400   2.007
  930W        W  934   4.849   1.214   0.129
  931W        W  935   3.652   2.973   2.674
  932W        W  936   5.237   1.682   2.117
  933W        W  937   4.195   1.523   1.003
  934W        W  938   3.966   3.375   2.440
  935W        W  939   3.890   1.650   3.374
  936W        W  940   5.278   1.647   0.766
  937W        W  941   4.239   1.651   1.682
  938W        W  942   4.533   2.590   1.331
  939W        W  943   3.738   3.317   1.440
  940W        W  944   4.247   2.504   0.976
  941W        W  945   4.162   0.121   3.529
  942W        W  946   3.756   2.528   2.021
  943W        W  947   4.813   1.974   3.511
  944W        W  948   4.166   2.970   2.782
  945W        W  949   4.757   2.953   3.505
  946W        W  950   4.608   0.750   0.519
  947W        W  951   4.768   1.592   1.680
  948W        W  952   4.423   3.290   2.545
  949W        W  953   4.031   2.079   3.142
  950W        W  954   4.462   1.990   1.072
  951W        W  955   4.833   2.997   2.467
  952W        W  956   5.211   0.416   1.508
  953W        W  957   3.822   2.400   0.438
  954W        W  958   3.987   1.900   1.327
  955W        W  959   5.277   0.542   2.791
  956W        W  960   4.401   3.602   2.080
  957W        W  961   4.616   3.087   1.194
  958W        W  962   5.115   0.828   2.419
  959W        W  963   4.815   0.197   1.888
  960W        W  964   3.878   3.019   0.436
  961W        W  965   4.569   3.178   3.033
  962W        W  966   4.046   2.001   0.729
  963W        W  967   3.931   0.544   1.728
  964W        W  968   3.731   0.363   0.805
  965W        W  969   4.862   3.215   0.694
  966W        W  970   3.944   3.378   1.865
  967W        W  971   4.124   0.666   3.499
  968W        W  972   3.855   1.266   0.832
  969W        W  973   4.546   1.255   0.557
  970W        W  974   4.652   1.863   2.083
  971W        W  975   5.257   3.580   1.706
  972W        W  976   4.905   1.659   0.304
  973W        W  977   4.968   0.742   3.292
  974W        W  978   4.788   1.326   2.533
  975W        W  979   3.824   1.242   2.964
  976W        W  980   3.941   2.477   1.347
  977W        W  981   4.088   1.774   2.237
  978W        W  982   4.837   3.308   1.948
  979W        W  983   4.297   2.504   1.843
  980W        W  984   4.262   3.058   2.109
  981W        W  985   5.283   1.110   3.319
  982W        W  986   5.042   2.531   3.468
  983W        W  987   4.389   1.509   0.104
  984W        W  988   4.857   3.294   3.849
  985W        W  989   4.940   1.446   4.832
  986W        W  990   4.455   1.294   4.996
  987W        W  991   4.128   0.375   4.811
  988W        W  992   4.151   3.529   4.013
  989W        W  993   4.544   3.575   4.689
  990W        W  994   4.379   3.161   4.330
  991W        W  995   3.750   0.660   4.929
  992W        W  996   4.914   1.950   4.915
  993W        W  997   4.384   1.989   3.773
  994W        W  998   4.039   1.022   3.952
  995W        W  999   4.101   2.978   4.746
  996W        W 1000   3.656   1.712   4.586
  997W        W 1001   4.066   0.094   5.196
  998W        W 1002   4.369   3.365   5.269
  999W        W 1003   5.027   1.082   4.255
 1000W        W 1004   4.684   0.085   4.251
 1001W        W 1005   5.133   3.301   4.742
 1002W        W 1006   4.248   0.481   4.000
 1003W        W 1007   4.380   3.255   3.658
 1004W        W 1008   4.754   1.721   4.409
 1005W        W 1009   5.238   0.708   4.712
 1006W        W 1010   4.586   0.498   4.664
 1007W        W 1011   4.591   0.726   3.689
 1008W        W 1012   4.632   0.177   3.766
 1009W        W 1013   4.281   0.770   5.031
 1010W        W 1014   4.067   3.482   4.707
 1011W        W 1015   4.434   2.297   4.191
 1012W        W 1016   3.698   3.489   4.268
 1013W        W 1017   4.960   2.782   3.923
 1014W        W 1018   4.683   1.008   4.640
 1015W        W 1019   3.782   0.237   3.935
 1016W        W 1020   4.609   2.424   3.715
 1017W        W 1021   3.850   2.665   4.483
 1018W        W 1022   4.962   0.205   4.748
 1019W        W 1023   4.125   0.783   4.420
 1020W        W 1024   3.646   0.694   3.958
 1021W        W 1025   3.803   2.067   3.691
 1022W        W 1026   4.675   2.736   4.376
 1023W        W 1027   4.943   2.211   4.025
 1024W        W 1028   4.754   0.613   5.189
 1025W        W 1029   4.523   2.106   5.279
 1026W        W 1030   3.911   1.599   3.909
 1027W        W 1031   4.287   2.786   3.886
 1028W        W 1032   4.926   2.323   4.534
 1029W        W 1033   4.849   1.214   3.773
 1030W        W 1034   4.195   1.523   4.647
 1031W        W 1035   5.278   1.647   4.410
 1032W        W 1036   3.738   3.317   5.084
 1033W        W 1037   4.247   2.504   4.620
 1034W        W 1038   4.608   0.750   4.163
 1035W        W 1039   4.462   1.990   4.716
 1036W        W 1040   5.211   0.416   5.152
 1037W        W 1041   3.822   2.400   4.082
 1038W        W 1042   3.987   1.900   4.971
 1039W        W 1043   4.616   3.087   4.838
 1040W        W 1044   3.878   3.019   4.080
 1041W        W 1045   4.046   2.001   4.373
 1042W        W 1046   3.731   0.363   4.449
 1043W        W 1047   4.862   3.215   4.338
 1044W        W 1048   3.855   1.266   4.476
 1045W        W 1049   4.546   1.255   4.201
 1046W        W 1050   4.905   1.659   3.948
 1047W        W 1051   3.941   2.477   4.991
 1048W        W 1052   4.389   1.509   3.748
 1049W        W 1053   4.455   4.938   1.352
 1050W        W 1054   3.770   4.406   3.104
 1051W        W 1055   4.532   3.686   2.906
 1052W        W 1056   3.811   4.171   2.579
 1053W        W 1057   3.864   4.963   2.025
 1054W        W 1058   4.757   4.854   3.262
 1055W        W 1059   4.957   4.918   2.069
 1056W        W 1060   3.715   4.902   3.570
 1057W        W 1061   4.128   4.019   1.167
 1058W        W 1062   4.341   3.973   2.471
 1059W        W 1063   3.750   4.304   1.285
 1060W        W 1064   4.936   3.999   2.364
 1061W        W 1065   4.039   4.666   0.308
 1062W        W 1066   4.191   4.945   2.471
 1063W        W 1067   4.176   4.821   3.393
 1064W        W 1068   4.066   3.738   1.552
 1065W        W 1069   5.027   4.726   0.611
 1066W        W 1070   4.596   4.010   3.275
 1067W        W 1071   4.684   3.729   0.607
 1068W        W 1072   4.376   4.553   1.858
 1069W        W 1073   3.983   4.430   2.143
 1070W        W 1074   3.721   4.709   2.472
 1071W        W 1075   4.248   4.125   0.356
 1072W        W 1076   5.238   4.352   1.068
 1073W        W 1077   4.586   4.142   1.020
 1074W        W 1078   4.591   4.370   0.045
 1075W        W 1079   4.632   3.821   0.122
 1076W        W 1080   4.855   4.458   1.989
 1077W        W 1081   4.281   4.414   1.387
 1078W        W 1082   4.683   4.652   0.996
 1079W        W 1083   3.782   3.881   0.291
 1080W        W 1084   5.058   3.939   3.467
 1081W        W 1085   4.962   3.849   1.104
 1082W        W 1086   3.966   3.858   2.186
 1083W        W 1087   4.014   4.821   1.556
 1084W        W 1088   4.125   4.427   0.776
 1085W        W 1089   4.384   4.076   1.896
 1086W        W 1090   3.646   4.338   0.314
 1087W        W 1091   4.443   4.453   3.119
 1088W        W 1092   4.703   4.132   2.781
 1089W        W 1093   4.198   4.504   2.720
 1090W        W 1094   4.554   4.494   2.379
 1091W        W 1095   4.524   3.842   1.489
 1092W        W 1096   4.754   4.257   1.545
 1093W        W 1097   5.021   3.744   2.984
 1094W        W 1098   4.873   4.775   1.563
 1095W        W 1099   4.879   4.644   2.862
 1096W        W 1100   4.141   4.021   2.954
 1097W        W 1101   4.480   5.044   2.007
 1098W        W 1102   4.849   4.858   0.129
 1099W        W 1103   4.195   5.167   1.003
 1100W        W 1104   3.890   5.294   3.374
 1101W        W 1105   4.239   5.295   1.682
 1102W        W 1106   4.162   3.765   3.529
 1103W        W 1107   4.608   4.394   0.519
 1104W        W 1108   4.768   5.236   1.680
 1105W        W 1109   5.211   4.060   1.508
 1106W        W 1110   5.277   4.186   2.791
 1107W        W 1111   5.115   4.472   2.419
 1108W        W 1112   4.815   3.841   1.888
 1109W        W 1113   3.931   4.188   1.728
 1110W        W 1114   3.731   4.007   0.805
 1111W        W 1115   4.124   4.310   3.499
 1112W        W 1116   3.855   4.910   0.832
 1113W        W 1117   4.546   4.899   0.557
 1114W        W 1118   4.905   5.303   0.304
 1115W        W 1119   4.968   4.386   3.292
 1116W        W 1120   4.788   4.970   2.533
 1117W        W 1121   3.824   4.886   2.964
 1118W        W 1122   5.283   4.754   3.319
 1119W        W 1123   4.389   5.153   0.104
 1120W        W 1124   4.455   4.938   4.996
 1121W        W 1125   4.128   4.019   4.811
 1122W        W 1126   3.750   4.304   4.929
 1123W        W 1127   4.039   4.666   3.952
 1124W        W 1128   4.066   3.738   5.196
 1125W        W 1129   5.027   4.726   4.255
 1126W        W 1130   4.684   3.729   4.251
 1127W        W 1131   4.248   4.125   4.000
 1128W        W 1132   5.238   4.352   4.712
 1129W        W 1133   4.586   4.142   4.664
 1130W        W 1134   4.591   4.370   3.689
 1131W        W 1135   4.632   3.821   3.766
 1132W        W 1136   4.281   4.414   5.031
 1133W        W 1137   4.683   4.652   4.640
 1134W        W 1138   3.782   3.881   3.935
 1135W        W 1139   4.962   3.849   4.748
 1136W        W 1140   4.125   4.427   4.420
 1137W        W 1141   3.646   4.338   3.958
 1138W        W 1142   4.754   4.257   5.189
 1139W        W 1143   4.849   4.858   3.773
 1140W        W 1144   4.195   5.167   4.647
 1141W        W 1145   4.608   4.394   4.163
 1142W        W 1146   5.211   4.060   5.152
 1143W        W 1147   3.731   4.007   4.449
 1144W        W 1148   3.855   4.910   4.476
 1145W        W 1149   4.546   4.899   4.201
 1146W        W 1150   4.905   5.303   3.948
 1147W        W 1151   4.389   5.153   3.748
   5.00000   5.00000   5.00000
