[ moleculetype ]
; molname        nrexcl
FER              1


[ atoms ]
; id type resnr residue   atom  cgnr    charge     mass

1    SN1a     1     FER    PA1  1      0.00000     54.00
2     SN3     1     FER    PA2  2      0.00000     54.00
3     SC5     1     FER    PA3  3      0.00000     54.00
4     TC5     1     FER    PA4  4      0.00000     36.00
5     SP2     1     FER    PA5  5      0.00000     54.00


[ constraints ]
;   i     j   funct   length

; constraint type 1
    1     2       1    0.302      ; 1

; constraint type 2
    1     3       1    0.320      ; 2

; constraint type 3
    2     3       1    0.275      ; 3


[ bonds ]
;   i     j   funct   length   force.c.

; bond type 1
    3     4       1    0.246  9806.47           ; 1

; bond type 2
    4     5       1    0.245  7377.90           ; 2


[ angles ]
;   i     j     k   funct     angle   force.c.

; angle type 1
    1     3     4       2    122.67    214.50           ; 1

; angle type 2
    2     3     4       2    172.11     78.26           ; 2

  
[ dihedrals ]
;   i     j     k    l   funct     angle   force.c.

; dihedral group 1
    1     2     3    4     1       15         10      1     ; 
	
 
