[ moleculetype ]
; molname        nrexcl
CNL              1


[ atoms ]
; id type resnr residue   atom  cgnr    charge     mass

1     N3a     1     CNL    PA1  1      0.00000     72.00
2     SC3     1     CNL    PA2  2      0.00000     54.00
3     TC3     1     CNL    PA3  3      0.00000     36.00
4     TC3     1     CNL    PA4  4      0.00000     36.00


[ bonds ]
;   i     j   funct   length   force.c.

; bond type 1
    1     2       1    0.314  13498.85           ; 1

; bond type 2
    1     3       1    0.238  13285.68           ; 2

; bond type 3
    2     3       1    0.271  12065.73           ; 3

; bond type 4
    3     4       1    0.217  12394.68           ; 4

; bond type 5
    1     4       1    0.294  7475.80           ; 5

; bond type 6
    2     4       1    0.244  11537.15           ; 6


[ angles ]
;   i     j     k   funct     angle   force.c.

; angle type 1
    2     3     4       2    100.92    325.61           ; 1
; angle type 2
    2     1     3       2    100.92    325.61           ; 1

[ dihedrals ]
;   i     j     k     l   funct     dihedral   force.c.   mult.

; dihedral type 1
    4     2     3     1       1      -76.43 1492.99        1    ; 1



