[ moleculetype ]
; molname        nrexcl
CNL              1


[ atoms ]
; id type resnr residue   atom  cgnr    charge     mass

1     N3a     1     CNL    PA1  1      0.00000     72.00
2     SC3     1     CNL    PA2  2      0.00000     54.00
3     TC3     1     CNL    PA3  3      0.00000     36.00
4     TC3     1     CNL    PA4  4      0.00000     36.00


[ bonds ]
;   i     j   funct   length   force.c.

; bond type 1
    1     2       1    0.296  11073.08           ; 1

; bond type 2
    1     3       1    0.241  13262.05           ; 2

; bond type 3
    2     3       1    0.215  10466.49           ; 3

; bond type 4
    3     4       1    0.269  9870.13           ; 4

; bond type 5
    1     4       1    0.305  14090.49           ; 5

; bond type 6
    2     4       1    0.244  14186.71           ; 6


[ angles ]
;   i     j     k   funct     angle   force.c.

; angle type 1
    2     3     4       2     57.34    946.20           ; 1

; angle type 2
    2     1     3       2     48.20    448.15           ; 2


[ dihedrals ]
;   i     j     k     l   funct     dihedral   force.c.   mult.

; dihedral type 1
    4     2     3     1       1       -79.16   -0.75       1     ; 1


