CNL in water
  946
    1CNL    PA1    1   3.461   3.399   3.634
    1CNL    PA2    2   3.591   3.642   3.536
    1CNL    PA3    3   3.556   3.407   3.420
    1CNL    PA4    4   3.391   3.551   3.408
    2         W    5   1.432   4.585   0.892
    3         W    6   5.192   1.169   3.847
    4         W    7   4.737   1.367   0.421
    5         W    8   0.510   3.645   3.171
    6         W    9   4.355   2.174   3.869
    7         W   10   4.097   3.684   1.926
    8         W   11   3.037   4.313   4.636
    9         W   12   5.960   6.781   6.139
   10         W   13   5.136   3.248   1.677
   11         W   14   4.843   3.106   2.717
   12         W   15   2.746   4.671   1.845
   13         W   16   5.415   4.092   3.159
   14         W   17   6.463   1.041   2.493
   15         W   18   4.485   6.878   5.299
   16         W   19   2.585   6.070   4.906
   17         W   20   4.077   2.562   5.096
   18         W   21   6.116   1.982   3.851
   19         W   22   3.922   1.255   1.770
   20         W   23   3.111   6.486   6.715
   21         W   24   6.556   6.820   6.665
   22         W   25   4.811   5.062   6.612
   23         W   26   3.922   3.049   5.290
   24         W   27   4.667   5.393   5.856
   25         W   28   3.972   0.825   4.775
   26         W   29   0.492   6.412   1.349
   27         W   30   4.544   4.205   5.411
   28         W   31   0.706   4.957   1.728
   29         W   32   5.313   5.630   3.008
   30         W   33   5.701   4.996   5.494
   31         W   34   4.701   4.747   5.945
   32         W   35   1.581   0.517   0.950
   33         W   36   0.859   5.229   3.281
   34         W   37   2.726   4.566   1.374
   35         W   38   1.791   1.265   2.763
   36         W   39   4.733   2.668   3.087
   37         W   40   5.131   2.663   4.491
   38         W   41   3.499   4.015   1.289
   39         W   42   6.782   3.733   4.540
   40         W   43   6.408   2.532   6.022
   41         W   44   5.428   2.503   1.668
   42         W   45   6.870   6.451   6.583
   43         W   46   4.767   3.148   0.116
   44         W   47   5.690   3.649   6.272
   45         W   48   6.496   2.932   1.127
   46         W   49   4.303   6.597   4.847
   47         W   50   5.473   3.067   2.055
   48         W   51   4.855   4.645   4.270
   49         W   52   3.992   6.319   4.317
   50         W   53   5.677   1.049   3.156
   51         W   54   4.268   4.439   6.099
   52         W   55   2.039   0.957   1.026
   53         W   56   6.251   6.618   1.052
   54         W   57   6.212   2.640   2.015
   55         W   58   3.045   4.046   4.918
   56         W   59   6.205   4.684   1.386
   57         W   60   1.844   3.733   2.575
   58         W   61   5.938   0.484   5.840
   59         W   62   5.503   3.625   1.222
   60         W   63   4.868   2.845   5.542
   61         W   64   4.216   1.352   2.353
   62         W   65   1.578   1.159   6.908
   63         W   66   1.184   4.222   1.654
   64         W   67   5.627   3.297   3.089
   65         W   68   0.570   5.092   6.103
   66         W   69   5.155   2.038   0.733
   67         W   70   1.467   0.246   3.237
   68         W   71   0.370   4.774   1.764
   69         W   72   0.866   6.479   4.997
   70         W   73   6.323   5.408   5.960
   71         W   74   6.143   0.427   3.012
   72         W   75   5.701   0.305   6.262
   73         W   76   4.122   4.397   4.272
   74         W   77   3.298   1.173   6.621
   75         W   78   5.702   5.472   6.341
   76         W   79   1.924   5.741   3.377
   77         W   80   2.349   4.196   1.836
   78         W   81   3.439   0.148   6.249
   79         W   82   3.258   2.022   4.635
   80         W   83   3.691   2.186   5.425
   81         W   84   0.496   0.078   4.759
   82         W   85   3.065   4.158   6.714
   83         W   86   4.323   6.689   3.156
   84         W   87   3.203   1.085   2.672
   85         W   88   6.657   1.092   1.907
   86         W   89   4.207   1.437   6.369
   87         W   90   1.189   4.156   0.929
   88         W   91   6.705   5.503   1.658
   89         W   92   5.711   5.594   1.602
   90         W   93   0.890   4.251   4.317
   91         W   94   4.818   0.731   6.785
   92         W   95   5.448   0.056   0.040
   93         W   96   4.218   3.217   1.354
   94         W   97   1.623   6.804   4.326
   95         W   98   6.955   1.821   0.682
   96         W   99   0.812   5.607   4.101
   97         W  100   1.229   3.282   4.741
   98         W  101   5.376   2.976   2.439
   99         W  102   5.499   6.028   0.925
  100         W  103   5.531   6.067   6.761
  101         W  104   4.159   6.514   5.535
  102         W  105   3.023   0.806   0.527
  103         W  106   1.790   0.172   1.428
  104         W  107   3.321   1.902   6.910
  105         W  108   3.337   1.903   2.464
  106         W  109   3.296   6.828   1.037
  107         W  110   0.737   2.103   3.025
  108         W  111   0.062   6.181   5.647
  109         W  112   0.538   5.575   1.879
  110         W  113   2.635   5.794   5.007
  111         W  114   5.338   1.471   1.504
  112         W  115   5.078   2.173   5.732
  113         W  116   3.623   6.620   3.120
  114         W  117   0.624   4.433   2.062
  115         W  118   2.693   6.108   6.894
  116         W  119   5.874   4.354   1.249
  117         W  120   5.312   6.762   4.008
  118         W  121   1.388   4.269   0.336
  119         W  122   3.677   3.157   5.864
  120         W  123   2.236   2.185   1.385
  121         W  124   0.404   3.125   5.957
  122         W  125   2.808   4.195   4.235
  123         W  126   4.986   5.295   4.722
  124         W  127   3.205   1.522   2.920
  125         W  128   5.457   3.598   3.959
  126         W  129   6.941   1.108   2.905
  127         W  130   4.647   0.892   1.632
  128         W  131   4.525   5.190   0.720
  129         W  132   2.569   5.056   6.269
  130         W  133   3.031   0.232   5.969
  131         W  134   6.686   2.584   6.576
  132         W  135   4.894   1.792   4.621
  133         W  136   2.981   0.005   5.093
  134         W  137   5.179   3.704   1.463
  135         W  138   1.460   5.006   3.144
  136         W  139   1.200   4.982   2.506
  137         W  140   1.426   5.921   0.674
  138         W  141   5.424   5.516   3.200
  139         W  142   5.072   5.428   5.536
  140         W  143   3.835   1.820   5.335
  141         W  144   6.434   0.414   6.389
  142         W  145   3.051   3.873   1.940
  143         W  146   2.282   1.181   1.434
  144         W  147   2.304   2.691   3.278
  145         W  148   0.878   2.441   2.723
  146         W  149   2.140   2.932   6.617
  147         W  150   1.751   4.878   3.043
  148         W  151   2.153   2.029   0.593
  149         W  152   5.127   0.355   2.210
  150         W  153   5.906   3.994   2.728
  151         W  154   2.218   4.056   2.401
  152         W  155   5.242   1.758   4.019
  153         W  156   2.282   1.750   6.882
  154         W  157   6.984   0.077   6.011
  155         W  158   4.032   6.096   2.912
  156         W  159   1.383   2.135   2.988
  157         W  160   3.930   6.640   6.015
  158         W  161   3.639   2.391   2.552
  159         W  162   0.718   3.860   6.117
  160         W  163   1.528   1.266   2.078
  161         W  164   1.363   1.748   0.741
  162         W  165   0.638   1.566   4.902
  163         W  166   6.885   0.378   3.671
  164         W  167   1.395   1.040   2.318
  165         W  168   6.318   1.665   1.263
  166         W  169   2.229   3.790   2.208
  167         W  170   5.018   5.697   2.922
  168         W  171   4.515   4.536   6.827
  169         W  172   3.745   6.547   5.344
  170         W  173   4.669   5.713   1.632
  171         W  174   4.353   6.861   1.756
  172         W  175   5.187   6.913   2.714
  173         W  176   1.614   1.564   2.020
  174         W  177   2.710   4.197   5.182
  175         W  178   6.960   6.461   0.239
  176         W  179   2.962   5.408   0.320
  177         W  180   2.405   4.643   6.524
  178         W  181   6.272   5.557   0.202
  179         W  182   6.837   6.687   1.446
  180         W  183   0.156   0.783   5.428
  181         W  184   3.081   3.007   1.795
  182         W  185   1.174   3.715   3.197
  183         W  186   5.252   4.386   1.188
  184         W  187   6.090   2.045   4.458
  185         W  188   6.754   0.346   4.470
  186         W  189   3.213   1.050   5.955
  187         W  190   4.914   4.288   4.145
  188         W  191   2.200   3.623   6.309
  189         W  192   6.818   1.232   2.312
  190         W  193   3.106   5.591   6.594
  191         W  194   1.863   0.193   1.685
  192         W  195   3.112   2.178   6.063
  193         W  196   2.093   0.904   3.227
  194         W  197   6.000   3.809   5.950
  195         W  198   6.386   5.456   0.941
  196         W  199   3.571   0.372   0.122
  197         W  200   3.371   1.732   2.910
  198         W  201   3.054   3.289   3.965
  199         W  202   6.212   0.792   3.178
  200         W  203   6.750   5.701   1.533
  201         W  204   5.959   3.125   3.608
  202         W  205   0.277   5.773   5.018
  203         W  206   5.936   5.368   2.511
  204         W  207   5.093   2.158   2.783
  205         W  208   3.524   5.802   4.727
  206         W  209   1.610   2.180   6.641
  207         W  210   1.915   4.925   3.682
  208         W  211   2.973   3.503   0.926
  209         W  212   4.591   3.678   2.202
  210         W  213   5.195   2.274   3.580
  211         W  214   2.001   4.268   1.167
  212         W  215   2.544   1.204   4.747
  213         W  216   2.289   0.466   0.618
  214         W  217   3.401   2.172   5.266
  215         W  218   2.533   4.662   4.449
  216         W  219   5.834   5.300   6.047
  217         W  220   0.583   4.335   1.177
  218         W  221   5.457   2.951   0.540
  219         W  222   6.739   6.946   0.572
  220         W  223   5.319   5.976   6.484
  221         W  224   0.604   1.832   0.516
  222         W  225   5.952   4.833   6.063
  223         W  226   2.740   3.658   2.321
  224         W  227   0.460   6.947   5.167
  225         W  228   5.551   1.439   4.590
  226         W  229   0.936   4.067   4.191
  227         W  230   1.999   3.502   5.179
  228         W  231   3.579   4.333   1.521
  229         W  232   1.244   6.616   2.015
  230         W  233   1.531   2.227   0.761
  231         W  234   6.084   6.933   2.906
  232         W  235   5.447   2.763   5.489
  233         W  236   3.567   3.083   3.618
  234         W  237   5.908   6.239   1.525
  235         W  238   2.272   3.286   1.104
  236         W  239   3.174   3.460   2.342
  237         W  240   3.956   2.247   6.959
  238         W  241   0.630   2.490   1.230
  239         W  242   5.867   1.316   5.730
  240         W  243   5.100   3.026   0.820
  241         W  244   5.038   1.452   1.473
  242         W  245   3.395   3.546   2.309
  243         W  246   4.796   3.610   3.627
  244         W  247   6.976   3.064   4.832
  245         W  248   3.712   5.332   0.109
  246         W  249   6.155   6.416   5.165
  247         W  250   2.016   6.167   0.054
  248         W  251   5.789   0.022   5.112
  249         W  252   4.381   4.652   4.996
  250         W  253   2.219   5.686   3.136
  251         W  254   5.942   1.454   1.648
  252         W  255   3.353   5.342   0.066
  253         W  256   1.889   0.032   0.406
  254         W  257   4.454   4.438   0.164
  255         W  258   0.226   6.833   4.691
  256         W  259   2.882   6.293   4.818
  257         W  260   6.762   5.995   2.996
  258         W  261   0.633   4.092   3.842
  259         W  262   1.788   6.447   3.740
  260         W  263   0.953   3.082   0.633
  261         W  264   2.328   4.824   1.362
  262         W  265   2.262   2.699   1.792
  263         W  266   3.258   0.362   0.307
  264         W  267   2.863   4.873   6.849
  265         W  268   3.480   0.221   6.670
  266         W  269   1.505   2.075   4.779
  267         W  270   0.909   3.386   3.117
  268         W  271   3.467   4.179   3.200
  269         W  272   0.760   3.204   0.521
  270         W  273   6.251   2.832   0.238
  271         W  274   0.922   3.752   1.241
  272         W  275   4.412   3.247   0.650
  273         W  276   5.194   2.281   6.805
  274         W  277   6.579   2.081   4.179
  275         W  278   3.728   2.866   5.117
  276         W  279   4.234   6.121   5.087
  277         W  280   2.579   5.475   5.884
  278         W  281   6.806   2.181   4.597
  279         W  282   3.289   1.648   5.592
  280         W  283   6.436   4.937   4.490
  281         W  284   1.251   0.192   2.505
  282         W  285   5.970   6.886   1.823
  283         W  286   0.409   4.419   3.975
  284         W  287   5.317   2.615   4.845
  285         W  288   4.135   4.802   0.120
  286         W  289   1.609   5.188   5.588
  287         W  290   2.467   0.308   2.097
  288         W  291   2.733   4.920   5.078
  289         W  292   6.578   3.862   4.158
  290         W  293   6.410   6.481   3.096
  291         W  294   1.659   5.903   1.718
  292         W  295   3.138   2.086   3.531
  293         W  296   5.889   0.607   2.414
  294         W  297   1.141   3.876   5.086
  295         W  298   6.395   0.672   6.474
  296         W  299   5.764   1.340   5.503
  297         W  300   3.149   3.160   0.631
  298         W  301   6.049   4.572   0.295
  299         W  302   0.415   1.039   2.172
  300         W  303   6.246   0.656   1.831
  301         W  304   6.000   6.573   5.196
  302         W  305   2.265   3.225   6.043
  303         W  306   5.665   0.466   2.855
  304         W  307   3.420   2.334   5.521
  305         W  308   3.943   6.875   6.028
  306         W  309   2.309   3.284   1.451
  307         W  310   2.479   4.313   3.974
  308         W  311   3.627   2.521   1.371
  309         W  312   3.473   0.786   5.249
  310         W  313   1.261   4.752   5.352
  311         W  314   0.129   5.315   4.480
  312         W  315   4.490   5.067   6.462
  313         W  316   1.234   6.394   1.055
  314         W  317   3.044   1.393   3.786
  315         W  318   4.797   3.847   0.337
  316         W  319   1.763   6.371   1.063
  317         W  320   5.983   3.478   6.588
  318         W  321   4.112   2.812   5.070
  319         W  322   0.840   5.841   0.593
  320         W  323   2.460   2.674   6.333
  321         W  324   2.830   0.339   2.906
  322         W  325   6.421   1.248   5.023
  323         W  326   1.656   3.021   0.535
  324         W  327   0.576   5.290   5.975
  325         W  328   4.810   6.920   5.276
  326         W  329   3.698   5.907   6.324
  327         W  330   3.244   1.213   2.970
  328         W  331   0.193   4.653   4.457
  329         W  332   6.706   4.630   3.656
  330         W  333   2.269   2.869   4.018
  331         W  334   4.009   4.083   1.885
  332         W  335   1.989   3.044   2.916
  333         W  336   4.620   0.397   0.376
  334         W  337   3.969   0.379   3.918
  335         W  338   4.398   3.693   6.238
  336         W  339   5.409   6.792   5.375
  337         W  340   0.509   0.813   5.421
  338         W  341   1.699   1.054   5.071
  339         W  342   2.159   2.844   1.188
  340         W  343   1.796   1.655   4.034
  341         W  344   0.415   4.070   0.630
  342         W  345   4.840   1.364   4.731
  343         W  346   4.380   1.798   6.680
  344         W  347   6.822   4.002   1.130
  345         W  348   2.545   1.619   1.704
  346         W  349   1.719   6.503   6.800
  347         W  350   3.528   4.952   1.961
  348         W  351   1.115   5.435   2.580
  349         W  352   1.969   4.719   5.970
  350         W  353   3.546   3.685   1.342
  351         W  354   5.082   0.999   5.069
  352         W  355   6.787   5.926   1.940
  353         W  356   5.844   4.640   2.961
  354         W  357   5.698   6.190   5.560
  355         W  358   4.912   3.853   2.014
  356         W  359   6.337   6.492   0.145
  357         W  360   3.549   4.889   0.714
  358         W  361   3.242   1.018   0.112
  359         W  362   2.801   5.102   1.726
  360         W  363   5.472   2.376   3.003
  361         W  364   4.144   0.039   5.453
  362         W  365   0.244   3.729   5.643
  363         W  366   3.882   6.166   2.195
  364         W  367   6.363   1.992   5.821
  365         W  368   3.272   0.202   5.210
  366         W  369   5.553   2.403   6.866
  367         W  370   6.887   0.454   0.706
  368         W  371   2.061   0.308   2.670
  369         W  372   1.815   3.370   2.543
  370         W  373   2.074   4.615   1.484
  371         W  374   2.658   1.993   2.247
  372         W  375   2.278   4.353   2.154
  373         W  376   3.361   2.319   6.148
  374         W  377   2.154   2.458   1.772
  375         W  378   1.089   3.513   1.415
  376         W  379   2.101   1.674   4.022
  377         W  380   2.840   2.428   2.173
  378         W  381   1.352   3.503   6.524
  379         W  382   1.158   4.303   4.327
  380         W  383   1.865   3.773   3.332
  381         W  384   1.012   0.844   2.868
  382         W  385   1.876   6.492   4.444
  383         W  386   4.188   6.855   3.322
  384         W  387   1.631   6.909   0.050
  385         W  388   5.560   1.384   1.547
  386         W  389   5.938   0.508   6.676
  387         W  390   6.308   3.521   4.942
  388         W  391   1.949   1.548   5.423
  389         W  392   1.483   1.720   6.383
  390         W  393   4.951   6.053   6.457
  391         W  394   2.156   3.955   1.073
  392         W  395   3.242   1.283   2.031
  393         W  396   2.316   1.213   3.109
  394         W  397   5.826   6.275   5.219
  395         W  398   2.848   4.667   0.437
  396         W  399   4.831   6.867   0.478
  397         W  400   2.836   2.109   0.702
  398         W  401   4.848   0.982   6.641
  399         W  402   4.516   5.989   4.715
  400         W  403   0.197   5.891   4.141
  401         W  404   1.360   0.588   1.848
  402         W  405   0.832   5.207   5.088
  403         W  406   2.013   5.358   5.416
  404         W  407   4.670   3.086   6.879
  405         W  408   1.787   4.932   6.793
  406         W  409   5.525   4.545   2.829
  407         W  410   3.056   2.332   2.835
  408         W  411   2.340   1.405   1.317
  409         W  412   0.622   3.656   4.686
  410         W  413   2.738   2.570   3.193
  411         W  414   2.955   5.389   0.903
  412         W  415   2.201   0.252   5.531
  413         W  416   6.049   6.313   3.759
  414         W  417   3.663   5.636   6.232
  415         W  418   1.690   5.860   3.580
  416         W  419   5.157   0.719   1.762
  417         W  420   1.567   2.716   4.675
  418         W  421   2.051   4.276   2.606
  419         W  422   6.167   5.858   6.998
  420         W  423   6.644   0.345   2.616
  421         W  424   5.882   4.560   2.293
  422         W  425   0.561   5.600   5.763
  423         W  426   1.944   5.865   1.458
  424         W  427   4.520   2.469   3.828
  425         W  428   3.399   6.472   1.257
  426         W  429   4.859   0.287   5.216
  427         W  430   0.695   1.534   6.843
  428         W  431   1.057   4.261   6.692
  429         W  432   4.457   2.458   0.943
  430         W  433   4.626   0.968   0.044
  431         W  434   5.781   2.689   5.143
  432         W  435   3.088   5.626   1.027
  433         W  436   4.508   1.532   5.060
  434         W  437   1.448   2.252   6.949
  435         W  438   3.957   1.281   2.719
  436         W  439   0.726   0.623   6.638
  437         W  440   0.379   1.532   5.050
  438         W  441   2.816   4.875   0.117
  439         W  442   3.379   2.848   2.705
  440         W  443   5.133   6.195   5.357
  441         W  444   1.023   6.641   0.976
  442         W  445   5.345   5.494   4.065
  443         W  446   3.049   6.767   2.995
  444         W  447   2.875   0.885   4.747
  445         W  448   1.168   1.770   3.456
  446         W  449   2.502   2.545   1.426
  447         W  450   6.264   2.464   6.242
  448         W  451   1.983   0.496   5.859
  449         W  452   0.372   3.075   2.626
  450         W  453   2.469   0.343   2.538
  451         W  454   3.547   5.894   5.198
  452         W  455   5.217   4.587   1.275
  453         W  456   4.194   1.943   2.595
  454         W  457   4.557   1.373   3.306
  455         W  458   4.790   5.302   1.447
  456         W  459   0.158   3.910   4.663
  457         W  460   2.454   2.614   4.099
  458         W  461   1.696   1.604   5.285
  459         W  462   5.719   0.583   1.381
  460         W  463   3.009   5.828   3.156
  461         W  464   2.767   3.788   3.879
  462         W  465   0.656   6.391   2.396
  463         W  466   2.415   3.529   3.374
  464         W  467   0.432   0.253   0.394
  465         W  468   1.159   5.034   0.348
  466         W  469   3.176   6.794   3.790
  467         W  470   5.787   2.065   2.555
  468         W  471   2.092   1.862   6.641
  469         W  472   1.560   6.777   5.047
  470         W  473   4.230   0.304   0.899
  471         W  474   4.769   3.469   0.998
  472         W  475   4.437   6.376   6.552
  473         W  476   5.137   0.152   6.551
  474         W  477   2.940   3.100   6.486
  475         W  478   0.524   4.128   2.224
  476         W  479   2.780   4.367   1.984
  477         W  480   1.947   1.336   4.926
  478         W  481   5.043   1.029   1.212
  479         W  482   0.838   4.852   4.924
  480         W  483   6.024   5.634   6.711
  481         W  484   3.542   3.504   4.908
  482         W  485   5.950   1.378   2.418
  483         W  486   4.921   4.555   3.476
  484         W  487   0.949   3.554   1.578
  485         W  488   4.906   1.160   5.367
  486         W  489   2.876   0.789   0.073
  487         W  490   6.092   4.941   6.311
  488         W  491   1.377   0.207   1.437
  489         W  492   6.582   6.699   6.109
  490         W  493   6.802   2.243   6.824
  491         W  494   3.976   2.171   0.431
  492         W  495   4.648   5.469   6.587
  493         W  496   4.679   1.924   2.985
  494         W  497   5.413   0.071   4.444
  495         W  498   0.402   6.374   4.859
  496         W  499   2.413   1.407   5.293
  497         W  500   2.256   2.384   1.076
  498         W  501   0.702   0.226   3.261
  499         W  502   0.702   6.593   6.094
  500         W  503   2.813   5.884   4.633
  501         W  504   2.889   0.345   4.139
  502         W  505   4.276   6.435   1.876
  503         W  506   3.547   5.253   5.387
  504         W  507   1.235   1.875   1.618
  505         W  508   2.974   5.945   0.116
  506         W  509   4.693   3.063   3.532
  507         W  510   4.989   5.490   4.358
  508         W  511   0.016   1.517   3.157
  509         W  512   3.412   4.396   3.807
  510         W  513   2.433   3.255   6.351
  511         W  514   1.074   0.077   0.338
  512         W  515   6.157   3.865   5.459
  513         W  516   1.224   0.563   4.695
  514         W  517   1.491   3.035   1.162
  515         W  518   6.554   2.603   2.734
  516         W  519   5.376   4.676   4.101
  517         W  520   4.067   6.959   1.856
  518         W  521   5.534   3.562   4.610
  519         W  522   0.145   2.201   0.088
  520         W  523   4.554   4.805   4.500
  521         W  524   2.688   5.858   1.173
  522         W  525   6.266   3.020   5.747
  523         W  526   0.569   2.081   0.632
  524         W  527   3.172   5.084   6.966
  525         W  528   1.399   6.499   3.711
  526         W  529   5.083   5.044   4.626
  527         W  530   3.071   1.578   4.171
  528         W  531   6.530   0.470   6.078
  529         W  532   1.614   6.346   5.210
  530         W  533   0.480   2.383   1.412
  531         W  534   0.615   3.656   5.286
  532         W  535   2.632   0.316   5.062
  533         W  536   1.394   3.229   4.001
  534         W  537   4.540   5.174   0.983
  535         W  538   1.529   2.809   5.522
  536         W  539   3.594   3.211   4.868
  537         W  540   2.198   6.053   1.009
  538         W  541   5.450   4.280   1.777
  539         W  542   0.258   6.595   3.354
  540         W  543   2.484   5.502   2.047
  541         W  544   1.205   0.021   4.785
  542         W  545   5.881   1.258   0.913
  543         W  546   1.158   4.699   2.266
  544         W  547   5.745   2.209   2.704
  545         W  548   5.507   4.501   4.517
  546         W  549   1.321   6.372   6.570
  547         W  550   6.205   3.503   3.598
  548         W  551   3.393   1.396   3.879
  549         W  552   5.334   6.080   6.677
  550         W  553   6.298   2.741   6.714
  551         W  554   0.467   3.707   0.938
  552         W  555   4.484   3.377   5.532
  553         W  556   5.335   4.458   5.383
  554         W  557   2.083   4.223   0.621
  555         W  558   3.204   3.987   5.186
  556         W  559   6.101   5.167   5.913
  557         W  560   2.306   6.241   0.171
  558         W  561   4.860   6.518   3.632
  559         W  562   5.172   0.010   3.214
  560         W  563   3.923   5.335   5.015
  561         W  564   3.258   0.421   2.433
  562         W  565   3.515   3.982   4.082
  563         W  566   1.897   6.885   3.334
  564         W  567   3.780   5.399   4.867
  565         W  568   5.331   6.325   4.949
  566         W  569   2.259   1.660   5.311
  567         W  570   6.434   5.929   2.171
  568         W  571   1.702   2.642   2.613
  569         W  572   1.133   3.321   3.237
  570         W  573   1.966   1.644   4.746
  571         W  574   1.538   4.397   0.593
  572         W  575   5.938   2.395   0.077
  573         W  576   2.615   1.415   1.206
  574         W  577   0.945   0.999   6.972
  575         W  578   0.298   3.044   1.992
  576         W  579   4.743   5.934   5.041
  577         W  580   1.655   2.097   2.359
  578         W  581   0.819   2.005   6.546
  579         W  582   6.181   5.326   1.130
  580         W  583   4.999   2.944   2.042
  581         W  584   6.366   4.388   1.741
  582         W  585   5.371   1.168   1.754
  583         W  586   2.633   0.721   1.126
  584         W  587   6.343   6.461   4.583
  585         W  588   0.715   2.361   1.843
  586         W  589   4.423   4.644   1.775
  587         W  590   3.950   1.716   4.486
  588         W  591   0.297   0.525   1.577
  589         W  592   0.460   2.288   6.607
  590         W  593   1.104   1.873   0.171
  591         W  594   5.359   6.595   6.100
  592         W  595   5.652   0.839   0.788
  593         W  596   0.945   0.275   3.035
  594         W  597   2.642   6.948   3.381
  595         W  598   4.772   1.409   5.638
  596         W  599   6.249   6.586   6.504
  597         W  600   3.600   0.631   2.540
  598         W  601   1.388   6.064   6.324
  599         W  602   3.166   6.326   5.553
  600         W  603   1.274   2.789   5.662
  601         W  604   2.697   0.067   6.901
  602         W  605   5.722   0.575   1.699
  603         W  606   5.666   1.018   1.994
  604         W  607   1.580   5.330   4.550
  605         W  608   4.360   1.580   4.357
  606         W  609   2.031   4.058   0.135
  607         W  610   6.542   3.110   5.240
  608         W  611   4.506   5.565   2.823
  609         W  612   0.462   5.474   6.727
  610         W  613   5.344   6.624   2.251
  611         W  614   4.751   6.218   1.342
  612         W  615   1.886   2.517   0.333
  613         W  616   4.980   5.911   2.789
  614         W  617   2.838   1.567   6.138
  615         W  618   2.655   5.106   1.878
  616         W  619   5.243   3.807   0.315
  617         W  620   6.776   0.870   2.215
  618         W  621   6.869   6.346   2.276
  619         W  622   6.078   6.645   0.614
  620         W  623   4.188   1.705   0.340
  621         W  624   1.732   3.379   4.837
  622         W  625   3.400   3.711   2.474
  623         W  626   5.370   6.313   3.748
  624         W  627   5.820   3.950   1.918
  625         W  628   6.425   6.310   5.518
  626         W  629   6.204   0.239   4.276
  627         W  630   6.250   1.126   4.766
  628         W  631   0.718   0.919   6.197
  629         W  632   5.087   4.812   4.742
  630         W  633   5.816   0.661   5.727
  631         W  634   3.855   2.641   2.491
  632         W  635   2.605   2.321   1.005
  633         W  636   6.665   0.039   5.210
  634         W  637   1.040   1.071   6.632
  635         W  638   0.536   4.791   3.999
  636         W  639   2.803   0.536   6.068
  637         W  640   3.071   1.505   5.555
  638         W  641   0.505   0.666   6.410
  639         W  642   1.066   2.262   5.735
  640         W  643   1.244   3.922   4.622
  641         W  644   1.093   2.479   5.651
  642         W  645   1.531   5.949   2.712
  643         W  646   4.733   1.660   3.758
  644         W  647   1.442   2.686   4.504
  645         W  648   0.288   1.288   2.285
  646         W  649   0.017   6.942   1.941
  647         W  650   2.942   4.631   6.975
  648         W  651   0.198   3.689   3.991
  649         W  652   0.790   1.549   2.905
  650         W  653   5.359   1.265   0.782
  651         W  654   1.055   6.273   5.321
  652         W  655   4.030   5.172   5.488
  653         W  656   1.523   4.255   4.440
  654         W  657   5.831   0.367   0.744
  655         W  658   0.676   2.287   0.142
  656         W  659   2.842   3.105   1.585
  657         W  660   6.544   0.574   3.598
  658         W  661   2.980   6.466   6.198
  659         W  662   4.728   2.782   2.029
  660         W  663   1.437   1.082   6.668
  661         W  664   5.625   5.939   1.298
  662         W  665   6.155   6.607   5.688
  663         W  666   5.864   6.398   6.035
  664         W  667   0.845   1.466   0.436
  665         W  668   6.670   1.421   4.800
  666         W  669   6.754   1.339   6.706
  667         W  670   0.118   5.442   6.259
  668         W  671   2.582   1.658   2.973
  669         W  672   5.323   0.444   4.856
  670         W  673   1.656   0.501   3.893
  671         W  674   6.385   5.254   1.104
  672         W  675   6.724   5.540   2.557
  673         W  676   5.195   5.279   2.688
  674         W  677   3.167   4.331   4.902
  675         W  678   3.836   6.019   6.826
  676         W  679   4.469   5.887   1.157
  677         W  680   2.316   4.213   5.119
  678         W  681   3.874   5.584   1.801
  679         W  682   0.650   1.886   5.355
  680         W  683   0.627   2.231   3.352
  681         W  684   0.318   2.896   0.514
  682         W  685   1.080   4.980   6.828
  683         W  686   3.554   1.575   2.704
  684         W  687   2.212   2.179   5.852
  685         W  688   6.766   1.196   2.657
  686         W  689   6.992   6.124   6.366
  687         W  690   3.268   6.344   1.472
  688         W  691   6.753   0.623   2.440
  689         W  692   4.378   3.859   4.299
  690         W  693   0.663   0.769   0.253
  691         W  694   3.398   4.435   6.679
  692         W  695   0.549   5.016   4.236
  693         W  696   0.771   6.881   4.316
  694         W  697   2.116   1.034   2.095
  695         W  698   0.390   1.712   2.865
  696         W  699   6.534   6.529   0.550
  697         W  700   4.843   1.024   1.495
  698         W  701   5.283   4.991   6.738
  699         W  702   5.004   0.367   6.772
  700         W  703   2.769   6.616   2.184
  701         W  704   2.673   2.991   3.391
  702         W  705   1.652   1.990   4.383
  703         W  706   1.819   2.789   5.409
  704         W  707   3.501   1.687   4.950
  705         W  708   0.947   6.916   6.874
  706         W  709   3.333   6.146   1.855
  707         W  710   6.015   0.864   6.719
  708         W  711   0.168   5.238   4.067
  709         W  712   5.122   2.035   3.541
  710         W  713   3.779   0.882   2.168
  711         W  714   0.863   2.391   3.109
  712         W  715   0.896   4.043   3.011
  713         W  716   0.264   1.539   4.205
  714         W  717   0.865   5.730   3.401
  715         W  718   0.144   3.855   5.081
  716         W  719   0.175   0.325   6.934
  717         W  720   5.323   2.419   4.101
  718         W  721   4.915   0.592   5.046
  719         W  722   2.007   3.441   3.294
  720         W  723   1.328   6.564   1.648
  721         W  724   6.054   5.176   6.727
  722         W  725   1.216   6.543   6.203
  723         W  726   4.251   0.711   0.132
  724         W  727   3.031   3.517   4.417
  725         W  728   6.358   6.557   6.296
  726         W  729   5.479   5.138   5.263
  727         W  730   5.680   2.825   0.425
  728         W  731   1.986   4.790   0.004
  729         W  732   4.717   3.098   3.282
  730         W  733   1.824   0.416   1.138
  731         W  734   4.751   5.348   3.090
  732         W  735   5.325   2.028   1.882
  733         W  736   1.762   6.747   6.333
  734         W  737   0.883   1.772   0.285
  735         W  738   3.491   6.780   4.423
  736         W  739   5.492   1.935   6.002
  737         W  740   4.080   3.265   0.433
  738         W  741   3.990   5.442   3.059
  739         W  742   4.976   1.740   5.330
  740         W  743   5.739   3.588   3.492
  741         W  744   5.023   3.281   6.950
  742         W  745   0.711   1.218   2.507
  743         W  746   3.952   2.564   5.691
  744         W  747   1.292   1.355   4.082
  745         W  748   6.150   3.790   6.148
  746         W  749   6.267   0.116   2.670
  747         W  750   1.179   6.030   2.101
  748         W  751   4.584   4.698   3.913
  749         W  752   5.142   4.199   6.178
  750         W  753   5.223   1.002   0.252
  751         W  754   6.726   2.545   1.978
  752         W  755   3.125   2.133   2.770
  753         W  756   3.185   1.017   1.578
  754         W  757   2.931   1.411   1.119
  755         W  758   6.347   3.556   4.619
  756         W  759   6.118   0.147   0.501
  757         W  760   4.360   6.910   0.015
  758         W  761   5.438   0.320   4.711
  759         W  762   5.401   2.688   1.332
  760         W  763   3.861   5.663   5.158
  761         W  764   2.458   6.978   4.430
  762         W  765   5.520   6.404   0.167
  763         W  766   5.146   0.809   3.261
  764         W  767   6.249   3.512   0.117
  765         W  768   4.833   0.618   6.201
  766         W  769   6.919   5.070   4.017
  767         W  770   0.376   5.622   1.095
  768         W  771   5.781   1.890   4.156
  769         W  772   2.053   5.709   4.354
  770         W  773   1.821   6.809   0.798
  771         W  774   1.831   2.478   5.340
  772         W  775   5.945   5.323   5.438
  773         W  776   0.815   2.404   6.184
  774         W  777   1.676   2.379   6.983
  775         W  778   4.126   5.547   4.863
  776         W  779   1.659   3.417   2.158
  777         W  780   4.786   2.007   2.619
  778         W  781   0.032   1.930   5.346
  779         W  782   0.241   5.096   2.308
  780         W  783   5.430   3.751   6.851
  781         W  784   3.673   6.078   2.021
  782         W  785   6.715   3.400   3.596
  783         W  786   0.547   0.703   4.582
  784         W  787   5.036   4.631   3.683
  785         W  788   6.982   0.013   1.398
  786         W  789   0.240   0.300   3.182
  787         W  790   1.717   5.831   2.243
  788         W  791   3.013   4.950   2.925
  789         W  792   1.399   4.172   0.522
  790         W  793   0.608   5.677   6.786
  791         W  794   6.311   0.085   0.874
  792         W  795   4.026   5.583   2.170
  793         W  796   4.088   3.802   5.377
  794         W  797   6.033   3.503   3.939
  795         W  798   3.637   1.035   2.726
  796         W  799   6.781   1.437   1.032
  797         W  800   5.907   1.340   3.308
  798         W  801   6.983   3.109   0.164
  799         W  802   5.868   2.096   5.806
  800         W  803   6.007   5.446   6.526
  801         W  804   2.202   5.713   6.220
  802         W  805   6.068   0.236   6.242
  803         W  806   6.367   5.071   3.815
  804         W  807   0.015   2.689   0.177
  805         W  808   4.026   2.862   1.817
  806         W  809   1.965   0.133   6.484
  807         W  810   6.747   6.015   1.173
  808         W  811   3.227   5.469   4.728
  809         W  812   4.277   0.508   6.887
  810         W  813   1.244   3.692   5.216
  811         W  814   0.983   4.779   1.877
  812         W  815   2.600   0.058   5.702
  813         W  816   2.995   4.909   4.549
  814         W  817   5.337   6.946   1.119
  815         W  818   4.820   0.050   6.829
  816         W  819   2.386   0.436   6.368
  817         W  820   6.026   2.106   2.634
  818         W  821   0.449   3.663   2.510
  819         W  822   6.851   5.198   1.925
  820         W  823   4.965   3.143   1.078
  821         W  824   2.074   1.646   3.321
  822         W  825   0.916   2.666   6.098
  823         W  826   1.644   2.459   4.309
  824         W  827   6.165   3.974   4.967
  825         W  828   5.752   4.892   3.436
  826         W  829   6.670   5.930   0.426
  827         W  830   1.676   5.405   1.975
  828         W  831   4.530   6.203   4.569
  829         W  832   1.112   5.000   3.321
  830         W  833   5.568   1.195   4.823
  831         W  834   5.364   3.218   5.540
  832         W  835   1.184   2.563   2.286
  833         W  836   3.123   0.777   5.116
  834         W  837   0.138   3.692   0.276
  835         W  838   3.154   0.357   5.569
  836         W  839   0.092   3.507   6.130
  837         W  840   5.559   4.497   6.569
  838         W  841   0.132   3.926   0.081
  839         W  842   2.609   0.651   6.201
  840         W  843   5.626   3.060   2.397
  841         W  844   0.408   1.522   4.686
  842         W  845   5.781   1.370   3.772
  843         W  846   3.053   4.270   6.998
  844         W  847   5.909   6.934   0.641
  845         W  848   5.550   4.749   0.849
  846         W  849   5.357   0.131   1.504
  847         W  850   1.059   1.603   5.161
  848         W  851   0.535   2.081   3.814
  849         W  852   4.443   0.332   3.761
  850         W  853   1.754   2.762   0.568
  851         W  854   6.478   2.779   4.557
  852         W  855   6.794   0.542   0.142
  853         W  856   1.630   4.094   2.477
  854         W  857   2.003   3.099   5.364
  855         W  858   3.271   2.809   2.353
  856         W  859   0.208   4.570   6.895
  857         W  860   2.569   4.878   0.020
  858         W  861   4.971   6.532   1.698
  859         W  862   0.702   6.750   1.987
  860         W  863   3.021   1.635   4.867
  861         W  864   0.670   1.104   3.953
  862         W  865   1.280   6.237   0.311
  863         W  866   1.599   6.243   6.699
  864         W  867   1.201   3.605   4.263
  865         W  868   1.251   4.668   4.286
  866         W  869   3.813   0.480   4.765
  867         W  870   5.930   0.940   1.620
  868         W  871   3.264   4.540   5.821
  869         W  872   5.843   5.512   0.264
  870         W  873   0.915   1.008   4.491
  871         W  874   0.216   3.511   4.974
  872         W  875   2.943   5.876   6.847
  873         W  876   1.717   0.511   1.565
  874         W  877   5.837   4.671   6.272
  875         W  878   2.197   4.854   2.801
  876         W  879   1.311   5.744   2.815
  877         W  880   4.036   5.151   4.764
  878         W  881   5.710   1.891   0.947
  879         W  882   2.135   5.144   3.390
  880         W  883   4.911   1.235   5.726
  881         W  884   1.015   6.687   2.502
  882         W  885   0.611   3.871   5.453
  883         W  886   1.958   1.403   3.152
  884         W  887   0.532   0.824   2.335
  885         W  888   3.138   4.246   3.646
  886         W  889   4.541   0.450   0.897
  887         W  890   2.117   6.369   2.253
  888         W  891   6.183   1.399   0.003
  889         W  892   4.558   6.717   4.895
  890         W  893   5.910   2.829   0.946
  891         W  894   2.699   0.902   5.324
  892         W  895   4.916   5.473   3.472
  893         W  896   0.021   6.559   0.835
  894         W  897   6.531   3.117   5.544
  895         W  898   3.539   0.993   2.258
  896         W  899   5.108   5.838   1.643
  897         W  900   4.410   1.971   6.524
  898         W  901   1.949   0.214   4.514
  899         W  902   1.434   1.494   1.855
  900         W  903   6.242   4.467   2.187
  901         W  904   1.612   4.864   4.185
  902         W  905   1.340   1.149   3.843
  903         W  906   4.548   6.740   2.119
  904         W  907   0.227   6.701   5.576
  905         W  908   0.609   0.509   0.418
  906         W  909   4.366   2.315   2.701
  907         W  910   1.575   6.783   4.590
  908         W  911   3.541   0.188   4.311
  909         W  912   6.283   3.237   6.946
  910         W  913   2.552   4.610   3.527
  911         W  914   1.430   3.294   5.147
  912         W  915   5.023   2.410   6.787
  913         W  916   5.132   4.534   4.408
  914         W  917   0.129   5.383   6.518
  915         W  918   2.442   5.975   3.522
  916         W  919   4.786   2.139   1.910
  917         W  920   0.662   4.272   3.350
  918         W  921   0.370   4.178   1.843
  919         W  922   4.469   0.717   0.682
  920         W  923   4.224   4.626   4.562
  921         W  924   4.820   5.047   0.307
  922         W  925   3.392   2.961   5.396
  923         W  926   0.442   6.460   2.283
  924         W  927   3.301   4.790   5.092
  925         W  928   5.021   3.982   3.807
  926         W  929   4.607   0.778   5.280
  927         W  930   3.408   6.709   5.771
  928         W  931   4.032   5.178   1.573
  929         W  932   4.847   3.954   5.265
  930         W  933   3.288   3.102   0.379
  931         W  934   1.192   2.308   2.061
  932         W  935   0.485   1.627   3.358
  933         W  936   1.673   6.821   0.962
  934         W  937   2.584   5.311   2.428
  935         W  938   0.876   5.604   6.279
  936         W  939   6.174   1.833   0.003
  937         W  940   2.267   4.640   3.657
  938         W  941   5.409   4.325   5.193
  939         W  942   6.622   3.290   1.557
  940         W  943   6.008   4.327   2.958
  941         W  944   0.369   5.231   5.955
  942         W  945   6.353   4.651   5.490
  943         W  946   1.922   6.042   3.529
   7.00000   7.00000   7.00000
