Martini system
31159
    1CHOL   ROH    1  15.360   6.206   7.268  0.1446 -0.0486  0.0272
    1CHOL    R1    2  15.395   6.223   6.987  0.0854 -0.0160  0.0221
    1CHOL    R2    3  15.638   6.287   6.872  0.0508  0.0292 -0.0196
    1CHOL    R3    4  15.597   6.055   6.735  0.0576  0.0379 -0.0376
    1CHOL    R4    5  15.812   6.190   6.589  0.3375 -0.1239  0.2038
    1CHOL    R5    6  15.626   6.116   6.505  0.3825 -0.0073 -0.0164
    1CHOL    C1    7  15.876   5.917   6.297  0.5107 -0.2048  0.3171
    1CHOL    C2    8  16.071   6.040   5.862  0.0739 -0.2750 -0.3088
    2XCA    COO    9   2.052   4.597   8.406  0.0591  0.3853 -0.0673
    2XCA     C1   10   1.896   4.333   8.029  0.6350 -0.0352  0.1054
    2XCA     C2   11   1.876   4.184   7.648  0.0966 -0.1960  0.1619
    2XCA     C3   12   1.961   4.160   7.160 -0.2358 -0.0163 -0.0815
    2XCA     C4   13   1.986   3.906   6.770 -0.2576 -0.2475 -0.0835
    2XCA     C5   14   2.175   3.686   6.387 -0.0829  0.1263 -0.1300
    2XCA     C6   15   2.211   3.352   6.246 -0.2289  0.1737  0.0568
    3XCA    COO   16   5.338   8.726   4.647  0.2188  0.1023 -0.1926
    3XCA     C1   17   5.552   8.792   5.044  0.1293  0.0329  0.2143
    3XCA     C2   18   5.363   8.732   5.417 -0.1048  0.1207  0.0259
    3XCA     C3   19   5.129   8.565   5.758 -0.0546  0.1089 -0.3859
    3XCA     C4   20   4.852   8.283   5.908  0.0508  0.3919  0.1265
    3XCA     C5   21   4.488   8.148   6.258 -0.1043 -0.0392  0.2186
    3XCA     C6   22   4.386   7.784   6.441 -0.1273 -0.1255  0.0023
    4XCA    COO   23   9.108   1.420   5.490  0.0560 -0.3869 -0.2429
    4XCA     C1   24   8.729   1.256   5.765  0.0268 -0.0102  0.2533
    4XCA     C2   25   8.736   1.137   6.204  0.2597  0.1440 -0.3403
    4XCA     C3   26   8.693   0.925   6.657  0.1734  0.1521 -0.1237
    4XCA     C4   27   8.550   0.626   6.818 -0.1804 -0.0958  0.1177
    4XCA     C5   28   8.742   0.415   7.248 -0.2778  0.0308  0.0684
    4XCA     C6   29   8.935   0.225   7.397 -0.2437  0.1738  0.2010
    5CHOL   ROH   30   7.295  15.825   5.613  0.0403 -0.0094 -0.0892
    5CHOL    R1   31   7.274  15.626   5.813  0.1008  0.1015  0.0293
    5CHOL    R2   32   7.287  15.685   6.083 -0.1751  0.3019  0.0054
    5CHOL    R3   33   7.049  15.553   6.090 -0.0403  0.0476 -0.0987
    5CHOL    R4   34   7.095  15.637   6.366 -0.3403  0.2586 -0.1126
    5CHOL    R5   35   7.053  15.435   6.298 -0.0695  0.1717 -0.0290
    5CHOL    C1   36   6.760  15.486   6.538 -0.3099 -0.0052 -0.2790
    5CHOL    C2   37   6.838  15.179   6.762  0.1785  0.0609 -0.1750
    6CHOL   ROH   38   3.163   0.680   8.928  0.0319  0.1286 -0.3671
    6CHOL    R1   39   3.045   0.815   8.709 -0.0634  0.2454 -0.2439
    6CHOL    R2   40   2.859   0.695   8.543 -0.0560  0.3016 -0.2844
    6CHOL    R3   41   2.709   0.912   8.609 -0.1197  0.2056 -0.1011
    6CHOL    R4   42   2.586   0.808   8.365 -0.0688  0.3863 -0.2139
    6CHOL    R5   43   2.653   1.012   8.399 -0.1237  0.3796 -0.0228
    6CHOL    C1   44   2.285   1.077   8.323 -0.1360  0.3456 -0.0008
    6CHOL    C2   45   2.200   1.417   8.246 -0.3075 -0.0852 -0.0920
    7XCA    COO   46  15.245   6.410   4.325  0.0930  0.2042 -0.1293
    7XCA     C1   47  14.981   6.546   4.684  0.1671  0.2730  0.3573
    7XCA     C2   48  14.495   6.540   4.839 -0.1346  0.2474 -0.0527
    7XCA     C3   49  14.218   6.650   5.052  0.0344  0.3822  0.3022
    7XCA     C4   50  13.905   6.527   5.345 -0.1502  0.1754 -0.2726
    7XCA     C5   51  13.875   6.252   5.722  0.1260  0.0924 -0.2424
    7XCA     C6   52  14.270   5.995   5.794  0.0404  0.2600 -0.1180
    8CHOL   ROH   53   5.876   3.636   8.068  0.1242 -0.0871  0.0752
    8CHOL    R1   54   5.925   3.561   7.800  0.0706 -0.0564  0.0575
    8CHOL    R2   55   6.168   3.601   7.676 -0.0125  0.1321 -0.0449
    8CHOL    R3   56   6.149   3.334   7.625  0.1765  0.1142 -0.0309
    8CHOL    R4   57   6.335   3.437   7.422 -0.1318  0.2921 -0.2306
    8CHOL    R5   58   6.155   3.319   7.386 -0.0668  0.1270 -0.0399
    8CHOL    C1   59   6.416   3.091   7.226 -0.0238  0.3684 -0.3256
    8CHOL    C2   60   6.611   2.906   6.839 -0.1696  0.0931 -0.1935
    9PNCE   AM1   61   1.903   5.898   8.597  0.0188  0.0515  0.0512
    9PNCE   AM2   62   1.888   5.775   8.303 -0.2235  0.3582 -0.0023
    9PNCE   T1A   63   1.479   6.009   8.260 -0.1638  0.2436  0.0102
    9PNCE   C2A   64   1.353   6.376   7.980  0.3771 -0.0889 -0.2896
    9PNCE   C3A   65   1.001   6.323   7.691  0.0600 -0.0227 -0.0823
    9PNCE   C1B   66   1.753   5.854   7.838  0.1774 -0.1897 -0.0615
    9PNCE   C2B   67   1.759   5.867   7.342  0.0441  0.0592 -0.4587
    9PNCE   C3B   68   1.388   5.930   6.985  0.0563  0.1210 -0.2390
    9PNCE   D4B   69   0.995   6.336   7.082 -0.1800  0.1738 -0.3025
    9PNCE   C5B   70   0.795   6.532   6.694  0.2023  0.0442  0.2365
    9PNCE   C6B   71   0.737   6.592   6.189 -0.0320 -0.0030  0.1461
   10PNCE   AM1   72  13.364   0.290   8.564 -0.2464  0.1376  0.3094
   10PNCE   AM2   73  13.271   0.507   8.735 -0.0314  0.1785  0.1491
   10PNCE   T1A   74  13.366   0.314   8.143 -0.2257 -0.0388  0.0006
   10PNCE   C2A   75  13.575   0.333   7.744  0.1102  0.2660  0.1248
   10PNCE   C3A   76  13.800   0.437   7.337  0.1411 -0.1135  0.0451
   10PNCE   C1B   77  13.216   0.811   8.385 -0.0807  0.1499  0.1326
   10PNCE   C2B   78  13.347   0.792   7.942  0.1222 -0.2363  0.2287
   10PNCE   C3B   79  13.337   0.704   7.532  0.1988 -0.1734 -0.0547
   10PNCE   D4B   80  13.138   0.953   7.301  0.0557 -0.1431 -0.1755
   10PNCE   C5B   81  12.751   1.138   7.275  0.2394 -0.0361  0.2317
   10PNCE   C6B   82  12.338   1.081   7.131 -0.0406 -0.0734 -0.0667
   11XCA    COO   83   5.408   0.550   8.588 -0.0421 -0.3296 -0.2845
   11XCA     C1   84   5.011   0.574   8.401  0.4328  0.2451 -0.0681
   11XCA     C2   85   4.701   0.640   8.087 -0.3375 -0.1907 -0.0817
   11XCA     C3   86   4.552   0.555   7.643  0.1210 -0.1142  0.2336
   11XCA     C4   87   4.654   0.637   7.161  0.0683 -0.0931 -0.1963
   11XCA     C5   88   4.814   0.956   7.059 -0.0911 -0.0539 -0.0134
   11XCA     C6   89   4.752   1.289   7.331 -0.0330  0.0436  0.3592
   12CHOL   ROH   90   0.545  13.440   8.246  0.2296  0.1790  0.0461
   12CHOL    R1   91   0.520  13.572   7.997  0.0308  0.0110 -0.0253
   12CHOL    R2   92   0.731  13.699   7.874 -0.1294  0.1599 -0.1502
   12CHOL    R3   93   0.664  13.539   7.664 -0.0182 -0.0316 -0.0429
   12CHOL    R4   94   0.863  13.726   7.555 -0.3567  0.2292 -0.2403
   12CHOL    R5   95   0.664  13.687   7.475 -0.3528 -0.1047 -0.1067
   12CHOL    C1   96   0.876  13.591   7.173 -0.3847  0.0897 -0.1921
   12CHOL    C2   97   1.068  13.895   6.797  0.2746 -0.0491 -0.3652
   13PNCE   AM1   98   5.974   8.762   8.430 -0.1279  0.0728 -0.2209
   13PNCE   AM2   99   5.892   8.540   8.615  0.1577  0.2221  0.2459
   13PNCE   T1A  100   5.905   8.803   7.969  0.1281  0.3231  0.2537
   13PNCE   C2A  101   5.973   8.753   7.490 -0.1018 -0.0116 -0.1964
   13PNCE   C3A  102   5.926   8.824   7.034 -0.1630  0.2595 -0.2428
   13PNCE   C1B  103   5.876   8.355   8.157  0.0839 -0.1563  0.2139
   13PNCE   C2B  104   5.837   8.005   7.888  0.1173 -0.0936  0.1133
   13PNCE   C3B  105   5.576   7.952   7.582  0.2053  0.2278 -0.0111
   13PNCE   D4B  106   5.364   7.658   7.241  0.3513 -0.0723  0.0851
   13PNCE   C5B  107   5.491   7.197   7.135 -0.0862 -0.0280 -0.3041
   13PNCE   C6B  108   5.399   6.741   6.951 -0.1150 -0.1251 -0.1246
   14XCA    COO  109   2.841   5.026   4.199 -0.0064 -0.1863 -0.3944
   14XCA     C1  110   2.765   5.036   4.525 -0.2323 -0.3052  0.4093
   14XCA     C2  111   2.946   4.921   4.996  0.2050 -0.0389  0.0749
   14XCA     C3  112   3.296   4.709   5.344 -0.3161 -0.3615  0.3164
   14XCA     C4  113   3.171   4.525   5.710  0.2719  0.3164  0.1888
   14XCA     C5  114   3.355   4.647   6.085 -0.3407  0.1290 -0.0056
   14XCA     C6  115   3.541   4.850   6.313 -0.1712 -0.1759 -0.1155
   15CHOL   ROH  116   3.702  14.146   8.197  0.1776  0.1275  0.0420
   15CHOL    R1  117   3.653  14.096   7.923  0.2085  0.0080  0.0581
   15CHOL    R2  118   3.437  14.204   7.788  0.1770 -0.1203  0.0081
   15CHOL    R3  119   3.629  14.293   7.618  0.1511 -0.1138 -0.0181
   15CHOL    R4  120   3.377  14.361   7.486  0.1251 -0.1921 -0.0195
   15CHOL    R5  121   3.542  14.248   7.400  0.1467 -0.1765 -0.0058
   15CHOL    C1  122   3.524  14.536   7.151  0.0706 -0.2278 -0.0601
   15CHOL    C2  123   3.588  14.506   6.670 -0.3087 -0.1398  0.1537
   16PNCE   AM1  124   4.989   9.264   8.794  0.1179 -0.1044  0.3139
   16PNCE   AM2  125   5.125   9.026   8.622  0.1060 -0.2376  0.0926
   16PNCE   T1A  126   4.722   9.269   8.482  0.0010 -0.1912  0.1330
   16PNCE   C2A  127   4.517   9.131   8.213 -0.3373  0.2013  0.0158
   16PNCE   C3A  128   4.479   8.802   7.973  0.0969  0.1339  0.1091
   16PNCE   C1B  129   5.059   9.068   8.190 -0.1108  0.0977  0.0923
   16PNCE   C2B  130   4.887   9.191   7.833  0.0443  0.0132  0.0593
   16PNCE   C3B  131   4.622   9.060   7.545  0.2068  0.1310  0.0393
   16PNCE   D4B  132   4.635   9.384   7.260  0.0046 -0.1067  0.0246
   16PNCE   C5B  133   4.602   9.696   6.979  0.0221 -0.0828 -0.2161
   16PNCE   C6B  134   4.776  10.103   6.808 -0.2739  0.0979 -0.1740
   17XCA    COO  135   7.409   8.381   7.936  0.2449  0.2688 -0.0464
   17XCA     C1  136   7.272   8.093   7.683  0.1950  0.0411  0.0555
   17XCA     C2  137   7.067   7.804   7.390  0.2717 -0.0251 -0.0810
   17XCA     C3  138   7.042   7.626   6.979 -0.3899 -0.1512 -0.2505
   17XCA     C4  139   7.145   7.485   6.563 -0.1448 -0.2268 -0.0282
   17XCA     C5  140   7.101   7.579   6.126 -0.0991 -0.1275  0.0748
   17XCA     C6  141   7.300   7.490   5.720  0.1828  0.1682  0.2227
   18PNCE   AM1  142  15.819  13.460   8.456 -0.2228 -0.3698 -0.0662
   18PNCE   AM2  143  16.002  13.745   8.512 -0.1467 -0.2711 -0.2183
   18PNCE   T1A  144  15.874  13.300   8.037 -0.2161  0.1439 -0.1108
   18PNCE   C2A  145  15.774  13.368   7.562 -0.2188 -0.2536 -0.0282
   18PNCE   C3A  146  15.899  13.336   7.088 -0.0197  0.0185  0.4053
   18PNCE   C1B  147  15.946  13.776   8.085 -0.1937 -0.0707 -0.1354
   18PNCE   C2B  148  16.142  13.938   7.674 -0.0677  0.2253  0.0276
   18PNCE   C3B  149  16.283  14.282   7.442  0.0981 -0.0198 -0.2105
   18PNCE   D4B  150  15.962  14.526   7.280 -0.0625  0.1841 -0.0705
   18PNCE   C5B  151  15.866  15.007   7.148 -0.0392  0.1849 -0.2371
   18PNCE   C6B  152  15.995  15.292   6.792 -0.0967 -0.1697 -0.1052
   19PNCE   AM1  153   1.608   7.228   8.551  0.2784 -0.2975  0.0284
   19PNCE   AM2  154   1.954   7.418   8.456 -0.0943  0.1092 -0.0819
   19PNCE   T1A  155   1.590   6.993   8.127  0.0978 -0.1222  0.4172
   19PNCE   C2A  156   1.729   6.689   7.777 -0.1487 -0.3121  0.0536
   19PNCE   C3A  157   1.888   6.374   7.655  0.1065  0.0866  0.0433
   19PNCE   C1B  158   1.890   7.410   8.076 -0.0018  0.0796 -0.3737
   19PNCE   C2B  159   2.127   7.557   7.819 -0.5956 -0.0417 -0.1320
   19PNCE   C3B  160   2.382   7.841   7.469 -0.2941  0.0058 -0.2824
   19PNCE   D4B  161   2.460   7.873   7.045 -0.4140 -0.2367 -0.1774
   19PNCE   C5B  162   2.648   8.022   6.611 -0.1041 -0.0848 -0.2330
   19PNCE   C6B  163   2.632   8.127   6.280  0.1400  0.0847 -0.1575
   20PNCE   AM1  164  12.730   1.127   9.029  0.1701  0.1588 -0.0187
   20PNCE   AM2  165  12.333   1.239   9.117 -0.2174  0.1699  0.2466
   20PNCE   T1A  166  12.662   0.917   8.553  0.2161  0.3297  0.1639
   20PNCE   C2A  167  12.564   0.906   8.099  0.3775  0.0237  0.0850
   20PNCE   C3A  168  12.491   0.510   7.889  0.0704  0.0983 -0.2972
   20PNCE   C1B  169  12.089   1.250   8.772  0.1485  0.0011 -0.1974
   20PNCE   C2B  170  11.992   1.501   8.487 -0.0449  0.0560 -0.0263
   20PNCE   C3B  171  12.049   1.844   8.227  0.1007  0.3477  0.2451
   20PNCE   D4B  172  11.980   2.315   8.269 -0.0568 -0.3102  0.0903
   20PNCE   C5B  173  11.797   2.531   7.970 -0.2887 -0.1488  0.0833
   20PNCE   C6B  174  11.830   2.802   7.576  0.0625  0.1891 -0.1559
   21XCA    COO  175  14.980  14.783   5.182  0.1224 -0.0799  0.1897
   21XCA     C1  176  15.340  14.503   5.402  0.2742  0.0900 -0.1175
   21XCA     C2  177  15.417  14.533   5.778  0.0914 -0.0057  0.1295
   21XCA     C3  178  15.452  14.674   6.168 -0.1783  0.3182  0.1918
   21XCA     C4  179  15.750  14.908   6.405  0.0563  0.0901 -0.2664
   21XCA     C5  180  16.187  14.802   6.513  0.0662  0.1174 -0.2164
   21XCA     C6  181  16.497  14.454   6.550  0.3382  0.1095 -0.0885
   22PNCE   AM1  182   2.584   1.572   9.006  0.1183 -0.1519 -0.3138
   22PNCE   AM2  183   2.831   1.698   9.009  0.0247 -0.0350  0.0233
   22PNCE   T1A  184   2.530   1.432   8.613 -0.1713 -0.0217 -0.5345
   22PNCE   C2A  185   2.672   1.394   8.183  0.0681 -0.0604 -0.1962
   22PNCE   C3A  186   2.852   1.389   7.840 -0.1219  0.2137  0.4628
   22PNCE   C1B  187   3.092   1.394   8.886 -0.0779 -0.1079 -0.2675
   22PNCE   C2B  188   3.029   1.248   8.480  0.2244  0.1419  0.0631
   22PNCE   C3B  189   3.021   0.923   8.184  0.5448  0.1527 -0.0168
   22PNCE   D4B  190   3.135   0.819   7.815  0.1797  0.2244  0.1369
   22PNCE   C5B  191   2.774   0.751   7.513 -0.0510 -0.0417 -0.0791
   22PNCE   C6B  192   2.630   0.831   7.113 -0.0862  0.1040 -0.0191
   23PNCE   AM1  193   6.149   3.851   8.503  0.3670  0.1637  0.1127
   23PNCE   AM2  194   5.902   4.096   8.426 -0.1436  0.0867  0.1130
   23PNCE   T1A  195   6.295   3.771   8.182 -0.0797  0.1785 -0.2995
   23PNCE   C2A  196   6.551   3.466   7.879 -0.1916 -0.1541 -0.1348
   23PNCE   C3A  197   6.526   3.074   7.631  0.1632  0.0469 -0.4717
   23PNCE   C1B  198   5.998   4.069   7.914  0.0089 -0.1015 -0.5180
   23PNCE   C2B  199   6.116   4.141   7.366  0.0447  0.1760 -0.0977
   23PNCE   C3B  200   6.548   4.377   7.275  0.0841 -0.2426  0.1724
   23PNCE   D4B  201   6.843   4.481   6.963 -0.0525  0.1855  0.4759
   23PNCE   C5B  202   7.028   4.060   6.814  0.3896 -0.2212 -0.1907
   23PNCE   C6B  203   7.339   3.672   6.839 -0.1563  0.3282 -0.2227
   24PNCE   AM1  204  15.585  12.191   8.408  0.0195  0.0572  0.1356
   24PNCE   AM2  205  15.429  11.911   8.309  0.0994  0.4108 -0.1270
   24PNCE   T1A  206  15.731  12.399   8.003  0.0093  0.1659  0.0878
   24PNCE   C2A  207  15.619  12.845   7.887  0.1221 -0.4739 -0.0553
   24PNCE   C3A  208  15.445  13.070   8.151 -0.0174 -0.0881  0.4023
   24PNCE   C1B  209  15.565  11.918   7.932 -0.2424  0.1033  0.0384
   24PNCE   C2B  210  15.537  12.013   7.605  0.1574 -0.0194 -0.1459
   24PNCE   C3B  211  15.464  12.075   7.108 -0.2001  0.0045 -0.2314
   24PNCE   D4B  212  15.175  12.397   6.942 -0.0328  0.1161 -0.4695
   24PNCE   C5B  213  15.213  12.782   6.996 -0.1967  0.2044  0.2098
   24PNCE   C6B  214  14.993  13.082   6.873  0.0446 -0.4120  0.0909
   25XCA    COO  215  11.857   9.841   4.958  0.2381  0.1145 -0.0109
   25XCA     C1  216  12.172   9.737   5.253 -0.1733  0.2683 -0.0996
   25XCA     C2  217  12.584   9.663   5.542  0.0320  0.1160 -0.1033
   25XCA     C3  218  12.931   9.363   5.461 -0.1024 -0.1428 -0.2963
   25XCA     C4  219  13.199   9.120   5.482 -0.1442 -0.1039  0.2181
   25XCA     C5  220  13.655   9.044   5.570  0.1716  0.2537  0.0976
   25XCA     C6  221  14.048   8.761   5.539 -0.0186 -0.0655 -0.2743
   26CHOL   ROH  222  10.229  11.124   5.020  0.1010  0.0781  0.0959
   26CHOL    R1  223  10.282  11.071   5.293 -0.0837  0.0345  0.1235
   26CHOL    R2  224  10.362  11.268   5.470  0.0459 -0.0432  0.1477
   26CHOL    R3  225  10.148  11.180   5.614 -0.1172  0.1940  0.0569
   26CHOL    R4  226  10.297  11.351   5.799  0.0786 -0.0803  0.1643
   26CHOL    R5  227  10.235  11.145   5.834 -0.2178 -0.0139  0.0678
   26CHOL    C1  228  10.059  11.318   6.126 -0.0552  0.1209  0.0886
   26CHOL    C2  229   9.742  11.561   6.274  0.0371  0.1032  0.1130
   27PNCE   AM1  230  15.052   4.087   8.318 -0.0363 -0.1557  0.1329
   27PNCE   AM2  231  14.866   4.003   8.513  0.0178  0.1278 -0.0182
   27PNCE   T1A  232  15.219   3.888   7.959 -0.0723  0.1428 -0.0383
   27PNCE   C2A  233  15.328   3.681   7.539 -0.0533 -0.0073 -0.0833
   27PNCE   C3A  234  15.605   3.542   7.173 -0.0121  0.3510 -0.1088
   27PNCE   C1B  235  14.710   3.743   8.045  0.0837  0.0455  0.0270
   27PNCE   C2B  236  14.376   3.656   7.873 -0.2050  0.2476 -0.5782
   27PNCE   C3B  237  14.145   3.553   7.517 -0.0414 -0.1014  0.0549
   27PNCE   D4B  238  14.232   3.752   7.164  0.1582  0.3637  0.0711
   27PNCE   C5B  239  13.791   3.735   6.963  0.0512  0.0100 -0.0280
   27PNCE   C6B  240  13.464   3.516   6.770 -0.0752 -0.0679  0.0029
   28CHOL   ROH  241   0.830   4.463   5.436 -0.0907  0.0726  0.2064
   28CHOL    R1  242   0.872   4.445   5.716 -0.0089  0.0515  0.1918
   28CHOL    R2  243   1.077   4.296   5.827  0.0254  0.0531  0.1164
   28CHOL    R3  244   1.137   4.532   5.949  0.0542  0.0429  0.1259
   28CHOL    R4  245   1.296   4.332   6.092 -0.0980 -0.0141  0.2306
   28CHOL    R5  246   1.158   4.476   6.181 -0.0918  0.0517  0.1461
   28CHOL    C1  247   1.479   4.574   6.361 -0.1428 -0.0629  0.3059
   28CHOL    C2  248   1.787   4.565   6.604  0.1885 -0.0105  0.2159
   29PNCE   AM1  249   3.803   4.517   7.936  0.2590  0.0968  0.2515
   29PNCE   AM2  250   3.913   4.815   8.031 -0.2824 -0.0162  0.0747
   29PNCE   T1A  251   3.839   4.401   7.548  0.2601  0.1450  0.1896
   29PNCE   C2A  252   3.597   4.358   7.125 -0.5493 -0.2324  0.0243
   29PNCE   C3A  253   3.195   4.445   6.968 -0.2175  0.0931 -0.4960
   29PNCE   C1B  254   4.050   4.847   7.608 -0.0382 -0.0082 -0.3535
   29PNCE   C2B  255   3.983   4.762   7.206  0.1847  0.0482 -0.0608
   29PNCE   C3B  256   3.983   4.522   6.817 -0.1191 -0.1257  0.0209
   29PNCE   D4B  257   4.022   4.369   6.483 -0.1236 -0.4338 -0.1182
   29PNCE   C5B  258   4.360   4.150   6.304  0.0071 -0.0145  0.2337
   29PNCE   C6B  259   4.741   4.231   6.187 -0.1439  0.1532  0.1370
   30XCA    COO  260   7.479  13.484   8.506  0.1431 -0.2143 -0.1058
   30XCA     C1  261   7.194  13.516   8.216 -0.0336  0.0542  0.3137
   30XCA     C2  262   6.903  13.527   7.953  0.1316  0.1725 -0.0878
   30XCA     C3  263   6.659  13.185   7.752  0.2869 -0.0984 -0.1062
   30XCA     C4  264   6.573  12.903   7.355 -0.0154 -0.1260 -0.0300
   30XCA     C5  265   6.368  12.895   6.988  0.0866 -0.0075  0.1327
   30XCA     C6  266   5.995  12.858   6.649  0.4305  0.0086 -0.0989
   31PNCE   AM1  267  14.557   9.137   8.572  0.3000 -0.1142  0.1186
   31PNCE   AM2  268  14.492   8.839   8.487 -0.0402  0.1756  0.0845
   31PNCE   T1A  269  14.874   9.283   8.195 -0.1741  0.0039  0.0978
   31PNCE   C2A  270  14.849   9.491   7.815 -0.0047 -0.1583  0.1350
   31PNCE   C3A  271  14.844   9.496   7.465 -0.1577  0.3468 -0.2893
   31PNCE   C1B  272  14.421   9.065   8.123  0.0800 -0.1565  0.2731
   31PNCE   C2B  273  14.428   9.029   7.636  0.4372  0.0128  0.2429
   31PNCE   C3B  274  14.302   9.233   7.265 -0.0383  0.0468 -0.1514
   31PNCE   D4B  275  13.951   9.611   7.272 -0.0569 -0.0119  0.3153
   31PNCE   C5B  276  13.578   9.498   7.216  0.1596  0.3422  0.0797
   31PNCE   C6B  277  13.312   9.201   7.101 -0.0658  0.1969  0.1917
   32XCA    COO  278   2.036   9.062   8.166 -0.0871  0.1151 -0.2467
   32XCA     C1  279   2.285   9.186   7.740 -0.2296 -0.1692 -0.0388
   32XCA     C2  280   2.615   9.208   7.434 -0.2134  0.0112 -0.2163
   32XCA     C3  281   2.754   9.442   7.106  0.1181 -0.1804  0.4076
   32XCA     C4  282   3.042   9.757   6.829 -0.2497 -0.2147  0.4462
   32XCA     C5  283   3.100   9.913   6.409  0.2718  0.3284  0.0226
   32XCA     C6  284   2.846  10.104   6.173  0.1798  0.0237  0.0655
   33CHOL   ROH  285  13.681   1.810   4.848  0.0259 -0.0002 -0.2694
   33CHOL    R1  286  13.738   1.687   5.096 -0.1742 -0.0024 -0.2223
   33CHOL    R2  287  13.991   1.690   5.209 -0.1902 -0.2778 -0.1711
   33CHOL    R3  288  13.859   1.795   5.422 -0.1102 -0.0563 -0.2283
   33CHOL    R4  289  14.133   1.750   5.518 -0.1489 -0.2294 -0.1995
   33CHOL    R5  290  13.950   1.678   5.611 -0.2106 -0.0304 -0.1640
   33CHOL    C1  291  14.093   1.883   5.898 -0.0497  0.0068 -0.2697
   33CHOL    C2  292  14.355   1.602   5.985 -0.1825  0.1989  0.3799
   34PNCE   AM1  293  12.511   7.539   3.794 -0.0573 -0.2317 -0.0044
   34PNCE   AM2  294  12.229   7.605   4.001  0.2642  0.2120  0.0165
   34PNCE   T1A  295  13.020   7.601   4.024 -0.1479  0.1721 -0.0059
   34PNCE   C2A  296  13.263   7.462   4.320 -0.2798  0.3397 -0.0539
   34PNCE   C3A  297  13.186   7.543   4.753  0.1206  0.2134 -0.2507
   34PNCE   C1B  298  12.652   7.354   4.236 -0.0960 -0.0527 -0.1276
   34PNCE   C2B  299  12.608   7.390   4.639 -0.0719 -0.2287 -0.2112
   34PNCE   C3B  300  12.409   7.398   5.002  0.3015  0.0987 -0.0066
   34PNCE   D4B  301  12.310   7.201   5.377 -0.2937 -0.0632 -0.0895
   34PNCE   C5B  302  12.054   7.450   5.598 -0.0734  0.0769  0.0062
   34PNCE   C6B  303  11.922   7.660   5.875 -0.0986  0.2893  0.0767
   35PNCE   AM1  304  10.192   8.974   4.502 -0.1002  0.2413  0.4218
   35PNCE   AM2  305  10.133   9.301   4.551  0.1510 -0.0779  0.0629
   35PNCE   T1A  306  10.463   9.073   4.886 -0.1112  0.0513  0.1499
   35PNCE   C2A  307  10.824   8.962   5.252 -0.1950  0.1040  0.1932
   35PNCE   C3A  308  11.156   8.837   5.469  0.0568  0.0050  0.1659
   35PNCE   C1B  309  10.057   9.267   5.029 -0.1334  0.0295 -0.1421
   35PNCE   C2B  310  10.247   9.080   5.318  0.1111  0.0452  0.0614
   35PNCE   C3B  311  10.490   8.846   5.673 -0.1149  0.0581 -0.3028
   35PNCE   D4B  312  10.368   8.732   6.129 -0.0763  0.2213 -0.0984
   35PNCE   C5B  313  10.099   8.885   6.378  0.0387 -0.2222  0.0699
   35PNCE   C6B  314  10.013   8.680   6.775  0.0136 -0.0291  0.2532
   36PNCE   AM1  315   6.587   0.010   8.671  0.1658  0.3861 -0.1634
   36PNCE   AM2  316   6.602  -0.309   8.781 -0.1192  0.0991  0.0568
   36PNCE   T1A  317   6.614   0.398   8.410  0.0460 -0.0881  0.2191
   36PNCE   C2A  318   6.672   0.769   8.181 -0.1323  0.1429  0.3765
   36PNCE   C3A  319   6.894   1.015   7.988  0.0096 -0.1559 -0.3220
   36PNCE   C1B  320   6.650  -0.389   8.390 -0.2541  0.0138  0.2335
   36PNCE   C2B  321   6.623  -0.397   7.972  0.3199  0.0059  0.0483
   36PNCE   C3B  322   6.575  -0.517   7.467 -0.2482 -0.3005 -0.3923
   36PNCE   D4B  323   6.933  -0.481   7.195  0.2029  0.1006  0.1046
   36PNCE   C5B  324   7.308  -0.392   7.315  0.1709 -0.0455 -0.0402
   36PNCE   C6B  325   7.717  -0.452   7.170 -0.1699  0.0597  0.2125
   37XCA    COO  326  15.486  11.715   5.765 -0.0601  0.0076  0.1784
   37XCA     C1  327  15.594  11.417   6.015 -0.2443  0.1620  0.4674
   37XCA     C2  328  15.236  11.258   6.254  0.3503 -0.1688 -0.1178
   37XCA     C3  329  14.991  10.958   6.280 -0.1758  0.0198 -0.0122
   37XCA     C4  330  14.614  10.595   6.109 -0.0976 -0.1664 -0.2608
   37XCA     C5  331  14.362  10.281   6.225 -0.0675 -0.2347 -0.1929
   37XCA     C6  332  13.989  10.101   6.440  0.2751  0.2955 -0.0121
   38CHOL   ROH  333   9.917   7.359   4.570  0.0022 -0.0776  0.0273
   38CHOL    R1  334  10.022   7.339   4.833 -0.0685  0.0331  0.0644
   38CHOL    R2  335   9.962   7.522   5.031 -0.1604  0.0897 -0.0158
   38CHOL    R3  336   9.888   7.300   5.169 -0.1562  0.1233  0.0409
   38CHOL    R4  337   9.955   7.497   5.375 -0.0768  0.1521 -0.0093
   38CHOL    R5  338  10.036   7.296   5.358 -0.1082  0.1370  0.0049
   38CHOL    C1  339   9.881   7.274   5.706 -0.0241  0.2200  0.0479
   38CHOL    C2  340   9.856   7.637   5.942 -0.2430  0.0582 -0.0471
   39PNCE   AM1  341  10.808   2.372   6.036 -0.1557 -0.0613  0.0534
   39PNCE   AM2  342  10.564   2.324   5.821  0.1763 -0.1021  0.3021
   39PNCE   T1A  343  10.935   2.306   6.433  0.4064 -0.2753 -0.1955
   39PNCE   C2A  344  10.754   2.621   6.731  0.0151  0.4626 -0.1755
   39PNCE   C3A  345  11.096   2.894   7.107 -0.0787  0.0447 -0.2279
   39PNCE   C1B  346  10.364   2.247   6.153  0.2466  0.4027  0.1218
   39PNCE   C2B  347  10.098   2.041   6.496  0.1191 -0.2612  0.1601
   39PNCE   C3B  348   9.692   2.201   6.598  0.0288  0.1592  0.4320
   39PNCE   D4B  349   9.432   2.166   7.001  0.1116  0.2871 -0.2453
   39PNCE   C5B  350   9.378   2.142   7.361  0.1142  0.0979 -0.0535
   39PNCE   C6B  351   9.167   2.286   7.705  0.0423 -0.0689  0.3517
   40PNCE   AM1  352  10.223  11.056   4.553  0.0889  0.0097  0.2259
   40PNCE   AM2  353   9.980  11.302   4.341  0.0838 -0.2858  0.0582
   40PNCE   T1A  354  10.355  10.766   4.822 -0.0440  0.3392  0.1565
   40PNCE   C2A  355  10.257  10.611   5.226  0.0257 -0.0439  0.1807
   40PNCE   C3A  356  10.083  10.594   5.694 -0.3489  0.0445  0.0551
   40PNCE   C1B  357   9.618  11.481   4.514  0.0386  0.1436  0.2473
   40PNCE   C2B  358   9.355  11.438   4.718 -0.1244  0.2225  0.0661
   40PNCE   C3B  359   9.017  11.677   4.923  0.0123 -0.1200 -0.1245
   40PNCE   D4B  360   9.052  11.954   5.113 -0.1498  0.1055 -0.0065
   40PNCE   C5B  361   9.282  11.878   5.439 -0.2159  0.3429 -0.1667
   40PNCE   C6B  362   9.386  11.743   5.877 -0.4646  0.3231  0.3207
   41CHOL   ROH  363   6.738  10.507   5.352  0.0817  0.0009  0.1529
   41CHOL    R1  364   6.553  10.293   5.370  0.1042 -0.0175  0.1630
   41CHOL    R2  365   6.634  10.030   5.395  0.1330 -0.0137  0.1238
   41CHOL    R3  366   6.471  10.035   5.613  0.1696 -0.0478  0.1522
   41CHOL    R4  367   6.497   9.751   5.547  0.1365 -0.0318  0.0945
   41CHOL    R5  368   6.311   9.862   5.573  0.1507 -0.0263  0.1477
   41CHOL    C1  369   6.265   9.593   5.840  0.1728 -0.0742  0.1041
   41CHOL    C2  370   6.248   9.416   6.251 -0.2667  0.0804 -0.1903
   42PNCE   AM1  371   2.112  14.266   8.941  0.0120 -0.0440 -0.0171
   42PNCE   AM2  372   2.199  14.027   8.687 -0.1318  0.2644  0.0708
   42PNCE   T1A  373   1.892  14.584   8.753  0.2771  0.1451  0.3921
   42PNCE   C2A  374   1.569  14.782   8.471  0.2869  0.1092  0.1072
   42PNCE   C3A  375   1.361  15.033   8.102  0.2800  0.1845  0.0455
   42PNCE   C1B  376   1.990  14.194   8.336  0.0708  0.1720 -0.0600
   42PNCE   C2B  377   2.026  14.259   7.846 -0.1332 -0.2432 -0.2141
   42PNCE   C3B  378   1.992  14.466   7.388 -0.2704 -0.0694  0.0980
   42PNCE   D4B  379   1.891  14.768   7.051 -0.2788  0.2345  0.0844
   42PNCE   C5B  380   2.004  15.140   6.977 -0.1400 -0.0893  0.0214
   42PNCE   C6B  381   2.115  15.470   6.686  0.2430 -0.0100 -0.0510
   43PNCE   AM1  382  11.497   9.230   8.684 -0.0826  0.2470  0.1331
   43PNCE   AM2  383  11.778   9.311   8.635  0.3368  0.0041 -0.0705
   43PNCE   T1A  384  11.521   9.202   8.278  0.2787 -0.0874  0.1246
   43PNCE   C2A  385  11.397   9.187   7.902  0.1124 -0.0729  0.0436
   43PNCE   C3A  386  11.217   9.195   7.505 -0.0652 -0.1110  0.1326
   43PNCE   C1B  387  11.984   9.022   8.369 -0.0914  0.4516 -0.0665
   43PNCE   C2B  388  12.222   9.054   8.099  0.1508  0.1377  0.0140
   43PNCE   C3B  389  12.015   9.074   7.686  0.1724  0.1077  0.0599
   43PNCE   D4B  390  11.643   8.895   7.470 -0.1267 -0.2718 -0.0318
   43PNCE   C5B  391  11.605   8.745   7.125 -0.3807  0.0001 -0.0260
   43PNCE   C6B  392  11.658   8.684   6.784  0.0328 -0.3843 -0.0046
   44XCA    COO  393   1.081   4.307   8.565 -0.3940 -0.2068 -0.1836
   44XCA     C1  394   1.039   4.266   8.180  0.2319 -0.0095 -0.0286
   44XCA     C2  395   1.097   4.112   7.740  0.1795 -0.0704 -0.3173
   44XCA     C3  396   1.032   4.159   7.247  0.0952  0.0189  0.4452
   44XCA     C4  397   0.990   4.298   6.751 -0.2385  0.0588 -0.2048
   44XCA     C5  398   1.023   4.678   6.575 -0.1438 -0.0049  0.1165
   44XCA     C6  399   1.138   4.972   6.150  0.4041 -0.1878 -0.0383
   45CHOL   ROH  400  10.593   9.436   7.772 -0.1396  0.0529  0.1363
   45CHOL    R1  401  10.818   9.607   7.797 -0.1546  0.0844  0.0550
   45CHOL    R2  402  11.078   9.513   7.791 -0.1499  0.0961  0.1606
   45CHOL    R3  403  11.105   9.697   7.593 -0.1270 -0.0362  0.0383
   45CHOL    R4  404  11.379   9.628   7.668 -0.1328  0.0217  0.1313
   45CHOL    R5  405  11.294   9.828   7.659 -0.1406  0.0158 -0.0178
   45CHOL    C1  406  11.581   9.868   7.410 -0.1015 -0.1457 -0.0006
   45CHOL    C2  407  11.963  10.029   7.409  0.2102 -0.1601  0.0005
   46CHOL   ROH  408  12.444   5.157   4.522  0.0345  0.2905  0.1255
   46CHOL    R1  409  12.663   5.330   4.572  0.0721  0.2482  0.1088
   46CHOL    R2  410  12.726   5.421   4.824  0.1095  0.2364  0.1043
   46CHOL    R3  411  12.970   5.318   4.765  0.0845  0.1885  0.0856
   46CHOL    R4  412  13.019   5.501   4.989  0.1164  0.0824  0.1680
   46CHOL    R5  413  13.121   5.501   4.796  0.1354  0.1322  0.1774
   46CHOL    C1  414  13.419   5.451   5.030  0.0969 -0.0523  0.1876
   46CHOL    C2  415  13.710   5.422   5.220 -0.2978 -0.1908 -0.3130
   47XCA    COO  416   6.893   0.014   5.141 -0.0943  0.0360  0.1206
   47XCA     C1  417   6.551   0.099   5.389 -0.1487 -0.3778  0.1059
   47XCA     C2  418   6.386  -0.051   5.801  0.0773 -0.0261 -0.0996
   47XCA     C3  419   6.431  -0.133   6.228 -0.0296 -0.0571 -0.1398
   47XCA     C4  420   6.281  -0.435   6.530 -0.1012 -0.1793 -0.0947
   47XCA     C5  421   6.104  -0.772   6.677  0.1623  0.0521  0.0073
   47XCA     C6  422   6.125  -0.955   7.145  0.0799  0.0677 -0.1729
   48CHOL   ROH  423  11.470  11.589   5.249 -0.0067  0.0108 -0.1344
   48CHOL    R1  424  11.514  11.373   5.426  0.0609  0.1896  0.0716
   48CHOL    R2  425  11.422  11.373   5.687 -0.2248  0.2734 -0.0231
   48CHOL    R3  426  11.308  11.138   5.613  0.1340  0.0811  0.0151
   48CHOL    R4  427  11.297  11.137   5.906 -0.0723  0.2181  0.0053
   48CHOL    R5  428  11.381  10.981   5.779  0.2220  0.2607  0.1459
   48CHOL    C1  429  11.117  10.778   5.964  0.3534  0.0053  0.0578
   48CHOL    C2  430  11.142  10.736   6.396  0.2132 -0.2171  0.1350
   49PNCE   AM1  431  12.115   3.121   9.426 -0.3324  0.0732 -0.2949
   49PNCE   AM2  432  12.162   2.804   9.565  0.2829  0.1082 -0.2913
   49PNCE   T1A  433  11.954   2.992   9.007  0.0332 -0.0571 -0.2523
   49PNCE   C2A  434  12.107   3.187   8.571 -0.1648  0.1915  0.1245
   49PNCE   C3A  435  12.200   3.563   8.310 -0.0177 -0.3056 -0.2167
   49PNCE   C1B  436  11.825   2.589   9.346 -0.1371 -0.1093 -0.1384
   49PNCE   C2B  437  11.577   2.379   9.017  0.2136 -0.0558  0.2645
   49PNCE   C3B  438  11.576   2.170   8.610 -0.1308 -0.0022  0.0963
   49PNCE   D4B  439  11.548   2.207   8.173 -0.1097  0.2022 -0.0129
   49PNCE   C5B  440  11.795   2.003   7.800 -0.1879 -0.0605  0.0488
   49PNCE   C6B  441  12.167   1.891   7.549 -0.0229  0.0333  0.3711
   50PNCE   AM1  442  11.892  10.934   8.651  0.1102 -0.0286  0.4442
   50PNCE   AM2  443  11.746  10.915   8.321 -0.1430  0.2092  0.0005
   50PNCE   T1A  444  12.137  11.192   8.481 -0.4767  0.3823  0.0650
   50PNCE   C2A  445  12.241  11.618   8.477 -0.0716 -0.2501  0.0529
   50PNCE   C3A  446  12.660  11.771   8.469  0.1158 -0.3037  0.1269
   50PNCE   C1B  447  11.964  11.086   8.033 -0.1769  0.0382 -0.3445
   50PNCE   C2B  448  12.214  10.956   7.725 -0.0749  0.0616 -0.2085
   50PNCE   C3B  449  12.313  10.925   7.269  0.0211 -0.0903 -0.0694
   50PNCE   D4B  450  12.609  10.886   6.980  0.0572  0.1729  0.1893
   50PNCE   C5B  451  13.003  10.628   7.053 -0.0547  0.0301  0.1993
   50PNCE   C6B  452  13.231  10.352   6.820 -0.0033  0.0720  0.2952
   51CHOL   ROH  453  13.746  11.978   6.602 -0.0165  0.1820  0.2488
   51CHOL    R1  454  13.908  11.817   6.769 -0.0039  0.0232  0.0867
   51CHOL    R2  455  13.949  11.547   6.721 -0.1097  0.0362 -0.0983
   51CHOL    R3  456  14.211  11.619   6.732 -0.0825 -0.0544 -0.1547
   51CHOL    R4  457  14.202  11.353   6.854 -0.1989  0.0937  0.1610
   51CHOL    R5  458  14.288  11.533   6.942 -0.1390  0.1641 -0.0434
   51CHOL    C1  459  14.596  11.307   6.942 -0.2254  0.0421  0.2590
   51CHOL    C2  460  14.809  11.202   7.172 -0.1004  0.0230  0.1163
   52PNCE   AM1  461   2.969  13.935   4.619 -0.0036  0.4556  0.1212
   52PNCE   AM2  462   2.688  14.008   4.462  0.1378  0.2383 -0.0300
   52PNCE   T1A  463   3.042  13.944   5.090 -0.1320 -0.0402  0.0903
   52PNCE   C2A  464   3.229  13.955   5.479 -0.1931 -0.0492  0.1726
   52PNCE   C3A  465   3.558  14.277   5.716 -0.0767  0.1626  0.0535
   52PNCE   C1B  466   2.520  13.868   4.867  0.1736 -0.1405 -0.1879
   52PNCE   C2B  467   2.481  14.108   5.261  0.1522 -0.1364 -0.2089
   52PNCE   C3B  468   2.519  14.429   5.393 -0.0844  0.1634 -0.1528
   52PNCE   D4B  469   2.768  14.792   5.282  0.0177 -0.1487 -0.0903
   52PNCE   C5B  470   2.980  14.903   5.683 -0.6776  0.2200 -0.1384
   52PNCE   C6B  471   3.443  15.017   5.584  0.3134 -0.1153  0.2444
   53PNCE   AM1  472   3.324   5.563   8.189  0.1538  0.1728 -0.0858
   53PNCE   AM2  473   2.864   5.520   8.291  0.1235  0.1416  0.0516
   53PNCE   T1A  474   3.686   5.385   8.040  0.0171 -0.5671 -0.1704
   53PNCE   C2A  475   3.832   5.378   7.603  0.0834  0.0227  0.0601
   53PNCE   C3A  476   3.893   5.267   7.218 -0.2395 -0.0382 -0.1329
   53PNCE   C1B  477   2.749   5.488   7.840 -0.2856  0.1058  0.2907
   53PNCE   C2B  478   2.771   5.423   7.453  0.4921 -0.2453 -0.1356
   53PNCE   C3B  479   2.816   5.482   7.110 -0.1214  0.0301 -0.3505
   53PNCE   D4B  480   2.941   5.545   6.714 -0.5131  0.1210  0.1685
   53PNCE   C5B  481   2.849   5.332   6.302  0.0689 -0.3275 -0.0696
   53PNCE   C6B  482   3.217   5.207   6.011  0.2309  0.0034  0.1284
   54CHOL   ROH  483  10.996   4.985   8.804 -0.2634 -0.1560 -0.0468
   54CHOL    R1  484  11.037   4.863   8.552 -0.2494 -0.1904 -0.0278
   54CHOL    R2  485  11.202   4.972   8.358 -0.4206 -0.0943 -0.1229
   54CHOL    R3  486  11.320   4.727   8.367 -0.1953  0.0131 -0.0960
   54CHOL    R4  487  11.412   4.846   8.115 -0.0737  0.1771  0.0275
   54CHOL    R5  488  11.316   4.652   8.139  0.0863  0.0781 -0.1244
   54CHOL    C1  489  11.646   4.543   7.981  0.3398  0.4360  0.1403
   54CHOL    C2  490  11.476   4.352   7.680 -0.1049 -0.0119  0.1824
   55XCA    COO  491  13.575   9.009   3.773 -0.0494 -0.2195  0.3077
   55XCA     C1  492  13.592   9.253   4.235  0.0978 -0.3714  0.1092
   55XCA     C2  493  13.674   9.343   4.624 -0.1064 -0.3087  0.3696
   55XCA     C3  494  13.800   9.507   4.891  0.1405  0.2610 -0.1663
   55XCA     C4  495  13.695   9.539   5.333  0.0944 -0.2434  0.1530
   55XCA     C5  496  13.452   9.837   5.579 -0.1786 -0.2494  0.1398
   55XCA     C6  497  13.170  10.192   5.388  0.2968  0.2720  0.1088
   56XCA    COO  498   5.582   2.757   4.398  0.0057 -0.0783  0.1371
   56XCA     C1  499   5.501   3.155   4.586 -0.0935  0.1296 -0.1927
   56XCA     C2  500   5.595   3.313   5.007  0.0391  0.0823 -0.0029
   56XCA     C3  501   5.806   3.389   5.442  0.0785  0.1170 -0.4061
   56XCA     C4  502   5.796   3.361   5.839 -0.0336  0.1055 -0.2280
   56XCA     C5  503   5.603   3.347   6.164  0.1156 -0.1022 -0.0585
   56XCA     C6  504   5.399   3.524   6.506  0.0620 -0.2130  0.2802
   57CHOL   ROH  505   3.879   1.709   7.591 -0.0294  0.0139 -0.0879
   57CHOL    R1  506   3.732   1.469   7.564  0.0435 -0.0270 -0.1211
   57CHOL    R2  507   3.733   1.319   7.332  0.1418 -0.0286 -0.1178
   57CHOL    R3  508   3.807   1.119   7.500  0.1550 -0.0081 -0.0984
   57CHOL    R4  509   3.623   0.993   7.309  0.1666 -0.0390 -0.0934
   57CHOL    R5  510   3.608   0.988   7.527  0.1629 -0.0210 -0.0914
   57CHOL    C1  511   3.628   0.614   7.454  0.1935 -0.0257 -0.0610
   57CHOL    C2  512   3.452   0.362   7.703 -0.1932  0.1266 -0.0802
   58CHOL   ROH  513   8.004   8.779   6.410 -0.1862  0.0516 -0.0989
   58CHOL    R1  514   8.200   8.773   6.205 -0.2081  0.1322 -0.1221
   58CHOL    R2  515   8.225   8.974   6.017 -0.1317  0.2787  0.0449
   58CHOL    R3  516   8.483   8.977   6.103 -0.1208  0.0859  0.0244
   58CHOL    R4  517   8.493   9.095   5.835 -0.1184  0.4571  0.1794
   58CHOL    R5  518   8.612   8.928   5.907 -0.1572  0.3184 -0.0631
   58CHOL    C1  519   8.891   9.169   5.809 -0.1003  0.3799  0.2385
   58CHOL    C2  520   8.964   9.350   5.528 -0.2726 -0.0274 -0.3215
   59CHOL   ROH  521   1.906   3.801   5.542 -0.1500  0.1425  0.0862
   59CHOL    R1  522   2.094   3.933   5.707 -0.0374  0.1181 -0.0220
   59CHOL    R2  523   2.196   3.820   5.937 -0.0109  0.1536 -0.0171
   59CHOL    R3  524   2.435   3.874   5.819 -0.0252  0.0091 -0.1145
   59CHOL    R4  525   2.505   3.786   6.089  0.0334 -0.0596 -0.1500
   59CHOL    R5  526   2.568   3.971   5.993  0.1125 -0.0907 -0.1608
   59CHOL    C1  527   2.908   3.816   6.067  0.0457 -0.3195 -0.3188
   59CHOL    C2  528   3.353   3.705   6.317 -0.2337 -0.2591 -0.1606
   60PNCE   AM1  529   6.505   8.387   8.562  0.0745 -0.0908 -0.0395
   60PNCE   AM2  530   6.246   8.121   8.599 -0.0063 -0.2199  0.0381
   60PNCE   T1A  531   6.810   8.546   8.310  0.0118  0.1958 -0.4242
   60PNCE   C2A  532   7.100   8.891   8.144  0.0613  0.0710 -0.1564
   60PNCE   C3A  533   7.467   9.018   7.892 -0.1440 -0.0712  0.3010
   60PNCE   C1B  534   6.393   8.161   8.098 -0.2139  0.1242  0.0422
   60PNCE   C2B  535   6.324   8.327   7.688  0.0601  0.0234 -0.0447
   60PNCE   C3B  536   6.436   8.492   7.273  0.0839  0.2729  0.0318
   60PNCE   D4B  537   6.450   8.731   6.946  0.2776  0.3532  0.1518
   60PNCE   C5B  538   6.329   9.118   7.170 -0.0198  0.1369  0.2354
   60PNCE   C6B  539   6.142   9.484   7.248  0.0935 -0.1210 -0.0064
   61PNCE   AM1  540   7.696   5.582   8.451  0.0506 -0.0672  0.0821
   61PNCE   AM2  541   7.846   5.803   8.532 -0.3533 -0.0561  0.0708
   61PNCE   T1A  542   7.795   5.771   8.033  0.1470  0.1146  0.1200
   61PNCE   C2A  543   7.656   5.967   7.600 -0.2484  0.2596 -0.0652
   61PNCE   C3A  544   7.477   5.849   7.316  0.0184  0.1981  0.5584
   61PNCE   C1B  545   8.209   5.612   8.254 -0.4626 -0.3437 -0.1228
   61PNCE   C2B  546   8.164   5.397   7.832 -0.0493 -0.1627  0.2046
   61PNCE   C3B  547   8.152   5.153   7.395  0.1042 -0.0156 -0.1600
   61PNCE   D4B  548   8.118   5.112   6.860 -0.1995 -0.1935 -0.1657
   61PNCE   C5B  549   8.447   5.238   6.603 -0.0841 -0.1107  0.0748
   61PNCE   C6B  550   8.760   5.041   6.262 -0.0845 -0.1108  0.0796
   62PNCE   AM1  551   6.621   2.767   9.327 -0.0300 -0.4413  0.0130
   62PNCE   AM2  552   6.898   2.631   9.161  0.1560  0.4885  0.0718
   62PNCE   T1A  553   6.286   2.640   9.074 -0.0034 -0.0487  0.6183
   62PNCE   C2A  554   6.125   2.764   8.773 -0.0634 -0.1993 -0.2086
   62PNCE   C3A  555   5.912   2.780   8.423 -0.2087 -0.0273 -0.2482
   62PNCE   C1B  556   6.724   2.526   8.810  0.2073 -0.1585 -0.0808
   62PNCE   C2B  557   6.588   2.622   8.501 -0.1511  0.0292  0.3414
   62PNCE   C3B  558   6.279   2.469   8.190  0.0219  0.2460 -0.1481
   62PNCE   D4B  559   6.183   2.161   7.844  0.0000 -0.3086  0.2057
   62PNCE   C5B  560   5.751   2.295   7.697  0.0185  0.0112 -0.2717
   62PNCE   C6B  561   5.390   2.227   7.474 -0.0266 -0.1125 -0.1155
   63PNCE   AM1  562   5.155   6.830   8.623 -0.1623  0.0856  0.2038
   63PNCE   AM2  563   5.468   6.722   8.499  0.0401  0.0873 -0.1556
   63PNCE   T1A  564   5.070   7.185   8.304 -0.3467 -0.0846 -0.1073
   63PNCE   C2A  565   5.095   7.331   7.922 -0.0523 -0.2808  0.1131
   63PNCE   C3A  566   5.130   7.692   7.635 -0.3553  0.5146  0.0079
   63PNCE   C1B  567   5.495   6.949   8.112 -0.0064  0.1451  0.1026
   63PNCE   C2B  568   5.497   7.165   7.680  0.1784  0.2108  0.1089
   63PNCE   C3B  569   5.075   7.242   7.427 -0.0739  0.0089  0.0540
   63PNCE   D4B  570   4.794   7.536   7.283 -0.3199  0.0444 -0.0653
   63PNCE   C5B  571   4.939   8.085   7.191  0.0897 -0.1704 -0.0580
   63PNCE   C6B  572   4.722   8.543   7.209 -0.0505  0.0533  0.0218
   64PNCE   AM1  573  14.822   0.364   8.831  0.3208  0.4267  0.1143
   64PNCE   AM2  574  14.447   0.477   8.861 -0.2893  0.1048  0.1156
   64PNCE   T1A  575  14.764   0.373   8.325 -0.0445  0.1900 -0.0854
   64PNCE   C2A  576  14.733   0.156   8.023 -0.1622 -0.2144  0.0075
   64PNCE   C3A  577  14.517   0.122   7.631 -0.0330  0.1079  0.1190
   64PNCE   C1B  578  14.286   0.329   8.489 -0.1553 -0.2140 -0.3081
   64PNCE   C2B  579  14.214   0.401   8.032  0.3088  0.1522 -0.1668
   64PNCE   C3B  580  14.027   0.155   7.645 -0.1853  0.2285 -0.0730
   64PNCE   D4B  581  13.984  -0.049   7.194  0.0235  0.1099  0.1346
   64PNCE   C5B  582  14.271  -0.236   6.840  0.0123 -0.1079  0.1256
   64PNCE   C6B  583  14.523  -0.221   6.504  0.1473  0.1463  0.0203
   65PNCE   AM1  584  10.556   7.654   8.068  0.1449  0.5085 -0.1262
   65PNCE   AM2  585  10.681   7.934   8.198  0.0257  0.0171 -0.1339
   65PNCE   T1A  586  10.340   7.251   7.760 -0.0101  0.1729 -0.3273
   65PNCE   C2A  587  10.021   7.329   7.402  0.1204  0.4143 -0.1171
   65PNCE   C3A  588   9.963   7.301   7.034 -0.0101 -0.1318  0.3756
   65PNCE   C1B  589  10.564   7.979   7.733 -0.1471  0.1107  0.3686
   65PNCE   C2B  590  10.313   7.690   7.491 -0.0952  0.1972 -0.1579
   65PNCE   C3B  591  10.426   7.388   7.220 -0.2187  0.0348  0.4638
   65PNCE   D4B  592  10.412   7.183   6.814  0.0639  0.2371  0.2518
   65PNCE   C5B  593  10.527   7.090   6.336  0.0784  0.0888  0.2249
   65PNCE   C6B  594  10.673   7.134   5.975 -0.0292  0.2588  0.0159
   66CHOL   ROH  595   8.493  11.466   5.580 -0.1635  0.0471  0.1769
   66CHOL    R1  596   8.608  11.223   5.670 -0.0976  0.0544  0.1167
   66CHOL    R2  597   8.674  11.017   5.497 -0.2348  0.0276  0.0844
   66CHOL    R3  598   8.918  11.041   5.615 -0.1432  0.0453 -0.1086
   66CHOL    R4  599   8.882  10.753   5.578 -0.2161  0.0408  0.0764
   66CHOL    R5  600   8.931  10.855   5.764 -0.0605  0.1284 -0.0190
   66CHOL    C1  601   9.231  10.622   5.735 -0.1192  0.0653 -0.1095
   66CHOL    C2  602   9.534  10.549   5.665 -0.3055  0.0197 -0.2327
   67PNCE   AM1  603  13.418  15.615   8.751  0.3006 -0.0817  0.1400
   67PNCE   AM2  604  13.538  15.288   8.789  0.0736  0.4499 -0.1305
   67PNCE   T1A  605  13.458  15.609   8.300 -0.1897  0.1786  0.0626
   67PNCE   C2A  606  13.399  15.487   7.908  0.0039 -0.0293  0.1702
   67PNCE   C3A  607  13.588  15.761   7.494  0.0328  0.2388 -0.2310
   67PNCE   C1B  608  13.765  15.118   8.542  0.0399 -0.2967  0.1885
   67PNCE   C2B  609  13.591  15.002   8.036  0.1935 -0.2790  0.3550
   67PNCE   C3B  610  13.405  14.813   7.610 -0.0702  0.2154  0.1221
   67PNCE   D4B  611  13.544  14.735   7.311  0.1062 -0.1647  0.1535
   67PNCE   C5B  612  13.607  14.341   7.097  0.4299 -0.0915  0.0888
   67PNCE   C6B  613  13.825  13.936   6.991 -0.0991  0.0650 -0.0146
   68CHOL   ROH  614   4.982  14.895   8.627 -0.0389  0.0070  0.1506
   68CHOL    R1  615   5.033  15.063   8.405  0.0176 -0.0553  0.1159
   68CHOL    R2  616   5.287  15.100   8.303  0.0392 -0.1159  0.1435
   68CHOL    R3  617   5.169  15.024   8.070  0.0625 -0.1586  0.1460
   68CHOL    R4  618   5.424  15.144   7.989  0.1028 -0.2411  0.1536
   68CHOL    R5  619   5.226  15.197   7.915  0.1283 -0.2184  0.1036
   68CHOL    C1  620   5.394  15.097   7.587  0.1617 -0.3541  0.1618
   68CHOL    C2  621   5.785  15.108   7.572 -0.1642  0.0668 -0.2054
   69CHOL   ROH  622   3.371   9.542   6.154 -0.0287  0.0386  0.0470
   69CHOL    R1  623   3.207   9.459   5.939  0.0628 -0.1130  0.0357
   69CHOL    R2  624   2.981   9.597   5.862  0.0552 -0.2103 -0.1091
   69CHOL    R3  625   3.102   9.594   5.618  0.1319 -0.3057 -0.0712
   69CHOL    R4  626   2.815   9.568   5.560  0.1072  0.0574 -0.1659
   69CHOL    R5  627   2.975   9.436   5.491 -0.0276 -0.1274 -0.1433
   69CHOL    C1  628   2.832   9.549   5.155  0.2096  0.1236 -0.1633
   69CHOL    C2  629   2.496   9.697   5.075  0.1399 -0.1166 -0.0772
   70PNCE   AM1  630   8.242  11.004   8.457 -0.1969 -0.0244  0.0174
   70PNCE   AM2  631   8.460  10.696   8.680  0.1358 -0.2355  0.1039
   70PNCE   T1A  632   8.291  11.114   8.020 -0.0207  0.0433 -0.1129
   70PNCE   C2A  633   8.238  11.268   7.602  0.0374  0.0675  0.1680
   70PNCE   C3A  634   8.002  11.375   7.189 -0.0082  0.0624 -0.0740
   70PNCE   C1B  635   8.732  10.925   8.375  0.2535 -0.0706 -0.0494
   70PNCE   C2B  636   8.999  11.211   8.213 -0.0157  0.0640 -0.3312
   70PNCE   C3B  637   9.340  11.589   8.089 -0.0760 -0.2737  0.0380
   70PNCE   D4B  638   9.373  12.035   7.876  0.0310 -0.0213  0.1628
   70PNCE   C5B  639   8.977  12.223   8.063  0.2306  0.0332 -0.1084
   70PNCE   C6B  640   8.688  12.474   8.179 -0.0955 -0.1840  0.4562
   71PNCE   AM1  641   9.693  10.330   8.547  0.2813 -0.1744 -0.0186
   71PNCE   AM2  642   9.729  10.205   8.369 -0.3260 -0.0339  0.0159
   71PNCE   T1A  643   9.562  10.628   8.159 -0.0411  0.1513 -0.0351
   71PNCE   C2A  644   9.546  10.560   7.673  0.0393  0.1292  0.0842
   71PNCE   C3A  645   9.576  10.588   7.234 -0.0731 -0.0795 -0.2361
   71PNCE   C1B  646   9.441  10.119   8.074 -0.2187  0.1524  0.0212
   71PNCE   C2B  647   9.246  10.134   7.671 -0.4254  0.1934  0.2207
   71PNCE   C3B  648   8.967  10.385   7.450 -0.1204  0.2482 -0.2697
   71PNCE   D4B  649   8.576  10.328   7.447 -0.1816  0.0933 -0.1051
   71PNCE   C5B  650   8.262  10.159   7.161  0.2273  0.0798  0.1011
   71PNCE   C6B  651   8.280  10.110   6.743 -0.1305  0.0108  0.4396
   72PNCE   AM1  652   9.202  15.577   9.634  0.4572  0.3440  0.1773
   72PNCE   AM2  653   9.276  15.335   9.339 -0.2758  0.0195  0.0318
   72PNCE   T1A  654   9.000  15.682   9.148  0.0749 -0.1893  0.1184
   72PNCE   C2A  655   8.995  15.862   8.733 -0.3654 -0.0241 -0.3640
   72PNCE   C3A  656   9.177  16.181   8.375 -0.0256  0.1857 -0.0106
   72PNCE   C1B  657   9.135  15.306   8.833  0.0779 -0.0645 -0.1737
   72PNCE   C2B  658   9.368  15.274   8.601 -0.2598  0.1588  0.0892
   72PNCE   C3B  659   9.357  15.053   8.232  0.2432 -0.1040  0.1036
   72PNCE   D4B  660   9.314  15.098   7.768 -0.1934  0.0990  0.0901
   72PNCE   C5B  661   8.912  15.040   7.518 -0.1047 -0.0148  0.3686
   72PNCE   C6B  662   8.615  14.793   7.499 -0.4652  0.2799  0.1010
   73CHOL   ROH  663   5.841  11.548   8.226  0.0231 -0.1034 -0.1457
   73CHOL    R1  664   5.916  11.644   7.970 -0.0726 -0.2212 -0.2192
   73CHOL    R2  665   5.747  11.633   7.752 -0.2689 -0.0494 -0.0822
   73CHOL    R3  666   5.799  11.900   7.739  0.0350 -0.1091 -0.1497
   73CHOL    R4  667   5.781  11.814   7.459 -0.3551 -0.1048 -0.1268
   73CHOL    R5  668   5.946  11.922   7.551 -0.1295 -0.2936 -0.3029
   73CHOL    C1  669   5.850  12.169   7.277 -0.1200 -0.1932 -0.2161
   73CHOL    C2  670   6.020  12.534   7.160 -0.0171 -0.0402  0.0035
   74CHOL   ROH  671  11.577  14.289   7.374  0.1972  0.1183  0.1578
   74CHOL    R1  672  11.535  14.503   7.194  0.1462  0.0590  0.0980
   74CHOL    R2  673  11.327  14.683   7.223  0.0609 -0.0205  0.0090
   74CHOL    R3  674  11.528  14.867   7.213 -0.0130  0.0604  0.0135
   74CHOL    R4  675  11.284  15.021   7.164 -0.0515 -0.0709 -0.2016
   74CHOL    R5  676  11.462  15.017   7.039  0.0151 -0.0643 -0.1043
   74CHOL    C1  677  11.446  15.390   7.119 -0.1861 -0.0241 -0.3201
   74CHOL    C2  678  11.432  15.644   7.457 -0.2274 -0.0047  0.1897
   75PNCE   AM1  679  15.309   9.061   7.886 -0.1683  0.0349  0.4858
   75PNCE   AM2  680  15.585   9.209   8.018 -0.0257  0.4229 -0.2472
   75PNCE   T1A  681  15.029   9.060   7.603 -0.1536 -0.3615 -0.3998
   75PNCE   C2A  682  14.840   8.980   7.369 -0.3025 -0.2992 -0.1165
   75PNCE   C3A  683  14.833   9.158   7.008 -0.0367 -0.0362  0.0348
   75PNCE   C1B  684  15.565   9.092   7.484  0.1345 -0.1245  0.0298
   75PNCE   C2B  685  15.731   9.200   7.109 -0.1368  0.1618 -0.1743
   75PNCE   C3B  686  15.847   9.042   6.773  0.0152  0.0936 -0.3282
   75PNCE   D4B  687  15.815   8.745   6.541 -0.0423 -0.1365 -0.1552
   75PNCE   C5B  688  16.117   8.714   6.114  0.0125 -0.2932  0.1475
   75PNCE   C6B  689  16.380   9.037   5.983  0.0340 -0.2978  0.0904
   76XCA    COO  690  14.671   1.331   8.520  0.2966  0.0328 -0.1548
   76XCA     C1  691  14.676   1.354   8.073  0.1012 -0.0581  0.0820
   76XCA     C2  692  14.310   1.271   7.747  0.1390  0.3413  0.0998
   76XCA     C3  693  14.148   1.255   7.356 -0.1567  0.2796 -0.0440
   76XCA     C4  694  13.811   1.383   7.281  0.1620 -0.1904 -0.1212
   76XCA     C5  695  13.517   1.690   7.107 -0.1530 -0.1652  0.1997
   76XCA     C6  696  13.893   1.913   6.861 -0.3188 -0.0369 -0.1268
   77CHOL   ROH  697   5.808   5.980   4.183  0.1437 -0.1582 -0.0258
   77CHOL    R1  698   5.955   6.149   4.356  0.0582 -0.0540 -0.0536
   77CHOL    R2  699   5.942   6.128   4.631  0.0688 -0.0146 -0.0477
   77CHOL    R3  700   6.212   6.108   4.610  0.0785  0.1176 -0.0469
   77CHOL    R4  701   6.162   6.152   4.896  0.0428 -0.1730 -0.0111
   77CHOL    R5  702   6.295   6.268   4.768  0.0026  0.0024  0.1086
   77CHOL    C1  703   6.544   6.147   5.031  0.0368 -0.1412  0.0109
   77CHOL    C2  704   6.439   6.052   5.486  0.0694  0.2580  0.0686
   78PNCE   AM1  705   7.208  11.414   8.986 -0.3397 -0.0391  0.3970
   78PNCE   AM2  706   7.125  11.099   8.681 -0.0296 -0.1990 -0.1122
   78PNCE   T1A  707   7.324  11.579   8.649  0.1239  0.1598  0.1638
   78PNCE   C2A  708   7.428  11.766   8.275  0.2467  0.0375  0.1417
   78PNCE   C3A  709   7.505  11.922   7.900  0.1830  0.1384  0.1175
   78PNCE   C1B  710   7.298  11.217   8.275 -0.4227 -0.0930  0.1226
   78PNCE   C2B  711   7.192  11.405   7.818 -0.0246 -0.0479  0.0716
   78PNCE   C3B  712   6.958  11.261   7.496  0.2684 -0.0006 -0.1208
   78PNCE   D4B  713   6.900  11.477   7.110 -0.0333  0.1874 -0.1069
   78PNCE   C5B  714   7.180  11.799   6.949  0.0143 -0.1180  0.2589
   78PNCE   C6B  715   7.408  11.855   6.590 -0.2724 -0.1319  0.3160
   79XCA    COO  716  13.206  15.071   8.530 -0.1347 -0.1773 -0.3297
   79XCA     C1  717  12.885  15.308   8.070 -0.1606 -0.0633 -0.2150
   79XCA     C2  718  12.768  15.455   7.698  0.0803 -0.2351 -0.2023
   79XCA     C3  719  13.137  15.659   7.416 -0.1335  0.2087  0.1547
   79XCA     C4  720  13.232  16.056   7.361 -0.3307 -0.1941 -0.0207
   79XCA     C5  721  13.344  16.404   7.055  0.3357  0.1647 -0.2125
   79XCA     C6  722  13.471  16.700   6.731 -0.0268 -0.1914 -0.2524
   80PNCE   AM1  723   6.134   0.335   8.681 -0.0350  0.1149  0.0433
   80PNCE   AM2  724   6.014   0.615   8.793 -0.3364  0.0219  0.0281
   80PNCE   T1A  725   6.166   0.377   8.275 -0.0184 -0.0404 -0.0894
   80PNCE   C2A  726   6.381   0.453   7.859 -0.4887 -0.1452  0.0917
   80PNCE   C3A  727   6.663   0.488   7.479  0.1220 -0.2799  0.2891
   80PNCE   C1B  728   6.204   0.844   8.498  0.0584 -0.1856  0.3171
   80PNCE   C2B  729   6.204   0.902   7.979  0.0356  0.0482 -0.0078
   80PNCE   C3B  730   6.583   0.937   7.670 -0.1334  0.1126 -0.0785
   80PNCE   D4B  731   6.894   1.045   7.376 -0.1755 -0.0055 -0.2881
   80PNCE   C5B  732   7.053   0.739   7.323  0.0216 -0.1544  0.1778
   80PNCE   C6B  733   7.217   0.252   7.311 -0.2751 -0.0755 -0.1404
   81XCA    COO  734   9.485   8.280   4.184 -0.1216 -0.1501  0.0168
   81XCA     C1  735   9.334   8.239   4.607  0.0203  0.0642 -0.3110
   81XCA     C2  736   9.134   8.374   4.981  0.1746  0.1944 -0.1220
   81XCA     C3  737   9.022   8.737   5.349 -0.5788  0.4161  0.1081
   81XCA     C4  738   9.309   9.019   5.578  0.0840  0.0217 -0.1163
   81XCA     C5  739   9.543   9.276   5.301 -0.4377 -0.0352  0.3718
   81XCA     C6  740   9.231   9.616   5.212  0.3666  0.0769  0.1959
   82CHOL   ROH  741   6.276   4.983   5.956  0.1877  0.0138 -0.0696
   82CHOL    R1  742   6.274   5.178   6.162  0.1409 -0.0909  0.0305
   82CHOL    R2  743   6.211   5.443   6.115  0.2373 -0.0466  0.1353
   82CHOL    R3  744   6.028   5.400   6.312  0.1278 -0.1012  0.0227
   82CHOL    R4  745   6.035   5.691   6.280  0.0953 -0.0993  0.0643
   82CHOL    R5  746   6.063   5.581   6.465  0.0040 -0.1157  0.0657
   82CHOL    C1  747   5.762   5.796   6.560 -0.0901 -0.1814 -0.0826
   82CHOL    C2  748   5.412   5.777   6.572 -0.1065  0.0781  0.2486
   83CHOL   ROH  749   2.898   8.363   8.561 -0.3496  0.0110 -0.0945
   83CHOL    R1  750   2.926   8.421   8.286 -0.1140 -0.0096 -0.0748
   83CHOL    R2  751   3.161   8.379   8.149 -0.0623 -0.2029  0.0909
   83CHOL    R3  752   3.002   8.234   7.982 -0.0632 -0.0658 -0.0321
   83CHOL    R4  753   3.238   8.307   7.819  0.0855 -0.1414  0.1099
   83CHOL    R5  754   3.027   8.343   7.769  0.1184 -0.0041  0.0086
   83CHOL    C1  755   3.133   8.129   7.471  0.1707  0.0231  0.0055
   83CHOL    C2  756   3.293   7.904   7.244 -0.1090  0.0843  0.0901
   84PNCE   AM1  757   5.140   6.292   8.393  0.0084 -0.0366  0.0503
   84PNCE   AM2  758   4.804   6.237   8.347 -0.1267  0.1982  0.0702
   84PNCE   T1A  759   5.113   6.649   8.180 -0.0817 -0.0328 -0.3872
   84PNCE   C2A  760   5.088   6.857   7.823  0.0895 -0.3066  0.0074
   84PNCE   C3A  761   5.211   6.724   7.450 -0.1513 -0.1168 -0.1856
   84PNCE   C1B  762   4.731   6.474   7.946 -0.0327  0.1090  0.0982
   84PNCE   C2B  763   4.750   6.665   7.553  0.2434 -0.1794 -0.1634
   84PNCE   C3B  764   4.714   6.945   7.278  0.0364  0.0837  0.3277
   84PNCE   D4B  765   4.844   6.837   6.988  0.0727  0.2599  0.0508
   84PNCE   C5B  766   5.063   7.232   6.920 -0.1526 -0.2343 -0.1996
   84PNCE   C6B  767   5.271   7.580   6.721 -0.0956  0.1694  0.1845
   85PNCE   AM1  768  12.122   9.644   9.148 -0.0956  0.0586  0.3215
   85PNCE   AM2  769  11.936   9.689   8.932  0.1733 -0.1057  0.2163
   85PNCE   T1A  770  12.221  10.021   8.797  0.1404  0.0820 -0.0224
   85PNCE   C2A  771  12.155  10.513   8.800  0.0603 -0.3416  0.1260
   85PNCE   C3A  772  12.415  10.777   8.646 -0.0445 -0.1932 -0.0015
   85PNCE   C1B  773  11.876   9.785   8.503 -0.1567  0.1291  0.3228
   85PNCE   C2B  774  11.940   9.525   8.162  0.0791  0.1798 -0.0664
   85PNCE   C3B  775  11.788   9.545   7.798  0.0591 -0.0488  0.2399
   85PNCE   D4B  776  11.703   9.367   7.371 -0.2465  0.0472  0.0900
   85PNCE   C5B  777  11.814   9.649   7.081  0.2294  0.3820 -0.0800
   85PNCE   C6B  778  12.047   9.611   6.673 -0.5856 -0.1752  0.0579
   86CHOL   ROH  779   8.112   7.493   6.753  0.1473  0.0914  0.0179
   86CHOL    R1  780   8.179   7.692   6.563  0.0964  0.0901 -0.0028
   86CHOL    R2  781   8.020   7.749   6.344  0.1069 -0.0098 -0.0427
   86CHOL    R3  782   8.032   8.003   6.442 -0.0155  0.0083 -0.0747
   86CHOL    R4  783   7.940   8.035   6.166  0.0698 -0.0585 -0.1034
   86CHOL    R5  784   8.111   8.134   6.258 -0.0001  0.0122 -0.0607
   86CHOL    C1  785   7.906   8.439   6.155 -0.0667 -0.0698 -0.1688
   86CHOL    C2  786   7.869   8.687   5.894  0.0463 -0.1129  0.0757
   87PNCE   AM1  787  11.143  15.742   8.802 -0.2705  0.0528  0.1518
   87PNCE   AM2  788  10.883  15.545   8.788 -0.0300 -0.0823 -0.3146
   87PNCE   T1A  789  11.349  16.027   8.576 -0.1538  0.0893  0.0494
   87PNCE   C2A  790  11.378  16.040   8.097  0.2076 -0.1694  0.0024
   87PNCE   C3A  791  11.349  16.112   7.666  0.0655 -0.2370 -0.0640
   87PNCE   C1B  792  10.936  15.353   8.470  0.1871 -0.0445 -0.1229
   87PNCE   C2B  793  10.680  15.325   8.082  0.0901  0.1875 -0.1788
   87PNCE   C3B  794  10.295  15.294   7.974  0.1091 -0.0977  0.0970
   87PNCE   D4B  795   9.891  15.236   7.732  0.2323  0.0029 -0.3549
   87PNCE   C5B  796   9.900  15.400   7.345  0.0077  0.1610 -0.0749
   87PNCE   C6B  797   9.638  15.640   7.063  0.1525  0.0712 -0.0931
   88XCA    COO  798   4.505   7.386   4.972 -0.0661 -0.2369 -0.0979
   88XCA     C1  799   4.570   7.025   5.341  0.0144 -0.0432 -0.0590
   88XCA     C2  800   4.642   6.667   5.721 -0.0759  0.2294 -0.0123
   88XCA     C3  801   4.722   6.495   6.163 -0.0411  0.0845  0.2670
   88XCA     C4  802   5.016   6.237   6.096  0.0105  0.2048 -0.3325
   88XCA     C5  803   5.013   5.740   6.220 -0.1644  0.0909 -0.2901
   88XCA     C6  804   4.953   5.595   6.548  0.0698 -0.0152 -0.3687
   89CHOL   ROH  805   0.082  11.418   8.244 -0.1191  0.2408  0.0911
   89CHOL    R1  806   0.111  11.667   8.113 -0.1147  0.1554 -0.0718
   89CHOL    R2  807   0.336  11.733   7.967 -0.0474  0.1148  0.0150
   89CHOL    R3  808   0.155  11.782   7.770  0.0551 -0.0783 -0.1310
   89CHOL    R4  809   0.368  11.980   7.727 -0.0871  0.1117  0.0064
   89CHOL    R5  810   0.155  12.020   7.748 -0.1451 -0.0790 -0.1615
   89CHOL    C1  811   0.216  12.169   7.402 -0.0141 -0.0714 -0.1356
   89CHOL    C2  812   0.475  12.367   7.477  0.1798  0.1130  0.2454
   90CHOL   ROH  813  11.322   7.301   7.821 -0.1302 -0.0104 -0.0366
   90CHOL    R1  814  11.265   7.256   7.548 -0.0714  0.0344 -0.0567
   90CHOL    R2  815  11.462   7.195   7.363 -0.0429 -0.0318 -0.0070
   90CHOL    R3  816  11.301   6.981   7.312 -0.1167  0.0376 -0.0667
   90CHOL    R4  817  11.433   7.037   7.057  0.0550 -0.0650  0.0008
   90CHOL    R5  818  11.219   7.020   7.091  0.0278  0.0432 -0.1193
   90CHOL    C1  819  11.266   6.745   6.831  0.0426 -0.0190 -0.0508
   90CHOL    C2  820  11.339   6.555   6.479  0.1610 -0.3647  0.0993
   91CHOL   ROH  821   7.117  10.687   8.330 -0.0224  0.0648 -0.0534
   91CHOL    R1  822   7.362  10.617   8.205 -0.0123 -0.0080  0.0078
   91CHOL    R2  823   7.444  10.355   8.177 -0.0837 -0.0312  0.0298
   91CHOL    R3  824   7.464  10.423   7.915  0.0039 -0.0393  0.0337
   91CHOL    R4  825   7.734  10.337   7.991 -0.0313 -0.0894  0.1159
   91CHOL    R5  826   7.680  10.526   7.897  0.0301 -0.0789  0.0957
   91CHOL    C1  827   7.923  10.390   7.636  0.0816 -0.1308  0.1695
   91CHOL    C2  828   8.171  10.142   7.780  0.2442  0.0472 -0.0657
   92PNCE   AM1  829   1.828  13.332   8.447  0.1226 -0.1301  0.2279
   92PNCE   AM2  830   1.865  13.639   8.447 -0.0810 -0.1819 -0.1635
   92PNCE   T1A  831   1.810  13.377   8.029 -0.2800 -0.1044  0.1107
   92PNCE   C2A  832   2.078  13.307   7.668  0.2505 -0.2449 -0.0996
   92PNCE   C3A  833   2.136  13.206   7.343 -0.0587  0.3299  0.2724
   92PNCE   C1B  834   1.594  13.938   8.243  0.0366  0.1650 -0.0907
   92PNCE   C2B  835   1.669  13.776   7.846 -0.0760  0.2042  0.2379
   92PNCE   C3B  836   1.641  13.444   7.532 -0.2903  0.2079  0.2329
   92PNCE   D4B  837   1.402  13.268   7.273 -0.1888 -0.0231  0.0334
   92PNCE   C5B  838   1.212  13.446   6.829  0.1364 -0.0130  0.0731
   92PNCE   C6B  839   1.135  13.461   6.455  0.1168 -0.1241  0.2474
   93CHOL   ROH  840   7.769   5.402   3.999  0.0913  0.0049  0.0529
   93CHOL    R1  841   7.767   5.379   4.281 -0.0139 -0.0293  0.0509
   93CHOL    R2  842   7.771   5.599   4.448  0.1986 -0.0480  0.0828
   93CHOL    R3  843   7.549   5.483   4.553  0.0280  0.1957 -0.0015
   93CHOL    R4  844   7.641   5.666   4.761  0.3145 -0.1224  0.1469
   93CHOL    R5  845   7.600   5.454   4.785 -0.0029 -0.0800 -0.0310
   93CHOL    C1  846   7.356   5.596   5.042  0.2219  0.0632  0.1050
   93CHOL    C2  847   7.252   5.523   5.344 -0.1045 -0.0986 -0.3782
   94XCA    COO  848   1.449  10.346   7.465  0.0436  0.0659 -0.1965
   94XCA     C1  849   1.629  10.386   7.048  0.1351 -0.1391  0.0211
   94XCA     C2  850   1.832  10.405   6.674  0.0767 -0.2096  0.1914
   94XCA     C3  851   2.163  10.349   6.433 -0.0425  0.0032 -0.0082
   94XCA     C4  852   2.421  10.375   6.023  0.3066 -0.3426 -0.1021
   94XCA     C5  853   2.107  10.312   5.668  0.0969  0.0922  0.1583
   94XCA     C6  854   1.698  10.127   5.690  0.2747 -0.3233 -0.1817
   95CHOL   ROH  855   1.089   3.857   6.880 -0.1997 -0.0704 -0.2112
   95CHOL    R1  856   1.121   3.684   7.101 -0.0090 -0.0190 -0.1971
   95CHOL    R2  857   0.954   3.469   7.147 -0.0454  0.0610  0.0609
   95CHOL    R3  858   1.188   3.330   7.153 -0.0916 -0.0317 -0.1755
   95CHOL    R4  859   0.979   3.125   7.173 -0.1548  0.0708  0.3304
   95CHOL    R5  860   1.148   3.153   7.309  0.0691  0.1242  0.0498
   95CHOL    C1  861   1.213   2.795   7.194 -0.2619 -0.0105  0.2654
   95CHOL    C2  862   1.391   2.499   6.993  0.0140 -0.1067 -0.3631
   96XCA    COO  863  14.541  14.947   4.934  0.3586 -0.0402  0.2337
   96XCA     C1  864  14.386  15.003   5.361  0.1654 -0.0311  0.1295
   96XCA     C2  865  14.314  14.814   5.762  0.0192 -0.1576  0.2692
   96XCA     C3  866  14.488  14.946   6.245  0.0084 -0.0844  0.2717
   96XCA     C4  867  14.717  15.219   6.297 -0.1141  0.0277  0.3116
   96XCA     C5  868  14.993  15.366   6.502  0.2952  0.1167 -0.1339
   96XCA     C6  869  14.882  15.508   6.933  0.0534 -0.2186 -0.1199
   97PNCE   AM1  870   7.997   3.034   8.977  0.3350 -0.1644 -0.0284
   97PNCE   AM2  871   7.725   3.160   9.200  0.5553 -0.1113  0.4559
   97PNCE   T1A  872   8.088   2.841   8.589  0.1117  0.2308 -0.2153
   97PNCE   C2A  873   8.005   2.546   8.243 -0.4113  0.0431 -0.2344
   97PNCE   C3A  874   7.886   2.571   7.848 -0.0454 -0.0797  0.0964
   97PNCE   C1B  875   7.464   2.953   8.844  0.0011  0.0617  0.2103
   97PNCE   C2B  876   7.171   2.707   8.701  0.0963  0.0764 -0.3571
   97PNCE   C3B  877   7.064   2.577   8.238  0.0030  0.0604  0.1219
   97PNCE   D4B  878   6.708   2.778   8.025 -0.0097  0.1542  0.1300
   97PNCE   C5B  879   6.973   3.050   7.780  0.2760 -0.3765  0.3676
   97PNCE   C6B  880   7.322   3.318   7.699  0.1314  0.0259  0.1051
   98PNCE   AM1  881   2.542   2.240   4.871  0.2818 -0.0022  0.1240
   98PNCE   AM2  882   2.782   2.452   4.744 -0.0050 -0.2855  0.0727
   98PNCE   T1A  883   2.592   2.433   5.425  0.0223  0.4195  0.0806
   98PNCE   C2A  884   2.567   2.463   5.774 -0.0275 -0.2879  0.1582
   98PNCE   C3A  885   2.451   2.316   6.085 -0.0047  0.2072 -0.0775
   98PNCE   C1B  886   3.053   2.511   5.142  0.2100  0.0576 -0.1301
   98PNCE   C2B  887   3.006   2.619   5.534  0.0811  0.2683  0.0996
   98PNCE   C3B  888   3.062   2.553   6.045  0.0569  0.2069  0.0224
   98PNCE   D4B  889   3.219   2.321   6.378  0.1650 -0.1333 -0.0036
   98PNCE   C5B  890   3.395   2.466   6.780 -0.3654  0.0822  0.0308
   98PNCE   C6B  891   3.661   2.363   7.052 -0.0290  0.1869 -0.1728
   99PNCE   AM1  892   8.683  13.951   8.964 -0.1522 -0.0917 -0.0466
   99PNCE   AM2  893   8.708  14.238   8.975 -0.0283 -0.0081  0.0391
   99PNCE   T1A  894   8.668  13.966   8.550 -0.0891 -0.1494 -0.2256
   99PNCE   C2A  895   8.697  13.949   8.142  0.1357 -0.2991  0.0522
   99PNCE   C3A  896   8.726  13.865   7.694 -0.1273  0.0884 -0.2487
   99PNCE   C1B  897   8.965  14.574   8.760 -0.0277  0.2621  0.1759
   99PNCE   C2B  898   8.938  14.848   8.469 -0.4696  0.1979 -0.2781
   99PNCE   C3B  899   8.940  15.294   8.269 -0.1440  0.0354 -0.0691
   99PNCE   D4B  900   8.871  15.756   8.241  0.3141 -0.0449  0.1471
   99PNCE   C5B  901   8.472  15.887   8.375  0.1818 -0.0139 -0.1095
   99PNCE   C6B  902   8.098  15.974   8.552  0.1386  0.0012  0.1235
  100CHOL   ROH  903   0.380   3.289   8.290  0.1652 -0.0080  0.0754
  100CHOL    R1  904   0.556   3.284   8.068  0.1519  0.1419  0.0617
  100CHOL    R2  905   0.546   3.087   7.874  0.3359  0.1053  0.0941
  100CHOL    R3  906   0.526   3.300   7.706  0.1064  0.0612  0.0605
  100CHOL    R4  907   0.571   3.069   7.530  0.3515  0.0708  0.0961
  100CHOL    R5  908   0.686   3.254   7.534  0.1581  0.2004  0.0658
  100CHOL    C1  909   0.567   3.258   7.171  0.1453  0.0094  0.0658
  100CHOL    C2  910   0.673   3.278   6.789 -0.2317  0.2323 -0.0102
  101XCA    COO  911   6.618  11.823   8.645  0.0800  0.0344  0.3759
  101XCA     C1  912   7.050  11.954   8.561  0.1115 -0.0290 -0.1510
  101XCA     C2  913   7.333  12.237   8.303 -0.0699  0.5308 -0.3972
  101XCA     C3  914   7.101  12.626   8.051 -0.0206  0.2091 -0.2320
  101XCA     C4  915   7.091  12.996   7.823  0.2170 -0.2396  0.2852
  101XCA     C5  916   7.004  13.322   7.403 -0.0255  0.1345 -0.2218
  101XCA     C6  917   6.658  13.296   7.087  0.1167 -0.0017 -0.0031
  102PNCE   AM1  918  11.148  13.006   8.641 -0.0392 -0.1745 -0.0274
  102PNCE   AM2  919  10.935  12.701   8.634 -0.0700 -0.1215 -0.0191
  102PNCE   T1A  920  11.061  13.348   8.319 -0.0646 -0.1481 -0.1532
  102PNCE   C2A  921  11.122  13.495   7.939 -0.3110 -0.1444  0.0933
  102PNCE   C3A  922  11.194  13.875   7.699 -0.2235 -0.0559 -0.3147
  102PNCE   C1B  923  11.216  12.821   8.195 -0.0397  0.1259 -0.1047
  102PNCE   C2B  924  11.157  13.011   7.757 -0.0118  0.0850 -0.1279
  102PNCE   C3B  925  10.978  13.028   7.363  0.0868  0.0166 -0.3858
  102PNCE   D4B  926  10.700  13.111   7.025  0.0486  0.0660 -0.3145
  102PNCE   C5B  927  10.622  13.476   6.700 -0.0951 -0.0249 -0.2078
  102PNCE   C6B  928  10.415  13.792   6.451  0.1673  0.3982  0.2365
  103PNCE   AM1  929   0.305   8.696   7.839 -0.0360 -0.0414  0.2829
  103PNCE   AM2  930  -0.037   8.840   7.806  0.2573  0.1152  0.3754
  103PNCE   T1A  931   0.655   8.770   7.578 -0.3715  0.0471 -0.1062
  103PNCE   C2A  932   0.896   8.547   7.335  0.0128 -0.3213 -0.3150
  103PNCE   C3A  933   0.970   8.341   7.054 -0.2295  0.1577  0.1850
  103PNCE   C1B  934   0.186   8.841   7.373  0.2194  0.1400 -0.1911
  103PNCE   C2B  935   0.492   8.888   7.043 -0.0389 -0.3095  0.1729
  103PNCE   C3B  936   0.409   8.928   6.620 -0.2517  0.2599  0.0598
  103PNCE   D4B  937   0.710   8.762   6.384  0.1161  0.1383  0.1594
  103PNCE   C5B  938   1.093   8.970   6.321  0.1888  0.1350  0.2074
  103PNCE   C6B  939   1.427   8.870   6.481 -0.3345  0.0689 -0.1729
  104PNCE   AM1  940  10.190   1.879   9.244  0.0283 -0.1801  0.0505
  104PNCE   AM2  941  10.279   2.086   9.394 -0.4300 -0.3978  0.1761
  104PNCE   T1A  942  10.142   1.662   8.854 -0.2769  0.1828 -0.2921
  104PNCE   C2A  943  10.125   1.298   8.493 -0.0812 -0.0341 -0.1618
  104PNCE   C3A  944   9.930   0.906   8.399  0.3083 -0.0021 -0.0547
  104PNCE   C1B  945  10.648   1.972   9.049  0.2983  0.2692 -0.0372
  104PNCE   C2B  946  10.618   1.730   8.660  0.1197 -0.0804  0.0456
  104PNCE   C3B  947  10.517   1.541   8.252 -0.0319 -0.0587 -0.0645
  104PNCE   D4B  948  10.504   1.241   7.921  0.0928 -0.2774  0.0117
  104PNCE   C5B  949  10.737   1.377   7.540  0.2675 -0.0162  0.0209
  104PNCE   C6B  950  10.653   1.765   7.256  0.0277 -0.2570 -0.1463
  105CHOL   ROH  951  13.553   0.074   6.808  0.0397 -0.1676  0.0131
  105CHOL    R1  952  13.273   0.101   6.835  0.0589 -0.1407  0.1973
  105CHOL    R2  953  13.097   0.048   6.628 -0.0678  0.0764  0.2478
  105CHOL    R3  954  12.982  -0.116   6.811  0.0057 -0.0676  0.1667
  105CHOL    R4  955  12.803  -0.126   6.579 -0.0863  0.1144  0.2230
  105CHOL    R5  956  12.747  -0.080   6.784 -0.0067 -0.0450  0.2853
  105CHOL    C1  957  12.524  -0.383   6.721 -0.0282  0.0013  0.1323
  105CHOL    C2  958  12.254  -0.562   7.007 -0.1181 -0.0855 -0.1806
  106PNCE   AM1  959   1.152  11.220   8.008 -0.2082 -0.2234 -0.1758
  106PNCE   AM2  960   0.970  11.222   8.263 -0.1910 -0.0602 -0.0472
  106PNCE   T1A  961   1.106  11.238   7.698  0.1846 -0.0875 -0.1589
  106PNCE   C2A  962   1.260  11.251   7.301 -0.2349  0.2220  0.2645
  106PNCE   C3A  963   1.273  11.515   6.952 -0.0549  0.0442 -0.1683
  106PNCE   C1B  964   0.653  11.368   7.951  0.1734  0.5568  0.0471
  106PNCE   C2B  965   0.326  11.200   7.830 -0.1558 -0.1056 -0.4032
  106PNCE   C3B  966   0.259  11.142   7.330 -0.0426 -0.3193 -0.1811
  106PNCE   D4B  967   0.357  11.341   6.911 -0.3309  0.4900 -0.0826
  106PNCE   C5B  968   0.777  11.481   6.775 -0.0103 -0.2247  0.0410
  106PNCE   C6B  969   0.884  11.641   6.395  0.3175  0.1401  0.2079
  107PNCE   AM1  970  11.776  14.894   8.467 -0.1423 -0.1270  0.1170
  107PNCE   AM2  971  11.797  15.110   8.762  0.0835 -0.1312 -0.1349
  107PNCE   T1A  972  11.607  15.189   8.091 -0.0268  0.0822  0.3642
  107PNCE   C2A  973  11.760  15.452   7.749  0.2479  0.0930  0.1502
  107PNCE   C3A  974  12.033  15.818   7.884 -0.1017 -0.0898 -0.2035
  107PNCE   C1B  975  11.506  15.440   8.508 -0.0925 -0.0601  0.0276
  107PNCE   C2B  976  11.317  15.568   8.176 -0.2176 -0.0910 -0.1446
  107PNCE   C3B  977  11.160  15.543   7.825 -0.1590  0.0034 -0.0367
  107PNCE   D4B  978  10.958  15.517   7.489 -0.2039  0.4494 -0.0623
  107PNCE   C5B  979  10.879  15.209   7.168  0.1666 -0.1729 -0.0630
  107PNCE   C6B  980  11.183  15.236   6.714  0.0336  0.0616  0.0476
  108PNCE   AM1  981  11.477   0.020   9.209  0.1641  0.4233  0.1302
  108PNCE   AM2  982  11.812   0.009   9.296  0.0993 -0.2050  0.1659
  108PNCE   T1A  983  11.833  -0.201   8.803  0.0055 -0.0173  0.2329
  108PNCE   C2A  984  12.214  -0.055   8.530 -0.0283 -0.0261  0.2784
  108PNCE   C3A  985  12.275   0.177   8.224 -0.0031 -0.2568 -0.0199
  108PNCE   C1B  986  11.853   0.317   8.911  0.1244  0.1615  0.0846
  108PNCE   C2B  987  11.854   0.391   8.417  0.1694  0.1554  0.1043
  108PNCE   C3B  988  11.944   0.469   7.918 -0.1212  0.2353  0.0719
  108PNCE   D4B  989  11.830   0.235   7.502 -0.1830  0.0698 -0.0930
  108PNCE   C5B  990  11.876  -0.126   7.382 -0.2218  0.2191 -0.0468
  108PNCE   C6B  991  11.881  -0.270   6.973 -0.1967 -0.3171 -0.3897
  109CHOL   ROH  992  14.256   5.565   7.969 -0.0852  0.1462 -0.0032
  109CHOL    R1  993  14.201   5.352   7.791  0.1074  0.0712  0.0243
  109CHOL    R2  994  14.029   5.377   7.576 -0.0320 -0.1514  0.1022
  109CHOL    R3  995  14.243   5.286   7.436  0.0266  0.1274  0.0049
  109CHOL    R4  996  14.011   5.215   7.271  0.0574 -0.0670  0.0518
  109CHOL    R5  997  14.168   5.080   7.340  0.2234  0.0788 -0.0436
  109CHOL    C1  998  14.201   5.035   6.962  0.1644  0.2440 -0.0689
  109CHOL    C2  999  14.316   4.733   7.007 -0.1465 -0.3561  0.0133
  110CHOL   ROH 1000  12.982  15.604   8.374  0.2377 -0.0389  0.0005
  110CHOL    R1 1001  13.082  15.789   8.185  0.1590 -0.0296 -0.0306
  110CHOL    R2 1002  13.016  15.778   7.917  0.0991 -0.0531 -0.0069
  110CHOL    R3 1003  12.943  16.037   7.958  0.0650 -0.0606 -0.0116
  110CHOL    R4 1004  12.916  15.996   7.668  0.1784 -0.0532 -0.0403
  110CHOL    R5 1005  13.030  16.154   7.767  0.1358 -0.0457  0.0202
  110CHOL    C1 1006  12.789  16.366   7.561  0.1927 -0.0602 -0.0643
  110CHOL    C2 1007  12.625  16.528   7.230  0.0768  0.3367  0.2249
  111PNCE   AM1 1008   4.088   7.406   9.030  0.1968 -0.0178  0.0863
  111PNCE   AM2 1009   3.778   7.380   8.763  0.0471  0.0769 -0.3146
  111PNCE   T1A 1010   4.316   7.703   8.888  0.0380  0.1286  0.1876
  111PNCE   C2A 1011   4.736   7.782   8.688 -0.2243  0.0679 -0.2134
  111PNCE   C3A 1012   5.030   7.713   8.341 -0.2709 -0.0949  0.3192
  111PNCE   C1B 1013   4.116   7.479   8.516  0.0045 -0.2427 -0.2503
  111PNCE   C2B 1014   4.336   7.842   8.350  0.0912 -0.0471 -0.0004
  111PNCE   C3B 1015   4.110   8.306   8.229  0.0514 -0.2050 -0.0279
  111PNCE   D4B 1016   3.688   8.344   8.008  0.0394  0.1444  0.2116
  111PNCE   C5B 1017   3.522   8.662   8.088 -0.1903 -0.2773 -0.0296
  111PNCE   C6B 1018   3.148   8.850   8.135 -0.1667 -0.4320  0.0787
  112CHOL   ROH 1019  14.469  15.851   8.793 -0.2524  0.1316 -0.0968
  112CHOL    R1 1020  14.434  15.690   8.563 -0.0900  0.0773 -0.0846
  112CHOL    R2 1021  14.289  15.774   8.343  0.0633  0.0256 -0.2077
  112CHOL    R3 1022  14.518  15.713   8.209  0.1588 -0.0055 -0.0334
  112CHOL    R4 1023  14.302  15.636   8.026  0.2860 -0.0395 -0.1716
  112CHOL    R5 1024  14.467  15.510   8.093  0.2378 -0.0287 -0.0283
  112CHOL    C1 1025  14.525  15.499   7.716  0.5052 -0.1068  0.0131
  112CHOL    C2 1026  14.527  15.325   7.287  0.0380 -0.1142  0.1468
  113CHOL   ROH 1027   2.604   8.707   5.615  0.4149 -0.2058  0.4100
  113CHOL    R1 1028   2.438   8.479   5.645  0.1359 -0.0434  0.1610
  113CHOL    R2 1029   2.534   8.236   5.734 -0.1543 -0.2694 -0.1117
  113CHOL    R3 1030   2.335   8.261   5.917 -0.1149 -0.2265 -0.0757
  113CHOL    R4 1031   2.379   7.972   5.895 -0.0768 -0.2257  0.0350
  113CHOL    R5 1032   2.189   8.077   5.873 -0.0964 -0.2665  0.0367
  113CHOL    C1 1033   2.102   7.843   6.162  0.0053 -0.1599  0.1542
  113CHOL    C2 1034   2.182   7.677   6.547 -0.0237  0.0836  0.3735
  114XCA    COO 1035   5.014   4.739   7.812 -0.0182 -0.0076  0.1259
  114XCA     C1 1036   5.129   4.841   7.458 -0.1065  0.0191 -0.1043
  114XCA     C2 1037   5.246   4.692   7.076  0.1506 -0.0007  0.1389
  114XCA     C3 1038   5.295   4.713   6.654  0.1951 -0.1338  0.0250
  114XCA     C4 1039   5.462   4.538   6.317 -0.3645  0.0258 -0.2425
  114XCA     C5 1040   5.753   4.269   6.144 -0.2333  0.1225  0.0569
  114XCA     C6 1041   6.145   4.106   6.166  0.4186  0.1357  0.2739
  115XCA    COO 1042   1.962   9.072   8.756  0.1646 -0.0887  0.0342
  115XCA     C1 1043   2.302   9.249   8.565  0.0675 -0.1103  0.1209
  115XCA     C2 1044   2.529   9.187   8.205  0.3380  0.0372 -0.0678
  115XCA     C3 1045   2.832   9.303   7.929 -0.1759  0.1528  0.0703
  115XCA     C4 1046   3.100   9.099   7.665  0.1249 -0.0641 -0.0483
  115XCA     C5 1047   3.141   9.138   7.203  0.1369  0.1977  0.2005
  115XCA     C6 1048   2.972   8.993   6.832 -0.0733  0.0906 -0.0744
  116XCA    COO 1049   6.901   4.260   4.445  0.3117  0.0239  0.1021
  116XCA     C1 1050   6.989   4.452   4.950  0.0174 -0.0335 -0.0381
  116XCA     C2 1051   7.017   4.723   5.364  0.1014  0.1235  0.2063
  116XCA     C3 1052   7.199   5.001   5.601 -0.0455 -0.0837  0.2886
  116XCA     C4 1053   7.079   5.130   5.878  0.0783 -0.1772 -0.0512
  116XCA     C5 1054   7.105   5.542   5.816  0.1092  0.1597  0.0331
  116XCA     C6 1055   7.403   5.811   5.769  0.0843  0.3444  0.1693
  117CHOL   ROH 1056  15.042   0.333   5.234 -0.1261  0.2407 -0.0327
  117CHOL    R1 1057  15.138   0.292   5.497 -0.1393  0.1778 -0.0374
  117CHOL    R2 1058  15.030   0.421   5.716 -0.1528  0.1225 -0.0114
  117CHOL    R3 1059  15.002   0.167   5.811 -0.1540  0.0991 -0.0746
  117CHOL    R4 1060  15.009   0.335   6.051  0.1298  0.0160 -0.0190
  117CHOL    R5 1061  15.136   0.163   6.009  0.0323 -0.0162 -0.1985
  117CHOL    C1 1062  14.972   0.047   6.334  0.2933 -0.0679 -0.0827
  117CHOL    C2 1063  15.245  -0.092   6.610 -0.1252  0.3559  0.1072
  118CHOL   ROH 1064   0.992   3.371   8.142  0.2007 -0.2814 -0.1117
  118CHOL    R1 1065   0.926   3.242   7.899 -0.0133 -0.3795 -0.0044
  118CHOL    R2 1066   1.113   3.111   7.744 -0.0690 -0.1313 -0.3009
  118CHOL    R3 1067   0.939   2.903   7.767  0.2422 -0.3699 -0.0039
  118CHOL    R4 1068   1.118   2.826   7.548 -0.0374 -0.1185 -0.3183
  118CHOL    R5 1069   0.900   2.833   7.542 -0.0618 -0.4104  0.0612
  118CHOL    C1 1070   0.958   2.466   7.456  0.2730 -0.3350 -0.0496
  118CHOL    C2 1071   0.974   2.105   7.358  0.2617  0.0582 -0.5361
  119CHOL   ROH 1072   2.765   6.924   8.113 -0.0049  0.0818  0.0487
  119CHOL    R1 1073   2.655   6.987   7.859  0.3036  0.1855 -0.0642
  119CHOL    R2 1074   2.772   6.906   7.622  0.2256 -0.3330  0.0608
  119CHOL    R3 1075   2.526   6.802   7.574 -0.0510  0.2982  0.0198
  119CHOL    R4 1076   2.661   6.792   7.315  0.0968 -0.3393  0.1095
  119CHOL    R5 1077   2.468   6.883   7.357  0.3081  0.2479 -0.0988
  119CHOL    C1 1078   2.365   6.628   7.092 -0.2379  0.2496  0.0994
  119CHOL    C2 1079   2.458   6.354   6.955  0.0641 -0.0917 -0.3353
  120PNCE   AM1 1080   5.578   8.919   8.718 -0.2624  0.0369  0.1173
  120PNCE   AM2 1081   5.449   8.675   9.028 -0.0533 -0.1917 -0.1555
  120PNCE   T1A 1082   5.484   8.842   8.271 -0.3303  0.0548  0.0710
  120PNCE   C2A 1083   5.392   8.602   7.976 -0.0674  0.0111  0.1303
  120PNCE   C3A 1084   5.611   8.427   7.733 -0.1188 -0.1712  0.2557
  120PNCE   C1B 1085   5.322   8.539   8.586  0.0871 -0.1466  0.0165
  120PNCE   C2B 1086   4.965   8.253   8.488 -0.3309 -0.2946 -0.2792
  120PNCE   C3B 1087   4.625   8.236   8.257  0.0803  0.1020 -0.2356
  120PNCE   D4B 1088   4.396   8.313   7.878 -0.3362  0.0449  0.0174
  120PNCE   C5B 1089   4.392   8.638   7.521  0.3398  0.2014 -0.1000
  120PNCE   C6B 1090   4.083   8.865   7.420  0.0137 -0.2491 -0.1830
  121CHOL   ROH 1091   3.792   7.158   6.802 -0.0283 -0.1454 -0.0785
  121CHOL    R1 1092   3.992   7.099   6.611 -0.0620 -0.0783 -0.1348
  121CHOL    R2 1093   4.019   7.240   6.375 -0.0714  0.0385 -0.0658
  121CHOL    R3 1094   4.274   7.274   6.462 -0.0544 -0.0447 -0.0824
  121CHOL    R4 1095   4.278   7.361   6.181 -0.0626  0.0198 -0.0657
  121CHOL    R5 1096   4.409   7.213   6.274 -0.0890 -0.0353 -0.1119
  121CHOL    C1 1097   4.669   7.463   6.150 -0.0415 -0.0694 -0.0811
  121CHOL    C2 1098   4.607   7.833   5.947 -0.2823  0.2305  0.1943
  122XCA    COO 1099   2.339   2.710   5.044 -0.0210  0.1599  0.3860
  122XCA     C1 1100   2.281   2.773   5.483 -0.0018 -0.1059 -0.2100
  122XCA     C2 1101   2.325   2.930   5.943 -0.0279  0.0410  0.1566
  122XCA     C3 1102   2.160   2.809   6.375 -0.0590 -0.1524 -0.1456
  122XCA     C4 1103   1.979   2.667   6.728 -0.2131 -0.1639 -0.1713
  122XCA     C5 1104   1.659   2.914   6.831  0.2094  0.2817  0.0460
  122XCA     C6 1105   1.575   3.110   7.202 -0.1711  0.1333 -0.1543
  123XCA    COO 1106  14.400   4.713   4.200  0.1306  0.0158 -0.2015
  123XCA     C1 1107  14.520   5.210   4.350  0.0033 -0.2177  0.1153
  123XCA     C2 1108  14.414   5.471   4.732 -0.0229  0.1723 -0.0328
  123XCA     C3 1109  14.393   5.638   5.181 -0.1302 -0.1740 -0.3979
  123XCA     C4 1110  14.604   5.625   5.625  0.0040  0.1739 -0.0350
  123XCA     C5 1111  14.751   5.791   5.962 -0.3402  0.2522  0.0067
  123XCA     C6 1112  14.759   5.860   6.384 -0.2927 -0.1140 -0.0188
  124PNCE   AM1 1113  12.301  15.044   8.777 -0.1652 -0.2911  0.1162
  124PNCE   AM2 1114  12.438  15.312   8.822  0.0942 -0.1593  0.2215
  124PNCE   T1A 1115  12.114  15.247   8.424 -0.5479  0.0846  0.0023
  124PNCE   C2A 1116  11.995  15.465   8.286 -0.0183  0.1596 -0.2310
  124PNCE   C3A 1117  11.764  15.785   8.309  0.1638 -0.0353  0.0459
  124PNCE   C1B 1118  12.658  15.331   8.496 -0.0580  0.1945  0.0479
  124PNCE   C2B 1119  12.597  15.687   8.180 -0.0041  0.0597 -0.3354
  124PNCE   C3B 1120  12.493  15.893   7.753  0.1230 -0.0042 -0.1238
  124PNCE   D4B 1121  12.310  16.161   7.449 -0.1794 -0.0136  0.0100
  124PNCE   C5B 1122  12.226  16.528   7.523 -0.1457 -0.1291  0.1827
  124PNCE   C6B 1123  12.469  16.772   7.648  0.2169 -0.1036  0.0336
  125CHOL   ROH 1124  15.378  14.219   7.194  0.1004  0.3198 -0.0769
  125CHOL    R1 1125  15.655  14.213   7.137  0.0975  0.1503 -0.0774
  125CHOL    R2 1126  15.831  14.045   7.268  0.0210  0.1587  0.0370
  125CHOL    R3 1127  15.895  13.967   7.016 -0.0185 -0.0471  0.0891
  125CHOL    R4 1128  16.060  13.798   7.191  0.2208  0.2908  0.1983
  125CHOL    R5 1129  16.130  13.923   7.026  0.0298  0.1863  0.0342
  125CHOL    C1 1130  16.254  13.581   6.909  0.3001  0.1745  0.3413
  125CHOL    C2 1131  16.587  13.534   6.760  0.0645 -0.0397 -0.2877
  126CHOL   ROH 1132   0.984   9.535   5.612 -0.1109 -0.0153  0.0003
  126CHOL    R1 1133   0.940   9.800   5.700 -0.0236  0.0117 -0.0353
  126CHOL    R2 1134   0.687   9.906   5.732  0.0101  0.0973 -0.0413
  126CHOL    R3 1135   0.777   9.962   5.982  0.0369  0.1028 -0.0524
  126CHOL    R4 1136   0.583  10.174   5.925 -0.0233  0.0596 -0.0067
  126CHOL    R5 1137   0.789  10.201   5.989 -0.0197  0.1050 -0.0384
  126CHOL    C1 1138   0.608  10.382   6.271 -0.0175  0.0425  0.0029
  126CHOL    C2 1139   0.472  10.382   6.657 -0.1216 -0.1196 -0.0650
  127CHOL   ROH 1140   1.262   5.320   7.993  0.1521  0.0886  0.0508
  127CHOL    R1 1141   1.190   5.475   7.768  0.1222  0.1430  0.0978
  127CHOL    R2 1142   1.375   5.565   7.584  0.0716  0.0017 -0.0222
  127CHOL    R3 1143   1.211   5.442   7.406 -0.1394  0.1261  0.0818
  127CHOL    R4 1144   1.408   5.582   7.240  0.0043 -0.2057 -0.0402
  127CHOL    R5 1145   1.191   5.598   7.225  0.0155  0.0688  0.0124
  127CHOL    C1 1146   1.273   5.475   6.873 -0.2329 -0.2097  0.0469
  127CHOL    C2 1147   1.176   5.360   6.560  0.0428 -0.0622  0.0768
  128PNCE   AM1 1148  12.816   7.185   7.872  0.0541 -0.1714 -0.0113
  128PNCE   AM2 1149  12.725   6.928   7.769  0.1237  0.1380 -0.0856
  128PNCE   T1A 1150  12.779   7.424   7.466  0.3132  0.0932  0.1368
  128PNCE   C2A 1151  13.061   7.601   7.213  0.1137  0.2044  0.2973
  128PNCE   C3A 1152  13.181   7.596   6.856  0.0967 -0.1292 -0.2396
  128PNCE   C1B 1153  12.438   6.887   7.478  0.1720  0.1872 -0.2189
  128PNCE   C2B 1154  12.312   6.937   7.085  0.0424 -0.0561  0.0418
  128PNCE   C3B 1155  12.263   7.220   6.775  0.0890  0.2443  0.2166
  128PNCE   D4B 1156  11.999   7.394   6.549  0.0824 -0.2118  0.2003
  128PNCE   C5B 1157  12.261   7.484   6.201  0.1059  0.2897 -0.2115
  128PNCE   C6B 1158  12.510   7.544   5.904 -0.1278 -0.2780  0.3875
  129PNCE   AM1 1159   6.181   6.734   8.363  0.3843  0.2209 -0.0053
  129PNCE   AM2 1160   5.979   6.552   8.155  0.0067 -0.0058 -0.4310
  129PNCE   T1A 1161   6.364   6.836   7.943 -0.2718 -0.2439 -0.1765
  129PNCE   C2A 1162   6.537   6.927   7.550  0.0900 -0.0833 -0.1005
  129PNCE   C3A 1163   6.738   6.927   7.176  0.1554  0.0995  0.2585
  129PNCE   C1B 1164   6.114   6.506   7.666  0.0225  0.1794 -0.1386
  129PNCE   C2B 1165   6.135   6.563   7.296 -0.1114  0.2122 -0.3862
  129PNCE   C3B 1166   6.267   6.679   6.906 -0.0565 -0.1275  0.2462
  129PNCE   D4B 1167   6.280   6.495   6.446 -0.2842 -0.3625 -0.0512
  129PNCE   C5B 1168   6.178   6.712   6.005  0.2320  0.0691 -0.1858
  129PNCE   C6B 1169   6.074   6.938   5.617  0.1007 -0.0760  0.0839
  130XCA    COO 1170  14.781  15.441   4.957  0.1714  0.1802 -0.2206
  130XCA     C1 1171  14.791  15.310   5.422 -0.0404  0.0237 -0.0527
  130XCA     C2 1172  14.622  15.221   5.787 -0.1618  0.0435  0.0557
  130XCA     C3 1173  14.321  15.440   6.034 -0.0282 -0.0985  0.1358
  130XCA     C4 1174  14.074  15.582   6.294  0.0711  0.3539  0.0515
  130XCA     C5 1175  13.862  15.692   6.491 -0.0966 -0.0279  0.0565
  130XCA     C6 1176  13.464  15.766   6.409  0.0566  0.0743  0.3162
  131PNCE   AM1 1177   9.259   5.546   8.728  0.0635 -0.1489  0.1982
  131PNCE   AM2 1178   9.064   5.681   8.559  0.0280  0.1820 -0.1774
  131PNCE   T1A 1179   9.250   5.335   8.332  0.0743 -0.0427 -0.0343
  131PNCE   C2A 1180   9.207   5.094   7.988  0.2310 -0.2050 -0.2380
  131PNCE   C3A 1181   8.985   4.876   7.643 -0.0391 -0.1921 -0.1968
  131PNCE   C1B 1182   8.708   5.786   8.274  0.0676 -0.0780  0.0145
  131PNCE   C2B 1183   8.503   5.790   7.844 -0.1265 -0.2105 -0.3128
  131PNCE   C3B 1184   8.605   5.586   7.564  0.0973  0.1244  0.0289
  131PNCE   D4B 1185   8.854   5.549   7.317 -0.0899 -0.0184 -0.0507
  131PNCE   C5B 1186   8.526   5.522   7.063 -0.1340 -0.1520 -0.4563
  131PNCE   C6B 1187   8.265   5.685   6.796  0.1831 -0.0022 -0.1036
  132PNCE   AM1 1188  13.726   0.512   9.076 -0.0218 -0.0471  0.1633
  132PNCE   AM2 1189  13.926   0.736   8.786  0.3433  0.0201 -0.1441
  132PNCE   T1A 1190  13.796   0.220   8.738 -0.1098 -0.0653  0.1044
  132PNCE   C2A 1191  13.801   0.071   8.309 -0.1116  0.1524  0.0631
  132PNCE   C3A 1192  13.789  -0.079   7.961 -0.2408 -0.1943 -0.3238
  132PNCE   C1B 1193  13.664   0.638   8.482  0.0754 -0.1216 -0.2323
  132PNCE   C2B 1194  13.779   0.755   8.082 -0.2965 -0.1655 -0.0220
  132PNCE   C3B 1195  13.966   0.953   7.819 -0.3057 -0.0074  0.0718
  132PNCE   D4B 1196  14.282   0.766   7.564  0.1297 -0.0098 -0.0445
  132PNCE   C5B 1197  14.215   0.799   7.179 -0.0279 -0.0614  0.0470
  132PNCE   C6B 1198  13.863   0.644   6.873 -0.0539 -0.1371 -0.1146
  133PNCE   AM1 1199   2.076   0.148   8.783  0.1581 -0.0862  0.0967
  133PNCE   AM2 1200   2.254   0.528   8.822 -0.0850  0.1035 -0.0940
  133PNCE   T1A 1201   2.183   0.113   8.381 -0.2324  0.2443  0.3340
  133PNCE   C2A 1202   2.148   0.275   8.072  0.0039  0.0697 -0.0877
  133PNCE   C3A 1203   2.178   0.641   7.961 -0.1290 -0.0816  0.0304
  133PNCE   C1B 1204   1.951   0.557   8.513  0.1007  0.0131 -0.0846
  133PNCE   C2B 1205   1.763   0.595   8.171 -0.1501 -0.1457  0.1503
  133PNCE   C3B 1206   1.650   0.820   7.810  0.0368 -0.1682 -0.2228
  133PNCE   D4B 1207   1.585   1.268   7.726 -0.1473  0.0140  0.3270
  133PNCE   C5B 1208   1.528   1.262   7.226 -0.0706 -0.0191  0.3544
  133PNCE   C6B 1209   1.558   1.081   6.826  0.0270  0.0577 -0.0571
  134CHOL   ROH 1210  14.219   4.901   4.699  0.0137 -0.0245  0.0399
  134CHOL    R1 1211  14.163   5.110   4.882  0.0052  0.0207 -0.0162
  134CHOL    R2 1212  14.001   5.075   5.103  0.0375  0.0630  0.0064
  134CHOL    R3 1213  14.216   5.173   5.236  0.0345  0.1369 -0.0387
  134CHOL    R4 1214  14.009   5.143   5.441  0.1368 -0.1294  0.0447
  134CHOL    R5 1215  14.123   5.323   5.398 -0.0052 -0.0175  0.0923
  134CHOL    C1 1216  14.217   5.274   5.764  0.1918 -0.1721  0.0247
  134CHOL    C2 1217  13.964   5.232   6.016 -0.1138 -0.5464  0.1996
  135CHOL   ROH 1218  11.559   4.393   5.358  0.0032 -0.0476  0.0182
  135CHOL    R1 1219  11.457   4.335   5.615  0.0348  0.0297  0.0489
  135CHOL    R2 1220  11.368   4.083   5.686 -0.0187  0.0649  0.1155
  135CHOL    R3 1221  11.545   4.113   5.890  0.0282  0.0606  0.0752
  135CHOL    R4 1222  11.345   3.925   5.993  0.1000 -0.0011  0.0906
  135CHOL    R5 1223  11.410   4.110   6.087  0.0843 -0.0090  0.1107
  135CHOL    C1 1224  11.499   3.861   6.362  0.2132 -0.0436  0.0383
  135CHOL    C2 1225  11.556   4.044   6.602 -0.0868  0.3852 -0.0154
  136CHOL   ROH 1226   5.642  10.453   5.422 -0.0620  0.0073 -0.1720
  136CHOL    R1 1227   5.740  10.219   5.548  0.1645  0.0563 -0.2510
  136CHOL    R2 1228   6.002  10.193   5.630  0.1586  0.3450 -0.1115
  136CHOL    R3 1229   5.887  10.134   5.869  0.0848  0.0652 -0.2138
  136CHOL    R4 1230   6.172  10.077   5.908  0.1357  0.4539 -0.0521
  136CHOL    R5 1231   6.007   9.941   5.946  0.3057  0.1992 -0.2266
  136CHOL    C1 1232   6.163   9.954   6.294  0.0531  0.2547 -0.1135
  136CHOL    C2 1233   6.375  10.254   6.437 -0.2366  0.2045  0.1039
  137XCA    COO 1234   2.882  10.083   7.914  0.0965 -0.0653 -0.2041
  137XCA     C1 1235   3.134   9.763   8.044 -0.1490 -0.2507 -0.0531
  137XCA     C2 1236   3.455   9.520   8.117  0.2844 -0.2985  0.0973
  137XCA     C3 1237   3.564   9.150   7.880  0.1635 -0.0955 -0.2059
  137XCA     C4 1238   3.453   8.799   7.567 -0.0046  0.3165 -0.0535
  137XCA     C5 1239   3.212   8.555   7.330  0.1943  0.1320 -0.2606
  137XCA     C6 1240   2.880   8.198   7.102  0.0460  0.1371  0.1551
  138CHOL   ROH 1241   8.018   6.628   8.094  0.1191  0.2257  0.2487
  138CHOL    R1 1242   7.926   6.706   7.838  0.1997  0.2085  0.2132
  138CHOL    R2 1243   8.097   6.776   7.633  0.2765 -0.0630  0.1764
  138CHOL    R3 1244   7.960   6.585   7.497  0.0740  0.0156  0.2686
  138CHOL    R4 1245   8.066   6.763   7.289  0.2632 -0.2018  0.1831
  138CHOL    R5 1246   7.857   6.703   7.315  0.2011  0.0327  0.2108
  138CHOL    C1 1247   7.918   6.576   6.961  0.0653 -0.2088  0.2736
  138CHOL    C2 1248   7.704   6.505   6.713  0.0853 -0.0489 -0.3087
  139PNCE   AM1 1249  14.528  13.300   8.885 -0.2223  0.1241  0.0397
  139PNCE   AM2 1250  14.643  13.478   8.601 -0.2384 -0.0235  0.0566
  139PNCE   T1A 1251  14.783  12.947   8.810  0.1973  0.2317  0.4247
  139PNCE   C2A 1252  15.061  12.822   8.410 -0.0388 -0.1121 -0.2433
  139PNCE   C3A 1253  15.539  12.708   8.528  0.2311  0.0976 -0.1055
  139PNCE   C1B 1254  14.962  13.413   8.250  0.1885  0.1072  0.3131
  139PNCE   C2B 1255  15.068  13.184   7.850  0.0317  0.2192  0.1088
  139PNCE   C3B 1256  15.264  13.144   7.440 -0.0147 -0.1609  0.2540
  139PNCE   D4B 1257  15.392  13.237   7.032  0.1614 -0.2312  0.2193
  139PNCE   C5B 1258  15.529  13.655   6.934  0.0416  0.0846  0.0892
  139PNCE   C6B 1259  15.550  14.118   6.722  0.2279 -0.1424  0.1676
  140PNCE   AM1 1260   4.315   4.338   8.394 -0.1749 -0.1815 -0.0831
  140PNCE   AM2 1261   4.349   4.664   8.286  0.1740  0.0913  0.0963
  140PNCE   T1A 1262   4.081   4.053   8.126  0.3510 -0.2111  0.0060
  140PNCE   C2A 1263   3.910   3.902   7.789  0.2245  0.0529 -0.2018
  140PNCE   C3A 1264   3.925   3.511   7.415 -0.1835  0.0168 -0.1684
  140PNCE   C1B 1265   4.350   4.458   7.855  0.1263 -0.0203  0.1302
  140PNCE   C2B 1266   4.327   4.378   7.450  0.0336  0.3217  0.1775
  140PNCE   C3B 1267   4.116   4.147   7.192 -0.1521 -0.5063 -0.0294
  140PNCE   D4B 1268   4.124   3.799   7.030 -0.1170  0.1288 -0.1993
  140PNCE   C5B 1269   4.422   3.537   7.051  0.2705 -0.0083 -0.4149
  140PNCE   C6B 1270   4.808   3.379   7.275 -0.0724 -0.1772 -0.1151
  141CHOL   ROH 1271  13.273   5.960   6.424  0.1672  0.0173  0.2064
  141CHOL    R1 1272  13.240   5.747   6.241  0.0095 -0.0485  0.3098
  141CHOL    R2 1273  13.014   5.587   6.237 -0.2247  0.2791  0.2222
  141CHOL    R3 1274  13.007   5.660   5.975  0.1018  0.1327  0.1669
  141CHOL    R4 1275  12.837   5.422   5.990 -0.1750  0.3208  0.1578
  141CHOL    R5 1276  13.005   5.453   5.855 -0.0091  0.0574  0.2925
  141CHOL    C1 1277  12.728   5.395   5.600  0.1603  0.2076  0.0684
  141CHOL    C2 1278  12.751   5.054   5.355 -0.0455  0.2239  0.1877
  142CHOL   ROH 1279   6.306  14.488   5.150  0.1374  0.0759  0.0966
  142CHOL    R1 1280   6.455  14.352   5.348  0.1977  0.0081  0.0042
  142CHOL    R2 1281   6.475  14.443   5.608  0.2208 -0.1177  0.0431
  142CHOL    R3 1282   6.386  14.193   5.668  0.2854 -0.1674 -0.0613
  142CHOL    R4 1283   6.510  14.291   5.916 -0.0543 -0.0895  0.0911
  142CHOL    R5 1284   6.555  14.104   5.813  0.1721 -0.0701  0.1408
  142CHOL    C1 1285   6.447  13.967   6.152 -0.1539 -0.1197  0.0211
  142CHOL    C2 1286   6.152  13.711   6.346 -0.3044  0.2011  0.1349
  143CHOL   ROH 1287   4.130  15.815   5.445 -0.0255  0.2017  0.0906
  143CHOL    R1 1288   4.120  15.968   5.683 -0.0221  0.1586  0.1185
  143CHOL    R2 1289   3.890  15.994   5.834 -0.0327  0.1713  0.1001
  143CHOL    R3 1290   4.051  15.905   6.035 -0.0688  0.1048  0.0998
  143CHOL    R4 1291   3.792  15.955   6.163  0.0046  0.4016  0.1400
  143CHOL    R5 1292   3.985  16.035   6.225  0.0952  0.2479  0.0615
  143CHOL    C1 1293   3.886  15.849   6.543 -0.0077  0.4733  0.1630
  143CHOL    C2 1294   3.505  15.761   6.772 -0.3358  0.0278 -0.3243
  144PNCE   AM1 1295   3.789   6.468   8.228 -0.3003  0.1355  0.0394
  144PNCE   AM2 1296   4.023   6.215   8.194  0.3063  0.0453  0.2994
  144PNCE   T1A 1297   3.820   6.783   7.973  0.1960 -0.1460  0.0176
  144PNCE   C2A 1298   3.719   6.999   7.670  0.0123  0.0186  0.3794
  144PNCE   C3A 1299   3.773   7.037   7.258 -0.0382  0.1796 -0.0468
  144PNCE   C1B 1300   4.042   6.227   7.678 -0.0871 -0.2544  0.0398
  144PNCE   C2B 1301   4.156   6.260   7.147  0.0551 -0.2665  0.2820
  144PNCE   C3B 1302   4.262   6.034   6.764 -0.2720  0.1172 -0.1214
  144PNCE   D4B 1303   4.104   5.867   6.551  0.0828  0.2455  0.1160
  144PNCE   C5B 1304   4.338   5.545   6.460 -0.0894 -0.4115 -0.3188
  144PNCE   C6B 1305   4.580   5.427   6.147 -0.0926 -0.0710  0.1699
  145PNCE   AM1 1306  10.120   6.726   8.631  0.2571 -0.0816 -0.1067
  145PNCE   AM2 1307  10.229   6.474   8.664  0.0368 -0.2169 -0.3253
  145PNCE   T1A 1308  10.050   6.619   8.120 -0.0282 -0.1448 -0.1621
  145PNCE   C2A 1309  10.150   6.788   7.781 -0.0986 -0.0224 -0.2582
  145PNCE   C3A 1310  10.266   6.878   7.374  0.1612  0.0669  0.0985
  145PNCE   C1B 1311  10.254   6.165   8.349  0.0004 -0.0561 -0.2825
  145PNCE   C2B 1312  10.090   5.816   8.272  0.1998 -0.4443 -0.0172
  145PNCE   C3B 1313   9.913   5.481   7.962  0.0002  0.0280 -0.3628
  145PNCE   D4B 1314   9.883   5.034   7.784  0.2264 -0.0056 -0.1503
  145PNCE   C5B 1315   9.798   5.114   7.365  0.0821 -0.1390  0.0610
  145PNCE   C6B 1316   9.706   4.987   6.933  0.0369  0.0180  0.1316
  146CHOL   ROH 1317   0.913  10.522   6.945 -0.1711 -0.1231 -0.3456
  146CHOL    R1 1318   1.130  10.667   6.836 -0.1772 -0.0040 -0.2019
  146CHOL    R2 1319   1.324  10.549   6.679 -0.0519  0.1181 -0.1391
  146CHOL    R3 1320   1.256  10.744   6.503 -0.0459  0.1363 -0.1212
  146CHOL    R4 1321   1.527  10.665   6.425 -0.0834  0.0648 -0.1889
  146CHOL    R5 1322   1.459  10.867   6.469 -0.0208  0.0837 -0.1706
  146CHOL    C1 1323   1.581  10.917   6.112 -0.0962  0.0509 -0.2012
  146CHOL    C2 1324   1.883  11.145   5.877 -0.1134  0.4647 -0.1177
  147XCA    COO 1325   2.615   5.869   8.493  0.2407  0.0262 -0.2177
  147XCA     C1 1326   2.348   5.686   8.191 -0.1772  0.1410  0.3393
  147XCA     C2 1327   2.220   5.780   7.683 -0.1465  0.3216 -0.0997
  147XCA     C3 1328   2.300   5.637   7.312  0.1215  0.0784 -0.0264
  147XCA     C4 1329   2.250   5.475   6.956 -0.0359  0.0832 -0.1484
  147XCA     C5 1330   2.327   5.465   6.504  0.2475 -0.1117 -0.0474
  147XCA     C6 1331   2.586   5.679   6.139 -0.0795 -0.1978 -0.0455
  148PNCE   AM1 1332  15.447   8.511   7.635 -0.2274  0.1004  0.0212
  148PNCE   AM2 1333  15.397   8.303   7.543 -0.0683  0.0830 -0.0387
  148PNCE   T1A 1334  15.660   8.619   7.208 -0.0973  0.0487  0.1039
  148PNCE   C2A 1335  15.984   8.464   6.935 -0.1644 -0.0535 -0.2931
  148PNCE   C3A 1336  16.435   8.436   6.822 -0.2334 -0.0248  0.0010
  148PNCE   C1B 1337  15.046   8.353   7.150  0.0585 -0.0852  0.2808
  148PNCE   C2B 1338  14.759   8.637   7.017  0.1208  0.0029  0.1462
  148PNCE   C3B 1339  14.590   8.801   6.619  0.1669  0.0001 -0.0682
  148PNCE   D4B 1340  14.514   8.886   6.230  0.2780 -0.1079 -0.0199
  148PNCE   C5B 1341  14.187   8.582   6.048 -0.0022 -0.0561  0.3220
  148PNCE   C6B 1342  14.100   8.266   5.830 -0.2563  0.1544 -0.3061
  149PNCE   AM1 1343   1.530   9.687   8.097 -0.1095 -0.0809 -0.1834
  149PNCE   AM2 1344   1.811   9.510   8.064  0.0430  0.0392  0.3292
  149PNCE   T1A 1345   1.495   9.748   7.632 -0.0786 -0.0498 -0.3679
  149PNCE   C2A 1346   1.383   9.369   7.355 -0.2582 -0.1868  0.2614
  149PNCE   C3A 1347   1.344   9.223   6.850  0.1197  0.0454  0.0006
  149PNCE   C1B 1348   1.855   9.404   7.528 -0.1755 -0.1603 -0.0867
  149PNCE   C2B 1349   1.784   9.241   7.081  0.0649  0.3058 -0.2695
  149PNCE   C3B 1350   1.814   9.136   6.619  0.2281 -0.3052  0.1496
  149PNCE   D4B 1351   2.141   8.948   6.465  0.4751  0.2948 -0.0105
  149PNCE   C5B 1352   2.545   8.723   6.622  0.4508  0.1096 -0.1382
  149PNCE   C6B 1353   2.866   8.482   6.693  0.0245 -0.0173 -0.0523
  150XCA    COO 1354   7.933  12.779   5.156  0.0255 -0.1108  0.0467
  150XCA     C1 1355   8.101  12.755   5.582  0.0026  0.3597  0.0237
  150XCA     C2 1356   7.966  12.607   5.958 -0.2773 -0.2008  0.0462
  150XCA     C3 1357   7.975  12.912   6.366  0.3884  0.2828 -0.0760
  150XCA     C4 1358   7.840  12.758   6.806 -0.1369  0.1147 -0.0772
  150XCA     C5 1359   7.543  12.860   7.085  0.0790  0.0495 -0.0224
  150XCA     C6 1360   7.499  13.041   7.445 -0.3029  0.0072 -0.1175
  151PNCE   AM1 1361   6.208   1.906   9.091  0.1728 -0.4222  0.0974
  151PNCE   AM2 1362   5.892   2.082   9.078 -0.2136 -0.1464 -0.2812
  151PNCE   T1A 1363   6.457   1.719   8.859  0.1839 -0.0307 -0.0057
  151PNCE   C2A 1364   6.761   1.666   8.666  0.2355  0.1340 -0.0040
  151PNCE   C3A 1365   6.875   1.768   8.277 -0.2586 -0.3269 -0.1055
  151PNCE   C1B 1366   6.230   2.249   8.713  0.3834 -0.0861 -0.1466
  151PNCE   C2B 1367   6.576   2.127   8.502  0.2714 -0.2842  0.2385
  151PNCE   C3B 1368   6.695   2.190   8.093 -0.1661 -0.2871  0.0681
  151PNCE   D4B 1369   6.712   1.881   7.838  0.0835 -0.3688 -0.0263
  151PNCE   C5B 1370   6.664   1.931   7.437  0.3297  0.0366 -0.1176
  151PNCE   C6B 1371   6.439   1.995   7.144 -0.2033  0.2089 -0.1860
  152PNCE   AM1 1372  14.481  12.497   5.306  0.2018  0.0322 -0.1039
  152PNCE   AM2 1373  14.097  12.384   5.168  0.0469 -0.0052  0.4195
  152PNCE   T1A 1374  14.604  12.836   5.565  0.1715  0.0030  0.1191
  152PNCE   C2A 1375  14.692  12.990   5.953  0.2444  0.2136 -0.0693
  152PNCE   C3A 1376  14.611  13.310   6.028 -0.0700 -0.0163 -0.2156
  152PNCE   C1B 1377  14.211  12.272   5.639 -0.2045  0.0877  0.0700
  152PNCE   C2B 1378  14.421  12.176   6.118 -0.3240  0.1200 -0.0345
  152PNCE   C3B 1379  14.749  12.288   6.419 -0.3781 -0.0260  0.1860
  152PNCE   D4B 1380  15.034  11.992   6.552 -0.4951 -0.1336 -0.0654
  152PNCE   C5B 1381  14.908  11.796   7.079 -0.1447  0.0419  0.0925
  152PNCE   C6B 1382  14.545  11.638   7.300 -0.0699 -0.0822  0.0985
  153XCA    COO 1383   9.990   6.471   4.874 -0.1580 -0.0523 -0.1262
  153XCA     C1 1384   9.703   6.498   5.138  0.0151  0.1174  0.1773
  153XCA     C2 1385   9.544   6.654   5.436 -0.0005  0.2340  0.0104
  153XCA     C3 1386   9.464   6.761   5.931  0.3566 -0.1062  0.3203
  153XCA     C4 1387   9.520   7.267   6.152 -0.2417  0.2868 -0.0813
  153XCA     C5 1388   9.587   7.696   6.360  0.1900 -0.1243  0.1611
  153XCA     C6 1389   9.680   8.124   6.491  0.0631 -0.0876 -0.1192
  154CHOL   ROH 1390   5.077   2.671   5.948 -0.1063  0.1188  0.2077
  154CHOL    R1 1391   4.912   2.453   6.021  0.0092 -0.0105  0.0851
  154CHOL    R2 1392   4.997   2.190   6.004  0.2727  0.0613  0.2641
  154CHOL    R3 1393   4.923   2.183   6.265 -0.0245  0.0760  0.1835
  154CHOL    R4 1394   4.857   1.917   6.163  0.3685 -0.0333  0.1882
  154CHOL    R5 1395   4.722   2.053   6.267  0.1027 -0.1327 -0.0101
  154CHOL    C1 1396   4.705   1.752   6.501  0.1453 -0.0747  0.0683
  154CHOL    C2 1397   4.513   1.660   6.868  0.1680  0.3679 -0.1561
  155PNCE   AM1 1398  11.445   4.638   8.808  0.2284 -0.1955 -0.1295
  155PNCE   AM2 1399  11.392   4.324   8.773 -0.0962  0.0284  0.2367
  155PNCE   T1A 1400  11.754   4.622   8.460  0.3267 -0.2453 -0.2065
  155PNCE   C2A 1401  12.008   4.665   8.226 -0.0974 -0.0660  0.1692
  155PNCE   C3A 1402  12.285   4.688   7.840  0.2040 -0.3349  0.2614
  155PNCE   C1B 1403  11.311   4.160   8.416 -0.0169 -0.0886  0.2417
  155PNCE   C2B 1404  11.461   4.042   8.014 -0.1043  0.1115  0.0361
  155PNCE   C3B 1405  11.189   3.933   7.655 -0.2251 -0.1921  0.0341
  155PNCE   D4B 1406  11.240   3.635   7.341  0.1942 -0.0828 -0.2320
  155PNCE   C5B 1407  10.965   3.455   7.016  0.0857 -0.1164  0.1549
  155PNCE   C6B 1408  10.821   3.168   6.762 -0.0866 -0.1825 -0.2693
  156PNCE   AM1 1409   5.012   1.686   8.983  0.0440  0.0292  0.2213
  156PNCE   AM2 1410   5.045   1.409   8.743  0.4200  0.1802 -0.3203
  156PNCE   T1A 1411   4.611   1.885   8.713  0.0153  0.1400  0.1448
  156PNCE   C2A 1412   4.386   1.983   8.348  0.1154 -0.1221 -0.1652
  156PNCE   C3A 1413   3.946   2.199   8.420 -0.0186  0.2192  0.0906
  156PNCE   C1B 1414   4.702   1.233   8.620  0.1770  0.2937 -0.2780
  156PNCE   C2B 1415   4.678   1.209   8.228 -0.0122 -0.2807  0.0901
  156PNCE   C3B 1416   4.533   1.540   7.975 -0.2169 -0.0685  0.0242
  156PNCE   D4B 1417   4.361   1.528   7.558  0.4830 -0.0917 -0.0051
  156PNCE   C5B 1418   4.344   2.009   7.360  0.3270 -0.0131  0.1057
  156PNCE   C6B 1419   4.144   2.385   7.045 -0.2658 -0.1076  0.1135
  157CHOL   ROH 1420  12.359  12.859   8.502  0.1818  0.1320 -0.0372
  157CHOL    R1 1421  12.346  12.806   8.224  0.2382 -0.0137 -0.0139
  157CHOL    R2 1422  12.324  12.549   8.123  0.0634 -0.0610  0.1201
  157CHOL    R3 1423  12.107  12.653   7.996  0.1924  0.0526 -0.0072
  157CHOL    R4 1424  12.197  12.435   7.822  0.1009 -0.0587  0.1044
  157CHOL    R5 1425  12.163  12.642   7.763  0.2751 -0.0601  0.0233
  157CHOL    C1 1426  11.920  12.467   7.528  0.2438  0.0492 -0.0243
  157CHOL    C2 1427  11.699  12.324   7.442  0.1978 -0.2513  0.1127
  158XCA    COO 1428  13.069  13.590   8.827 -0.0373  0.0683 -0.0147
  158XCA     C1 1429  13.459  13.669   8.571  0.0777  0.2143  0.0591
  158XCA     C2 1430  13.878  13.708   8.419 -0.0094  0.1639  0.4336
  158XCA     C3 1431  14.298  13.663   8.203 -0.0839  0.0235 -0.0568
  158XCA     C4 1432  14.733  13.740   7.982 -0.1796 -0.0073 -0.0066
  158XCA     C5 1433  14.743  13.704   7.636  0.0783 -0.1946 -0.0607
  158XCA     C6 1434  14.743  13.178   7.408 -0.0002 -0.1394 -0.2223
  159PNCE   AM1 1435  11.887  12.819   8.390 -0.1689  0.1277  0.3787
  159PNCE   AM2 1436  11.660  12.994   8.458 -0.1528 -0.1774 -0.0103
  159PNCE   T1A 1437  11.979  13.088   8.044 -0.1269 -0.1924  0.0177
  159PNCE   C2A 1438  11.874  13.234   7.644  0.1541 -0.1227 -0.4841
  159PNCE   C3A 1439  11.938  13.328   7.231 -0.3767  0.0213  0.0019
  159PNCE   C1B 1440  11.514  13.215   8.081  0.4298  0.0545 -0.0059
  159PNCE   C2B 1441  11.604  13.555   7.917  0.1164  0.1931  0.1019
  159PNCE   C3B 1442  11.767  13.908   7.605  0.3856 -0.1359 -0.3595
  159PNCE   D4B 1443  11.961  14.078   7.336  0.0927  0.1373 -0.1320
  159PNCE   C5B 1444  11.999  13.835   7.051 -0.0360 -0.0449 -0.3447
  159PNCE   C6B 1445  11.877  13.759   6.633  0.2020 -0.2307 -0.0044
  160XCA    COO 1446   0.993   0.129   9.107  0.4336  0.1245 -0.0891
  160XCA     C1 1447   1.009   0.243   8.651  0.0043  0.0120 -0.0684
  160XCA     C2 1448   0.742   0.541   8.406  0.0642 -0.1812  0.1145
  160XCA     C3 1449   0.461   0.750   8.133  0.0818  0.2937  0.2250
  160XCA     C4 1450   0.673   0.784   7.662  0.0783 -0.0573 -0.4611
  160XCA     C5 1451   0.906   0.774   7.276 -0.0378 -0.1547  0.0394
  160XCA     C6 1452   0.870   0.363   7.097  0.2086  0.0543 -0.0460
  161CHOL   ROH 1453   4.285   5.300   4.516  0.1307 -0.0882 -0.0667
  161CHOL    R1 1454   4.506   5.288   4.692  0.0663 -0.0255  0.0196
  161CHOL    R2 1455   4.508   5.415   4.937 -0.0176  0.0762 -0.0318
  161CHOL    R3 1456   4.570   5.167   5.029 -0.0616  0.1116  0.0946
  161CHOL    R4 1457   4.743   5.348   5.181 -0.0139  0.1606 -0.0122
  161CHOL    R5 1458   4.806   5.174   5.066 -0.0567  0.0853  0.0738
  161CHOL    C1 1459   4.938   5.076   5.410 -0.0532  0.2429  0.1179
  161CHOL    C2 1460   5.265   4.899   5.465 -0.1481 -0.0570 -0.0635
  162CHOL   ROH 1461  10.532  11.653   4.982 -0.0333  0.0358 -0.0464
  162CHOL    R1 1462  10.672  11.480   5.158  0.1045  0.1245 -0.0663
  162CHOL    R2 1463  10.877  11.568   5.321 -0.0754  0.3074  0.0713
  162CHOL    R3 1464  10.726  11.456   5.517 -0.0311  0.0234 -0.0525
  162CHOL    R4 1465  10.963  11.559   5.655 -0.1720  0.1479  0.0926
  162CHOL    R5 1466  10.886  11.356   5.665  0.0164  0.0674 -0.0766
  162CHOL    C1 1467  10.871  11.449   6.035 -0.1868 -0.2116 -0.0113
  162CHOL    C2 1468  11.050  11.274   6.413  0.2150 -0.1216 -0.2559
  163CHOL   ROH 1469  13.995  15.237   6.667  0.1273 -0.0267  0.0218
  163CHOL    R1 1470  14.262  15.147   6.649  0.1154 -0.0574 -0.0061
  163CHOL    R2 1471  14.467  15.258   6.797  0.1206 -0.1706  0.0743
  163CHOL    R3 1472  14.508  15.001   6.875  0.0747 -0.2210 -0.0659
  163CHOL    R4 1473  14.772  15.096   6.789  0.0846 -0.2324 -0.0499
  163CHOL    R5 1474  14.669  14.917   6.719  0.0366 -0.1739 -0.1313
  163CHOL    C1 1475  14.988  14.760   6.857  0.0206 -0.3158 -0.2540
  163CHOL    C2 1476  15.183  14.445   6.750  0.0196  0.2259 -0.1770
  164CHOL   ROH 1477   9.115  14.166   8.704  0.1242  0.3854 -0.1687
  164CHOL    R1 1478   9.224  14.132   8.445  0.1332  0.2296 -0.1453
  164CHOL    R2 1479   9.129  13.942   8.268  0.1612  0.0992 -0.0239
  164CHOL    R3 1480   9.103  14.156   8.103  0.1349 -0.0113 -0.1644
  164CHOL    R4 1481   9.122  13.925   7.923  0.0583 -0.1347 -0.0121
  164CHOL    R5 1482   9.245  14.105   7.917  0.0743 -0.1516 -0.1720
  164CHOL    C1 1483   9.094  14.115   7.567 -0.0264 -0.3745 -0.1371
  164CHOL    C2 1484   8.846  14.262   7.315 -0.2055 -0.1027  0.4573
  165CHOL   ROH 1485  14.085   3.585   8.236  0.0234 -0.0989  0.0294
  165CHOL    R1 1486  13.879   3.440   8.106  0.0690 -0.1659  0.0317
  165CHOL    R2 1487  13.856   3.426   7.831  0.0228 -0.1038  0.0334
  165CHOL    R3 1488  13.857   3.158   7.877  0.1617 -0.1167 -0.0386
  165CHOL    R4 1489  13.746   3.187   7.607  0.1239 -0.0980 -0.0235
  165CHOL    R5 1490  13.656   3.080   7.774  0.1911 -0.1894 -0.0435
  165CHOL    C1 1491  13.683   2.797   7.520  0.3133 -0.1067 -0.1243
  165CHOL    C2 1492  13.695   2.868   7.255 -0.1410  0.3090  0.1175
  166CHOL   ROH 1493   9.162  12.676   6.474 -0.1797  0.0383 -0.0279
  166CHOL    R1 1494   9.442  12.696   6.435 -0.1926  0.1386 -0.0660
  166CHOL    R2 1495   9.616  12.489   6.493 -0.1045  0.2308 -0.0161
  166CHOL    R3 1496   9.694  12.525   6.235 -0.1431  0.1743 -0.0367
  166CHOL    R4 1497   9.899  12.352   6.350 -0.2069  0.0668 -0.0658
  166CHOL    R5 1498   9.932  12.540   6.246 -0.1289  0.0475 -0.0862
  166CHOL    C1 1499  10.137  12.306   6.024 -0.3027 -0.0816 -0.1141
  166CHOL    C2 1500  10.140  12.190   5.612  0.2652 -0.0776  0.4780
  167PNCE   AM1 1501  11.073   1.042   8.802  0.2418  0.0135  0.2327
  167PNCE   AM2 1502  11.187   1.404   9.044 -0.1039  0.1404 -0.1946
  167PNCE   T1A 1503  11.187   1.414   8.502  0.1401 -0.0438 -0.2995
  167PNCE   C2A 1504  11.451   1.745   8.306  0.0869 -0.0699  0.1215
  167PNCE   C3A 1505  11.434   1.747   7.942  0.2154 -0.1033 -0.2921
  167PNCE   C1B 1506  11.547   1.659   8.798  0.4685  0.2252  0.0134
  167PNCE   C2B 1507  11.932   1.872   8.806  0.1483  0.1225 -0.3259
  167PNCE   C3B 1508  12.271   1.716   8.951 -0.1440 -0.1379 -0.0779
  167PNCE   D4B 1509  12.601   1.508   8.776 -0.0243 -0.1645 -0.2003
  167PNCE   C5B 1510  12.442   1.329   8.436 -0.2707 -0.2073  0.5398
  167PNCE   C6B 1511  12.242   1.362   8.047  0.0535 -0.1118  0.0054
  168CHOL   ROH 1512   4.387   8.373   5.860 -0.2808  0.0782 -0.0729
  168CHOL    R1 1513   4.264   8.571   6.020 -0.1425  0.1496 -0.0540
  168CHOL    R2 1514   4.331   8.612   6.285 -0.0944  0.0954 -0.0584
  168CHOL    R3 1515   4.371   8.868   6.201  0.0599  0.0757 -0.0496
  168CHOL    R4 1516   4.331   8.889   6.491 -0.0545  0.1009 -0.0654
  168CHOL    R5 1517   4.222   8.998   6.337  0.0610  0.1480 -0.1161
  168CHOL    C1 1518   4.368   9.291   6.533  0.1135  0.0855 -0.0612
  168CHOL    C2 1519   4.260   9.725   6.460 -0.1047 -0.1970  0.0021
  169XCA    COO 1520  15.291  10.969   4.539  0.1275  0.0778  0.0191
  169XCA     C1 1521  15.499  10.637   4.735  0.3335 -0.0168 -0.2365
  169XCA     C2 1522  15.594  10.199   4.875 -0.1600  0.0003 -0.1554
  169XCA     C3 1523  15.395   9.974   5.104 -0.1608  0.0188 -0.1766
  169XCA     C4 1524  15.216   9.973   5.483  0.0354  0.1972 -0.2152
  169XCA     C5 1525  14.826   9.893   5.269 -0.0240  0.0888 -0.0542
  169XCA     C6 1526  14.650  10.296   5.286  0.2809 -0.1407  0.0350
  170CHOL   ROH 1527  14.533  13.041   6.908  0.0219 -0.0148  0.2919
  170CHOL    R1 1528  14.417  12.997   7.162 -0.0290  0.0816  0.2870
  170CHOL    R2 1529  14.265  13.189   7.291 -0.1612  0.0905  0.1332
  170CHOL    R3 1530  14.081  12.989   7.301 -0.0646  0.0055  0.1928
  170CHOL    R4 1531  13.991  13.182   7.502 -0.0894 -0.0516  0.2222
  170CHOL    R5 1532  14.026  12.969   7.533  0.0193 -0.0298  0.2053
  170CHOL    C1 1533  13.659  12.990   7.633  0.0429 -0.2140  0.3299
  170CHOL    C2 1534  13.495  12.662   7.700 -0.1939 -0.1105 -0.3060
  171XCA    COO 1535   9.200   5.289   4.382 -0.0061 -0.1647  0.1682
  171XCA     C1 1536   8.898   5.410   4.758 -0.0322 -0.1743 -0.0211
  171XCA     C2 1537   8.633   5.479   5.140 -0.0146  0.2938  0.0049
  171XCA     C3 1538   8.460   5.608   5.536 -0.2047  0.1133 -0.1834
  171XCA     C4 1539   8.223   5.797   5.958 -0.2954 -0.0514  0.1913
  171XCA     C5 1540   8.069   6.082   6.281  0.0665  0.1189 -0.3525
  171XCA     C6 1541   8.092   6.150   6.685  0.3543  0.1831 -0.2718
  172PNCE   AM1 1542  13.525   4.470   8.983 -0.3359 -0.2684  0.4188
  172PNCE   AM2 1543  13.728   4.676   8.701  0.2615  0.0810 -0.2868
  172PNCE   T1A 1544  13.637   4.193   8.644 -0.1137 -0.0037  0.0397
  172PNCE   C2A 1545  13.728   3.927   8.374  0.1164 -0.1859 -0.1671
  172PNCE   C3A 1546  13.557   3.840   7.991  0.1385  0.0259  0.0379
  172PNCE   C1B 1547  13.617   4.734   8.355  0.1197 -0.3368 -0.0614
  172PNCE   C2B 1548  13.474   4.414   8.026 -0.1569  0.1108 -0.1994
  172PNCE   C3B 1549  13.517   4.228   7.571 -0.2841  0.0789 -0.1956
  172PNCE   D4B 1550  13.550   4.394   7.222  0.3879 -0.2530  0.1655
  172PNCE   C5B 1551  13.986   4.258   6.931 -0.0349  0.1696  0.0852
  172PNCE   C6B 1552  14.372   4.217   7.159 -0.0501  0.0517  0.1353
  173PNCE   AM1 1553   5.379  10.451   8.734 -0.1146  0.0023  0.0224
  173PNCE   AM2 1554   5.448  10.730   8.624  0.1121 -0.1140 -0.2456
  173PNCE   T1A 1555   5.179  10.429   8.296  0.3556 -0.3720  0.0606
  173PNCE   C2A 1556   5.117  10.242   7.900 -0.2064  0.1593 -0.1329
  173PNCE   C3A 1557   4.963  10.368   7.513 -0.6464 -0.2879 -0.0724
  173PNCE   C1B 1558   5.700  10.511   8.329 -0.1718 -0.1626  0.0241
  173PNCE   C2B 1559   5.961  10.648   8.044  0.0528 -0.0360  0.1363
  173PNCE   C3B 1560   6.116  10.738   7.634 -0.2140 -0.2234  0.0170
  173PNCE   D4B 1561   6.138  10.911   7.256 -0.2983 -0.1016  0.3201
  173PNCE   C5B 1562   6.011  10.950   6.916  0.1124  0.0757  0.1042
  173PNCE   C6B 1563   5.966  11.239   6.584 -0.0585  0.0260  0.0270
  174CHOL   ROH 1564   4.062   9.414   8.653  0.0800  0.1158 -0.1365
  174CHOL    R1 1565   3.958   9.245   8.452  0.1074  0.1224 -0.1580
  174CHOL    R2 1566   4.049   9.251   8.191  0.1194  0.1572 -0.1596
  174CHOL    R3 1567   4.086   8.985   8.232  0.1501  0.1605 -0.1749
  174CHOL    R4 1568   3.996   9.005   7.953 -0.1291  0.1308 -0.0788
  174CHOL    R5 1569   3.909   8.880   8.109  0.0262  0.1520  0.0175
  174CHOL    C1 1570   4.001   8.612   7.854 -0.2450  0.1185 -0.0461
  174CHOL    C2 1571   3.857   8.423   7.502 -0.0667 -0.0624 -0.1980
  175XCA    COO 1572   9.715   7.872   3.937  0.1636  0.0333  0.1532
  175XCA     C1 1573   9.519   7.655   4.362  0.0134 -0.1973 -0.3238
  175XCA     C2 1574   9.556   7.589   4.792 -0.0603  0.0691 -0.0774
  175XCA     C3 1575   9.542   7.616   5.241 -0.0559  0.1680  0.1477
  175XCA     C4 1576   9.616   7.994   5.543 -0.2250  0.1724 -0.4400
  175XCA     C5 1577   9.276   7.925   5.988  0.4381 -0.0196  0.0567
  175XCA     C6 1578   9.101   7.604   6.173  0.0470  0.0942  0.1405
  176CHOL   ROH 1579  13.391   7.210   7.280 -0.3481  0.2001  0.0298
  176CHOL    R1 1580  13.494   7.453   7.177 -0.1891  0.1088 -0.0260
  176CHOL    R2 1581  13.764   7.491   7.128 -0.1495 -0.0280  0.1084
  176CHOL    R3 1582  13.676   7.557   6.879  0.0230 -0.1011  0.0257
  176CHOL    R4 1583  13.909   7.729   6.924 -0.0572 -0.0182  0.1833
  176CHOL    R5 1584  13.710   7.793   6.865 -0.0374 -0.0892  0.0141
  176CHOL    C1 1585  13.913   7.928   6.571  0.1585 -0.0810  0.1493
  176CHOL    C2 1586  14.181   8.333   6.493  0.0528  0.2155  0.0145
  177CHOL   ROH 1587  11.226   6.785   4.830  0.1151 -0.0989 -0.0422
  177CHOL    R1 1588  11.140   6.906   5.072  0.3099 -0.0103 -0.0166
  177CHOL    R2 1589  10.998   6.768   5.264 -0.0545  0.2164 -0.1226
  177CHOL    R3 1590  11.197   6.854   5.427  0.0956 -0.2929 -0.0180
  177CHOL    R4 1591  10.969   6.809   5.606 -0.1627  0.3438 -0.1457
  177CHOL    R5 1592  11.086   6.992   5.589  0.3543  0.0421 -0.1085
  177CHOL    C1 1593  11.139   6.914   5.958 -0.0849 -0.0601 -0.0609
  177CHOL    C2 1594  11.098   7.328   6.163 -0.0370  0.0926  0.1203
  178CHOL   ROH 1595  15.406   4.789   7.700  0.0257  0.0276 -0.1914
  178CHOL    R1 1596  15.433   4.987   7.500 -0.1328  0.1240 -0.1181
  178CHOL    R2 1597  15.429   4.928   7.230  0.0132  0.2064 -0.1333
  178CHOL    R3 1598  15.232   5.114   7.225 -0.1916 -0.0039 -0.1374
  178CHOL    R4 1599  15.323   5.095   6.947  0.1114  0.3585 -0.0820
  178CHOL    R5 1600  15.308   5.277   7.066 -0.2048  0.2362  0.0881
  178CHOL    C1 1601  15.076   5.368   6.777 -0.0236  0.2497 -0.0561
  178CHOL    C2 1602  14.970   5.424   6.441  0.0225 -0.1857  0.3218
  179XCA    COO 1603   7.373  15.087   8.662 -0.0554  0.0977 -0.2130
  179XCA     C1 1604   7.770  15.412   8.687  0.0315 -0.1266  0.2164
  179XCA     C2 1605   8.206  15.417   8.520 -0.0639  0.0696  0.2264
  179XCA     C3 1606   8.373  15.427   8.213  0.1523  0.0948  0.0148
  179XCA     C4 1607   8.526  15.249   7.866  0.1954 -0.0806 -0.1454
  179XCA     C5 1608   8.488  15.412   7.490  0.0930  0.0193 -0.1644
  179XCA     C6 1609   8.894  15.599   7.333 -0.1518  0.0690 -0.3604
  180XCA    COO 1610  15.505  10.133   8.100  0.2462  0.0486 -0.1802
  180XCA     C1 1611  15.468  10.011   7.582 -0.2154 -0.1413 -0.0725
  180XCA     C2 1612  15.095   9.900   7.217  0.2454 -0.5021 -0.1361
  180XCA     C3 1613  14.954   9.622   6.853 -0.0081  0.0680  0.1596
  180XCA     C4 1614  15.111   9.465   6.470 -0.1472  0.1962 -0.0476
  180XCA     C5 1615  14.933   9.096   6.222  0.0183  0.0640 -0.0937
  180XCA     C6 1616  15.040   8.792   5.962 -0.3176 -0.1018  0.1228
  181CHOL   ROH 1617  15.455  11.419   7.923  0.1792 -0.2104 -0.0968
  181CHOL    R1 1618  15.395  11.197   7.759  0.0497 -0.3329  0.1103
  181CHOL    R2 1619  15.184  11.027   7.810 -0.1821 -0.0449  0.1561
  181CHOL    R3 1620  15.116  11.087   7.553  0.0703 -0.2479  0.0376
  181CHOL    R4 1621  14.984  10.830   7.608 -0.1898 -0.0789  0.1978
  181CHOL    R5 1622  15.117  10.875   7.441 -0.0201 -0.3640  0.2542
  181CHOL    C1 1623  14.803  10.772   7.250  0.0428 -0.2893  0.1108
  181CHOL    C2 1624  14.674  10.868   6.759  0.0784  0.2484  0.0417
  182CHOL   ROH 1625   3.041  15.714   5.138 -0.1980 -0.1731  0.2319
  182CHOL    R1 1626   3.044  15.747   5.419 -0.1360  0.1149  0.1988
  182CHOL    R2 1627   3.272  15.717   5.570 -0.1502  0.0817  0.1924
  182CHOL    R3 1628   3.209  15.966   5.659  0.0728  0.2273 -0.0377
  182CHOL    R4 1629   3.386  15.855   5.866 -0.3473  0.0623  0.2797
  182CHOL    R5 1630   3.186  15.940   5.896 -0.2912  0.3682 -0.0397
  182CHOL    C1 1631   3.392  16.169   6.121 -0.2529  0.1877  0.1145
  182CHOL    C2 1632   3.626  16.270   6.492  0.0735  0.0250 -0.0742
  183PNCE   AM1 1633  12.564   9.039   8.537 -0.0871  0.3509  0.0731
  183PNCE   AM2 1634  12.428   8.688   8.466 -0.0160  0.0568 -0.1133
  183PNCE   T1A 1635  12.959   9.045   8.270  0.1309  0.0002 -0.2347
  183PNCE   C2A 1636  13.083   8.953   7.861  0.1593 -0.0914  0.0651
  183PNCE   C3A 1637  13.344   9.134   7.607  0.0770  0.0307  0.0302
  183PNCE   C1B 1638  12.199   8.601   8.087  0.1507  0.1362 -0.2260
  183PNCE   C2B 1639  12.051   8.595   7.675 -0.1020 -0.3011 -0.1202
  183PNCE   C3B 1640  12.061   8.717   7.242  0.1543  0.1841  0.2349
  183PNCE   D4B 1641  12.248   8.775   6.793  0.1170  0.0543 -0.0159
  183PNCE   C5B 1642  12.230   9.065   6.561  0.1143  0.0247 -0.1674
  183PNCE   C6B 1643  12.472   9.420   6.421  0.0206  0.0863  0.0248
  184PNCE   AM1 1644  12.918  10.685   8.854  0.2779  0.0991 -0.1953
  184PNCE   AM2 1645  13.289  10.848   8.974  0.1127  0.1101  0.0001
  184PNCE   T1A 1646  12.926  10.808   8.446  0.0449 -0.0164  0.2594
  184PNCE   C2A 1647  13.059  10.842   8.130  0.5334  0.1732  0.0988
  184PNCE   C3A 1648  13.062  10.766   7.694  0.0804 -0.0263  0.1658
  184PNCE   C1B 1649  13.379  10.997   8.532  0.5699 -0.2896  0.2493
  184PNCE   C2B 1650  13.357  11.240   8.149 -0.0303 -0.3144  0.1418
  184PNCE   C3B 1651  13.112  11.289   7.787  0.0250  0.0132  0.0089
  184PNCE   D4B 1652  12.779  11.569   7.683  0.0128  0.2157 -0.1147
  184PNCE   C5B 1653  12.850  11.702   7.218  0.1638  0.3045  0.0156
  184PNCE   C6B 1654  12.988  11.712   6.732  0.0083 -0.2578  0.0100
  185PNCE   AM1 1655  14.095  10.625   8.506  0.0062 -0.1228 -0.2227
  185PNCE   AM2 1656  13.765  10.745   8.504 -0.1787 -0.0500  0.1606
  185PNCE   T1A 1657  14.098  10.689   7.994 -0.0486  0.2670  0.1407
  185PNCE   C2A 1658  14.024  10.810   7.542 -0.0521 -0.0835  0.0782
  185PNCE   C3A 1659  13.881  10.948   7.120 -0.3565  0.0560  0.0767
  185PNCE   C1B 1660  13.858  11.179   8.256 -0.1056 -0.1036 -0.7547
  185PNCE   C2B 1661  14.135  11.380   7.908  0.1165  0.0003 -0.0916
  185PNCE   C3B 1662  14.135  11.656   7.563  0.1798  0.0145  0.4337
  185PNCE   D4B 1663  13.935  11.787   7.233  0.3185 -0.0367 -0.0509
  185PNCE   C5B 1664  14.331  11.984   6.971 -0.0679 -0.0197  0.2169
  185PNCE   C6B 1665  14.665  12.226   6.892 -0.1827 -0.0133 -0.0232
  186PNCE   AM1 1666   3.585   3.982   8.315  0.0697 -0.1050  0.2495
  186PNCE   AM2 1667   3.217   3.890   8.333 -0.4312 -0.0611  0.1386
  186PNCE   T1A 1668   3.786   3.550   8.272 -0.0387  0.2681 -0.1453
  186PNCE   C2A 1669   3.991   3.290   8.034  0.4251 -0.2778  0.1178
  186PNCE   C3A 1670   3.851   3.060   7.670  0.3159  0.0554  0.3193
  186PNCE   C1B 1671   3.191   3.842   7.844  0.1715  0.0773  0.1987
  186PNCE   C2B 1672   3.462   3.948   7.518 -0.1125 -0.1111  0.0461
  186PNCE   C3B 1673   3.672   3.854   7.156  0.0720  0.2037 -0.1840
  186PNCE   D4B 1674   3.767   3.988   6.747  0.1263  0.2781  0.0902
  186PNCE   C5B 1675   3.524   4.331   6.586  0.2510  0.2775 -0.1878
  186PNCE   C6B 1676   3.120   4.676   6.524  0.3595 -0.2370 -0.0306
  187PNCE   AM1 1677  12.175  10.232   5.094 -0.1011 -0.3083  0.1382
  187PNCE   AM2 1678  12.206  10.471   5.196 -0.3090  0.1508 -0.1870
  187PNCE   T1A 1679  12.636  10.166   5.405  0.1388  0.0938 -0.0074
  187PNCE   C2A 1680  12.972   9.971   5.774 -0.0547 -0.5667  0.0302
  187PNCE   C3A 1681  13.052  10.019   6.268 -0.3017  0.0677  0.0087
  187PNCE   C1B 1682  12.073  10.175   5.549 -0.3009  0.2814  0.3738
  187PNCE   C2B 1683  12.309  10.027   5.774  0.0283  0.1630  0.3835
  187PNCE   C3B 1684  12.556   9.992   6.121 -0.1987  0.1301  0.1112
  187PNCE   D4B 1685  12.801   9.633   6.091  0.1439 -0.1351 -0.1643
  187PNCE   C5B 1686  12.583   9.375   5.900 -0.1779  0.1449 -0.1169
  187PNCE   C6B 1687  12.337   9.183   5.556  0.3141 -0.0614  0.1707
  188XCA    COO 1688   1.678  15.471   4.588 -0.1541  0.1304  0.1648
  188XCA     C1 1689   1.486  15.434   5.010 -0.0925 -0.2497  0.0228
  188XCA     C2 1690   1.661  15.327   5.393 -0.0739  0.2045 -0.1154
  188XCA     C3 1691   1.880  15.173   5.749 -0.2857  0.1663  0.0574
  188XCA     C4 1692   2.007  14.841   6.094 -0.3487 -0.1258  0.3561
  188XCA     C5 1693   2.328  14.856   6.459 -0.0453 -0.2247 -0.0924
  188XCA     C6 1694   2.786  15.048   6.573  0.5705  0.1188 -0.1450
  189PNCE   AM1 1695   9.692   1.679   9.150 -0.0533 -0.0757 -0.0646
  189PNCE   AM2 1696   9.443   1.543   9.002 -0.0739  0.0005  0.1026
  189PNCE   T1A 1697   9.678   1.696   8.656  0.1552  0.0649  0.0524
  189PNCE   C2A 1698   9.700   1.883   8.238  0.0737 -0.3572 -0.2059
  189PNCE   C3A 1699   9.671   2.187   7.813  0.0850 -0.1705  0.0795
  189PNCE   C1B 1700   9.874   1.266   8.944 -0.0671  0.0475 -0.0777
  189PNCE   C2B 1701  10.273   0.917   8.797 -0.1704 -0.1133 -0.4110
  189PNCE   C3B 1702  10.617   0.832   8.560  0.2977  0.0091 -0.0645
  189PNCE   D4B 1703  10.779   1.053   8.254 -0.2097  0.1048 -0.0186
  189PNCE   C5B 1704  11.063   0.990   7.889 -0.1993 -0.1861  0.1938
  189PNCE   C6B 1705  11.359   1.274   7.691 -0.1447 -0.1818 -0.1372
  190PNCE   AM1 1706   0.095   7.934   8.245  0.0293  0.1711  0.0778
  190PNCE   AM2 1707   0.252   7.624   8.085  0.1572  0.0913  0.1291
  190PNCE   T1A 1708   0.215   8.223   7.960  0.1257  0.2545 -0.2390
  190PNCE   C2A 1709   0.683   8.242   7.760  0.0023 -0.0044  0.0233
  190PNCE   C3A 1710   0.988   8.055   7.477 -0.2369 -0.2845  0.4613
  190PNCE   C1B 1711   0.229   7.759   7.668 -0.1238 -0.0856  0.1240
  190PNCE   C2B 1712  -0.035   7.994   7.355 -0.3971 -0.1319  0.2102
  190PNCE   C3B 1713  -0.378   8.224   6.971 -0.2303  0.0625  0.2357
  190PNCE   D4B 1714  -0.630   8.127   6.611 -0.0473  0.3209  0.1227
  190PNCE   C5B 1715  -0.370   7.823   6.281  0.1720  0.0551 -0.2334
  190PNCE   C6B 1716   0.038   7.786   6.172 -0.1936 -0.1258  0.0573
  191CHOL   ROH 1717   2.488  12.212   7.718  0.0184 -0.1344  0.0668
  191CHOL    R1 1718   2.492  12.103   7.457  0.1014 -0.0950  0.0520
  191CHOL    R2 1719   2.409  12.245   7.235 -0.1029 -0.1611  0.0891
  191CHOL    R3 1720   2.656  12.179   7.141 -0.0400  0.1381  0.0314
  191CHOL    R4 1721   2.485  12.185   6.903 -0.1663 -0.2848  0.0958
  191CHOL    R5 1722   2.612  12.020   6.967  0.1122 -0.0562  0.1621
  191CHOL    C1 1723   2.760  12.088   6.622 -0.1441 -0.0758  0.0455
  191CHOL    C2 1724   3.073  12.080   6.316  0.0450 -0.0795  0.1194
  192CHOL   ROH 1725  13.344   6.115   7.368  0.0893 -0.2212  0.1105
  192CHOL    R1 1726  13.098   5.977   7.353  0.1161 -0.2491 -0.0803
  192CHOL    R2 1727  12.872   6.088   7.240  0.1071 -0.1405  0.0631
  192CHOL    R3 1728  12.874   5.861   7.090  0.1403  0.0542 -0.2430
  192CHOL    R4 1729  12.613   5.985   7.036 -0.1998 -0.2417  0.4897
  192CHOL    R5 1730  12.649   5.780   7.103  0.2684 -0.2978  0.1558
  192CHOL    C1 1731  12.463   5.712   6.777 -0.3476 -0.1179  0.4507
  192CHOL    C2 1732  12.265   5.561   6.486 -0.1705  0.1384 -0.1010
  193XCA    COO 1733   2.350   6.574   8.109 -0.1174 -0.2683 -0.0734
  193XCA     C1 1734   2.404   6.407   7.626  0.1231  0.1891 -0.1862
  193XCA     C2 1735   2.229   6.155   7.364 -0.0477  0.0065  0.2715
  193XCA     C3 1736   2.114   5.970   7.004  0.2858  0.2594  0.1555
  193XCA     C4 1737   2.064   5.930   6.543 -0.0710 -0.0159 -0.3512
  193XCA     C5 1738   2.044   5.701   6.146 -0.2624  0.0240  0.3566
  193XCA     C6 1739   2.242   5.626   5.756  0.0470  0.0683 -0.1230
  194CHOL   ROH 1740   7.060   0.767   5.472 -0.1567  0.0128 -0.0246
  194CHOL    R1 1741   7.072   0.749   5.754 -0.1143  0.0413 -0.0255
  194CHOL    R2 1742   6.891   0.877   5.920 -0.2186 -0.1193 -0.0219
  194CHOL    R3 1743   6.856   0.627   6.020  0.0234 -0.1470  0.0051
  194CHOL    R4 1744   6.873   0.800   6.256 -0.2118 -0.0790 -0.0114
  194CHOL    R5 1745   6.992   0.622   6.217 -0.0083  0.0337  0.0401
  194CHOL    C1 1746   6.830   0.520   6.546  0.0194 -0.0814  0.0202
  194CHOL    C2 1747   6.722   0.442   6.966 -0.0647 -0.0201 -0.2991
  195PNCE   AM1 1748   9.870   7.633   8.172 -0.0960 -0.3282 -0.0418
  195PNCE   AM2 1749   9.930   7.863   8.091  0.3338  0.1096  0.2861
  195PNCE   T1A 1750   9.763   7.170   7.877  0.1365 -0.0320 -0.1925
  195PNCE   C2A 1751   9.783   6.908   7.493 -0.2344  0.0370 -0.0581
  195PNCE   C3A 1752   9.839   6.522   7.455 -0.0555 -0.1401 -0.0817
  195PNCE   C1B 1753   9.783   7.768   7.648 -0.0831 -0.4102 -0.2178
  195PNCE   C2B 1754   9.698   7.762   7.274 -0.2374  0.0630  0.0148
  195PNCE   C3B 1755   9.349   7.777   6.974  0.0230  0.2178 -0.1354
  195PNCE   D4B 1756   9.069   7.964   6.549 -0.1376 -0.0588  0.0131
  195PNCE   C5B 1757   9.222   8.342   6.265 -0.2344  0.0219  0.4465
  195PNCE   C6B 1758   9.382   8.572   5.852  0.4249  0.2630  0.1627
  196XCA    COO 1759   5.293  13.849   5.099  0.1942  0.1210 -0.1485
  196XCA     C1 1760   5.167  13.824   5.590 -0.1866 -0.0614  0.1498
  196XCA     C2 1761   4.946  13.635   6.010 -0.0303 -0.0871 -0.3300
  196XCA     C3 1762   5.062  13.428   6.310  0.1373 -0.0423  0.0697
  196XCA     C4 1763   5.164  13.395   6.772  0.2115  0.0046 -0.1331
  196XCA     C5 1764   5.600  13.365   6.960  0.1006 -0.2392 -0.0993
  196XCA     C6 1765   6.126  13.367   6.744  0.1554  0.1441  0.0171
  197CHOL   ROH 1766  13.779   6.653   5.938  0.2347 -0.0801  0.0193
  197CHOL    R1 1767  13.870   6.880   5.796 -0.0139 -0.0160 -0.0450
  197CHOL    R2 1768  14.092   6.874   5.631  0.0077  0.1849 -0.0398
  197CHOL    R3 1769  13.917   6.972   5.447 -0.1062 -0.0710 -0.0699
  197CHOL    R4 1770  14.182   7.044   5.344 -0.2080  0.4711  0.0582
  197CHOL    R5 1771  14.015   7.180   5.377 -0.4753  0.1418  0.0440
  197CHOL    C1 1772  14.071   7.235   5.004 -0.4406  0.3976  0.0872
  197CHOL    C2 1773  14.112   6.963   4.659  0.0468 -0.0952 -0.0795
  198CHOL   ROH 1774  12.069   5.754   4.398  0.1460  0.5205 -0.1539
  198CHOL    R1 1775  12.268   5.863   4.566  0.1302  0.2729  0.0304
  198CHOL    R2 1776  12.223   5.921   4.833  0.0294  0.1101  0.0486
  198CHOL    R3 1777  12.441   5.763   4.871 -0.0898 -0.0563  0.0529
  198CHOL    R4 1778  12.411   5.911   5.122  0.1618  0.1568 -0.0346
  198CHOL    R5 1779  12.591   5.898   4.999  0.0942 -0.0908 -0.1179
  198CHOL    C1 1780  12.726   5.756   5.327  0.1271  0.0276 -0.0790
  198CHOL    C2 1781  12.726   5.954   5.637 -0.0678  0.1480 -0.0509
  199PNCE   AM1 1782   0.421   3.907   8.781 -0.0572  0.3808 -0.0894
  199PNCE   AM2 1783   0.212   4.033   8.557  0.4229  0.2833  0.2989
  199PNCE   T1A 1784   0.664   3.744   8.461 -0.2713 -0.0024 -0.1914
  199PNCE   C2A 1785   0.791   3.757   7.998  0.0663 -0.1409 -0.0105
  199PNCE   C3A 1786   0.932   3.638   7.611 -0.4976 -0.1256 -0.2036
  199PNCE   C1B 1787   0.295   3.769   8.112  0.2153  0.1105 -0.2473
  199PNCE   C2B 1788   0.291   3.710   7.721 -0.3608 -0.2815 -0.0925
  199PNCE   C3B 1789   0.206   3.431   7.402  0.2478 -0.1219  0.2297
  199PNCE   D4B 1790   0.172   3.214   6.974  0.0003  0.0131  0.0213
  199PNCE   C5B 1791  -0.185   3.145   6.902  0.0697 -0.1560  0.0604
  199PNCE   C6B 1792  -0.330   2.804   6.666  0.0353  0.0269 -0.0710
  200PNCE   AM1 1793   0.338  14.662   8.644 -0.0863  0.1971  0.0675
  200PNCE   AM2 1794   0.546  14.797   8.560  0.1010  0.2189 -0.1988
  200PNCE   T1A 1795   0.151  14.267   8.390 -0.0638 -0.1193  0.0678
  200PNCE   C2A 1796   0.056  14.314   7.972 -0.5722 -0.2315  0.0825
  200PNCE   C3A 1797  -0.291  14.361   7.600 -0.0281  0.1019 -0.1115
  200PNCE   C1B 1798   0.483  14.679   8.100  0.0411  0.0943 -0.0427
  200PNCE   C2B 1799   0.299  14.725   7.728  0.2765  0.0658  0.0755
  200PNCE   C3B 1800   0.456  14.872   7.394  0.2315 -0.0070 -0.2455
  200PNCE   D4B 1801   0.461  14.865   6.977 -0.1673  0.0393  0.0273
  200PNCE   C5B 1802   0.436  14.428   6.973 -0.0608 -0.1618  0.1623
  200PNCE   C6B 1803   0.694  14.080   7.094 -0.1437  0.1135 -0.1793
  201CHOL   ROH 1804   3.020  15.678   7.606  0.2292 -0.0803  0.2023
  201CHOL    R1 1805   3.141  15.912   7.504  0.1276 -0.0569  0.1409
  201CHOL    R2 1806   3.039  16.050   7.288 -0.0249 -0.0689  0.2171
  201CHOL    R3 1807   3.046  16.261   7.460  0.0487 -0.0660  0.2147
  201CHOL    R4 1808   3.080  16.381   7.194 -0.3540 -0.0398  0.1557
  201CHOL    R5 1809   3.211  16.408   7.367 -0.1523  0.0424  0.0045
  201CHOL    C1 1810   3.111  16.770   7.301 -0.4765 -0.0202  0.1176
  201CHOL    C2 1811   3.323  17.057   7.031  0.0926 -0.2828 -0.2890
  202CHOL   ROH 1812   5.486   6.422   8.091  0.2240  0.0789  0.1560
  202CHOL    R1 1813   5.457   6.451   7.811  0.0071  0.0293  0.1719
  202CHOL    R2 1814   5.590   6.645   7.667 -0.1139  0.0114  0.0356
  202CHOL    R3 1815   5.674   6.432   7.519 -0.2151 -0.0083  0.0058
  202CHOL    R4 1816   5.656   6.653   7.328 -0.1265  0.0259  0.0333
  202CHOL    R5 1817   5.561   6.457   7.310 -0.2149  0.0686  0.0135
  202CHOL    C1 1818   5.772   6.458   6.992 -0.2286  0.0159  0.0040
  202CHOL    C2 1819   5.884   6.363   6.729  0.1105 -0.1824  0.0217
  203CHOL   ROH 1820  12.678  10.463   6.527  0.0754 -0.3043 -0.2219
  203CHOL    R1 1821  12.743  10.290   6.740 -0.0579 -0.2757 -0.1579
  203CHOL    R2 1822  12.648  10.327   6.996 -0.0452 -0.1182 -0.1783
  203CHOL    R3 1823  12.563  10.071   6.968 -0.2241 -0.0711 -0.0885
  203CHOL    R4 1824  12.636  10.095   7.252 -0.0185 -0.0750 -0.1369
  203CHOL    R5 1825  12.708   9.944   7.111 -0.2042 -0.1412 -0.1673
  203CHOL    C1 1826  12.549   9.719   7.375 -0.1708 -0.0057 -0.0284
  203CHOL    C2 1827  12.275   9.664   7.734 -0.1286  0.0763 -0.2056
  204PNCE   AM1 1828   9.843   8.581   8.034  0.1317 -0.3088  0.0743
  204PNCE   AM2 1829   9.681   8.453   8.157  0.1998  0.1297 -0.2955
  204PNCE   T1A 1830   9.811   8.680   7.650 -0.3233 -0.0991 -0.1367
  204PNCE   C2A 1831   9.655   8.520   7.345  0.0795 -0.0820 -0.0016
  204PNCE   C3A 1832   9.671   8.222   7.023  0.0529 -0.0281  0.1067
  204PNCE   C1B 1833   9.512   8.276   7.752  0.4390  0.0662 -0.4027
  204PNCE   C2B 1834   9.331   8.107   7.436 -0.3062  0.2810  0.1020
  204PNCE   C3B 1835   9.114   8.274   7.052 -0.1232  0.1931  0.0230
  204PNCE   D4B 1836   8.918   8.463   6.678 -0.1397 -0.0458  0.2374
  204PNCE   C5B 1837   8.824   8.634   6.303  0.0224 -0.2603 -0.0004
  204PNCE   C6B 1838   8.890   8.559   5.891 -0.0732  0.0681 -0.1000
  205CHOL   ROH 1839  12.044  14.367   6.274  0.0458 -0.3336  0.0934
  205CHOL    R1 1840  11.893  14.470   6.490  0.0680 -0.2162  0.0536
  205CHOL    R2 1841  11.749  14.705   6.473  0.0782 -0.2187 -0.0552
  205CHOL    R3 1842  11.543  14.548   6.555  0.0768 -0.1672  0.0426
  205CHOL    R4 1843  11.485  14.812   6.668  0.0587 -0.0850 -0.1531
  205CHOL    R5 1844  11.495  14.624   6.777  0.0565 -0.0070 -0.0145
  205CHOL    C1 1845  11.137  14.727   6.859  0.0459  0.0411 -0.1183
  205CHOL    C2 1846  10.780  14.844   6.841 -0.2205  0.0026 -0.0504
  206XCA    COO 1847  10.326   3.477   9.267 -0.0170 -0.0020  0.2942
  206XCA     C1 1848  10.412   3.090   9.099 -0.1156  0.1560 -0.2064
  206XCA     C2 1849  10.453   2.867   8.717 -0.2676 -0.1902 -0.1529
  206XCA     C3 1850  10.320   2.478   8.367 -0.0337 -0.0405 -0.3544
  206XCA     C4 1851  10.266   2.201   8.022  0.1596  0.0858 -0.0254
  206XCA     C5 1852  10.132   1.901   7.855 -0.1695 -0.0435 -0.1268
  206XCA     C6 1853  10.272   1.568   7.620 -0.1795 -0.1140  0.0816
  207CHOL   ROH 1854   0.981   9.223   4.164 -0.1460 -0.2088 -0.1958
  207CHOL    R1 1855   0.782   9.058   4.279 -0.0809 -0.2292 -0.1128
  207CHOL    R2 1856   0.813   8.784   4.306  0.1040 -0.1794  0.1934
  207CHOL    R3 1857   0.757   8.836   4.567 -0.0569  0.0567  0.1156
  207CHOL    R4 1858   0.626   8.580   4.511 -0.1037  0.0448  0.2321
  207CHOL    R5 1859   0.532   8.758   4.595 -0.1067  0.1512  0.0236
  207CHOL    C1 1860   0.464   8.509   4.876 -0.3757  0.3969  0.1816
  207CHOL    C2 1861   0.346   8.280   5.040  0.1652  0.4340  0.2921
  208CHOL   ROH 1862  12.620   9.036   4.710  0.1907  0.2001  0.1846
  208CHOL    R1 1863  12.871   8.911   4.673  0.0535 -0.1018  0.2445
  208CHOL    R2 1864  12.913   8.642   4.723 -0.3909 -0.2571 -0.1596
  208CHOL    R3 1865  13.005   8.643   4.467 -0.1224  0.0453 -0.0693
  208CHOL    R4 1866  13.117   8.400   4.585 -0.3117 -0.1383 -0.2548
  208CHOL    R5 1867  13.227   8.557   4.483 -0.1595 -0.0333  0.0575
  208CHOL    C1 1868  13.322   8.259   4.264 -0.0134  0.2149 -0.2256
  208CHOL    C2 1869  13.354   7.956   4.194  0.1697  0.1012 -0.1645
  209PNCE   AM1 1870   1.831  10.880   7.659  0.2456  0.2278  0.0541
  209PNCE   AM2 1871   1.858  10.571   7.709  0.0514 -0.2688 -0.2527
  209PNCE   T1A 1872   1.637  10.890   7.335  0.4149 -0.1905 -0.0191
  209PNCE   C2A 1873   1.412  11.007   6.895  0.3236 -0.0458 -0.1869
  209PNCE   C3A 1874   1.214  11.280   6.528  0.0776 -0.1875  0.0298
  209PNCE   C1B 1875   2.079  10.448   7.322  0.1215 -0.0250  0.0296
  209PNCE   C2B 1876   2.032  10.785   7.018 -0.0200  0.2883 -0.0354
  209PNCE   C3B 1877   1.836  10.947   6.670 -0.0325 -0.1383 -0.2197
  209PNCE   D4B 1878   1.913  11.167   6.372 -0.0481  0.0328 -0.6007
  209PNCE   C5B 1879   1.637  11.341   6.237  0.1864  0.3308 -0.1775
  209PNCE   C6B 1880   1.471  11.658   6.037  0.2071 -0.3182  0.1716
  210CHOL   ROH 1881   8.144   3.358   8.572 -0.1297  0.0668  0.0669
  210CHOL    R1 1882   8.132   3.490   8.322  0.0719  0.0518  0.0468
  210CHOL    R2 1883   7.899   3.603   8.223  0.0617 -0.2430 -0.3003
  210CHOL    R3 1884   8.054   3.825   8.204 -0.1852 -0.0443 -0.0594
  210CHOL    R4 1885   7.838   3.869   8.011 -0.0003 -0.2696 -0.3148
  210CHOL    R5 1886   8.052   3.880   7.971  0.0380  0.0030 -0.0491
  210CHOL    C1 1887   7.948   4.233   7.870 -0.2681 -0.0986 -0.0973
  210CHOL    C2 1888   8.124   4.426   7.618  0.1379  0.1732  0.0017
  211PNCE   AM1 1889   6.934  15.150   8.913 -0.2639  0.1203 -0.3718
  211PNCE   AM2 1890   6.995  15.439   9.012 -0.1540  0.0933  0.0160
  211PNCE   T1A 1891   6.989  14.745   8.717 -0.0147 -0.0746  0.0922
  211PNCE   C2A 1892   6.948  14.366   8.540  0.0622  0.1296  0.0042
  211PNCE   C3A 1893   7.228  14.042   8.610 -0.2389  0.1892  0.0797
  211PNCE   C1B 1894   7.100  15.569   8.593 -0.1329 -0.0908 -0.0543
  211PNCE   C2B 1895   7.113  15.638   8.169  0.4403 -0.0654 -0.2513
  211PNCE   C3B 1896   7.059  15.630   7.786 -0.1891  0.0576 -0.1237
  211PNCE   D4B 1897   6.873  15.793   7.440 -0.1816  0.0979 -0.2576
  211PNCE   C5B 1898   6.522  15.936   7.217  0.2097  0.0920  0.1147
  211PNCE   C6B 1899   6.204  16.180   7.306 -0.1152  0.2760 -0.1080
  212CHOL   ROH 1900  10.054  13.781   8.328 -0.0610 -0.0223 -0.0190
  212CHOL    R1 1901  10.017  13.789   8.047  0.0267 -0.0235 -0.0316
  212CHOL    R2 1902  10.068  14.014   7.897 -0.0099  0.0055 -0.0069
  212CHOL    R3 1903  10.226  13.845   7.754  0.1017  0.0700  0.0404
  212CHOL    R4 1904  10.206  14.086   7.588 -0.0438  0.0119 -0.0201
  212CHOL    R5 1905  10.162  13.882   7.526  0.0881 -0.0296  0.0303
  212CHOL    C1 1906  10.436  13.969   7.276  0.0413  0.0763  0.0167
  212CHOL    C2 1907  10.606  13.948   6.947  0.1830  0.2862  0.5727
  213PNCE   AM1 1908   6.198   9.007   4.106  0.0139 -0.0655 -0.5191
  213PNCE   AM2 1909   6.020   9.278   4.369  0.1537 -0.0415 -0.0197
  213PNCE   T1A 1910   6.535   8.792   4.294  0.2189 -0.0620 -0.3280
  213PNCE   C2A 1911   6.913   8.743   4.082 -0.0540  0.3959 -0.0576
  213PNCE   C3A 1912   7.335   8.572   4.103  0.5457  0.1670 -0.3042
  213PNCE   C1B 1913   6.023   9.102   4.904 -0.1739  0.2914  0.4567
  213PNCE   C2B 1914   6.121   8.845   5.342  0.2538  0.2337 -0.1049
  213PNCE   C3B 1915   6.202   8.601   5.701 -0.0084 -0.0310  0.1796
  213PNCE   D4B 1916   5.983   8.306   5.945  0.0278 -0.0023 -0.0544
  213PNCE   C5B 1917   5.595   8.119   5.841 -0.3553 -0.3252  0.0978
  213PNCE   C6B 1918   5.422   8.141   5.479 -0.1905  0.0099  0.0261
  214CHOL   ROH 1919  14.031  15.369   7.116 -0.2038 -0.0979  0.0444
  214CHOL    R1 1920  14.146  15.110   7.114 -0.0500 -0.0299 -0.0052
  214CHOL    R2 1921  14.015  14.889   7.215  0.0494 -0.1394 -0.1205
  214CHOL    R3 1922  14.066  14.786   6.969  0.1894 -0.0325 -0.1378
  214CHOL    R4 1923  14.051  14.552   7.144 -0.0311 -0.1198 -0.2607
  214CHOL    R5 1924  14.215  14.603   7.010  0.0904 -0.1123 -0.1181
  214CHOL    C1 1925  14.120  14.260   6.872  0.0535 -0.0079 -0.3587
  214CHOL    C2 1926  14.265  13.920   6.727  0.0845 -0.0279  0.0344
  215CHOL   ROH 1927  14.745   4.450   7.576  0.1586 -0.1574  0.1112
  215CHOL    R1 1928  14.798   4.210   7.435  0.2671 -0.1463  0.1318
  215CHOL    R2 1929  14.827   3.967   7.562  0.0270 -0.1812  0.1264
  215CHOL    R3 1930  14.633   3.889   7.389  0.2240 -0.0867 -0.1436
  215CHOL    R4 1931  14.759   3.639   7.475 -0.0579 -0.1537  0.0880
  215CHOL    R5 1932  14.729   3.705   7.270  0.2811 -0.1695  0.0284
  215CHOL    C1 1933  14.537   3.376   7.262  0.0776 -0.0489 -0.1877
  215CHOL    C2 1934  14.735   3.036   7.292 -0.0537 -0.1748  0.4108
  216PNCE   AM1 1935  12.100   6.371   8.362 -0.1450  0.4674 -0.1924
  216PNCE   AM2 1936  12.136   6.194   8.186 -0.0096  0.4117  0.0446
  216PNCE   T1A 1937  11.792   6.485   8.026 -0.2422  0.0033 -0.1302
  216PNCE   C2A 1938  11.567   6.282   7.701  0.1697  0.1875 -0.2260
  216PNCE   C3A 1939  11.196   6.046   7.479 -0.1593  0.0127 -0.1310
  216PNCE   C1B 1940  11.989   6.048   7.791  0.1109 -0.0347 -0.1602
  216PNCE   C2B 1941  11.846   6.116   7.318 -0.0418  0.2220  0.2038
  216PNCE   C3B 1942  11.998   6.138   6.912  0.1593 -0.0637  0.0034
  216PNCE   D4B 1943  11.732   6.325   6.620 -0.1957  0.0270  0.1908
  216PNCE   C5B 1944  11.567   6.141   6.147  0.1712 -0.1386  0.1778
  216PNCE   C6B 1945  11.438   6.110   5.737  0.0485 -0.0849  0.1655
  217PNCE   AM1 1946   7.113  15.412   5.401 -0.2550  0.0953 -0.3444
  217PNCE   AM2 1947   6.914  15.337   5.085 -0.2577  0.0188 -0.2588
  217PNCE   T1A 1948   7.073  15.133   5.715 -0.0527  0.0559 -0.0459
  217PNCE   C2A 1949   7.116  14.953   6.120  0.4216 -0.0942  0.1422
  217PNCE   C3A 1950   7.290  15.042   6.524 -0.3128  0.1905  0.1238
  217PNCE   C1B 1951   6.653  15.478   5.500 -0.0007 -0.1432  0.1035
  217PNCE   C2B 1952   6.634  15.334   6.048 -0.0469  0.0412  0.3854
  217PNCE   C3B 1953   6.637  15.053   6.347  0.1707  0.0772  0.2782
  217PNCE   D4B 1954   6.880  14.617   6.455  0.0825  0.4419  0.2707
  217PNCE   C5B 1955   7.087  14.547   6.839 -0.1717  0.1071  0.0504
  217PNCE   C6B 1956   7.232  14.419   7.250 -0.0115 -0.2886 -0.2105
  218PNCE   AM1 1957   2.371  10.497   7.833 -0.1794  0.0265 -0.0065
  218PNCE   AM2 1958   2.504  10.227   7.641  0.3974  0.0712  0.0140
  218PNCE   T1A 1959   2.379  10.891   7.457 -0.0634 -0.2327  0.0367
  218PNCE   C2A 1960   2.350  11.252   7.170  0.1722 -0.1826  0.0036
  218PNCE   C3A 1961   2.267  11.306   6.768  0.0407 -0.2640  0.0314
  218PNCE   C1B 1962   2.570   9.965   7.157  0.0488 -0.3342  0.3860
  218PNCE   C2B 1963   2.135  10.092   6.965 -0.1670 -0.0332 -0.0533
  218PNCE   C3B 1964   2.100   9.892   6.572 -0.0241  0.3996  0.4559
  218PNCE   D4B 1965   2.106   9.965   6.063 -0.3278  0.2228  0.1172
  218PNCE   C5B 1966   1.870   9.677   5.949 -0.3052 -0.0265  0.2107
  218PNCE   C6B 1967   1.440   9.505   5.907  0.1755  0.1081  0.1956
  219CHOL   ROH 1968  12.081   2.406   9.019  0.0100  0.2469  0.1663
  219CHOL    R1 1969  11.993   2.479   8.760 -0.0692  0.0854  0.1474
  219CHOL    R2 1970  11.799   2.670   8.716  0.0342  0.1737  0.0849
  219CHOL    R3 1971  11.989   2.781   8.557  0.0279 -0.0797 -0.1065
  219CHOL    R4 1972  11.740   2.920   8.486  0.1446  0.3075  0.1988
  219CHOL    R5 1973  11.876   2.818   8.348 -0.1552  0.1246  0.0233
  219CHOL    C1 1974  11.884   3.170   8.201  0.2029  0.1474  0.0855
  219CHOL    C2 1975  11.976   3.313   7.885 -0.0629 -0.3468 -0.1378
  220PNCE   AM1 1976  11.237   6.318   8.715 -0.0992  0.2764  0.0346
  220PNCE   AM2 1977  11.417   6.113   8.813 -0.2659  0.2303 -0.0487
  220PNCE   T1A 1978  11.123   6.730   8.408  0.0180 -0.2083  0.0117
  220PNCE   C2A 1979  11.087   6.959   8.031  0.1558  0.1508  0.1673
  220PNCE   C3A 1980  10.936   6.954   7.695  0.0883  0.2895  0.0332
  220PNCE   C1B 1981  11.148   5.931   8.467  0.1291  0.0979  0.1036
  220PNCE   C2B 1982  11.026   5.731   8.082  0.0174 -0.2132 -0.3821
  220PNCE   C3B 1983  11.046   5.583   7.693  0.2841  0.1646 -0.3023
  220PNCE   D4B 1984  10.837   5.550   7.307  0.4815 -0.0498  0.2684
  220PNCE   C5B 1985  10.420   5.311   7.029 -0.0404  0.1953 -0.1908
  220PNCE   C6B 1986  10.077   5.293   7.014 -0.2460  0.3295 -0.0796
  221CHOL   ROH 1987   5.464  14.514   7.352 -0.0366  0.0969  0.0868
  221CHOL    R1 1988   5.482  14.480   7.072  0.0619  0.0641  0.0964
  221CHOL    R2 1989   5.274  14.380   6.920  0.1351 -0.0131  0.0413
  221CHOL    R3 1990   5.311  14.609   6.778  0.1195 -0.0208  0.0258
  221CHOL    R4 1991   5.281  14.400   6.575 -0.0301 -0.0074  0.0379
  221CHOL    R5 1992   5.445  14.542   6.591  0.0106 -0.0481 -0.0413
  221CHOL    C1 1993   5.320  14.626   6.240 -0.1407 -0.0114  0.0214
  221CHOL    C2 1994   5.242  14.639   5.754  0.4088  0.1107 -0.0997
  222CHOL   ROH 1995  10.060  10.057   7.833  0.1380 -0.4615 -0.2382
  222CHOL    R1 1996   9.964  10.005   7.571 -0.2237 -0.4669 -0.1086
  222CHOL    R2 1997   9.694  10.009   7.508 -0.2796  0.2807  0.1069
  222CHOL    R3 1998   9.775  10.187   7.319  0.1229 -0.1594 -0.1584
  222CHOL    R4 1999   9.513  10.095   7.227 -0.1709  0.3749  0.0633
  222CHOL    R5 2000   9.698  10.093   7.112 -0.1925 -0.2501 -0.0118
  222CHOL    C1 2001   9.482  10.311   6.885  0.2705  0.0168 -0.2110
  222CHOL    C2 2002   9.177  10.516   6.611  0.3427 -0.0056  0.1144
  223PNCE   AM1 2003   2.457   4.752   8.251 -0.1893  0.1693  0.1521
  223PNCE   AM2 2004   2.803   4.880   8.376  0.2349  0.1640  0.2810
  223PNCE   T1A 2005   2.352   4.470   7.818  0.4809  0.2285 -0.0419
  223PNCE   C2A 2006   2.328   4.382   7.372 -0.1500 -0.0290  0.0590
  223PNCE   C3A 2007   2.440   4.172   7.015 -0.0071  0.1682  0.2599
  223PNCE   C1B 2008   2.783   4.652   7.878  0.1403  0.1429  0.0734
  223PNCE   C2B 2009   2.782   4.233   7.795  0.0497  0.0429 -0.1071
  223PNCE   C3B 2010   2.911   3.908   7.490  0.1903 -0.0017  0.1386
  223PNCE   D4B 2011   2.933   3.942   7.114 -0.0283  0.0873 -0.3349
  223PNCE   C5B 2012   2.812   3.562   6.981  0.1503  0.2666  0.2381
  223PNCE   C6B 2013   3.041   3.244   6.714  0.3468  0.1321  0.1951
  224XCA    COO 2014   0.440   9.307   3.399  0.2630 -0.0475 -0.2046
  224XCA     C1 2015   0.169   9.241   3.675 -0.2046  0.0749 -0.0453
  224XCA     C2 2016  -0.045   9.280   3.972 -0.3020 -0.0786 -0.0972
  224XCA     C3 2017  -0.325   9.402   4.255 -0.0171 -0.1865  0.0980
  224XCA     C4 2018  -0.721   9.340   4.527  0.0172 -0.1019  0.0751
  224XCA     C5 2019  -1.075   9.266   4.804  0.1731 -0.1339 -0.0329
  224XCA     C6 2020  -1.352   9.464   5.149 -0.2245  0.2210  0.0463
  225CHOL   ROH 2021  11.953   7.262   5.020 -0.0624  0.0517 -0.0292
  225CHOL    R1 2022  11.882   7.505   5.146 -0.0233  0.0186  0.0571
  225CHOL    R2 2023  11.622   7.599   5.151 -0.0044  0.0684  0.0727
  225CHOL    R3 2024  11.664   7.607   5.419 -0.0235 -0.0406  0.0795
  225CHOL    R4 2025  11.584   7.880   5.349 -0.2894 -0.0750  0.2287
  225CHOL    R5 2026  11.764   7.821   5.458 -0.2342  0.0390  0.2024
  225CHOL    C1 2027  11.602   8.051   5.716 -0.4732 -0.2609  0.3259
  225CHOL    C2 2028  11.724   8.428   5.740  0.1045  0.3546  0.3806
  226PNCE   AM1 2029   0.886   6.674   8.617 -0.2594 -0.1132 -0.0212
  226PNCE   AM2 2030   0.691   6.542   8.342  0.1101 -0.0877 -0.2974
  226PNCE   T1A 2031   1.098   6.271   8.466 -0.1436  0.1352  0.0336
  226PNCE   C2A 2032   0.996   6.047   8.137  0.4039 -0.0419  0.3156
  226PNCE   C3A 2033   0.593   6.146   7.971 -0.3452  0.0765 -0.0370
  226PNCE   C1B 2034   0.612   6.658   7.935 -0.2471 -0.0852 -0.0037
  226PNCE   C2B 2035   0.664   6.703   7.490 -0.2706  0.0109  0.0382
  226PNCE   C3B 2036   0.963   6.791   7.091  0.0493  0.3352  0.0397
  226PNCE   D4B 2037   1.331   6.777   6.819 -0.2372 -0.1112 -0.3218
  226PNCE   C5B 2038   1.585   6.305   6.652 -0.1114 -0.2509  0.1257
  226PNCE   C6B 2039   1.578   6.037   6.254 -0.1387 -0.0278 -0.0689
  227XCA    COO 2040  13.258   6.421   5.429  0.0215  0.2332 -0.1828
  227XCA     C1 2041  12.921   6.313   5.253 -0.0956  0.0019  0.0555
  227XCA     C2 2042  12.567   6.293   5.315  0.0913 -0.1737  0.0080
  227XCA     C3 2043  12.310   6.163   5.570 -0.0106 -0.1435  0.0640
  227XCA     C4 2044  12.237   5.724   5.585  0.2262 -0.1145  0.3489
  227XCA     C5 2045  12.302   5.450   5.229 -0.0803 -0.0740  0.1863
  227XCA     C6 2046  12.230   5.343   4.858  0.0019 -0.0754 -0.0631
  228PNCE   AM1 2047  10.172  14.174   8.678 -0.0296  0.1995 -0.1519
  228PNCE   AM2 2048   9.892  14.192   8.723  0.3446  0.1131 -0.1864
  228PNCE   T1A 2049  10.255  14.270   8.263  0.1801  0.3398  0.0274
  228PNCE   C2A 2050  10.201  14.468   7.873  0.0966 -0.2196 -0.3302
  228PNCE   C3A 2051  10.109  14.482   7.444 -0.0437 -0.2735  0.3487
  228PNCE   C1B 2052   9.722  14.277   8.419 -0.1196  0.1499 -0.0123
  228PNCE   C2B 2053   9.786  14.291   8.090 -0.1042 -0.1126  0.0164
  228PNCE   C3B 2054   9.689  14.702   7.906 -0.0143  0.3349  0.1115
  228PNCE   D4B 2055   9.684  14.748   7.549 -0.2056  0.1922  0.1764
  228PNCE   C5B 2056   9.470  15.024   7.283  0.2117 -0.2323  0.0604
  228PNCE   C6B 2057   9.427  15.473   7.506  0.1824  0.0022  0.0407
  229CHOL   ROH 2058  15.579  14.827   5.191 -0.2252 -0.1135 -0.0226
  229CHOL    R1 2059  15.654  14.849   5.463 -0.1472 -0.0663 -0.0473
  229CHOL    R2 2060  15.735  15.087   5.577 -0.2408 -0.0178 -0.0794
  229CHOL    R3 2061  15.538  15.032   5.755 -0.1526 -0.1230 -0.0137
  229CHOL    R4 2062  15.720  15.212   5.898 -0.2481  0.0493 -0.1060
  229CHOL    R5 2063  15.651  15.017   5.966 -0.0839  0.0129 -0.0397
  229CHOL    C1 2064  15.526  15.233   6.254 -0.1697 -0.0104 -0.0597
  229CHOL    C2 2065  15.525  15.415   6.521  0.2620 -0.0383 -0.1739
  230XCA    COO 2066   6.134  10.884   5.005 -0.1134  0.2745  0.2184
  230XCA     C1 2067   6.019  10.872   5.401 -0.0109  0.0745 -0.1303
  230XCA     C2 2068   5.865  10.712   5.739  0.1981 -0.0885  0.1523
  230XCA     C3 2069   5.696  10.890   6.088  0.0649 -0.0765 -0.0562
  230XCA     C4 2070   5.724  10.722   6.512 -0.1028  0.0630  0.2597
  230XCA     C5 2071   5.953  10.459   6.631  0.0392  0.1370 -0.0954
  230XCA     C6 2072   6.216  10.504   7.047 -0.0365 -0.0026 -0.1399
  231CHOL   ROH 2073   1.651   8.970   7.451 -0.0231 -0.1429 -0.0298
  231CHOL    R1 2074   1.930   8.941   7.411 -0.0115 -0.0978  0.0132
  231CHOL    R2 2075   2.036   8.825   7.183  0.0428 -0.0954  0.0356
  231CHOL    R3 2076   2.176   9.058   7.169  0.0035 -0.0719  0.0413
  231CHOL    R4 2077   2.240   8.917   6.920  0.0688 -0.0775  0.0624
  231CHOL    R5 2078   2.382   8.996   7.065  0.0308 -0.0418  0.0790
  231CHOL    C1 2079   2.490   9.188   6.753  0.0469 -0.0449  0.0834
  231CHOL    C2 2080   2.620   9.125   6.278 -0.4576  0.1129 -0.1152
  232PNCE   AM1 2081  15.598  14.441   8.656  0.0200  0.0694 -0.1330
  232PNCE   AM2 2082  15.309  14.344   8.880 -0.1771 -0.0996 -0.0422
  232PNCE   T1A 2083  15.545  14.301   8.289  0.0671  0.2239  0.1508
  232PNCE   C2A 2084  15.472  14.054   7.987 -0.3056 -0.0464  0.1279
  232PNCE   C3A 2085  15.627  13.849   7.607  0.0474 -0.1186  0.0277
  232PNCE   C1B 2086  15.081  14.370   8.476  0.2753  0.0115 -0.0680
  232PNCE   C2B 2087  15.035  14.211   8.040 -0.2137  0.1768 -0.2849
  232PNCE   C3B 2088  15.159  14.127   7.652  0.0735  0.0445  0.0362
  232PNCE   D4B 2089  15.216  13.648   7.438 -0.2762  0.2139 -0.0776
  232PNCE   C5B 2090  15.031  13.533   7.078  0.0896  0.1294  0.0863
  232PNCE   C6B 2091  14.606  13.545   6.899  0.1973  0.2392  0.3115
  233PNCE   AM1 2092   7.896   0.448   9.538 -0.2801  0.1206  0.1225
  233PNCE   AM2 2093   7.577   0.417   9.389 -0.0633 -0.1610  0.1371
  233PNCE   T1A 2094   7.969   0.422   9.065 -0.5803 -0.0732 -0.0092
  233PNCE   C2A 2095   8.184   0.574   8.731  0.2318  0.3525  0.2521
  233PNCE   C3A 2096   8.455   0.751   8.497 -0.0907 -0.1390  0.1145
  233PNCE   C1B 2097   7.420   0.113   8.968  0.0983 -0.0400 -0.2952
  233PNCE   C2B 2098   7.511   0.029   8.632 -0.0858 -0.0665  0.2804
  233PNCE   C3B 2099   7.649   0.260   8.333 -0.2442 -0.2433 -0.2241
  233PNCE   D4B 2100   7.724   0.467   7.938 -0.2642  0.2390  0.1004
  233PNCE   C5B 2101   7.516   0.699   7.648 -0.0224  0.0384  0.0096
  233PNCE   C6B 2102   7.270   1.068   7.698 -0.2945 -0.1343  0.0954
  234CHOL   ROH 2103  13.074   6.960   7.491 -0.0148 -0.1307 -0.0192
  234CHOL    R1 2104  13.020   7.041   7.225  0.0147 -0.0720 -0.0068
  234CHOL    R2 2105  12.792   6.964   7.089  0.0275 -0.0342 -0.0439
  234CHOL    R3 2106  12.763   7.232   7.053  0.0393 -0.0252  0.0064
  234CHOL    R4 2107  12.733   7.119   6.785 -0.2119 -0.0010  0.0170
  234CHOL    R5 2108  12.870   7.277   6.844 -0.1321 -0.0261 -0.0862
  234CHOL    C1 2109  12.671   7.460   6.575 -0.3401  0.0269  0.0996
  234CHOL    C2 2110  12.600   7.836   6.360  0.0649 -0.0710 -0.0167
  235PNCE   AM1 2111  11.592  14.139   8.054  0.1723 -0.0768 -0.1650
  235PNCE   AM2 2112  11.628  14.321   8.303  0.1049 -0.1019 -0.0797
  235PNCE   T1A 2113  11.831  14.450   7.795 -0.2113  0.0218 -0.1322
  235PNCE   C2A 2114  11.622  14.911   7.705 -0.2793 -0.0637  0.0997
  235PNCE   C3A 2115  11.364  15.155   7.591 -0.1697  0.1806 -0.0206
  235PNCE   C1B 2116  11.457  14.657   8.107  0.2842 -0.0307 -0.3732
  235PNCE   C2B 2117  11.258  14.570   7.674 -0.1605 -0.2047  0.0290
  235PNCE   C3B 2118  11.131  14.275   7.356  0.0742 -0.0565  0.1774
  235PNCE   D4B 2119  11.269  14.153   7.006  0.0447 -0.0912  0.0750
  235PNCE   C5B 2120  11.704  14.181   6.889  0.4170 -0.2382  0.0938
  235PNCE   C6B 2121  12.226  14.203   6.796  0.2229 -0.2159  0.0126
  236XCA    COO 2122   6.580   9.527   8.769  0.2656 -0.0192 -0.3151
  236XCA     C1 2123   6.402   9.463   8.336 -0.1939  0.0711 -0.2937
  236XCA     C2 2124   6.183   9.212   7.993  0.2772  0.0460 -0.0503
  236XCA     C3 2125   5.970   9.300   7.674  0.0603 -0.2327  0.0544
  236XCA     C4 2126   5.786   9.202   7.358  0.2973  0.1114  0.0855
  236XCA     C5 2127   5.527   9.254   6.935  0.1079 -0.2220 -0.2169
  236XCA     C6 2128   5.316   9.198   6.692  0.0752  0.3088  0.0308
  237CHOL   ROH 2129  11.071   4.851   4.326 -0.1309 -0.3706  0.0936
  237CHOL    R1 2130  10.959   4.959   4.563 -0.0185 -0.2040  0.0723
  237CHOL    R2 2131  10.827   4.803   4.749 -0.1698 -0.0314  0.1114
  237CHOL    R3 2132  11.006   4.915   4.921 -0.0525 -0.1688  0.0811
  237CHOL    R4 2133  10.756   4.895   5.075 -0.0496  0.0439  0.1170
  237CHOL    R5 2134  10.877   5.075   5.045  0.0949 -0.0553  0.0914
  237CHOL    C1 2135  10.883   5.053   5.426  0.1304 -0.0412  0.0918
  237CHOL    C2 2136  10.841   5.152   5.779 -0.0127  0.1926  0.0808
  238CHOL   ROH 2137   5.549   5.052   8.179  0.1929  0.1670 -0.0236
  238CHOL    R1 2138   5.496   4.942   7.924  0.0923  0.1237  0.0152
  238CHOL    R2 2139   5.457   5.099   7.700  0.1225  0.0828 -0.0185
  238CHOL    R3 2140   5.656   4.944   7.597  0.0308 -0.0375 -0.0172
  238CHOL    R4 2141   5.525   5.064   7.363  0.1793  0.1437 -0.0134
  238CHOL    R5 2142   5.561   4.851   7.397  0.0070  0.1015 -0.0730
  238CHOL    C1 2143   5.751   4.898   7.070  0.1264  0.0664 -0.0092
  238CHOL    C2 2144   5.857   4.704   6.686  0.0618  0.1961 -0.2593
  239CHOL   ROH 2145   1.702   0.885   4.775  0.1922  0.1629 -0.0605
  239CHOL    R1 2146   1.708   0.751   5.024  0.1675  0.2094 -0.0346
  239CHOL    R2 2147   1.698   0.885   5.266 -0.1379  0.2428 -0.0600
  239CHOL    R3 2148   1.488   0.720   5.313  0.0027  0.0250 -0.1781
  239CHOL    R4 2149   1.551   0.835   5.575 -0.2066  0.0217 -0.1270
  239CHOL    R5 2150   1.535   0.623   5.527  0.0164  0.0163 -0.1862
  239CHOL    C1 2151   1.269   0.649   5.798 -0.1145 -0.3116 -0.2769
  239CHOL    C2 2152   0.892   0.543   6.047 -0.1917 -0.0989  0.0524
  240XCA    COO 2153   5.454   8.643   6.776  0.2659  0.1650 -0.0449
  240XCA     C1 2154   5.079   8.505   6.797  0.0687  0.0079 -0.0733
  240XCA     C2 2155   4.654   8.493   6.714  0.0707 -0.0156  0.0115
  240XCA     C3 2156   4.254   8.256   6.647  0.4417  0.2045 -0.0192
  240XCA     C4 2157   3.947   8.583   6.711 -0.3282  0.0837  0.0543
  240XCA     C5 2158   3.793   8.528   6.918 -0.2071  0.1019  0.2322
  240XCA     C6 2159   3.461   8.299   7.002 -0.0037  0.0644 -0.0551
  241PNCE   AM1 2160  11.094   8.778   8.020 -0.2121  0.0519  0.0441
  241PNCE   AM2 2161  10.777   8.864   7.936 -0.3801 -0.1265 -0.0677
  241PNCE   T1A 2162  11.117   8.690   7.609  0.0888  0.2445  0.1575
  241PNCE   C2A 2163  11.044   8.694   7.192  0.1429  0.0415  0.1573
  241PNCE   C3A 2164  11.079   8.498   6.783  0.2371 -0.1015 -0.1534
  241PNCE   C1B 2165  10.747   9.125   7.449 -0.1722  0.3610 -0.1816
  241PNCE   C2B 2166  10.513   9.271   7.169  0.1038  0.2512 -0.0176
  241PNCE   C3B 2167  10.290   9.159   6.749 -0.2763 -0.0010 -0.1952
  241PNCE   D4B 2168   9.949   9.305   6.588 -0.0610  0.1539  0.1156
  241PNCE   C5B 2169  10.079   9.627   6.376  0.2429 -0.2174  0.5070
  241PNCE   C6B 2170  10.339   9.658   6.081 -0.0012  0.1550  0.4729
  242CHOL   ROH 2171   1.020  12.174   8.453  0.2315  0.0253  0.0604
  242CHOL    R1 2172   0.995  12.301   8.201  0.1640  0.0753  0.0921
  242CHOL    R2 2173   1.166  12.248   7.991  0.0182  0.0077 -0.0093
  242CHOL    R3 2174   0.935  12.197   7.858 -0.0856  0.1587  0.1087
  242CHOL    R4 2175   1.142  12.201   7.650 -0.1175 -0.3968  0.0508
  242CHOL    R5 2176   0.957  12.317   7.652  0.0424 -0.1316 -0.0538
  242CHOL    C1 2177   0.910  12.125   7.326 -0.2939 -0.4906  0.1966
  242CHOL    C2 2178   0.790  11.855   7.122 -0.0887 -0.0372  0.0831
  243XCA    COO 2179  14.377   1.504   4.542 -0.2177 -0.2200  0.1096
  243XCA     C1 2180  14.403   1.527   5.065 -0.1146 -0.3603  0.1594
  243XCA     C2 2181  14.584   1.553   5.421  0.2620 -0.0149 -0.1107
  243XCA     C3 2182  14.879   1.410   5.603  0.1848  0.0612  0.2397
  243XCA     C4 2183  15.264   1.250   5.636 -0.0863  0.0980 -0.2884
  243XCA     C5 2184  15.536   1.082   6.034  0.1441  0.0303  0.1033
  243XCA     C6 2185  15.740   0.747   6.249 -0.1798 -0.1137 -0.0152
  244PNCE   AM1 2186  14.207   7.505   7.738 -0.0056 -0.2440 -0.1262
  244PNCE   AM2 2187  14.451   7.715   7.585 -0.2799  0.0542 -0.5165
  244PNCE   T1A 2188  13.965   7.776   7.428 -0.0119 -0.1281 -0.0189
  244PNCE   C2A 2189  13.613   7.919   7.280 -0.0602  0.2503  0.0330
  244PNCE   C3A 2190  13.331   8.084   6.977 -0.3445  0.0013 -0.3906
  244PNCE   C1B 2191  14.869   7.613   7.349 -0.0744 -0.1692 -0.0525
  244PNCE   C2B 2192  15.037   7.704   6.976 -0.1486 -0.1112 -0.0234
  244PNCE   C3B 2193  15.178   7.638   6.606 -0.1358 -0.1167 -0.0039
  244PNCE   D4B 2194  15.066   7.442   6.295 -0.0167 -0.0060  0.0440
  244PNCE   C5B 2195  15.310   7.517   5.900  0.2367  0.0166  0.2120
  244PNCE   C6B 2196  15.554   7.946   5.803 -0.0317  0.0933 -0.1048
  245PNCE   AM1 2197  11.666   1.196   9.049 -0.1884  0.0514 -0.1271
  245PNCE   AM2 2198  11.826   0.963   9.170 -0.0582 -0.1089 -0.0274
  245PNCE   T1A 2199  11.595   1.220   8.585  0.1320 -0.1100  0.1955
  245PNCE   C2A 2200  11.594   1.314   8.174 -0.3087 -0.2656 -0.0380
  245PNCE   C3A 2201  11.836   1.532   7.787  0.0983  0.2390  0.1252
  245PNCE   C1B 2202  11.705   0.801   8.773 -0.1661  0.0433 -0.1181
  245PNCE   C2B 2203  11.438   0.694   8.351  0.1271  0.1070  0.4447
  245PNCE   C3B 2204  11.479   0.691   7.962  0.1043  0.0146  0.1612
  245PNCE   D4B 2205  11.481   0.767   7.547  0.0271  0.0058 -0.4914
  245PNCE   C5B 2206  11.814   0.701   7.242 -0.3273  0.2985  0.0922
  245PNCE   C6B 2207  12.137   0.604   6.946 -0.2856 -0.1521 -0.0309
  246CHOL   ROH 2208  12.743   9.704   4.623  0.0689  0.0610  0.3273
  246CHOL    R1 2209  12.904   9.582   4.821 -0.0659 -0.1465  0.3112
  246CHOL    R2 2210  12.930   9.307   4.842  0.0720 -0.1697 -0.0833
  246CHOL    R3 2211  13.196   9.364   4.828  0.0582  0.0174  0.2790
  246CHOL    R4 2212  13.180   9.131   5.004 -0.0065 -0.1168  0.0988
  246CHOL    R5 2213  13.279   9.320   5.048 -0.1808 -0.0797  0.3530
  246CHOL    C1 2214  13.575   9.082   5.083 -0.0651  0.0897  0.5449
  246CHOL    C2 2215  13.682   8.702   5.238  0.0915 -0.0581  0.0057
  247XCA    COO 2216   7.375   2.424   5.624 -0.1296 -0.2211 -0.2540
  247XCA     C1 2217   7.303   2.652   6.028 -0.1836  0.0959 -0.1434
  247XCA     C2 2218   7.131   2.991   6.109  0.1686  0.1882 -0.0184
  247XCA     C3 2219   6.754   3.060   6.208 -0.1328  0.3084 -0.1182
  247XCA     C4 2220   6.581   3.296   6.480  0.2391 -0.1310 -0.0647
  247XCA     C5 2221   6.190   3.357   6.757 -0.0842  0.2515  0.0338
  247XCA     C6 2222   6.206   3.720   7.052  0.0418 -0.1520 -0.2069
  248CHOL   ROH 2223   1.897  11.057   4.459 -0.0162 -0.0110 -0.3469
  248CHOL    R1 2224   1.680  10.906   4.561  0.0076  0.0447 -0.2144
  248CHOL    R2 2225   1.483  10.802   4.399 -0.0494 -0.0078 -0.1059
  248CHOL    R3 2226   1.551  10.568   4.521 -0.0296  0.0352 -0.0318
  248CHOL    R4 2227   1.271  10.532   4.440 -0.0322 -0.0095 -0.0174
  248CHOL    R5 2228   1.353  10.504   4.640 -0.0256  0.0605 -0.0071
  248CHOL    C1 2229   1.211  10.155   4.577 -0.0035  0.0298  0.1038
  248CHOL    C2 2230   0.909  10.000   4.807 -0.0246 -0.1618 -0.1301
  249XCA    COO 2231   6.875   8.297   7.878  0.0264  0.0232 -0.1691
  249XCA     C1 2232   6.878   8.290   7.424  0.0491 -0.2079 -0.0067
  249XCA     C2 2233   6.683   8.029   7.091 -0.0489  0.0841  0.0617
  249XCA     C3 2234   6.447   7.768   6.882 -0.0023  0.0605 -0.0278
  249XCA     C4 2235   6.204   7.472   6.503 -0.1157 -0.2012  0.1318
  249XCA     C5 2236   5.716   7.431   6.492 -0.3411 -0.0768 -0.1773
  249XCA     C6 2237   5.438   7.106   6.583  0.0074 -0.1861  0.2791
  250CHOL   ROH 2238   8.613   5.888   4.587 -0.1475 -0.0297 -0.0384
  250CHOL    R1 2239   8.483   5.792   4.820 -0.0055  0.0006  0.0547
  250CHOL    R2 2240   8.525   5.904   5.070 -0.0375  0.1935 -0.0220
  250CHOL    R3 2241   8.254   5.926   5.069 -0.0591 -0.0426  0.0280
  250CHOL    R4 2242   8.336   6.017   5.336 -0.0697  0.2307 -0.0610
  250CHOL    R5 2243   8.189   5.862   5.290  0.0523  0.0674  0.0926
  250CHOL    C1 2244   7.971   6.104   5.490 -0.1087  0.0307 -0.0368
  250CHOL    C2 2245   7.828   6.060   5.827 -0.3989 -0.1398  0.2248
  251XCA    COO 2246   1.891   1.023   8.528 -0.2906  0.0413 -0.1095
  251XCA     C1 2247   1.595   1.071   8.278 -0.0703 -0.2223  0.2100
  251XCA     C2 2248   1.131   1.257   8.137 -0.0917 -0.0337  0.1008
  251XCA     C3 2249   0.741   1.172   7.964  0.4490 -0.0113 -0.2760
  251XCA     C4 2250   0.236   1.155   7.774 -0.2787  0.1829  0.1682
  251XCA     C5 2251   0.113   1.145   7.434 -0.2301  0.1271 -0.0778
  251XCA     C6 2252   0.197   1.450   7.209 -0.1054 -0.0631  0.2823
  252XCA    COO 2253   0.211   0.664   5.417 -0.2519  0.3075 -0.2194
  252XCA     C1 2254   0.116   0.659   5.766 -0.0924  0.2841  0.0717
  252XCA     C2 2255   0.286   0.470   6.216  0.1427  0.1509 -0.1684
  252XCA     C3 2256   0.493   0.190   6.441 -0.0713 -0.0605 -0.0123
  252XCA     C4 2257   0.629  -0.274   6.453  0.0561 -0.1739  0.3868
  252XCA     C5 2258   0.785  -0.548   6.703  0.1546 -0.2919 -0.0993
  252XCA     C6 2259   0.892  -1.004   6.714 -0.1513 -0.2492 -0.0736
  253PNCE   AM1 2260   6.856   3.763   8.915  0.0259  0.2989 -0.1509
  253PNCE   AM2 2261   6.652   4.017   8.693 -0.2290 -0.1716 -0.0223
  253PNCE   T1A 2262   7.231   3.823   8.650  0.2274 -0.1058  0.1844
  253PNCE   C2A 2263   7.557   3.861   8.479 -0.0296  0.0509 -0.1256
  253PNCE   C3A 2264   7.566   4.137   8.272 -0.0669 -0.0264  0.2125
  253PNCE   C1B 2265   6.976   4.134   8.361  0.1112  0.1040 -0.1305
  253PNCE   C2B 2266   7.210   4.155   7.984 -0.0459  0.1404 -0.1789
  253PNCE   C3B 2267   7.560   4.126   7.714 -0.2199  0.1528  0.0249
  253PNCE   D4B 2268   7.794   3.659   7.638  0.1879 -0.0083  0.0020
  253PNCE   C5B 2269   7.786   3.207   7.967  0.0348  0.3265  0.1971
  253PNCE   C6B 2270   8.247   2.992   8.096  0.0609 -0.4096 -0.2014
  254XCA    COO 2271   8.751  15.103   4.589 -0.0855  0.1176  0.1011
  254XCA     C1 2272   8.629  15.170   5.077 -0.4489  0.2120 -0.0238
  254XCA     C2 2273   8.574  15.223   5.544  0.0862 -0.0434  0.0024
  254XCA     C3 2274   8.572  15.081   6.011  0.0173 -0.3698  0.2686
  254XCA     C4 2275   8.324  14.948   6.408 -0.1432  0.0691  0.1592
  254XCA     C5 2276   8.081  14.564   6.522  0.1706  0.0739  0.0098
  254XCA     C6 2277   7.867  14.171   6.628 -0.1045  0.2920  0.1799
  255CHOL   ROH 2278   9.468   7.628   7.957 -0.1259  0.0858  0.0079
  255CHOL    R1 2279   9.386   7.456   7.747 -0.1290  0.0530  0.0357
  255CHOL    R2 2280   9.369   7.540   7.485 -0.1438  0.0155  0.0236
  255CHOL    R3 2281   9.532   7.328   7.439 -0.1372  0.0155  0.0479
  255CHOL    R4 2282   9.408   7.382   7.180 -0.0978  0.0111  0.0315
  255CHOL    R5 2283   9.411   7.191   7.285 -0.1126  0.0135  0.0323
  255CHOL    C1 2284   9.584   7.091   6.960 -0.0649  0.0086  0.0591
  255CHOL    C2 2285   9.820   6.759   6.903  0.2766 -0.0959 -0.4131
  256PNCE   AM1 2286   7.345  13.054   8.877  0.0630 -0.1160 -0.2177
  256PNCE   AM2 2287   7.129  13.173   8.573  0.0361 -0.1799  0.0188
  256PNCE   T1A 2288   7.199  12.670   8.560 -0.0681  0.0201 -0.0730
  256PNCE   C2A 2289   6.719  12.484   8.333  0.1926  0.4133 -0.2100
  256PNCE   C3A 2290   6.516  12.177   8.295  0.3478  0.2088 -0.1149
  256PNCE   C1B 2291   7.395  13.043   8.232 -0.2600  0.0489 -0.2749
  256PNCE   C2B 2292   7.702  12.702   8.066 -0.0341 -0.0767  0.1387
  256PNCE   C3B 2293   7.866  12.297   7.947 -0.1978  0.2050 -0.0407
  256PNCE   D4B 2294   8.123  12.314   7.552 -0.0110  0.0366 -0.2823
  256PNCE   C5B 2295   8.299  12.060   7.248  0.2725  0.0880  0.1120
  256PNCE   C6B 2296   8.663  11.876   7.079  0.3701  0.1284  0.0662
  257PNCE   AM1 2297   5.044  11.655   8.466  0.2070 -0.1127  0.3249
  257PNCE   AM2 2298   5.279  11.353   8.405  0.1090  0.0289  0.1921
  257PNCE   T1A 2299   4.774  11.289   8.383  0.2115 -0.0023  0.0371
  257PNCE   C2A 2300   4.804  10.910   8.097 -0.0696  0.0110  0.2997
  257PNCE   C3A 2301   4.703  10.840   7.607 -0.1322 -0.1101  0.0500
  257PNCE   C1B 2302   5.091  11.293   7.945  0.4721  0.0390 -0.1512
  257PNCE   C2B 2303   5.175  11.117   7.506 -0.3604  0.1249 -0.1968
  257PNCE   C3B 2304   5.145  10.815   7.209 -0.4011 -0.0733  0.2655
  257PNCE   D4B 2305   4.707  10.602   7.098 -0.1386  0.1808  0.2107
  257PNCE   C5B 2306   4.440  10.947   7.122 -0.1318 -0.0501  0.3014
  257PNCE   C6B 2307   4.273  11.239   7.417  0.1710  0.2046 -0.1476
  258PNCE   AM1 2308   1.092   7.126   8.623 -0.0420 -0.1612  0.4611
  258PNCE   AM2 2309   0.682   7.342   8.651  0.3414  0.0778 -0.5058
  258PNCE   T1A 2310   1.226   7.291   8.245 -0.1757 -0.0888  0.4576
  258PNCE   C2A 2311   1.495   7.715   8.030  0.3968  0.0153 -0.1373
  258PNCE   C3A 2312   1.469   8.057   7.723 -0.1086  0.3873  0.4481
  258PNCE   C1B 2313   0.770   7.436   8.209 -0.0793  0.0875  0.1697
  258PNCE   C2B 2314   0.886   7.171   7.788 -0.0237 -0.0022  0.1694
  258PNCE   C3B 2315   0.995   7.186   7.413  0.2997 -0.0802 -0.1676
  258PNCE   D4B 2316   1.276   7.155   7.096  0.0547  0.1092  0.3085
  258PNCE   C5B 2317   1.671   7.215   7.220  0.0332  0.1324 -0.0348
  258PNCE   C6B 2318   2.063   7.383   7.372  0.0485  0.2560 -0.2488
  259CHOL   ROH 2319  13.132  10.352   9.016 -0.1252  0.2802  0.1040
  259CHOL    R1 2320  13.032  10.222   8.786  0.1053  0.1936  0.0493
  259CHOL    R2 2321  12.793  10.294   8.666  0.0694 -0.0496 -0.0383
  259CHOL    R3 2322  12.949  10.315   8.444  0.1399  0.1425  0.0281
  259CHOL    R4 2323  12.682  10.400   8.356  0.1960  0.2982  0.0305
  259CHOL    R5 2324  12.806  10.246   8.265  0.1819  0.3645 -0.0903
  259CHOL    C1 2325  12.764  10.481   7.968  0.3359  0.6811  0.1330
  259CHOL    C2 2326  12.578  10.648   7.605  0.0190  0.3643  0.1082
  260XCA    COO 2327  14.227   2.493   9.306  0.3080  0.0990 -0.3683
  260XCA     C1 2328  14.071   2.853   9.169 -0.3032 -0.1632 -0.1129
  260XCA     C2 2329  13.620   2.787   8.923  0.5646  0.1509  0.1755
  260XCA     C3 2330  13.294   2.682   8.709  0.1100  0.3494  0.2693
  260XCA     C4 2331  12.877   2.355   8.568 -0.2179  0.1339 -0.1443
  260XCA     C5 2332  12.781   2.307   8.180 -0.4898  0.2713 -0.1681
  260XCA     C6 2333  12.407   2.175   8.045  0.1544 -0.1048 -0.2989
  261PNCE   AM1 2334   2.809   7.386   8.447  0.0287 -0.3146  0.2221
  261PNCE   AM2 2335   2.478   7.467   8.618  0.0759  0.1830  0.1869
  261PNCE   T1A 2336   2.439   7.295   8.169 -0.2177 -0.2907 -0.1126
  261PNCE   C2A 2337   2.124   7.043   7.831 -0.0851 -0.1291  0.3682
  261PNCE   C3A 2338   1.679   7.222   7.687 -0.0447  0.3004  0.0270
  261PNCE   C1B 2339   2.296   7.767   8.267 -0.1767  0.2444  0.0574
  261PNCE   C2B 2340   2.449   8.224   7.986 -0.1188  0.0492 -0.3262
  261PNCE   C3B 2341   2.625   8.305   7.565  0.1875 -0.0787 -0.1230
  261PNCE   D4B 2342   2.354   8.289   7.246  0.3167  0.1211 -0.0306
  261PNCE   C5B 2343   2.288   8.305   6.694 -0.0701  0.2532 -0.3942
  261PNCE   C6B 2344   2.009   8.306   6.343 -0.2151  0.3537 -0.1439
  262CHOL   ROH 2345   3.719  14.245   4.790  0.0027 -0.1875  0.0918
  262CHOL    R1 2346   3.775  14.136   5.045 -0.0111 -0.0513  0.1520
  262CHOL    R2 2347   4.023  14.157   5.163 -0.0015 -0.0583  0.1140
  262CHOL    R3 2348   3.881  14.263   5.369  0.0556  0.1072  0.0721
  262CHOL    R4 2349   4.138  14.185   5.488  0.0136 -0.0277  0.1075
  262CHOL    R5 2350   3.939  14.127   5.558 -0.0366  0.1237  0.1212
  262CHOL    C1 2351   4.071  14.300   5.871  0.0759  0.1456  0.0644
  262CHOL    C2 2352   4.044  14.100   6.128 -0.4559  0.2323  0.2164
  263PNCE   AM1 2353   8.788   2.969   9.120  0.1378 -0.2874  0.0921
  263PNCE   AM2 2354   9.014   3.234   9.229  0.0074 -0.1135 -0.1004
  263PNCE   T1A 2355   9.098   2.783   8.978 -0.0336  0.2149  0.1155
  263PNCE   C2A 2356   9.307   2.521   8.654  0.0832  0.1990  0.0519
  263PNCE   C3A 2357   9.380   2.253   8.318 -0.1700 -0.2037  0.1633
  263PNCE   C1B 2358   9.138   3.263   8.836 -0.1216  0.2814 -0.1468
  263PNCE   C2B 2359   9.219   3.314   8.433  0.1377 -0.0245  0.0374
  263PNCE   C3B 2360   9.050   3.195   8.078  0.0408  0.1382 -0.1015
  263PNCE   D4B 2361   8.824   3.246   7.729  0.0824 -0.0744 -0.2979
  263PNCE   C5B 2362   8.481   3.000   7.574  0.2355 -0.0050  0.2063
  263PNCE   C6B 2363   8.101   2.842   7.541  0.1760 -0.0249  0.1136
  264CHOL   ROH 2364   9.036  15.015   5.348  0.2020  0.1890 -0.2002
  264CHOL    R1 2365   9.008  15.232   5.528 -0.0198  0.0278 -0.0334
  264CHOL    R2 2366   8.961  15.196   5.798  0.2394 -0.2367 -0.0149
  264CHOL    R3 2367   9.181  15.353   5.825  0.0108  0.1079 -0.0848
  264CHOL    R4 2368   9.112  15.274   6.099  0.3862 -0.2418 -0.0865
  264CHOL    R5 2369   9.141  15.478   6.025 -0.0155 -0.1261  0.0561
  264CHOL    C1 2370   9.407  15.467   6.299  0.2570  0.0789 -0.1938
  264CHOL    C2 2371   9.379  15.262   6.669 -0.0488  0.3759  0.2435
  265XCA    COO 2372  13.324   1.006   8.805  0.1235  0.2267 -0.1223
  265XCA     C1 2373  13.065   1.267   8.530  0.0962 -0.2189 -0.0782
  265XCA     C2 2374  12.983   1.227   8.118  0.4780  0.0916  0.1106
  265XCA     C3 2375  12.696   1.324   7.732 -0.0000  0.2716  0.2630
  265XCA     C4 2376  12.391   1.435   7.522  0.0045 -0.0288  0.0894
  265XCA     C5 2377  12.037   1.556   7.177  0.0072 -0.1762  0.0213
  265XCA     C6 2378  12.019   1.759   6.781  0.4153 -0.1358 -0.1716
  266PNCE   AM1 2379  12.868  13.013   9.197 -0.1262  0.2712  0.2904
  266PNCE   AM2 2380  12.548  12.911   9.176  0.0848  0.1641  0.3470
  266PNCE   T1A 2381  12.846  12.873   8.797 -0.0754  0.1245 -0.1226
  266PNCE   C2A 2382  12.803  12.641   8.436 -0.0102  0.0210 -0.1404
  266PNCE   C3A 2383  12.714  12.332   7.987  0.2778  0.2241 -0.0345
  266PNCE   C1B 2384  12.497  13.251   8.809 -0.0911  0.2036  0.0271
  266PNCE   C2B 2385  12.596  13.342   8.368 -0.1093 -0.0739  0.0756
  266PNCE   C3B 2386  12.429  13.328   7.913 -0.2828 -0.2474 -0.2070
  266PNCE   D4B 2387  12.344  13.141   7.465  0.1048 -0.2796 -0.0938
  266PNCE   C5B 2388  12.119  12.862   7.375 -0.1486 -0.2317  0.2621
  266PNCE   C6B 2389  12.106  12.639   7.010  0.2816  0.0032 -0.3796
  267PNCE   AM1 2390  12.369   7.313   7.739  0.0283 -0.2762  0.4204
  267PNCE   AM2 2391  12.153   7.440   7.928 -0.2374  0.0702 -0.3650
  267PNCE   T1A 2392  12.277   7.374   7.329 -0.0469 -0.0017 -0.2494
  267PNCE   C2A 2393  12.559   7.624   7.015 -0.3140 -0.0979 -0.2076
  267PNCE   C3A 2394  12.862   7.936   6.854 -0.3355  0.1087 -0.3431
  267PNCE   C1B 2395  11.846   7.530   7.493 -0.2122  0.0936  0.0933
  267PNCE   C2B 2396  11.995   7.670   7.082  0.0669  0.2182 -0.1903
  267PNCE   C3B 2397  12.210   7.816   6.726  0.2084 -0.0469  0.1153
  267PNCE   D4B 2398  12.172   7.948   6.339  0.3059  0.0699  0.1986
  267PNCE   C5B 2399  11.924   8.275   6.134  0.0039 -0.0269  0.0043
  267PNCE   C6B 2400  12.200   8.561   5.861  0.2463 -0.0934  0.1397
  268CHOL   ROH 2401   2.052   1.060   7.872  0.0585 -0.1601 -0.0710
  268CHOL    R1 2402   1.992   1.019   7.599  0.1270 -0.1040 -0.0941
  268CHOL    R2 2403   1.990   1.225   7.415  0.0632 -0.0482 -0.0298
  268CHOL    R3 2404   2.164   1.065   7.281  0.1632  0.0749 -0.0504
  268CHOL    R4 2405   2.013   1.205   7.071  0.0952  0.0297 -0.0329
  268CHOL    R5 2406   2.039   0.989   7.091  0.2168  0.0392 -0.0722
  268CHOL    C1 2407   2.190   1.042   6.744  0.2078  0.1907 -0.0541
  268CHOL    C2 2408   2.473   1.061   6.600  0.1973  0.1961  0.1023
  269XCA    COO 2409   5.691  15.835   8.474 -0.0624  0.3017  0.1740
  269XCA     C1 2410   5.696  16.018   8.046  0.2629  0.2065  0.1797
  269XCA     C2 2411   5.828  16.446   7.900 -0.1863  0.0082 -0.2398
  269XCA     C3 2412   5.848  16.628   7.474 -0.2563 -0.0996 -0.1729
  269XCA     C4 2413   5.981  16.941   7.152  0.1671 -0.2803 -0.1534
  269XCA     C5 2414   5.907  17.199   6.861 -0.0241  0.0339  0.0598
  269XCA     C6 2415   5.542  17.492   6.831  0.0018 -0.1419 -0.1949
  270CHOL   ROH 2416  11.599   1.528   5.394 -0.2720  0.1639  0.0444
  270CHOL    R1 2417  11.529   1.438   5.653 -0.1057  0.0276  0.0430
  270CHOL    R2 2418  11.556   1.174   5.731  0.0899  0.0150 -0.0627
  270CHOL    R3 2419  11.701   1.283   5.934  0.1113  0.0309 -0.0860
  270CHOL    R4 2420  11.578   1.044   6.051  0.1096  0.0520 -0.0486
  270CHOL    R5 2421  11.567   1.247   6.129  0.1258  0.0607 -0.0710
  270CHOL    C1 2422  11.727   1.070   6.427  0.1411  0.0885 -0.0621
  270CHOL    C2 2423  11.899   1.054   6.918  0.2633 -0.0235  0.4822
  271XCA    COO 2424  15.307  13.656   5.464  0.0588  0.2075 -0.1111
  271XCA     C1 2425  15.612  13.992   5.337  0.3129  0.2681 -0.1779
  271XCA     C2 2426  15.849  14.334   5.450 -0.0335 -0.1117  0.2860
  271XCA     C3 2427  16.049  14.722   5.637  0.1287  0.1195 -0.0189
  271XCA     C4 2428  16.141  14.999   5.879 -0.2956  0.2967  0.0418
  271XCA     C5 2429  16.096  15.261   6.215  0.0235 -0.3976 -0.2854
  271XCA     C6 2430  15.996  15.680   6.451 -0.3756 -0.0090 -0.0309
  272PNCE   AM1 2431   8.167  10.260   8.401  0.1516 -0.0228 -0.2129
  272PNCE   AM2 2432   8.020   9.997   8.278  0.1182 -0.0953  0.0459
  272PNCE   T1A 2433   8.159  10.579   8.035  0.5880 -0.0062 -0.1728
  272PNCE   C2A 2434   8.266  10.759   7.610  0.1052  0.1557 -0.1636
  272PNCE   C3A 2435   8.167  10.894   7.252  0.1258 -0.3052  0.1605
  272PNCE   C1B 2436   7.960   9.611   8.006  0.1061 -0.3396  0.1262
  272PNCE   C2B 2437   7.702   9.399   7.674 -0.2028 -0.0661  0.0433
  272PNCE   C3B 2438   7.541   9.318   7.310  0.1543 -0.1933  0.0073
  272PNCE   D4B 2439   7.308   9.439   7.025 -0.4986  0.1539 -0.3245
  272PNCE   C5B 2440   7.006   9.352   6.782 -0.2847  0.1172 -0.0866
  272PNCE   C6B 2441   6.809   9.350   6.355  0.1013  0.1160 -0.0511
  273CHOL   ROH 2442  14.013  15.275   5.452  0.0330 -0.1676 -0.0901
  273CHOL    R1 2443  14.080  15.225   5.722  0.0396 -0.1708 -0.0920
  273CHOL    R2 2444  13.911  15.289   5.932  0.0946 -0.0649 -0.0787
  273CHOL    R3 2445  13.944  15.027   5.996 -0.0265 -0.0742 -0.0548
  273CHOL    R4 2446  13.906  15.162   6.253  0.1438 -0.0151 -0.0584
  273CHOL    R5 2447  14.070  15.030   6.199  0.0515 -0.1146 -0.1023
  273CHOL    C1 2448  13.933  14.841   6.500  0.0585  0.0050 -0.0240
  273CHOL    C2 2449  13.818  14.511   6.631  0.2358  0.2630 -0.1266
  274CHOL   ROH 2450  10.304   0.399   5.871 -0.0472 -0.0002 -0.0133
  274CHOL    R1 2451  10.238   0.618   6.038 -0.1013  0.0053 -0.0402
  274CHOL    R2 2452  10.107   0.586   6.280 -0.1562  0.0099 -0.0637
  274CHOL    R3 2453  10.319   0.727   6.376 -0.1848  0.0269 -0.0284
  274CHOL    R4 2454  10.109   0.762   6.577 -0.1853 -0.0579 -0.0240
  274CHOL    R5 2455  10.221   0.920   6.477 -0.2163 -0.0167  0.0166
  274CHOL    C1 2456  10.310   0.997   6.840 -0.2290 -0.0813  0.0324
  274CHOL    C2 2457  10.683   1.328   7.022  0.1178 -0.0957 -0.1084
  275CHOL   ROH 2458   3.003   5.190   8.044 -0.2565  0.0102 -0.0600
  275CHOL    R1 2459   3.057   5.027   7.819  0.0404  0.0702 -0.0345
  275CHOL    R2 2460   2.871   4.977   7.622  0.1044 -0.3490  0.0071
  275CHOL    R3 2461   3.067   5.068   7.458 -0.1004  0.0154 -0.0469
  275CHOL    R4 2462   2.859   4.967   7.277 -0.0291 -0.2755  0.0089
  275CHOL    R5 2463   3.070   4.911   7.277  0.0732  0.0595 -0.0911
  275CHOL    C1 2464   3.036   5.047   6.922 -0.2991  0.1095 -0.0408
  275CHOL    C2 2465   2.708   5.062   6.742 -0.1241  0.1866  0.0398
  276PNCE   AM1 2466   5.293   5.411   7.999  0.2009  0.0391 -0.2799
  276PNCE   AM2 2467   5.096   5.266   7.790  0.0232  0.0806  0.1135
  276PNCE   T1A 2468   5.281   5.673   7.622  0.0407 -0.2657  0.2655
  276PNCE   C2A 2469   5.473   5.990   7.329  0.2466 -0.3401 -0.1524
  276PNCE   C3A 2470   5.725   5.986   6.989 -0.0584  0.1441  0.1099
  276PNCE   C1B 2471   4.893   5.339   7.330  0.1886  0.0281 -0.1468
  276PNCE   C2B 2472   4.653   5.376   6.956 -0.0267 -0.0807 -0.0209
  276PNCE   C3B 2473   4.291   5.075   6.805  0.1147 -0.0149  0.0543
  276PNCE   D4B 2474   4.028   4.923   6.482 -0.1540 -0.1294  0.2856
  276PNCE   C5B 2475   4.357   4.640   6.125  0.0499  0.1886 -0.0168
  276PNCE   C6B 2476   4.590   4.686   5.830 -0.1204 -0.1384  0.0943
  277PNCE   AM1 2477   5.812   1.274   8.656 -0.3139  0.0873  0.2771
  277PNCE   AM2 2478   5.642   1.008   8.687  0.2718 -0.2632  0.2711
  277PNCE   T1A 2479   5.960   1.241   8.272  0.1455  0.1755  0.0421
  277PNCE   C2A 2480   5.963   1.410   7.929  0.0018  0.2751 -0.1270
  277PNCE   C3A 2481   6.199   1.228   7.588  0.2189  0.1185 -0.2619
  277PNCE   C1B 2482   5.607   0.843   8.258  0.0569 -0.0638 -0.0604
  277PNCE   C2B 2483   5.558   1.077   7.915 -0.0927 -0.1938 -0.0813
  277PNCE   C3B 2484   5.337   1.173   7.641  0.3147 -0.1326 -0.1029
  277PNCE   D4B 2485   5.407   1.173   7.239  0.0595  0.1603  0.3514
  277PNCE   C5B 2486   5.074   1.420   6.952 -0.1305  0.0671  0.3218
  277PNCE   C6B 2487   4.747   1.293   6.650 -0.4306  0.2053 -0.3436
  278PNCE   AM1 2488  14.903   5.460   8.423 -0.1236  0.3968 -0.1411
  278PNCE   AM2 2489  14.550   5.517   8.367 -0.1881  0.2117  0.1880
  278PNCE   T1A 2490  14.809   5.374   8.001 -0.0861 -0.0903  0.0078
  278PNCE   C2A 2491  14.573   5.508   7.583 -0.0927 -0.1076  0.3065
  278PNCE   C3A 2492  14.288   5.761   7.416  0.0342  0.0192 -0.2420
  278PNCE   C1B 2493  14.546   5.907   8.194 -0.1140 -0.2443 -0.0162
  278PNCE   C2B 2494  14.638   5.957   7.756 -0.1074  0.1082 -0.1148
  278PNCE   C3B 2495  14.787   5.963   7.347  0.1675  0.1991  0.0185
  278PNCE   D4B 2496  14.912   6.220   6.990 -0.0167  0.2839 -0.2121
  278PNCE   C5B 2497  15.074   6.143   6.639 -0.0187  0.1119 -0.4569
  278PNCE   C6B 2498  15.280   5.912   6.339  0.3608  0.0192  0.1015
  279CHOL   ROH 2499   6.378   6.346   8.013  0.4301 -0.0174  0.1874
  279CHOL    R1 2500   6.562   6.344   7.798  0.2369 -0.0265  0.0179
  279CHOL    R2 2501   6.507   6.225   7.556  0.0059 -0.0136  0.0613
  279CHOL    R3 2502   6.572   6.469   7.457 -0.0626 -0.0158  0.0106
  279CHOL    R4 2503   6.664   6.279   7.253  0.1174 -0.0408  0.1135
  279CHOL    R5 2504   6.783   6.435   7.348  0.0027  0.0458  0.1167
  279CHOL    C1 2505   6.816   6.540   6.983  0.1181 -0.0588  0.0963
  279CHOL    C2 2506   6.669   6.845   6.645  0.1522  0.0927 -0.2234
  280PNCE   AM1 2507   2.275   3.611   8.613  0.1095 -0.0261  0.2421
  280PNCE   AM2 2508   2.168   3.965   8.778 -0.3311 -0.1227  0.0481
  280PNCE   T1A 2509   2.126   3.183   8.452  0.0383 -0.2051 -0.4141
  280PNCE   C2A 2510   1.972   2.952   8.057  0.0128  0.2816  0.1174
  280PNCE   C3A 2511   1.786   3.050   7.643  0.0730  0.0492  0.1308
  280PNCE   C1B 2512   2.179   3.883   8.246 -0.0182 -0.0873  0.1188
  280PNCE   C2B 2513   2.328   3.489   8.125 -0.1583 -0.2132  0.2034
  280PNCE   C3B 2514   2.197   3.255   7.751 -0.1026 -0.0344  0.0368
  280PNCE   D4B 2515   2.124   3.235   7.308 -0.0418 -0.0541  0.1502
  280PNCE   C5B 2516   2.037   2.854   7.185 -0.0035 -0.0449 -0.0399
  280PNCE   C6B 2517   2.186   2.509   7.359 -0.0866  0.0579  0.0775
  281XCA    COO 2518   7.719   7.413   8.091 -0.0927 -0.0108  0.0138
  281XCA     C1 2519   7.421   7.517   7.769 -0.0474 -0.1116 -0.0807
  281XCA     C2 2520   7.524   7.532   7.385  0.1410  0.1277 -0.1853
  281XCA     C3 2521   7.499   7.515   6.971 -0.1071 -0.0627  0.0994
  281XCA     C4 2522   7.645   7.452   6.528 -0.1452  0.1076  0.1417
  281XCA     C5 2523   7.530   7.378   6.212  0.2238  0.1356  0.1233
  281XCA     C6 2524   7.641   7.148   5.931  0.0256  0.2572  0.0139
  282CHOL   ROH 2525  15.647   2.001   4.746  0.3069 -0.2320  0.1840
  282CHOL    R1 2526  15.473   1.997   4.969  0.1807 -0.1099  0.0888
  282CHOL    R2 2527  15.360   1.765   5.065  0.0809 -0.0488  0.1172
  282CHOL    R3 2528  15.471   1.847   5.300 -0.0356  0.0201  0.1488
  282CHOL    R4 2529  15.252   1.668   5.379  0.2379 -0.3620  0.0792
  282CHOL    R5 2530  15.283   1.873   5.447 -0.0769 -0.3363  0.1693
  282CHOL    C1 2531  15.292   1.689   5.782  0.2201 -0.4797  0.0869
  282CHOL    C2 2532  15.260   1.524   6.124  0.2337 -0.0116  0.0282
  283CHOL   ROH 2533  10.482  13.923   8.408 -0.2189  0.1075  0.0552
  283CHOL    R1 2534  10.468  13.889   8.127 -0.1886  0.1312  0.0479
  283CHOL    R2 2535  10.558  14.082   7.949  0.0569  0.0571  0.0631
  283CHOL    R3 2536  10.705  13.875   7.851 -0.1309 -0.0991  0.1134
  283CHOL    R4 2537  10.697  14.070   7.633  0.1715 -0.1163  0.1209
  283CHOL    R5 2538  10.641  13.860   7.621 -0.0469 -0.0400  0.0997
  283CHOL    C1 2539  10.916  13.870   7.357  0.0619 -0.3638  0.2018
  283CHOL    C2 2540  10.975  13.597   7.130 -0.1250 -0.0617 -0.1212
  284CHOL   ROH 2541   7.882   7.848   4.701  0.1920 -0.0771  0.1089
  284CHOL    R1 2542   7.760   7.756   4.940  0.1106 -0.0017  0.0975
  284CHOL    R2 2543   7.840   7.841   5.191  0.0812  0.0152  0.1048
  284CHOL    R3 2544   7.577   7.905   5.217  0.0950  0.1006  0.0318
  284CHOL    R4 2545   7.680   7.907   5.490  0.0247  0.1065  0.0544
  284CHOL    R5 2546   7.508   7.796   5.418  0.0096  0.1516  0.0285
  284CHOL    C1 2547   7.341   8.005   5.689  0.0047  0.2398 -0.0434
  284CHOL    C2 2548   6.993   8.216   5.717  0.0003 -0.0601  0.2455
  285PNCE   AM1 2549  10.196  11.695   8.411 -0.0930 -0.1355 -0.0949
  285PNCE   AM2 2550   9.966  11.572   8.557  0.0097  0.0130  0.0773
  285PNCE   T1A 2551  10.429  11.969   8.127  0.1937  0.0864  0.0062
  285PNCE   C2A 2552  10.554  11.988   7.763 -0.1090  0.1215  0.3638
  285PNCE   C3A 2553  10.903  12.088   7.538  0.1838  0.0057 -0.0728
  285PNCE   C1B 2554   9.947  11.386   8.108  0.1693  0.4823 -0.0869
  285PNCE   C2B 2555   9.897  11.354   7.737  0.0301  0.1380  0.1864
  285PNCE   C3B 2556   9.508  11.612   7.547 -0.3732 -0.3346  0.1242
  285PNCE   D4B 2557   9.501  11.554   7.143 -0.2321 -0.0025 -0.0192
  285PNCE   C5B 2558   9.234  11.123   7.053 -0.1252  0.0959 -0.3537
  285PNCE   C6B 2559   9.123  10.643   7.063  0.0532  0.1340  0.0191
  286CHOL   ROH 2560   4.634   9.856   5.314 -0.0391  0.1712 -0.2733
  286CHOL    R1 2561   4.356   9.859   5.369  0.0317  0.2060  0.1101
  286CHOL    R2 2562   4.194   9.640   5.326 -0.1360  0.3695 -0.1238
  286CHOL    R3 2563   4.128   9.678   5.587  0.2395 -0.1265  0.0577
  286CHOL    R4 2564   3.952   9.462   5.497 -0.3075  0.4349 -0.2953
  286CHOL    R5 2565   3.891   9.647   5.594  0.1738  0.3424  0.2347
  286CHOL    C1 2566   3.750   9.393   5.842 -0.0549  0.0073 -0.2248
  286CHOL    C2 2567   3.743   9.084   6.104  0.0960 -0.0549  0.0784
  287PNCE   AM1 2568   0.822  14.473   8.784 -0.0652 -0.1201 -0.1868
  287PNCE   AM2 2569   1.000  14.241   8.867 -0.3487  0.0401  0.2042
  287PNCE   T1A 2570   0.707  14.369   8.391 -0.0423 -0.1414  0.1138
  287PNCE   C2A 2571   0.578  14.196   7.974 -0.2854 -0.0030 -0.2854
  287PNCE   C3A 2572   0.855  14.224   7.631 -0.0057  0.0620  0.0073
  287PNCE   C1B 2573   1.280  14.277   8.526  0.0762  0.2333 -0.1031
  287PNCE   C2B 2574   1.611  14.419   8.113  0.0913 -0.1185  0.2150
  287PNCE   C3B 2575   1.684  14.668   7.822  0.0463  0.0038 -0.2360
  287PNCE   D4B 2576   1.321  15.001   7.576 -0.0187  0.1106  0.1980
  287PNCE   C5B 2577   0.993  15.008   7.215  0.2147 -0.0680 -0.1896
  287PNCE   C6B 2578   0.612  15.304   7.253  0.1065 -0.0457  0.1197
  288XCA    COO 2579  10.664  14.297   8.668  0.1049  0.1180  0.0050
  288XCA     C1 2580  10.666  14.522   8.344  0.0675  0.1618 -0.0767
  288XCA     C2 2581  10.552  14.769   8.065 -0.2882 -0.0092  0.1742
  288XCA     C3 2582  10.410  14.893   7.628  0.1354 -0.2040  0.1382
  288XCA     C4 2583  10.441  15.414   7.520 -0.3703  0.4077 -0.0835
  288XCA     C5 2584  10.620  15.716   7.187  0.2351  0.1345  0.0871
  288XCA     C6 2585  10.772  16.062   6.911  0.0083  0.0871 -0.0690
  289CHOL   ROH 2586  10.632   6.028   4.570 -0.2441 -0.0366  0.0004
  289CHOL    R1 2587  10.657   6.072   4.848 -0.1206 -0.2287  0.0216
  289CHOL    R2 2588  10.873   5.982   4.994  0.1305 -0.0148 -0.2039
  289CHOL    R3 2589  10.891   6.243   5.069 -0.2300 -0.0415 -0.0060
  289CHOL    R4 2590  11.039   6.097   5.275  0.0642  0.0176 -0.1779
  289CHOL    R5 2591  10.876   6.237   5.308 -0.1348 -0.2485 -0.0050
  289CHOL    C1 2592  11.152   6.408   5.508 -0.3131  0.0115  0.0230
  289CHOL    C2 2593  11.131   6.457   5.900  0.0903 -0.0559  0.2731
  290PNCE   AM1 2594  13.689  10.248   8.536  0.2075  0.1708 -0.0614
  290PNCE   AM2 2595  13.501  10.122   8.826 -0.2528  0.1184 -0.0488
  290PNCE   T1A 2596  13.866  10.323   8.213  0.1892 -0.0691 -0.0825
  290PNCE   C2A 2597  13.788  10.393   7.735  0.3433  0.3098 -0.0203
  290PNCE   C3A 2598  13.589  10.477   7.255  0.1633  0.1049  0.2628
  290PNCE   C1B 2599  13.283   9.915   8.453 -0.1720  0.0158 -0.1763
  290PNCE   C2B 2600  13.016   9.892   8.067 -0.0633 -0.0713  0.0600
  290PNCE   C3B 2601  12.787  10.076   7.769 -0.1428 -0.1182 -0.1523
  290PNCE   D4B 2602  12.349  10.222   7.686 -0.0336 -0.1169  0.1301
  290PNCE   C5B 2603  12.301  10.387   7.283 -0.2145 -0.1793 -0.1766
  290PNCE   C6B 2604  12.200  10.528   6.782 -0.1415  0.0705 -0.1660
  291XCA    COO 2605   3.776  12.147   4.508 -0.1985  0.0608 -0.1905
  291XCA     C1 2606   3.544  12.144   4.981 -0.2336 -0.1961  0.1778
  291XCA     C2 2607   3.221  11.954   5.096  0.0096  0.2033  0.1562
  291XCA     C3 2608   2.782  11.713   5.088 -0.3221  0.1179 -0.1732
  291XCA     C4 2609   2.523  11.587   5.439  0.3109  0.1855  0.0471
  291XCA     C5 2610   2.337  11.839   5.731 -0.1300  0.1538 -0.0291
  291XCA     C6 2611   2.113  12.008   6.110 -0.1335 -0.1728  0.1642
  292CHOL   ROH 2612   0.501  13.921   6.682 -0.0374  0.1262  0.0787
  292CHOL    R1 2613   0.301  13.768   6.553  0.1874  0.0364 -0.1727
  292CHOL    R2 2614   0.032  13.787   6.618  0.1547 -0.5206 -0.0785
  292CHOL    R3 2615   0.005  13.836   6.352  0.0412 -0.0584  0.0095
  292CHOL    R4 2616  -0.258  13.739   6.437  0.1191 -0.3309 -0.0735
  292CHOL    R5 2617  -0.137  13.660   6.273  0.0991  0.0141 -0.2580
  292CHOL    C1 2618  -0.452  13.756   6.081 -0.0081  0.2134  0.0120
  292CHOL    C2 2619  -0.504  14.079   5.855 -0.0353 -0.4722  0.1048
  293CHOL   ROH 2620   5.451  10.849   8.128  0.1250  0.1562 -0.0969
  293CHOL    R1 2621   5.457  10.629   7.951  0.1138  0.0625  0.0178
  293CHOL    R2 2622   5.388  10.651   7.684  0.0832 -0.0807  0.0143
  293CHOL    R3 2623   5.634  10.540   7.645  0.0827 -0.0922  0.0431
  293CHOL    R4 2624   5.474  10.447   7.418  0.1566  0.0772 -0.0844
  293CHOL    R5 2625   5.588  10.323   7.556  0.0832 -0.0298 -0.1159
  293CHOL    C1 2626   5.754  10.225   7.227  0.1989  0.1584 -0.1149
  293CHOL    C2 2627   5.993  10.077   6.958  0.0009  0.0866  0.1518
  294PNCE   AM1 2628   3.432  14.451   8.419 -0.1143  0.2068 -0.2749
  294PNCE   AM2 2629   3.760  14.517   8.491 -0.1342  0.3521 -0.0422
  294PNCE   T1A 2630   3.117  14.469   8.026 -0.0007 -0.0163 -0.3358
  294PNCE   C2A 2631   2.966  14.523   7.628  0.0242 -0.0268 -0.2033
  294PNCE   C3A 2632   2.842  14.725   7.369  0.1082  0.0350 -0.0501
  294PNCE   C1B 2633   3.901  14.943   8.179  0.1805  0.0418 -0.0363
  294PNCE   C2B 2634   4.132  14.985   7.794 -0.2105 -0.1091  0.0920
  294PNCE   C3B 2635   4.429  14.735   7.402 -0.0511 -0.2232  0.1022
  294PNCE   D4B 2636   4.345  14.477   7.069  0.2473  0.0375 -0.0310
  294PNCE   C5B 2637   4.542  14.271   6.613 -0.0461 -0.0077  0.3122
  294PNCE   C6B 2638   4.891  14.438   6.366 -0.0555  0.1668  0.1091
  295CHOL   ROH 2639   5.359  13.948   6.035 -0.0720  0.1501  0.0417
  295CHOL    R1 2640   5.267  14.022   6.292 -0.0181  0.0384  0.0934
  295CHOL    R2 2641   5.015  13.958   6.384 -0.0212  0.0578  0.0911
  295CHOL    R3 2642   5.153  13.851   6.592 -0.0247 -0.0893  0.0193
  295CHOL    R4 2643   4.921  13.981   6.716  0.1656  0.1540  0.1395
  295CHOL    R5 2644   5.130  14.012   6.768  0.2298 -0.0633  0.0346
  295CHOL    C1 2645   4.995  13.893   7.104  0.2710  0.0718  0.1003
  295CHOL    C2 2646   5.182  14.106   7.446  0.1583 -0.3166 -0.0358
  296PNCE   AM1 2647  12.381  10.072   4.687 -0.3415 -0.1886 -0.0310
  296PNCE   AM2 2648  12.274   9.721   4.739  0.0093  0.2383 -0.1836
  296PNCE   T1A 2649  12.666   9.955   4.965  0.0129  0.2517 -0.1162
  296PNCE   C2A 2650  12.977   9.787   5.183 -0.0649 -0.0640 -0.0929
  296PNCE   C3A 2651  13.329   9.824   4.980  0.2037  0.1161 -0.1966
  296PNCE   C1B 2652  12.466   9.410   4.891  0.1252  0.0109 -0.0227
  296PNCE   C2B 2653  12.688   9.054   5.161 -0.2606 -0.0748 -0.1267
  296PNCE   C3B 2654  12.951   8.719   5.265  0.0468 -0.2977  0.0381
  296PNCE   D4B 2655  13.259   8.652   5.617 -0.2145 -0.1599  0.0492
  296PNCE   C5B 2656  13.153   8.396   5.989  0.3312 -0.2197  0.0143
  296PNCE   C6B 2657  12.953   8.663   6.300 -0.0816 -0.1095 -0.0278
  297XCA    COO 2658   0.854  11.730   8.269 -0.1198  0.1292 -0.1070
  297XCA     C1 2659   0.636  12.049   8.235  0.0817  0.0159 -0.1735
  297XCA     C2 2660   0.437  12.353   7.991 -0.0025  0.1121  0.2724
  297XCA     C3 2661   0.193  12.703   7.757 -0.2246 -0.1444  0.0679
  297XCA     C4 2662  -0.103  12.947   7.345  0.1166 -0.1554 -0.1153
  297XCA     C5 2663  -0.138  12.876   6.865 -0.1933  0.1781 -0.0770
  297XCA     C6 2664  -0.337  12.580   6.630 -0.0362 -0.3184  0.0102
  298CHOL   ROH 2665  13.680  10.618   6.844  0.0218 -0.0625  0.0921
  298CHOL    R1 2666  13.961  10.588   6.862  0.0393  0.0404 -0.0067
  298CHOL    R2 2667  14.084  10.341   6.871  0.1324  0.0893 -0.0679
  298CHOL    R3 2668  14.225  10.439   6.660  0.0305  0.1549 -0.1072
  298CHOL    R4 2669  14.397  10.231   6.774  0.0955  0.1243 -0.2306
  298CHOL    R5 2670  14.452  10.438   6.734  0.0671  0.1450 -0.2017
  298CHOL    C1 2671  14.711  10.258   6.519 -0.0218  0.2063 -0.3621
  298CHOL    C2 2672  15.040   9.992   6.495 -0.3481 -0.0023  0.1913
  299PNCE   AM1 2673  12.451   2.709   9.113  0.1909  0.3980 -0.0311
  299PNCE   AM2 2674  12.543   2.971   9.246  0.0719 -0.3381 -0.1194
  299PNCE   T1A 2675  12.470   2.589   8.663 -0.0166  0.1148  0.0355
  299PNCE   C2A 2676  12.338   2.646   8.260 -0.3132  0.0078  0.0723
  299PNCE   C3A 2677  12.139   2.877   7.978  0.0418 -0.0480  0.1682
  299PNCE   C1B 2678  12.567   3.205   8.834  0.1361 -0.0667  0.0884
  299PNCE   C2B 2679  12.615   3.202   8.442 -0.1339  0.3743  0.1854
  299PNCE   C3B 2680  12.499   3.219   8.162 -0.2147 -0.1472  0.2429
  299PNCE   D4B 2681  12.552   3.225   7.723  0.1830  0.0572 -0.0565
  299PNCE   C5B 2682  12.348   2.840   7.474  0.1746 -0.0730  0.2993
  299PNCE   C6B 2683  11.977   2.682   7.128  0.1955 -0.1527  0.0534
  300XCA    COO 2684   2.621  11.676   3.872  0.1163  0.1020 -0.2104
  300XCA     C1 2685   2.303  11.768   4.233 -0.0613  0.0108 -0.3771
  300XCA     C2 2686   1.935  11.631   4.481 -0.1301 -0.0473  0.0102
  300XCA     C3 2687   1.836  11.892   4.667 -0.0572  0.0079  0.0535
  300XCA     C4 2688   1.820  11.915   5.043  0.1637  0.1252 -0.1888
  300XCA     C5 2689   1.694  11.985   5.460 -0.1188  0.0076 -0.1992
  300XCA     C6 2690   1.649  12.074   5.818 -0.0518  0.3696  0.1014
  301CHOL   ROH 2691   7.867   4.737   6.119 -0.0015 -0.1255  0.0154
  301CHOL    R1 2692   7.589   4.776   6.086 -0.0049 -0.1105  0.0620
  301CHOL    R2 2693   7.449   4.675   5.870 -0.0461 -0.1024  0.0855
  301CHOL    R3 2694   7.293   4.566   6.064 -0.0201 -0.0944  0.1110
  301CHOL    R4 2695   7.134   4.542   5.819 -0.1459  0.0955  0.1711
  301CHOL    R5 2696   7.070   4.633   6.007 -0.0101  0.0554  0.2384
  301CHOL    C1 2697   6.805   4.361   5.971 -0.1796  0.2183  0.2449
  301CHOL    C2 2698   6.621   4.070   6.005 -0.0773  0.0510 -0.0167
  302CHOL   ROH 2699   9.336  12.261   4.543  0.1964  0.1036  0.1250
  302CHOL    R1 2700   9.341  12.014   4.680  0.3027 -0.0155 -0.0859
  302CHOL    R2 2701   9.574  11.875   4.730  0.4036  0.1978  0.0662
  302CHOL    R3 2702   9.488  11.885   4.987  0.0835 -0.1167 -0.0223
  302CHOL    R4 2703   9.703  11.687   4.989  0.4148  0.2382  0.0896
  302CHOL    R5 2704   9.500  11.658   5.063  0.3698 -0.1499 -0.1625
  302CHOL    C1 2705   9.697  11.586   5.382  0.1210 -0.0335  0.0200
  302CHOL    C2 2706   9.761  11.449   5.731  0.1358  0.0967 -0.1364
  303XCA    COO 2707  10.817  12.209   8.459 -0.1495 -0.0373 -0.1301
  303XCA     C1 2708  10.929  12.283   8.009  0.0147  0.1524 -0.0519
  303XCA     C2 2709  11.142  12.515   7.701 -0.1811 -0.3310 -0.1977
  303XCA     C3 2710  11.230  12.483   7.283  0.1377 -0.2500 -0.0817
  303XCA     C4 2711  11.610  12.429   6.966  0.4040 -0.1236 -0.0187
  303XCA     C5 2712  11.987  12.183   6.899  0.1189  0.0973 -0.1486
  303XCA     C6 2713  12.053  11.832   7.169  0.0067  0.2714 -0.2677
  304PNCE   AM1 2714  12.343  12.468   8.721  0.1249 -0.1279 -0.0338
  304PNCE   AM2 2715  12.487  12.272   8.474  0.3499 -0.0994 -0.1924
  304PNCE   T1A 2716  11.987  12.315   8.417 -0.0020 -0.0258 -0.0516
  304PNCE   C2A 2717  11.787  11.927   8.335 -0.2551 -0.0964  0.1297
  304PNCE   C3A 2718  11.477  11.565   8.151 -0.0007 -0.1212  0.1167
  304PNCE   C1B 2719  12.322  11.958   8.099  0.3736 -0.3941  0.1801
  304PNCE   C2B 2720  11.962  11.668   7.958  0.3141 -0.0378 -0.0761
  304PNCE   C3B 2721  11.699  11.397   7.724 -0.2936 -0.0507  0.1410
  304PNCE   D4B 2722  11.841  11.297   7.280  0.0275  0.0807  0.0006
  304PNCE   C5B 2723  11.803  10.827   7.148 -0.5456  0.3588  0.0754
  304PNCE   C6B 2724  11.698  10.353   7.104 -0.2594 -0.5306 -0.2090
  305CHOL   ROH 2725   4.630  12.550   8.339  0.0342 -0.1445 -0.0295
  305CHOL    R1 2726   4.663  12.728   8.122 -0.0722 -0.1365 -0.0402
  305CHOL    R2 2727   4.866  12.701   7.936 -0.0763 -0.0480 -0.0624
  305CHOL    R3 2728   4.660  12.706   7.759 -0.0995 -0.1537 -0.0380
  305CHOL    R4 2729   4.891  12.800   7.606 -0.1597 -0.0934 -0.0822
  305CHOL    R5 2730   4.700  12.901   7.626 -0.1922 -0.1631 -0.0758
  305CHOL    C1 2731   4.713  12.862   7.247 -0.2302 -0.2190 -0.0708
  305CHOL    C2 2732   4.668  12.973   6.881 -0.2252  0.0263 -0.0947
  306CHOL   ROH 2733   9.022  12.139   7.543 -0.1051 -0.1029 -0.0941
  306CHOL    R1 2734   8.905  12.336   7.376 -0.1434 -0.0421  0.0036
  306CHOL    R2 2735   8.849  12.291   7.109 -0.1275  0.0820 -0.0202
  306CHOL    R3 2736   8.600  12.370   7.181 -0.1467 -0.0071  0.0140
  306CHOL    R4 2737   8.574  12.291   6.901 -0.0839  0.2804 -0.0801
  306CHOL    R5 2738   8.514  12.481   6.988 -0.1125  0.1906  0.1078
  306CHOL    C1 2739   8.179  12.365   6.848 -0.0767  0.3124 -0.0830
  306CHOL    C2 2740   7.933  12.323   6.574  0.5230 -0.0984 -0.0439
  307CHOL   ROH 2741  12.703  14.775   5.032 -0.0771 -0.3283  0.0439
  307CHOL    R1 2742  12.885  14.871   5.226 -0.0791 -0.1180 -0.0563
  307CHOL    R2 2743  12.830  15.088   5.388 -0.2211 -0.1512 -0.0586
  307CHOL    R3 2744  12.890  14.913   5.587  0.0522 -0.0674 -0.0635
  307CHOL    R4 2745  12.896  15.177   5.715 -0.0691 -0.0380 -0.1189
  307CHOL    R5 2746  13.055  15.028   5.719  0.0526  0.0874 -0.1961
  307CHOL    C1 2747  12.991  15.065   6.093  0.2758  0.1068 -0.1586
  307CHOL    C2 2748  13.038  15.270   6.467  0.1037  0.3058  0.0593
  308XCA    COO 2749  15.289   3.704   4.461  0.1330 -0.1878 -0.0487
  308XCA     C1 2750  15.237   3.628   4.900 -0.0856 -0.3044  0.2579
  308XCA     C2 2751  14.957   3.431   5.169  0.0371  0.1611  0.3036
  308XCA     C3 2752  14.947   3.670   5.544 -0.0015  0.3447  0.1349
  308XCA     C4 2753  14.802   3.777   5.985 -0.2633  0.1698 -0.3799
  308XCA     C5 2754  14.743   3.813   6.444  0.0262  0.2450  0.0426
  308XCA     C6 2755  14.704   3.977   6.864  0.0797 -0.2351  0.0175
  309CHOL   ROH 2756   3.174  12.254   4.702 -0.1337 -0.0084 -0.1271
  309CHOL    R1 2757   3.264  12.480   4.846 -0.2475 -0.0221 -0.0334
  309CHOL    R2 2758   3.141  12.567   5.077 -0.1812 -0.2899  0.1072
  309CHOL    R3 2759   3.392  12.546   5.180 -0.0934 -0.1327 -0.0693
  309CHOL    R4 2760   3.245  12.711   5.374 -0.0288 -0.1360 -0.0185
  309CHOL    R5 2761   3.434  12.761   5.278 -0.1235 -0.0783 -0.1760
  309CHOL    C1 2762   3.541  12.775   5.644  0.1425  0.1011 -0.2575
  309CHOL    C2 2763   3.424  12.904   5.896 -0.1097  0.0878 -0.0194
  310CHOL   ROH 2764   6.383   5.860   6.041  0.4845 -0.0006 -0.2744
  310CHOL    R1 2765   6.227   5.739   5.839  0.1675 -0.1079  0.0253
  310CHOL    R2 2766   5.956   5.694   5.868  0.1091  0.3521  0.2840
  310CHOL    R3 2767   5.940   5.833   5.635  0.1779 -0.0101  0.0545
  310CHOL    R4 2768   5.704   5.659   5.633 -0.0027  0.2151  0.4213
  310CHOL    R5 2769   5.855   5.675   5.476 -0.0324 -0.1927  0.3384
  310CHOL    C1 2770   5.544   5.769   5.277 -0.0030 -0.2048  0.2859
  310CHOL    C2 2771   5.657   5.969   4.993 -0.1003  0.0903  0.1139
  311XCA    COO 2772   8.771   5.286   8.598  0.3925  0.1247  0.1500
  311XCA     C1 2773   8.921   4.932   8.386  0.2033  0.1086 -0.0924
  311XCA     C2 2774   9.150   4.595   8.126 -0.1660 -0.1565  0.0123
  311XCA     C3 2775   9.303   4.300   7.920 -0.0342 -0.0445 -0.1802
  311XCA     C4 2776   9.590   4.192   7.636 -0.1566  0.0708  0.1377
  311XCA     C5 2777   9.960   4.129   7.519 -0.1100  0.0518  0.1821
  311XCA     C6 2778  10.341   4.320   7.368  0.3258  0.0845 -0.0067
  312PNCE   AM1 2779   5.023   2.611   9.096  0.0156  0.2344 -0.0776
  312PNCE   AM2 2780   5.357   2.689   9.081 -0.0637 -0.1686  0.1620
  312PNCE   T1A 2781   5.103   2.255   8.705  0.2060 -0.0223  0.2572
  312PNCE   C2A 2782   5.010   2.049   8.372  0.1945 -0.0932 -0.2117
  312PNCE   C3A 2783   4.891   1.728   8.338 -0.0069  0.0165  0.1592
  312PNCE   C1B 2784   5.645   2.540   8.797  0.1524 -0.1990 -0.0008
  312PNCE   C2B 2785   5.784   2.327   8.330 -0.0571 -0.0489  0.1948
  312PNCE   C3B 2786   5.503   2.144   8.138  0.0597 -0.0124 -0.0451
  312PNCE   D4B 2787   5.136   1.996   7.889 -0.2616 -0.3383  0.2965
  312PNCE   C5B 2788   4.669   2.021   7.959  0.1382  0.2103  0.0799
  312PNCE   C6B 2789   4.437   2.411   8.038 -0.0293  0.0835  0.2422
  313PNCE   AM1 2790  12.313   6.651   7.933  0.0760  0.1642 -0.0063
  313PNCE   AM2 2791  12.131   6.849   7.942 -0.2277 -0.0222 -0.0309
  313PNCE   T1A 2792  12.071   6.521   7.539  0.1361 -0.1513  0.0016
  313PNCE   C2A 2793  11.947   6.618   7.072  0.0310 -0.1257 -0.3578
  313PNCE   C3A 2794  12.188   6.674   6.709  0.1270  0.0916  0.0073
  313PNCE   C1B 2795  11.946   7.002   7.490 -0.1119 -0.0761  0.0594
  313PNCE   C2B 2796  11.851   7.118   7.121 -0.4249  0.2448 -0.1603
  313PNCE   C3B 2797  11.737   6.968   6.745 -0.0517  0.0936  0.0204
  313PNCE   D4B 2798  11.968   6.947   6.325  0.0863  0.0948  0.1199
  313PNCE   C5B 2799  12.221   6.603   6.181 -0.0609 -0.2062  0.2055
  313PNCE   C6B 2800  12.455   6.290   5.999 -0.0447  0.2761 -0.0188
  314PNCE   AM1 2801  14.445   5.098   8.099  0.1051 -0.0615  0.0000
  314PNCE   AM2 2802  14.591   4.926   8.333 -0.1342  0.0273 -0.3191
  314PNCE   T1A 2803  14.539   5.044   7.719 -0.0856 -0.1103  0.0457
  314PNCE   C2A 2804  14.663   5.065   7.250 -0.0618  0.1048 -0.0176
  314PNCE   C3A 2805  14.889   5.004   6.940 -0.1506  0.4795  0.0355
  314PNCE   C1B 2806  14.500   4.590   8.002  0.3185 -0.2601 -0.1962
  314PNCE   C2B 2807  14.344   4.615   7.503  0.0200 -0.3956 -0.0618
  314PNCE   C3B 2808  13.945   4.679   7.408  0.1125  0.2504  0.3163
  314PNCE   D4B 2809  13.501   4.747   7.618 -0.2279 -0.1688  0.1319
  314PNCE   C5B 2810  13.242   4.894   8.005  0.1158  0.0322 -0.0742
  314PNCE   C6B 2811  13.262   5.163   8.405  0.0799  0.2851 -0.3203
  315XCA    COO 2812   1.745  15.031   4.878  0.2496 -0.1413  0.2072
  315XCA     C1 2813   1.673  14.775   5.222  0.0682  0.0044 -0.1375
  315XCA     C2 2814   1.748  14.607   5.679 -0.0993  0.1242  0.0327
  315XCA     C3 2815   1.595  14.557   6.209 -0.0030 -0.0717 -0.2016
  315XCA     C4 2816   1.794  14.484   6.568 -0.0336 -0.1041  0.1212
  315XCA     C5 2817   2.247  14.436   6.737  0.2398  0.3043  0.2637
  315XCA     C6 2818   2.631  14.038   6.823  0.0591 -0.2952 -0.2578
  316PNCE   AM1 2819   9.375   3.685   9.053 -0.1077  0.4658 -0.0866
  316PNCE   AM2 2820   9.501   3.357   9.144  0.1412 -0.0878  0.0041
  316PNCE   T1A 2821   9.505   3.624   8.640 -0.1917 -0.0098 -0.0634
  316PNCE   C2A 2822   9.623   3.424   8.252 -0.3395 -0.2328  0.1571
  316PNCE   C3A 2823   9.903   3.216   7.924 -0.1338  0.0909  0.0617
  316PNCE   C1B 2824   9.565   3.096   8.752 -0.0579 -0.2447  0.1043
  316PNCE   C2B 2825   9.494   2.894   8.256  0.2120 -0.1540 -0.0139
  316PNCE   C3B 2826   9.577   2.649   7.848 -0.0070  0.1700  0.2914
  316PNCE   D4B 2827   9.876   2.834   7.463 -0.1652 -0.0115 -0.2037
  316PNCE   C5B 2828  10.281   2.956   7.537 -0.1288  0.0054  0.3740
  316PNCE   C6B 2829  10.668   2.720   7.346 -0.0577  0.2964  0.0972
  317XCA    COO 2830   1.121   7.820   8.345  0.1164 -0.1502 -0.2309
  317XCA     C1 2831   0.994   7.835   7.939  0.3545  0.0020 -0.1061
  317XCA     C2 2832   0.727   7.645   7.642 -0.1634  0.0168  0.0818
  317XCA     C3 2833   0.492   7.618   7.231  0.0513 -0.1182 -0.0689
  317XCA     C4 2834   0.343   7.615   6.863  0.0043  0.2663 -0.1807
  317XCA     C5 2835   0.476   7.858   6.461  0.1554  0.1217  0.1005
  317XCA     C6 2836   0.538   8.271   6.359  0.2788 -0.2213  0.1433
  318PNCE   AM1 2837   4.696   5.480   8.359 -0.0124 -0.3328 -0.1895
  318PNCE   AM2 2838   4.915   5.774   8.264  0.1372  0.2050  0.0043
  318PNCE   T1A 2839   4.360   5.345   8.176  0.2433  0.1963 -0.0760
  318PNCE   C2A 2840   4.221   5.268   7.866 -0.1991  0.0687 -0.0133
  318PNCE   C3A 2841   4.374   5.289   7.333  0.0013 -0.0715  0.0551
  318PNCE   C1B 2842   5.052   5.981   7.937  0.2513  0.1404  0.5932
  318PNCE   C2B 2843   5.071   6.204   7.557 -0.1857 -0.1382 -0.1050
  318PNCE   C3B 2844   5.084   6.343   7.212 -0.1392  0.0031 -0.0330
  318PNCE   D4B 2845   5.134   6.044   6.881 -0.3626  0.1053  0.2066
  318PNCE   C5B 2846   5.149   5.610   7.056  0.0068 -0.1350 -0.0839
  318PNCE   C6B 2847   5.230   5.196   6.958  0.0712  0.3265  0.0134
  319PNCE   AM1 2848  14.376  12.640   8.540  0.4107 -0.0843 -0.0917
  319PNCE   AM2 2849  14.614  12.508   8.311 -0.2157 -0.0144  0.0066
  319PNCE   T1A 2850  14.540  13.005   8.364 -0.1282  0.0096  0.1570
  319PNCE   C2A 2851  14.561  13.259   8.014 -0.1412  0.4021  0.4918
  319PNCE   C3A 2852  14.322  13.435   7.692 -0.1649 -0.1128  0.0680
  319PNCE   C1B 2853  14.730  12.795   7.989 -0.2078 -0.3413 -0.1070
  319PNCE   C2B 2854  15.019  12.728   7.544  0.0566  0.1948  0.1496
  319PNCE   C3B 2855  15.319  12.488   7.382  0.0963 -0.1868  0.0346
  319PNCE   D4B 2856  15.747  12.452   7.339  0.0058 -0.0732 -0.4820
  319PNCE   C5B 2857  15.929  12.374   6.958  0.0621 -0.1484  0.0991
  319PNCE   C6B 2858  16.339  12.192   6.921  0.3257  0.1490 -0.1217
  320CHOL   ROH 2859   3.151   2.262   8.581  0.2806 -0.0643 -0.0431
  320CHOL    R1 2860   2.988   2.157   8.376  0.1940 -0.0418  0.0123
  320CHOL    R2 2861   2.980   2.265   8.122  0.0462  0.0209  0.0381
  320CHOL    R3 2862   3.039   2.011   8.046  0.0557  0.0501 -0.0495
  320CHOL    R4 2863   2.884   2.121   7.823 -0.0101  0.0916  0.0228
  320CHOL    R5 2864   2.842   1.937   7.931  0.0389  0.0589 -0.0213
  320CHOL    C1 2865   2.883   1.799   7.577 -0.0339  0.1602 -0.0684
  320CHOL    C2 2866   2.992   1.705   7.280  0.0139  0.0832  0.1108
  321CHOL   ROH 2867   7.064   0.506   9.063 -0.0763 -0.0003  0.1028
  321CHOL    R1 2868   7.255   0.643   8.905 -0.0937  0.0563  0.1285
  321CHOL    R2 2869   7.527   0.604   8.932 -0.0872  0.0106  0.0530
  321CHOL    R3 2870   7.514   0.552   8.666 -0.1558  0.1393  0.0303
  321CHOL    R4 2871   7.776   0.677   8.705 -0.0362 -0.1294  0.0638
  321CHOL    R5 2872   7.622   0.740   8.564  0.0144  0.0789  0.1029
  321CHOL    C1 2873   7.909   0.672   8.322 -0.0708 -0.0900  0.0489
  321CHOL    C2 2874   8.204   0.491   8.162  0.3560  0.0331  0.3911
  322CHOL   ROH 2875   0.522   2.652   8.424  0.0681  0.1691 -0.0350
  322CHOL    R1 2876   0.430   2.704   8.161  0.0579  0.0069 -0.0640
  322CHOL    R2 2877   0.593   2.681   7.939  0.0525 -0.1168 -0.0548
  322CHOL    R3 2878   0.396   2.516   7.851  0.0592 -0.1808  0.0480
  322CHOL    R4 2879   0.559   2.571   7.613 -0.2050  0.0510 -0.0877
  322CHOL    R5 2880   0.343   2.598   7.632 -0.2061 -0.0836  0.1432
  322CHOL    C1 2881   0.354   2.352   7.341 -0.3485  0.0887 -0.0103
  322CHOL    C2 2882   0.363   2.015   7.003  0.2246 -0.0253  0.1386
  323XCA    COO 2883  15.083   5.925   4.272 -0.5134 -0.2083  0.0728
  323XCA     C1 2884  15.136   6.053   4.758 -0.0095  0.1983 -0.0717
  323XCA     C2 2885  15.031   6.161   5.170 -0.2194 -0.1280 -0.0808
  323XCA     C3 2886  14.959   5.921   5.524  0.1434 -0.0817 -0.1160
  323XCA     C4 2887  14.699   6.234   5.692  0.0850  0.1001  0.1569
  323XCA     C5 2888  14.641   6.308   6.145  0.0048 -0.3054 -0.2026
  323XCA     C6 2889  14.485   6.292   6.550 -0.0576  0.0604  0.1447
  324XCA    COO 2890   5.155   2.571   4.744 -0.0613 -0.0662 -0.0125
  324XCA     C1 2891   5.122   2.627   5.249  0.1309 -0.2149 -0.0887
  324XCA     C2 2892   4.846   2.465   5.561  0.2163  0.0069  0.1340
  324XCA     C3 2893   4.505   2.619   5.796 -0.1218 -0.0445 -0.2879
  324XCA     C4 2894   4.399   2.369   6.094  0.1214 -0.0855 -0.0897
  324XCA     C5 2895   4.147   2.498   6.457  0.2102 -0.1374  0.1170
  324XCA     C6 2896   3.844   2.635   6.666 -0.1196 -0.0169  0.1350
  325CHOL   ROH 2897   2.727   3.326   8.489 -0.0366 -0.0086 -0.0375
  325CHOL    R1 2898   2.730   3.131   8.284  0.0055 -0.0611  0.0130
  325CHOL    R2 2899   2.500   3.015   8.185  0.0185 -0.0137 -0.0728
  325CHOL    R3 2900   2.598   3.099   7.947  0.1646 -0.1046 -0.0465
  325CHOL    R4 2901   2.421   2.876   7.879  0.0694 -0.0197 -0.0834
  325CHOL    R5 2902   2.630   2.898   7.821  0.1074 -0.1429 -0.0008
  325CHOL    C1 2903   2.467   2.874   7.476  0.2363 -0.1084 -0.0647
  325CHOL    C2 2904   2.539   3.037   7.133 -0.1065  0.0358 -0.2263
  326PNCE   AM1 2905   9.122   8.532   7.445  0.0124  0.0110  0.1181
  326PNCE   AM2 2906   8.981   8.410   7.751 -0.3812  0.0466  0.0658
  326PNCE   T1A 2907   9.131   8.801   7.276 -0.2501 -0.1400  0.3119
  326PNCE   C2A 2908   8.848   8.995   7.042 -0.0363  0.0784 -0.0414
  326PNCE   C3A 2909   8.519   9.350   7.146 -0.2244 -0.2017  0.2236
  326PNCE   C1B 2910   8.944   8.824   7.752  0.2697 -0.1605  0.1317
  326PNCE   C2B 2911   8.585   9.030   7.537 -0.1892 -0.1557 -0.2469
  326PNCE   C3B 2912   8.330   8.910   7.168 -0.0552 -0.0247 -0.1548
  326PNCE   D4B 2913   8.508   8.659   6.794  0.0466  0.3804  0.0310
  326PNCE   C5B 2914   8.605   8.179   6.861 -0.0091  0.2482  0.1235
  326PNCE   C6B 2915   8.421   7.813   6.964 -0.0806 -0.0245  0.0918
  327PNCE   AM1 2916   7.941   5.092   8.663 -0.2417 -0.1832 -0.1251
  327PNCE   AM2 2917   7.589   5.154   8.701  0.0498 -0.0379  0.4024
  327PNCE   T1A 2918   8.312   5.175   8.461  0.0296 -0.0034  0.1329
  327PNCE   C2A 2919   8.611   5.264   8.145  0.0235 -0.0508 -0.1365
  327PNCE   C3A 2920   8.560   5.093   7.725 -0.3316  0.0416  0.0307
  327PNCE   C1B 2921   7.747   5.196   8.176  0.3127 -0.0994 -0.1514
  327PNCE   C2B 2922   7.635   5.354   7.674  0.2600 -0.1791  0.3171
  327PNCE   C3B 2923   7.664   5.419   7.243 -0.0926 -0.0339 -0.2710
  327PNCE   D4B 2924   7.761   5.617   6.833 -0.2450 -0.1077 -0.0825
  327PNCE   C5B 2925   7.584   5.320   6.547  0.0220 -0.4174 -0.2068
  327PNCE   C6B 2926   7.587   4.925   6.569 -0.1169 -0.0824 -0.3487
  328CHOL   ROH 2927   8.727   0.749   5.691 -0.0501  0.3181  0.2552
  328CHOL    R1 2928   8.777   0.718   5.968 -0.3111  0.1741  0.2900
  328CHOL    R2 2929   8.607   0.580   6.136 -0.2375 -0.3339 -0.0315
  328CHOL    R3 2930   8.832   0.441   6.197 -0.0138  0.0688  0.0971
  328CHOL    R4 2931   8.639   0.361   6.401  0.0248 -0.2451  0.0138
  328CHOL    R5 2932   8.839   0.439   6.436 -0.1247  0.1155  0.1005
  328CHOL    C1 2933   8.869   0.103   6.613  0.3875  0.1846  0.1609
  328CHOL    C2 2934   8.697   0.016   6.903  0.3289  0.1369  0.0894
  329CHOL   ROH 2935   2.415   1.278   7.025 -0.1028 -0.0147 -0.0164
  329CHOL    R1 2936   2.254   1.450   6.869 -0.1418 -0.0778 -0.0437
  329CHOL    R2 2937   2.312   1.509   6.605 -0.1508 -0.1015 -0.0433
  329CHOL    R3 2938   2.057   1.424   6.564 -0.1308 -0.1649 -0.0462
  329CHOL    R4 2939   2.117   1.594   6.332 -0.2041 -0.0314  0.0148
  329CHOL    R5 2940   1.946   1.612   6.466 -0.1988 -0.1452  0.0526
  329CHOL    C1 2941   1.764   1.562   6.135 -0.2163 -0.0501  0.0459
  329CHOL    C2 2942   1.482   1.638   5.769 -0.1007  0.0866  0.0834
  330PNCE   AM1 2943  13.233   2.224   9.233 -0.1472 -0.3354 -0.1833
  330PNCE   AM2 2944  12.975   2.350   9.061  0.1616 -0.1080 -0.1170
  330PNCE   T1A 2945  13.433   2.139   8.846 -0.0636  0.2320 -0.1411
  330PNCE   C2A 2946  13.345   2.058   8.399  0.0611  0.0936  0.0005
  330PNCE   C3A 2947  13.460   1.949   7.991  0.1915  0.0476  0.1173
  330PNCE   C1B 2948  12.839   2.794   8.871 -0.2763  0.2342 -0.0167
  330PNCE   C2B 2949  12.878   2.832   8.354 -0.0022  0.1821  0.2334
  330PNCE   C3B 2950  12.738   2.651   7.850 -0.1981  0.3154 -0.2426
  330PNCE   D4B 2951  12.705   2.332   7.516  0.2286 -0.1467 -0.0055
  330PNCE   C5B 2952  12.744   1.933   7.601  0.0142 -0.0690  0.1360
  330PNCE   C6B 2953  12.564   1.738   7.907 -0.1040 -0.1329  0.1658
  331PNCE   AM1 2954   4.274   1.060   8.740 -0.2925  0.1808  0.0331
  331PNCE   AM2 2955   3.947   1.168   8.729 -0.0154 -0.3324  0.3938
  331PNCE   T1A 2956   4.292   0.859   8.334  0.2288  0.0656 -0.0049
  331PNCE   C2A 2957   4.348   0.972   7.928  0.0247  0.0999 -0.1442
  331PNCE   C3A 2958   4.736   1.054   7.750  0.1963  0.4043 -0.0599
  331PNCE   C1B 2959   3.835   0.799   8.525 -0.0239 -0.1107 -0.1819
  331PNCE   C2B 2960   3.439   0.603   8.516 -0.0011  0.0485  0.1900
  331PNCE   C3B 2961   3.140   0.442   8.211 -0.1498 -0.2852  0.1051
  331PNCE   D4B 2962   2.937   0.132   7.914 -0.3313 -0.0284  0.0087
  331PNCE   C5B 2963   2.509   0.298   7.611  0.0430  0.0551 -0.4789
  331PNCE   C6B 2964   2.240   0.639   7.456  0.1678  0.1369  0.0328
  332PNCE   AM1 2965   6.059   7.736   8.322  0.0834 -0.2580 -0.0508
  332PNCE   AM2 2966   5.798   7.828   8.542  0.0929  0.2077 -0.0725
  332PNCE   T1A 2967   6.173   7.655   7.923  0.0509  0.1393 -0.1153
  332PNCE   C2A 2968   6.333   7.476   7.503 -0.0416 -0.0550  0.1957
  332PNCE   C3A 2969   6.718   7.423   7.316  0.3553 -0.4054 -0.1073
  332PNCE   C1B 2970   5.556   7.761   8.263  0.0188 -0.0326  0.1255
  332PNCE   C2B 2971   5.619   7.556   7.916 -0.0306  0.1696 -0.0125
  332PNCE   C3B 2972   5.808   7.516   7.581  0.0711 -0.0910  0.0233
  332PNCE   D4B 2973   5.904   7.439   7.130  0.0296 -0.2102 -0.0567
  332PNCE   C5B 2974   6.345   7.249   7.003  0.1413  0.1057 -0.1306
  332PNCE   C6B 2975   6.691   7.293   6.754  0.0389  0.2431 -0.2727
  333PNCE   AM1 2976   6.373   3.622   8.935  0.0737 -0.0660  0.0844
  333PNCE   AM2 2977   6.477   3.339   9.092  0.1301 -0.3104 -0.2085
  333PNCE   T1A 2978   6.638   3.526   8.526  0.0069  0.0176 -0.1203
  333PNCE   C2A 2979   6.922   3.690   8.192 -0.0566 -0.1903  0.1082
  333PNCE   C3A 2980   7.028   3.768   7.721 -0.2073 -0.0975 -0.1355
  333PNCE   C1B 2981   6.528   3.082   8.761  0.2699  0.2597 -0.0904
  333PNCE   C2B 2982   6.448   3.068   8.371 -0.2974  0.2849 -0.0659
  333PNCE   C3B 2983   6.143   3.080   8.016  0.1422 -0.0762 -0.2012
  333PNCE   D4B 2984   6.019   2.756   7.838  0.0128 -0.0421  0.0326
  333PNCE   C5B 2985   6.246   2.703   7.498  0.2999  0.4248  0.1797
  333PNCE   C6B 2986   6.131   2.784   7.073 -0.1761 -0.3365  0.4941
  334PNCE   AM1 2987  10.471  14.540   9.037  0.2876  0.1295 -0.0411
  334PNCE   AM2 2988  10.517  14.943   9.013 -0.0594  0.0093 -0.1613
  334PNCE   T1A 2989  10.298  14.686   8.599 -0.2225  0.0390 -0.0340
  334PNCE   C2A 2990  10.069  14.747   8.271 -0.0416  0.0701  0.3378
  334PNCE   C3A 2991   9.863  15.166   8.184  0.1636  0.1247 -0.0988
  334PNCE   C1B 2992  10.438  15.239   8.569  0.0985 -0.1852  0.2580
  334PNCE   C2B 2993  10.482  15.643   8.428 -0.1939 -0.2179  0.0550
  334PNCE   C3B 2994  10.445  16.039   8.158  0.0657  0.1108  0.0986
  334PNCE   D4B 2995  10.375  16.125   7.694 -0.0213  0.1354  0.2071
  334PNCE   C5B 2996  10.210  16.526   7.578 -0.0150 -0.2383 -0.1426
  334PNCE   C6B 2997  10.324  16.960   7.262  0.3662 -0.0062 -0.0030
  335PNCE   AM1 2998  15.651   3.327   4.368 -0.1095  0.0066 -0.1750
  335PNCE   AM2 2999  15.732   3.584   4.189 -0.0532 -0.2216  0.0572
  335PNCE   T1A 3000  15.169   3.234   4.527 -0.1697 -0.2099  0.0374
  335PNCE   C2A 3001  14.827   3.303   4.631  0.2001 -0.1368 -0.0832
  335PNCE   C3A 3002  14.790   3.769   4.761 -0.1674  0.3702  0.2189
  335PNCE   C1B 3003  15.726   3.748   4.626 -0.1079  0.1125  0.0151
  335PNCE   C2B 3004  15.911   4.155   4.895 -0.0156  0.0938 -0.0643
  335PNCE   C3B 3005  15.978   4.153   5.467 -0.0223  0.4311  0.3032
  335PNCE   D4B 3006  15.876   4.005   5.964  0.0909 -0.0260  0.0840
  335PNCE   C5B 3007  15.536   4.048   6.266  0.1225  0.2429 -0.0007
  335PNCE   C6B 3008  15.244   3.732   6.322 -0.1092  0.2963 -0.1269
  336CHOL   ROH 3009   2.490  15.261   5.197 -0.0467 -0.0058  0.1383
  336CHOL    R1 3010   2.400  15.185   5.454 -0.0591  0.0091  0.1381
  336CHOL    R2 3011   2.572  15.102   5.654 -0.0783 -0.0730  0.1194
  336CHOL    R3 3012   2.451  15.298   5.797  0.0073 -0.0372  0.1443
  336CHOL    R4 3013   2.563  15.118   5.999  0.0019 -0.0691  0.1218
  336CHOL    R5 3014   2.356  15.185   5.985  0.0161 -0.0108  0.1658
  336CHOL    C1 3015   2.442  15.313   6.334  0.1290 -0.0332  0.1466
  336CHOL    C2 3016   2.623  15.530   6.563  0.2496 -0.2911 -0.0060
  337XCA    COO 3017   3.806   6.406   4.349  0.0878  0.1346  0.1516
  337XCA     C1 3018   3.951   6.700   4.565 -0.0387 -0.3270 -0.0764
  337XCA     C2 3019   4.141   6.674   5.000 -0.1758 -0.0342  0.0325
  337XCA     C3 3020   4.208   6.696   5.338 -0.2162 -0.3118 -0.1869
  337XCA     C4 3021   3.983   6.584   5.749  0.3040 -0.0710 -0.1054
  337XCA     C5 3022   3.604   6.568   5.841 -0.0441  0.0168  0.2081
  337XCA     C6 3023   3.420   6.962   5.945  0.1196 -0.1543 -0.0611
  338PNCE   AM1 3024   1.307   3.873   8.648 -0.0702  0.1867 -0.2591
  338PNCE   AM2 3025   1.178   3.484   8.580 -0.3955  0.1058 -0.1444
  338PNCE   T1A 3026   1.531   3.893   8.193  0.0731 -0.0326  0.0005
  338PNCE   C2A 3027   1.505   3.907   7.795 -0.2427  0.1223  0.4391
  338PNCE   C3A 3028   1.478   3.955   7.276 -0.1615  0.2788  0.0950
  338PNCE   C1B 3029   1.678   3.454   8.418 -0.1504  0.0146 -0.0350
  338PNCE   C2B 3030   1.887   3.581   7.970 -0.2725  0.0418 -0.2088
  338PNCE   C3B 3031   1.877   3.632   7.528  0.1449  0.0133  0.3460
  338PNCE   D4B 3032   1.782   3.537   7.071 -0.0104 -0.1008 -0.0836
  338PNCE   C5B 3033   1.505   3.794   6.805 -0.0358 -0.1734  0.0926
  338PNCE   C6B 3034   1.430   4.060   6.531 -0.1874 -0.3339 -0.2276
  339CHOL   ROH 3035   6.529   9.323   4.443  0.3598 -0.1726 -0.1287
  339CHOL    R1 3036   6.465   9.103   4.609  0.1701 -0.0334 -0.0136
  339CHOL    R2 3037   6.658   8.951   4.735  0.0374 -0.0947  0.1188
  339CHOL    R3 3038   6.515   9.012   4.958  0.0275  0.1343  0.0522
  339CHOL    R4 3039   6.756   8.878   5.059 -0.2650 -0.3342  0.1611
  339CHOL    R5 3040   6.549   8.825   5.104 -0.3953  0.0392  0.0426
  339CHOL    C1 3041   6.679   8.893   5.456 -0.4503 -0.2586  0.1232
  339CHOL    C2 3042   6.691   8.663   5.637 -0.0440 -0.3084  0.3087
  340PNCE   AM1 3043  15.178   9.771   8.686  0.3246 -0.1404 -0.3252
  340PNCE   AM2 3044  15.288   9.457   8.456 -0.3152  0.1467 -0.0611
  340PNCE   T1A 3045  15.096  10.049   8.296  0.2512  0.1474  0.0453
  340PNCE   C2A 3046  15.028  10.291   7.889  0.0549 -0.2185 -0.0335
  340PNCE   C3A 3047  15.000  10.337   7.510  0.0891  0.3752 -0.1444
  340PNCE   C1B 3048  15.293   9.623   8.039  0.0990  0.0449  0.0983
  340PNCE   C2B 3049  15.323   9.496   7.609  0.1130 -0.0190 -0.4138
  340PNCE   C3B 3050  15.337   9.471   7.143  0.1537  0.0866 -0.0169
  340PNCE   D4B 3051  15.308   9.245   6.848 -0.3529  0.0321 -0.1189
  340PNCE   C5B 3052  15.430   9.075   6.426 -0.0124 -0.0241 -0.0552
  340PNCE   C6B 3053  15.498   8.792   6.135  0.3117  0.0604 -0.1772
  341PNCE   AM1 3054  10.744   3.967   9.114 -0.0987  0.1462 -0.1636
  341PNCE   AM2 3055  10.757   3.748   9.305 -0.0534  0.0714  0.2934
  341PNCE   T1A 3056  10.991   3.921   8.737 -0.1922 -0.2520  0.0057
  341PNCE   C2A 3057  11.226   3.665   8.453 -0.0346 -0.1022 -0.3008
  341PNCE   C3A 3058  11.526   3.531   8.100  0.0730  0.0515  0.0494
  341PNCE   C1B 3059  10.788   3.432   8.996  0.1990  0.0400 -0.3602
  341PNCE   C2B 3060  10.779   3.375   8.655 -0.0058  0.1037 -0.0079
  341PNCE   C3B 3061  10.939   3.435   8.193 -0.0507 -0.0637 -0.2017
  341PNCE   D4B 3062  11.074   3.400   7.791  0.2280 -0.0153 -0.1443
  341PNCE   C5B 3063  10.915   3.210   7.444 -0.1455  0.0990  0.1187
  341PNCE   C6B 3064  10.529   3.214   7.201 -0.0990  0.0421  0.0057
  342PNCE   AM1 3065   4.039   5.712   8.302 -0.0166  0.1767  0.1617
  342PNCE   AM2 3066   4.371   5.858   8.365  0.0414 -0.1465  0.1971
  342PNCE   T1A 3067   4.079   5.771   7.858  0.0551  0.0767  0.1446
  342PNCE   C2A 3068   4.190   5.754   7.447  0.1220 -0.1841  0.2800
  342PNCE   C3A 3069   4.221   5.609   6.970 -0.2349 -0.0810  0.0988
  342PNCE   C1B 3070   4.556   6.012   7.993 -0.1715  0.0412 -0.4487
  342PNCE   C2B 3071   4.558   6.219   7.593 -0.2481  0.2478  0.0057
  342PNCE   C3B 3072   4.631   6.439   7.175  0.1291 -0.4526  0.1441
  342PNCE   D4B 3073   4.748   6.408   6.744  0.0986 -0.0585  0.1086
  342PNCE   C5B 3074   5.102   6.536   6.666 -0.3890  0.0716 -0.3836
  342PNCE   C6B 3075   5.426   6.308   6.511 -0.2557 -0.0034 -0.1218
  343CHOL   ROH 3076   0.891  15.085   8.674  0.1082 -0.2705 -0.0825
  343CHOL    R1 3077   1.000  15.026   8.419  0.0135  0.1119 -0.2189
  343CHOL    R2 3078   0.985  14.774   8.306  0.4630  0.1362 -0.3379
  343CHOL    R3 3079   0.875  14.909   8.098 -0.0275  0.0157 -0.1706
  343CHOL    R4 3080   0.918  14.638   7.996  0.5731  0.1582 -0.3726
  343CHOL    R5 3081   0.987  14.823   7.905  0.0591  0.4079 -0.3111
  343CHOL    C1 3082   0.774  14.685   7.620  0.1768  0.0579 -0.2358
  343CHOL    C2 3083   0.883  14.536   7.234 -0.2052 -0.0247  0.0497
  344CHOL   ROH 3084  14.713   4.914   5.898 -0.1080  0.1287 -0.2005
  344CHOL    R1 3085  14.522   5.091   6.007 -0.0909  0.0193  0.0120
  344CHOL    R2 3086  14.572   5.244   6.232  0.0498  0.0015 -0.0054
  344CHOL    R3 3087  14.499   5.449   6.070 -0.1995 -0.0024  0.0971
  344CHOL    R4 3088  14.458   5.551   6.342  0.2353  0.0132  0.1600
  344CHOL    R5 3089  14.312   5.548   6.181 -0.0229  0.0125  0.3903
  344CHOL    C1 3090  14.324   5.923   6.254  0.1093  0.0164  0.3525
  344CHOL    C2 3091  14.028   6.066   6.272 -0.1282 -0.2584  0.1154
  345PNCE   AM1 3092   9.510  13.826   8.603  0.0863 -0.0669  0.3779
  345PNCE   AM2 3093   9.703  13.483   8.509  0.1999  0.0730  0.1836
  345PNCE   T1A 3094   9.570  13.729   8.079 -0.0808  0.1734  0.1275
  345PNCE   C2A 3095   9.449  13.591   7.716  0.1393  0.0015 -0.1721
  345PNCE   C3A 3096   9.151  13.589   7.519  0.0064  0.0139  0.1809
  345PNCE   C1B 3097   9.902  13.377   8.170  0.0744 -0.2168 -0.1195
  345PNCE   C2B 3098   9.940  13.473   7.756 -0.2229  0.1339  0.2671
  345PNCE   C3B 3099   9.950  13.344   7.307  0.2183 -0.1725 -0.1851
  345PNCE   D4B 3100  10.214  13.181   6.926 -0.0105  0.1226 -0.0604
  345PNCE   C5B 3101  10.059  13.383   6.492 -0.0581  0.0396 -0.0820
  345PNCE   C6B 3102   9.568  13.428   6.387 -0.2353 -0.0894  0.4180
  346PNCE   AM1 3103  13.952  13.280   4.967 -0.2460  0.0405  0.0461
  346PNCE   AM2 3104  13.910  12.837   5.066  0.1790  0.1624  0.0254
  346PNCE   T1A 3105  14.146  13.504   5.358  0.2494  0.0989 -0.2663
  346PNCE   C2A 3106  14.166  13.715   5.840 -0.1857 -0.0061  0.1881
  346PNCE   C3A 3107  14.273  13.928   6.161  0.1368 -0.2995  0.0495
  346PNCE   C1B 3108  14.316  12.960   5.101 -0.1722  0.1855  0.2532
  346PNCE   C2B 3109  14.566  13.242   5.338  0.3078 -0.3117 -0.0320
  346PNCE   C3B 3110  14.898  13.273   5.598 -0.1485 -0.0807 -0.0129
  346PNCE   D4B 3111  15.216  13.356   5.904 -0.1008  0.2866 -0.0348
  346PNCE   C5B 3112  15.197  12.916   6.070  0.2664  0.1132  0.1239
  346PNCE   C6B 3113  14.838  12.541   5.937  0.2099 -0.0012 -0.3765
  347PNCE   AM1 3114   2.697   2.020   8.651 -0.0742  0.0241 -0.1170
  347PNCE   AM2 3115   2.530   2.244   8.627 -0.2700  0.0928 -0.0399
  347PNCE   T1A 3116   2.993   1.702   8.536 -0.0113  0.0322 -0.1128
  347PNCE   C2A 3117   3.186   1.545   8.142  0.1233 -0.0492  0.0686
  347PNCE   C3A 3118   3.284   1.760   7.779  0.3125  0.2596 -0.0558
  347PNCE   C1B 3119   2.509   1.986   8.229  0.2141  0.2700 -0.0656
  347PNCE   C2B 3120   2.440   1.814   7.797  0.2423  0.1298 -0.3570
  347PNCE   C3B 3121   2.187   2.062   7.600 -0.2683  0.0224  0.0472
  347PNCE   D4B 3122   2.025   2.050   7.212  0.0910 -0.0547 -0.0550
  347PNCE   C5B 3123   1.525   2.034   7.230 -0.0249 -0.1586 -0.2255
  347PNCE   C6B 3124   1.215   1.644   7.257 -0.3187 -0.0937  0.1239
  348XCA    COO 3125   5.921   5.138   8.419 -0.0169 -0.0800  0.2071
  348XCA     C1 3126   5.966   4.954   7.989 -0.4478 -0.4384  0.0439
  348XCA     C2 3127   6.096   5.153   7.574  0.1784 -0.2900  0.1042
  348XCA     C3 3128   6.160   5.171   7.161  0.0522 -0.1571  0.2757
  348XCA     C4 3129   6.123   5.145   6.726 -0.0245  0.0295  0.2312
  348XCA     C5 3130   5.605   5.235   6.515 -0.3524  0.1818  0.0831
  348XCA     C6 3131   5.138   5.174   6.418  0.0224 -0.0638  0.0711
  349XCA    COO 3132   2.736   0.270   8.713 -0.0915 -0.0513 -0.2059
  349XCA     C1 3133   2.675   0.346   8.329 -0.0058  0.0849 -0.1621
  349XCA     C2 3134   2.691   0.550   8.017  0.0101 -0.0665  0.0043
  349XCA     C3 3135   2.590   0.972   7.923 -0.2039 -0.0016 -0.0456
  349XCA     C4 3136   2.379   1.264   7.699  0.2362  0.1222  0.1596
  349XCA     C5 3137   2.391   1.646   7.335  0.1553 -0.0961 -0.0183
  349XCA     C6 3138   2.504   1.837   7.033 -0.3102  0.3339  0.0238
  350XCA    COO 3139   2.052   5.057   8.282 -0.2884  0.2412 -0.0007
  350XCA     C1 3140   1.999   4.836   7.920  0.2466 -0.3634 -0.2286
  350XCA     C2 3141   1.874   4.740   7.592 -0.0913 -0.2262 -0.0671
  350XCA     C3 3142   1.934   4.709   7.180 -0.1905  0.2019  0.2054
  350XCA     C4 3143   1.895   5.021   6.785  0.0724 -0.0096  0.3223
  350XCA     C5 3144   1.775   5.235   6.385 -0.2032  0.3102  0.1184
  350XCA     C6 3145   1.881   5.283   5.923  0.2410  0.0890  0.0505
  351CHOL   ROH 3146   6.992  15.173   8.436  0.4052 -0.1474  0.2169
  351CHOL    R1 3147   6.939  15.213   8.161 -0.0159 -0.1491  0.2913
  351CHOL    R2 3148   7.138  15.208   7.969 -0.2284  0.3279  0.0402
  351CHOL    R3 3149   6.977  15.022   7.854  0.0028  0.0361  0.1771
  351CHOL    R4 3150   7.159  15.105   7.640 -0.3499  0.3996  0.0090
  351CHOL    R5 3151   6.941  15.103   7.631 -0.3617 -0.0042  0.2158
  351CHOL    C1 3152   7.021  14.869   7.340 -0.2036  0.1673  0.1194
  351CHOL    C2 3153   7.342  14.981   7.033 -0.0878  0.0527  0.2126
  352PNCE   AM1 3154   3.939  12.686   8.612  0.0730 -0.1308  0.1122
  352PNCE   AM2 3155   4.163  12.425   8.477 -0.2159  0.0198  0.1202
  352PNCE   T1A 3156   4.196  12.817   8.161  0.0253 -0.1315 -0.3513
  352PNCE   C2A 3157   4.268  13.126   7.794  0.0604 -0.0131 -0.3110
  352PNCE   C3A 3158   4.450  13.556   7.778 -0.4435 -0.3197 -0.1301
  352PNCE   C1B 3159   4.079  12.267   8.011  0.0193  0.1209 -0.0847
  352PNCE   C2B 3160   4.154  12.162   7.594  0.1089 -0.1312  0.1970
  352PNCE   C3B 3161   4.080  12.327   7.247 -0.0878  0.1626  0.0184
  352PNCE   D4B 3162   4.069  12.209   6.702  0.2009  0.2056  0.0465
  352PNCE   C5B 3163   4.113  12.558   6.469 -0.1228  0.0976  0.1163
  352PNCE   C6B 3164   4.349  12.823   6.188 -0.0936 -0.2371  0.0657
  353PNCE   AM1 3165   7.765   4.611   8.761 -0.0625  0.1403 -0.0393
  353PNCE   AM2 3166   7.888   4.352   8.795 -0.3811  0.0470  0.2072
  353PNCE   T1A 3167   7.600   4.680   8.370  0.2107  0.1817 -0.2842
  353PNCE   C2A 3168   7.580   4.555   8.012 -0.0394  0.1109  0.1394
  353PNCE   C3A 3169   7.414   4.589   7.575  0.1276  0.4197  0.2961
  353PNCE   C1B 3170   8.048   4.301   8.357 -0.0073  0.2777  0.4371
  353PNCE   C2B 3171   8.417   4.148   8.013 -0.2169 -0.1568 -0.3939
  353PNCE   C3B 3172   8.847   4.149   7.861  0.1345  0.1888 -0.1631
  353PNCE   D4B 3173   9.024   4.319   7.529 -0.3059  0.3124 -0.1158
  353PNCE   C5B 3174   8.873   4.501   7.104  0.4482 -0.1084  0.3100
  353PNCE   C6B 3175   9.004   4.316   6.654 -0.0445  0.1117  0.0822
  354PNCE   AM1 3176   4.625  14.062   8.443 -0.1613  0.1279  0.2477
  354PNCE   AM2 3177   4.910  14.268   8.436  0.3038 -0.0732 -0.1415
  354PNCE   T1A 3178   4.387  14.114   8.043 -0.1769  0.1057 -0.3322
  354PNCE   C2A 3179   4.191  13.990   7.754  0.1680 -0.0504 -0.0186
  354PNCE   C3A 3180   4.031  14.140   7.356 -0.4024  0.2833 -0.1124
  354PNCE   C1B 3181   4.973  14.621   8.191 -0.2051 -0.0664  0.0272
  354PNCE   C2B 3182   5.103  14.627   7.658  0.3412  0.1590  0.1863
  354PNCE   C3B 3183   5.003  14.533   7.285  0.0476 -0.1404  0.3476
  354PNCE   D4B 3184   4.836  14.306   7.006  0.1867  0.2176  0.2340
  354PNCE   C5B 3185   4.497  13.977   7.069 -0.0687 -0.5014 -0.0625
  354PNCE   C6B 3186   4.404  13.765   7.356 -0.3222 -0.0063  0.0014
  355XCA    COO 3187   2.248  10.442   3.810  0.1590  0.2272 -0.2992
  355XCA     C1 3188   2.271  10.160   4.166 -0.1595  0.2955  0.2245
  355XCA     C2 3189   2.247   9.933   4.525  0.1641 -0.3052  0.1826
  355XCA     C3 3190   2.066   9.750   4.879  0.0327 -0.0106  0.1226
  355XCA     C4 3191   1.827   9.527   5.149 -0.3357 -0.0429  0.0323
  355XCA     C5 3192   1.752   9.335   5.575 -0.0482  0.0128 -0.1770
  355XCA     C6 3193   1.856   9.079   5.946 -0.2526 -0.2202  0.0948
  356CHOL   ROH 3194  13.924   8.754   8.573 -0.0437  0.2294  0.0765
  356CHOL    R1 3195  14.013   8.842   8.319  0.0149  0.1136  0.0561
  356CHOL    R2 3196  13.868   8.801   8.088 -0.0141  0.1587  0.0648
  356CHOL    R3 3197  13.895   9.071   8.062  0.1656  0.1362  0.0068
  356CHOL    R4 3198  13.773   8.983   7.810 -0.2221  0.2084  0.1664
  356CHOL    R5 3199  13.954   9.102   7.832 -0.0983  0.0679 -0.0726
  356CHOL    C1 3200  13.743   9.342   7.623 -0.1746  0.2162  0.1712
  356CHOL    C2 3201  13.835   9.116   7.345  0.2594  0.0680 -0.0155
  357PNCE   AM1 3202  14.423   6.387   3.989  0.2196  0.1565 -0.0270
  357PNCE   AM2 3203  14.735   6.292   4.108 -0.0477 -0.2599  0.0484
  357PNCE   T1A 3204  14.250   6.097   4.283 -0.1599 -0.2904  0.3053
  357PNCE   C2A 3205  13.877   5.863   4.491  0.1081 -0.1073  0.1697
  357PNCE   C3A 3206  13.901   5.558   4.762 -0.1015  0.2302  0.1020
  357PNCE   C1B 3207  14.706   6.201   4.506  0.0784 -0.2042 -0.0184
  357PNCE   C2B 3208  14.608   6.009   4.909 -0.1237 -0.1530  0.0304
  357PNCE   C3B 3209  14.835   5.661   5.071  0.0907  0.2808  0.1926
  357PNCE   D4B 3210  15.063   5.341   5.403  0.1821 -0.1161  0.1909
  357PNCE   C5B 3211  15.078   4.911   5.598  0.0738  0.2413  0.3205
  357PNCE   C6B 3212  15.277   4.711   5.980  0.2462 -0.0868 -0.1735
  358CHOL   ROH 3213   8.684   1.665   9.227  0.1847  0.2325  0.0902
  358CHOL    R1 3214   8.744   1.638   8.952  0.1311  0.0195  0.0972
  358CHOL    R2 3215   8.596   1.761   8.754  0.1417 -0.0642  0.0332
  358CHOL    R3 3216   8.838   1.860   8.679  0.1655 -0.2011 -0.0721
  358CHOL    R4 3217   8.657   1.934   8.461  0.1155 -0.0961  0.0094
  358CHOL    R5 3218   8.845   1.826   8.442  0.0447 -0.2020 -0.0745
  358CHOL    C1 3219   8.920   2.126   8.220  0.1226 -0.2432 -0.1034
  358CHOL    C2 3220   8.747   2.032   7.924  0.3064  0.2216  0.0589
  359XCA    COO 3221  12.821  14.010   8.717  0.1276  0.0846  0.1262
  359XCA     C1 3222  12.996  13.724   8.302  0.0900  0.0709  0.1449
  359XCA     C2 3223  12.962  13.503   7.899 -0.1785 -0.1492  0.1812
  359XCA     C3 3224  12.807  13.312   7.571  0.0254 -0.1169 -0.2195
  359XCA     C4 3225  12.872  13.150   7.146 -0.0216  0.0925 -0.2151
  359XCA     C5 3226  13.220  13.009   6.775  0.0277 -0.0838 -0.0156
  359XCA     C6 3227  13.631  13.159   6.434  0.2759 -0.0701  0.1538
  360PNCE   AM1 3228   1.303   4.705   8.356  0.0392  0.4336  0.1233
  360PNCE   AM2 3229   1.094   5.072   8.360 -0.1981 -0.1143 -0.2192
  360PNCE   T1A 3230   1.391   4.508   7.857 -0.1475 -0.3086 -0.2154
  360PNCE   C2A 3231   1.509   4.461   7.415  0.0217 -0.1642  0.1183
  360PNCE   C3A 3232   1.533   4.360   6.961  0.0366  0.0289  0.1411
  360PNCE   C1B 3233   0.884   5.007   8.026  0.0107 -0.0046  0.0123
  360PNCE   C2B 3234   0.823   5.118   7.577  0.1938  0.1072 -0.3775
  360PNCE   C3B 3235   0.824   5.329   7.199 -0.2556 -0.1284  0.0376
  360PNCE   D4B 3236   0.547   5.455   6.861 -0.0443  0.0529 -0.0454
  360PNCE   C5B 3237   0.290   5.262   6.457  0.1206  0.0798 -0.2228
  360PNCE   C6B 3238   0.251   5.524   6.072  0.2039  0.0237  0.0904
  361XCA    COO 3239  15.805   9.480   8.392  0.0780  0.0699  0.2114
  361XCA     C1 3240  15.882   9.690   8.040 -0.0271  0.1052 -0.2368
  361XCA     C2 3241  15.948   9.707   7.538 -0.1137 -0.0610  0.2085
  361XCA     C3 3242  15.756   9.686   7.236  0.1337 -0.0479  0.1293
  361XCA     C4 3243  15.901   9.536   6.759 -0.0441 -0.3189  0.0491
  361XCA     C5 3244  16.157   9.397   6.394 -0.1018  0.1975 -0.0678
  361XCA     C6 3245  16.331   9.592   5.975  0.1337  0.4675  0.1745
  362CHOL   ROH 3246   3.778   1.836   5.144  0.1283  0.0338 -0.1966
  362CHOL    R1 3247   3.581   1.696   5.291  0.1898 -0.0171 -0.1644
  362CHOL    R2 3248   3.635   1.571   5.530  0.2100  0.1970 -0.0618
  362CHOL    R3 3249   3.428   1.722   5.620  0.0566  0.0943 -0.2322
  362CHOL    R4 3250   3.418   1.476   5.782  0.3890  0.3014  0.1361
  362CHOL    R5 3251   3.254   1.562   5.666  0.2511 -0.0539  0.0429
  362CHOL    C1 3252   3.097   1.563   6.013  0.3492  0.2659  0.0914
  362CHOL    C2 3253   2.766   1.569   6.284  0.3085 -0.2920  0.3342
  363CHOL   ROH 3254   0.225   6.302   4.710  0.0470  0.1381  0.0108
  363CHOL    R1 3255  -0.012   6.285   4.864  0.0082  0.0543 -0.0564
  363CHOL    R2 3256  -0.193   6.078   4.837  0.0740  0.0028 -0.1273
  363CHOL    R3 3257  -0.155   6.053   5.105  0.0094 -0.0114 -0.1196
  363CHOL    R4 3258  -0.401   5.904   5.051  0.0727 -0.0821 -0.1968
  363CHOL    R5 3259  -0.375   6.063   5.198 -0.0164 -0.0898 -0.1756
  363CHOL    C1 3260  -0.487   5.780   5.428  0.0115 -0.1449 -0.2301
  363CHOL    C2 3261  -0.564   5.649   5.734  0.1656 -0.5048 -0.0539
  364CHOL   ROH 3262  13.894   6.734   6.493  0.4840 -0.1415  0.1969
  364CHOL    R1 3263  14.127   6.695   6.337  0.2650 -0.0047 -0.1747
  364CHOL    R2 3264  14.147   6.495   6.148  0.0371  0.0941 -0.2963
  364CHOL    R3 3265  14.213   6.702   5.983 -0.2602  0.1838 -0.3101
  364CHOL    R4 3266  14.291   6.460   5.835  0.5169  0.2637 -0.1061
  364CHOL    R5 3267  14.418   6.632   5.880  0.0576  0.6130 -0.0215
  364CHOL    C1 3268  14.435   6.633   5.499  0.5174  0.4466 -0.0083
  364CHOL    C2 3269  14.734   6.576   5.304  0.0568  0.0321  0.0018
  365CHOL   ROH 3270   5.430  11.962   8.322  0.1416 -0.0120 -0.0632
  365CHOL    R1 3271   5.480  11.876   8.058  0.0620 -0.2626  0.0002
  365CHOL    R2 3272   5.385  11.636   7.959 -0.4481 -0.1063  0.0824
  365CHOL    R3 3273   5.282  11.795   7.763 -0.0059  0.0429 -0.0415
  365CHOL    R4 3274   5.336  11.539   7.631 -0.5225 -0.1599  0.1095
  365CHOL    R5 3275   5.406  11.735   7.567 -0.0441 -0.3373  0.0408
  365CHOL    C1 3276   5.211  11.631   7.256 -0.1507 -0.0511  0.0089
  365CHOL    C2 3277   5.123  11.334   6.998  0.0122  0.1436  0.1857
  366PNCE   AM1 3278   3.728   1.490   9.090 -0.0585 -0.0904 -0.0889
  366PNCE   AM2 3279   3.571   1.223   9.204  0.0210  0.0702  0.0628
  366PNCE   T1A 3280   3.790   1.590   8.626  0.0063 -0.1974 -0.2540
  366PNCE   C2A 3281   3.625   1.708   8.270 -0.1735 -0.1293  0.0631
  366PNCE   C3A 3282   3.697   2.001   7.920  0.3675  0.1695  0.0443
  366PNCE   C1B 3283   3.443   1.061   8.793 -0.1413 -0.0799  0.2049
  366PNCE   C2B 3284   3.462   1.115   8.342  0.1576 -0.0851 -0.3280
  366PNCE   C3B 3285   3.467   1.279   7.928 -0.1672  0.3784 -0.0205
  366PNCE   D4B 3286   3.266   1.334   7.531  0.0516  0.2477  0.1208
  366PNCE   C5B 3287   2.793   1.264   7.334  0.0693 -0.0883 -0.1465
  366PNCE   C6B 3288   2.782   1.389   6.825  0.0472 -0.1930 -0.1490
  367CHOL   ROH 3289  10.563   4.201   5.249 -0.0827  0.0533  0.0059
  367CHOL    R1 3290  10.731   4.120   5.463 -0.0013 -0.0459 -0.0942
  367CHOL    R2 3291  10.943   4.273   5.551  0.0372 -0.0897 -0.1085
  367CHOL    R3 3292  10.820   4.248   5.792  0.1292 -0.1933 -0.0716
  367CHOL    R4 3293  11.082   4.368   5.853  0.0272  0.0724 -0.1544
  367CHOL    R5 3294  10.997   4.188   5.942  0.2321 -0.0054 -0.1157
  367CHOL    C1 3295  11.047   4.400   6.255  0.1077  0.0695 -0.1464
  367CHOL    C2 3296  11.320   4.527   6.432  0.0371  0.2586  0.0698
  368CHOL   ROH 3297   6.543   9.483   6.841 -0.2646 -0.1125  0.2428
  368CHOL    R1 3298   6.527   9.220   6.739 -0.1123 -0.0464  0.0430
  368CHOL    R2 3299   6.290   9.077   6.732 -0.0090 -0.2143  0.0325
  368CHOL    R3 3300   6.351   9.051   6.468 -0.1005  0.0338 -0.0161
  368CHOL    R4 3301   6.208   8.804   6.536  0.2541 -0.2046 -0.0966
  368CHOL    R5 3302   6.404   8.819   6.442  0.1948  0.1140 -0.1860
  368CHOL    C1 3303   6.217   8.621   6.175  0.3214  0.0340 -0.2172
  368CHOL    C2 3304   6.361   8.220   6.258  0.1808 -0.0317  0.5378
  369PNCE   AM1 3305   5.068   8.274   4.788  0.1654 -0.1078 -0.1855
  369PNCE   AM2 3306   5.339   8.137   4.625 -0.3735 -0.4206 -0.2368
  369PNCE   T1A 3307   5.067   8.350   5.220 -0.1467 -0.0218 -0.3088
  369PNCE   C2A 3308   4.805   8.575   5.419 -0.0698 -0.1432 -0.0466
  369PNCE   C3A 3309   4.698   8.839   5.847 -0.0899  0.0681  0.0654
  369PNCE   C1B 3310   5.564   8.337   4.977 -0.0922 -0.0166 -0.0437
  369PNCE   C2B 3311   5.774   8.439   5.377 -0.1010 -0.1274  0.0035
  369PNCE   C3B 3312   5.686   8.690   5.800  0.3722 -0.1344 -0.0332
  369PNCE   D4B 3313   5.744   8.513   6.328 -0.0062  0.0835 -0.0112
  369PNCE   C5B 3314   6.025   8.427   6.691 -0.0932 -0.0029 -0.0124
  369PNCE   C6B 3315   6.432   8.246   6.758 -0.1242 -0.0091 -0.1070
  370PNCE   AM1 3316  12.400   1.220   5.396  0.0605  0.0976  0.2335
  370PNCE   AM2 3317  12.581   1.409   5.200 -0.0924  0.3648  0.1021
  370PNCE   T1A 3318  12.614   1.319   5.739 -0.0927 -0.0574  0.1055
  370PNCE   C2A 3319  12.724   1.226   6.173 -0.2477  0.0750  0.1186
  370PNCE   C3A 3320  12.701   1.151   6.674  0.1386 -0.2180 -0.0441
  370PNCE   C1B 3321  12.954   1.566   5.342  0.0369 -0.0230 -0.0475
  370PNCE   C2B 3322  13.068   1.586   5.698  0.0319  0.1621 -0.5686
  370PNCE   C3B 3323  13.127   1.700   6.086  0.3448  0.0635  0.1575
  370PNCE   D4B 3324  13.277   1.759   6.379 -0.0700  0.2146  0.0471
  370PNCE   C5B 3325  13.124   1.792   6.796  0.0102 -0.1322  0.2019
  370PNCE   C6B 3326  12.944   1.600   7.242  0.0409  0.0859  0.0497
  371CHOL   ROH 3327   0.233  12.444   5.702  0.1030  0.1190 -0.0526
  371CHOL    R1 3328   0.436  12.610   5.809  0.0315  0.2000 -0.0423
  371CHOL    R2 3329   0.383  12.861   5.913 -0.0952  0.1219  0.0843
  371CHOL    R3 3330   0.511  12.761   6.131  0.0352  0.1055  0.0018
  371CHOL    R4 3331   0.478  13.048   6.187 -0.0660  0.0758  0.1057
  371CHOL    R5 3332   0.665  12.934   6.194 -0.0135  0.1524 -0.0055
  371CHOL    C1 3333   0.654  13.064   6.552  0.0735  0.0334  0.0407
  371CHOL    C2 3334   0.467  13.130   6.912  0.0163  0.1211  0.0171
  372CHOL   ROH 3335  14.052  14.121   8.303  0.1240 -0.0810  0.0752
  372CHOL    R1 3336  14.104  14.306   8.095  0.1511 -0.0277  0.1293
  372CHOL    R2 3337  13.932  14.342   7.882  0.2540 -0.0842  0.0386
  372CHOL    R3 3338  13.943  14.602   7.958  0.0831 -0.0870  0.0782
  372CHOL    R4 3339  13.866  14.611   7.676  0.3578 -0.0906 -0.0038
  372CHOL    R5 3340  14.033  14.716   7.768  0.2317 -0.0370  0.1746
  372CHOL    C1 3341  13.839  15.013   7.628  0.2577 -0.0970  0.0088
  372CHOL    C2 3342  13.951  15.418   7.557 -0.2307 -0.1425 -0.1609
  373CHOL   ROH 3343  12.025   5.722   8.132  0.3880 -0.1467  0.0468
  373CHOL    R1 3344  12.032   5.529   7.925  0.2863 -0.0260 -0.0680
  373CHOL    R2 3345  11.802   5.423   7.813  0.2390  0.0180  0.0126
  373CHOL    R3 3346  11.915   5.506   7.580  0.0861  0.1530 -0.0174
  373CHOL    R4 3347  11.757   5.271   7.506  0.4529 -0.1500  0.0599
  373CHOL    R5 3348  11.968   5.304   7.464  0.4122  0.1931  0.0345
  373CHOL    C1 3349  11.836   5.261   7.109  0.4339 -0.1212  0.0593
  373CHOL    C2 3350  12.007   5.194   6.820  0.0332 -0.0165 -0.1495
  374XCA    COO 3351  13.053  11.345   8.581  0.2014  0.0045  0.0347
  374XCA     C1 3352  12.641  11.285   8.330  0.2004 -0.0090 -0.1906
  374XCA     C2 3353  12.396  11.492   7.988 -0.0742 -0.1569  0.2536
  374XCA     C3 3354  12.264  11.467   7.520 -0.2397 -0.0345 -0.3217
  374XCA     C4 3355  12.484  11.400   7.229 -0.3964  0.0890 -0.1539
  374XCA     C5 3356  12.401  11.605   6.799  0.1098  0.3657 -0.0418
  374XCA     C6 3357  12.313  11.986   6.583  0.1157 -0.2947 -0.0201
  375CHOL   ROH 3358  14.169   6.949   6.949  0.0433  0.1286  0.0929
  375CHOL    R1 3359  14.238   6.863   6.688 -0.0634  0.0726  0.0803
  375CHOL    R2 3360  14.347   7.032   6.500 -0.1822  0.0502 -0.0259
  375CHOL    R3 3361  14.542   6.843   6.488 -0.1530  0.0850 -0.0521
  375CHOL    R4 3362  14.528   6.953   6.216 -0.0654  0.1972  0.0082
  375CHOL    R5 3363  14.514   6.742   6.272 -0.0538  0.1798 -0.1001
  375CHOL    C1 3364  14.817   6.728   6.041  0.0299  0.3154  0.0035
  375CHOL    C2 3365  15.045   6.624   5.651 -0.1528  0.1010  0.3225
  376PNCE   AM1 3366   0.965  13.299   4.018  0.0890 -0.1343  0.0334
  376PNCE   AM2 3367   0.840  13.577   4.038 -0.1235  0.1790 -0.0703
  376PNCE   T1A 3368   1.205  13.225   4.402  0.0229  0.2653 -0.0622
  376PNCE   C2A 3369   1.372  12.966   4.728 -0.1692 -0.0845 -0.1345
  376PNCE   C3A 3370   1.661  12.743   5.004  0.0151  0.0858 -0.0196
  376PNCE   C1B 3371   0.673  13.487   4.465 -0.2327 -0.1708 -0.0718
  376PNCE   C2B 3372   0.258  13.713   4.808  0.2752 -0.4109  0.1888
  376PNCE   C3B 3373  -0.059  14.017   4.887 -0.0059  0.0617  0.0696
  376PNCE   D4B 3374  -0.142  14.421   4.979 -0.0300  0.1906 -0.1220
  376PNCE   C5B 3375   0.196  14.673   5.125  0.3200 -0.2164  0.1165
  376PNCE   C6B 3376   0.296  15.144   5.304  0.1714 -0.0518 -0.2719
  377XCA    COO 3377   6.771  14.165   6.648 -0.0397  0.2906 -0.1412
  377XCA     C1 3378   6.745  14.145   7.002  0.1109  0.0483  0.0098
  377XCA     C2 3379   6.759  14.400   7.393 -0.1237  0.1778  0.0659
  377XCA     C3 3380   6.594  14.752   7.716 -0.0884  0.3974  0.1372
  377XCA     C4 3381   6.299  15.020   7.742 -0.0233  0.1443 -0.0899
  377XCA     C5 3382   6.164  15.429   7.716  0.0810 -0.0165 -0.2097
  377XCA     C6 3383   6.365  15.813   7.647  0.3652  0.0471 -0.1404
  378PNCE   AM1 3384   5.956  13.495   8.809 -0.5343 -0.1562 -0.0520
  378PNCE   AM2 3385   5.722  13.764   8.598  0.0602  0.0455 -0.0154
  378PNCE   T1A 3386   5.980  13.474   8.381  0.1594  0.0109 -0.2038
  378PNCE   C2A 3387   6.227  13.167   8.125 -0.2145  0.1506  0.0328
  378PNCE   C3A 3388   6.223  12.998   7.661 -0.0359  0.0525  0.1847
  378PNCE   C1B 3389   5.636  13.702   8.107 -0.2482 -0.0930 -0.4162
  378PNCE   C2B 3390   5.386  13.743   7.721  0.2469 -0.0704  0.1368
  378PNCE   C3B 3391   5.225  13.420   7.438  0.0073 -0.0327 -0.0998
  378PNCE   D4B 3392   5.236  12.969   7.389 -0.0599  0.0892  0.0531
  378PNCE   C5B 3393   5.464  12.886   7.080  0.1146 -0.2307  0.1657
  378PNCE   C6B 3394   5.483  12.993   6.632 -0.5035  0.0460 -0.0669
  379CHOL   ROH 3395   3.613  12.460   8.160  0.1796 -0.0248  0.0301
  379CHOL    R1 3396   3.775  12.598   7.973  0.0911 -0.1825 -0.1687
  379CHOL    R2 3397   3.762  12.550   7.702 -0.3929 -0.0700 -0.1805
  379CHOL    R3 3398   3.722  12.819   7.689 -0.0454 -0.0052 -0.0064
  379CHOL    R4 3399   3.805  12.743   7.418 -0.4501  0.0118 -0.1330
  379CHOL    R5 3400   3.895  12.897   7.543 -0.1017 -0.1678 -0.1576
  379CHOL    C1 3401   3.793  13.107   7.241 -0.1573  0.1203  0.0580
  379CHOL    C2 3402   3.948  13.432   7.032 -0.1407 -0.1088 -0.1958
  380CHOL   ROH 3403   1.418  12.277   7.283  0.4119  0.2786 -0.1467
  380CHOL    R1 3404   1.307  12.253   7.024  0.2331  0.1309 -0.0599
  380CHOL    R2 3405   1.185  12.022   6.935  0.2967  0.0281  0.1043
  380CHOL    R3 3406   0.978  12.190   6.882  0.1617 -0.1050  0.2039
  380CHOL    R4 3407   0.969  11.993   6.666  0.3290  0.0289  0.0790
  380CHOL    R5 3408   0.976  12.209   6.643  0.1541  0.0473  0.2176
  380CHOL    C1 3409   0.650  12.133   6.460  0.2210 -0.0957  0.1577
  380CHOL    C2 3410   0.429  12.216   6.129 -0.1391  0.0337  0.2199
  381CHOL   ROH 3411   4.436  10.147   8.798 -0.1441  0.0645  0.0729
  381CHOL    R1 3412   4.349  10.058   8.544 -0.0356  0.0131  0.0526
  381CHOL    R2 3413   4.106  10.131   8.435 -0.0885 -0.1823  0.0259
  381CHOL    R3 3414   4.261  10.211   8.226 -0.1241 -0.0305  0.0574
  381CHOL    R4 3415   4.001  10.148   8.106 -0.0946 -0.0788  0.0333
  381CHOL    R5 3416   4.195  10.069   8.045 -0.0676  0.0254 -0.0038
  381CHOL    C1 3417   4.085  10.232   7.718 -0.1314  0.1238  0.0672
  381CHOL    C2 3418   3.724  10.375   7.521  0.0642 -0.2481  0.0074
  382PNCE   AM1 3419  14.337   3.182   8.818 -0.0551  0.1499  0.1981
  382PNCE   AM2 3420  14.704   3.215   8.960  0.1198 -0.2445  0.3195
  382PNCE   T1A 3421  14.418   3.258   8.354  0.1534 -0.1774 -0.1726
  382PNCE   C2A 3422  14.310   3.116   7.961 -0.1265 -0.0215  0.0471
  382PNCE   C3A 3423  14.233   3.072   7.516  0.3602 -0.1082 -0.3455
  382PNCE   C1B 3424  14.847   3.107   8.573  0.1884 -0.1808  0.0112
  382PNCE   C2B 3425  14.951   3.051   8.138  0.2908  0.0820  0.2486
  382PNCE   C3B 3426  15.069   3.227   7.686  0.1391 -0.3714  0.3656
  382PNCE   D4B 3427  15.183   3.239   7.235  0.0151  0.3683 -0.1719
  382PNCE   C5B 3428  14.853   3.369   6.912  0.1255  0.3504 -0.0497
  382PNCE   C6B 3429  14.460   3.480   6.760  0.0470  0.1323 -0.0690
  383PNCE   AM1 3430   6.713   7.286   4.154  0.1967  0.1493  0.4440
  383PNCE   AM2 3431   6.865   7.559   4.201  0.0888 -0.0462  0.3923
  383PNCE   T1A 3432   6.484   7.143   4.531 -0.2627 -0.1711 -0.0015
  383PNCE   C2A 3433   6.306   7.336   4.839 -0.0529 -0.0882 -0.2575
  383PNCE   C3A 3434   6.001   7.499   5.005  0.2399 -0.0014  0.0127
  383PNCE   C1B 3435   6.869   7.553   4.644 -0.2731  0.1131 -0.0911
  383PNCE   C2B 3436   6.764   7.574   5.120 -0.0819 -0.1923 -0.0545
  383PNCE   C3B 3437   6.367   7.581   5.342  0.1708 -0.3467 -0.0534
  383PNCE   D4B 3438   6.058   7.447   5.690  0.1930 -0.0316 -0.2696
  383PNCE   C5B 3439   5.890   7.751   6.034  0.4314 -0.3305  0.4472
  383PNCE   C6B 3440   5.880   7.960   6.463  0.0531 -0.0721  0.0909
  384PNCE   AM1 3441   8.735   0.884   9.328  0.0827 -0.2604  0.0267
  384PNCE   AM2 3442   8.805   0.634   9.648 -0.2616  0.1319 -0.0850
  384PNCE   T1A 3443   8.742   0.961   8.926 -0.2891 -0.1566 -0.0723
  384PNCE   C2A 3444   8.585   1.231   8.660 -0.2854 -0.1900  0.0565
  384PNCE   C3A 3445   8.480   1.531   8.281  0.1700 -0.1619 -0.1512
  384PNCE   C1B 3446   8.799   0.478   9.175 -0.2921  0.1700  0.0953
  384PNCE   C2B 3447   8.809   0.454   8.687 -0.0619  0.1585  0.2786
  384PNCE   C3B 3448   8.753   0.430   8.205  0.1204  0.1313  0.2406
  384PNCE   D4B 3449   8.980   0.331   7.866  0.1904 -0.1509  0.3437
  384PNCE   C5B 3450   9.083  -0.067   7.769 -0.2480  0.0429  0.1563
  384PNCE   C6B 3451   8.955  -0.384   7.810  0.0515  0.0971 -0.0632
  385CHOL   ROH 3452   1.265  15.767   8.589  0.1079  0.0401 -0.0102
  385CHOL    R1 3453   1.357  15.941   8.385  0.0581  0.0410 -0.0319
  385CHOL    R2 3454   1.204  16.005   8.164 -0.0029  0.0561  0.0147
  385CHOL    R3 3455   1.255  16.260   8.243  0.0348  0.0511  0.0074
  385CHOL    R4 3456   1.155  16.286   7.969 -0.1814  0.0770  0.0870
  385CHOL    R5 3457   1.342  16.367   8.047 -0.1271  0.0842 -0.0475
  385CHOL    C1 3458   1.175  16.688   7.929 -0.2500  0.0843  0.1223
  385CHOL    C2 3459   1.135  17.027   7.579 -0.0086  0.1596 -0.3094
  386PNCE   AM1 3460   4.389  13.501   8.736  0.0858  0.0272  0.0720
  386PNCE   AM2 3461   4.663  13.241   8.942  0.1995  0.0542  0.1221
  386PNCE   T1A 3462   4.607  13.604   8.297 -0.0298  0.0423 -0.0818
  386PNCE   C2A 3463   4.834  13.753   8.039 -0.0676  0.3078 -0.2401
  386PNCE   C3A 3464   4.902  13.773   7.619  0.0114  0.0100 -0.1981
  386PNCE   C1B 3465   4.939  13.459   8.598 -0.0880  0.1702 -0.2965
  386PNCE   C2B 3466   5.163  13.460   8.270  0.3335  0.2757  0.1971
  386PNCE   C3B 3467   5.418  13.230   7.946 -0.0950  0.3506 -0.1837
  386PNCE   D4B 3468   5.735  13.238   7.671  0.0212  0.1767  0.0871
  386PNCE   C5B 3469   5.992  13.494   7.779  0.3942  0.0136  0.3307
  386PNCE   C6B 3470   6.366  13.713   8.060 -0.1529 -0.3389  0.1599
  387CHOL   ROH 3471  13.358  10.725   4.912 -0.0942  0.0278  0.3180
  387CHOL    R1 3472  13.482  10.527   5.073 -0.0884  0.0169  0.3016
  387CHOL    R2 3473  13.686  10.586   5.250  0.0266 -0.0194  0.1889
  387CHOL    R3 3474  13.523  10.464   5.429  0.0646  0.0871  0.2964
  387CHOL    R4 3475  13.784  10.477   5.563  0.1428 -0.0404  0.1452
  387CHOL    R5 3476  13.662  10.298   5.533  0.0315  0.0245  0.2345
  387CHOL    C1 3477  13.687  10.298   5.914  0.2461  0.0474  0.2206
  387CHOL    C2 3478  13.571   9.913   6.043 -0.0714 -0.0155 -0.1832
  388CHOL   ROH 3479   9.000  10.818   4.396 -0.1678  0.1225  0.0406
  388CHOL    R1 3480   9.109  10.996   4.588 -0.1612  0.0999  0.0569
  388CHOL    R2 3481   8.975  11.067   4.818 -0.1483  0.0655  0.0716
  388CHOL    R3 3482   9.203  10.980   4.939 -0.1388  0.0582  0.0500
  388CHOL    R4 3483   9.075  11.155   5.137 -0.2636 -0.1625  0.1735
  388CHOL    R5 3484   9.279  11.170   5.064 -0.2500 -0.0109  0.2317
  388CHOL    C1 3485   9.347  11.125   5.437 -0.3219 -0.3020  0.2126
  388CHOL    C2 3486   9.332  11.177   5.812 -0.0494 -0.0650  0.1002
  389PNCE   AM1 3487   8.279  14.775   9.162 -0.0820  0.0416  0.1030
  389PNCE   AM2 3488   8.189  14.509   9.039 -0.2779 -0.1985  0.1586
  389PNCE   T1A 3489   8.274  15.200   9.018 -0.2436 -0.1824 -0.1437
  389PNCE   C2A 3490   8.103  15.597   9.023 -0.1509  0.1188  0.4265
  389PNCE   C3A 3491   7.887  15.844   8.930 -0.2067 -0.0976  0.0665
  389PNCE   C1B 3492   8.464  14.500   8.687 -0.2536 -0.2007  0.0446
  389PNCE   C2B 3493   8.697  14.442   8.264 -0.2491  0.0133  0.2637
  389PNCE   C3B 3494   8.751  14.335   7.852  0.1259  0.1320  0.3880
  389PNCE   D4B 3495   8.378  14.331   7.492  0.3633  0.3473  0.1002
  389PNCE   C5B 3496   8.115  14.659   7.429 -0.2449 -0.4678 -0.1459
  389PNCE   C6B 3497   8.128  15.117   7.298  0.3202  0.0318  0.2957
  390CHOL   ROH 3498  10.340   5.690   4.888  0.0307  0.0034  0.0127
  390CHOL    R1 3499  10.152   5.632   5.092  0.0542 -0.1089  0.0013
  390CHOL    R2 3500  10.228   5.551   5.345  0.0912  0.0299  0.0305
  390CHOL    R3 3501  10.072   5.760   5.423 -0.1110 -0.0886 -0.0448
  390CHOL    R4 3502  10.069   5.577   5.651  0.3146  0.1167  0.1425
  390CHOL    R5 3503   9.895   5.659   5.549  0.1176 -0.1998  0.2011
  390CHOL    C1 3504   9.831   5.788   5.902  0.2549  0.0559  0.1370
  390CHOL    C2 3505   9.708   5.452   6.083 -0.0071  0.2598  0.0036
  391XCA    COO 3506   5.695   6.554   4.538  0.1975  0.0711 -0.0182
  391XCA     C1 3507   5.813   6.557   4.991 -0.0532  0.0835 -0.0314
  391XCA     C2 3508   6.078   6.445   5.244  0.0833  0.0309 -0.2322
  391XCA     C3 3509   6.002   6.431   5.634  0.0111  0.0656 -0.0778
  391XCA     C4 3510   6.167   6.231   5.856  0.0631 -0.1837 -0.1716
  391XCA     C5 3511   5.943   6.159   6.166 -0.1113 -0.0278  0.3631
  391XCA     C6 3512   6.159   5.969   6.649 -0.1703 -0.0007  0.0335
  392CHOL   ROH 3513   0.168  15.568   8.490  0.2026  0.0300 -0.0406
  392CHOL    R1 3514   0.294  15.660   8.253  0.1040 -0.0660 -0.1304
  392CHOL    R2 3515   0.383  15.489   8.056  0.0810 -0.1480 -0.0628
  392CHOL    R3 3516   0.229  15.645   7.896 -0.0047 -0.2726 -0.1049
  392CHOL    R4 3517   0.440  15.542   7.720  0.2009 -0.0214 -0.0245
  392CHOL    R5 3518   0.386  15.752   7.748 -0.0337 -0.0772 -0.0040
  392CHOL    C1 3519   0.329  15.720   7.372  0.1902 -0.0645 -0.0417
  392CHOL    C2 3520   0.386  15.693   6.916 -0.3181  0.0254  0.1167
  393XCA    COO 3521  15.846   0.706   8.460  0.0454  0.0148  0.2919
  393XCA     C1 3522  15.890   0.689   7.965 -0.0254 -0.0766 -0.1609
  393XCA     C2 3523  16.043   0.620   7.512  0.3152  0.1717 -0.0503
  393XCA     C3 3524  16.265   0.849   7.141 -0.1380  0.0369  0.0441
  393XCA     C4 3525  16.392   1.219   6.930  0.0318  0.0683 -0.2007
  393XCA     C5 3526  16.413   1.550   6.643 -0.0118 -0.2961 -0.0259
  393XCA     C6 3527  16.285   1.658   6.296 -0.0288  0.1637 -0.1672
  394PNCE   AM1 3528   5.173   9.560   8.422  0.1159 -0.2009 -0.1535
  394PNCE   AM2 3529   5.419   9.389   8.387  0.1476 -0.0695 -0.2617
  394PNCE   T1A 3530   4.998   9.663   8.074 -0.2415 -0.0744 -0.5037
  394PNCE   C2A 3531   4.859   9.762   7.668  0.2242 -0.1586  0.1011
  394PNCE   C3A 3532   4.827   9.937   7.319 -0.2911 -0.1174  0.1394
  394PNCE   C1B 3533   5.549   9.227   7.934 -0.0248  0.1772 -0.1362
  394PNCE   C2B 3534   5.349   9.077   7.610  0.2054  0.3266 -0.1231
  394PNCE   C3B 3535   5.149   8.964   7.153  0.2801 -0.2109 -0.1148
  394PNCE   D4B 3536   4.771   9.040   6.803 -0.1292 -0.0531  0.0926
  394PNCE   C5B 3537   4.350   8.764   7.005 -0.1359  0.0102 -0.0937
  394PNCE   C6B 3538   4.218   8.381   7.134  0.0904 -0.0072  0.1598
  395CHOL   ROH 3539   7.904  13.275   8.692 -0.0969 -0.1402  0.0955
  395CHOL    R1 3540   7.873  12.994   8.692 -0.1346 -0.1379 -0.0934
  395CHOL    R2 3541   7.689  12.864   8.532 -0.1870 -0.0028 -0.1463
  395CHOL    R3 3542   7.908  12.724   8.451 -0.2220  0.0247 -0.2899
  395CHOL    R4 3543   7.698  12.521   8.489 -0.1200 -0.0229  0.0203
  395CHOL    R5 3544   7.898  12.520   8.577 -0.0319  0.0858 -0.1757
  395CHOL    C1 3545   7.908  12.190   8.387 -0.1139 -0.0088 -0.0175
  395CHOL    C2 3546   7.924  11.843   8.204  0.0757 -0.1395 -0.0614
  396CHOL   ROH 3547  13.692   2.949   8.505  0.2059 -0.1368  0.2022
  396CHOL    R1 3548  13.843   2.941   8.266  0.0199  0.1142  0.0723
  396CHOL    R2 3549  14.004   2.727   8.199  0.3761  0.4059 -0.0235
  396CHOL    R3 3550  13.859   2.732   7.969  0.1663  0.0883  0.0960
  396CHOL    R4 3551  14.118   2.620   7.890  0.2019  0.2395 -0.0323
  396CHOL    R5 3552  14.017   2.791   7.799 -0.0251  0.0824 -0.0933
  396CHOL    C1 3553  14.048   2.563   7.495 -0.0964 -0.1555  0.0749
  396CHOL    C2 3554  14.186   2.725   7.184 -0.2252 -0.1007 -0.0061
  397PNCE   AM1 3555   6.457   6.175   8.481  0.1165 -0.4557 -0.0553
  397PNCE   AM2 3556   6.630   5.836   8.479 -0.0866 -0.1288 -0.3230
  397PNCE   T1A 3557   6.691   6.621   8.330 -0.1607  0.3982  0.2638
  397PNCE   C2A 3558   6.865   6.712   7.931  0.0192 -0.1195 -0.1969
  397PNCE   C3A 3559   7.087   6.767   7.527 -0.1830 -0.2590 -0.1819
  397PNCE   C1B 3560   6.873   6.126   8.177  0.2041  0.0807  0.0318
  397PNCE   C2B 3561   7.002   6.200   7.763 -0.1046 -0.0901 -0.2908
  397PNCE   C3B 3562   7.102   6.110   7.510  0.0389 -0.2493 -0.0881
  397PNCE   D4B 3563   7.141   6.192   7.089  0.0100 -0.2791 -0.0569
  397PNCE   C5B 3564   7.537   6.039   6.851  0.0372 -0.1870 -0.0327
  397PNCE   C6B 3565   7.935   6.159   7.148 -0.3385  0.0219 -0.2126
  398CHOL   ROH 3566  10.492   5.667   6.492  0.3156  0.0057 -0.1241
  398CHOL    R1 3567  10.403   5.652   6.760  0.3819 -0.0282 -0.1039
  398CHOL    R2 3568  10.568   5.710   6.975  0.3759  0.1470 -0.1438
  398CHOL    R3 3569  10.367   5.881   7.040  0.2412 -0.0140 -0.1338
  398CHOL    R4 3570  10.432   5.745   7.291  0.2777 -0.0455 -0.1636
  398CHOL    R5 3571  10.235   5.761   7.200  0.2883 -0.1548 -0.2014
  398CHOL    C1 3572  10.165   5.926   7.536  0.0941 -0.3088 -0.1655
  398CHOL    C2 3573  10.246   6.159   7.824 -0.2641  0.0266  0.1758
  399CHOL   ROH 3574  13.527   4.718   4.937  0.0080 -0.0991 -0.1430
  399CHOL    R1 3575  13.568   4.748   5.215 -0.0540 -0.1031 -0.1359
  399CHOL    R2 3576  13.652   4.986   5.328 -0.0483 -0.1246 -0.1246
  399CHOL    R3 3577  13.430   4.955   5.482 -0.0837 -0.0831 -0.1619
  399CHOL    R4 3578  13.587   5.163   5.617 -0.1895  0.1130 -0.2958
  399CHOL    R5 3579  13.511   4.979   5.706 -0.1433  0.1468 -0.1532
  399CHOL    C1 3580  13.341   5.237   5.930 -0.3047  0.2903 -0.4306
  399CHOL    C2 3581  13.465   5.337   6.182 -0.0655  0.0660  0.2863
  400XCA    COO 3582   7.112   6.517   4.099 -0.0836  0.0406 -0.1610
  400XCA     C1 3583   7.278   6.412   4.464 -0.0809  0.0745 -0.0067
  400XCA     C2 3584   7.396   6.316   4.892  0.1814 -0.2429 -0.1455
  400XCA     C3 3585   7.493   6.090   5.393  0.1167  0.2276  0.3351
  400XCA     C4 3586   7.357   6.366   5.743 -0.1213  0.1049 -0.1918
  400XCA     C5 3587   7.052   6.511   5.951 -0.0625  0.1310  0.0982
  400XCA     C6 3588   6.654   6.787   6.138  0.1089 -0.1993  0.0276
  401CHOL   ROH 3589   7.946   7.507   7.143  0.0212 -0.1034  0.3643
  401CHOL    R1 3590   8.193   7.375   7.185 -0.0174 -0.3134 -0.0193
  401CHOL    R2 3591   8.312   7.216   6.993 -0.0490  0.2319 -0.5208
  401CHOL    R3 3592   8.524   7.380   7.035 -0.0076  0.0626  0.0059
  401CHOL    R4 3593   8.641   7.134   6.927 -0.0718  0.3602 -0.8061
  401CHOL    R5 3594   8.698   7.234   7.111 -0.0375 -0.2413 -0.4653
  401CHOL    C1 3595   9.032   7.240   6.927 -0.0461  0.2758 -0.4776
  401CHOL    C2 3596   9.320   7.367   6.670  0.0421  0.0493  0.0628
  402CHOL   ROH 3597  10.261  13.451   8.489  0.1363 -0.1476  0.0163
  402CHOL    R1 3598  10.370  13.366   8.242 -0.0402 -0.1196 -0.0744
  402CHOL    R2 3599  10.315  13.495   8.003 -0.1079 -0.0079 -0.0082
  402CHOL    R3 3600  10.586  13.509   7.986 -0.1100 -0.1374 -0.1402
  402CHOL    R4 3601  10.500  13.430   7.718 -0.2821  0.1391 -0.1558
  402CHOL    R5 3602  10.647  13.328   7.842 -0.2738 -0.0407 -0.3246
  402CHOL    C1 3603  10.862  13.406   7.537 -0.3855  0.1032 -0.3656
  402CHOL    C2 3604  11.324  13.408   7.476 -0.0104  0.3132  0.0682
  403XCA    COO 3605   3.488  11.148   4.187  0.1120  0.2603 -0.0019
  403XCA     C1 3606   3.661  11.228   4.644 -0.0443  0.0580  0.0515
  403XCA     C2 3607   3.774  11.197   5.096  0.0394  0.0250  0.0161
  403XCA     C3 3608   3.783  11.026   5.485  0.1801 -0.1120  0.2223
  403XCA     C4 3609   3.527  11.069   5.784  0.2155 -0.1256  0.0272
  403XCA     C5 3610   3.345  11.434   5.740 -0.0706  0.3489 -0.1199
  403XCA     C6 3611   3.111  11.584   5.436 -0.0442  0.0208 -0.0978
  404XCA    COO 3612  10.919  13.787   8.340 -0.2406 -0.0328 -0.1915
  404XCA     C1 3613  10.965  14.207   8.096 -0.0577  0.2798  0.0213
  404XCA     C2 3614  10.779  14.476   7.772  0.0071  0.4764  0.0791
  404XCA     C3 3615  10.675  14.341   7.270 -0.1770  0.0663 -0.1969
  404XCA     C4 3616  10.874  14.356   6.862  0.0559 -0.1778  0.0121
  404XCA     C5 3617  10.974  14.307   6.429 -0.2764  0.1519 -0.1680
  404XCA     C6 3618  11.294  14.471   6.150 -0.1133 -0.0697  0.1193
  405PNCE   AM1 3619  15.335   5.314   8.001 -0.0797 -0.1136  0.0443
  405PNCE   AM2 3620  15.674   5.164   8.097 -0.0287 -0.0404 -0.1449
  405PNCE   T1A 3621  15.072   5.244   7.622 -0.2354 -0.1306  0.2006
  405PNCE   C2A 3622  14.959   5.511   7.221 -0.0218  0.0390 -0.0643
  405PNCE   C3A 3623  14.739   5.745   6.908 -0.0187 -0.0282 -0.0330
  405PNCE   C1B 3624  15.799   4.915   7.785  0.1924  0.0642  0.1243
  405PNCE   C2B 3625  15.867   4.731   7.314  0.2721  0.0505 -0.0428
  405PNCE   C3B 3626  15.804   4.533   6.839 -0.0913 -0.0551  0.0190
  405PNCE   D4B 3627  15.520   4.578   6.463 -0.0550 -0.1613 -0.0322
  405PNCE   C5B 3628  15.326   4.930   6.413 -0.1651  0.0606 -0.0295
  405PNCE   C6B 3629  14.909   4.930   6.307  0.1003 -0.0480  0.0655
  406PNCE   AM1 3630   8.076   2.364   9.334  0.0262 -0.1366  0.1939
  406PNCE   AM2 3631   7.829   2.284   9.372  0.1400 -0.1961  0.4017
  406PNCE   T1A 3632   7.904   2.547   8.913  0.2110 -0.2639  0.3001
  406PNCE   C2A 3633   7.603   2.404   8.694  0.2089  0.0138 -0.0028
  406PNCE   C3A 3634   7.760   2.085   8.430 -0.1393  0.0987 -0.2132
  406PNCE   C1B 3635   7.865   2.044   8.981  0.1333 -0.2061 -0.1242
  406PNCE   C2B 3636   7.738   1.702   8.823 -0.0204 -0.2589 -0.2695
  406PNCE   C3B 3637   7.693   1.341   8.745 -0.1134  0.5531 -0.0133
  406PNCE   D4B 3638   7.555   1.161   8.376 -0.2917 -0.1094  0.1850
  406PNCE   C5B 3639   7.749   1.061   8.057  0.0591  0.0156  0.0718
  406PNCE   C6B 3640   8.093   0.907   7.731 -0.1613 -0.0478 -0.0955
  407PNCE   AM1 3641   5.606  10.914   4.880 -0.1007 -0.1796 -0.0007
  407PNCE   AM2 3642   5.293  10.705   4.889 -0.0853  0.1702  0.1159
  407PNCE   T1A 3643   5.459  10.864   5.337  0.0354 -0.1644 -0.0528
  407PNCE   C2A 3644   5.368  10.682   5.704  0.0336  0.1729 -0.3738
  407PNCE   C3A 3645   5.157  10.684   6.048 -0.1086 -0.3315 -0.0801
  407PNCE   C1B 3646   5.199  10.379   5.215 -0.0358  0.1271 -0.1486
  407PNCE   C2B 3647   5.053  10.072   5.560 -0.1256  0.0146  0.1217
  407PNCE   C3B 3648   4.800   9.775   5.833 -0.0709 -0.0879 -0.2121
  407PNCE   D4B 3649   4.583   9.494   6.037  0.1365  0.0778 -0.4764
  407PNCE   C5B 3650   4.162   9.373   6.087 -0.0385 -0.0356  0.2092
  407PNCE   C6B 3651   4.148   9.084   5.819  0.0198 -0.0728 -0.1043
  408XCA    COO 3652   4.853   6.326   4.562  0.3402  0.0211  0.2849
  408XCA     C1 3653   5.215   6.561   4.530  0.0870  0.1415  0.2734
  408XCA     C2 3654   5.389   6.852   4.753 -0.0483 -0.0218  0.0622
  408XCA     C3 3655   5.471   6.891   5.151  0.0207  0.0325  0.3860
  408XCA     C4 3656   5.593   6.813   5.500  0.2725  0.1154 -0.0094
  408XCA     C5 3657   5.666   6.637   5.974 -0.0411  0.0328 -0.0117
  408XCA     C6 3658   5.808   6.757   6.409 -0.1191 -0.0115 -0.1470
  409XCA    COO 3659  13.959  15.567   8.721  0.0160 -0.3772 -0.3639
  409XCA     C1 3660  13.942  15.473   8.269 -0.0860  0.0058 -0.2979
  409XCA     C2 3661  14.049  15.193   8.033 -0.3324  0.2707 -0.0639
  409XCA     C3 3662  14.287  15.093   7.716 -0.0872  0.0320  0.0740
  409XCA     C4 3663  14.448  14.866   7.327  0.0571  0.3112  0.1794
  409XCA     C5 3664  14.701  14.592   7.165 -0.4779  0.0254 -0.1061
  409XCA     C6 3665  14.715  14.270   6.817  0.0215  0.0926  0.2665
  410CHOL   ROH 3666  14.460  11.160   4.993  0.0257 -0.1046 -0.1848
  410CHOL    R1 3667  14.693  11.050   5.111 -0.0380 -0.0074  0.0372
  410CHOL    R2 3668  14.702  10.967   5.374 -0.2880 -0.1089  0.0159
  410CHOL    R3 3669  14.789  10.734   5.264 -0.0169 -0.0112  0.0166
  410CHOL    R4 3670  14.829  10.699   5.553 -0.2550 -0.0738  0.0450
  410CHOL    R5 3671  14.979  10.673   5.397 -0.0911  0.0859  0.1709
  410CHOL    C1 3672  14.984  10.325   5.553  0.0188  0.0384  0.0626
  410CHOL    C2 3673  15.062  10.178   5.953 -0.2924 -0.1361  0.1236
  411PNCE   AM1 3674   4.611   6.657   8.560 -0.1396  0.4523 -0.2196
  411PNCE   AM2 3675   4.312   6.470   8.596  0.2141  0.1539  0.0881
  411PNCE   T1A 3676   4.683   6.891   8.204  0.0652  0.2536  0.0162
  411PNCE   C2A 3677   4.619   7.134   7.744  0.0701 -0.0895 -0.0377
  411PNCE   C3A 3678   4.494   7.521   7.636  0.1976 -0.3808  0.1599
  411PNCE   C1B 3679   4.283   6.625   8.141 -0.2412  0.1723 -0.0239
  411PNCE   C2B 3680   4.276   6.800   7.784 -0.1189 -0.0536  0.0031
  411PNCE   C3B 3681   4.161   6.757   7.455 -0.2298 -0.1809  0.0346
  411PNCE   D4B 3682   4.250   6.783   7.005  0.0305  0.4799  0.5609
  411PNCE   C5B 3683   3.915   6.644   6.733  0.2290  0.2631 -0.0868
  411PNCE   C6B 3684   3.785   6.152   6.728 -0.1511 -0.1154 -0.2601
  412CHOL   ROH 3685   5.903   2.725   6.556  0.0780 -0.0500  0.0618
  412CHOL    R1 3686   5.808   2.477   6.652  0.0611 -0.0455  0.0557
  412CHOL    R2 3687   5.770   2.426   6.920 -0.1026  0.0082  0.0420
  412CHOL    R3 3688   5.520   2.358   6.839 -0.0397 -0.0569 -0.1035
  412CHOL    R4 3689   5.576   2.177   7.063 -0.1849  0.0744  0.0468
  412CHOL    R5 3690   5.511   2.120   6.863 -0.0353 -0.0463  0.0283
  412CHOL    C1 3691   5.228   1.970   7.070 -0.1738  0.0520 -0.0870
  412CHOL    C2 3692   5.348   1.717   7.277  0.1138  0.0449  0.1857
  413CHOL   ROH 3693  10.587  12.058   5.173  0.1224 -0.0701 -0.1522
  413CHOL    R1 3694  10.615  11.903   5.408 -0.0591 -0.0493 -0.1172
  413CHOL    R2 3695  10.739  11.999   5.635  0.0349 -0.1359 -0.1388
  413CHOL    R3 3696  10.506  11.926   5.755 -0.0500  0.1446 -0.1247
  413CHOL    R4 3697  10.715  11.857   5.949 -0.1021 -0.1884 -0.1708
  413CHOL    R5 3698  10.560  11.724   5.872 -0.2982  0.0347 -0.1860
  413CHOL    C1 3699  10.483  11.707   6.245 -0.2617  0.0445 -0.1762
  413CHOL    C2 3700  10.211  11.606   6.511 -0.0570 -0.3719  0.2934
  414CHOL   ROH 3701   5.329   1.341   4.799  0.2676 -0.0706 -0.0241
  414CHOL    R1 3702   5.326   1.381   5.079  0.1798  0.0681 -0.0442
  414CHOL    R2 3703   5.239   1.617   5.195  0.0300  0.0813 -0.1826
  414CHOL    R3 3704   5.076   1.450   5.334  0.0828  0.0662 -0.1379
  414CHOL    R4 3705   5.154   1.656   5.528  0.0407  0.1279 -0.1851
  414CHOL    R5 3706   5.173   1.441   5.553  0.0998  0.1374 -0.1416
  414CHOL    C1 3707   4.951   1.523   5.852  0.0965  0.1409 -0.1447
  414CHOL    C2 3708   4.762   1.411   6.151 -0.0536  0.1727  0.1501
  415XCA    COO 3709   8.926   3.725   8.838 -0.0302  0.1013 -0.1556
  415XCA     C1 3710   8.620   3.518   8.446 -0.1915  0.0835  0.0209
  415XCA     C2 3711   8.507   3.588   8.053 -0.2568  0.1607 -0.0256
  415XCA     C3 3712   8.235   3.497   7.846  0.0661 -0.0533 -0.0759
  415XCA     C4 3713   8.117   3.357   7.394  0.0404  0.0294  0.0643
  415XCA     C5 3714   8.266   3.599   7.059  0.3051 -0.3494  0.0011
  415XCA     C6 3715   8.529   3.665   6.806 -0.1043 -0.0663 -0.0626
  416PNCE   AM1 3716   9.621  15.825   9.582 -0.0566  0.4110 -0.2418
  416PNCE   AM2 3717   9.686  15.637   9.295  0.2405  0.1836  0.2067
  416PNCE   T1A 3718   9.471  16.026   9.158 -0.0038 -0.2868 -0.0380
  416PNCE   C2A 3719   9.297  16.320   8.816  0.2183 -0.2399 -0.1871
  416PNCE   C3A 3720   9.105  16.695   8.572 -0.3325 -0.0965 -0.2185
  416PNCE   C1B 3721   9.589  15.639   8.896 -0.0661 -0.0118  0.2191
  416PNCE   C2B 3722   9.477  15.787   8.496 -0.2183  0.1377  0.1654
  416PNCE   C3B 3723   9.667  16.090   8.105  0.1676  0.0933  0.2206
  416PNCE   D4B 3724  10.033  16.327   8.004 -0.4227 -0.2591  0.4215
  416PNCE   C5B 3725   9.937  16.832   7.912 -0.3128 -0.0817  0.0825
  416PNCE   C6B 3726   9.915  17.298   7.966  0.2789  0.0929  0.0280
  417CHOL   ROH 3727   3.358   5.826   4.814  0.1315  0.2154 -0.0772
  417CHOL    R1 3728   3.470   5.929   5.054  0.2815 -0.1439  0.0132
  417CHOL    R2 3729   3.342   6.120   5.206  0.6844  0.1302  0.0124
  417CHOL    R3 3730   3.377   5.939   5.405  0.1334 -0.0351 -0.0266
  417CHOL    R4 3731   3.330   6.193   5.544  0.7191  0.0683  0.0275
  417CHOL    R5 3732   3.498   6.058   5.574  0.3749 -0.3853  0.0638
  417CHOL    C1 3733   3.354   6.065   5.927  0.2221 -0.1230 -0.0003
  417CHOL    C2 3734   3.187   6.427   6.051  0.0301 -0.0936 -0.1362
  418CHOL   ROH 3735   7.539  15.422   7.835  0.3308 -0.1153  0.1476
  418CHOL    R1 3736   7.664  15.565   7.627 -0.0052  0.0809  0.0733
  418CHOL    R2 3737   7.559  15.798   7.522 -0.2167  0.1409  0.4093
  418CHOL    R3 3738   7.805  15.898   7.582 -0.1492  0.1509  0.1310
  418CHOL    R4 3739   7.679  16.103   7.413 -0.3231  0.1133  0.2080
  418CHOL    R5 3740   7.874  16.010   7.381 -0.3552  0.1010  0.0282
  418CHOL    C1 3741   7.980  16.375   7.406 -0.3217  0.1066 -0.1705
  418CHOL    C2 3742   8.417  16.627   7.344  0.0233 -0.0938  0.1270
  419XCA    COO 3743   0.441   2.549   4.239  0.1040  0.0054 -0.1795
  419XCA     C1 3744   0.609   2.994   4.479  0.0391  0.0776 -0.0249
  419XCA     C2 3745   0.658   3.271   4.815  0.2884  0.2412 -0.0042
  419XCA     C3 3746   0.576   3.231   5.230 -0.0304 -0.5481 -0.1430
  419XCA     C4 3747   0.722   3.218   5.672  0.0548  0.0974 -0.0333
  419XCA     C5 3748   0.728   2.962   6.012 -0.0079 -0.3369  0.0890
  419XCA     C6 3749   0.555   2.887   6.485 -0.1995 -0.0386  0.2743
  420PNCE   AM1 3750  10.077   2.539   9.443 -0.0072  0.0534 -0.0548
  420PNCE   AM2 3751   9.822   2.797   9.159 -0.1094  0.0136 -0.1386
  420PNCE   T1A 3752  10.399   2.495   9.063 -0.0094  0.2503  0.1581
  420PNCE   C2A 3753  10.306   2.163   8.742 -0.1232  0.1128 -0.4748
  420PNCE   C3A 3754  10.163   1.905   8.379  0.1846 -0.2093 -0.0297
  420PNCE   C1B 3755  10.021   2.645   8.756 -0.1486  0.0892  0.0985
  420PNCE   C2B 3756  10.016   2.848   8.420  0.1040  0.0691 -0.1061
  420PNCE   C3B 3757  10.385   2.954   8.062 -0.2062 -0.0143 -0.0942
  420PNCE   D4B 3758  10.567   2.627   7.802  0.0586 -0.0997  0.0739
  420PNCE   C5B 3759  10.790   2.298   7.934 -0.1797  0.0430 -0.2688
  420PNCE   C6B 3760  11.087   2.105   8.110 -0.0324  0.0674  0.4722
  421CHOL   ROH 3761   2.908   7.321   4.615  0.0507  0.1087  0.0528
  421CHOL    R1 3762   3.002   7.376   4.876  0.1548 -0.1073  0.0624
  421CHOL    R2 3763   2.834   7.444   5.084  0.2717  0.1255  0.0823
  421CHOL    R3 3764   2.957   7.236   5.209 -0.0649 -0.1123  0.0323
  421CHOL    R4 3765   2.864   7.409   5.427  0.3355  0.0701  0.0717
  421CHOL    R5 3766   3.067   7.336   5.397  0.1972 -0.3129 -0.0065
  421CHOL    C1 3767   2.996   7.194   5.743  0.0566 -0.1854  0.0186
  421CHOL    C2 3768   3.149   7.530   5.961 -0.0442  0.2524 -0.3383
  422PNCE   AM1 3769  14.496   2.468   4.175  0.1220  0.1411 -0.1632
  422PNCE   AM2 3770  14.302   2.138   4.288  0.1192 -0.2957 -0.1687
  422PNCE   T1A 3771  14.687   2.369   4.602  0.2177  0.0591  0.0083
  422PNCE   C2A 3772  14.760   2.416   5.058  0.2563  0.0893  0.0072
  422PNCE   C3A 3773  14.780   2.568   5.441 -0.1998 -0.0499 -0.1143
  422PNCE   C1B 3774  14.466   1.948   4.733  0.2992 -0.0124 -0.0876
  422PNCE   C2B 3775  14.466   2.007   5.187 -0.1524  0.0459  0.3271
  422PNCE   C3B 3776  14.519   2.042   5.670 -0.0856  0.1636  0.0555
  422PNCE   D4B 3777  14.495   2.086   6.124 -0.0935  0.4155 -0.0865
  422PNCE   C5B 3778  14.918   2.139   6.324  0.2014 -0.2345  0.2956
  422PNCE   C6B 3779  15.376   1.907   6.473 -0.3057 -0.0522 -0.0082
  423PNCE   AM1 3780  10.484   0.291   9.153 -0.3090  0.0776  0.0727
  423PNCE   AM2 3781  10.794   0.205   9.016 -0.0911 -0.4474  0.0099
  423PNCE   T1A 3782  10.398   0.329   8.752 -0.1209 -0.1788 -0.2089
  423PNCE   C2A 3783  10.235   0.525   8.465  0.1353  0.4461 -0.1691
  423PNCE   C3A 3784  10.368   0.807   8.131  0.0032  0.0171  0.0631
  423PNCE   C1B 3785  10.780   0.116   8.551 -0.1852 -0.0390 -0.1251
  423PNCE   C2B 3786  10.925   0.017   8.179 -0.0999  0.0215  0.1115
  423PNCE   C3B 3787  10.753  -0.036   7.816  0.6380  0.2707 -0.0586
  423PNCE   D4B 3788  10.839   0.187   7.481  0.1371  0.0984  0.2869
  423PNCE   C5B 3789  10.618   0.507   7.364 -0.2319  0.2831  0.1656
  423PNCE   C6B 3790  10.641   0.850   7.608  0.0028  0.0564 -0.0455
  424CHOL   ROH 3791   1.642  11.293   7.804  0.1759  0.2338 -0.1385
  424CHOL    R1 3792   1.734  11.419   7.568  0.1889  0.0548 -0.2307
  424CHOL    R2 3793   1.885  11.287   7.377 -0.0283 -0.1654 -0.2522
  424CHOL    R3 3794   1.689  11.374   7.209 -0.0227 -0.0395 -0.1948
  424CHOL    R4 3795   1.925  11.346   7.039 -0.0481 -0.0571 -0.2362
  424CHOL    R5 3796   1.801  11.523   7.059  0.0110 -0.0206 -0.1547
  424CHOL    C1 3797   1.765  11.462   6.685 -0.0544  0.1242 -0.1730
  424CHOL    C2 3798   1.892  11.696   6.374  0.0849  0.0737 -0.0446
  425PNCE   AM1 3799  13.936   1.443   8.988  0.1703  0.2885 -0.2774
  425PNCE   AM2 3800  13.643   1.664   9.120 -0.0058 -0.0230 -0.0074
  425PNCE   T1A 3801  13.844   1.187   8.651 -0.0791  0.1267  0.2976
  425PNCE   C2A 3802  14.021   1.276   8.255 -0.4093  0.2273 -0.1705
  425PNCE   C3A 3803  13.833   1.456   7.841 -0.1570 -0.0364  0.1006
  425PNCE   C1B 3804  13.483   1.597   8.660 -0.3681  0.1501  0.4206
  425PNCE   C2B 3805  13.791   1.744   8.378  0.2642 -0.0454 -0.1065
  425PNCE   C3B 3806  14.222   1.766   8.049  0.1423  0.1963 -0.1388
  425PNCE   D4B 3807  14.156   1.759   7.665  0.3984 -0.0865 -0.1095
  425PNCE   C5B 3808  13.732   1.878   7.554  0.1452  0.2828 -0.0841
  425PNCE   C6B 3809  13.242   2.013   7.492  0.0814  0.0530  0.3153
  426PNCE   AM1 3810  14.775  10.135   8.823 -0.3012 -0.2682  0.2814
  426PNCE   AM2 3811  14.652   9.827   8.701  0.3278 -0.1357 -0.2253
  426PNCE   T1A 3812  14.563  10.250   8.370  0.1173  0.2982  0.0218
  426PNCE   C2A 3813  14.632  10.578   8.071 -0.0987 -0.1735 -0.0334
  426PNCE   C3A 3814  14.744  10.910   8.111 -0.0156  0.1324 -0.2994
  426PNCE   C1B 3815  14.567   9.736   8.339  0.1172  0.1140 -0.2917
  426PNCE   C2B 3816  14.730   9.941   7.958 -0.0773 -0.0071  0.3239
  426PNCE   C3B 3817  14.646  10.002   7.518  0.0347 -0.0389  0.1510
  426PNCE   D4B 3818  14.343  10.062   7.241  0.3036  0.1604  0.1319
  426PNCE   C5B 3819  14.061  10.282   7.302 -0.1392 -0.0440 -0.0871
  426PNCE   C6B 3820  14.309  10.683   7.162  0.0801 -0.2620 -0.0211
  427PNCE   AM1 3821  13.665  12.442   8.412  0.1764  0.0214 -0.2025
  427PNCE   AM2 3822  13.975  12.444   8.291 -0.2906  0.0990  0.1581
  427PNCE   T1A 3823  13.273  12.264   8.344 -0.1858  0.2226 -0.1925
  427PNCE   C2A 3824  13.066  11.931   8.093 -0.0076 -0.1388  0.1095
  427PNCE   C3A 3825  13.012  11.562   8.150  0.1668 -0.0472  0.2581
  427PNCE   C1B 3826  13.959  12.423   7.807 -0.3117 -0.1405 -0.3383
  427PNCE   C2B 3827  13.786  12.631   7.284  0.0629 -0.2755  0.1297
  427PNCE   C3B 3828  13.383  12.635   7.100  0.0999 -0.1593  0.1903
  427PNCE   D4B 3829  12.933  12.587   6.938 -0.3931 -0.0906 -0.1188
  427PNCE   C5B 3830  12.551  12.705   7.179 -0.0867 -0.0005 -0.1516
  427PNCE   C6B 3831  12.361  12.368   7.408 -0.1739  0.1332 -0.0341
  428PNCE   AM1 3832   9.645   9.687   8.377 -0.1690 -0.2324  0.3031
  428PNCE   AM2 3833   9.966   9.764   8.173 -0.0915  0.3279  0.0918
  428PNCE   T1A 3834   9.498   9.671   7.969 -0.0201  0.0426 -0.0704
  428PNCE   C2A 3835   9.252   9.396   7.719  0.1525 -0.0076  0.5086
  428PNCE   C3A 3836   8.960   9.323   7.425 -0.0031  0.4128 -0.3088
  428PNCE   C1B 3837  10.105   9.605   7.783  0.1598  0.1044 -0.2345
  428PNCE   C2B 3838  10.248   9.648   7.417  0.2643 -0.1530 -0.2170
  428PNCE   C3B 3839  10.099   9.556   7.110  0.3364  0.0923  0.2438
  428PNCE   D4B 3840   9.701   9.625   6.951  0.2940  0.1638  0.2087
  428PNCE   C5B 3841   9.377   9.815   6.887 -0.1235 -0.2089 -0.1307
  428PNCE   C6B 3842   9.091  10.090   6.841 -0.0619  0.0357  0.0316
  429CHOL   ROH 3843   6.153  14.966   5.000 -0.2398 -0.0372  0.0026
  429CHOL    R1 3844   6.248  15.023   5.260 -0.0923  0.0120 -0.0597
  429CHOL    R2 3845   6.273  15.281   5.356 -0.0900  0.0324 -0.1008
  429CHOL    R3 3846   6.118  15.187   5.559  0.0513  0.0160 -0.0004
  429CHOL    R4 3847   6.260  15.415   5.674 -0.2254  0.2956 -0.2151
  429CHOL    R5 3848   6.254  15.213   5.754  0.0381  0.3581 -0.0355
  429CHOL    C1 3849   6.107  15.405   6.050 -0.1717  0.4334 -0.1874
  429CHOL    C2 3850   5.785  15.535   6.265 -0.1738  0.2548  0.0305
  430PNCE   AM1 3851  15.061   4.930   8.213  0.4822  0.0991  0.1762
  430PNCE   AM2 3852  15.037   4.581   8.203  0.1736  0.0025 -0.0836
  430PNCE   T1A 3853  14.959   4.818   7.761  0.0592  0.1618 -0.2951
  430PNCE   C2A 3854  15.094   4.661   7.318  0.5158 -0.3038 -0.2092
  430PNCE   C3A 3855  15.276   4.649   6.866 -0.3440  0.0006  0.1203
  430PNCE   C1B 3856  14.832   4.284   7.976  0.1222  0.0171  0.0725
  430PNCE   C2B 3857  14.421   4.150   7.713 -0.2634  0.1549 -0.1931
  430PNCE   C3B 3858  14.024   4.088   7.469 -0.1713  0.0770 -0.1728
  430PNCE   D4B 3859  13.692   3.758   7.486 -0.0779 -0.1153 -0.0265
  430PNCE   C5B 3860  13.341   3.762   7.211 -0.1066 -0.2719  0.2101
  430PNCE   C6B 3861  13.322   3.981   6.814  0.0606  0.0686 -0.1372
  431PNCE   AM1 3862   8.598  13.394   8.634  0.0305 -0.0744 -0.4020
  431PNCE   AM2 3863   8.419  13.556   8.730 -0.1221 -0.1131  0.1662
  431PNCE   T1A 3864   8.388  13.554   8.183  0.1630  0.0867  0.2351
  431PNCE   C2A 3865   8.343  13.448   7.752  0.0871 -0.0045 -0.0181
  431PNCE   C3A 3866   8.360  13.222   7.266  0.2680 -0.0931  0.1212
  431PNCE   C1B 3867   8.029  13.731   8.485 -0.1881 -0.1468 -0.1966
  431PNCE   C2B 3868   7.920  13.787   8.034  0.2489 -0.0528 -0.1437
  431PNCE   C3B 3869   7.719  13.717   7.671 -0.3432  0.0965  0.4163
  431PNCE   D4B 3870   7.541  14.050   7.434 -0.2018 -0.2707  0.1025
  431PNCE   C5B 3871   7.621  14.638   7.440 -0.3018  0.0342  0.0137
  431PNCE   C6B 3872   7.680  15.020   7.595  0.0706  0.0244  0.1343
  432XCA    COO 3873  12.498   3.982   9.438 -0.0939  0.3779 -0.0150
  432XCA     C1 3874  12.502   3.839   8.996 -0.1103  0.0669  0.2732
  432XCA     C2 3875  12.271   3.913   8.724  0.0403  0.0052 -0.0674
  432XCA     C3 3876  12.258   4.188   8.249 -0.0543  0.1517 -0.0150
  432XCA     C4 3877  12.464   4.242   7.802 -0.2479  0.2019 -0.0537
  432XCA     C5 3878  12.448   4.492   7.450  0.0038  0.2728 -0.2776
  432XCA     C6 3879  12.524   4.480   7.015 -0.0611  0.6320  0.2051
  433XCA    COO 3880   9.438   8.776   7.889 -0.2735 -0.0503  0.1336
  433XCA     C1 3881   9.503   9.042   7.471 -0.0768 -0.3747  0.1237
  433XCA     C2 3882   9.402   9.272   7.066  0.4209 -0.3731  0.1592
  433XCA     C3 3883   8.976   9.524   6.907 -0.0916  0.0333 -0.1612
  433XCA     C4 3884   8.643   9.583   6.513 -0.0517 -0.0348 -0.0647
  433XCA     C5 3885   8.403   9.881   6.268 -0.0597  0.0800  0.3912
  433XCA     C6 3886   8.401  10.191   5.920  0.4050  0.2243  0.0207
  434CHOL   ROH 3887   0.875   2.060   5.292 -0.0390  0.1955 -0.2636
  434CHOL    R1 3888   0.912   2.279   5.466  0.0772  0.0958 -0.1615
  434CHOL    R2 3889   0.726   2.351   5.657  0.1159  0.1045 -0.1265
  434CHOL    R3 3890   0.939   2.330   5.826  0.1071 -0.0847 -0.1374
  434CHOL    R4 3891   0.737   2.477   5.979  0.2705  0.1652 -0.1545
  434CHOL    R5 3892   0.943   2.538   5.943  0.3362 -0.0605 -0.1829
  434CHOL    C1 3893   0.942   2.530   6.325  0.3521  0.0230 -0.1811
  434CHOL    C2 3894   1.196   2.324   6.577  0.0072  0.1511  0.0811
  435CHOL   ROH 3895  10.805   3.366   5.474 -0.2003  0.1628 -0.1754
  435CHOL    R1 3896  10.659   3.227   5.672  0.1506  0.0221 -0.0053
  435CHOL    R2 3897  10.757   3.184   5.926  0.3226  0.4720  0.0173
  435CHOL    R3 3898  10.523   3.301   6.001  0.0781  0.0438 -0.0406
  435CHOL    R4 3899  10.632   3.187   6.249  0.3459  0.4380  0.0265
  435CHOL    R5 3900  10.433   3.153   6.167  0.4001 -0.0338  0.0698
  435CHOL    C1 3901  10.341   3.299   6.507  0.1297  0.0161 -0.0225
  435CHOL    C2 3902  10.380   3.037   6.768 -0.1416 -0.1062  0.1970
  436XCA    COO 3903   3.293  14.855   8.665  0.0773  0.0103  0.0355
  436XCA     C1 3904   3.348  15.047   8.204  0.1084 -0.0588  0.0099
  436XCA     C2 3905   3.677  15.217   7.847 -0.0270  0.0546 -0.4732
  436XCA     C3 3906   3.823  15.336   7.488 -0.0134  0.1248 -0.2309
  436XCA     C4 3907   3.953  15.626   7.168 -0.0860 -0.2306  0.0421
  436XCA     C5 3908   4.331  15.682   7.003 -0.2356  0.0043  0.1723
  436XCA     C6 3909   4.705  15.343   6.982 -0.0409 -0.0686  0.0187
  437CHOL   ROH 3910   7.786   8.297   7.592 -0.1189 -0.0016  0.0994
  437CHOL    R1 3911   7.598   8.472   7.474 -0.0103  0.0477 -0.0035
  437CHOL    R2 3912   7.582   8.510   7.200  0.0265 -0.0858 -0.0292
  437CHOL    R3 3913   7.321   8.444   7.239 -0.0128  0.0841 -0.0029
  437CHOL    R4 3914   7.337   8.516   6.956  0.0129  0.0120 -0.0127
  437CHOL    R5 3915   7.199   8.598   7.103  0.0732  0.1269 -0.0262
  437CHOL    C1 3916   6.949   8.457   6.851 -0.0319  0.2283  0.0216
  437CHOL    C2 3917   6.739   8.471   6.492 -0.0924  0.0119  0.0922
  438PNCE   AM1 3918  12.134  14.535   8.492  0.1235  0.1260 -0.1214
  438PNCE   AM2 3919  12.062  14.199   8.472 -0.2009  0.1773  0.0425
  438PNCE   T1A 3920  12.043  14.839   8.076  0.0207  0.1885 -0.0474
  438PNCE   C2A 3921  12.094  15.046   7.669  0.0683 -0.0215  0.0505
  438PNCE   C3A 3922  11.867  15.177   7.272  0.3228 -0.1261  0.2071
  438PNCE   C1B 3923  12.130  14.125   8.014  0.0567  0.2095  0.2295
  438PNCE   C2B 3924  12.372  14.198   7.640 -0.2602 -0.0534  0.0693
  438PNCE   C3B 3925  12.435  14.294   7.206 -0.1393 -0.0662 -0.0591
  438PNCE   D4B 3926  12.700  14.361   6.945 -0.0970  0.1927 -0.0751
  438PNCE   C5B 3927  13.134  14.202   7.024  0.0883 -0.0594  0.1687
  438PNCE   C6B 3928  13.360  13.894   7.195  0.0447 -0.1459 -0.1886
  439XCA    COO 3929  14.616   2.719   8.751 -0.1122 -0.1525  0.1001
  439XCA     C1 3930  14.414   2.790   8.335  0.0764 -0.1013 -0.1006
  439XCA     C2 3931  14.647   2.770   7.854 -0.3048 -0.0311  0.2545
  439XCA     C3 3932  14.590   2.524   7.483  0.1738 -0.2538  0.1649
  439XCA     C4 3933  14.639   2.494   6.983  0.0915 -0.3216 -0.0162
  439XCA     C5 3934  14.609   2.513   6.458  0.0308 -0.2120  0.0589
  439XCA     C6 3935  14.367   2.603   6.215  0.0844 -0.1121  0.0268
  440CHOL   ROH 3936  14.463   4.372   5.547 -0.0346 -0.2298  0.0219
  440CHOL    R1 3937  14.503   4.415   5.823 -0.0363 -0.1859  0.0146
  440CHOL    R2 3938  14.612   4.223   5.990  0.1887 -0.0718 -0.0026
  440CHOL    R3 3939  14.786   4.422   6.052 -0.0057  0.1111 -0.0269
  440CHOL    R4 3940  14.719   4.300   6.310  0.2731 -0.0720 -0.0299
  440CHOL    R5 3941  14.704   4.511   6.259 -0.0017 -0.0626  0.0544
  440CHOL    C1 3942  14.945   4.531   6.554  0.1399  0.0995 -0.0686
  440CHOL    C2 3943  14.792   4.486   6.954 -0.2984  0.2019 -0.0107
  441CHOL   ROH 3944   3.880   5.118   4.827  0.3569 -0.0670 -0.1663
  441CHOL    R1 3945   4.096   5.226   4.975  0.2153 -0.0292  0.0143
  441CHOL    R2 3946   4.136   5.498   5.002  0.1719 -0.0264  0.0061
  441CHOL    R3 3947   4.135   5.440   5.267 -0.0631  0.0214  0.0192
  441CHOL    R4 3948   4.268   5.701   5.248 -0.0299  0.0170  0.0813
  441CHOL    R5 3949   4.346   5.522   5.347 -0.1221  0.0268  0.1848
  441CHOL    C1 3950   4.344   5.765   5.641 -0.3679  0.0871  0.1373
  441CHOL    C2 3951   4.688   5.865   5.892  0.0062  0.1736 -0.1878
  442CHOL   ROH 3952   6.654   1.955   9.233 -0.0513  0.1076  0.1496
  442CHOL    R1 3953   6.744   2.104   9.010  0.1269  0.2043  0.2842
  442CHOL    R2 3954   7.010   2.171   8.973  0.2224 -0.1460  0.3110
  442CHOL    R3 3955   6.974   2.051   8.732  0.0041  0.1477  0.1916
  442CHOL    R4 3956   7.197   2.236   8.690  0.3469 -0.2025  0.3793
  442CHOL    R5 3957   7.014   2.225   8.573  0.3186  0.2402  0.3603
  442CHOL    C1 3958   7.272   2.161   8.299  0.2145  0.0403  0.3069
  442CHOL    C2 3959   7.462   2.383   8.081  0.2046 -0.0575 -0.1475
  443CHOL   ROH 3960  12.541   9.008   6.125 -0.0743  0.2202  0.1420
  443CHOL    R1 3961  12.259   8.984   6.111 -0.0693  0.1421  0.1655
  443CHOL    R2 3962  12.094   9.196   6.048 -0.1408  0.1186  0.2620
  443CHOL    R3 3963  12.002   9.026   5.857 -0.1093  0.1605  0.2098
  443CHOL    R4 3964  11.807   9.244   5.863  0.0578  0.3153 -0.0025
  443CHOL    R5 3965  11.764   9.031   5.882 -0.1292  0.3533 -0.0025
  443CHOL    C1 3966  11.553   9.113   5.575  0.2031  0.4692 -0.2055
  443CHOL    C2 3967  11.374   9.253   5.192 -0.0920 -0.1599 -0.0932
  444CHOL   ROH 3968  13.488  10.435   4.593  0.4035  0.0861  0.0034
  444CHOL    R1 3969  13.517  10.236   4.792  0.2265 -0.0088 -0.0650
  444CHOL    R2 3970  13.759  10.114   4.846  0.1901  0.0131  0.1318
  444CHOL    R3 3971  13.706  10.196   5.100 -0.0958 -0.1303  0.1241
  444CHOL    R4 3972  13.869   9.955   5.133  0.1848  0.0510  0.1558
  444CHOL    R5 3973  13.675   9.993   5.223  0.0642 -0.2166  0.0324
  444CHOL    C1 3974  13.885   9.940   5.538 -0.0868 -0.0614  0.1626
  444CHOL    C2 3975  14.044  10.002   5.925 -0.0348 -0.0544  0.2682
  445CHOL   ROH 3976   7.110   1.495   9.340 -0.2965 -0.0604 -0.0817
  445CHOL    R1 3977   7.078   1.606   9.081 -0.2319  0.0455 -0.0474
  445CHOL    R2 3978   7.250   1.795   8.978 -0.1600  0.0482  0.0413
  445CHOL    R3 3979   7.270   1.618   8.773 -0.1798  0.1058 -0.0077
  445CHOL    R4 3980   7.395   1.864   8.672  0.1543 -0.0118  0.1742
  445CHOL    R5 3981   7.235   1.751   8.576  0.1212  0.1983  0.0090
  445CHOL    C1 3982   7.498   1.738   8.301  0.3186  0.0073  0.2056
  445CHOL    C2 3983   7.840   1.873   7.992 -0.2180 -0.1021  0.0505
  446XCA    COO 3984  14.176  15.086   8.739  0.0106  0.0283  0.3767
  446XCA     C1 3985  14.478  15.147   8.380 -0.1026 -0.0699  0.1192
  446XCA     C2 3986  14.738  15.098   8.002 -0.0213  0.0597  0.0022
  446XCA     C3 3987  14.809  15.031   7.573  0.1569 -0.0147 -0.0945
  446XCA     C4 3988  15.017  15.096   7.168 -0.3665 -0.0790  0.0369
  446XCA     C5 3989  15.295  15.231   6.890  0.1300 -0.3274 -0.1276
  446XCA     C6 3990  15.258  14.961   6.576 -0.1955 -0.2942  0.1524
  447PNCE   AM1 3991  13.606   7.080   6.814 -0.1944 -0.0980  0.0040
  447PNCE   AM2 3992  13.888   7.189   6.653  0.0318  0.1595  0.4006
  447PNCE   T1A 3993  13.222   7.008   6.756  0.3150 -0.0748 -0.2923
  447PNCE   C2A 3994  13.022   7.050   6.398  0.1018 -0.0845 -0.0875
  447PNCE   C3A 3995  12.913   7.500   6.194 -0.2373 -0.4698 -0.2901
  447PNCE   C1B 3996  14.182   7.477   6.661 -0.3142  0.1286  0.1042
  447PNCE   C2B 3997  14.319   7.845   6.413  0.4322  0.0087 -0.2970
  447PNCE   C3B 3998  14.297   7.826   5.962 -0.1354 -0.1574  0.0236
  447PNCE   D4B 3999  14.259   7.673   5.660  0.0753  0.1523  0.0981
  447PNCE   C5B 4000  14.330   7.959   5.274  0.0011 -0.4905  0.1733
  447PNCE   C6B 4001  14.534   8.261   4.953  0.2674  0.3690  0.1345
  448PNCE   AM1 4002   9.716  12.916   8.295 -0.2126  0.3759 -0.0790
  448PNCE   AM2 4003   9.965  13.030   8.597  0.0529  0.0387 -0.1491
  448PNCE   T1A 4004   9.738  12.906   7.877  0.4844 -0.0325  0.1121
  448PNCE   C2A 4005  10.002  12.766   7.444 -0.1165 -0.0021 -0.0839
  448PNCE   C3A 4006  10.288  12.690   7.051  0.2799  0.0684 -0.3945
  448PNCE   C1B 4007  10.160  12.941   8.142  0.0990 -0.0772  0.2838
  448PNCE   C2B 4008  10.253  13.030   7.782 -0.1503  0.0143  0.0161
  448PNCE   C3B 4009  10.393  13.143   7.439  0.3247  0.2214 -0.2088
  448PNCE   D4B 4010  10.490  13.516   7.217 -0.3222 -0.0524  0.2415
  448PNCE   C5B 4011  10.170  13.750   6.989  0.0430  0.2466 -0.2154
  448PNCE   C6B 4012   9.751  13.981   7.122  0.4013 -0.0430 -0.2087
  449CHOL   ROH 4013   2.881  12.502   4.444  0.3126 -0.1015  0.2440
  449CHOL    R1 4014   2.773  12.641   4.665  0.1917 -0.0647  0.1631
  449CHOL    R2 4015   2.537  12.784   4.651  0.2229 -0.0282 -0.0020
  449CHOL    R3 4016   2.468  12.628   4.863  0.0607  0.0023 -0.0306
  449CHOL    R4 4017   2.353  12.891   4.924  0.2399  0.0850 -0.0346
  449CHOL    R5 4018   2.485  12.774   5.052  0.1268 -0.0247 -0.0144
  449CHOL    C1 4019   2.182  12.807   5.282  0.0974  0.1796 -0.0804
  449CHOL    C2 4020   1.888  12.832   5.527 -0.1665 -0.0165  0.0184
  450PNCE   AM1 4021  13.370   0.814   4.646  0.0551  0.0154 -0.1042
  450PNCE   AM2 4022  13.231   0.977   4.429 -0.0492 -0.2752  0.0141
  450PNCE   T1A 4023  13.227   0.693   5.119  0.0206 -0.0881 -0.1357
  450PNCE   C2A 4024  13.157   0.594   5.569  0.0096 -0.0299 -0.0682
  450PNCE   C3A 4025  12.925   0.693   5.935  0.2003  0.0444 -0.0289
  450PNCE   C1B 4026  13.392   1.310   4.772  0.0394 -0.0289 -0.0762
  450PNCE   C2B 4027  13.449   1.326   5.227  0.2738 -0.0720 -0.0312
  450PNCE   C3B 4028  13.515   1.425   5.671 -0.0813 -0.0112  0.1353
  450PNCE   D4B 4029  13.550   1.347   6.139  0.4268 -0.0767  0.3477
  450PNCE   C5B 4030  13.806   1.744   6.255  0.1215  0.1299  0.1124
  450PNCE   C6B 4031  14.184   1.900   6.410  0.0808  0.1735 -0.0273
  451PNCE   AM1 4032   9.873   5.717   8.878 -0.1648  0.1523 -0.2260
  451PNCE   AM2 4033   9.713   5.405   8.968  0.0892 -0.1253  0.1987
  451PNCE   T1A 4034   9.651   5.714   8.507  0.1256 -0.3633  0.4118
  451PNCE   C2A 4035   9.424   5.692   8.053 -0.1152  0.0199  0.1687
  451PNCE   C3A 4036   8.983   5.497   7.878  0.1034 -0.0589 -0.0403
  451PNCE   C1B 4037   9.657   5.168   8.561 -0.0150  0.1218 -0.4182
  451PNCE   C2B 4038   9.578   4.919   8.243  0.1664 -0.1272  0.0978
  451PNCE   C3B 4039   9.482   4.790   7.701  0.1469  0.0634 -0.2031
  451PNCE   D4B 4040   9.346   4.880   7.250 -0.3553  0.0454 -0.1662
  451PNCE   C5B 4041   8.977   5.121   7.133  0.2731  0.1308 -0.0251
  451PNCE   C6B 4042   8.660   5.035   7.204 -0.0500 -0.1118  0.1381
  452PNCE   AM1 4043   2.471  15.660   8.769  0.2118  0.1905 -0.2734
  452PNCE   AM2 4044   2.313  15.365   8.713 -0.0823 -0.1300 -0.1407
  452PNCE   T1A 4045   2.592  15.657   8.370 -0.2661 -0.1192 -0.1304
  452PNCE   C2A 4046   2.609  15.605   7.849 -0.1620 -0.0162  0.1866
  452PNCE   C3A 4047   2.464  15.653   7.464  0.0696  0.3015 -0.2666
  452PNCE   C1B 4048   2.168  15.492   8.243  0.4345 -0.0415  0.0993
  452PNCE   C2B 4049   2.101  15.683   7.836 -0.3425 -0.2331  0.0773
  452PNCE   C3B 4050   2.060  15.978   7.516  0.0871  0.2770  0.0562
  452PNCE   D4B 4051   2.160  15.908   7.103 -0.0459  0.4086  0.2841
  452PNCE   C5B 4052   2.007  15.997   6.692 -0.1509 -0.0570 -0.0162
  452PNCE   C6B 4053   1.742  15.778   6.428 -0.2774 -0.3009  0.1239
  453PNCE   AM1 4054  13.390  13.184   8.907  0.0041 -0.2619  0.0090
  453PNCE   AM2 4055  13.700  13.007   9.047 -0.0017  0.0867  0.0186
  453PNCE   T1A 4056  13.063  13.242   8.498 -0.2735 -0.1221 -0.0861
  453PNCE   C2A 4057  12.857  13.064   8.104  0.1107  0.1504 -0.1849
  453PNCE   C3A 4058  12.616  12.820   7.739  0.0111 -0.2570 -0.1422
  453PNCE   C1B 4059  13.725  12.963   8.591 -0.0992  0.0352  0.0963
  453PNCE   C2B 4060  13.797  12.877   8.135  0.0079  0.1083 -0.0833
  453PNCE   C3B 4061  14.241  12.823   7.932  0.2095 -0.2295  0.1507
  453PNCE   D4B 4062  14.428  12.648   7.574  0.0340 -0.2840  0.1264
  453PNCE   C5B 4063  14.634  12.283   7.412  0.2103  0.0070  0.1764
  453PNCE   C6B 4064  15.061  12.116   7.414  0.1057  0.3655 -0.2631
  454CHOL   ROH 4065   4.257   7.190   7.442  0.1908  0.0963  0.1075
  454CHOL    R1 4066   4.331   7.172   7.170  0.0886  0.0008  0.0834
  454CHOL    R2 4067   4.318   7.389   6.997 -0.0713 -0.0773 -0.0199
  454CHOL    R3 4068   4.579   7.326   6.953 -0.0632  0.0088 -0.0829
  454CHOL    R4 4069   4.499   7.478   6.716 -0.1588 -0.0318 -0.0602
  454CHOL    R5 4070   4.591   7.281   6.719 -0.0965  0.0071 -0.0775
  454CHOL    C1 4071   4.849   7.471   6.511 -0.2021  0.0755 -0.1428
  454CHOL    C2 4072   5.249   7.423   6.244 -0.0463  0.0960  0.3732
  455PNCE   AM1 4073   0.150   4.756   8.202 -0.1070  0.3275  0.1326
  455PNCE   AM2 4074   0.199   4.388   8.184 -0.0845  0.1850 -0.0239
  455PNCE   T1A 4075   0.383   4.763   7.767  0.1048  0.0913 -0.1646
  455PNCE   C2A 4076   0.484   4.609   7.390 -0.0483 -0.0472  0.0782
  455PNCE   C3A 4077   0.697   4.507   7.067  0.2642 -0.1447 -0.0981
  455PNCE   C1B 4078   0.380   4.223   7.938 -0.1316  0.0284  0.0753
  455PNCE   C2B 4079   0.641   4.147   7.520  0.0249  0.0691  0.0832
  455PNCE   C3B 4080   0.588   3.765   7.206 -0.3359 -0.1262 -0.1831
  455PNCE   D4B 4081   0.148   3.735   6.945 -0.0806 -0.3275  0.0500
  455PNCE   C5B 4082  -0.252   4.001   6.886  0.0350  0.0591 -0.2191
  455PNCE   C6B 4083  -0.592   4.195   6.657 -0.2561 -0.0681  0.2378
  456PNCE   AM1 4084   4.951   3.038   8.827 -0.1884 -0.3161 -0.0623
  456PNCE   AM2 4085   4.770   3.041   8.559  0.3929  0.0579 -0.0858
  456PNCE   T1A 4086   5.281   2.820   8.611 -0.2438  0.2564 -0.1829
  456PNCE   C2A 4087   5.447   2.691   8.246  0.3552 -0.0406  0.0791
  456PNCE   C3A 4088   5.439   2.718   7.827 -0.0927 -0.0748  0.0450
  456PNCE   C1B 4089   4.421   2.844   8.247 -0.0358 -0.0369  0.0204
  456PNCE   C2B 4090   3.981   2.619   8.112 -0.0872 -0.0776  0.0179
  456PNCE   C3B 4091   3.898   2.514   7.760  0.1920  0.1293  0.1844
  456PNCE   D4B 4092   4.076   2.736   7.367  0.1203  0.1741 -0.6558
  456PNCE   C5B 4093   4.258   3.083   7.377 -0.3398  0.1164 -0.1328
  456PNCE   C6B 4094   4.371   3.510   7.607  0.1333  0.3692 -0.1959
  457PNCE   AM1 4095   3.102   3.365   8.201 -0.1931 -0.4696  0.0802
  457PNCE   AM2 4096   3.396   3.264   8.376  0.1837  0.0971  0.0202
  457PNCE   T1A 4097   3.071   3.179   7.722 -0.1115  0.2130 -0.1722
  457PNCE   C2A 4098   3.062   3.112   7.290  0.3393 -0.0841 -0.0017
  457PNCE   C3A 4099   3.287   2.932   6.929 -0.0152  0.1679 -0.1516
  457PNCE   C1B 4100   3.541   2.980   8.081  0.0761  0.1322 -0.1876
  457PNCE   C2B 4101   3.435   2.812   7.607  0.2505 -0.0132 -0.2091
  457PNCE   C3B 4102   3.652   2.957   7.233 -0.0369 -0.1727 -0.1492
  457PNCE   D4B 4103   3.841   3.188   6.997 -0.3184 -0.2108 -0.3336
  457PNCE   C5B 4104   4.027   3.078   6.560  0.2148 -0.1057  0.0045
  457PNCE   C6B 4105   4.048   3.337   6.146  0.0757 -0.0179 -0.3387
  458PNCE   AM1 4106   1.216   2.880   8.816  0.2048  0.2824  0.1615
  458PNCE   AM2 4107   0.910   2.690   8.903 -0.1997 -0.1398  0.2693
  458PNCE   T1A 4108   1.017   2.673   8.374  0.2910  0.1759  0.0594
  458PNCE   C2A 4109   1.043   2.439   7.998 -0.2542 -0.0870 -0.1326
  458PNCE   C3A 4110   1.213   2.153   7.794 -0.1263  0.2621  0.1378
  458PNCE   C1B 4111   0.994   2.300   8.708 -0.1347  0.3247 -0.3025
  458PNCE   C2B 4112   1.202   2.040   8.536  0.2016  0.0517  0.0919
  458PNCE   C3B 4113   1.402   1.992   8.263  0.1540 -0.2706  0.0697
  458PNCE   D4B 4114   1.581   2.375   8.162 -0.2365  0.0616 -0.1146
  458PNCE   C5B 4115   1.484   2.651   7.792  0.2573  0.4502  0.0926
  458PNCE   C6B 4116   1.678   2.572   7.392  0.0087  0.0296  0.0270
  459XCA    COO 4117   3.779  11.668   8.088 -0.0519 -0.0477  0.1006
  459XCA     C1 4118   3.824  11.649   7.614 -0.0890  0.3873  0.1179
  459XCA     C2 4119   3.736  11.542   7.214 -0.0317 -0.1014 -0.0105
  459XCA     C3 4120   3.783  11.256   6.927 -0.1752  0.0118  0.1103
  459XCA     C4 4121   3.679  11.096   6.529  0.1559 -0.0853  0.1187
  459XCA     C5 4122   3.442  11.235   6.250 -0.1135  0.1512 -0.1483
  459XCA     C6 4123   3.064  10.985   6.034  0.0006  0.2253 -0.0436
  460CHOL   ROH 4124  15.681   4.594   4.972  0.1787 -0.0493 -0.2388
  460CHOL    R1 4125  15.820   4.520   5.207  0.0636 -0.0373 -0.1653
  460CHOL    R2 4126  16.095   4.510   5.219  0.0597 -0.1246 -0.0554
  460CHOL    R3 4127  16.060   4.676   5.432  0.0260 -0.0583 -0.1127
  460CHOL    R4 4128  16.311   4.532   5.489  0.1452  0.1501 -0.1433
  460CHOL    R5 4129  16.136   4.547   5.620  0.1889  0.0816 -0.0850
  460CHOL    C1 4130  16.403   4.700   5.846  0.1633  0.3722 -0.2484
  460CHOL    C2 4131  16.590   4.665   6.177  0.2946  0.1486 -0.0643
  461CHOL   ROH 4132  14.104  13.103   8.686 -0.1331 -0.1155  0.0343
  461CHOL    R1 4133  14.096  13.281   8.467  0.0782 -0.2836 -0.1158
  461CHOL    R2 4134  14.120  13.196   8.205 -0.2674 -0.5674 -0.0668
  461CHOL    R3 4135  13.885  13.331   8.174 -0.0296 -0.1216 -0.0114
  461CHOL    R4 4136  13.950  13.232   7.906 -0.3935 -0.4488  0.0181
  461CHOL    R5 4137  13.906  13.438   7.961  0.0487 -0.3147 -0.1006
  461CHOL    C1 4138  13.632  13.379   7.703 -0.2437  0.0389  0.1196
  461CHOL    C2 4139  13.693  13.518   7.370 -0.1035  0.0418  0.2758
  462CHOL   ROH 4140   8.309  11.730   9.081  0.0634  0.0427 -0.0437
  462CHOL    R1 4141   8.359  11.898   8.859 -0.0011  0.0915 -0.0221
  462CHOL    R2 4142   8.527  11.824   8.652  0.0036  0.1701 -0.0479
  462CHOL    R3 4143   8.310  11.882   8.498 -0.0253  0.1328 -0.0205
  462CHOL    R4 4144   8.540  11.933   8.324 -0.0536  0.2697 -0.0172
  462CHOL    R5 4145   8.377  12.071   8.368 -0.1033  0.1955  0.0307
  462CHOL    C1 4146   8.343  12.051   7.989 -0.1142  0.2926  0.0265
  462CHOL    C2 4147   8.555  12.176   7.754 -0.1102 -0.0532  0.0457
  463CHOL   ROH 4148   4.107   2.075   7.818 -0.2119  0.0998 -0.0959
  463CHOL    R1 4149   4.147   1.806   7.896 -0.1753  0.1787  0.1707
  463CHOL    R2 4150   4.053   1.703   8.135 -0.4614  0.3140  0.1226
  463CHOL    R3 4151   3.938   1.518   7.972 -0.1343  0.1292  0.0946
  463CHOL    R4 4152   4.007   1.371   8.216 -0.4241  0.3556  0.3167
  463CHOL    R5 4153   4.064   1.318   8.012 -0.0966  0.2174  0.4387
  463CHOL    C1 4154   3.873   1.003   8.111 -0.0954  0.2063  0.4035
  463CHOL    C2 4155   3.700   0.739   8.015 -0.2378 -0.0359  0.0674
  464CHOL   ROH 4156   0.319  15.132   8.331 -0.0505 -0.1433  0.1730
  464CHOL    R1 4157   0.553  15.103   8.174 -0.0752 -0.1296  0.1328
  464CHOL    R2 4158   0.546  15.088   7.898 -0.1183 -0.0981  0.1305
  464CHOL    R3 4159   0.722  15.294   7.914 -0.1135 -0.1027  0.1279
  464CHOL    R4 4160   0.766  15.180   7.648 -0.0037 -0.2069  0.1908
  464CHOL    R5 4161   0.918  15.215   7.801 -0.0687 -0.1575  0.2433
  464CHOL    C1 4162   1.060  15.427   7.518  0.0675 -0.2746  0.2235
  464CHOL    C2 4163   1.175  15.435   7.118 -0.2330  0.1092  0.0502
  465XCA    COO 4164   5.476  15.803   5.120 -0.0766 -0.0502 -0.0551
  465XCA     C1 4165   5.487  15.963   5.594  0.1182 -0.1987  0.1921
  465XCA     C2 4166   5.432  15.913   6.018  0.6657  0.0439  0.1316
  465XCA     C3 4167   5.049  16.005   6.132  0.1019  0.0919 -0.1094
  465XCA     C4 4168   4.795  16.410   6.038 -0.0418  0.0085 -0.2601
  465XCA     C5 4169   4.753  16.647   5.709  0.0704 -0.1211 -0.0799
  465XCA     C6 4170   4.757  17.003   5.399  0.0531 -0.0873  0.0393
  466PNCE   AM1 4171   4.260  14.669   8.353  0.1615  0.1447  0.5259
  466PNCE   AM2 4172   4.545  14.646   8.383  0.0870 -0.0775  0.2130
  466PNCE   T1A 4173   4.064  14.467   8.080  0.2063  0.0746 -0.1068
  466PNCE   C2A 4174   4.034  14.465   7.683  0.2721  0.4373 -0.0041
  466PNCE   C3A 4175   3.869  14.719   7.455 -0.0693  0.2543  0.1817
  466PNCE   C1B 4176   4.491  15.069   8.100  0.1376  0.2167  0.0029
  466PNCE   C2B 4177   4.781  15.082   7.719  0.0803 -0.5015 -0.1697
  466PNCE   C3B 4178   4.939  15.014   7.339 -0.0194 -0.0488 -0.1336
  466PNCE   D4B 4179   5.376  14.910   7.173  0.3312  0.3262 -0.0283
  466PNCE   C5B 4180   5.638  15.266   7.091 -0.0545 -0.3915  0.0401
  466PNCE   C6B 4181   5.752  15.543   6.774  0.2325 -0.3091  0.2172
  467PNCE   AM1 4182   9.021   1.967   9.366  0.1362 -0.3621  0.0982
  467PNCE   AM2 4183   9.289   1.949   9.213 -0.0652 -0.0614 -0.0679
  467PNCE   T1A 4184   8.892   2.190   9.056 -0.0310 -0.0079  0.1948
  467PNCE   C2A 4185   8.858   2.347   8.689  0.1029  0.0696  0.1841
  467PNCE   C3A 4186   8.606   2.411   8.348 -0.0046 -0.0131 -0.1190
  467PNCE   C1B 4187   9.255   1.960   8.747 -0.2125  0.2535 -0.2238
  467PNCE   C2B 4188   9.217   1.784   8.213 -0.3706  0.0542  0.0524
  467PNCE   C3B 4189   9.350   1.815   7.852  0.1715 -0.0802  0.0221
  467PNCE   D4B 4190   9.087   1.797   7.529 -0.0043 -0.2771 -0.2072
  467PNCE   C5B 4191   8.892   1.412   7.383 -0.1845  0.0404  0.0283
  467PNCE   C6B 4192   8.519   1.223   7.216  0.0228 -0.4504 -0.1920
  468XCA    COO 4193   9.831   2.111   8.970 -0.0226 -0.2409  0.0051
  468XCA     C1 4194   9.740   2.242   8.660  0.2848  0.1239 -0.0402
  468XCA     C2 4195   9.827   2.459   8.215  0.0833  0.0661  0.2167
  468XCA     C3 4196  10.067   2.618   7.890  0.3576  0.0470  0.0783
  468XCA     C4 4197  10.126   2.411   7.550  0.1265  0.0424 -0.2378
  468XCA     C5 4198  10.469   2.100   7.590 -0.0071  0.2041  0.0720
  468XCA     C6 4199  10.642   1.775   7.853 -0.1914 -0.0201 -0.2729
  469PNCE   AM1 4200  15.592   2.362   8.631  0.0511  0.1126  0.0383
  469PNCE   AM2 4201  15.654   2.654   8.583 -0.1453 -0.0751  0.1437
  469PNCE   T1A 4202  15.546   2.145   8.320 -0.0006  0.1026 -0.0585
  469PNCE   C2A 4203  15.471   2.037   7.848  0.1549 -0.3066 -0.0526
  469PNCE   C3A 4204  15.225   1.926   7.460 -0.2594  0.0283  0.0786
  469PNCE   C1B 4205  15.698   2.577   8.116  0.2114 -0.2843 -0.0615
  469PNCE   C2B 4206  15.742   2.494   7.746 -0.0160 -0.2690 -0.0522
  469PNCE   C3B 4207  15.390   2.364   7.542  0.0390  0.1428 -0.1058
  469PNCE   D4B 4208  15.079   2.379   7.198 -0.1521  0.0147  0.0182
  469PNCE   C5B 4209  15.112   2.782   6.927 -0.0225 -0.1153  0.1698
  469PNCE   C6B 4210  14.951   2.973   6.617  0.0208 -0.1411 -0.1066
  470XCA    COO 4211  14.063  10.880   4.068 -0.1764 -0.1099  0.4124
  470XCA     C1 4212  14.282  10.723   4.416 -0.1862 -0.2968  0.3508
  470XCA     C2 4213  14.208  10.275   4.657 -0.0249 -0.0337  0.2325
  470XCA     C3 4214  14.383  10.006   4.953  0.0285 -0.0366  0.0091
  470XCA     C4 4215  14.309   9.866   5.429 -0.0211 -0.1100  0.2293
  470XCA     C5 4216  14.121   9.539   5.658  0.0931 -0.0468  0.1984
  470XCA     C6 4217  13.780   9.481   5.833 -0.1993  0.1182  0.1237
  471XCA    COO 4218   8.731   7.507   7.899  0.1827 -0.4360 -0.0512
  471XCA     C1 4219   8.966   7.332   7.639 -0.1599 -0.0884  0.0623
  471XCA     C2 4220   8.951   6.965   7.352 -0.2592 -0.1419 -0.0225
  471XCA     C3 4221   8.751   6.678   7.176 -0.0857  0.1912  0.1307
  471XCA     C4 4222   8.377   6.784   6.914  0.1027  0.2964 -0.2668
  471XCA     C5 4223   8.256   6.682   6.452  0.0277  0.2997  0.1286
  471XCA     C6 4224   8.406   6.586   6.042 -0.3262  0.1375  0.0963
  472PNCE   AM1 4225  13.908   7.861   8.156  0.4539 -0.0483 -0.1105
  472PNCE   AM2 4226  14.182   8.004   7.882 -0.3132 -0.1977  0.3437
  472PNCE   T1A 4227  13.547   7.926   7.912  0.1599 -0.0403 -0.0812
  472PNCE   C2A 4228  13.361   8.140   7.654  0.3417  0.0847  0.0421
  472PNCE   C3A 4229  13.045   8.424   7.840  0.2651 -0.1809  0.0820
  472PNCE   C1B 4230  13.831   8.244   7.597  0.1652  0.1101 -0.0125
  472PNCE   C2B 4231  13.540   8.472   7.228 -0.0989  0.0239 -0.0987
  472PNCE   C3B 4232  13.722   8.769   6.930 -0.0547  0.0468  0.0381
  472PNCE   D4B 4233  13.880   9.214   6.862 -0.0136  0.0754 -0.1579
  472PNCE   C5B 4234  14.320   9.294   6.782  0.0632 -0.1551 -0.0311
  472PNCE   C6B 4235  14.586   9.284   6.512 -0.0962  0.1987 -0.1944
  473PNCE   AM1 4236  10.809   9.734   8.466  0.1839 -0.0145 -0.0493
  473PNCE   AM2 4237  10.930  10.028   8.644  0.2272 -0.1179  0.1381
  473PNCE   T1A 4238  10.977   9.948   8.092  0.0259  0.2710 -0.0309
  473PNCE   C2A 4239  11.028  10.195   7.727 -0.2150  0.1292  0.2523
  473PNCE   C3A 4240  11.111  10.661   7.620  0.0967  0.3167 -0.1029
  473PNCE   C1B 4241  11.316  10.115   8.411 -0.1687 -0.1517 -0.0830
  473PNCE   C2B 4242  11.401  10.327   8.148  0.2373 -0.0091 -0.3301
  473PNCE   C3B 4243  11.604  10.671   7.942 -0.2631 -0.1629 -0.1412
  473PNCE   D4B 4244  11.597  10.866   7.575 -0.0269 -0.0227  0.0006
  473PNCE   C5B 4245  11.350  10.674   7.115  0.2069 -0.1881 -0.2866
  473PNCE   C6B 4246  11.226  10.462   6.790 -0.1255  0.1449  0.0527
  474PNCE   AM1 4247  10.455  10.151   8.376  0.1608 -0.2014 -0.0417
  474PNCE   AM2 4248  10.405   9.971   8.138 -0.0601 -0.2313  0.1210
  474PNCE   T1A 4249  10.881  10.521   8.229 -0.0170 -0.1288 -0.1696
  474PNCE   C2A 4250  11.113  10.891   8.050  0.2662 -0.0613 -0.0252
  474PNCE   C3A 4251  11.259  11.190   7.754  0.1024 -0.1160  0.0972
  474PNCE   C1B 4252  10.509  10.061   7.783  0.1740  0.1390 -0.1483
  474PNCE   C2B 4253  10.721   9.910   7.414  0.1356  0.3963  0.1151
  474PNCE   C3B 4254  10.953   9.519   7.200  0.0550 -0.2525 -0.2719
  474PNCE   D4B 4255  11.351   9.648   7.030 -0.1151 -0.1657  0.1612
  474PNCE   C5B 4256  11.427   9.522   6.636  0.0922  0.0154 -0.1562
  474PNCE   C6B 4257  11.450   9.392   6.099 -0.1005  0.1694 -0.0170
  475XCA    COO 4258   8.081  12.263   9.490 -0.0708  0.3665 -0.1842
  475XCA     C1 4259   8.033  12.141   9.068  0.1363  0.1950  0.3156
  475XCA     C2 4260   8.294  12.383   8.691 -0.0215  0.3431 -0.1338
  475XCA     C3 4261   8.228  12.466   8.205  0.1775 -0.2433  0.0816
  475XCA     C4 4262   8.292  12.745   7.906 -0.3771 -0.0869  0.2211
  475XCA     C5 4263   7.949  13.037   7.689  0.3888  0.0732  0.0137
  475XCA     C6 4264   7.936  13.380   7.337 -0.3913  0.0722  0.0037
  476PNCE   AM1 4265   5.670   5.623   8.202 -0.0592  0.0882  0.0730
  476PNCE   AM2 4266   5.509   5.887   8.290  0.1018 -0.3336  0.1935
  476PNCE   T1A 4267   5.753   5.412   7.875 -0.3562 -0.3348 -0.2854
  476PNCE   C2A 4268   5.747   5.547   7.442 -0.0961  0.0355  0.2628
  476PNCE   C3A 4269   5.709   5.481   6.957  0.0010  0.0273 -0.2335
  476PNCE   C1B 4270   5.754   5.954   7.881 -0.1377  0.1001  0.0693
  476PNCE   C2B 4271   5.986   6.075   7.467 -0.1737 -0.0174 -0.2628
  476PNCE   C3B 4272   6.259   6.186   7.087  0.0556  0.3441 -0.1704
  476PNCE   D4B 4273   6.546   6.208   6.784 -0.1812 -0.0135  0.1702
  476PNCE   C5B 4274   6.625   5.996   6.418 -0.1087  0.3923 -0.0862
  476PNCE   C6B 4275   7.013   5.918   6.147  0.0852  0.2062  0.2014
  477CHOL   ROH 4276  13.548   2.238   4.951 -0.1493 -0.0449 -0.0387
  477CHOL    R1 4277  13.689   2.143   5.177  0.0720 -0.0319 -0.1675
  477CHOL    R2 4278  13.945   2.226   5.238 -0.0253  0.3047 -0.1869
  477CHOL    R3 4279  13.834   2.288   5.478 -0.0447 -0.0688 -0.0931
  477CHOL    R4 4280  14.118   2.245   5.537  0.0884  0.4974 -0.2634
  477CHOL    R5 4281  13.949   2.148   5.635  0.3346  0.0774 -0.2300
  477CHOL    C1 4282  14.114   2.315   5.936  0.1363  0.2590 -0.2198
  477CHOL    C2 4283  13.990   2.341   6.330 -0.1986  0.5028  0.0036
  478CHOL   ROH 4284   8.683   4.083   8.528  0.3590  0.2824  0.0764
  478CHOL    R1 4285   8.883   4.028   8.335  0.1762  0.1374 -0.0758
  478CHOL    R2 4286   9.047   3.807   8.351  0.1543  0.1224 -0.0943
  478CHOL    R3 4287   8.956   3.762   8.098 -0.0810 -0.0152  0.0114
  478CHOL    R4 4288   9.230   3.655   8.100  0.0588  0.3085 -0.2798
  478CHOL    R5 4289   9.147   3.800   7.959 -0.2764  0.1981 -0.2104
  478CHOL    C1 4290   9.251   3.524   7.717 -0.2177  0.2877 -0.2885
  478CHOL    C2 4291   9.451   3.179   7.757 -0.1436  0.2440  0.1279
  479XCA    COO 4292   7.615   6.771   8.313  0.5261 -0.1090 -0.1569
  479XCA     C1 4293   7.395   6.940   7.942  0.0786 -0.4815 -0.1081
  479XCA     C2 4294   7.601   6.970   7.512 -0.2588 -0.1096 -0.2408
  479XCA     C3 4295   7.738   7.043   7.071  0.2172 -0.2973 -0.2630
  479XCA     C4 4296   7.965   7.001   6.694 -0.3612  0.1073  0.0376
  479XCA     C5 4297   8.369   7.146   6.545  0.1979  0.0294  0.1470
  479XCA     C6 4298   8.831   7.182   6.461 -0.1126  0.2997 -0.0517
  480CHOL   ROH 4299  10.234   3.994   5.151 -0.1831 -0.1344  0.0984
  480CHOL    R1 4300  10.181   4.034   5.426  0.0216 -0.0565  0.1291
  480CHOL    R2 4301  10.373   4.128   5.603  0.1195  0.1200 -0.0603
  480CHOL    R3 4302  10.183   4.315   5.657  0.0599  0.0357  0.0157
  480CHOL    R4 4303  10.401   4.376   5.842  0.0699  0.0921 -0.0264
  480CHOL    R5 4304  10.193   4.343   5.894  0.0997  0.0022  0.0145
  480CHOL    C1 4305  10.239   4.695   6.033 -0.0148 -0.0033  0.0648
  480CHOL    C2 4306  10.225   5.040   6.326  0.0601  0.2027 -0.0082
  481CHOL   ROH 4307  10.404   9.633   4.898 -0.0846 -0.1037 -0.0068
  481CHOL    R1 4308  10.359   9.612   5.176  0.0350 -0.0990  0.0125
  481CHOL    R2 4309  10.172   9.765   5.308  0.0792 -0.1138  0.0848
  481CHOL    R3 4310  10.081   9.524   5.394  0.1354 -0.1176  0.1364
  481CHOL    R4 4311  10.078   9.695   5.634 -0.3990  0.0971  0.0016
  481CHOL    R5 4312  10.176   9.500   5.614 -0.1985  0.1506  0.3232
  481CHOL    C1 4313   9.939   9.427   5.904 -0.6248  0.2163  0.0015
  481CHOL    C2 4314  10.134   9.182   6.015 -0.0372 -0.0552  0.3002
  482PNCE   AM1 4315  13.386   6.746   7.196 -0.1206 -0.0714 -0.0368
  482PNCE   AM2 4316  13.127   6.504   7.357 -0.4023  0.0436  0.2076
  482PNCE   T1A 4317  13.499   6.504   6.881 -0.0010 -0.1194  0.1954
  482PNCE   C2A 4318  13.635   6.206   6.495 -0.1153 -0.1146 -0.0356
  482PNCE   C3A 4319  13.613   5.731   6.522  0.3524 -0.1953  0.0216
  482PNCE   C1B 4320  12.937   6.463   6.939  0.2215 -0.1328  0.0664
  482PNCE   C2B 4321  12.725   6.713   6.633 -0.1512 -0.2052  0.1610
  482PNCE   C3B 4322  12.524   7.071   6.345  0.2677 -0.0456  0.0132
  482PNCE   D4B 4323  12.369   7.093   5.955  0.4164 -0.0077  0.0425
  482PNCE   C5B 4324  11.975   6.932   5.780 -0.0303  0.1169  0.4780
  482PNCE   C6B 4325  11.796   7.029   5.383  0.0847  0.1776  0.2455
  483PNCE   AM1 4326  12.798   1.292   4.633 -0.0916 -0.0086  0.0285
  483PNCE   AM2 4327  12.911   1.564   4.812  0.0061  0.0497 -0.1563
  483PNCE   T1A 4328  13.005   1.134   5.049 -0.1468 -0.2950  0.1234
  483PNCE   C2A 4329  12.939   1.054   5.501  0.2673 -0.0176 -0.0518
  483PNCE   C3A 4330  13.144   1.179   5.913  0.2232 -0.1814 -0.2456
  483PNCE   C1B 4331  13.248   1.823   4.954 -0.2604 -0.0770 -0.1123
  483PNCE   C2B 4332  13.361   1.865   5.396 -0.1991 -0.0363 -0.0906
  483PNCE   C3B 4333  13.480   1.908   5.792 -0.0753 -0.0363  0.2912
  483PNCE   D4B 4334  13.594   2.161   6.008  0.1883  0.2088 -0.2514
  483PNCE   C5B 4335  13.403   2.481   5.961 -0.3579 -0.0258  0.0524
  483PNCE   C6B 4336  13.340   2.370   5.574 -0.0550  0.0393 -0.2378
  484PNCE   AM1 4337  12.541   6.055   4.011  0.0689  0.3362  0.1464
  484PNCE   AM2 4338  12.535   5.662   4.181 -0.3704 -0.4286 -0.3520
  484PNCE   T1A 4339  12.316   6.253   4.380  0.0407  0.3988  0.0815
  484PNCE   C2A 4340  11.938   6.275   4.660  0.1356  0.1847 -0.1072
  484PNCE   C3A 4341  12.027   6.188   5.136  0.2202 -0.1722  0.0342
  484PNCE   C1B 4342  12.741   6.030   4.470  0.0223  0.1358  0.1767
  484PNCE   C2B 4343  13.043   6.035   4.825  0.1450 -0.0372 -0.0867
  484PNCE   C3B 4344  13.237   5.900   5.273  0.0192  0.0017  0.0245
  484PNCE   D4B 4345  13.162   6.032   5.702 -0.0823 -0.0430  0.0805
  484PNCE   C5B 4346  13.500   6.087   6.037  0.1819  0.1872  0.2671
  484PNCE   C6B 4347  13.853   5.698   6.025  0.1682  0.0141 -0.0422
  485PNCE   AM1 4348  10.322  12.641   8.596  0.1310  0.2467  0.2390
  485PNCE   AM2 4349  10.496  12.975   8.583  0.0977  0.1925 -0.0114
  485PNCE   T1A 4350  10.415  12.504   8.162 -0.1159 -0.1618 -0.1113
  485PNCE   C2A 4351  10.381  12.510   7.747  0.2035 -0.2412 -0.1352
  485PNCE   C3A 4352  10.253  12.308   7.411  0.4077 -0.1011  0.0515
  485PNCE   C1B 4353  10.676  12.988   8.199 -0.0690 -0.0148  0.3014
  485PNCE   C2B 4354  10.697  12.841   7.766  0.1018  0.2154 -0.0022
  485PNCE   C3B 4355  10.735  12.559   7.401  0.3613  0.1583  0.3436
  485PNCE   D4B 4356  10.699  12.295   7.059 -0.3459  0.1033  0.0342
  485PNCE   C5B 4357  10.523  12.492   6.710 -0.2500  0.1493  0.1026
  485PNCE   C6B 4358  10.425  12.601   6.280  0.3387  0.0648  0.0881
  486PNCE   AM1 4359  15.120   1.856   8.227 -0.0121 -0.2179  0.2099
  486PNCE   AM2 4360  14.759   1.768   8.321 -0.0347 -0.0850 -0.2143
  486PNCE   T1A 4361  15.128   1.584   7.940 -0.1635 -0.0133  0.1806
  486PNCE   C2A 4362  15.151   1.465   7.489  0.1372 -0.2334  0.1830
  486PNCE   C3A 4363  14.916   1.620   7.120 -0.0821  0.2233 -0.0847
  486PNCE   C1B 4364  14.715   1.873   7.908 -0.3118  0.1014 -0.3583
  486PNCE   C2B 4365  14.645   1.581   7.582  0.0901  0.0090  0.0316
  486PNCE   C3B 4366  14.602   1.214   7.230  0.0169  0.0236  0.1899
  486PNCE   D4B 4367  14.422   1.104   6.799 -0.1359  0.0692 -0.3137
  486PNCE   C5B 4368  14.025   1.166   6.826  0.2655  0.1681 -0.0438
  486PNCE   C6B 4369  13.675   1.368   6.743 -0.0940 -0.0364  0.2537
  487PNCE   AM1 4370   0.671   1.904   8.943  0.0341 -0.0517 -0.2235
  487PNCE   AM2 4371   0.619   1.506   9.047  0.1330 -0.0256 -0.1328
  487PNCE   T1A 4372   0.744   1.853   8.510  0.1708 -0.2094  0.2224
  487PNCE   C2A 4373   0.831   1.671   8.158  0.0077  0.1132 -0.3244
  487PNCE   C3A 4374   0.970   1.635   7.708  0.0782 -0.1111 -0.0223
  487PNCE   C1B 4375   1.089   1.564   8.846 -0.1009 -0.4091  0.0649
  487PNCE   C2B 4376   1.373   1.428   8.546  0.2389  0.0139  0.0168
  487PNCE   C3B 4377   1.670   1.569   8.240  0.0058 -0.2321 -0.0808
  487PNCE   D4B 4378   1.542   1.761   7.816 -0.1030 -0.2548 -0.0201
  487PNCE   C5B 4379   1.682   2.149   7.745 -0.2805  0.2754 -0.0367
  487PNCE   C6B 4380   1.997   2.452   7.827 -0.1164 -0.1433 -0.0199
  488PNCE   AM1 4381   8.944  13.062   8.685 -0.0885 -0.2381  0.0962
  488PNCE   AM2 4382   8.885  12.811   8.887  0.0059  0.0428  0.1551
  488PNCE   T1A 4383   9.269  13.141   8.423  0.0714  0.0975 -0.3858
  488PNCE   C2A 4384   9.317  13.219   8.043 -0.1365  0.0143 -0.1077
  488PNCE   C3A 4385   9.168  13.076   7.560  0.2089 -0.1605  0.0743
  488PNCE   C1B 4386   9.187  12.618   8.516 -0.2300  0.5092 -0.3517
  488PNCE   C2B 4387   9.307  12.707   8.096 -0.1598  0.2073  0.1378
  488PNCE   C3B 4388   9.244  12.495   7.702 -0.0077  0.1536  0.0592
  488PNCE   D4B 4389   9.312  12.519   7.226 -0.1951  0.3595 -0.1132
  488PNCE   C5B 4390   9.037  12.729   6.981 -0.0200  0.1120 -0.2722
  488PNCE   C6B 4391   8.837  12.960   6.667 -0.3008 -0.0717 -0.2505
  489XCA    COO 4392   2.555   3.900   4.224 -0.2996  0.0703  0.1645
  489XCA     C1 4393   2.503   4.097   4.694  0.1331  0.1069 -0.2046
  489XCA     C2 4394   2.369   4.074   5.169  0.1385 -0.1770 -0.0824
  489XCA     C3 4395   2.356   4.303   5.562  0.1019  0.0697 -0.0048
  489XCA     C4 4396   2.220   4.344   6.044 -0.0463 -0.2137  0.0936
  489XCA     C5 4397   2.374   4.215   6.435 -0.3496  0.3276 -0.1915
  489XCA     C6 4398   2.528   3.896   6.602 -0.0165  0.0971 -0.0120
  490CHOL   ROH 4399   1.071   6.821   8.153  0.0719 -0.2700  0.3192
  490CHOL    R1 4400   1.079   6.782   7.873  0.0700 -0.3296  0.3273
  490CHOL    R2 4401   1.252   6.919   7.708 -0.2292 -0.0374  0.2440
  490CHOL    R3 4402   1.323   6.669   7.628  0.2254  0.0675  0.2925
  490CHOL    R4 4403   1.410   6.845   7.409 -0.3796  0.1640  0.1121
  490CHOL    R5 4404   1.282   6.669   7.391 -0.0276 -0.1269  0.3324
  490CHOL    C1 4405   1.568   6.567   7.160 -0.0403  0.3796  0.0809
  490CHOL    C2 4406   1.934   6.467   7.062 -0.0431  0.0281 -0.1266
  491CHOL   ROH 4407  10.457   7.077   8.630  0.0322  0.0097  0.0819
  491CHOL    R1 4408  10.601   6.906   8.456 -0.1002 -0.2775  0.2451
  491CHOL    R2 4409  10.484   6.689   8.330 -0.4661  0.0799 -0.0726
  491CHOL    R3 4410  10.581   6.809   8.106  0.2432 -0.0278  0.1525
  491CHOL    R4 4411  10.478   6.550   8.014 -0.1078  0.2190 -0.1447
  491CHOL    R5 4412  10.678   6.629   7.981  0.1348 -0.1781  0.2882
  491CHOL    C1 4413  10.566   6.581   7.619  0.7667  0.1990  0.0247
  491CHOL    C2 4414  10.425   6.334   7.398 -0.0695 -0.1434  0.1959
  492CHOL   ROH 4415   4.437   3.610   4.460 -0.2766  0.0095  0.1313
  492CHOL    R1 4416   4.543   3.620   4.722 -0.3982  0.0962  0.1775
  492CHOL    R2 4417   4.749   3.790   4.793 -0.1730 -0.1466  0.1195
  492CHOL    R3 4418   4.574   3.870   4.985 -0.1578  0.3048 -0.0429
  492CHOL    R4 4419   4.833   3.977   5.071  0.0937 -0.4900  0.2760
  492CHOL    R5 4420   4.698   3.853   5.189 -0.4154 -0.1454  0.0896
  492CHOL    C1 4421   4.719   4.160   5.414  0.2633 -0.2662  0.2147
  492CHOL    C2 4422   4.480   4.222   5.710 -0.2968  0.1622  0.1235
  493PNCE   AM1 4423   3.151   5.891   7.883 -0.0304  0.0730  0.1494
  493PNCE   AM2 4424   2.880   6.080   8.141  0.0346  0.2824  0.1758
  493PNCE   T1A 4425   3.269   6.009   7.417 -0.2473 -0.1017 -0.0552
  493PNCE   C2A 4426   3.180   5.944   6.973  0.1796  0.2199  0.2377
  493PNCE   C3A 4427   3.330   5.933   6.559  0.1436 -0.0704  0.2767
  493PNCE   C1B 4428   2.683   5.994   7.708  0.0481 -0.2425  0.2163
  493PNCE   C2B 4429   2.703   5.948   7.191  0.2583 -0.0221  0.0412
  493PNCE   C3B 4430   2.546   5.896   6.741 -0.0008 -0.1821 -0.2626
  493PNCE   D4B 4431   2.418   6.253   6.449  0.1834  0.1505 -0.2031
  493PNCE   C5B 4432   2.011   6.405   6.305  0.1518  0.1439 -0.1627
  493PNCE   C6B 4433   1.678   6.551   6.088 -0.0903 -0.0188 -0.0808
  494XCA    COO 4434  13.895   5.868   7.888  0.1303 -0.2335  0.0888
  494XCA     C1 4435  13.840   5.860   7.387 -0.0047 -0.0198  0.0299
  494XCA     C2 4436  13.832   5.561   6.959  0.4517 -0.0491 -0.0672
  494XCA     C3 4437  13.644   5.274   6.653 -0.0299 -0.3358 -0.0277
  494XCA     C4 4438  13.621   4.898   6.353 -0.1644  0.2599 -0.2898
  494XCA     C5 4439  13.810   4.729   6.037  0.1875  0.3538 -0.0807
  494XCA     C6 4440  13.832   4.644   5.612  0.6001 -0.2469 -0.2933
  495CHOL   ROH 4441  13.363  13.576   5.907 -0.2590  0.3119  0.0767
  495CHOL    R1 4442  13.463  13.770   6.087 -0.0399  0.1248  0.1625
  495CHOL    R2 4443  13.672  13.719   6.261  0.2382 -0.0345 -0.2025
  495CHOL    R3 4444  13.781  13.939   6.145  0.0090  0.1308 -0.1119
  495CHOL    R4 4445  13.898  13.931   6.414  0.3572 -0.1158 -0.2647
  495CHOL    R5 4446  13.794  14.099   6.322  0.1759 -0.0525  0.0456
  495CHOL    C1 4447  14.132  14.261   6.393  0.2113 -0.0080 -0.2158
  495CHOL    C2 4448  14.359  14.573   6.535 -0.0427 -0.0500  0.0185
  496XCA    COO 4449  15.701   5.581   7.804 -0.1512  0.0090 -0.1663
  496XCA     C1 4450  15.743   5.387   7.302  0.0002  0.1721 -0.1296
  496XCA     C2 4451  15.802   5.196   6.910  0.2049  0.0727  0.2502
  496XCA     C3 4452  15.794   4.984   6.673 -0.4151  0.2253  0.0760
  496XCA     C4 4453  15.784   4.978   6.264  0.0545 -0.0825 -0.0973
  496XCA     C5 4454  16.070   4.970   5.938 -0.2046  0.1852  0.2091
  496XCA     C6 4455  16.043   5.161   5.565 -0.1171 -0.0583 -0.0741
  497PNCE   AM1 4456  14.966  14.837   8.992  0.0137 -0.3093 -0.0561
  497PNCE   AM2 4457  14.730  14.977   8.958 -0.0241 -0.0462 -0.0246
  497PNCE   T1A 4458  15.179  14.799   8.536 -0.0496 -0.0350  0.0640
  497PNCE   C2A 4459  15.388  14.970   8.181  0.0955 -0.3092 -0.1081
  497PNCE   C3A 4460  15.294  15.176   7.793  0.4030 -0.0433  0.0775
  497PNCE   C1B 4461  14.818  15.363   8.783 -0.0024  0.1951  0.0621
  497PNCE   C2B 4462  14.936  15.760   8.454  0.0017  0.0830  0.1544
  497PNCE   C3B 4463  15.216  15.988   8.124  0.0617  0.0042  0.0247
  497PNCE   D4B 4464  15.668  16.048   8.023 -0.0768 -0.0704  0.0867
  497PNCE   C5B 4465  15.874  16.013   7.712 -0.3421 -0.1449  0.2820
  497PNCE   C6B 4466  15.754  15.953   7.280  0.0741 -0.0099  0.0661
  498CHOL   ROH 4467   0.551   6.927   4.264  0.1454 -0.0082 -0.0873
  498CHOL    R1 4468   0.468   6.947   4.534 -0.0111 -0.1281 -0.1251
  498CHOL    R2 4469   0.461   6.729   4.705  0.2255 -0.1420 -0.1339
  498CHOL    R3 4470   0.617   6.887   4.861 -0.0743  0.0857 -0.0546
  498CHOL    R4 4471   0.462   6.725   5.050  0.2080 -0.3029 -0.1345
  498CHOL    R5 4472   0.477   6.943   5.048 -0.1991 -0.2612 -0.0343
  498CHOL    C1 4473   0.608   6.871   5.399 -0.0835 -0.1829 -0.0604
  498CHOL    C2 4474   0.705   6.887   5.796  0.0777  0.1379  0.0309
  499PNCE   AM1 4475   8.427   2.005   9.434 -0.0336 -0.0491  0.1116
  499PNCE   AM2 4476   8.150   1.892   9.495 -0.2064  0.3299  0.1181
  499PNCE   T1A 4477   8.388   2.070   9.012 -0.0360 -0.2014  0.1867
  499PNCE   C2A 4478   8.233   2.083   8.633 -0.0506 -0.1862  0.4392
  499PNCE   C3A 4479   8.322   2.012   8.193  0.1904 -0.1714  0.3743
  499PNCE   C1B 4480   8.211   1.607   9.120  0.0513 -0.5757  0.0619
  499PNCE   C2B 4481   8.167   1.549   8.717 -0.4426 -0.2775 -0.0648
  499PNCE   C3B 4482   7.971   1.500   8.317 -0.0492 -0.0981 -0.0802
  499PNCE   D4B 4483   8.147   1.414   7.914  0.2298 -0.3681  0.1928
  499PNCE   C5B 4484   8.445   1.510   7.651 -0.0845 -0.1483 -0.3859
  499PNCE   C6B 4485   8.821   1.534   7.866  0.0000  0.1698  0.2842
  500PNCE   AM1 4486   2.681  12.783   8.123 -0.1196  0.0215 -0.1343
  500PNCE   AM2 4487   2.316  12.907   8.062 -0.2562  0.1259  0.4229
  500PNCE   T1A 4488   2.784  13.237   8.130  0.2137 -0.0129 -0.3671
  500PNCE   C2A 4489   2.837  13.719   8.052  0.1766  0.0202  0.1069
  500PNCE   C3A 4490   2.987  14.048   7.779  0.1419  0.0548  0.2860
  500PNCE   C1B 4491   2.466  12.951   7.647 -0.0142 -0.1036  0.0338
  500PNCE   C2B 4492   2.275  12.775   7.184 -0.1156  0.0850 -0.0764
  500PNCE   C3B 4493   2.113  12.799   6.795  0.1277 -0.2966  0.0848
  500PNCE   D4B 4494   2.159  13.037   6.454 -0.1688 -0.2714 -0.0968
  500PNCE   C5B 4495   2.378  13.387   6.418 -0.0837  0.0481 -0.0961
  500PNCE   C6B 4496   2.698  13.524   6.640 -0.0393  0.0977  0.2457
  501PNCE   AM1 4497   2.367  12.570   4.280  0.2859  0.0124  0.0579
  501PNCE   AM2 4498   2.190  12.787   4.151  0.0950 -0.1299 -0.0471
  501PNCE   T1A 4499   2.442  12.255   4.516 -0.1302  0.0185  0.0068
  501PNCE   C2A 4500   2.331  11.996   4.799 -0.0078  0.0446  0.0853
  501PNCE   C3A 4501   2.371  12.062   5.228  0.1151 -0.1102  0.0596
  501PNCE   C1B 4502   2.045  13.059   4.615 -0.0747 -0.1839  0.0453
  501PNCE   C2B 4503   1.975  13.139   5.066 -0.1845  0.0352  0.0419
  501PNCE   C3B 4504   1.946  13.393   5.531 -0.0891  0.0867  0.3763
  501PNCE   D4B 4505   1.895  13.569   5.982 -0.0194 -0.2013  0.1547
  501PNCE   C5B 4506   1.914  13.514   6.390 -0.0958 -0.3108 -0.0108
  501PNCE   C6B 4507   1.843  13.288   6.750  0.0982 -0.2321 -0.1823
  502PNCE   AM1 4508   0.616  12.496   4.219 -0.1251 -0.0238 -0.0780
  502PNCE   AM2 4509   0.901  12.565   4.078  0.2915  0.0390  0.2788
  502PNCE   T1A 4510   0.743  12.246   4.547 -0.2331 -0.1421 -0.1659
  502PNCE   C2A 4511   0.855  12.152   5.018 -0.0163  0.2218  0.1084
  502PNCE   C3A 4512   0.915  11.731   5.216  0.1103  0.2736 -0.1258
  502PNCE   C1B 4513   1.030  12.753   4.372  0.0370  0.0767 -0.1254
  502PNCE   C2B 4514   1.022  12.611   4.791  0.0297  0.1768 -0.1978
  502PNCE   C3B 4515   1.069  12.639   5.155 -0.0580 -0.2835 -0.3587
  502PNCE   D4B 4516   1.209  12.377   5.343  0.1129  0.0566 -0.0573
  502PNCE   C5B 4517   1.531  12.507   5.594 -0.0202  0.3894  0.0898
  502PNCE   C6B 4518   1.830  12.546   5.993 -0.0431 -0.1792 -0.1700
  503CHOL   ROH 4519   3.530  10.035   6.197  0.0110  0.2178  0.1817
  503CHOL    R1 4520   3.512  10.286   6.326  0.0597  0.1904  0.2434
  503CHOL    R2 4521   3.369  10.323   6.559  0.0128  0.1745  0.2177
  503CHOL    R3 4522   3.604  10.426   6.649  0.0235  0.0751  0.3042
  503CHOL    R4 4523   3.402  10.531   6.833 -0.0161  0.2433  0.1692
  503CHOL    R5 4524   3.549  10.647   6.722  0.1048  0.1292  0.2057
  503CHOL    C1 4525   3.642  10.748   7.078 -0.0229  0.1901  0.2222
  503CHOL    C2 4526   3.882  10.969   7.324  0.2252 -0.2117 -0.3455
  504CHOL   ROH 4527   4.793   1.800   5.042 -0.0548  0.0635  0.0615
  504CHOL    R1 4528   4.822   1.811   5.324 -0.0101  0.1351  0.0539
  504CHOL    R2 4529   4.725   2.021   5.475 -0.1626  0.0760  0.0359
  504CHOL    R3 4530   4.600   1.822   5.612  0.0353 -0.0095  0.0957
  504CHOL    R4 4531   4.585   2.054   5.790 -0.2597  0.0552 -0.0044
  504CHOL    R5 4532   4.663   1.858   5.840 -0.0450  0.1608  0.0942
  504CHOL    C1 4533   4.386   1.887   6.101 -0.1304 -0.0372  0.0283
  504CHOL    C2 4534   4.120   1.949   6.276  0.2462  0.1184 -0.1549
  505CHOL   ROH 4535  15.768  15.165   8.278 -0.0969  0.2543 -0.0982
  505CHOL    R1 4536  15.861  15.327   8.066 -0.0720  0.1922 -0.1352
  505CHOL    R2 4537  16.005  15.225   7.852 -0.1243  0.1146 -0.1342
  505CHOL    R3 4538  15.810  15.346   7.706 -0.1049  0.1474 -0.1329
  505CHOL    R4 4539  16.036  15.321   7.521 -0.0969  0.1430 -0.1232
  505CHOL    R5 4540  15.927  15.504   7.569 -0.0820  0.1491 -0.1115
  505CHOL    C1 4541  15.871  15.491   7.192 -0.0629  0.1903 -0.1157
  505CHOL    C2 4542  15.670  15.672   6.917  0.3374  0.1881  0.0230
  506CHOL   ROH 4543   1.792  10.058   7.547  0.1916 -0.1523  0.2273
  506CHOL    R1 4544   1.801   9.859   7.346  0.0603 -0.1053  0.1719
  506CHOL    R2 4545   1.579   9.783   7.200  0.0083  0.0812  0.1465
  506CHOL    R3 4546   1.738   9.841   6.988  0.0497  0.0360  0.1666
  506CHOL    R4 4547   1.550   9.640   6.887  0.0778  0.0049  0.1760
  506CHOL    R5 4548   1.768   9.631   6.877  0.0797  0.0107  0.2234
  506CHOL    C1 4549   1.684   9.611   6.506  0.1570 -0.0820  0.2121
  506CHOL    C2 4550   1.398   9.374   6.394 -0.1617 -0.2340  0.1781
  507CHOL   ROH 4551  15.093   2.741   8.713  0.1725  0.1576 -0.0787
  507CHOL    R1 4552  15.185   2.752   8.445  0.1707  0.0574 -0.0836
  507CHOL    R2 4553  15.276   2.529   8.310  0.1286 -0.0008 -0.0148
  507CHOL    R3 4554  15.089   2.603   8.127  0.1402 -0.0253 -0.0367
  507CHOL    R4 4555  15.179   2.338   8.039  0.1261 -0.0528  0.0226
  507CHOL    R5 4556  15.174   2.519   7.919  0.1433 -0.0761 -0.0165
  507CHOL    C1 4557  14.947   2.296   7.710  0.1353 -0.1060  0.0238
  507CHOL    C2 4558  14.711   2.044   7.441 -0.1403  0.4178 -0.1125
  508PNCE   AM1 4559  13.446   6.750   6.337 -0.0052  0.1495 -0.2363
  508PNCE   AM2 4560  13.662   7.037   6.219 -0.0264 -0.0269 -0.0312
  508PNCE   T1A 4561  13.091   6.414   6.450  0.1408 -0.2339  0.0470
  508PNCE   C2A 4562  12.899   6.149   6.146  0.2538  0.1608  0.4719
  508PNCE   C3A 4563  12.597   5.790   6.166 -0.0623  0.4087 -0.0514
  508PNCE   C1B 4564  13.387   7.236   6.022 -0.2842 -0.0261 -0.0806
  508PNCE   C2B 4565  13.291   7.649   5.830  0.1535 -0.1386 -0.1235
  508PNCE   C3B 4566  12.886   7.842   5.845 -0.0147 -0.0708  0.3045
  508PNCE   D4B 4567  12.417   8.062   5.908  0.0511  0.1365 -0.0511
  508PNCE   C5B 4568  12.111   8.080   5.607 -0.3155 -0.1530  0.0420
  508PNCE   C6B 4569  11.876   8.305   5.252 -0.0523  0.0172  0.0759
  509CHOL   ROH 4570   5.171  15.861   8.758  0.1183  0.2532  0.0908
  509CHOL    R1 4571   5.112  16.033   8.540 -0.0268  0.1142  0.0201
  509CHOL    R2 4572   5.258  16.031   8.306  0.0448  0.2177  0.0716
  509CHOL    R3 4573   5.013  15.994   8.192  0.1226 -0.1116 -0.0014
  509CHOL    R4 4574   5.193  16.045   7.966  0.0934  0.4366  0.0690
  509CHOL    R5 4575   5.007  16.150   8.011 -0.1161  0.0687  0.1476
  509CHOL    C1 4576   4.926  16.018   7.662  0.1949  0.2549 -0.0010
  509CHOL    C2 4577   5.003  16.085   7.350 -0.1329  0.1982  0.0354
  510PNCE   AM1 4578   4.796  12.098   8.419  0.2183 -0.0604 -0.1211
  510PNCE   AM2 4579   4.584  12.104   8.375 -0.1693 -0.1574 -0.2239
  510PNCE   T1A 4580   4.872  11.813   8.028 -0.0955  0.5290  0.2879
  510PNCE   C2A 4581   4.866  11.626   7.568 -0.0030 -0.0996 -0.0276
  510PNCE   C3A 4582   4.748  11.311   7.338  0.0944 -0.0165  0.2660
  510PNCE   C1B 4583   4.636  12.284   7.923 -0.0466 -0.1640 -0.0613
  510PNCE   C2B 4584   4.680  12.386   7.419  0.2656  0.1538  0.1989
  510PNCE   C3B 4585   4.965  12.483   7.082  0.3413  0.0948 -0.0707
  510PNCE   D4B 4586   5.010  12.666   6.688 -0.1288  0.2461  0.2537
  510PNCE   C5B 4587   4.845  12.967   6.363 -0.0014  0.1442  0.1538
  510PNCE   C6B 4588   4.719  13.162   6.102  0.5908  0.0297  0.2201
  511PNCE   AM1 4589   3.197  11.958   4.146  0.2799 -0.0652  0.2997
  511PNCE   AM2 4590   2.910  11.815   4.244 -0.2132 -0.3293  0.1969
  511PNCE   T1A 4591   3.380  11.802   4.627 -0.0228 -0.0399  0.1325
  511PNCE   C2A 4592   3.306  11.424   5.004  0.0653  0.0406 -0.0116
  511PNCE   C3A 4593   3.330  11.060   5.285 -0.2094 -0.2916 -0.2752
  511PNCE   C1B 4594   2.779  11.850   4.614 -0.0370 -0.1495 -0.0281
  511PNCE   C2B 4595   2.804  12.233   4.951  0.2481 -0.1768  0.0128
  511PNCE   C3B 4596   2.778  12.420   5.305  0.0560  0.0710  0.3638
  511PNCE   D4B 4597   2.704  12.179   5.572 -0.0441  0.0423  0.4366
  511PNCE   C5B 4598   3.026  11.913   5.825 -0.1385 -0.2562 -0.0172
  511PNCE   C6B 4599   3.425  11.848   5.971 -0.0178 -0.0868 -0.3113
  512CHOL   ROH 4600  13.233  13.223   5.665 -0.0269 -0.1676 -0.0554
  512CHOL    R1 4601  12.951  13.226   5.654 -0.0196  0.0866 -0.2348
  512CHOL    R2 4602  12.793  13.225   5.881 -0.1626 -0.1528 -0.3346
  512CHOL    R3 4603  12.684  13.447   5.767  0.0936  0.1305 -0.0475
  512CHOL    R4 4604  12.548  13.421   6.026 -0.1370 -0.2231 -0.1935
  512CHOL    R5 4605  12.453  13.438   5.830  0.0324  0.1854 -0.2513
  512CHOL    C1 4606  12.303  13.743   6.004  0.1184  0.0018  0.1581
  512CHOL    C2 4607  12.117  13.874   6.188 -0.2321 -0.0095 -0.0895
  513CHOL   ROH 4608   9.011  14.723   7.212 -0.0961 -0.1057 -0.0429
  513CHOL    R1 4609   8.788  14.745   7.039 -0.0854  0.0058 -0.0438
  513CHOL    R2 4610   8.577  14.568   7.045 -0.0835 -0.0059 -0.1773
  513CHOL    R3 4611   8.429  14.794   7.074 -0.0882 -0.0269 -0.0323
  513CHOL    R4 4612   8.235  14.589   6.995 -0.0592  0.0574 -0.3200
  513CHOL    R5 4613   8.266  14.782   6.898 -0.0053  0.1474 -0.1216
  513CHOL    C1 4614   7.898  14.814   6.993 -0.0496  0.0744 -0.2670
  513CHOL    C2 4615   7.619  14.600   6.888  0.0405 -0.0193  0.1351
  514PNCE   AM1 4616   4.530   3.767   8.131  0.0488 -0.5720 -0.1696
  514PNCE   AM2 4617   4.751   3.484   8.131  0.2498 -0.0770 -0.0468
  514PNCE   T1A 4618   4.481   3.945   7.833 -0.1319  0.3181 -0.0046
  514PNCE   C2A 4619   4.542   3.943   7.373 -0.5069  0.0803 -0.0088
  514PNCE   C3A 4620   4.554   4.074   6.982 -0.2694 -0.0101  0.1651
  514PNCE   C1B 4621   4.872   3.325   7.782  0.1560 -0.1595 -0.0753
  514PNCE   C2B 4622   5.089   3.030   7.530 -0.0529 -0.0814 -0.2490
  514PNCE   C3B 4623   5.086   2.594   7.507  0.0296 -0.4891 -0.2657
  514PNCE   D4B 4624   4.810   2.195   7.528 -0.4173  0.1804  0.2186
  514PNCE   C5B 4625   4.854   1.793   7.486 -0.0015  0.0463  0.1654
  514PNCE   C6B 4626   5.026   1.507   7.766  0.0404 -0.0302 -0.4232
  515CHOL   ROH 4627  12.338  14.527   8.018  0.1355 -0.1713 -0.0185
  515CHOL    R1 4628  12.325  14.692   7.788  0.0204 -0.1677 -0.0101
  515CHOL    R2 4629  12.551  14.786   7.661 -0.0437  0.0234  0.0137
  515CHOL    R3 4630  12.436  14.672   7.442  0.0656 -0.0593 -0.0017
  515CHOL    R4 4631  12.589  14.899   7.336 -0.1197  0.0742  0.0221
  515CHOL    R5 4632  12.377  14.858   7.303 -0.0823 -0.1009  0.0059
  515CHOL    C1 4633  12.503  14.858   6.942 -0.0614  0.0262  0.0124
  515CHOL    C2 4634  12.769  15.164   6.929 -0.0451 -0.1166  0.0826
  516CHOL   ROH 4635   8.350   6.468   3.985  0.2707 -0.1198  0.0193
  516CHOL    R1 4636   8.250   6.391   4.238  0.3195 -0.3126 -0.0190
  516CHOL    R2 4637   8.393   6.229   4.411  0.5634 -0.0552  0.0295
  516CHOL    R3 4638   8.350   6.432   4.585  0.1179 -0.1309  0.0187
  516CHOL    R4 4639   8.409   6.200   4.755  0.4135 -0.0451  0.0377
  516CHOL    R5 4640   8.234   6.330   4.769  0.1816 -0.3372 -0.0540
  516CHOL    C1 4641   8.378   6.375   5.119 -0.0921 -0.1103  0.0324
  516CHOL    C2 4642   8.292   6.457   5.499  0.0213 -0.0531 -0.2185
  517PNCE   AM1 4643  10.579   4.840   9.032 -0.0395  0.0987 -0.0848
  517PNCE   AM2 4644  10.353   5.068   9.178  0.0982  0.0765 -0.1633
  517PNCE   T1A 4645  10.417   4.708   8.522 -0.1067  0.0123 -0.0099
  517PNCE   C2A 4646  10.060   4.746   8.215  0.1940 -0.0277 -0.0913
  517PNCE   C3A 4647   9.791   4.436   8.064 -0.2803 -0.0850  0.1393
  517PNCE   C1B 4648  10.103   5.014   8.735 -0.1953  0.1744  0.0656
  517PNCE   C2B 4649  10.093   5.314   8.391 -0.1224 -0.2078  0.1196
  517PNCE   C3B 4650  10.292   5.202   8.096  0.0158  0.0154  0.2694
  517PNCE   D4B 4651  10.390   4.941   7.903 -0.2105 -0.1586  0.0883
  517PNCE   C5B 4652  10.119   4.560   7.718 -0.1777  0.0867  0.0032
  517PNCE   C6B 4653   9.878   4.629   7.379  0.2020  0.2879  0.0447
  518PNCE   AM1 4654   5.403   4.230   8.453 -0.0453  0.2326 -0.1006
  518PNCE   AM2 4655   5.296   4.501   8.128 -0.2698 -0.4141 -0.2943
  518PNCE   T1A 4656   5.510   4.065   8.003  0.4515 -0.0087  0.1134
  518PNCE   C2A 4657   5.600   3.962   7.617 -0.1832  0.0698  0.0093
  518PNCE   C3A 4658   5.779   3.604   7.357  0.3095 -0.2586 -0.2383
  518PNCE   C1B 4659   5.266   4.396   7.605 -0.1472 -0.4940  0.1366
  518PNCE   C2B 4660   5.551   4.367   7.331  0.0112  0.2379 -0.2579
  518PNCE   C3B 4661   5.662   4.137   7.060  0.0205  0.3589  0.0792
  518PNCE   D4B 4662   5.659   4.153   6.610 -0.2713 -0.4023 -0.2680
  518PNCE   C5B 4663   5.760   3.829   6.365 -0.2459 -0.2742 -0.2301
  518PNCE   C6B 4664   6.103   3.516   6.320  0.3225  0.2002 -0.1982
  519XCA    COO 4665  14.041   3.711   8.699 -0.0092  0.1510  0.1840
  519XCA     C1 4666  13.785   3.378   8.568  0.0895  0.1624  0.0542
  519XCA     C2 4667  13.478   3.251   8.201 -0.2282  0.0655  0.1986
  519XCA     C3 4668  13.285   3.408   7.800 -0.1931  0.0660 -0.0514
  519XCA     C4 4669  12.957   3.535   7.628  0.2201 -0.2654 -0.2549
  519XCA     C5 4670  12.546   3.543   7.373 -0.0317 -0.1136  0.3749
  519XCA     C6 4671  12.385   3.982   7.096 -0.0599 -0.2942  0.2432
  520XCA    COO 4672  13.187  14.494   8.787 -0.0458  0.2540  0.0201
  520XCA     C1 4673  13.144  14.262   8.407  0.0705 -0.2107  0.4687
  520XCA     C2 4674  13.112  14.164   7.931  0.0161  0.0241  0.0289
  520XCA     C3 4675  13.277  13.835   7.694 -0.3009 -0.1155 -0.0214
  520XCA     C4 4676  13.251  13.466   7.431 -0.3008  0.0433  0.4429
  520XCA     C5 4677  13.426  13.116   7.257 -0.0019  0.2398 -0.0644
  520XCA     C6 4678  13.764  13.038   6.957  0.0948  0.2762  0.1636
  521XCA    COO 4679  11.671   7.515   8.092  0.1679  0.1385 -0.0501
  521XCA     C1 4680  11.742   7.145   7.959  0.0211 -0.2050 -0.1391
  521XCA     C2 4681  11.520   6.845   7.735  0.2164 -0.0572  0.2371
  521XCA     C3 4682  11.548   6.613   7.309 -0.0048  0.2014  0.3357
  521XCA     C4 4683  11.435   6.257   7.060  0.0977  0.0412  0.1371
  521XCA     C5 4684  11.402   5.975   6.642 -0.0362 -0.3963  0.0788
  521XCA     C6 4685  11.213   5.798   6.257 -0.1630  0.0679  0.1134
  522PNCE   AM1 4686  15.755   4.088   7.704  0.1069  0.0731 -0.1700
  522PNCE   AM2 4687  15.801   4.419   7.730  0.2275  0.4349 -0.1832
  522PNCE   T1A 4688  16.016   4.160   7.306  0.0109 -0.1768 -0.2040
  522PNCE   C2A 4689  16.220   4.152   6.926  0.0032 -0.0829  0.0687
  522PNCE   C3A 4690  16.500   3.780   6.703  0.0823 -0.0264 -0.2823
  522PNCE   C1B 4691  15.539   4.358   7.346 -0.2432 -0.2256  0.2785
  522PNCE   C2B 4692  15.254   4.158   7.188 -0.0177 -0.1229  0.2409
  522PNCE   C3B 4693  15.155   3.773   6.982 -0.2478 -0.3137  0.1062
  522PNCE   D4B 4694  15.361   3.482   6.698 -0.0779  0.0752 -0.1600
  522PNCE   C5B 4695  15.744   3.606   6.529  0.1659 -0.1717 -0.1532
  522PNCE   C6B 4696  16.114   3.425   6.494 -0.0698  0.0072 -0.2147
  523CHOL   ROH 4697  10.091  10.431   8.161 -0.0824 -0.1474 -0.0626
  523CHOL    R1 4698  10.084  10.554   7.906  0.0846 -0.0321 -0.0138
  523CHOL    R2 4699  10.251  10.478   7.700  0.0794 -0.0823 -0.0017
  523CHOL    R3 4700  10.017  10.449   7.564  0.0882  0.1649 -0.0753
  523CHOL    R4 4701  10.225  10.458   7.356  0.1776 -0.2198 -0.0018
  523CHOL    R5 4702  10.047  10.583   7.367  0.3417  0.0279 -0.1328
  523CHOL    C1 4703   9.991  10.418   7.028  0.2429 -0.0678 -0.0710
  523CHOL    C2 4704  10.086  10.435   6.573 -0.0681 -0.1704  0.0467
  524XCA    COO 4705   2.010   3.080   5.146  0.0628 -0.2134 -0.1603
  524XCA     C1 4706   2.017   3.228   5.556  0.1369  0.1062  0.2355
  524XCA     C2 4707   1.850   3.426   5.807  0.0161  0.1033 -0.1480
  524XCA     C3 4708   1.717   3.616   6.130  0.3117  0.1659  0.0377
  524XCA     C4 4709   1.854   4.036   6.268  0.1013  0.2193 -0.1038
  524XCA     C5 4710   1.780   4.293   6.157 -0.0187 -0.1093  0.0106
  524XCA     C6 4711   1.755   4.749   6.019  0.0614 -0.3527  0.1362
  525CHOL   ROH 4712  11.573   3.306   7.454 -0.2602 -0.0846  0.0223
  525CHOL    R1 4713  11.435   3.076   7.365 -0.1149 -0.1695  0.0118
  525CHOL    R2 4714  11.562   2.867   7.236  0.0304 -0.1174  0.0653
  525CHOL    R3 4715  11.445   2.718   7.431  0.0611 -0.1572  0.0530
  525CHOL    R4 4716  11.556   2.521   7.244  0.1398 -0.1195  0.0630
  525CHOL    R5 4717  11.350   2.531   7.315  0.1315 -0.1867  0.0445
  525CHOL    C1 4718  11.443   2.180   7.432  0.2325 -0.1580  0.0501
  525CHOL    C2 4719  11.563   1.738   7.409  0.1528  0.1242  0.0143
  526PNCE   AM1 4720   3.335   6.953   8.082 -0.1826  0.0738  0.0435
  526PNCE   AM2 4721   3.219   6.915   7.762  0.0829 -0.1754  0.2718
  526PNCE   T1A 4722   3.024   7.299   8.013 -0.0466  0.2283 -0.1641
  526PNCE   C2A 4723   2.633   7.461   7.712 -0.0231  0.1015  0.0544
  526PNCE   C3A 4724   2.604   7.421   7.275 -0.0957 -0.0066 -0.1782
  526PNCE   C1B 4725   3.322   6.805   7.327  0.2030 -0.1707 -0.0208
  526PNCE   C2B 4726   3.357   6.949   6.828 -0.3498 -0.1876  0.0724
  526PNCE   C3B 4727   3.050   6.743   6.514  0.1734 -0.0401 -0.1086
  526PNCE   D4B 4728   2.735   6.566   6.266 -0.2513 -0.1209 -0.0286
  526PNCE   C5B 4729   2.403   6.644   6.061  0.0006 -0.4626 -0.0571
  526PNCE   C6B 4730   1.965   6.933   6.079  0.3423 -0.2162 -0.1914
  527XCA    COO 4731   4.007  14.168   4.399 -0.0135 -0.2093  0.3705
  527XCA     C1 4732   4.323  14.270   4.813 -0.0770 -0.2005  0.1288
  527XCA     C2 4733   4.603  14.072   5.166 -0.2005  0.0186 -0.0531
  527XCA     C3 4734   4.557  13.918   5.638 -0.1916 -0.0019 -0.3659
  527XCA     C4 4735   4.553  13.865   6.083 -0.0413 -0.0508  0.0761
  527XCA     C5 4736   4.551  13.749   6.512 -0.2958  0.0735 -0.0677
  527XCA     C6 4737   4.592  13.387   6.616 -0.2766 -0.0915 -0.1130
  528CHOL   ROH 4738   2.060  12.123   7.748 -0.2124 -0.1070  0.1146
  528CHOL    R1 4739   2.046  12.075   7.470 -0.0369 -0.1659  0.1146
  528CHOL    R2 4740   1.828  11.953   7.351 -0.0175 -0.0797 -0.0133
  528CHOL    R3 4741   1.830  12.175   7.194  0.2129 -0.1164 -0.0662
  528CHOL    R4 4742   1.725  11.963   7.021  0.0551 -0.0619 -0.0355
  528CHOL    R5 4743   1.893  12.095   6.978  0.1826 -0.2235 -0.0350
  528CHOL    C1 4744   1.666  12.178   6.682  0.3137 -0.0862 -0.0982
  528CHOL    C2 4745   1.689  12.207   6.338 -0.2390  0.1980 -0.3630
  529XCA    COO 4746  12.942   8.430   8.290  0.4809  0.0238  0.1678
  529XCA     C1 4747  12.640   8.687   7.977 -0.1108  0.1896 -0.1400
  529XCA     C2 4748  12.535   8.995   7.712 -0.3274  0.1680  0.0098
  529XCA     C3 4749  12.351   9.287   7.424 -0.2431 -0.1134  0.3168
  529XCA     C4 4750  12.134   9.209   7.097  0.2451 -0.2443 -0.2373
  529XCA     C5 4751  11.768   9.204   6.948 -0.0429 -0.1992  0.0746
  529XCA     C6 4752  11.318   9.088   7.025  0.2160 -0.1278 -0.1929
  530PNCE   AM1 4753  11.178   3.130   9.241  0.1966  0.0886 -0.1100
  530PNCE   AM2 4754  11.415   3.101   9.352 -0.1148 -0.0776  0.2475
  530PNCE   T1A 4755  11.287   3.270   8.740  0.0949 -0.3030 -0.2706
  530PNCE   C2A 4756  11.355   3.094   8.347 -0.0110 -0.3095  0.3693
  530PNCE   C3A 4757  11.407   3.042   7.920 -0.0549 -0.0386 -0.2499
  530PNCE   C1B 4758  11.444   2.813   8.984 -0.0053  0.0236  0.0539
  530PNCE   C2B 4759  11.307   2.655   8.590 -0.0710  0.1431 -0.3062
  530PNCE   C3B 4760  11.295   2.623   8.168 -0.1495 -0.2065 -0.0591
  530PNCE   D4B 4761  11.309   2.444   7.785  0.0695  0.3046 -0.0359
  530PNCE   C5B 4762  10.951   2.238   7.484  0.0766  0.0144 -0.2712
  530PNCE   C6B 4763  10.726   2.273   7.147 -0.3809 -0.0459  0.0545
  531CHOL   ROH 4764   6.579   4.131   8.206  0.3639 -0.0536 -0.0505
  531CHOL    R1 4765   6.621   4.018   7.950  0.1918  0.0530 -0.1283
  531CHOL    R2 4766   6.412   3.943   7.785  0.0765  0.1029 -0.0150
  531CHOL    R3 4767   6.539   4.104   7.606 -0.0614  0.1889 -0.0351
  531CHOL    R4 4768   6.483   3.857   7.458  0.3044  0.0605  0.0444
  531CHOL    R5 4769   6.677   3.955   7.479  0.1729  0.3126  0.0744
  531CHOL    C1 4770   6.642   3.958   7.099  0.3076  0.1166  0.0600
  531CHOL    C2 4771   6.685   3.553   6.938 -0.1548 -0.0927 -0.0092
  532PNCE   AM1 4772  13.855  14.780   8.900 -0.1228 -0.0111  0.1819
  532PNCE   AM2 4773  13.667  14.486   8.868 -0.0915 -0.0869  0.3422
  532PNCE   T1A 4774  14.051  14.651   8.502 -0.2645 -0.1291  0.1433
  532PNCE   C2A 4775  14.316  14.781   8.128 -0.0788 -0.0280 -0.0294
  532PNCE   C3A 4776  14.562  14.622   7.724 -0.4326  0.0653  0.0001
  532PNCE   C1B 4777  13.669  14.257   8.565  0.1370  0.0952  0.0549
  532PNCE   C2B 4778  13.486  13.977   8.214 -0.1491 -0.3360 -0.1816
  532PNCE   C3B 4779  13.497  13.613   8.097 -0.0436  0.0790 -0.1441
  532PNCE   D4B 4780  13.429  13.207   8.114 -0.1995  0.0446 -0.0096
  532PNCE   C5B 4781  13.247  13.088   7.758 -0.0032  0.1776  0.3083
  532PNCE   C6B 4782  13.043  12.742   7.444 -0.1245 -0.0163  0.1195
  533PNCE   AM1 4783   2.105  12.932   8.485  0.0690 -0.2234  0.1147
  533PNCE   AM2 4784   2.263  13.211   8.446  0.2054  0.0349  0.2032
  533PNCE   T1A 4785   1.838  12.931   8.142 -0.0327  0.2613  0.1152
  533PNCE   C2A 4786   1.696  12.969   7.595 -0.0932 -0.1682 -0.0587
  533PNCE   C3A 4787   1.743  12.953   7.157 -0.0997 -0.0171  0.2506
  533PNCE   C1B 4788   2.317  13.412   8.075  0.0605  0.3632  0.0490
  533PNCE   C2B 4789   2.563  13.477   7.683 -0.0482  0.1167 -0.2132
  533PNCE   C3B 4790   2.924  13.543   7.426 -0.0778  0.1977  0.0143
  533PNCE   D4B 4791   3.196  13.911   7.296  0.1868 -0.1362 -0.2364
  533PNCE   C5B 4792   3.005  14.274   7.145  0.3003  0.2121  0.2203
  533PNCE   C6B 4793   2.847  14.628   6.847 -0.0513  0.0222  0.1134
  534PNCE   AM1 4794   7.091   3.238   9.057 -0.0087  0.0530  0.1828
  534PNCE   AM2 4795   7.298   3.530   9.051  0.2849 -0.0314  0.0261
  534PNCE   T1A 4796   7.051   3.141   8.588  0.2079 -0.2413 -0.2381
  534PNCE   C2A 4797   7.192   3.301   8.212 -0.1333  0.0650 -0.2407
  534PNCE   C3A 4798   7.405   3.670   8.036 -0.2760 -0.0666 -0.1807
  534PNCE   C1B 4799   7.668   3.458   8.783 -0.2204  0.0298 -0.1539
  534PNCE   C2B 4800   7.691   3.204   8.513  0.1238 -0.1838  0.1891
  534PNCE   C3B 4801   7.515   2.890   8.252  0.0147 -0.0306 -0.3000
  534PNCE   D4B 4802   7.374   2.847   7.842 -0.2515  0.1528 -0.3573
  534PNCE   C5B 4803   7.550   2.933   7.416  0.2666 -0.3108 -0.0088
  534PNCE   C6B 4804   7.876   3.011   7.094  0.1360  0.3666  0.0367
  535PNCE   AM1 4805   4.222   6.970   8.792 -0.1334 -0.1891 -0.2013
  535PNCE   AM2 4806   4.012   6.953   8.695  0.0115 -0.0604  0.1363
  535PNCE   T1A 4807   4.531   7.197   8.617 -0.2836  0.0943 -0.3787
  535PNCE   C2A 4808   4.584   7.404   8.187  0.1964  0.2063 -0.0470
  535PNCE   C3A 4809   4.702   7.891   7.896  0.0827 -0.2826  0.1016
  535PNCE   C1B 4810   4.146   7.076   8.285 -0.1061  0.0300  0.0937
  535PNCE   C2B 4811   4.130   7.290   7.929  0.0147  0.0254 -0.0655
  535PNCE   C3B 4812   3.923   7.500   7.534  0.1546 -0.0640 -0.4747
  535PNCE   D4B 4813   3.840   7.559   7.087 -0.0988 -0.1725 -0.0090
  535PNCE   C5B 4814   4.003   7.601   6.685  0.1881  0.2019 -0.1662
  535PNCE   C6B 4815   3.951   7.782   6.244 -0.2315  0.0748 -0.0973
  536CHOL   ROH 4816  13.662  10.711   8.056 -0.2035 -0.2534  0.0502
  536CHOL    R1 4817  13.474  10.778   7.856 -0.1719  0.1104  0.1354
  536CHOL    R2 4818  13.505  10.997   7.690  0.2725 -0.0403  0.0040
  536CHOL    R3 4819  13.474  10.812   7.494 -0.3099 -0.0821  0.1159
  536CHOL    R4 4820  13.458  11.071   7.356  0.4408 -0.0925 -0.0318
  536CHOL    R5 4821  13.312  10.909   7.346 -0.0561  0.3220  0.0878
  536CHOL    C1 4822  13.403  10.940   6.976 -0.0081 -0.1620  0.0525
  536CHOL    C2 4823  13.404  11.328   6.705 -0.0902  0.1407  0.1171
  537CHOL   ROH 4824   1.247   7.447   7.771 -0.2231 -0.1178  0.1218
  537CHOL    R1 4825   1.196   7.616   7.550 -0.2386 -0.1206  0.1232
  537CHOL    R2 4826   1.386   7.671   7.358 -0.1891  0.0328  0.2139
  537CHOL    R3 4827   1.193   7.584   7.188 -0.0578 -0.0732  0.1168
  537CHOL    R4 4828   1.416   7.660   7.014 -0.0009  0.0175  0.2296
  537CHOL    R5 4829   1.210   7.730   6.999 -0.0263 -0.0814  0.1137
  537CHOL    C1 4830   1.252   7.573   6.654  0.2319 -0.0911  0.1476
  537CHOL    C2 4831   1.042   7.518   6.286 -0.4985  0.3733 -0.1122
  538PNCE   AM1 4832   9.456  10.983   4.217 -0.2384  0.0688  0.0842
  538PNCE   AM2 4833   9.451  10.629   4.111 -0.0177 -0.0665 -0.1399
  538PNCE   T1A 4834   9.572  10.992   4.561 -0.0031 -0.1779 -0.1723
  538PNCE   C2A 4835   9.655  10.753   4.905 -0.0172 -0.0596  0.0558
  538PNCE   C3A 4836   9.779  10.843   5.311 -0.1456  0.2609 -0.4761
  538PNCE   C1B 4837   9.354  10.533   4.475  0.2181  0.0421  0.0624
  538PNCE   C2B 4838   9.336  10.414   4.889 -0.0055  0.3402  0.2845
  538PNCE   C3B 4839   9.497   9.996   4.980 -0.1255 -0.1021  0.1668
  538PNCE   D4B 4840   9.715   9.806   5.248 -0.1782  0.0070  0.1115
  538PNCE   C5B 4841   9.585   9.635   5.614  0.0504  0.0147 -0.1274
  538PNCE   C6B 4842   9.291   9.406   5.871 -0.1610 -0.0266  0.0597
  539XCA    COO 4843   2.858  10.560   8.067 -0.2436 -0.4929 -0.0984
  539XCA     C1 4844   2.797  10.616   7.741 -0.0486 -0.1317 -0.0570
  539XCA     C2 4845   2.663  10.496   7.288  0.1569  0.0938  0.1556
  539XCA     C3 4846   2.467  10.418   6.869 -0.1325 -0.3423 -0.1792
  539XCA     C4 4847   2.564  10.166   6.671  0.0130  0.0034  0.0893
  539XCA     C5 4848   2.625   9.718   6.494 -0.2514 -0.2538  0.0303
  539XCA     C6 4849   2.606   9.637   6.071  0.2531  0.3223  0.0021
  540CHOL   ROH 4850   1.105  12.006   4.679 -0.0750  0.0109  0.1435
  540CHOL    R1 4851   1.167  11.813   4.877 -0.0994  0.0450  0.1846
  540CHOL    R2 4852   1.425  11.733   4.930 -0.1219 -0.0956  0.0899
  540CHOL    R3 4853   1.361  11.803   5.185  0.0425  0.0394  0.0952
  540CHOL    R4 4854   1.569  11.598   5.214 -0.0763 -0.0827  0.0729
  540CHOL    R5 4855   1.372  11.598   5.308 -0.0326  0.0782  0.1660
  540CHOL    C1 4856   1.594  11.586   5.619  0.1047  0.0516  0.0679
  540CHOL    C2 4857   1.885  11.649   5.813  0.2599 -0.2990 -0.2300
  541PNCE   AM1 4858  12.547   9.352   9.257  0.2641 -0.0160  0.1973
  541PNCE   AM2 4859  12.290   9.242   8.940  0.0902 -0.3286 -0.2756
  541PNCE   T1A 4860  12.552   9.682   8.903 -0.1497 -0.1381  0.1069
  541PNCE   C2A 4861  12.676   9.841   8.490  0.3597 -0.1418 -0.1900
  541PNCE   C3A 4862  12.379  10.041   8.203 -0.0046  0.0385 -0.0483
  541PNCE   C1B 4863  12.276   9.482   8.552  0.1898  0.0018  0.2422
  541PNCE   C2B 4864  12.538   9.492   8.164  0.1840  0.1823 -0.2202
  541PNCE   C3B 4865  12.826   9.487   7.812 -0.2339 -0.2204  0.0042
  541PNCE   D4B 4866  12.865   9.310   7.412 -0.0335  0.0408 -0.0423
  541PNCE   C5B 4867  13.025   9.547   7.107  0.1957  0.0519 -0.0251
  541PNCE   C6B 4868  13.200   9.865   6.793  0.0926  0.0835 -0.2333
  542PNCE   AM1 4869   1.279  10.801   7.714  0.1361  0.2254 -0.2380
  542PNCE   AM2 4870   1.117  10.504   7.858  0.2657 -0.0830 -0.0586
  542PNCE   T1A 4871   1.161  10.750   7.334  0.0541  0.0649  0.0056
  542PNCE   C2A 4872   0.869  11.030   6.957  0.0470  0.2525  0.0820
  542PNCE   C3A 4873   0.793  10.894   6.472 -0.1984  0.2241 -0.0050
  542PNCE   C1B 4874   0.752  10.433   7.440  0.0332 -0.3690 -0.0659
  542PNCE   C2B 4875   0.531  10.575   7.153 -0.0495  0.0745 -0.0345
  542PNCE   C3B 4876   0.402  10.873   6.829 -0.0426  0.1371 -0.1804
  542PNCE   D4B 4877   0.259  10.884   6.367 -0.3139 -0.0782  0.3902
  542PNCE   C5B 4878   0.073  10.451   6.266  0.0040  0.1428  0.1423
  542PNCE   C6B 4879   0.151  10.103   6.004 -0.1005 -0.2946 -0.3812
  543PNCE   AM1 4880   3.639   0.064   8.645 -0.2534  0.0877 -0.0699
  543PNCE   AM2 4881   3.229   0.163   8.666  0.0684  0.1425  0.0618
  543PNCE   T1A 4882   3.560   0.009   8.152 -0.1624 -0.2804  0.0352
  543PNCE   C2A 4883   3.417  -0.176   7.797  0.1467  0.1648 -0.2682
  543PNCE   C3A 4884   3.418  -0.331   7.303 -0.1207 -0.1278  0.0152
  543PNCE   C1B 4885   3.108  -0.033   8.393 -0.0545  0.1182 -0.0588
  543PNCE   C2B 4886   3.069  -0.369   8.047  0.0195 -0.0402  0.2420
  543PNCE   C3B 4887   3.195  -0.758   7.746 -0.2270  0.0823 -0.0488
  543PNCE   D4B 4888   3.308  -1.014   7.418 -0.1090  0.0912  0.1231
  543PNCE   C5B 4889   3.548  -0.821   7.242 -0.1772 -0.0360  0.2071
  543PNCE   C6B 4890   3.697  -0.608   7.006  0.0335 -0.1409  0.0236
  544CHOL   ROH 4891   1.213   7.955   6.299 -0.1727  0.1458 -0.1880
  544CHOL    R1 4892   0.957   7.946   6.420 -0.0929 -0.0606 -0.0274
  544CHOL    R2 4893   0.911   7.820   6.660  0.1696 -0.0539  0.0324
  544CHOL    R3 4894   0.807   8.061   6.731 -0.0028 -0.1299  0.0411
  544CHOL    R4 4895   0.751   7.885   6.960  0.1155 -0.1763  0.0304
  544CHOL    R5 4896   0.606   8.006   6.850  0.0335 -0.2744  0.0341
  544CHOL    C1 4897   0.560   8.150   7.200 -0.0778 -0.3188  0.0374
  544CHOL    C2 4898   0.346   8.409   7.392  0.3132 -0.0615  0.0966
  545PNCE   AM1 4899   6.307   4.417   8.526 -0.0613  0.3376 -0.0828
  545PNCE   AM2 4900   6.600   4.641   8.580  0.0476 -0.1978 -0.2484
  545PNCE   T1A 4901   6.311   4.521   8.182 -0.1845  0.1113  0.4032
  545PNCE   C2A 4902   6.313   4.450   7.806  0.0014 -0.2723 -0.2915
  545PNCE   C3A 4903   6.462   4.782   7.528  0.4308  0.5304 -0.0531
  545PNCE   C1B 4904   6.878   4.637   8.194 -0.0107  0.1717 -0.0740
  545PNCE   C2B 4905   6.883   4.410   7.778  0.0621 -0.0792  0.0573
  545PNCE   C3B 4906   7.038   4.190   7.408  0.1412 -0.0436 -0.0482
  545PNCE   D4B 4907   7.345   3.987   7.255  0.1102  0.4285 -0.3309
  545PNCE   C5B 4908   7.183   3.565   7.300 -0.5059 -0.0326  0.0874
  545PNCE   C6B 4909   6.789   3.471   7.446  0.1595  0.1199 -0.2199
  546PNCE   AM1 4910  11.650   6.156   8.366  0.0220  0.0400 -0.3227
  546PNCE   AM2 4911  11.832   5.927   8.532  0.2918 -0.0396  0.1697
  546PNCE   T1A 4912  11.379   6.251   8.159 -0.0127  0.1442 -0.1287
  546PNCE   C2A 4913  11.122   6.468   7.809  0.3316  0.1155  0.2036
  546PNCE   C3A 4914  11.069   6.528   7.341  0.0187 -0.0817  0.0228
  546PNCE   C1B 4915  11.588   5.762   8.136  0.0496 -0.0089 -0.0132
  546PNCE   C2B 4916  11.557   5.780   7.658  0.0030  0.2031  0.0423
  546PNCE   C3B 4917  11.573   5.670   7.322  0.1136 -0.0671  0.0180
  546PNCE   D4B 4918  11.263   5.715   7.029 -0.1323 -0.1001  0.0877
  546PNCE   C5B 4919  11.396   5.387   6.696 -0.0500 -0.0324  0.0024
  546PNCE   C6B 4920  11.120   5.059   6.519  0.0429  0.2967 -0.0356
  547PNCE   AM1 4921   3.441  11.133   8.514 -0.1170  0.0724 -0.3496
  547PNCE   AM2 4922   3.575  10.772   8.512  0.2944 -0.1497 -0.4061
  547PNCE   T1A 4923   3.616  11.220   8.118  0.0740 -0.0132 -0.0640
  547PNCE   C2A 4924   4.130  11.180   7.951  0.0888  0.3708 -0.0039
  547PNCE   C3A 4925   4.560  11.352   7.860  0.1918  0.0853  0.1782
  547PNCE   C1B 4926   3.924  10.563   8.296  0.1168 -0.0694 -0.1301
  547PNCE   C2B 4927   4.298  10.604   8.094 -0.1569 -0.5265 -0.0707
  547PNCE   C3B 4928   4.626  10.396   7.882 -0.1313 -0.1787 -0.0872
  547PNCE   D4B 4929   4.569  10.154   7.647  0.0157 -0.0453  0.0854
  547PNCE   C5B 4930   4.291  10.030   7.300  0.0249 -0.0909  0.2570
  547PNCE   C6B 4931   4.194   9.990   6.872  0.1033  0.0568  0.3799
  548PNCE   AM1 4932  11.723  12.238   7.944  0.0811 -0.0136 -0.1141
  548PNCE   AM2 4933  11.544  12.469   8.306  0.2932 -0.2108 -0.1409
  548PNCE   T1A 4934  12.006  12.069   7.698 -0.0623  0.0645 -0.1486
  548PNCE   C2A 4935  12.524  11.961   7.606  0.0049  0.0465 -0.2965
  548PNCE   C3A 4936  12.837  12.276   7.402  0.3175 -0.3336  0.1142
  548PNCE   C1B 4937  11.674  12.709   7.844  0.3246 -0.3234 -0.0767
  548PNCE   C2B 4938  11.585  12.843   7.392  0.0740 -0.2767 -0.2944
  548PNCE   C3B 4939  11.724  12.951   6.994 -0.3689 -0.0133 -0.2564
  548PNCE   D4B 4940  11.711  13.265   6.708  0.1733 -0.0298  0.2607
  548PNCE   C5B 4941  11.580  13.266   6.150 -0.0332 -0.2427  0.0838
  548PNCE   C6B 4942  11.934  13.003   5.867  0.0688 -0.2648 -0.0078
  549CHOL   ROH 4943  12.455   8.019   3.873  0.0629 -0.1245 -0.2751
  549CHOL    R1 4944  12.576   8.044   4.128  0.0118 -0.0524 -0.2572
  549CHOL    R2 4945  12.673   7.826   4.268  0.0919  0.0003 -0.2284
  549CHOL    R3 4946  12.902   7.973   4.273  0.0227  0.1083 -0.2021
  549CHOL    R4 4947  12.895   7.837   4.533  0.0551  0.1106 -0.2019
  549CHOL    R5 4948  12.918   8.051   4.499 -0.0413  0.1201 -0.2025
  549CHOL    C1 4949  13.239   7.982   4.692 -0.0313  0.2763 -0.1618
  549CHOL    C2 4950  13.380   7.884   5.116  0.1885 -0.0765  0.2460
  550XCA    COO 4951   2.654   5.383   3.980 -0.1184  0.0079  0.0378
  550XCA     C1 4952   2.598   5.516   4.457  0.1111 -0.0194  0.3974
  550XCA     C2 4953   2.629   5.460   4.875  0.0419 -0.2079  0.1692
  550XCA     C3 4954   2.448   5.448   5.274  0.1811  0.2154  0.0480
  550XCA     C4 4955   2.398   5.152   5.494 -0.0357  0.0956 -0.0538
  550XCA     C5 4956   2.416   5.201   5.964 -0.0863  0.0603 -0.2429
  550XCA     C6 4957   2.242   4.926   6.301  0.2156 -0.0893  0.1841
  551PNCE   AM1 4958   9.351   4.354   4.770  0.0248 -0.4162 -0.3994
  551PNCE   AM2 4959   9.233   4.542   5.066 -0.1739  0.0441  0.0699
  551PNCE   T1A 4960   9.258   4.071   5.196  0.0010 -0.0986  0.1296
  551PNCE   C2A 4961   9.103   4.107   5.702  0.0729  0.0573  0.8240
  551PNCE   C3A 4962   9.033   4.075   6.184  0.3121 -0.0371 -0.1032
  551PNCE   C1B 4963   9.159   4.506   5.451  0.2178  0.2746  0.2171
  551PNCE   C2B 4964   8.830   4.597   5.834  0.1543 -0.0430 -0.1219
  551PNCE   C3B 4965   8.539   4.608   6.197 -0.2356  0.2430  0.1437
  551PNCE   D4B 4966   8.250   4.794   6.445 -0.0856 -0.0741  0.1223
  551PNCE   C5B 4967   7.917   4.663   6.776  0.0061 -0.3507 -0.0832
  551PNCE   C6B 4968   7.784   4.410   7.152  0.0516  0.0953  0.1280
  552XCA    COO 4969   8.468  12.972   4.968  0.1289  0.0200 -0.0590
  552XCA     C1 4970   8.585  12.706   5.294  0.0278 -0.2276 -0.0433
  552XCA     C2 4971   8.586  12.501   5.678  0.1173  0.0498 -0.2467
  552XCA     C3 4972   8.720  12.187   6.090 -0.0876 -0.0634 -0.1074
  552XCA     C4 4973   9.003  11.874   6.197 -0.3382 -0.0445  0.3525
  552XCA     C5 4974   9.208  11.451   6.275  0.2566 -0.2015  0.1931
  552XCA     C6 4975   9.207  11.031   6.583  0.2831 -0.0019  0.1686
  553PNCE   AM1 4976  12.456   8.096   8.204  0.0867  0.2608 -0.2906
  553PNCE   AM2 4977  12.137   7.929   8.181  0.0699  0.0885  0.2002
  553PNCE   T1A 4978  12.469   8.234   7.773  0.0250  0.0652 -0.2328
  553PNCE   C2A 4979  12.549   8.541   7.506  0.0139 -0.2488  0.0120
  553PNCE   C3A 4980  12.537   8.823   7.205  0.0543  0.3986 -0.2052
  553PNCE   C1B 4981  11.878   7.909   7.827 -0.2865 -0.1741 -0.0631
  553PNCE   C2B 4982  11.857   8.038   7.485  0.0132  0.1148  0.2504
  553PNCE   C3B 4983  11.847   8.231   7.067 -0.3675  0.0522 -0.1318
  553PNCE   D4B 4984  11.995   8.308   6.659  0.1905 -0.2324  0.0291
  553PNCE   C5B 4985  12.370   8.410   6.388 -0.0103  0.2045  0.1441
  553PNCE   C6B 4986  12.662   8.491   5.997 -0.0338  0.0640  0.1893
  554CHOL   ROH 4987   6.817  13.721   7.184  0.0847  0.2229  0.0319
  554CHOL    R1 4988   6.997  13.792   7.390  0.0849  0.1104  0.0714
  554CHOL    R2 4989   7.028  14.052   7.479  0.1667  0.0811  0.1372
  554CHOL    R3 4990   6.976  13.941   7.722  0.0955  0.0406  0.1031
  554CHOL    R4 4991   7.236  14.072   7.755  0.0500  0.0930  0.2246
  554CHOL    R5 4992   7.189  13.864   7.799  0.0796  0.0794  0.1804
  554CHOL    C1 4993   7.307  13.980   8.143 -0.0847  0.0617  0.2434
  554CHOL    C2 4994   7.560  13.893   8.274  0.0883  0.2501 -0.0147
  555CHOL   ROH 4995   9.084  11.858   8.404 -0.0957 -0.2329  0.1010
  555CHOL    R1 4996   8.911  11.705   8.240  0.0103 -0.1874 -0.0568
  555CHOL    R2 4997   8.786  11.809   8.018 -0.0548 -0.0465  0.0432
  555CHOL    R3 4998   8.902  11.598   7.893  0.0920  0.1539 -0.1678
  555CHOL    R4 4999   8.680  11.676   7.717 -0.2562 -0.1102  0.1404
  555CHOL    R5 5000   8.718  11.477   7.797  0.1372 -0.0841  0.0384
  555CHOL    C1 5001   8.728  11.400   7.424 -0.2357  0.0407 -0.0012
  555CHOL    C2 5002   8.535  11.271   7.180  0.0602 -0.0602  0.2648
  556CHOL   ROH 5003   7.783   8.625   4.764 -0.2653  0.1169 -0.1783
  556CHOL    R1 5004   7.791   8.799   4.988 -0.3590  0.1413 -0.1946
  556CHOL    R2 5005   7.562   8.902   5.104 -0.4503 -0.3972  0.1238
  556CHOL    R3 5006   7.668   8.795   5.331  0.1298 -0.1503 -0.0117
  556CHOL    R4 5007   7.513   9.027   5.422 -0.3224 -0.5021  0.1864
  556CHOL    R5 5008   7.723   8.985   5.466 -0.1398  0.0008 -0.0993
  556CHOL    C1 5009   7.584   8.999   5.820  0.2965 -0.3315  0.0958
  556CHOL    C2 5010   7.776   9.124   6.093  0.0175  0.0020 -0.1386
  557PNCE   AM1 5011  15.489  15.554   8.714 -0.0310  0.1691 -0.3809
  557PNCE   AM2 5012  15.292  15.199   8.752 -0.4371 -0.0211  0.3646
  557PNCE   T1A 5013  15.513  15.535   8.337  0.1904 -0.2716  0.0222
  557PNCE   C2A 5014  15.533  15.625   7.897 -0.3412  0.0636 -0.0796
  557PNCE   C3A 5015  15.372  15.888   7.645  0.0515  0.1397 -0.1012
  557PNCE   C1B 5016  15.061  15.317   8.310 -0.1212 -0.0481 -0.1575
  557PNCE   C2B 5017  14.975  15.545   7.963  0.0542 -0.0426 -0.2128
  557PNCE   C3B 5018  14.922  15.662   7.513  0.0517  0.1910  0.0480
  557PNCE   D4B 5019  14.634  15.850   7.192  0.0818 -0.1063 -0.0824
  557PNCE   C5B 5020  14.788  16.034   6.815 -0.2362 -0.1079  0.0777
  557PNCE   C6B 5021  15.144  16.299   6.746 -0.1725  0.0476  0.1207
  558CHOL   ROH 5022   8.635   4.631   5.150  0.1683  0.2250 -0.2040
  558CHOL    R1 5023   8.679   4.769   5.393  0.1215  0.1568 -0.1569
  558CHOL    R2 5024   8.897   4.932   5.434  0.0232  0.2806 -0.1310
  558CHOL    R3 5025   8.708   5.116   5.499 -0.0833  0.1351 -0.0229
  558CHOL    R4 5026   8.909   5.139   5.711  0.2595  0.6029 -0.3734
  558CHOL    R5 5027   8.695   5.106   5.738  0.3311  0.3815  0.0197
  558CHOL    C1 5028   8.738   5.431   5.933  0.2973  0.6541 -0.4132
  558CHOL    C2 5029   9.020   5.501   6.224 -0.1685 -0.1061  0.2062
  559PNCE   AM1 5030   4.907   8.502   8.950  0.1370  0.0787 -0.0839
  559PNCE   AM2 5031   4.904   8.823   9.015 -0.0584  0.0857 -0.0698
  559PNCE   T1A 5032   4.510   8.273   8.784  0.2821  0.1247 -0.0783
  559PNCE   C2A 5033   4.005   8.265   8.719  0.2305  0.3103 -0.1788
  559PNCE   C3A 5034   3.665   8.268   8.517  0.0624  0.0467 -0.2009
  559PNCE   C1B 5035   4.794   8.716   8.547  0.2883 -0.3439 -0.0613
  559PNCE   C2B 5036   4.944   8.608   8.194  0.2409 -0.2322  0.1983
  559PNCE   C3B 5037   4.942   8.712   7.773  0.0422 -0.0531 -0.1414
  559PNCE   D4B 5038   5.176   8.535   7.437 -0.0860  0.1207  0.1022
  559PNCE   C5B 5039   5.519   8.608   7.271  0.2303 -0.1510 -0.0442
  559PNCE   C6B 5040   5.937   8.379   7.202 -0.2010  0.2475 -0.4135
  560PNCE   AM1 5041   1.483  11.567   8.165 -0.1422 -0.1846  0.1948
  560PNCE   AM2 5042   1.632  11.818   8.171 -0.5850 -0.3646 -0.2565
  560PNCE   T1A 5043   1.178  11.743   7.843  0.1207 -0.1209 -0.0412
  560PNCE   C2A 5044   0.800  11.820   7.652 -0.1391 -0.0512 -0.0833
  560PNCE   C3A 5045   0.445  11.695   7.385  0.1671 -0.0693 -0.2647
  560PNCE   C1B 5046   1.848  11.734   7.866 -0.0644  0.3324  0.0930
  560PNCE   C2B 5047   2.253  11.681   7.532  0.1355  0.2740  0.1167
  560PNCE   C3B 5048   2.235  11.771   7.151  0.1541  0.1639  0.4357
  560PNCE   D4B 5049   2.139  11.765   6.789 -0.0605 -0.1935 -0.1034
  560PNCE   C5B 5050   2.372  11.903   6.518 -0.1109  0.2215  0.0840
  560PNCE   C6B 5051   2.628  11.837   6.237 -0.1261 -0.4790 -0.2709
  561PNCE   AM1 5052  12.700  14.494   8.579 -0.1926  0.1318  0.1261
  561PNCE   AM2 5053  12.542  14.756   8.484 -0.1231 -0.1326 -0.2276
  561PNCE   T1A 5054  12.993  14.716   8.270  0.0641  0.3567  0.0191
  561PNCE   C2A 5055  12.999  14.790   7.884  0.1286 -0.1866  0.2639
  561PNCE   C3A 5056  12.980  15.155   7.390  0.1761 -0.1248  0.1511
  561PNCE   C1B 5057  12.495  14.938   8.181 -0.2208 -0.2101 -0.1700
  561PNCE   C2B 5058  12.339  15.240   7.992  0.2095  0.0953 -0.0006
  561PNCE   C3B 5059  12.323  15.425   7.544  0.1069 -0.2803 -0.0526
  561PNCE   D4B 5060  12.646  15.612   7.229  0.1868  0.2068 -0.0962
  561PNCE   C5B 5061  12.780  16.055   7.177 -0.0469  0.1661 -0.4966
  561PNCE   C6B 5062  12.641  16.260   6.763 -0.0200  0.0624 -0.1514
  562PNCE   AM1 5063   8.550   0.101   5.074  0.0468  0.0121 -0.2620
  562PNCE   AM2 5064   8.609  -0.224   4.946  0.2391  0.0547 -0.1075
  562PNCE   T1A 5065   8.278  -0.051   5.426  0.0732  0.1697 -0.1216
  562PNCE   C2A 5066   8.217  -0.334   5.791  0.0125 -0.0259  0.2044
  562PNCE   C3A 5067   8.097  -0.574   6.137 -0.0651  0.2864 -0.0974
  562PNCE   C1B 5068   8.841  -0.205   5.313  0.0021 -0.0494 -0.1657
  562PNCE   C2B 5069   8.730  -0.210   5.736  0.1287 -0.2463 -0.1093
  562PNCE   C3B 5070   8.671  -0.352   6.185 -0.1861 -0.2888  0.3819
  562PNCE   D4B 5071   8.875  -0.500   6.516  0.0758 -0.0454 -0.2023
  562PNCE   C5B 5072   8.807  -0.948   6.579  0.0794 -0.0704  0.2459
  562PNCE   C6B 5073   8.612  -1.315   6.590 -0.1417  0.5360 -0.1654
  563PNCE   AM1 5074  11.078   7.768   7.893 -0.1563  0.5248  0.2178
  563PNCE   AM2 5075  11.262   7.921   8.051 -0.1501  0.0892 -0.2110
  563PNCE   T1A 5076  10.823   7.522   7.630 -0.0673 -0.3935 -0.1024
  563PNCE   C2A 5077  10.885   7.294   7.259 -0.1708 -0.1941  0.1401
  563PNCE   C3A 5078  10.733   6.886   7.179  0.3117  0.0629 -0.1523
  563PNCE   C1B 5079  11.307   8.139   7.679 -0.1817  0.0442  0.1666
  563PNCE   C2B 5080  11.371   8.301   7.286  0.0422 -0.2242 -0.1737
  563PNCE   C3B 5081  11.355   8.119   6.904  0.0965  0.2729  0.1124
  563PNCE   D4B 5082  11.186   7.905   6.565 -0.0687  0.2507 -0.2171
  563PNCE   C5B 5083  11.399   7.944   6.134  0.1508  0.1632 -0.1770
  563PNCE   C6B 5084  11.401   7.615   5.774  0.0595 -0.2065  0.1421
  564PNCE   AM1 5085  14.536  14.407   8.466 -0.1678  0.0068 -0.0990
  564PNCE   AM2 5086  14.586  14.694   8.556 -0.1515  0.4626  0.2143
  564PNCE   T1A 5087  14.496  14.155   8.027  0.0943 -0.1308  0.2708
  564PNCE   C2A 5088  14.243  13.892   7.826 -0.0830  0.3788 -0.1411
  564PNCE   C3A 5089  13.818  13.830   7.705  0.0383 -0.1792 -0.1342
  564PNCE   C1B 5090  14.832  14.632   8.140 -0.3267  0.1000  0.3728
  564PNCE   C2B 5091  15.100  14.658   7.824  0.1348 -0.1066 -0.3254
  564PNCE   C3B 5092  15.132  14.543   7.427 -0.1086  0.1362 -0.2520
  564PNCE   D4B 5093  15.389  14.765   7.155 -0.3043 -0.0737  0.3452
  564PNCE   C5B 5094  15.694  14.585   6.790  0.1592 -0.1615  0.1364
  564PNCE   C6B 5095  15.984  14.297   6.617  0.2146 -0.1843  0.2000
  565CHOL   ROH 5096  11.931   4.641   6.697 -0.1223 -0.2699 -0.3860
  565CHOL    R1 5097  11.728   4.725   6.875  0.0694 -0.2464 -0.1742
  565CHOL    R2 5098  11.470   4.780   6.792  0.0622  0.0729  0.0420
  565CHOL    R3 5099  11.404   4.600   6.984  0.0223 -0.0490 -0.0844
  565CHOL    R4 5100  11.153   4.739   6.923  0.0537  0.0503  0.0145
  565CHOL    R5 5101  11.243   4.714   7.120  0.0486 -0.1092 -0.0026
  565CHOL    C1 5102  10.906   4.545   7.180  0.0115 -0.0774 -0.1201
  565CHOL    C2 5103  10.547   4.587   7.053 -0.1612  0.2900  0.0047
  566CHOL   ROH 5104   7.694  15.496   5.412  0.2147  0.0858 -0.0357
  566CHOL    R1 5105   7.824  15.656   5.606  0.3105 -0.0824  0.0430
  566CHOL    R2 5106   7.688  15.838   5.764  0.4757  0.2940 -0.2167
  566CHOL    R3 5107   7.806  15.700   5.967 -0.0613  0.1289  0.0012
  566CHOL    R4 5108   7.738  15.961   6.084  0.3512  0.3185 -0.2069
  566CHOL    R5 5109   7.934  15.866   6.084  0.1504 -0.0983  0.0825
  566CHOL    C1 5110   7.878  15.904   6.460 -0.2254  0.1777  0.0034
  566CHOL    C2 5111   7.871  15.673   6.715  0.2064 -0.1663 -0.1017
  567PNCE   AM1 5112  10.766   6.544   8.690  0.3287 -0.0088  0.0396
  567PNCE   AM2 5113  10.693   6.264   8.775 -0.2486  0.1449  0.1137
  567PNCE   T1A 5114  10.863   6.313   8.341 -0.3072  0.2107  0.1017
  567PNCE   C2A 5115  10.686   6.085   8.058 -0.0962 -0.1745  0.1740
  567PNCE   C3A 5116  10.714   5.943   7.669 -0.1974 -0.1493 -0.2073
  567PNCE   C1B 5117  10.684   5.858   8.646  0.0640 -0.0583 -0.1405
  567PNCE   C2B 5118  10.507   5.634   8.271 -0.4496  0.1128 -0.3470
  567PNCE   C3B 5119  10.404   5.618   7.773 -0.1151 -0.2821 -0.2240
  567PNCE   D4B 5120  10.178   5.406   7.517 -0.2475 -0.0259 -0.2443
  567PNCE   C5B 5121  10.311   4.980   7.414  0.2289  0.0005  0.2720
  567PNCE   C6B 5122  10.612   4.725   7.511 -0.1369 -0.0094 -0.1326
  568PNCE   AM1 5123  12.647   6.457   7.543  0.2802 -0.0619 -0.4944
  568PNCE   AM2 5124  12.480   6.187   7.751  0.1852  0.0869  0.0495
  568PNCE   T1A 5125  12.450   6.449   7.198 -0.4615  0.1049  0.1565
  568PNCE   C2A 5126  12.504   6.302   6.706 -0.2421 -0.0385 -0.1015
  568PNCE   C3A 5127  12.244   6.120   6.451 -0.1799 -0.0246  0.3144
  568PNCE   C1B 5128  12.290   6.042   7.408 -0.1422 -0.4343  0.0834
  568PNCE   C2B 5129  12.122   5.668   7.182  0.0846 -0.1110  0.2070
  568PNCE   C3B 5130  11.889   5.643   6.852 -0.0775  0.0324  0.0202
  568PNCE   D4B 5131  11.864   5.335   6.336 -0.0119  0.1254  0.0046
  568PNCE   C5B 5132  11.593   4.948   6.365 -0.2718 -0.3463  0.0613
  568PNCE   C6B 5133  11.614   4.582   6.037  0.1439 -0.0681  0.1323
  569PNCE   AM1 5134   8.237   6.227   8.287 -0.0743 -0.2103  0.1088
  569PNCE   AM2 5135   8.452   6.217   7.965  0.0030  0.0446 -0.2982
  569PNCE   T1A 5136   7.957   6.239   7.877 -0.2026  0.3291  0.1543
  569PNCE   C2A 5137   8.122   6.029   7.618  0.0508 -0.0746 -0.1491
  569PNCE   C3A 5138   8.050   5.649   7.385  0.0027 -0.2840 -0.1819
  569PNCE   C1B 5139   8.422   6.474   7.581 -0.2227  0.3271  0.0873
  569PNCE   C2B 5140   8.441   7.015   7.459 -0.1732 -0.0461 -0.0583
  569PNCE   C3B 5141   8.473   7.435   7.519 -0.2370 -0.1632  0.2093
  569PNCE   D4B 5142   8.309   7.808   7.457 -0.3037 -0.1218 -0.4064
  569PNCE   C5B 5143   8.520   8.110   7.358  0.0225 -0.1357 -0.0261
  569PNCE   C6B 5144   8.681   8.503   7.281 -0.3430  0.0842  0.1988
  570CHOL   ROH 5145   2.471   5.988   4.447  0.1237  0.0671  0.1064
  570CHOL    R1 5146   2.374   5.891   4.695 -0.0987  0.0667  0.0215
  570CHOL    R2 5147   2.507   5.933   4.933 -0.0933 -0.2839  0.0863
  570CHOL    R3 5148   2.267   6.034   5.011  0.0383  0.0480  0.0770
  570CHOL    R4 5149   2.414   5.992   5.261 -0.1166 -0.4000  0.1009
  570CHOL    R5 5150   2.216   5.916   5.213 -0.2289 -0.0378 -0.0365
  570CHOL    C1 5151   2.135   6.121   5.525 -0.0066 -0.1561  0.1006
  570CHOL    C2 5152   1.837   6.176   5.788 -0.0990 -0.0498  0.0038
  571XCA    COO 5153   7.266   5.177   8.105  0.0470  0.0074  0.0203
  571XCA     C1 5154   7.100   4.924   7.797 -0.1479  0.2178  0.1392
  571XCA     C2 5155   6.939   4.698   7.386 -0.0435  0.4360  0.1857
  571XCA     C3 5156   6.652   4.942   7.083  0.3841  0.1401 -0.2273
  571XCA     C4 5157   6.651   4.851   6.705 -0.1266 -0.2938  0.2981
  571XCA     C5 5158   6.255   4.711   6.348 -0.1759 -0.0949  0.1221
  571XCA     C6 5159   5.824   4.868   6.190 -0.1371  0.4201 -0.0387
  572PNCE   AM1 5160   2.915  12.298   7.970  0.1490 -0.0719 -0.1532
  572PNCE   AM2 5161   3.233  12.234   8.070 -0.0991  0.1229  0.7281
  572PNCE   T1A 5162   2.928  12.006   7.606  0.1680  0.1771  0.3353
  572PNCE   C2A 5163   2.721  11.677   7.308  0.0843 -0.3309 -0.1137
  572PNCE   C3A 5164   2.660  11.613   6.830  0.1123  0.1743 -0.2393
  572PNCE   C1B 5165   3.654  12.107   7.786  0.3804  0.0579  0.0530
  572PNCE   C2B 5166   3.678  12.038   7.364 -0.2263  0.0493  0.1879
  572PNCE   C3B 5167   3.644  12.009   6.945  0.2835  0.1465  0.2025
  572PNCE   D4B 5168   3.480  12.270   6.579 -0.2163 -0.1976 -0.0103
  572PNCE   C5B 5169   3.259  12.713   6.850 -0.0758  0.0908 -0.2771
  572PNCE   C6B 5170   3.331  12.903   7.307 -0.2779  0.0552  0.0097
  573CHOL   ROH 5171   3.559   2.840   8.765 -0.2090 -0.0448 -0.0135
  573CHOL    R1 5172   3.580   2.716   8.511 -0.2416  0.0977 -0.0863
  573CHOL    R2 5173   3.540   2.445   8.474  0.0682  0.0627 -0.1779
  573CHOL    R3 5174   3.359   2.530   8.289 -0.1776 -0.0750 -0.0083
  573CHOL    R4 5175   3.482   2.291   8.170  0.1356  0.1956 -0.2593
  573CHOL    R5 5176   3.467   2.489   8.079 -0.2282  0.2497 -0.1057
  573CHOL    C1 5177   3.280   2.281   7.819 -0.0558  0.1437 -0.1473
  573CHOL    C2 5178   3.155   2.177   7.415  0.0551  0.1183 -0.2465
  574PNCE   AM1 5179  15.557   7.684   8.000  0.0702  0.0420 -0.1010
  574PNCE   AM2 5180  15.346   7.805   7.788 -0.1520 -0.3971 -0.1064
  574PNCE   T1A 5181  15.715   7.450   7.669 -0.0232 -0.1510 -0.0577
  574PNCE   C2A 5182  15.870   7.440   7.297  0.2133  0.2123  0.0219
  574PNCE   C3A 5183  15.904   7.197   7.029  0.1013  0.0394  0.1132
  574PNCE   C1B 5184  15.376   7.751   7.382  0.2728 -0.2821  0.0635
  574PNCE   C2B 5185  15.575   7.653   6.966  0.1267 -0.5027  0.2482
  574PNCE   C3B 5186  15.819   7.518   6.596  0.1960 -0.0806 -0.0093
  574PNCE   D4B 5187  16.161   7.326   6.421 -0.0116  0.1411  0.0752
  574PNCE   C5B 5188  16.523   7.398   6.560 -0.0124 -0.0571 -0.0559
  574PNCE   C6B 5189  16.766   7.382   6.903 -0.2458 -0.0547 -0.2114
  575PNCE   AM1 5190   9.614   6.618   8.484  0.1125  0.0869 -0.1848
  575PNCE   AM2 5191   9.673   6.893   8.271 -0.1541  0.0227 -0.2500
  575PNCE   T1A 5192   9.747   6.237   8.216 -0.0211 -0.2622  0.0067
  575PNCE   C2A 5193   9.752   6.070   7.854 -0.1963  0.0355  0.0738
  575PNCE   C3A 5194   9.641   5.783   7.556  0.3482  0.0012  0.0084
  575PNCE   C1B 5195   9.513   6.579   7.931 -0.0094 -0.1725  0.0383
  575PNCE   C2B 5196   9.397   6.331   7.593  0.1078  0.2655  0.1938
  575PNCE   C3B 5197   9.536   6.302   7.149 -0.0590 -0.0619  0.1610
  575PNCE   D4B 5198   9.676   6.269   6.720  0.3648  0.0004  0.1237
  575PNCE   C5B 5199  10.098   6.018   6.593 -0.0144  0.0709 -0.1810
  575PNCE   C6B 5200  10.568   6.092   6.643 -0.0648 -0.0976 -0.1734
  576XCA    COO 5201  11.723   7.090   4.557 -0.1003  0.1703 -0.0346
  576XCA     C1 5202  11.485   7.149   4.908  0.0005  0.0398 -0.0884
  576XCA     C2 5203  11.363   7.259   5.323  0.4435  0.0032  0.0310
  576XCA     C3 5204  11.485   7.179   5.705 -0.0397 -0.1492  0.0234
  576XCA     C4 5205  11.634   7.187   6.000  0.1610  0.0339  0.0420
  576XCA     C5 5206  11.598   7.549   6.251  0.1056  0.0014  0.0810
  576XCA     C6 5207  11.711   7.902   6.549 -0.2090  0.3747  0.1086
  577XCA    COO 5208   0.720   4.653   8.237 -0.2047  0.0587  0.1517
  577XCA     C1 5209   0.840   4.539   7.807  0.1684  0.1768 -0.4171
  577XCA     C2 5210   0.996   4.603   7.515 -0.0827  0.0206  0.1778
  577XCA     C3 5211   1.146   4.694   7.117 -0.0896 -0.1488  0.1254
  577XCA     C4 5212   1.010   5.035   6.881 -0.3580  0.1183  0.0581
  577XCA     C5 5213   0.772   5.101   6.529  0.0578  0.1692 -0.1089
  577XCA     C6 5214   0.693   5.172   6.058  0.1338  0.0089 -0.0549
  578PNCE   AM1 5215  14.262  15.563   4.869  0.1432 -0.4922  0.0019
  578PNCE   AM2 5216  14.407  15.880   5.007  0.0454 -0.2072 -0.2512
  578PNCE   T1A 5217  14.055  15.562   5.152  0.0162 -0.0277 -0.2301
  578PNCE   C2A 5218  13.737  15.699   5.360  0.1840  0.0574  0.1023
  578PNCE   C3A 5219  13.349  15.986   5.444 -0.0079 -0.1182 -0.2952
  578PNCE   C1B 5220  14.136  16.017   5.346 -0.0453 -0.1291  0.2474
  578PNCE   C2B 5221  14.228  15.956   5.774 -0.3026 -0.0121 -0.3762
  578PNCE   C3B 5222  14.554  15.836   6.004  0.3648  0.0384 -0.2227
  578PNCE   D4B 5223  14.915  15.590   5.960  0.1827  0.1974 -0.0309
  578PNCE   C5B 5224  15.272  15.607   6.117  0.0647 -0.2693 -0.3773
  578PNCE   C6B 5225  15.717  15.644   6.033 -0.1589  0.0013  0.0881
  579CHOL   ROH 5226   0.065   7.161   8.167  0.0684  0.1842  0.0576
  579CHOL    R1 5227   0.130   7.211   7.896 -0.0869  0.0450 -0.0068
  579CHOL    R2 5228   0.389   7.249   7.809 -0.1619  0.3168 -0.1206
  579CHOL    R3 5229   0.327   7.048   7.636  0.0439  0.0864  0.0654
  579CHOL    R4 5230   0.514   7.219   7.488 -0.2705  0.2524 -0.1572
  579CHOL    R5 5231   0.316   7.156   7.422 -0.2165 -0.0904 -0.0157
  579CHOL    C1 5232   0.528   7.013   7.139 -0.1406 -0.0016 -0.0039
  579CHOL    C2 5233   0.419   6.929   6.809 -0.1690  0.0196  0.1619
  580PNCE   AM1 5234  10.665   5.378   8.903 -0.0265  0.0949  0.0377
  580PNCE   AM2 5235  10.987   5.482   8.876 -0.1020 -0.3413 -0.0675
  580PNCE   T1A 5236  10.626   5.115   8.468  0.0751  0.1210 -0.2026
  580PNCE   C2A 5237  10.866   4.817   8.020 -0.2183 -0.4306 -0.1178
  580PNCE   C3A 5238  11.125   4.713   7.608 -0.1562  0.0511  0.0701
  580PNCE   C1B 5239  11.089   5.388   8.428  0.1263  0.0674 -0.1067
  580PNCE   C2B 5240  10.839   5.293   7.995 -0.2254 -0.0741  0.1336
  580PNCE   C3B 5241  10.671   5.201   7.592 -0.4201  0.0796 -0.2186
  580PNCE   D4B 5242  10.789   5.024   7.152  0.1381  0.0012 -0.1404
  580PNCE   C5B 5243  10.879   5.370   6.839 -0.1898  0.3804 -0.0367
  580PNCE   C6B 5244  10.919   5.725   6.625 -0.2489  0.0294 -0.2141
  581CHOL   ROH 5245   7.434  15.322   8.279 -0.0356  0.0400 -0.0008
  581CHOL    R1 5246   7.552  15.571   8.216 -0.1908  0.1018 -0.0524
  581CHOL    R2 5247   7.821  15.622   8.254 -0.2742  0.3789  0.2303
  581CHOL    R3 5248   7.812  15.691   7.991 -0.0321  0.1605  0.1609
  581CHOL    R4 5249   8.042  15.836   8.097 -0.3182  0.4923  0.3212
  581CHOL    R5 5250   7.875  15.921   7.987 -0.2778  0.2254  0.0519
  581CHOL    C1 5251   8.163  16.025   7.759 -0.1165  0.3533  0.3091
  581CHOL    C2 5252   8.503  16.308   7.722  0.0478 -0.0058 -0.0678
  582CHOL   ROH 5253   7.372  14.569   8.546 -0.0660 -0.0260 -0.0799
  582CHOL    R1 5254   7.432  14.369   8.355 -0.0394 -0.0500 -0.0460
  582CHOL    R2 5255   7.379  14.400   8.085 -0.0129 -0.0893 -0.0538
  582CHOL    R3 5256   7.643  14.341   8.060 -0.0083 -0.0848 -0.0215
  582CHOL    R4 5257   7.543  14.353   7.785 -0.0085 -0.2161 -0.0325
  582CHOL    R5 5258   7.652  14.188   7.876  0.0014 -0.1700  0.0465
  582CHOL    C1 5259   7.887  14.270   7.586 -0.0017 -0.2856  0.0104
  582CHOL    C2 5260   7.894  14.233   7.181 -0.2799 -0.0637 -0.0329
  583CHOL   ROH 5261  12.802  15.647   8.792  0.0685  0.0837  0.2016
  583CHOL    R1 5262  12.693  15.863   8.645  0.0580  0.0518  0.1626
  583CHOL    R2 5263  12.813  16.111   8.636  0.1046  0.0252  0.0287
  583CHOL    R3 5264  12.798  16.073   8.367 -0.0009 -0.0700  0.0473
  583CHOL    R4 5265  12.895  16.349   8.399  0.2481 -0.1394 -0.0892
  583CHOL    R5 5266  12.722  16.284   8.282  0.1589 -0.0368 -0.0160
  583CHOL    C1 5267  12.929  16.451   8.008  0.2326 -0.3246 -0.1406
  583CHOL    C2 5268  12.908  16.720   7.748 -0.0456 -0.4172 -0.0884
  584XCA    COO 5269   9.621   9.130   4.406  0.2557 -0.1260  0.0132
  584XCA     C1 5270   9.773   8.973   4.800  0.2774 -0.1833 -0.2727
  584XCA     C2 5271   9.830   8.838   5.271 -0.1923  0.0640  0.3212
  584XCA     C3 5272   9.858   9.123   5.622 -0.0238 -0.1900 -0.1244
  584XCA     C4 5273   9.650   9.083   5.980 -0.0725  0.1079 -0.4137
  584XCA     C5 5274   9.266   8.988   6.202 -0.1889  0.1843 -0.0261
  584XCA     C6 5275   8.907   9.245   6.296 -0.1678 -0.2111  0.0010
  585PNCE   AM1 5276   8.357  11.284   9.071  0.0435 -0.1090  0.1092
  585PNCE   AM2 5277   8.538  11.185   8.787 -0.3277  0.3629  0.4135
  585PNCE   T1A 5278   8.146  11.493   8.717  0.4538 -0.1519 -0.1035
  585PNCE   C2A 5279   7.873  11.807   8.671 -0.0684 -0.3306 -0.0081
  585PNCE   C3A 5280   7.555  12.126   8.752 -0.0490 -0.0457  0.2014
  585PNCE   C1B 5281   8.524  11.406   8.382  0.2234  0.2194  0.0562
  585PNCE   C2B 5282   8.335  11.611   7.992  0.0232  0.0928  0.1082
  585PNCE   C3B 5283   8.005  11.846   7.711  0.0774 -0.4971 -0.2171
  585PNCE   D4B 5284   7.787  11.959   7.347 -0.2254 -0.1324  0.0577
  585PNCE   C5B 5285   7.405  11.874   7.358  0.0826  0.0199 -0.1127
  585PNCE   C6B 5286   6.985  11.781   7.497 -0.2503 -0.1883 -0.1158
  586PNCE   AM1 5287   3.052   6.550   8.184 -0.0822 -0.1634  0.2282
  586PNCE   AM2 5288   3.294   6.298   8.118  0.0844 -0.0009  0.0274
  586PNCE   T1A 5289   2.990   6.469   7.732  0.0881  0.2865  0.0354
  586PNCE   C2A 5290   2.863   6.412   7.365 -0.3079  0.0160  0.2679
  586PNCE   C3A 5291   2.947   6.564   7.027 -0.3775 -0.1814  0.1658
  586PNCE   C1B 5292   3.586   6.402   7.789 -0.2864  0.0939 -0.2523
  586PNCE   C2B 5293   3.666   6.420   7.369 -0.0199 -0.1936  0.1523
  586PNCE   C3B 5294   3.553   6.347   7.080 -0.1760  0.0020 -0.0966
  586PNCE   D4B 5295   3.360   6.411   6.767  0.1059  0.0537 -0.1698
  586PNCE   C5B 5296   3.551   6.493   6.373 -0.1645  0.1268  0.0278
  586PNCE   C6B 5297   3.778   6.862   6.276 -0.1251  0.3149 -0.0262
  587CHOL   ROH 5298   1.238  13.687   7.867  0.0895 -0.0423 -0.0041
  587CHOL    R1 5299   1.289  13.865   7.653  0.1502 -0.1155 -0.0508
  587CHOL    R2 5300   1.314  13.779   7.391 -0.2092 -0.1571 -0.0769
  587CHOL    R3 5301   1.121  13.964   7.346  0.0094  0.1224  0.1003
  587CHOL    R4 5302   1.329  14.025   7.148 -0.0081 -0.0736  0.0180
  587CHOL    R5 5303   1.241  14.164   7.291  0.2493 -0.0121  0.1228
  587CHOL    C1 5304   1.156  14.342   6.964  0.3142  0.2375  0.2396
  587CHOL    C2 5305   1.230  14.400   6.594 -0.0408 -0.3485 -0.1480
  588PNCE   AM1 5306   3.295  13.967   8.219  0.1931 -0.1149 -0.1986
  588PNCE   AM2 5307   3.039  14.036   8.382 -0.0745 -0.1343  0.0770
  588PNCE   T1A 5308   3.464  13.692   7.781 -0.1209 -0.0550  0.1843
  588PNCE   C2A 5309   3.702  13.790   7.464  0.1602 -0.2642 -0.0690
  588PNCE   C3A 5310   3.670  14.068   6.972  0.0027  0.2724 -0.0349
  588PNCE   C1B 5311   2.595  14.141   8.415 -0.1105 -0.3664  0.0650
  588PNCE   C2B 5312   2.567  14.272   7.948 -0.0865  0.0997 -0.3535
  588PNCE   C3B 5313   2.440  14.244   7.583 -0.0890 -0.1586  0.0776
  588PNCE   D4B 5314   2.678  13.947   7.393  0.2084 -0.0301  0.1528
  588PNCE   C5B 5315   2.396  13.580   7.158 -0.1986 -0.2560  0.0234
  588PNCE   C6B 5316   2.188  13.704   6.750  0.2673  0.2651 -0.0918
  589CHOL   ROH 5317   7.453   0.605   5.242 -0.1462  0.3186 -0.0310
  589CHOL    R1 5318   7.534   0.505   5.494 -0.0977 -0.1626 -0.2293
  589CHOL    R2 5319   7.477   0.636   5.731  0.6038 -0.2030 -0.0368
  589CHOL    R3 5320   7.370   0.396   5.800 -0.0220  0.0326 -0.1104
  589CHOL    R4 5321   7.358   0.556   6.045  0.7590 -0.0684  0.0605
  589CHOL    R5 5322   7.447   0.359   6.023  0.1741 -0.3514 -0.2171
  589CHOL    C1 5323   7.187   0.284   6.293  0.2618  0.2312  0.0480
  589CHOL    C2 5324   7.414   0.026   6.476 -0.1463  0.0624  0.0344
  590XCA    COO 5325   6.158   6.679   4.456 -0.2761  0.1830 -0.3228
  590XCA     C1 5326   6.360   6.746   4.884 -0.0202  0.2823  0.1080
  590XCA     C2 5327   6.549   6.604   5.158  0.1556  0.0587 -0.1135
  590XCA     C3 5328   6.560   6.549   5.645 -0.2853  0.4828 -0.2062
  590XCA     C4 5329   6.547   6.285   6.089 -0.1211  0.0637  0.0220
  590XCA     C5 5330   6.915   6.422   6.428 -0.1115  0.0379 -0.1877
  590XCA     C6 5331   7.213   6.541   6.723  0.1438  0.2068  0.2763
  591CHOL   ROH 5332  15.556   8.901   4.202  0.2040  0.2956 -0.0727
  591CHOL    R1 5333  15.687   8.999   4.433  0.2267  0.3816 -0.1177
  591CHOL    R2 5334  15.733   8.841   4.656 -0.1321  0.5692  0.1173
  591CHOL    R3 5335  15.990   8.921   4.618  0.0101  0.1315  0.1350
  591CHOL    R4 5336  15.984   8.825   4.894 -0.2459  0.4476  0.2265
  591CHOL    R5 5337  16.055   9.019   4.826  0.0800  0.2595  0.0438
  591CHOL    C1 5338  16.371   8.890   4.996 -0.1786 -0.0341  0.3067
  591CHOL    C2 5339  16.775   9.026   5.026  0.0017 -0.0177 -0.1108
  592CHOL   ROH 5340  15.567   5.801   7.416  0.0465 -0.2010 -0.0359
  592CHOL    R1 5341  15.680   5.886   7.171 -0.0016 -0.0890 -0.0195
  592CHOL    R2 5342  15.952   5.917   7.135 -0.0156  0.0294 -0.0275
  592CHOL    R3 5343  15.911   5.751   6.924  0.0387  0.0701 -0.0705
  592CHOL    R4 5344  16.169   5.877   6.869  0.1811 -0.1147  0.1515
  592CHOL    R5 5345  15.997   5.871   6.736  0.2855  0.0182  0.0057
  592CHOL    C1 5346  16.257   5.697   6.516  0.3466 -0.1602  0.2154
  592CHOL    C2 5347  16.573   5.585   6.414 -0.0985  0.0847  0.1078
  593CHOL   ROH 5348  11.229  15.314   6.007 -0.0342  0.1259 -0.0408
  593CHOL    R1 5349  11.137  15.343   6.273 -0.0739  0.0214 -0.0427
  593CHOL    R2 5350  11.076  15.589   6.383 -0.0595 -0.0193  0.0549
  593CHOL    R3 5351  10.838  15.471   6.436 -0.0840 -0.0112 -0.0350
  593CHOL    R4 5352  10.826  15.727   6.578 -0.0660 -0.0730  0.0846
  593CHOL    R5 5353  10.791  15.530   6.664 -0.1064 -0.1101 -0.0123
  593CHOL    C1 5354  10.457  15.696   6.742 -0.0928 -0.0965  0.0175
  593CHOL    C2 5355  10.137  15.565   6.928  0.0115  0.1570 -0.2750
  594CHOL   ROH 5356   8.833  10.183   4.934 -0.1447  0.2444  0.0311
  594CHOL    R1 5357   9.002  10.061   5.126 -0.1038  0.2193 -0.0207
  594CHOL    R2 5358   9.184  10.204   5.277 -0.0634  0.1974 -0.0490
  594CHOL    R3 5359   9.055  10.085   5.485 -0.0180  0.1810 -0.0305
  594CHOL    R4 5360   9.336  10.092   5.566  0.0309  0.0060 -0.1708
  594CHOL    R5 5361   9.208   9.917   5.561 -0.0622  0.0725 -0.1753
  594CHOL    C1 5362   9.305   9.915   5.930  0.1282 -0.1209 -0.2243
  594CHOL    C2 5363   9.389  10.247   6.140  0.0384 -0.0266  0.1342
  595CHOL   ROH 5364   9.085   9.749   6.508 -0.0174  0.0146 -0.0804
  595CHOL    R1 5365   9.322   9.867   6.409  0.0032  0.1327  0.1028
  595CHOL    R2 5366   9.462  10.061   6.549  0.0019 -0.0534  0.3798
  595CHOL    R3 5367   9.670   9.890   6.514 -0.0103 -0.0288  0.1804
  595CHOL    R4 5368   9.785  10.120   6.654  0.0884 -0.0508  0.1161
  595CHOL    R5 5369   9.857  10.032   6.467 -0.0598 -0.0134  0.0473
  595CHOL    C1 5370  10.170   9.994   6.682  0.1273 -0.0261 -0.2247
  595CHOL    C2 5371  10.522  10.033   6.432  0.4087 -0.2956 -0.1505
  596CHOL   ROH 5372   6.044  12.333   8.441  0.0930 -0.1569  0.0512
  596CHOL    R1 5373   6.096  12.448   8.187 -0.0110 -0.1973  0.0109
  596CHOL    R2 5374   6.278  12.652   8.151 -0.3079  0.0672 -0.0350
  596CHOL    R3 5375   6.384  12.482   7.968  0.0027  0.1338  0.0760
  596CHOL    R4 5376   6.532  12.732   7.930 -0.2453  0.2892  0.1136
  596CHOL    R5 5377   6.426  12.619   7.776 -0.0212  0.1330  0.0704
  596CHOL    C1 5378   6.778  12.618   7.629  0.0828  0.4811  0.3044
  596CHOL    C2 5379   7.079  12.633   7.368  0.2352 -0.1270 -0.1557
  597PNCE   AM1 5380   9.200  14.249   5.465 -0.0038 -0.1670  0.1794
  597PNCE   AM2 5381   9.231  14.594   5.251 -0.0470 -0.2439 -0.1516
  597PNCE   T1A 5382   9.213  14.235   5.937 -0.0497  0.1402  0.0635
  597PNCE   C2A 5383   9.120  14.067   6.369 -0.0752  0.0773  0.1371
  597PNCE   C3A 5384   8.844  14.003   6.743  0.2254  0.1550  0.1911
  597PNCE   C1B 5385   9.111  14.741   5.666 -0.3509 -0.0473  0.0541
  597PNCE   C2B 5386   9.271  14.868   5.916 -0.0616  0.1827  0.2090
  597PNCE   C3B 5387   9.240  14.903   6.371 -0.0999  0.2288 -0.0440
  597PNCE   D4B 5388   9.385  14.767   6.799 -0.0001  0.2713  0.0388
  597PNCE   C5B 5389   9.200  14.342   6.880 -0.2239 -0.0255 -0.0044
  597PNCE   C6B 5390   9.236  13.967   7.096  0.3796 -0.3200  0.0649
  598XCA    COO 5391  10.341  11.210   8.737  0.0412  0.2958 -0.3164
  598XCA     C1 5392  10.368  11.219   8.332  0.2664 -0.1592 -0.0374
  598XCA     C2 5393  10.496  11.498   8.061 -0.0641  0.0805  0.2748
  598XCA     C3 5394  10.413  11.514   7.654  0.4401 -0.0161  0.0330
  598XCA     C4 5395  10.536  11.376   7.140 -0.0486 -0.2593 -0.0743
  598XCA     C5 5396  10.593  11.315   6.712  0.1195 -0.1985 -0.0250
  598XCA     C6 5397  10.558  11.256   6.310  0.1044 -0.0258  0.0775
  599CHOL   ROH 5398   7.706   3.880   5.090  0.0139 -0.0735  0.0617
  599CHOL    R1 5399   7.743   4.083   5.283  0.0023 -0.0771  0.0689
  599CHOL    R2 5400   7.535   4.188   5.430 -0.0086 -0.0787  0.0607
  599CHOL    R3 5401   7.692   4.120   5.641 -0.0206 -0.0868  0.0657
  599CHOL    R4 5402   7.458   4.249   5.762  0.1134  0.1719  0.0444
  599CHOL    R5 5403   7.667   4.301   5.795  0.1617  0.0202 -0.0309
  599CHOL    C1 5404   7.562   4.220   6.153  0.1733  0.3103  0.0397
  599CHOL    C2 5405   7.580   4.452   6.427 -0.3390  0.1802 -0.1886
  600PNCE   AM1 5406   1.559  15.574   9.172 -0.0244 -0.2570 -0.0857
  600PNCE   AM2 5407   1.307  15.333   8.997  0.1897  0.1631 -0.4024
  600PNCE   T1A 5408   1.495  15.978   8.892  0.0391  0.2540  0.0767
  600PNCE   C2A 5409   1.421  16.407   8.665 -0.2157 -0.3208  0.0464
  600PNCE   C3A 5410   1.176  16.737   8.468  0.1663  0.2987 -0.1758
  600PNCE   C1B 5411   1.433  15.336   8.523  0.1257  0.3256 -0.0886
  600PNCE   C2B 5412   1.699  15.651   8.218 -0.1506  0.1675  0.0212
  600PNCE   C3B 5413   1.638  16.004   8.008 -0.0878 -0.0967  0.1171
  600PNCE   D4B 5414   1.586  16.101   7.651 -0.2718  0.4497 -0.0344
  600PNCE   C5B 5415   1.236  16.425   7.535 -0.0802 -0.2043  0.1330
  600PNCE   C6B 5416   1.352  16.640   7.140 -0.0281  0.0600  0.0528
  601XCA    COO 5417   4.275   6.648   4.188 -0.0974 -0.3403 -0.1487
  601XCA     C1 5418   4.258   6.297   4.547  0.1494 -0.0590  0.1430
  601XCA     C2 5419   4.347   6.233   5.059 -0.0435 -0.0194  0.1747
  601XCA     C3 5420   4.463   6.235   5.468  0.0818 -0.0384  0.1236
  601XCA     C4 5421   4.307   6.246   5.830  0.1516 -0.0768 -0.4380
  601XCA     C5 5422   3.922   6.165   6.023 -0.0714 -0.0318  0.0703
  601XCA     C6 5423   3.730   5.880   6.197  0.0335  0.2491 -0.1771
  602CHOL   ROH 5424  10.446  14.902   5.473  0.0429  0.2401  0.0789
  602CHOL    R1 5425  10.529  14.878   5.743 -0.1032  0.0787  0.1113
  602CHOL    R2 5426  10.700  15.059   5.862 -0.0306 -0.0876  0.2621
  602CHOL    R3 5427  10.501  15.076   6.047 -0.1077 -0.0160  0.1733
  602CHOL    R4 5428  10.748  15.116   6.200 -0.1699  0.0539  0.2592
  602CHOL    R5 5429  10.591  14.970   6.242 -0.1840  0.0664  0.2552
  602CHOL    C1 5430  10.589  15.165   6.570 -0.3235  0.2035  0.1742
  602CHOL    C2 5431  10.412  15.175   6.908 -0.1195  0.2652 -0.0688
  603PNCE   AM1 5432  10.234  15.733   8.871  0.0321 -0.2177  0.3453
  603PNCE   AM2 5433  10.014  15.890   8.961  0.0034 -0.0625  0.0889
  603PNCE   T1A 5434   9.954  15.618   8.539  0.1030 -0.0417  0.2316
  603PNCE   C2A 5435  10.034  15.691   8.102  0.1649 -0.0000  0.0347
  603PNCE   C3A 5436   9.748  15.801   7.727 -0.2618  0.1710 -0.2496
  603PNCE   C1B 5437   9.785  16.148   8.715  0.0882 -0.0260 -0.1708
  603PNCE   C2B 5438   9.583  16.430   8.466  0.1916 -0.0498  0.1870
  603PNCE   C3B 5439   9.477  16.599   8.037  0.0705  0.0874  0.1050
  603PNCE   D4B 5440   9.141  16.648   7.826  0.1105 -0.0870 -0.0674
  603PNCE   C5B 5441   9.207  16.441   7.432 -0.0062  0.0286  0.0152
  603PNCE   C6B 5442   9.399  15.984   7.378  0.0726  0.2191 -0.3292
  604XCA    COO 5443   2.896   0.377   4.933  0.2078  0.0031 -0.0807
  604XCA     C1 5444   2.868   0.267   5.353  0.3363  0.2360 -0.0366
  604XCA     C2 5445   2.749   0.224   5.780  0.0311 -0.1188 -0.1124
  604XCA     C3 5446   2.869   0.089   6.206  0.2078 -0.2559 -0.0736
  604XCA     C4 5447   3.222  -0.042   6.357  0.0859 -0.0836  0.4371
  604XCA     C5 5448   3.503  -0.237   6.256  0.1958  0.1136 -0.0388
  604XCA     C6 5449   3.744  -0.310   5.969 -0.2154  0.0880  0.0248
  605PNCE   AM1 5450  12.887   4.465   8.788  0.1562 -0.0889 -0.1975
  605PNCE   AM2 5451  13.145   4.498   8.508  0.1774 -0.0774  0.0393
  605PNCE   T1A 5452  12.861   4.890   8.426  0.1280  0.1287  0.1147
  605PNCE   C2A 5453  12.700   4.887   7.970 -0.0649 -0.2279 -0.0043
  605PNCE   C3A 5454  12.970   4.927   7.602 -0.0357  0.0885 -0.1869
  605PNCE   C1B 5455  13.157   4.113   8.205  0.2532  0.2155  0.2898
  605PNCE   C2B 5456  13.097   4.007   7.724  0.0032  0.1326  0.0859
  605PNCE   C3B 5457  12.807   3.974   7.315 -0.3504 -0.0585  0.0134
  605PNCE   D4B 5458  12.933   3.547   7.053 -0.0749  0.0039  0.2339
  605PNCE   C5B 5459  12.614   3.193   7.027 -0.0914 -0.0907 -0.0935
  605PNCE   C6B 5460  12.293   2.992   6.879 -0.0036  0.1387 -0.1612
  606CHOL   ROH 5461   6.284  13.426   5.066  0.1950 -0.1833  0.0461
  606CHOL    R1 5462   6.212  13.396   5.338  0.2102 -0.2949  0.0386
  606CHOL    R2 5463   5.962  13.463   5.434  0.3493  0.0844  0.1573
  606CHOL    R3 5464   5.966  13.208   5.528 -0.0958 -0.0161 -0.0720
  606CHOL    R4 5465   5.792  13.352   5.714  0.3309  0.1850  0.1861
  606CHOL    R5 5466   5.965  13.231   5.766  0.1340 -0.2196 -0.0473
  606CHOL    C1 5467   5.696  13.048   5.964 -0.0978  0.1492 -0.0125
  606CHOL    C2 5468   5.354  12.966   6.130 -0.2088  0.2053 -0.0696
  607XCA    COO 5469  14.082  14.533   5.238 -0.1773 -0.0181 -0.0523
  607XCA     C1 5470  13.858  14.836   5.519 -0.1302 -0.2080  0.0869
  607XCA     C2 5471  13.598  15.133   5.676  0.3085  0.2711 -0.2867
  607XCA     C3 5472  13.438  15.236   6.031 -0.1693  0.2639 -0.4617
  607XCA     C4 5473  13.537  15.258   6.496  0.1583 -0.0830 -0.2193
  607XCA     C5 5474  13.658  15.096   6.954 -0.0973 -0.0999 -0.1380
  607XCA     C6 5475  13.504  15.266   7.370 -0.0578  0.0909 -0.0288
  608XCA    COO 5476  13.892  13.107   5.474  0.0905  0.2338  0.0368
  608XCA     C1 5477  14.192  13.180   5.759 -0.2741  0.0940 -0.0494
  608XCA     C2 5478  14.152  13.303   6.214  0.0637 -0.4070 -0.0115
  608XCA     C3 5479  14.166  13.414   6.603  0.0109  0.0766  0.3473
  608XCA     C4 5480  14.072  13.481   7.011  0.0197 -0.0680 -0.0603
  608XCA     C5 5481  14.218  13.730   7.262 -0.0249 -0.1546  0.1551
  608XCA     C6 5482  14.454  14.125   7.143  0.1512 -0.0870 -0.3989
  609XCA    COO 5483  14.345   2.274   8.876  0.1515  0.1772  0.1828
  609XCA     C1 5484  14.238   2.153   8.378  0.1687 -0.3192  0.4087
  609XCA     C2 5485  13.948   2.165   8.063  0.2783 -0.1357 -0.3977
  609XCA     C3 5486  13.684   2.351   7.690 -0.0459 -0.2323  0.0221
  609XCA     C4 5487  13.735   2.389   7.269  0.1738 -0.0194  0.3500
  609XCA     C5 5488  13.705   2.629   6.805  0.0122  0.3509 -0.3485
  609XCA     C6 5489  13.720   3.115   6.775  0.1755  0.1304  0.0170
  610CHOL   ROH 5490  10.252   5.319   4.652  0.0803 -0.0793 -0.0851
  610CHOL    R1 5491  10.439   5.288   4.862  0.0304 -0.0271 -0.0327
  610CHOL    R2 5492  10.693   5.396   4.852  0.0435 -0.0541 -0.0119
  610CHOL    R3 5493  10.620   5.507   5.089 -0.0002  0.0320 -0.0655
  610CHOL    R4 5494  10.913   5.524   5.086  0.0062 -0.0758  0.0350
  610CHOL    R5 5495  10.789   5.436   5.243 -0.0814  0.0088  0.0130
  610CHOL    C1 5496  10.972   5.703   5.445 -0.0565 -0.0077  0.0121
  610CHOL    C2 5497  11.128   5.747   5.774 -0.2463 -0.2867  0.0881
  611CHOL   ROH 5498  12.352   7.774   7.614  0.0521 -0.0105  0.0400
  611CHOL    R1 5499  12.345   7.858   7.344  0.0914 -0.0375  0.0297
  611CHOL    R2 5500  12.258   8.109   7.268  0.1073 -0.0401 -0.0095
  611CHOL    R3 5501  12.499   8.120   7.144  0.1257 -0.0612  0.0266
  611CHOL    R4 5502  12.345   8.341   7.028  0.1060 -0.1567 -0.1227
  611CHOL    R5 5503  12.447   8.182   6.919  0.1552 -0.1957 -0.0161
  611CHOL    C1 5504  12.623   8.487   6.771  0.1225 -0.2445 -0.1548
  611CHOL    C2 5505  12.698   8.763   6.691  0.2935 -0.1201  0.1164
  612CHOL   ROH 5506  12.505   5.973   8.165 -0.1944  0.1078 -0.0794
  612CHOL    R1 5507  12.408   5.740   8.037 -0.1155  0.1528 -0.2229
  612CHOL    R2 5508  12.389   5.718   7.762  0.2624  0.1699 -0.2557
  612CHOL    R3 5509  12.538   5.495   7.802  0.1138  0.1045 -0.0491
  612CHOL    R4 5510  12.346   5.419   7.594  0.2036  0.1093 -0.1340
  612CHOL    R5 5511  12.382   5.314   7.781  0.0259  0.1809 -0.0578
  612CHOL    C1 5512  12.462   5.035   7.534  0.0298  0.0126  0.1307
  612CHOL    C2 5513  12.137   4.902   7.296  0.0807 -0.2952 -0.2196
  613CHOL   ROH 5514   1.100  10.232   4.140 -0.0561  0.0316  0.1545
  613CHOL    R1 5515   1.101   9.953   4.184 -0.0837  0.0119  0.0354
  613CHOL    R2 5516   1.329   9.814   4.258 -0.0976 -0.0422 -0.0179
  613CHOL    R3 5517   1.171   9.729   4.463 -0.1108 -0.1131 -0.0577
  613CHOL    R4 5518   1.316   9.489   4.375 -0.0761 -0.0739 -0.1040
  613CHOL    R5 5519   1.100   9.511   4.396 -0.0798 -0.1029 -0.1221
  613CHOL    C1 5520   1.161   9.220   4.635 -0.0758 -0.1590 -0.1914
  613CHOL    C2 5521   1.175   8.948   4.516 -0.2820  0.0404 -0.1996
  614CHOL   ROH 5522  15.091   7.003   7.890 -0.1203  0.0966 -0.1005
  614CHOL    R1 5523  15.250   6.829   7.734 -0.1289  0.0432 -0.0503
  614CHOL    R2 5524  15.142   6.650   7.553 -0.1327  0.0684 -0.0737
  614CHOL    R3 5525  15.311   6.772   7.379 -0.0483  0.0118 -0.0316
  614CHOL    R4 5526  15.182   6.561   7.222 -0.1430  0.1070 -0.0851
  614CHOL    R5 5527  15.397   6.594   7.244 -0.1272 -0.0096 -0.0545
  614CHOL    C1 5528  15.365   6.624   6.865 -0.0699  0.0765 -0.0522
  614CHOL    C2 5529  15.521   6.616   6.492 -0.2597 -0.2604 -0.0150
  615PNCE   AM1 5530   2.239  14.877   8.684  0.0749 -0.2990 -0.0014
  615PNCE   AM2 5531   2.311  14.606   8.518 -0.1526  0.1423  0.1335
  615PNCE   T1A 5532   2.427  15.068   8.313  0.1445 -0.1032  0.3057
  615PNCE   C2A 5533   2.359  15.164   7.873 -0.1371 -0.0069 -0.1295
  615PNCE   C3A 5534   2.785  15.291   7.501 -0.3797 -0.2087  0.1343
  615PNCE   C1B 5535   2.172  14.644   8.170  0.2333 -0.2500 -0.0837
  615PNCE   C2B 5536   2.267  14.686   7.697  0.0724 -0.3219  0.1526
  615PNCE   C3B 5537   2.121  15.077   7.474 -0.0311  0.1083 -0.0438
  615PNCE   D4B 5538   2.002  15.477   7.374  0.1984  0.3593 -0.0809
  615PNCE   C5B 5539   1.800  15.594   7.050  0.2492  0.0705 -0.0569
  615PNCE   C6B 5540   1.466  15.567   6.748 -0.1779 -0.2294 -0.3113
  616CHOL   ROH 5541   8.305  10.879   5.260  0.1365  0.3490 -0.0486
  616CHOL    R1 5542   8.277  10.804   5.532  0.1037  0.0755 -0.1241
  616CHOL    R2 5543   8.461  10.643   5.661  0.2198  0.1425 -0.1959
  616CHOL    R3 5544   8.467  10.848   5.839 -0.0609 -0.0044 -0.0107
  616CHOL    R4 5545   8.536  10.611   5.997  0.3113 -0.0448 -0.2334
  616CHOL    R5 5546   8.378  10.755   6.041  0.1037 -0.3162 -0.0799
  616CHOL    C1 5547   8.585  10.785   6.360  0.1010 -0.2917 -0.0814
  616CHOL    C2 5548   8.752  10.864   6.736 -0.1520 -0.1896  0.1442
  617CHOL   ROH 5549  13.923   0.610   4.732  0.0652 -0.0657 -0.1435
  617CHOL    R1 5550  14.060   0.559   4.975 -0.2067 -0.2123 -0.0185
  617CHOL    R2 5551  14.157   0.761   5.137  0.1724 -0.3136 -0.1157
  617CHOL    R3 5552  14.009   0.636   5.327 -0.2558  0.1726 -0.1039
  617CHOL    R4 5553  14.190   0.811   5.477  0.0454 -0.0959 -0.1328
  617CHOL    R5 5554  14.163   0.597   5.506 -0.4594 -0.0274  0.0364
  617CHOL    C1 5555  14.070   0.722   5.854 -0.4305  0.4873 -0.1317
  617CHOL    C2 5556  14.286   0.486   6.117  0.1817 -0.0523 -0.1293
  618CHOL   ROH 5557  10.966   8.365   4.914 -0.0702 -0.0083 -0.1141
  618CHOL    R1 5558  10.708   8.455   4.987 -0.0771 -0.0263 -0.1202
  618CHOL    R2 5559  10.534   8.302   5.137 -0.0313  0.0009 -0.0483
  618CHOL    R3 5560  10.529   8.523   5.296 -0.0587  0.0586 -0.1265
  618CHOL    R4 5561  10.264   8.400   5.330 -0.0397  0.0185 -0.0670
  618CHOL    R5 5562  10.305   8.607   5.274 -0.0787  0.0097 -0.1455
  618CHOL    C1 5563  10.102   8.663   5.592 -0.0703  0.0827 -0.1515
  618CHOL    C2 5564   9.908   8.674   5.898 -0.2141 -0.2006  0.4227
  619CHOL   ROH 5565   7.576   8.732   6.232 -0.0666 -0.1554 -0.0979
  619CHOL    R1 5566   7.611   8.880   6.470 -0.1146 -0.1033 -0.1243
  619CHOL    R2 5567   7.399   8.966   6.625 -0.1386 -0.1768 -0.1250
  619CHOL    R3 5568   7.533   8.836   6.823 -0.0656 -0.0829 -0.1095
  619CHOL    R4 5569   7.314   8.974   6.960 -0.2235 -0.2844 -0.1422
  619CHOL    R5 5570   7.526   8.986   7.009 -0.2394 -0.1033 -0.0938
  619CHOL    C1 5571   7.390   8.856   7.341 -0.2044 -0.2590 -0.1377
  619CHOL    C2 5572   7.156   8.675   7.663 -0.2746 -0.0882  0.1266
  620PNCE   AM1 5573   3.455   4.725   8.192  0.0259 -0.2593 -0.2130
  620PNCE   AM2 5574   3.409   4.455   8.358 -0.0293  0.1600 -0.0911
  620PNCE   T1A 5575   3.538   4.993   7.726 -0.2439 -0.0735  0.3510
  620PNCE   C2A 5576   3.494   4.884   7.272  0.0326 -0.0161  0.0619
  620PNCE   C3A 5577   3.546   4.806   6.828 -0.0273  0.1180  0.2960
  620PNCE   C1B 5578   3.370   4.317   7.905  0.1614  0.1573 -0.1777
  620PNCE   C2B 5579   3.173   4.477   7.513  0.2624 -0.1056 -0.0723
  620PNCE   C3B 5580   2.792   4.502   7.301 -0.3068 -0.2138  0.1795
  620PNCE   D4B 5581   2.713   4.594   6.989  0.0599  0.2276  0.0221
  620PNCE   C5B 5582   2.798   4.294   6.710 -0.2378 -0.0256 -0.1601
  620PNCE   C6B 5583   2.950   4.185   6.321  0.0755 -0.0856 -0.0479
  621XCA    COO 5584   9.264   5.049   8.968 -0.0478  0.0373 -0.1269
  621XCA     C1 5585   9.297   4.745   8.589 -0.1161 -0.0146  0.1087
  621XCA     C2 5586   9.534   4.425   8.472 -0.0230 -0.0018 -0.1244
  621XCA     C3 5587   9.501   4.035   8.249 -0.0600  0.3204 -0.1000
  621XCA     C4 5588   9.657   3.770   7.911  0.0525  0.2170 -0.1988
  621XCA     C5 5589   9.838   3.632   7.590  0.0154  0.0601  0.0496
  621XCA     C6 5590  10.020   3.335   7.430 -0.2338  0.0973 -0.1344
  622PNCE   AM1 5591   7.356   5.926   8.343 -0.0609 -0.0854  0.2601
  622PNCE   AM2 5592   7.224   5.624   8.513 -0.2929  0.0595  0.2381
  622PNCE   T1A 5593   7.271   5.782   7.956 -0.0499 -0.1300  0.0428
  622PNCE   C2A 5594   7.149   5.517   7.515  0.1147 -0.0646  0.0328
  622PNCE   C3A 5595   7.252   5.123   7.346 -0.0675 -0.0862  0.3474
  622PNCE   C1B 5596   6.854   5.531   8.109  0.2654  0.0250 -0.0582
  622PNCE   C2B 5597   6.810   5.739   7.758 -0.1544  0.0452  0.0678
  622PNCE   C3B 5598   6.806   5.808   7.267 -0.3630  0.0356  0.0783
  622PNCE   D4B 5599   6.733   5.806   6.930  0.0574  0.0722 -0.0614
  622PNCE   C5B 5600   7.112   5.983   6.605  0.1615 -0.0057  0.0621
  622PNCE   C6B 5601   7.417   6.252   6.216 -0.0394  0.1440 -0.2786
  623CHOL   ROH 5602   3.514   8.856   7.057 -0.0007 -0.1118 -0.0746
  623CHOL    R1 5603   3.663   9.081   7.144  0.0360 -0.1400 -0.0662
  623CHOL    R2 5604   3.563   9.266   7.323  0.0378 -0.0894 -0.1214
  623CHOL    R3 5605   3.789   9.208   7.461 -0.0145 -0.1278 -0.0500
  623CHOL    R4 5606   3.681   9.446   7.593 -0.0218 -0.1082 -0.0820
  623CHOL    R5 5607   3.883   9.422   7.515  0.0018 -0.1401 -0.0196
  623CHOL    C1 5608   3.963   9.496   7.880 -0.1056 -0.1551  0.0078
  623CHOL    C2 5609   4.046   9.709   8.233  0.1809 -0.3687 -0.2854
  624XCA    COO 5610  11.274  10.066   5.281  0.2367 -0.1450 -0.1222
  624XCA     C1 5611  11.243  10.022   5.711 -0.1322  0.0296  0.0026
  624XCA     C2 5612  11.249   9.930   6.120 -0.0636  0.2779 -0.3082
  624XCA     C3 5613  11.058   9.909   6.484 -0.0060  0.0523 -0.0952
  624XCA     C4 5614  10.997  10.004   6.874 -0.1580 -0.3024 -0.3553
  624XCA     C5 5615  11.097  10.241   7.241 -0.1865 -0.0249 -0.0714
  624XCA     C6 5616  11.478  10.351   7.522 -0.0747  0.0634 -0.2968
  625XCA    COO 5617   7.808   2.641   5.598  0.2540 -0.1230 -0.1055
  625XCA     C1 5618   7.833   2.714   6.041  0.2287 -0.2526  0.0453
  625XCA     C2 5619   7.867   3.025   6.362  0.0696  0.0060 -0.3103
  625XCA     C3 5620   8.312   3.100   6.599 -0.1493 -0.2003 -0.0768
  625XCA     C4 5621   8.497   3.361   6.367  0.0108 -0.4358  0.0877
  625XCA     C5 5622   8.685   3.720   6.178  0.2843 -0.0785  0.0428
  625XCA     C6 5623   8.744   3.770   5.762 -0.2806 -0.0435  0.0229
  626CHOL   ROH 5624   4.022   4.267   5.886 -0.0081 -0.1300 -0.3426
  626CHOL    R1 5625   3.798   4.439   5.862 -0.0294 -0.1549 -0.3222
  626CHOL    R2 5626   3.804   4.702   5.946 -0.0978 -0.1962 -0.1892
  626CHOL    R3 5627   3.724   4.751   5.691 -0.0314 -0.0812 -0.1888
  626CHOL    R4 5628   3.612   4.972   5.847 -0.1102 -0.1749 -0.1082
  626CHOL    R5 5629   3.502   4.840   5.713 -0.0522 -0.1262 -0.2071
  626CHOL    C1 5630   3.425   5.175   5.550 -0.0552 -0.0546 -0.0607
  626CHOL    C2 5631   3.367   5.524   5.651 -0.2221 -0.4549 -0.2336
  627CHOL   ROH 5632   5.879  14.243   8.608 -0.0591  0.0981  0.0655
  627CHOL    R1 5633   5.805  14.173   8.344 -0.0768  0.0857  0.0737
  627CHOL    R2 5634   5.931  14.279   8.121 -0.1515  0.1427  0.0592
  627CHOL    R3 5635   5.967  14.018   8.057 -0.0674  0.1592  0.0385
  627CHOL    R4 5636   6.062  14.165   7.823 -0.2807  0.2074 -0.0230
  627CHOL    R5 5637   5.914  14.006   7.824 -0.2063  0.1360  0.0694
  627CHOL    C1 5638   6.172  13.854   7.588 -0.2771  0.2607 -0.0903
  627CHOL    C2 5639   6.335  13.924   7.205 -0.1560  0.1805 -0.2765
  628CHOL   ROH 5640  15.088  11.219   6.663  0.2613  0.0713 -0.1879
  628CHOL    R1 5641  14.979  11.480   6.639  0.2432  0.0670 -0.1477
  628CHOL    R2 5642  14.839  11.563   6.415 -0.0101 -0.0020 -0.0158
  628CHOL    R3 5643  14.648  11.625   6.598  0.1979  0.0666  0.1845
  628CHOL    R4 5644  14.570  11.771   6.356 -0.1034 -0.0589  0.1970
  628CHOL    R5 5645  14.597  11.855   6.555  0.1257  0.0426  0.1288
  628CHOL    C1 5646  14.233  11.951   6.493  0.0375 -0.0276  0.5091
  628CHOL    C2 5647  14.274  12.291   6.603  0.1012  0.1281  0.0753
  629XCA    COO 5648  12.321   5.667   8.492 -0.1317 -0.1107  0.3099
  629XCA     C1 5649  11.950   5.335   8.436  0.1580 -0.2394  0.1568
  629XCA     C2 5650  11.633   5.182   8.387  0.3764 -0.0064 -0.1920
  629XCA     C3 5651  11.403   5.279   8.039 -0.1260 -0.1952 -0.2613
  629XCA     C4 5652  11.298   5.124   7.728 -0.1668 -0.0382 -0.0149
  629XCA     C5 5653  11.200   5.156   7.396  0.0661  0.4389 -0.0133
  629XCA     C6 5654  11.385   5.156   7.103 -0.2175 -0.0679  0.1093
  630PNCE   AM1 5655   8.654   8.767   8.166 -0.1323 -0.0541  0.4024
  630PNCE   AM2 5656   8.653   8.524   8.139  0.1918  0.2480  0.3232
  630PNCE   T1A 5657   8.336   8.980   7.989  0.1059  0.0683 -0.0640
  630PNCE   C2A 5658   8.186   9.272   7.613 -0.0646  0.4621 -0.0500
  630PNCE   C3A 5659   8.022   9.327   7.171 -0.1440  0.2083 -0.0128
  630PNCE   C1B 5660   8.372   8.504   7.753 -0.1687  0.0538 -0.1284
  630PNCE   C2B 5661   8.185   8.459   7.352  0.2655  0.2576  0.2330
  630PNCE   C3B 5662   8.081   8.179   7.018 -0.0246  0.0733  0.0460
  630PNCE   D4B 5663   7.826   7.942   6.794 -0.1026 -0.0260  0.0238
  630PNCE   C5B 5664   7.636   8.288   6.542  0.1810  0.0202  0.2568
  630PNCE   C6B 5665   7.300   8.511   6.517 -0.0405  0.1415  0.0681
  631PNCE   AM1 5666   6.320  10.949   8.525 -0.4030 -0.0211  0.1003
  631PNCE   AM2 5667   6.623  10.870   8.468  0.3324 -0.0939  0.0946
  631PNCE   T1A 5668   6.269  11.127   8.146  0.1028 -0.1306 -0.2831
  631PNCE   C2A 5669   6.119  11.222   7.755  0.0515  0.2042  0.1579
  631PNCE   C3A 5670   6.065  11.424   7.434  0.3647  0.0258 -0.0857
  631PNCE   C1B 5671   6.897  10.945   8.054 -0.0617 -0.0547  0.1423
  631PNCE   C2B 5672   7.188  10.747   7.754 -0.1425 -0.1492 -0.1277
  631PNCE   C3B 5673   7.180  10.806   7.328  0.0666  0.0973 -0.0752
  631PNCE   D4B 5674   7.208  10.956   6.894  0.2889  0.1291 -0.2677
  631PNCE   C5B 5675   7.147  10.714   6.560 -0.0585  0.3985  0.4139
  631PNCE   C6B 5676   6.885  10.383   6.376 -0.0207  0.0057 -0.0323
  632CHOL   ROH 5677   7.029   4.105   6.302 -0.0297 -0.0191 -0.1230
  632CHOL    R1 5678   7.142   4.109   6.042 -0.1581 -0.0622 -0.1791
  632CHOL    R2 5679   7.349   3.943   5.968 -0.1372 -0.0086 -0.2239
  632CHOL    R3 5680   7.180   3.874   5.767 -0.2071 -0.1365 -0.1244
  632CHOL    R4 5681   7.432   3.737   5.703 -0.1418  0.0271 -0.2545
  632CHOL    R5 5682   7.319   3.870   5.572 -0.3085 -0.0543 -0.2036
  632CHOL    C1 5683   7.321   3.553   5.360 -0.2102 -0.0720 -0.1789
  632CHOL    C2 5684   7.512   3.383   4.970  0.0854 -0.0192  0.0712
  633CHOL   ROH 5685   7.837   6.476   6.289  0.0828 -0.0787  0.1212
  633CHOL    R1 5686   7.861   6.726   6.158  0.1526 -0.1752 -0.0535
  633CHOL    R2 5687   7.836   6.968   6.292 -0.0865 -0.0727 -0.2742
  633CHOL    R3 5688   8.079   7.016   6.181  0.0304 -0.0848 -0.0276
  633CHOL    R4 5689   8.006   7.268   6.311 -0.2120  0.0025 -0.3268
  633CHOL    R5 5690   8.066   7.242   6.103  0.0434 -0.1548 -0.2365
  633CHOL    C1 5691   8.333   7.489   6.218 -0.1755  0.0349 -0.1259
  633CHOL    C2 5692   8.355   7.802   5.987  0.0674 -0.2141 -0.0351
  634CHOL   ROH 5693   4.424   9.607   8.431  0.1160  0.0540  0.0434
  634CHOL    R1 5694   4.495   9.702   8.174 -0.1109  0.1583  0.0169
  634CHOL    R2 5695   4.558   9.532   7.965  0.0683  0.2454 -0.0028
  634CHOL    R3 5696   4.364   9.672   7.836 -0.1869 -0.0389  0.0628
  634CHOL    R4 5697   4.455   9.474   7.640  0.3553  0.3679 -0.1195
  634CHOL    R5 5698   4.442   9.689   7.610 -0.1090  0.3850  0.1148
  634CHOL    C1 5699   4.212   9.570   7.330  0.2829  0.1724 -0.1258
  634CHOL    C2 5700   4.219   9.321   7.060 -0.1819  0.2094  0.4449
  635PNCE   AM1 5701   7.332  10.084   8.956 -0.0629  0.2002 -0.1279
  635PNCE   AM2 5702   7.453   9.803   8.787 -0.3354  0.2491 -0.0812
  635PNCE   T1A 5703   7.167  10.125   8.536 -0.0391 -0.0632 -0.2084
  635PNCE   C2A 5704   7.099   9.808   8.179  0.2082  0.3396  0.0725
  635PNCE   C3A 5705   6.688   9.581   7.982  0.0503 -0.1009 -0.0362
  635PNCE   C1B 5706   7.132   9.490   8.649  0.1540 -0.1612  0.0482
  635PNCE   C2B 5707   6.817   9.185   8.384 -0.0255 -0.1726  0.3108
  635PNCE   C3B 5708   6.728   9.083   7.851 -0.0046  0.0760 -0.3087
  635PNCE   D4B 5709   6.669   8.813   7.555  0.1446 -0.0045 -0.1022
  635PNCE   C5B 5710   6.857   8.909   7.136  0.1996  0.3321 -0.1980
  635PNCE   C6B 5711   6.901   8.891   6.640  0.0897  0.0314 -0.2042
  636XCA    COO 5712   6.419   7.141   8.378 -0.2441 -0.1335  0.2122
  636XCA     C1 5713   6.564   7.266   7.967 -0.1215  0.1062  0.1326
  636XCA     C2 5714   6.979   7.165   7.742  0.0601  0.1849 -0.2941
  636XCA     C3 5715   7.139   7.219   7.280  0.3642 -0.2571  0.0324
  636XCA     C4 5716   7.189   7.075   6.825 -0.0757  0.2101 -0.0737
  636XCA     C5 5717   7.443   6.984   6.541 -0.0217  0.0973  0.0836
  636XCA     C6 5718   7.360   6.761   6.256  0.2046  0.1102  0.0521
  637PNCE   AM1 5719   9.663   4.831   4.794 -0.2767  0.3716 -0.0012
  637PNCE   AM2 5720   9.880   4.915   4.613 -0.0238 -0.4361  0.3247
  637PNCE   T1A 5721   9.580   4.906   5.263 -0.1199  0.2171  0.0276
  637PNCE   C2A 5722   9.381   4.969   5.613 -0.1279 -0.0692 -0.0177
  637PNCE   C3A 5723   9.293   5.132   6.044  0.0103 -0.2782 -0.0815
  637PNCE   C1B 5724  10.039   5.073   5.070 -0.0255 -0.0410  0.1978
  637PNCE   C2B 5725  10.387   5.149   5.351  0.0491 -0.0539  0.1078
  637PNCE   C3B 5726  10.550   5.544   5.670 -0.0184  0.1973 -0.0452
  637PNCE   D4B 5727  10.706   5.718   6.076 -0.2723  0.1437 -0.0274
  637PNCE   C5B 5728  10.892   5.386   6.205 -0.1138  0.1998  0.0061
  637PNCE   C6B 5729  11.269   5.327   6.105  0.3751 -0.0856  0.3058
  638CHOL   ROH 5730   4.841  12.856   8.522 -0.2668 -0.0201  0.0483
  638CHOL    R1 5731   4.866  13.071   8.340 -0.1212 -0.0610  0.0171
  638CHOL    R2 5732   5.021  13.055   8.111 -0.0252 -0.1523  0.0801
  638CHOL    R3 5733   4.790  13.129   7.989  0.0461 -0.1074 -0.0258
  638CHOL    R4 5734   5.000  13.195   7.796  0.1255 -0.2432  0.0296
  638CHOL    R5 5735   4.847  13.330   7.871  0.1515 -0.1684 -0.0700
  638CHOL    C1 5736   4.772  13.347   7.498  0.2802 -0.2539 -0.0991
  638CHOL    C2 5737   4.792  13.493   7.141  0.0432  0.1192  0.2342
  639XCA    COO 5738   9.298   6.053   8.772  0.1978 -0.2557 -0.1156
  639XCA     C1 5739   9.215   6.250   8.459 -0.0787 -0.0140  0.1324
  639XCA     C2 5740   9.220   6.142   8.006 -0.0748 -0.4319 -0.1033
  639XCA     C3 5741   8.920   5.977   7.756  0.2678  0.0612  0.1136
  639XCA     C4 5742   8.577   6.024   7.339 -0.2802 -0.1773 -0.1189
  639XCA     C5 5743   8.545   6.258   6.954  0.1498 -0.1108  0.1772
  639XCA     C6 5744   8.578   6.212   6.507  0.1636  0.2810  0.1753
  640XCA    COO 5745  14.659   7.193   7.652  0.1251 -0.0630  0.0594
  640XCA     C1 5746  14.904   7.025   7.277 -0.0872  0.2517 -0.3687
  640XCA     C2 5747  14.947   6.792   6.873 -0.3509 -0.1075  0.0225
  640XCA     C3 5748  14.958   6.592   6.447  0.0263 -0.0524  0.2251
  640XCA     C4 5749  15.135   6.344   6.086  0.1820 -0.4416 -0.0653
  640XCA     C5 5750  15.372   6.270   5.610  0.0060  0.0701 -0.3710
  640XCA     C6 5751  15.860   6.290   5.452 -0.0866 -0.0015  0.2046
  641XCA    COO 5752   2.986   7.839   8.751 -0.0385  0.3554 -0.3092
  641XCA     C1 5753   3.247   8.002   8.346  0.0298  0.1913  0.1483
  641XCA     C2 5754   3.372   7.892   7.993 -0.2642  0.2915 -0.1078
  641XCA     C3 5755   3.667   7.957   7.576 -0.0428 -0.3189  0.1238
  641XCA     C4 5756   4.028   7.922   7.284 -0.0039  0.0329  0.1561
  641XCA     C5 5757   4.348   7.861   6.977 -0.0101  0.0688 -0.0310
  641XCA     C6 5758   4.784   7.802   6.819  0.1115  0.1042 -0.1811
  642PNCE   AM1 5759  13.099   4.751   4.803 -0.0801  0.1671  0.2545
  642PNCE   AM2 5760  12.952   4.909   4.524  0.1846 -0.1846  0.1435
  642PNCE   T1A 5761  13.173   5.040   5.067 -0.0794 -0.1634 -0.3804
  642PNCE   C2A 5762  13.180   5.327   5.453  0.0168  0.2069 -0.1867
  642PNCE   C3A 5763  13.499   5.621   5.665 -0.0719  0.0236 -0.1833
  642PNCE   C1B 5764  12.611   4.869   4.902  0.2840  0.1407 -0.1422
  642PNCE   C2B 5765  12.222   4.974   5.216 -0.2983  0.1391 -0.0388
  642PNCE   C3B 5766  12.350   5.028   5.608  0.2845  0.3097 -0.0236
  642PNCE   D4B 5767  12.130   4.996   6.065  0.1429  0.4381 -0.2398
  642PNCE   C5B 5768  12.081   4.535   6.275  0.0798  0.0738  0.2903
  642PNCE   C6B 5769  11.898   4.206   6.262 -0.2862 -0.1976 -0.0545
  643CHOL   ROH 5770   7.848  14.652   8.554  0.0012  0.2297 -0.1160
  643CHOL    R1 5771   7.930  14.536   8.309 -0.0082  0.1390 -0.0762
  643CHOL    R2 5772   8.195  14.518   8.234 -0.0063  0.0045 -0.0261
  643CHOL    R3 5773   8.135  14.255   8.204 -0.1156  0.0231  0.0182
  643CHOL    R4 5774   8.270  14.329   7.954  0.1519 -0.1300  0.1042
  643CHOL    R5 5775   8.075  14.233   7.974  0.0794 -0.0243 -0.0339
  643CHOL    C1 5776   8.256  13.971   7.764  0.1414 -0.1909  0.2216
  643CHOL    C2 5777   8.211  13.872   7.340 -0.0295 -0.2313  0.4061
  644PNCE   AM1 5778  14.650  14.299   4.497  0.1838  0.0633  0.0068
  644PNCE   AM2 5779  14.748  14.479   4.806  0.2234 -0.0892  0.0258
  644PNCE   T1A 5780  14.734  13.943   4.771 -0.2067  0.1617  0.0579
  644PNCE   C2A 5781  14.746  13.660   5.176 -0.0656  0.3562 -0.0187
  644PNCE   C3A 5782  14.566  13.710   5.575 -0.2055  0.2793 -0.1156
  644PNCE   C1B 5783  14.609  14.563   5.373 -0.1361  0.2643 -0.0036
  644PNCE   C2B 5784  14.842  14.546   5.747 -0.1916  0.1025  0.0047
  644PNCE   C3B 5785  14.945  14.249   6.064  0.1565 -0.0632  0.1886
  644PNCE   D4B 5786  15.209  14.151   6.315  0.0853  0.0205  0.1681
  644PNCE   C5B 5787  15.623  14.222   6.237  0.0876 -0.0847  0.2826
  644PNCE   C6B 5788  15.909  14.532   6.048 -0.3820 -0.3157 -0.1140
  645CHOL   ROH 5789   4.696  14.882   5.351 -0.0069 -0.0138 -0.0960
  645CHOL    R1 5790   4.840  14.821   5.587  0.0825  0.2347 -0.0836
  645CHOL    R2 5791   4.944  15.017   5.752 -0.1829  0.4182 -0.1261
  645CHOL    R3 5792   4.802  14.885   5.943 -0.0022  0.2614 -0.0976
  645CHOL    R4 5793   5.017  15.020   6.090  0.0953  0.1895 -0.1804
  645CHOL    R5 5794   4.969  14.808   6.098  0.1374  0.1776 -0.2883
  645CHOL    C1 5795   4.927  14.898   6.466  0.4269 -0.0908 -0.1854
  645CHOL    C2 5796   4.931  14.837   6.869 -0.0371  0.1908  0.1778
  646PNCE   AM1 5797  12.627   3.725   4.717  0.4244  0.0208  0.2462
  646PNCE   AM2 5798  12.858   3.458   4.891 -0.0988 -0.1701  0.0061
  646PNCE   T1A 5799  12.556   3.900   5.147  0.0801 -0.0473  0.0049
  646PNCE   C2A 5800  12.473   4.174   5.494  0.1779 -0.0307 -0.2239
  646PNCE   C3A 5801  12.529   4.580   5.439 -0.3015 -0.0112  0.0069
  646PNCE   C1B 5802  12.724   3.397   5.309 -0.1745 -0.3461  0.0339
  646PNCE   C2B 5803  12.705   3.694   5.741  0.0134  0.0069 -0.5230
  646PNCE   C3B 5804  12.776   3.723   6.212  0.3296 -0.0585 -0.2112
  646PNCE   D4B 5805  13.045   3.636   6.509 -0.1962  0.0366  0.4432
  646PNCE   C5B 5806  13.060   3.215   6.664  0.1153  0.0577 -0.1231
  646PNCE   C6B 5807  13.260   2.829   6.851  0.1439 -0.0245 -0.2953
  647XCA    COO 5808   3.591  13.444   8.295 -0.0994 -0.2859  0.0367
  647XCA     C1 5809   3.298  13.301   7.973  0.1095  0.2514  0.2109
  647XCA     C2 5810   2.975  13.042   7.708  0.0531  0.1149  0.1948
  647XCA     C3 5811   2.831  12.976   7.328 -0.2984 -0.1884 -0.0145
  647XCA     C4 5812   2.594  13.076   6.927  0.1067 -0.2676  0.0188
  647XCA     C5 5813   2.689  12.979   6.515 -0.1872  0.1301 -0.0165
  647XCA     C6 5814   2.512  12.917   6.150 -0.0021  0.0987 -0.1606
  648CHOL   ROH 5815  15.013   1.353   6.790 -0.0881  0.2079 -0.0695
  648CHOL    R1 5816  15.036   1.342   6.508  0.0229  0.0539 -0.0553
  648CHOL    R2 5817  15.167   1.136   6.377 -0.0048 -0.0648  0.1045
  648CHOL    R3 5818  14.931   1.116   6.243  0.0424 -0.0408  0.0165
  648CHOL    R4 5819  15.130   1.016   6.055  0.0618 -0.4162  0.2241
  648CHOL    R5 5820  14.985   1.172   6.017  0.1962 -0.3446 -0.0288
  648CHOL    C1 5821  14.888   0.927   5.742  0.1447 -0.5983  0.2111
  648CHOL    C2 5822  15.106   0.770   5.413 -0.2297  0.0113  0.3512
  649PNCE   AM1 5823   7.850  10.545   4.976  0.1682  0.0932 -0.0585
  649PNCE   AM2 5824   7.837  10.905   5.068 -0.1581  0.0651 -0.1362
  649PNCE   T1A 5825   7.898  10.158   4.809  0.3726  0.1425  0.2707
  649PNCE   C2A 5826   8.126   9.855   4.661 -0.1534  0.3140  0.0505
  649PNCE   C3A 5827   8.515  10.118   4.624 -0.0816  0.0243  0.0998
  649PNCE   C1B 5828   7.831  10.782   5.467 -0.1862  0.1075 -0.0788
  649PNCE   C2B 5829   8.031  10.495   5.896 -0.3195 -0.0489 -0.4276
  649PNCE   C3B 5830   8.129  10.422   6.363 -0.1809  0.1851 -0.0470
  649PNCE   D4B 5831   8.109  10.544   6.840  0.2878  0.1714  0.0167
  649PNCE   C5B 5832   7.866  10.510   7.185 -0.3031 -0.1977 -0.0454
  649PNCE   C6B 5833   7.518  10.447   7.456  0.1785 -0.1270 -0.2249
  650CHOL   ROH 5834  12.998   2.155   4.745  0.3258  0.0354 -0.1692
  650CHOL    R1 5835  13.036   2.299   4.986  0.1471  0.0331 -0.1384
  650CHOL    R2 5836  13.210   2.512   5.006  0.1721  0.0015  0.0058
  650CHOL    R3 5837  12.990   2.642   5.100  0.1142  0.0442 -0.1856
  650CHOL    R4 5838  13.214   2.756   5.251  0.0066  0.0185 -0.0071
  650CHOL    R5 5839  13.032   2.669   5.334 -0.0770  0.0546 -0.1514
  650CHOL    C1 5840  13.010   3.020   5.481 -0.1442  0.0684 -0.1945
  650CHOL    C2 5841  13.322   2.976   5.769  0.1766  0.2033 -0.4182
  651PNCE   AM1 5842   7.962   6.711   4.143 -0.0589 -0.3176  0.1428
  651PNCE   AM2 5843   7.706   6.402   4.056  0.2077 -0.0428  0.0012
  651PNCE   T1A 5844   8.043   6.826   4.490  0.1251  0.1651  0.1178
  651PNCE   C2A 5845   8.279   6.810   4.841 -0.0194 -0.1477  0.3202
  651PNCE   C3A 5846   8.166   6.941   5.177  0.0939  0.0352 -0.1806
  651PNCE   C1B 5847   7.843   6.332   4.491  0.2603  0.1963  0.4717
  651PNCE   C2B 5848   7.843   6.521   4.857  0.0672  0.1520 -0.0243
  651PNCE   C3B 5849   7.795   6.450   5.220 -0.1843  0.1675 -0.0059
  651PNCE   D4B 5850   7.849   6.648   5.664 -0.1086 -0.3289 -0.1210
  651PNCE   C5B 5851   8.090   6.902   5.745  0.0850 -0.1263 -0.3869
  651PNCE   C6B 5852   8.521   7.073   6.009 -0.3171 -0.0640 -0.0911
  652PNCE   AM1 5853  11.893   6.822   4.081  0.1007 -0.0875 -0.0868
  652PNCE   AM2 5854  11.570   6.820   4.044 -0.3112  0.0574  0.0497
  652PNCE   T1A 5855  12.187   6.932   4.447 -0.0971  0.1947 -0.1466
  652PNCE   C2A 5856  12.438   6.875   4.957  0.1516  0.1753  0.2959
  652PNCE   C3A 5857  12.746   6.873   5.273 -0.1689  0.0374 -0.0960
  652PNCE   C1B 5858  11.684   6.616   4.470  0.4083  0.0046 -0.1774
  652PNCE   C2B 5859  11.934   6.726   4.887  0.3352 -0.5837  0.0733
  652PNCE   C3B 5860  12.141   6.670   5.335 -0.1204 -0.1020 -0.1711
  652PNCE   D4B 5861  12.378   6.683   5.692 -0.1778 -0.0139 -0.1119
  652PNCE   C5B 5862  12.832   6.502   5.734 -0.0725  0.2068 -0.0816
  652PNCE   C6B 5863  13.224   6.458   5.927 -0.2932  0.0232 -0.1852
  653PNCE   AM1 5864   0.285   8.657   4.188  0.1637  0.0098 -0.1961
  653PNCE   AM2 5865   0.083   8.833   3.943 -0.0943  0.1060  0.1370
  653PNCE   T1A 5866   0.087   8.404   4.635  0.0555 -0.1574  0.2077
  653PNCE   C2A 5867  -0.224   8.263   4.989  0.3091  0.0604  0.0878
  653PNCE   C3A 5868  -0.507   7.940   4.893 -0.1662 -0.1041 -0.2517
  653PNCE   C1B 5869   0.313   9.113   4.271  0.1097 -0.3601  0.0624
  653PNCE   C2B 5870   0.662   9.305   4.637 -0.0395  0.2453  0.1878
  653PNCE   C3B 5871   0.387   9.349   5.022 -0.0468 -0.0870  0.1033
  653PNCE   D4B 5872   0.096   9.572   5.143  0.0312 -0.0375 -0.1330
  653PNCE   C5B 5873   0.049  10.022   5.133  0.0423 -0.3810  0.0808
  653PNCE   C6B 5874   0.056  10.594   5.105  0.1152 -0.1094 -0.0110
  654PNCE   AM1 5875  10.367   8.492   4.112 -0.1339  0.0347  0.1425
  654PNCE   AM2 5876  10.157   8.474   4.351  0.1132  0.0633 -0.1335
  654PNCE   T1A 5877  10.618   8.771   4.410 -0.1159 -0.2375 -0.0501
  654PNCE   C2A 5878  10.837   8.862   4.697 -0.2137  0.2707  0.2309
  654PNCE   C3A 5879  11.212   8.760   4.949 -0.4256 -0.2839  0.3728
  654PNCE   C1B 5880   9.733   8.572   4.485 -0.0221 -0.1848  0.1554
  654PNCE   C2B 5881   9.345   8.752   4.561  0.0021  0.0223 -0.2687
  654PNCE   C3B 5882   8.980   8.782   4.763 -0.0275 -0.0827 -0.0934
  654PNCE   D4B 5883   8.546   8.863   4.919  0.0193  0.0368 -0.0883
  654PNCE   C5B 5884   8.258   8.727   5.142 -0.1094  0.1275 -0.0984
  654PNCE   C6B 5885   8.141   8.775   5.452  0.1374 -0.3410 -0.1592
  655CHOL   ROH 5886   2.983  10.189   6.872  0.0832  0.0236 -0.1018
  655CHOL    R1 5887   2.952  10.422   6.715  0.0929  0.0402 -0.0793
  655CHOL    R2 5888   2.978  10.420   6.440 -0.0121  0.0449 -0.0897
  655CHOL    R3 5889   2.731  10.534   6.448  0.0243  0.1187  0.0094
  655CHOL    R4 5890   2.841  10.613   6.188 -0.0875  0.0163 -0.0709
  655CHOL    R5 5891   2.760  10.746   6.340  0.0306  0.0816 -0.0630
  655CHOL    C1 5892   2.530  10.831   6.048 -0.0972  0.0688  0.0333
  655CHOL    C2 5893   2.482  10.798   5.660 -0.0639 -0.2136  0.0660
  656PNCE   AM1 5894   2.335   0.865   4.921 -0.0485 -0.3008  0.1864
  656PNCE   AM2 5895   2.675   0.830   4.871 -0.1040  0.1808  0.1399
  656PNCE   T1A 5896   2.189   0.980   5.280 -0.0094  0.1757  0.1358
  656PNCE   C2A 5897   2.385   1.164   5.657 -0.0587 -0.4137  0.2037
  656PNCE   C3A 5898   2.385   1.365   6.045  0.2479 -0.2558 -0.2248
  656PNCE   C1B 5899   2.694   0.753   5.289  0.4304 -0.2623 -0.2280
  656PNCE   C2B 5900   2.493   0.645   5.763 -0.2535  0.1228  0.0304
  656PNCE   C3B 5901   2.524   0.463   6.207 -0.2072  0.1233 -0.2949
  656PNCE   D4B 5902   2.277   0.615   6.540  0.1209 -0.0663 -0.2532
  656PNCE   C5B 5903   2.255   0.550   6.914  0.1874  0.0249 -0.1041
  656PNCE   C6B 5904   2.644   0.304   7.137  0.1538  0.2768 -0.1835
  657CHOL   ROH 5905   6.644   5.214   4.512  0.1507 -0.0676  0.0114
  657CHOL    R1 5906   6.453   5.306   4.699  0.1732  0.0022  0.0051
  657CHOL    R2 5907   6.306   5.135   4.859 -0.0605  0.0325 -0.1431
  657CHOL    R3 5908   6.406   5.288   5.060  0.0426 -0.1902 -0.0249
  657CHOL    R4 5909   6.155   5.180   5.166 -0.1818  0.1852 -0.2265
  657CHOL    R5 5910   6.212   5.390   5.158  0.1514  0.0854 -0.1181
  657CHOL    C1 5911   6.160   5.350   5.534 -0.1557  0.0651 -0.1640
  657CHOL    C2 5912   5.807   5.212   5.776  0.1424 -0.0247  0.1109
  658CHOL   ROH 5913   2.071  14.339   5.146  0.0232 -0.2669 -0.1067
  658CHOL    R1 5914   2.020  14.343   5.425  0.0017 -0.0507 -0.1124
  658CHOL    R2 5915   2.099  14.140   5.594 -0.2425 -0.0485  0.0104
  658CHOL    R3 5916   2.218  14.343   5.730 -0.0234 -0.1011 -0.0963
  658CHOL    R4 5917   2.108  14.168   5.938  0.0634 -0.0340  0.0042
  658CHOL    R5 5918   2.072  14.382   5.917  0.1534 -0.0175  0.0258
  658CHOL    C1 5919   2.224  14.376   6.267  0.4471 -0.0751 -0.0994
  658CHOL    C2 5920   2.250  13.974   6.406  0.2757 -0.0591 -0.2238
  659PNCE   AM1 5921  12.990   4.031   4.883  0.1287  0.1323 -0.0619
  659PNCE   AM2 5922  13.156   3.872   5.023 -0.3378 -0.2136  0.2922
  659PNCE   T1A 5923  12.889   4.328   5.148  0.2113 -0.0678  0.0518
  659PNCE   C2A 5924  13.042   4.682   5.364 -0.4128 -0.1231 -0.3244
  659PNCE   C3A 5925  13.008   4.990   5.753 -0.0889 -0.0983 -0.2686
  659PNCE   C1B 5926  12.989   3.894   5.384  0.2084 -0.1946 -0.1752
  659PNCE   C2B 5927  12.893   4.209   5.728  0.1541  0.3376 -0.3753
  659PNCE   C3B 5928  12.746   4.539   5.881 -0.0595 -0.3443 -0.0516
  659PNCE   D4B 5929  12.577   4.841   6.170 -0.0646 -0.1109  0.0353
  659PNCE   C5B 5930  12.427   4.921   6.605  0.2352  0.0738  0.0788
  659PNCE   C6B 5931  12.424   5.225   7.038 -0.1734 -0.2406 -0.2905
  660CHOL   ROH 5932   9.694   7.603   6.779 -0.0432 -0.0384  0.2582
  660CHOL    R1 5933   9.944   7.736   6.762 -0.0484 -0.0483  0.0578
  660CHOL    R2 5934  10.091   7.805   6.986  0.0481  0.1202 -0.0464
  660CHOL    R3 5935  10.288   7.666   6.858 -0.0122  0.0204 -0.0282
  660CHOL    R4 5936  10.426   7.810   7.073  0.0625  0.0302 -0.1000
  660CHOL    R5 5937  10.476   7.813   6.861  0.0360 -0.0494 -0.0992
  660CHOL    C1 5938  10.805   7.683   7.004  0.0144 -0.1159 -0.1141
  660CHOL    C2 5939  11.022   7.831   7.237 -0.2327  0.3028 -0.1760
  661PNCE   AM1 5940   1.867  12.428   8.367 -0.2437 -0.1858 -0.0788
  661PNCE   AM2 5941   2.255  12.410   8.124  0.0208  0.0789  0.0628
  661PNCE   T1A 5942   1.751  12.401   7.952  0.2925  0.0590 -0.1024
  661PNCE   C2A 5943   1.605  12.161   7.692 -0.0662  0.0696 -0.0452
  661PNCE   C3A 5944   1.289  11.844   7.379 -0.0747  0.0902 -0.0398
  661PNCE   C1B 5945   2.218  12.547   7.642  0.2143 -0.0507 -0.2667
  661PNCE   C2B 5946   1.848  12.507   7.449 -0.2506  0.1146 -0.1180
  661PNCE   C3B 5947   1.685  12.551   6.936  0.1331 -0.1040  0.2747
  661PNCE   D4B 5948   1.666  12.643   6.517  0.0527  0.1188  0.0628
  661PNCE   C5B 5949   1.251  12.578   6.463 -0.2664 -0.3816 -0.3178
  661PNCE   C6B 5950   0.862  12.530   6.280  0.1913  0.0414  0.1724
  662PNCE   AM1 5951   6.198  15.756   8.417  0.1550 -0.3570  0.1608
  662PNCE   AM2 5952   6.066  15.462   8.618 -0.1535 -0.0238 -0.1202
  662PNCE   T1A 5953   6.464  15.871   8.149  0.1505 -0.0722 -0.1475
  662PNCE   C2A 5954   6.766  16.002   7.906  0.0453 -0.2566  0.1339
  662PNCE   C3A 5955   6.988  16.392   7.806  0.0872 -0.0166 -0.1860
  662PNCE   C1B 5956   6.261  15.196   8.287 -0.0529  0.1924 -0.0080
  662PNCE   C2B 5957   6.494  14.960   8.196  0.0175  0.3431  0.1420
  662PNCE   C3B 5958   6.830  14.736   8.174 -0.4143  0.1699 -0.2327
  662PNCE   D4B 5959   7.210  14.825   8.192  0.0383  0.2806  0.0507
  662PNCE   C5B 5960   7.563  14.810   8.007  0.1063  0.1909 -0.2403
  662PNCE   C6B 5961   7.929  14.652   7.869  0.0337  0.3346 -0.2347
  663CHOL   ROH 5962   2.718   8.356   4.650 -0.0250  0.1977 -0.0779
  663CHOL    R1 5963   2.757   8.259   4.913 -0.1227  0.1084 -0.0963
  663CHOL    R2 5964   2.984   8.316   5.060 -0.1042 -0.0787 -0.0557
  663CHOL    R3 5965   2.804   8.403   5.244 -0.0672 -0.0025 -0.0544
  663CHOL    R4 5966   3.058   8.387   5.391 -0.0650 -0.0953 -0.0603
  663CHOL    R5 5967   2.869   8.294   5.447 -0.1017 -0.0222 -0.0517
  663CHOL    C1 5968   2.931   8.510   5.755 -0.0076 -0.0335 -0.0618
  663CHOL    C2 5969   3.009   8.315   5.992  0.2540  0.0890  0.2514
  664XCA    COO 5970   9.998   3.859   8.773 -0.0638  0.0535 -0.2343
  664XCA     C1 5971   9.960   3.793   8.408  0.0104  0.0485 -0.0527
  664XCA     C2 5972  10.100   3.936   8.002 -0.1356 -0.2389  0.0373
  664XCA     C3 5973  10.325   3.890   7.736  0.1542  0.1614 -0.3407
  664XCA     C4 5974  10.263   3.763   7.329 -0.1452  0.0158  0.0248
  664XCA     C5 5975  10.087   4.004   7.020  0.0487 -0.0629 -0.2329
  664XCA     C6 5976  10.367   4.127   6.721 -0.2730 -0.1497  0.1156
  665XCA    COO 5977  13.551  14.699   8.467 -0.1493 -0.3152  0.1294
  665XCA     C1 5978  13.543  14.451   8.074 -0.2526 -0.1052 -0.1546
  665XCA     C2 5979  13.538  14.296   7.680  0.0607 -0.0868 -0.0120
  665XCA     C3 5980  13.903  14.175   7.411  0.2350 -0.1527 -0.4519
  665XCA     C4 5981  14.207  14.341   7.530 -0.1067 -0.4237 -0.1349
  665XCA     C5 5982  14.710  14.173   7.570  0.1140  0.0814  0.0059
  665XCA     C6 5983  14.945  14.045   7.225  0.0326 -0.2141  0.1019
  666XCA    COO 5984   8.540   3.312   8.846  0.0455  0.0771  0.0330
  666XCA     C1 5985   8.687   2.937   8.617 -0.0072  0.0177 -0.0090
  666XCA     C2 5986   9.000   2.839   8.462  0.0013  0.1017  0.4345
  666XCA     C3 5987   9.127   2.595   8.103 -0.1179 -0.1232  0.1494
  666XCA     C4 5988   9.093   2.815   7.707  0.0452 -0.2316 -0.3103
  666XCA     C5 5989   8.932   2.877   7.318  0.0755 -0.2115 -0.0758
  666XCA     C6 5990   9.112   2.917   6.859 -0.1332  0.0464  0.0685
  667CHOL   ROH 5991   0.426   6.489   5.512 -0.0286 -0.1238 -0.0666
  667CHOL    R1 5992   0.340   6.587   5.763 -0.2226 -0.0915 -0.1441
  667CHOL    R2 5993   0.122   6.482   5.897 -0.0619 -0.3746 -0.0944
  667CHOL    R3 5994   0.301   6.454   6.100 -0.0265  0.0742 -0.0540
  667CHOL    R4 5995   0.049   6.528   6.231 -0.2020 -0.3746 -0.1245
  667CHOL    R5 5996   0.242   6.627   6.255 -0.3994  0.0291 -0.1370
  667CHOL    C1 5997   0.175   6.528   6.617 -0.2503  0.0466 -0.1041
  667CHOL    C2 5998  -0.060   6.723   6.959 -0.0671 -0.0222  0.0954
  668PNCE   AM1 5999  13.151  10.798   4.320 -0.1496  0.0782  0.2509
  668PNCE   AM2 6000  13.093  10.607   4.100 -0.0883 -0.0164 -0.2032
  668PNCE   T1A 6001  12.994  10.685   4.670 -0.3695  0.0716  0.0210
  668PNCE   C2A 6002  13.086  10.364   4.937 -0.0330 -0.2077 -0.0271
  668PNCE   C3A 6003  12.908  10.600   5.266 -0.0009  0.4422  0.2026
  668PNCE   C1B 6004  13.504  10.522   4.034  0.0256 -0.4205  0.2116
  668PNCE   C2B 6005  13.740  10.216   4.260  0.1005 -0.3448 -0.1834
  668PNCE   C3B 6006  13.722   9.868   4.452  0.1020  0.1686 -0.0808
  668PNCE   D4B 6007  14.142   9.729   4.549  0.0182  0.0222 -0.1781
  668PNCE   C5B 6008  14.203   9.214   4.661 -0.0360  0.0018  0.1985
  668PNCE   C6B 6009  14.510   9.083   4.430  0.0491 -0.2157 -0.1275
  669CHOL   ROH 6010  10.528   8.510   7.752 -0.0335 -0.0130  0.0136
  669CHOL    R1 6011  10.612   8.512   7.482 -0.1829  0.0630 -0.0327
  669CHOL    R2 6012  10.779   8.319   7.377 -0.0688  0.2139 -0.1210
  669CHOL    R3 6013  10.581   8.292   7.194 -0.1447  0.0354 -0.0172
  669CHOL    R4 6014  10.823   8.206   7.053 -0.2026 -0.1477 -0.0199
  669CHOL    R5 6015  10.681   8.358   6.987 -0.2125 -0.1997 -0.1322
  669CHOL    C1 6016  10.662   8.116   6.692 -0.3518 -0.5258  0.1363
  669CHOL    C2 6017  10.661   8.233   6.276  0.0790  0.2062  0.2025
  670XCA    COO 6018   5.200   8.493   4.229 -0.1489  0.0265 -0.1447
  670XCA     C1 6019   4.889   8.650   4.381 -0.0905  0.2623 -0.0363
  670XCA     C2 6020   4.758   8.698   4.818  0.4689  0.0804 -0.0519
  670XCA     C3 6021   5.024   8.874   5.039 -0.0122 -0.4354 -0.0679
  670XCA     C4 6022   4.974   9.086   5.428 -0.0354  0.1568 -0.0286
  670XCA     C5 6023   4.934   9.277   5.830 -0.2069 -0.0337  0.0053
  670XCA     C6 6024   5.142   9.509   6.189  0.0846  0.0720  0.0889
  671PNCE   AM1 6025  12.267   8.822   4.226 -0.1955  0.4765  0.1075
  671PNCE   AM2 6026  12.126   8.764   4.551  0.1118 -0.3939 -0.0566
  671PNCE   T1A 6027  12.656   8.977   4.219 -0.0248  0.0336 -0.0837
  671PNCE   C2A 6028  13.060   8.964   4.154 -0.0088  0.3890 -0.2719
  671PNCE   C3A 6029  13.271   9.047   4.486 -0.1948  0.0563 -0.3915
  671PNCE   C1B 6030  12.147   9.008   4.998  0.0040  0.1325 -0.1676
  671PNCE   C2B 6031  11.944   9.273   5.258 -0.0147  0.0713  0.1211
  671PNCE   C3B 6032  12.016   9.585   5.678  0.1569 -0.0024  0.0441
  671PNCE   D4B 6033  12.117   9.678   6.085  0.0880  0.0470 -0.2044
  671PNCE   C5B 6034  11.699   9.830   6.343 -0.1727  0.3614  0.0803
  671PNCE   C6B 6035  11.517  10.004   6.731  0.1037 -0.0866  0.3033
  672PNCE   AM1 6036   1.115  14.739   4.968  0.0465  0.1831 -0.0359
  672PNCE   AM2 6037   1.168  15.022   4.857 -0.2919  0.1456  0.1831
  672PNCE   T1A 6038   1.157  14.583   5.492 -0.5842 -0.0311  0.1144
  672PNCE   C2A 6039   1.222  14.641   5.896 -0.1355  0.2656  0.1749
  672PNCE   C3A 6040   1.142  14.849   6.295  0.0006  0.0959 -0.0050
  672PNCE   C1B 6041   1.211  15.181   5.305  0.1599 -0.0359 -0.2972
  672PNCE   C2B 6042   1.159  15.560   5.538  0.3082 -0.2322  0.3871
  672PNCE   C3B 6043   0.905  15.628   5.983 -0.2043 -0.0810  0.0243
  672PNCE   D4B 6044   1.082  15.794   6.389  0.2677 -0.2505  0.3262
  672PNCE   C5B 6045   1.008  15.830   6.840 -0.1292  0.4351  0.0373
  672PNCE   C6B 6046   0.812  15.768   7.234 -0.0693  0.2364  0.2883
  673CHOL   ROH 6047   9.095   7.626   4.135 -0.3111 -0.0309 -0.1207
  673CHOL    R1 6048   8.997   7.479   4.356 -0.2951  0.1879  0.0346
  673CHOL    R2 6049   9.164   7.339   4.527 -0.3182 -0.0484 -0.1367
  673CHOL    R3 6050   9.039   7.486   4.717  0.1566  0.2139 -0.0106
  673CHOL    R4 6051   9.187   7.282   4.867 -0.0119 -0.0244 -0.1501
  673CHOL    R5 6052   8.974   7.326   4.883  0.0711  0.3502  0.0945
  673CHOL    C1 6053   9.082   7.387   5.244  0.6121  0.2357 -0.0395
  673CHOL    C2 6054   8.905   7.227   5.464  0.0279 -0.0799 -0.1585
  674CHOL   ROH 6055   5.723   7.754   6.817  0.0993  0.0605  0.0215
  674CHOL    R1 6056   5.906   7.900   6.976  0.0539  0.0551  0.0795
  674CHOL    R2 6057   5.901   7.894   7.252  0.1081 -0.1230  0.0793
  674CHOL    R3 6058   6.162   7.822   7.223  0.1399  0.0285 -0.0178
  674CHOL    R4 6059   6.153   7.967   7.478  0.1371 -0.0469  0.0223
  674CHOL    R5 6060   6.285   8.008   7.309  0.0639  0.0716 -0.0049
  674CHOL    C1 6061   6.544   7.942   7.581  0.1838  0.1396 -0.1020
  674CHOL    C2 6062   6.875   7.775   7.825  0.2625 -0.1903 -0.3284
  675CHOL   ROH 6063   3.394   7.483   6.941  0.2597 -0.1104  0.0685
  675CHOL    R1 6064   3.412   7.746   6.837 -0.0378 -0.1214 -0.0138
  675CHOL    R2 6065   3.637   7.903   6.867 -0.2414  0.1617 -0.0108
  675CHOL    R3 6066   3.621   7.922   6.597 -0.1957  0.0630 -0.0224
  675CHOL    R4 6067   3.813   8.128   6.673 -0.2154  0.1123 -0.0468
  675CHOL    R5 6068   3.635   8.156   6.552 -0.2043  0.0575 -0.0941
  675CHOL    C1 6069   3.901   8.277   6.306 -0.1573 -0.0090 -0.0787
  675CHOL    C2 6070   3.904   8.698   6.285  0.2270 -0.0097 -0.3498
  676PNCE   AM1 6071  15.736   9.770   4.055  0.0068 -0.1644 -0.0045
  676PNCE   AM2 6072  15.469   9.980   4.014 -0.3534 -0.0078  0.1613
  676PNCE   T1A 6073  16.133   9.644   4.115  0.2341  0.5678 -0.1962
  676PNCE   C2A 6074  16.561   9.488   3.989  0.1644  0.3997  0.1032
  676PNCE   C3A 6075  16.777   9.127   3.733 -0.2668 -0.0069 -0.0539
  676PNCE   C1B 6076  15.376   9.829   4.490 -0.3067 -0.3720  0.0755
  676PNCE   C2B 6077  15.535   9.507   4.776  0.3146 -0.0109  0.0299
  676PNCE   C3B 6078  15.674   9.225   4.984 -0.2122  0.1573  0.2443
  676PNCE   D4B 6079  15.813   9.113   5.310  0.0866 -0.2901 -0.0663
  676PNCE   C5B 6080  15.883   9.003   5.697  0.0421  0.0472 -0.0233
  676PNCE   C6B 6081  15.833   9.143   6.179  0.0474  0.0051 -0.0890
  677PNCE   AM1 6082   4.706  13.098   4.862  0.1127  0.1605  0.1174
  677PNCE   AM2 6083   5.009  12.986   4.535 -0.1408  0.0205  0.2817
  677PNCE   T1A 6084   4.682  12.981   5.234 -0.4340 -0.4185  0.0130
  677PNCE   C2A 6085   4.673  12.955   5.655 -0.1048  0.1165 -0.1911
  677PNCE   C3A 6086   4.920  12.794   5.853 -0.0001 -0.1504  0.0065
  677PNCE   C1B 6087   5.231  13.003   4.904  0.3286  0.3916 -0.1022
  677PNCE   C2B 6088   5.195  12.998   5.391  0.0666  0.3455  0.2671
  677PNCE   C3B 6089   5.335  13.268   5.749 -0.0029  0.2665  0.0223
  677PNCE   D4B 6090   5.518  13.529   6.041 -0.0429  0.2262  0.0619
  677PNCE   C5B 6091   5.897  13.262   6.291  0.0380 -0.1128  0.2044
  677PNCE   C6B 6092   6.164  12.998   6.129 -0.2524 -0.0622 -0.3920
  678XCA    COO 6093   6.643  11.220   8.785 -0.1070  0.2745 -0.2074
  678XCA     C1 6094   6.821  11.319   8.378  0.2373  0.1978  0.1091
  678XCA     C2 6095   6.862  11.804   8.142 -0.4997  0.1642  0.2444
  678XCA     C3 6096   7.036  12.117   7.914 -0.0552 -0.4069 -0.1667
  678XCA     C4 6097   7.371  12.314   7.592  0.2665 -0.0642  0.0158
  678XCA     C5 6098   7.722  12.565   7.479  0.0727 -0.1395 -0.0592
  678XCA     C6 6099   8.100  12.763   7.260  0.1307 -0.0506 -0.1910
  679CHOL   ROH 6100  13.983   1.521   4.830 -0.2337 -0.2537 -0.1009
  679CHOL    R1 6101  13.927   1.326   5.027 -0.1826 -0.1048  0.0638
  679CHOL    R2 6102  14.108   1.257   5.224 -0.1157  0.0171  0.0483
  679CHOL    R3 6103  13.901   1.317   5.390 -0.0465  0.1635  0.0823
  679CHOL    R4 6104  14.127   1.263   5.570 -0.0065  0.1970  0.0400
  679CHOL    R5 6105  13.930   1.170   5.577 -0.0298  0.2559  0.1524
  679CHOL    C1 6106  13.944   1.323   5.926  0.1220  0.4391  0.0671
  679CHOL    C2 6107  14.017   1.311   6.324 -0.2167  0.0160 -0.0496
  680XCA    COO 6108   2.077  14.668   4.757  0.0434 -0.0508 -0.1698
  680XCA     C1 6109   2.191  14.831   5.248 -0.0783 -0.2034 -0.0320
  680XCA     C2 6110   2.217  14.807   5.646  0.2406 -0.1003  0.1675
  680XCA     C3 6111   2.571  14.683   5.888 -0.0103 -0.3093  0.1121
  680XCA     C4 6112   2.700  14.693   6.207  0.0678  0.0367  0.1323
  680XCA     C5 6113   2.665  14.358   6.430 -0.0379 -0.0186 -0.1750
  680XCA     C6 6114   2.818  13.915   6.365  0.4363  0.1225  0.1848
  681CHOL   ROH 6115   9.546   6.684   6.593 -0.0445  0.1492 -0.0479
  681CHOL    R1 6116   9.731   6.621   6.388 -0.0698 -0.1388  0.0131
  681CHOL    R2 6117   9.996   6.696   6.398 -0.0684 -0.1231 -0.1237
  681CHOL    R3 6118  10.039   6.430   6.359 -0.0740 -0.1837  0.2401
  681CHOL    R4 6119  10.298   6.558   6.300 -0.2427 -0.1705 -0.6207
  681CHOL    R5 6120  10.187   6.422   6.170 -0.5236 -0.4528 -0.1225
  681CHOL    C1 6121  10.514   6.229   6.206 -0.3494 -0.2550 -0.5685
  681CHOL    C2 6122  10.930   6.193   6.249  0.4436  0.3237  0.2631
  682PNCE   AM1 6123  15.834  11.859   4.676 -0.0886  0.1908 -0.0386
  682PNCE   AM2 6124  16.013  11.770   4.764  0.0456  0.1542 -0.0801
  682PNCE   T1A 6125  15.788  12.155   4.947 -0.0686  0.0104 -0.4030
  682PNCE   C2A 6126  15.849  12.500   5.238 -0.0341 -0.2227 -0.2595
  682PNCE   C3A 6127  15.987  12.885   5.507  0.0130 -0.0562 -0.1069
  682PNCE   C1B 6128  16.231  11.959   5.084 -0.1408  0.0893 -0.0696
  682PNCE   C2B 6129  16.305  12.234   5.305  0.1513  0.1205  0.1843
  682PNCE   C3B 6130  16.673  12.270   5.614 -0.0054  0.0077 -0.0094
  682PNCE   D4B 6131  16.828  12.154   6.053  0.1560  0.0558 -0.0230
  682PNCE   C5B 6132  17.119  12.035   6.240  0.1605 -0.2772 -0.0715
  682PNCE   C6B 6133  17.248  11.806   6.580 -0.1024 -0.1102  0.0239
  683CHOL   ROH 6134  12.951   6.011   7.816  0.1802 -0.0682  0.0225
  683CHOL    R1 6135  12.893   5.755   7.710  0.1306 -0.0011 -0.1097
  683CHOL    R2 6136  12.745   5.720   7.479  0.1843  0.1519 -0.1570
  683CHOL    R3 6137  12.962   5.576   7.400  0.1543  0.1124 -0.1745
  683CHOL    R4 6138  12.732   5.428   7.294  0.0757 -0.0426  0.1476
  683CHOL    R5 6139  12.892   5.348   7.419  0.1945  0.1109  0.1184
  683CHOL    C1 6140  12.928   5.123   7.113 -0.0157 -0.1929  0.3085
  683CHOL    C2 6141  12.826   4.866   6.909 -0.1780  0.0035 -0.2085
  684PNCE   AM1 6142  14.406  10.035   3.795  0.1363  0.3163  0.1238
  684PNCE   AM2 6143  14.347   9.741   3.798 -0.1130 -0.1303 -0.0016
  684PNCE   T1A 6144  14.462  10.066   4.254 -0.3614 -0.0314 -0.0640
  684PNCE   C2A 6145  14.691  10.189   4.638 -0.1922 -0.1752 -0.2460
  684PNCE   C3A 6146  15.089  10.313   4.992 -0.0758  0.0808  0.1700
  684PNCE   C1B 6147  14.369   9.530   4.182 -0.1582  0.1623  0.0993
  684PNCE   C2B 6148  14.620   9.630   4.543 -0.3437  0.1180  0.0805
  684PNCE   C3B 6149  14.938   9.774   4.753  0.0575  0.3366  0.1525
  684PNCE   D4B 6150  15.104   9.462   5.136  0.2012 -0.1556 -0.2602
  684PNCE   C5B 6151  15.313   9.212   5.320  0.0881 -0.1173  0.0142
  684PNCE   C6B 6152  15.330   8.796   5.560 -0.2122  0.1124  0.2560
  685CHOL   ROH 6153   7.725   1.479   5.572  0.0123  0.1243 -0.0925
  685CHOL    R1 6154   7.667   1.539   5.842 -0.1090 -0.1951 -0.0435
  685CHOL    R2 6155   7.638   1.344   6.036  0.2756 -0.4080 -0.1952
  685CHOL    R3 6156   7.829   1.488   6.164 -0.0042 -0.1260 -0.0834
  685CHOL    R4 6157   7.685   1.348   6.378  0.1980 -0.5073 -0.1822
  685CHOL    R5 6158   7.721   1.562   6.365 -0.1852 -0.4239 -0.0614
  685CHOL    C1 6159   7.891   1.486   6.698 -0.1099 -0.3005 -0.0696
  685CHOL    C2 6160   8.004   1.700   6.914  0.1630  0.1261 -0.0382
  686XCA    COO 6161   5.201  12.271   8.706  0.1028 -0.2167  0.0130
  686XCA     C1 6162   5.136  12.606   8.319 -0.1856 -0.2486 -0.0548
  686XCA     C2 6163   5.302  12.736   7.892 -0.2254  0.0362 -0.2854
  686XCA     C3 6164   5.221  12.505   7.506 -0.0995 -0.2523 -0.3056
  686XCA     C4 6165   5.048  12.066   7.337 -0.2145  0.1259 -0.0937
  686XCA     C5 6166   4.789  11.751   7.113  0.1150 -0.0407 -0.0715
  686XCA     C6 6167   4.550  11.442   6.909  0.1395  0.1246 -0.1522
  687PNCE   AM1 6168   6.647   2.017   5.309  0.0021  0.0616  0.2688
  687PNCE   AM2 6169   6.584   2.076   5.689  0.1084  0.1169  0.0471
  687PNCE   T1A 6170   6.937   2.367   5.365  0.2924  0.0445 -0.1554
  687PNCE   C2A 6171   7.113   2.870   5.550 -0.1112  0.2626 -0.4042
  687PNCE   C3A 6172   6.988   3.250   5.540 -0.1682  0.0309  0.0034
  687PNCE   C1B 6173   6.383   1.994   6.107  0.3258 -0.0260  0.3773
  687PNCE   C2B 6174   6.354   2.077   6.522  0.1160 -0.0235  0.4739
  687PNCE   C3B 6175   6.233   2.266   6.777  0.0672  0.1754 -0.0093
  687PNCE   D4B 6176   6.506   2.469   7.097 -0.0689 -0.1830 -0.3639
  687PNCE   C5B 6177   6.873   2.316   7.240 -0.0777 -0.1736 -0.1555
  687PNCE   C6B 6178   7.133   2.116   7.320 -0.1073  0.1117 -0.0027
  688CHOL   ROH 6179   1.823   5.347   8.018  0.2032 -0.0418  0.1561
  688CHOL    R1 6180   1.912   5.392   7.754  0.0569 -0.0860  0.0992
  688CHOL    R2 6181   1.887   5.202   7.554 -0.0773 -0.1083  0.1396
  688CHOL    R3 6182   1.761   5.404   7.423 -0.1302 -0.1126  0.1816
  688CHOL    R4 6183   1.854   5.225   7.211 -0.2344 -0.1348  0.1513
  688CHOL    R5 6184   1.892   5.439   7.226 -0.2178 -0.1337  0.1172
  688CHOL    C1 6185   1.717   5.427   6.887 -0.3755 -0.1543  0.1977
  688CHOL    C2 6186   1.633   5.665   6.618  0.1365  0.0209 -0.0537
  689CHOL   ROH 6187   2.685  15.584   7.045  0.1679 -0.0946  0.1082
  689CHOL    R1 6188   2.537  15.349   7.099  0.1315 -0.1153 -0.0759
  689CHOL    R2 6189   2.487  15.158   6.906  0.3763 -0.1106 -0.1482
  689CHOL    R3 6190   2.599  14.990   7.089  0.1861 -0.1073 -0.0267
  689CHOL    R4 6191   2.407  14.824   6.944  0.2138 -0.0674 -0.1074
  689CHOL    R5 6192   2.418  14.850   7.160  0.0811 -0.0132 -0.1068
  689CHOL    C1 6193   2.464  14.472   7.138 -0.0594 -0.0394  0.0306
  689CHOL    C2 6194   2.224  14.076   7.145 -0.1171 -0.0283  0.1376
  690PNCE   AM1 6195   9.850   0.200   5.248  0.0856 -0.0016 -0.0363
  690PNCE   AM2 6196   9.675   0.423   5.381  0.0302 -0.2886  0.1124
  690PNCE   T1A 6197  10.132   0.097   5.562  0.2209 -0.3213  0.0068
  690PNCE   C2A 6198  10.418  -0.006   5.920 -0.0719 -0.1634  0.1861
  690PNCE   C3A 6199  10.453  -0.327   6.225 -0.1245  0.1321  0.0869
  690PNCE   C1B 6200   9.714   0.855   5.657 -0.0963  0.0976  0.0769
  690PNCE   C2B 6201   9.680   0.771   6.167 -0.0914  0.0719 -0.0924
  690PNCE   C3B 6202   9.606   0.801   6.623 -0.2374 -0.0215 -0.2265
  690PNCE   D4B 6203   9.802   1.004   6.979  0.1456 -0.3575  0.0241
  690PNCE   C5B 6204  10.078   0.686   7.072 -0.0228  0.2781 -0.2881
  690PNCE   C6B 6205  10.462   0.584   6.848  0.1340  0.0561 -0.1704
  691PNCE   AM1 6206   5.402  14.311   8.487 -0.0610 -0.1432  0.2438
  691PNCE   AM2 6207   5.396  14.702   8.472  0.0031 -0.0188 -0.0619
  691PNCE   T1A 6208   5.238  14.087   8.157  0.2140 -0.0355  0.2144
  691PNCE   C2A 6209   4.948  14.197   7.869  0.3109  0.1106  0.0767
  691PNCE   C3A 6210   4.685  14.195   7.563 -0.0612 -0.0490  0.0228
  691PNCE   C1B 6211   5.496  14.610   8.094 -0.1441 -0.0310  0.5878
  691PNCE   C2B 6212   5.573  14.298   7.818  0.3016 -0.4036  0.0006
  691PNCE   C3B 6213   5.736  14.092   7.404  0.0970  0.1072  0.1361
  691PNCE   D4B 6214   5.790  13.684   7.355 -0.0159  0.3013 -0.1274
  691PNCE   C5B 6215   5.985  13.786   6.947 -0.1417 -0.1393  0.0415
  691PNCE   C6B 6216   6.200  14.113   6.708 -0.0151  0.0053 -0.0853
  692PNCE   AM1 6217  15.592   0.361   4.976 -0.1477  0.0148 -0.0001
  692PNCE   AM2 6218  15.455   0.218   5.178 -0.1987 -0.1676 -0.1603
  692PNCE   T1A 6219  15.315   0.637   4.950 -0.0189 -0.3138  0.1664
  692PNCE   C2A 6220  15.252   1.103   5.039 -0.1213  0.0666  0.0475
  692PNCE   C3A 6221  14.968   1.456   5.098 -0.0205  0.1693  0.3397
  692PNCE   C1B 6222  15.550   0.511   5.449  0.2746  0.2324  0.0893
  692PNCE   C2B 6223  15.412   0.594   5.838 -0.1816 -0.1483  0.0946
  692PNCE   C3B 6224  15.299   0.650   6.293 -0.1885 -0.0017  0.1325
  692PNCE   D4B 6225  15.448   0.844   6.628 -0.3998  0.2386 -0.4720
  692PNCE   C5B 6226  15.939   0.871   6.701 -0.0028 -0.2957  0.1295
  692PNCE   C6B 6227  16.396   0.686   6.636 -0.3266  0.1703  0.5436
  693CHOL   ROH 6228   9.392   1.372   7.146  0.1701  0.1114 -0.0833
  693CHOL    R1 6229   9.306   1.640   7.116  0.0805  0.1089  0.1307
  693CHOL    R2 6230   9.192   1.734   6.882  0.2860  0.3208  0.1117
  693CHOL    R3 6231   8.991   1.811   7.049  0.0706  0.0370 -0.0090
  693CHOL    R4 6232   8.969   1.991   6.819  0.3228  0.3824  0.2281
  693CHOL    R5 6233   8.984   2.049   7.028  0.0616  0.0718  0.3412
  693CHOL    C1 6234   8.650   2.211   6.939  0.1421  0.1518  0.1826
  693CHOL    C2 6235   8.324   2.145   7.053 -0.0599  0.2764  0.0937
  694PNCE   AM1 6236  11.584  12.729   4.760 -0.0375  0.1507  0.3059
  694PNCE   AM2 6237  11.428  12.550   5.060 -0.0742 -0.1140 -0.2074
  694PNCE   T1A 6238  11.946  12.777   5.079 -0.3113 -0.2121  0.2873
  694PNCE   C2A 6239  12.188  12.678   5.445 -0.1298 -0.1400 -0.3748
  694PNCE   C3A 6240  12.402  12.368   5.645  0.3336 -0.1712  0.2661
  694PNCE   C1B 6241  11.148  12.470   5.348  0.0631 -0.2544  0.2901
  694PNCE   C2B 6242  11.074  12.445   5.763  0.3379  0.1518 -0.1241
  694PNCE   C3B 6243  10.965  12.747   6.094  0.0371  0.0506  0.0609
  694PNCE   D4B 6244  10.959  12.748   6.510 -0.0734  0.0798 -0.2419
  694PNCE   C5B 6245  11.213  12.774   6.884 -0.1116 -0.0136 -0.1531
  694PNCE   C6B 6246  11.353  13.253   7.036 -0.1426 -0.3611 -0.0274
  695PNCE   AM1 6247   2.865   7.876   4.490  0.1077 -0.0238  0.0602
  695PNCE   AM2 6248   2.583   7.690   4.472 -0.3039 -0.0084 -0.1247
  695PNCE   T1A 6249   3.199   8.157   4.627  0.2684 -0.1579  0.2555
  695PNCE   C2A 6250   3.437   8.157   5.042  0.1057 -0.2558 -0.0731
  695PNCE   C3A 6251   3.905   8.001   5.256 -0.1649 -0.2721 -0.0498
  695PNCE   C1B 6252   2.437   7.418   4.847  0.3090 -0.1838  0.1887
  695PNCE   C2B 6253   2.361   7.361   5.266  0.5240 -0.0324  0.0061
  695PNCE   C3B 6254   2.494   7.512   5.685  0.1395 -0.0607  0.0439
  695PNCE   D4B 6255   2.627   7.605   6.148  0.1098  0.1373  0.4490
  695PNCE   C5B 6256   2.996   7.744   6.386 -0.0079 -0.2796 -0.2878
  695PNCE   C6B 6257   3.194   8.068   6.646  0.0849  0.1358  0.3166
  696PNCE   AM1 6258   6.088   2.086   5.147  0.1118 -0.2502 -0.4304
  696PNCE   AM2 6259   6.188   1.786   5.197  0.1931  0.2646  0.0923
  696PNCE   T1A 6260   5.709   2.030   5.447 -0.2728  0.1045 -0.3758
  696PNCE   C2A 6261   5.543   1.929   5.739 -0.0171 -0.4290  0.1191
  696PNCE   C3A 6262   5.324   1.898   6.120 -0.1702 -0.1492 -0.1181
  696PNCE   C1B 6263   6.051   1.758   5.685  0.3084 -0.2237  0.0488
  696PNCE   C2B 6264   5.914   1.773   6.141 -0.1746  0.1657  0.1106
  696PNCE   C3B 6265   5.777   1.948   6.397  0.1068  0.0612  0.1050
  696PNCE   D4B 6266   5.969   1.905   6.914  0.4221  0.3055  0.4375
  696PNCE   C5B 6267   6.083   1.627   7.242 -0.0486  0.0257  0.0965
  696PNCE   C6B 6268   5.741   1.411   7.435 -0.0454  0.0447 -0.1669
  697PNCE   AM1 6269  10.773   6.507   4.712  0.0635  0.1660 -0.1174
  697PNCE   AM2 6270  10.534   6.573   4.915  0.4708  0.3902  0.0947
  697PNCE   T1A 6271  10.776   6.986   4.742 -0.0310  0.0835  0.1618
  697PNCE   C2A 6272  10.455   7.278   4.919 -0.1504  0.4442 -0.4549
  697PNCE   C3A 6273  10.441   7.581   5.200 -0.4206  0.0605  0.2150
  697PNCE   C1B 6274  10.591   6.569   5.384  0.0743 -0.1385 -0.1905
  697PNCE   C2B 6275  10.486   6.626   5.835 -0.1901  0.1364  0.2327
  697PNCE   C3B 6276  10.775   6.714   6.197 -0.2206  0.1254  0.1271
  697PNCE   D4B 6277  10.849   6.838   6.589 -0.1355 -0.0025 -0.0367
  697PNCE   C5B 6278  11.009   6.355   6.739  0.2034 -0.0933  0.1350
  697PNCE   C6B 6279  10.863   6.066   7.078 -0.0558 -0.2790  0.1603
  698PNCE   AM1 6280   9.913   2.582   5.303 -0.2664 -0.0660  0.3263
  698PNCE   AM2 6281  10.151   2.330   5.437  0.1457  0.2494 -0.0099
  698PNCE   T1A 6282   9.490   2.435   5.564  0.0490 -0.0560  0.1592
  698PNCE   C2A 6283   9.474   2.450   5.915  0.2740  0.0322 -0.0029
  698PNCE   C3A 6284   9.422   2.259   6.203  0.0058 -0.1165  0.0624
  698PNCE   C1B 6285  10.043   2.506   5.804 -0.0339  0.1876 -0.0059
  698PNCE   C2B 6286   9.929   2.468   6.240  0.0991 -0.0154  0.4700
  698PNCE   C3B 6287  10.104   2.575   6.642 -0.0531  0.2326  0.1443
  698PNCE   D4B 6288  10.216   2.694   7.085  0.1698 -0.2798 -0.0869
  698PNCE   C5B 6289   9.929   3.010   7.025 -0.3961 -0.0051 -0.3820
  698PNCE   C6B 6290   9.514   3.128   7.230  0.0620 -0.0911  0.0651
  699XCA    COO 6291  14.665  11.550   5.105 -0.2357 -0.1933 -0.2759
  699XCA     C1 6292  14.870  11.651   5.605 -0.0278  0.0843 -0.0250
  699XCA     C2 6293  14.910  11.415   5.889 -0.0648 -0.2341  0.1083
  699XCA     C3 6294  14.665  11.103   5.901  0.2032  0.3927 -0.1398
  699XCA     C4 6295  14.194  10.876   6.018  0.2287  0.0713  0.0530
  699XCA     C5 6296  13.987  10.591   6.267  0.0898  0.1033  0.1590
  699XCA     C6 6297  13.586  10.389   6.437  0.3352  0.0617 -0.1401
  700XCA    COO 6298   5.109   0.882   8.780 -0.2030 -0.1912 -0.2999
  700XCA     C1 6299   5.117   1.057   8.310  0.1321  0.2035 -0.1281
  700XCA     C2 6300   5.168   0.802   7.944  0.0218 -0.0174 -0.1292
  700XCA     C3 6301   5.030   0.670   7.580  0.2553 -0.0753 -0.1058
  700XCA     C4 6302   5.144   0.635   7.203 -0.0249  0.2685  0.2147
  700XCA     C5 6303   5.243   0.363   6.849  0.0242 -0.0956 -0.0717
  700XCA     C6 6304   5.190   0.515   6.455 -0.2915  0.0696  0.0938
  701PNCE   AM1 6305  12.417  14.284   5.284  0.1413  0.1202  0.0508
  701PNCE   AM2 6306  12.261  14.247   4.939 -0.2951  0.1570  0.0026
  701PNCE   T1A 6307  12.774  14.425   5.476 -0.1140 -0.0717 -0.2696
  701PNCE   C2A 6308  13.036  14.201   5.687 -0.4186  0.0294 -0.2395
  701PNCE   C3A 6309  13.165  14.136   6.139 -0.0540 -0.0873 -0.0159
  701PNCE   C1B 6310  12.216  13.789   4.981  0.0718  0.0317  0.1700
  701PNCE   C2B 6311  12.176  13.291   5.053 -0.3660  0.2306 -0.0332
  701PNCE   C3B 6312  12.136  13.238   5.495 -0.0913  0.1380  0.1340
  701PNCE   D4B 6313  11.907  13.489   5.852 -0.0730  0.2391  0.2102
  701PNCE   C5B 6314  12.087  13.391   6.249 -0.0346  0.2208 -0.3093
  701PNCE   C6B 6315  12.359  13.521   6.470 -0.4501 -0.1591 -0.1884
  702PNCE   AM1 6316   3.566   3.358   5.014 -0.0278 -0.3653 -0.2930
  702PNCE   AM2 6317   3.785   3.388   4.834 -0.1639 -0.0693  0.1865
  702PNCE   T1A 6318   3.365   3.535   5.444  0.1405 -0.0057  0.1076
  702PNCE   C2A 6319   3.084   3.463   5.826  0.0279  0.1034 -0.0594
  702PNCE   C3A 6320   3.094   3.167   6.227  0.0234 -0.4982  0.1007
  702PNCE   C1B 6321   4.078   3.819   4.891  0.0028 -0.1659  0.3832
  702PNCE   C2B 6322   3.873   4.257   4.845  0.3208 -0.0914  0.1202
  702PNCE   C3B 6323   3.948   4.663   4.952 -0.0476  0.0723  0.0191
  702PNCE   D4B 6324   4.260   4.800   5.166 -0.1354 -0.0048  0.3757
  702PNCE   C5B 6325   4.624   4.752   5.194 -0.1312  0.0668  0.1009
  702PNCE   C6B 6326   4.982   4.756   4.932 -0.0425 -0.0236  0.3083
  703CHOL   ROH 6327  11.658   3.387   9.013 -0.0049  0.0377  0.0256
  703CHOL    R1 6328  11.779   3.541   8.809 -0.0071  0.0067  0.0014
  703CHOL    R2 6329  11.652   3.600   8.571 -0.0560  0.0761  0.0495
  703CHOL    R3 6330  11.711   3.856   8.639  0.0678  0.0496  0.0465
  703CHOL    R4 6331  11.721   3.852   8.346  0.1404  0.0134  0.0374
  703CHOL    R5 6332  11.878   3.923   8.481  0.1497 -0.0607  0.0775
  703CHOL    C1 6333  11.816   4.240   8.278  0.3708 -0.0480  0.0276
  703CHOL    C2 6334  11.988   4.278   7.818  0.2385 -0.0082 -0.0993
  704PNCE   AM1 6335  11.392   0.733   5.313  0.1344  0.1993 -0.2373
  704PNCE   AM2 6336  11.058   0.842   5.303 -0.0738  0.1509 -0.0571
  704PNCE   T1A 6337  11.572   0.654   5.635 -0.0556  0.2282 -0.0655
  704PNCE   C2A 6338  11.685   0.646   6.118 -0.1561  0.2955 -0.1888
  704PNCE   C3A 6339  11.855   0.625   6.462 -0.0827  0.1095 -0.0239
  704PNCE   C1B 6340  11.137   0.919   5.756  0.0972 -0.2977  0.2609
  704PNCE   C2B 6341  11.101   0.924   6.152 -0.0450 -0.2770 -0.1132
  704PNCE   C3B 6342  11.264   1.147   6.509 -0.0670 -0.0743 -0.0162
  704PNCE   D4B 6343  11.185   1.108   6.926  0.0096 -0.2205  0.0501
  704PNCE   C5B 6344  11.167   1.572   7.188  0.1015 -0.0059 -0.3138
  704PNCE   C6B 6345  11.091   1.766   7.602 -0.2536  0.2298  0.0958
  705PNCE   AM1 6346  15.503  15.764   5.573 -0.1678 -0.1748  0.1950
  705PNCE   AM2 6347  15.801  15.614   5.580 -0.2815  0.0676 -0.0164
  705PNCE   T1A 6348  15.154  15.674   5.519 -0.3509 -0.1398 -0.2588
  705PNCE   C2A 6349  14.755  15.790   5.399  0.4139 -0.1143  0.0646
  705PNCE   C3A 6350  14.418  15.589   5.568  0.0194 -0.1057  0.4057
  705PNCE   C1B 6351  16.181  15.514   5.562  0.0659 -0.1844 -0.0970
  705PNCE   C2B 6352  16.511  15.296   5.699  0.0909 -0.1238 -0.3914
  705PNCE   C3B 6353  16.809  15.096   5.839  0.1803 -0.0787  0.1862
  705PNCE   D4B 6354  17.263  15.106   5.790 -0.0519  0.0319 -0.1375
  705PNCE   C5B 6355  17.453  15.051   6.193 -0.0625  0.0239  0.0170
  705PNCE   C6B 6356  17.672  15.080   6.536 -0.0298 -0.3934 -0.2692
  706CHOL   ROH 6357   3.027   3.054   8.612  0.0373  0.1629  0.0682
  706CHOL    R1 6358   3.104   2.862   8.418  0.1045  0.1759  0.0810
  706CHOL    R2 6359   2.920   2.706   8.282  0.1676 -0.0190  0.2126
  706CHOL    R3 6360   3.045   2.807   8.063 -0.0275  0.0328  0.1246
  706CHOL    R4 6361   2.875   2.593   7.959  0.1348 -0.1666  0.2681
  706CHOL    R5 6362   3.088   2.617   7.925  0.0977  0.0315  0.1673
  706CHOL    C1 6363   2.965   2.623   7.564 -0.0674 -0.2039  0.2179
  706CHOL    C2 6364   2.867   2.641   7.189  0.3052 -0.1711  0.1840
  707XCA    COO 6365   2.879   2.941   4.980  0.3213 -0.0382  0.0170
  707XCA     C1 6366   2.738   3.024   5.353  0.0967 -0.0740 -0.0581
  707XCA     C2 6367   2.838   2.999   5.822 -0.0124  0.3944 -0.0724
  707XCA     C3 6368   2.686   2.794   6.243 -0.4395  0.2029  0.0225
  707XCA     C4 6369   2.873   2.650   6.622  0.0239  0.0826  0.2365
  707XCA     C5 6370   2.960   2.292   6.843 -0.0797  0.1085 -0.1661
  707XCA     C6 6371   2.947   1.872   6.729 -0.2217  0.0489 -0.0934
  708XCA    COO 6372  14.916   2.913   4.121  0.2129  0.2438  0.0691
  708XCA     C1 6373  14.600   2.885   4.486  0.0524 -0.2269 -0.2824
  708XCA     C2 6374  14.574   2.863   4.904 -0.0971 -0.0548 -0.0699
  708XCA     C3 6375  14.599   3.076   5.234  0.1212 -0.1316  0.0749
  708XCA     C4 6376  14.704   3.230   5.589 -0.0274  0.3113 -0.4240
  708XCA     C5 6377  14.415   3.469   5.873 -0.2863  0.0563  0.0981
  708XCA     C6 6378  14.329   3.889   6.128  0.1214 -0.1188  0.4437
  709CHOL   ROH 6379  12.350   6.393   4.809  0.1669 -0.2296  0.0633
  709CHOL    R1 6380  12.625   6.365   4.869  0.1691 -0.2564  0.0339
  709CHOL    R2 6381  12.823   6.413   4.683  0.1547 -0.0888  0.0720
  709CHOL    R3 6382  12.918   6.581   4.875  0.1566 -0.2387  0.2067
  709CHOL    R4 6383  13.125   6.582   4.666  0.0736  0.0629  0.1006
  709CHOL    R5 6384  13.154   6.540   4.878  0.1837 -0.1432  0.0567
  709CHOL    C1 6385  13.389   6.838   4.836  0.0283  0.0105  0.2437
  709CHOL    C2 6386  13.738   6.812   4.931  0.0306  0.1984  0.1288
  710CHOL   ROH 6387  12.986   1.928   8.028  0.0145  0.2488  0.0197
  710CHOL    R1 6388  13.046   1.666   7.937 -0.1383  0.2274 -0.0229
  710CHOL    R2 6389  13.106   1.611   7.673 -0.0052  0.2645 -0.0006
  710CHOL    R3 6390  13.329   1.500   7.780 -0.1673  0.0445  0.1154
  710CHOL    R4 6391  13.272   1.337   7.543 -0.0790  0.2426 -0.0486
  710CHOL    R5 6392  13.300   1.264   7.746 -0.2976  0.0837 -0.0694
  710CHOL    C1 6393  13.578   1.073   7.568 -0.2739  0.0234  0.0324
  710CHOL    C2 6394  13.614   0.979   7.184  0.1508  0.2857  0.1639
  711CHOL   ROH 6395  13.617   2.673   4.914  0.0874 -0.1312 -0.0632
  711CHOL    R1 6396  13.699   2.608   5.177  0.0896 -0.1641 -0.0727
  711CHOL    R2 6397  13.848   2.780   5.333  0.0538 -0.1663 -0.0376
  711CHOL    R3 6398  13.647   2.741   5.512  0.0543 -0.2339 -0.0505
  711CHOL    R4 6399  13.880   2.810   5.676 -0.0119 -0.0450 -0.0410
  711CHOL    R5 6400  13.753   2.634   5.698  0.0923 -0.1141 -0.0043
  711CHOL    C1 6401  13.710   2.792   6.043 -0.0497 -0.0378 -0.0551
  711CHOL    C2 6402  13.783   2.766   6.332  0.0756  0.3019  0.1322
  712CHOL   ROH 6403  10.135   6.438   5.380 -0.1568  0.1991  0.0704
  712CHOL    R1 6404  10.266   6.269   5.565 -0.0674  0.1395 -0.0456
  712CHOL    R2 6405  10.177   6.236   5.825  0.1003  0.1154  0.0084
  712CHOL    R3 6406  10.181   5.973   5.759 -0.0002  0.1246 -0.0373
  712CHOL    R4 6407  10.202   5.976   6.051  0.5341  0.0902 -0.0611
  712CHOL    R5 6408  10.337   5.875   5.912  0.2949  0.1173 -0.3266
  712CHOL    C1 6409  10.221   5.578   6.121  0.6923  0.0841 -0.1444
  712CHOL    C2 6410  10.042   5.502   6.486 -0.1449  0.0595  0.1266
  713XCA    COO 6411  11.399   7.497   4.610  0.0213  0.1089 -0.0092
  713XCA     C1 6412  11.047   7.455   4.882  0.2495 -0.1045  0.2172
  713XCA     C2 6413  10.847   7.224   5.242  0.1970  0.0375  0.3493
  713XCA     C3 6414  10.548   7.168   5.433 -0.0833  0.1266 -0.4100
  713XCA     C4 6415  10.372   7.507   5.813 -0.1959  0.1187  0.1576
  713XCA     C5 6416  10.305   7.903   5.876 -0.2089 -0.2350  0.1103
  713XCA     C6 6417  10.215   8.290   6.073 -0.2200 -0.1772 -0.3896
  714CHOL   ROH 6418   9.969   3.622   5.349 -0.2733 -0.0121  0.0829
  714CHOL    R1 6419   9.882   3.785   5.563 -0.1004  0.1251  0.0505
  714CHOL    R2 6420   9.912   3.712   5.828 -0.2678  0.0975  0.0626
  714CHOL    R3 6421  10.036   3.954   5.846  0.0662 -0.0693  0.0779
  714CHOL    R4 6422   9.932   3.902   6.116 -0.1136  0.1079  0.0459
  714CHOL    R5 6423   9.897   4.080   5.995  0.1825  0.1462  0.0081
  714CHOL    C1 6424  10.060   4.239   6.302  0.2898 -0.0426  0.0504
  714CHOL    C2 6425   9.797   4.580   6.345  0.3208 -0.3350  0.0278
  715CHOL   ROH 6426   3.489   4.936   4.869  0.1535 -0.1199  0.0179
  715CHOL    R1 6427   3.523   5.026   5.135  0.0045 -0.1359  0.0424
  715CHOL    R2 6428   3.729   4.938   5.297  0.0153 -0.0134  0.0924
  715CHOL    R3 6429   3.778   5.204   5.324 -0.1817  0.0195  0.1526
  715CHOL    R4 6430   3.944   5.077   5.529  0.0481  0.0759  0.0098
  715CHOL    R5 6431   3.800   5.238   5.560 -0.0648 -0.0471  0.1537
  715CHOL    C1 6432   4.116   5.408   5.689 -0.1177  0.1588  0.0182
  715CHOL    C2 6433   4.207   5.712   6.062  0.2933 -0.0948 -0.0730
  716PNCE   AM1 6434   1.154   0.089   5.044 -0.0605  0.0568 -0.0463
  716PNCE   AM2 6435   1.209   0.484   5.044  0.0816 -0.2408  0.3773
  716PNCE   T1A 6436   1.473   0.134   5.303  0.0718 -0.0058 -0.1296
  716PNCE   C2A 6437   1.693   0.149   5.702 -0.0268 -0.2286  0.0512
  716PNCE   C3A 6438   2.064  -0.204   5.743 -0.3562 -0.2228 -0.1594
  716PNCE   C1B 6439   1.027   0.855   5.318  0.2265  0.1694  0.0742
  716PNCE   C2B 6440   1.156   1.079   5.728  0.1060 -0.3231 -0.1390
  716PNCE   C3B 6441   1.489   1.182   5.927 -0.0230 -0.2395  0.1098
  716PNCE   D4B 6442   1.868   1.215   5.698  0.2483 -0.2343 -0.1885
  716PNCE   C5B 6443   2.076   1.688   5.766 -0.0627 -0.0749 -0.2260
  716PNCE   C6B 6444   2.498   1.906   5.832  0.0685  0.0777  0.1640
  717CHOL   ROH 6445  13.898  11.821   8.229 -0.0337 -0.2664 -0.1347
  717CHOL    R1 6446  13.878  12.016   8.025 -0.0130 -0.1851 -0.0586
  717CHOL    R2 6447  13.856  11.949   7.758 -0.0989 -0.0798 -0.0744
  717CHOL    R3 6448  13.636  12.108   7.770 -0.0404 -0.0031  0.0297
  717CHOL    R4 6449  13.639  12.004   7.495 -0.3293 -0.1963  0.0871
  717CHOL    R5 6450  13.627  12.214   7.555 -0.2061 -0.1466 -0.0410
  717CHOL    C1 6451  13.305  12.185   7.353 -0.4084 -0.1922  0.2788
  717CHOL    C2 6452  13.089  12.116   7.002  0.1211 -0.1760  0.2489
  718PNCE   AM1 6453  11.708   8.078   4.421  0.0243 -0.0168 -0.1243
  718PNCE   AM2 6454  11.809   7.735   4.304 -0.1664 -0.0421  0.1322
  718PNCE   T1A 6455  11.864   7.887   4.861 -0.0338 -0.2159 -0.0758
  718PNCE   C2A 6456  12.238   7.833   5.169  0.0538 -0.0710 -0.1995
  718PNCE   C3A 6457  12.565   7.604   5.418 -0.2088 -0.2380 -0.2393
  718PNCE   C1B 6458  12.200   7.831   4.489  0.0104 -0.3723 -0.0734
  718PNCE   C2B 6459  12.457   7.970   4.739 -0.0759 -0.2635  0.0764
  718PNCE   C3B 6460  12.791   8.257   4.933  0.1541  0.1805  0.0532
  718PNCE   D4B 6461  13.160   8.328   5.051 -0.2841 -0.4717 -0.0022
  718PNCE   C5B 6462  13.393   8.673   4.898  0.0073 -0.0701 -0.3130
  718PNCE   C6B 6463  13.733   8.839   4.670 -0.1916 -0.0694 -0.0339
  719PNCE   AM1 6464   4.079  13.729   4.887  0.2422 -0.1473 -0.1425
  719PNCE   AM2 6465   3.818  13.680   5.017 -0.2132  0.1965 -0.0482
  719PNCE   T1A 6466   4.226  13.714   5.335 -0.3006 -0.2171 -0.1635
  719PNCE   C2A 6467   4.098  13.747   5.764  0.0783 -0.3866  0.1499
  719PNCE   C3A 6468   3.975  13.646   6.195 -0.0981  0.2232  0.1477
  719PNCE   C1B 6469   3.689  13.741   5.371  0.4962  0.2480  0.0456
  719PNCE   C2B 6470   3.600  13.806   5.854  0.3242  0.1538  0.2203
  719PNCE   C3B 6471   3.232  14.002   6.049 -0.0196  0.0160  0.0949
  719PNCE   D4B 6472   3.103  14.464   6.061  0.0925 -0.1891 -0.0686
  719PNCE   C5B 6473   3.241  14.750   6.356  0.1108 -0.0773 -0.0590
  719PNCE   C6B 6474   3.330  15.000   6.745  0.2464 -0.1748 -0.0620
  720PNCE   AM1 6475   8.253  11.280   4.989  0.2585 -0.1422  0.0772
  720PNCE   AM2 6476   8.005  11.446   5.084 -0.0762  0.0098  0.0831
  720PNCE   T1A 6477   8.614  11.337   5.142 -0.2374  0.0451  0.0701
  720PNCE   C2A 6478   8.950  11.510   5.399  0.1429  0.3293 -0.0922
  720PNCE   C3A 6479   8.938  11.551   5.821  0.3267  0.2703  0.0342
  720PNCE   C1B 6480   8.030  11.219   5.491 -0.2032  0.2909  0.1243
  720PNCE   C2B 6481   7.969  10.981   5.914 -0.2038 -0.0835  0.1994
  720PNCE   C3B 6482   7.768  10.724   6.250 -0.0578 -0.1625 -0.1568
  720PNCE   D4B 6483   7.630  10.701   6.660  0.2434  0.2410 -0.0656
  720PNCE   C5B 6484   7.363  10.489   6.971  0.2315  0.0288 -0.1405
  720PNCE   C6B 6485   7.049  10.344   7.280 -0.2961 -0.0184 -0.1857
  721XCA    COO 6486   2.333  11.596   8.050 -0.1007 -0.1603  0.0518
  721XCA     C1 6487   2.713  11.523   7.766  0.0247 -0.0230  0.3473
  721XCA     C2 6488   2.855  11.179   7.410 -0.0491 -0.2489 -0.0040
  721XCA     C3 6489   2.826  11.198   7.063 -0.4634 -0.0247  0.1565
  721XCA     C4 6490   2.578  10.930   6.845 -0.1201  0.0485 -0.0231
  721XCA     C5 6491   2.360  10.820   6.514 -0.1167  0.0383 -0.0154
  721XCA     C6 6492   2.051  10.728   6.116  0.0606  0.1449  0.3043
  722PNCE   AM1 6493   9.961   5.945   4.686  0.1364 -0.1950 -0.1901
  722PNCE   AM2 6494   9.622   6.055   4.794  0.0079  0.3386  0.1151
  722PNCE   T1A 6495  10.223   6.102   5.074  0.0323 -0.2337  0.0608
  722PNCE   C2A 6496  10.547   5.947   5.375  0.0158  0.0671 -0.0221
  722PNCE   C3A 6497  10.663   6.186   5.784 -0.0135 -0.1214  0.0479
  722PNCE   C1B 6498   9.304   6.233   4.989 -0.0090  0.0417 -0.0991
  722PNCE   C2B 6499   9.225   6.259   5.528  0.0573  0.1293  0.1609
  722PNCE   C3B 6500   9.176   6.351   5.888 -0.1052 -0.1393  0.0662
  722PNCE   D4B 6501   9.294   6.324   6.291 -0.2046  0.4288  0.0470
  722PNCE   C5B 6502   9.082   6.241   6.736 -0.2966 -0.0054 -0.2355
  722PNCE   C6B 6503   8.938   5.737   6.810 -0.1766 -0.3116 -0.0916
  723PNCE   AM1 6504  12.046   0.669   5.243 -0.0542 -0.0867 -0.1430
  723PNCE   AM2 6505  12.113   0.304   5.161 -0.0028  0.1132 -0.1592
  723PNCE   T1A 6506  11.961   0.950   5.683 -0.0452 -0.0549 -0.0499
  723PNCE   C2A 6507  12.097   0.954   6.168 -0.0428  0.0690 -0.1569
  723PNCE   C3A 6508  12.246   0.909   6.531  0.0887 -0.0235  0.0874
  723PNCE   C1B 6509  12.368   0.050   5.402 -0.1875  0.0856  0.3680
  723PNCE   C2B 6510  12.303  -0.138   5.776 -0.0104 -0.3592 -0.0587
  723PNCE   C3B 6511  11.945  -0.131   6.047 -0.3038  0.1415  0.0228
  723PNCE   D4B 6512  11.634  -0.405   6.198  0.4508  0.0905  0.0007
  723PNCE   C5B 6513  11.474  -0.280   6.704 -0.1783 -0.0654 -0.0300
  723PNCE   C6B 6514  11.162  -0.057   7.071  0.1146  0.0662  0.1177
  724PNCE   AM1 6515  15.845   0.145   8.615 -0.2794 -0.0499  0.3137
  724PNCE   AM2 6516  16.185   0.173   8.776  0.2027 -0.2679 -0.1339
  724PNCE   T1A 6517  16.066   0.335   8.261 -0.0961  0.0434  0.0979
  724PNCE   C2A 6518  16.308   0.310   7.979 -0.0986  0.0328  0.1619
  724PNCE   C3A 6519  16.439   0.302   7.486 -0.0653 -0.1521  0.2058
  724PNCE   C1B 6520  16.491   0.048   8.383  0.2401 -0.1073  0.0475
  724PNCE   C2B 6521  16.659  -0.061   7.972  0.0685  0.2094  0.1473
  724PNCE   C3B 6522  17.044  -0.001   7.737 -0.3272 -0.1416 -0.3332
  724PNCE   D4B 6523  17.132   0.102   7.303 -0.1192  0.0585  0.1859
  724PNCE   C5B 6524  17.477   0.207   7.106  0.1262 -0.0185  0.0859
  724PNCE   C6B 6525  17.675   0.477   7.239 -0.2458 -0.0642 -0.0376
  725PNCE   AM1 6526   6.300   5.248   4.079 -0.0174  0.2442  0.1154
  725PNCE   AM2 6527   6.543   5.473   4.125  0.2279 -0.1272 -0.0711
  725PNCE   T1A 6528   6.059   5.167   4.438 -0.1672  0.3848  0.0174
  725PNCE   C2A 6529   5.797   5.186   4.778 -0.3364  0.2676  0.1308
  725PNCE   C3A 6530   5.737   5.286   5.231  0.1591  0.0195 -0.3503
  725PNCE   C1B 6531   6.694   5.652   4.560  0.0023 -0.0188 -0.0597
  725PNCE   C2B 6532   6.732   5.644   5.045 -0.0990  0.1867  0.0066
  725PNCE   C3B 6533   6.645   5.588   5.498 -0.5932  0.0678 -0.0870
  725PNCE   D4B 6534   6.561   5.330   5.821 -0.3309 -0.2610 -0.0373
  725PNCE   C5B 6535   6.791   5.443   6.217 -0.1888 -0.1495  0.2232
  725PNCE   C6B 6536   7.099   5.491   6.404 -0.1185  0.3951 -0.1244
  726PNCE   AM1 6537   6.003  10.268   4.763  0.3577  0.0347 -0.3258
  726PNCE   AM2 6538   5.656  10.239   4.858 -0.2621 -0.0064 -0.0465
  726PNCE   T1A 6539   6.093  10.446   5.253 -0.2303  0.0620 -0.1595
  726PNCE   C2A 6540   6.325  10.555   5.622 -0.3037  0.0920 -0.1819
  726PNCE   C3A 6541   6.602  10.379   5.933  0.2276 -0.0858 -0.1163
  726PNCE   C1B 6542   5.913   9.983   5.236 -0.1083  0.1681  0.0293
  726PNCE   C2B 6543   5.860   9.736   5.571 -0.3540 -0.1609  0.0919
  726PNCE   C3B 6544   5.788   9.416   5.876 -0.1437  0.1745  0.2915
  726PNCE   D4B 6545   5.664   9.450   6.370 -0.1542  0.1330 -0.2211
  726PNCE   C5B 6546   5.881   9.606   6.671  0.0064  0.0382  0.1218
  726PNCE   C6B 6547   6.259   9.775   6.687 -0.0561  0.0402  0.0491
  727CHOL   ROH 6548   1.839   5.163   4.563  0.0923 -0.2307  0.1105
  727CHOL    R1 6549   1.820   5.157   4.845  0.0263 -0.1288  0.1097
  727CHOL    R2 6550   1.625   5.013   4.978  0.0065 -0.0988  0.1182
  727CHOL    R3 6551   1.838   4.903   5.106 -0.0127 -0.0326  0.2062
  727CHOL    R4 6552   1.610   4.855   5.284 -0.0295  0.0990  0.2195
  727CHOL    R5 6553   1.799   4.950   5.337 -0.0275  0.1187  0.1727
  727CHOL    C1 6554   1.801   4.659   5.583 -0.0685  0.2762  0.3611
  727CHOL    C2 6555   1.776   4.263   5.684  0.1156  0.0376  0.1023
  728XCA    COO 6556   6.223  11.429   8.588 -0.0234 -0.3549 -0.0430
  728XCA     C1 6557   6.424  11.593   8.236 -0.2120  0.3221 -0.4896
  728XCA     C2 6558   6.606  11.510   7.847  0.0574 -0.0825  0.1545
  728XCA     C3 6559   6.520  11.531   7.442 -0.2518 -0.0523 -0.4145
  728XCA     C4 6560   6.404  11.325   7.068 -0.0003  0.0294 -0.2221
  728XCA     C5 6561   6.418  11.505   6.784 -0.1609 -0.2630 -0.0669
  728XCA     C6 6562   6.380  11.383   6.348 -0.0617  0.2316 -0.0281
  729PNCE   AM1 6563   7.242  13.183   5.010  0.0158 -0.2765  0.0700
  729PNCE   AM2 6564   7.614  13.108   4.983  0.1027 -0.2265  0.0344
  729PNCE   T1A 6565   7.160  12.936   5.302 -0.0288  0.0226 -0.4237
  729PNCE   C2A 6566   7.046  12.685   5.652  0.1740 -0.1283 -0.3213
  729PNCE   C3A 6567   7.058  12.755   6.124  0.1159  0.2278  0.3419
  729PNCE   C1B 6568   7.629  13.000   5.468  0.3775 -0.2460 -0.3748
  729PNCE   C2B 6569   7.289  13.151   5.844  0.1067  0.1411  0.0053
  729PNCE   C3B 6570   7.314  13.432   6.228 -0.3964 -0.1421 -0.0159
  729PNCE   D4B 6571   7.150  13.646   6.595 -0.3627 -0.0407 -0.2818
  729PNCE   C5B 6572   7.102  13.390   6.897  0.0288 -0.0774 -0.1099
  729PNCE   C6B 6573   7.049  12.998   7.034  0.1839  0.0296  0.1307
  730XCA    COO 6574  13.598   5.564   8.368  0.2108  0.1932  0.0287
  730XCA     C1 6575  13.380   5.857   8.142  0.1614 -0.0070  0.0223
  730XCA     C2 6576  13.344   5.825   7.714  0.0106  0.0952  0.2097
  730XCA     C3 6577  13.440   5.608   7.317  0.2387  0.1246  0.1371
  730XCA     C4 6578  13.182   5.583   6.989 -0.1748  0.0384  0.5065
  730XCA     C5 6579  12.811   5.463   6.801  0.0965  0.0902 -0.1588
  730XCA     C6 6580  12.720   5.261   6.395  0.0858 -0.0575  0.0402
  731PNCE   AM1 6581  12.635  15.749   4.964 -0.0441  0.1014 -0.1309
  731PNCE   AM2 6582  12.329  15.557   4.901  0.0375  0.0860 -0.1020
  731PNCE   T1A 6583  12.991  15.488   5.175 -0.2016 -0.1440  0.2588
  731PNCE   C2A 6584  13.209  15.486   5.510 -0.2570 -0.0902  0.1132
  731PNCE   C3A 6585  13.357  15.680   5.852 -0.2740  0.2973 -0.0450
  731PNCE   C1B 6586  12.460  15.445   5.255  0.2143 -0.0427  0.0350
  731PNCE   C2B 6587  12.705  15.573   5.549  0.0602 -0.2391  0.2123
  731PNCE   C3B 6588  12.872  15.812   5.757 -0.0045  0.2999  0.0281
  731PNCE   D4B 6589  13.025  15.951   6.139  0.3244  0.0507  0.0381
  731PNCE   C5B 6590  12.717  16.120   6.310  0.0138 -0.1004 -0.2256
  731PNCE   C6B 6591  12.644  16.571   6.339 -0.0545 -0.1661 -0.0289
  732PNCE   AM1 6592   4.658  11.911   5.138 -0.4065  0.0555 -0.1037
  732PNCE   AM2 6593   4.864  12.139   5.172  0.1085 -0.3955  0.0034
  732PNCE   T1A 6594   4.521  11.751   5.550 -0.1488  0.1811 -0.2065
  732PNCE   C2A 6595   4.339  11.834   5.943 -0.1242 -0.0770 -0.0651
  732PNCE   C3A 6596   4.287  12.131   6.286  0.0980 -0.0335  0.2604
  732PNCE   C1B 6597   4.978  12.282   5.480  0.0122  0.0720  0.1907
  732PNCE   C2B 6598   5.006  12.115   5.962 -0.0029 -0.0058 -0.1937
  732PNCE   C3B 6599   4.749  11.881   6.181 -0.1217  0.0235  0.0056
  732PNCE   D4B 6600   4.491  11.448   6.208  0.1146 -0.2411 -0.1232
  732PNCE   C5B 6601   4.244  11.169   6.518 -0.2311 -0.1036 -0.0376
  732PNCE   C6B 6602   4.065  10.848   6.779  0.0512 -0.1511  0.3719
  733PNCE   AM1 6603  10.736   9.945   4.693  0.2195 -0.0343  0.1011
  733PNCE   AM2 6604  10.964   9.676   4.667 -0.2627 -0.0257  0.0444
  733PNCE   T1A 6605  10.801   9.848   5.137  0.0489 -0.0969  0.0400
  733PNCE   C2A 6606  10.816   9.836   5.498 -0.1638  0.3069  0.1126
  733PNCE   C3A 6607  10.784   9.851   5.961  0.0309 -0.2004 -0.2426
  733PNCE   C1B 6608  10.838   9.419   4.995 -0.4390 -0.0747 -0.2185
  733PNCE   C2B 6609  10.657   9.328   5.455 -0.3265 -0.1220 -0.2318
  733PNCE   C3B 6610  10.616   9.308   5.836 -0.0375  0.1753  0.1158
  733PNCE   D4B 6611  10.594   9.224   6.251  0.1489 -0.0154 -0.1302
  733PNCE   C5B 6612  10.654   9.568   6.540 -0.0618 -0.0777 -0.3303
  733PNCE   C6B 6613  10.487   9.701   6.914 -0.0985  0.1221 -0.2638
  734CHOL   ROH 6614   5.505   8.142   8.476 -0.0094 -0.3899 -0.0440
  734CHOL    R1 6615   5.377   8.229   8.239 -0.0843 -0.1788  0.0713
  734CHOL    R2 6616   5.405   8.098   7.997 -0.0457  0.1126 -0.0908
  734CHOL    R3 6617   5.134   8.095   8.005 -0.0434 -0.0361 -0.0534
  734CHOL    R4 6618   5.199   8.194   7.737 -0.1399 -0.0076 -0.0608
  734CHOL    R5 6619   5.068   8.290   7.882 -0.1708 -0.0772 -0.0475
  734CHOL    C1 6620   4.824   8.247   7.593 -0.1926 -0.2171 -0.0084
  734CHOL    C2 6621   4.495   8.006   7.458 -0.2035 -0.0325 -0.0029
  735CHOL   ROH 6622  14.064   9.903   6.921  0.0059  0.1703 -0.0954
  735CHOL    R1 6623  13.937   9.724   6.742 -0.0281 -0.0337  0.1249
  735CHOL    R2 6624  13.675   9.644   6.772 -0.1354  0.2756  0.0763
  735CHOL    R3 6625  13.651   9.734   6.517  0.1516 -0.1515 -0.1124
  735CHOL    R4 6626  13.415   9.565   6.559 -0.2519  0.4459  0.1540
  735CHOL    R5 6627  13.560   9.548   6.396 -0.2285 -0.1913  0.2181
  735CHOL    C1 6628  13.241   9.604   6.194 -0.0505  0.1441  0.0220
  735CHOL    C2 6629  13.205   9.523   5.839 -0.3202  0.0183  0.2710
  736XCA    COO 6630   0.792  13.573   8.641  0.3007 -0.0753 -0.0207
  736XCA     C1 6631   1.066  13.701   8.290  0.0531  0.0287 -0.2708
  736XCA     C2 6632   1.146  14.123   8.033 -0.3654  0.1788 -0.1021
  736XCA     C3 6633   1.327  14.374   7.665 -0.1070  0.1518 -0.0181
  736XCA     C4 6634   1.538  14.553   7.312 -0.0681  0.1178 -0.5481
  736XCA     C5 6635   1.438  14.816   6.982 -0.1620 -0.3421 -0.2092
  736XCA     C6 6636   1.374  15.111   6.683  0.2625  0.3120  0.1712
  737PNCE   AM1 6637   0.045   7.309   4.371 -0.3104  0.1220  0.1097
  737PNCE   AM2 6638  -0.050   7.700   4.300  0.2207  0.4069 -0.0986
  737PNCE   T1A 6639   0.273   7.287   4.738 -0.2897 -0.1534 -0.3367
  737PNCE   C2A 6640   0.318   7.378   5.149 -0.1809  0.1470 -0.2112
  737PNCE   C3A 6641   0.508   7.342   5.524  0.1087  0.3576  0.1699
  737PNCE   C1B 6642  -0.055   7.947   4.647  0.0988  0.1048  0.3125
  737PNCE   C2B 6643  -0.066   7.814   5.062  0.2432 -0.2349 -0.0703
  737PNCE   C3B 6644  -0.398   7.706   5.394  0.1011 -0.1646 -0.0881
  737PNCE   D4B 6645  -0.662   7.578   5.358 -0.3068 -0.0058  0.0338
  737PNCE   C5B 6646  -0.737   7.377   5.011 -0.0311  0.0122 -0.0782
  737PNCE   C6B 6647  -0.922   7.398   4.719  0.1281 -0.0163 -0.1130
  738PNCE   AM1 6648   3.777   9.731   4.355  0.1162 -0.2071  0.0272
  738PNCE   AM2 6649   3.519   9.524   4.152  0.0219 -0.2418 -0.1646
  738PNCE   T1A 6650   3.568   9.741   4.779 -0.1302 -0.1165  0.0579
  738PNCE   C2A 6651   3.188   9.751   4.973 -0.0397  0.1101 -0.1161
  738PNCE   C3A 6652   2.951   9.956   5.326  0.2402  0.0766 -0.0569
  738PNCE   C1B 6653   3.210   9.417   4.604  0.3253 -0.1816 -0.1593
  738PNCE   C2B 6654   3.211   9.225   4.993 -0.0193 -0.2053  0.0245
  738PNCE   C3B 6655   3.312   9.148   5.448  0.0685 -0.1068  0.1516
  738PNCE   D4B 6656   3.353   8.947   5.772  0.1701 -0.3944 -0.0115
  738PNCE   C5B 6657   3.114   9.091   6.172 -0.0312 -0.0581 -0.4180
  738PNCE   C6B 6658   2.973   9.363   6.491 -0.3146 -0.0633  0.0819
  739CHOL   ROH 6659  12.791   8.278   6.470  0.0746  0.1468  0.0778
  739CHOL    R1 6660  13.028   8.143   6.392  0.0723  0.1776  0.0186
  739CHOL    R2 6661  13.222   8.067   6.572  0.0605  0.0769 -0.0128
  739CHOL    R3 6662  13.184   7.822   6.460  0.0573  0.1353 -0.1409
  739CHOL    R4 6663  13.467   7.825   6.541 -0.0080 -0.0097  0.1092
  739CHOL    R5 6664  13.389   7.779   6.342  0.1456  0.0994  0.0204
  739CHOL    C1 6665  13.574   7.454   6.417 -0.0509 -0.0055  0.0599
  739CHOL    C2 6666  13.891   7.529   6.268 -0.0303  0.0578 -0.0588
  740PNCE   AM1 6667   6.430  15.475   4.961 -0.2074 -0.3045  0.0387
  740PNCE   AM2 6668   6.159  15.410   4.798  0.3393 -0.0971  0.1488
  740PNCE   T1A 6669   6.097  15.709   5.227  0.1041 -0.3083 -0.0160
  740PNCE   C2A 6670   6.069  16.083   5.489 -0.0009  0.4783 -0.3149
  740PNCE   C3A 6671   5.829  16.261   5.706  0.1264  0.2081 -0.3479
  740PNCE   C1B 6672   5.869  15.298   5.096 -0.0765 -0.1345  0.1248
  740PNCE   C2B 6673   5.717  15.391   5.472 -0.0107  0.0250  0.1011
  740PNCE   C3B 6674   5.875  15.715   5.756 -0.2146  0.0699 -0.0478
  740PNCE   D4B 6675   5.935  16.011   6.090  0.0285 -0.0319  0.2058
  740PNCE   C5B 6676   6.066  15.927   6.492 -0.1038  0.3505 -0.0158
  740PNCE   C6B 6677   6.091  15.905   6.881  0.3452  0.1368 -0.1202
  741PNCE   AM1 6678   6.395   0.739   9.052  0.0674 -0.2785  0.0165
  741PNCE   AM2 6679   6.349   1.018   8.927  0.1049  0.2860  0.0284
  741PNCE   T1A 6680   6.752   0.729   8.800 -0.0033  0.1357  0.3032
  741PNCE   C2A 6681   7.110   0.788   8.520  0.0591 -0.0034 -0.0566
  741PNCE   C3A 6682   7.385   0.723   8.135  0.1961 -0.1627  0.1071
  741PNCE   C1B 6683   6.733   1.185   8.652  0.1407  0.1146  0.2162
  741PNCE   C2B 6684   7.070   1.349   8.404 -0.0897  0.0460 -0.4345
  741PNCE   C3B 6685   7.219   1.456   7.998  0.1083 -0.1120  0.0752
  741PNCE   D4B 6686   7.588   1.427   7.650 -0.0704 -0.1343  0.0196
  741PNCE   C5B 6687   7.587   1.564   7.198  0.0902  0.0268  0.0717
  741PNCE   C6B 6688   7.513   1.970   7.084 -0.0149  0.2944  0.4250
  742CHOL   ROH 6689  10.997  14.432   5.470  0.1988 -0.3256  0.0505
  742CHOL    R1 6690  10.816  14.484   5.681  0.1927 -0.0899 -0.0098
  742CHOL    R2 6691  10.643  14.293   5.779 -0.0738  0.1233 -0.0484
  742CHOL    R3 6692  10.757  14.357   6.017 -0.0675  0.0021 -0.0180
  742CHOL    R4 6693  10.498  14.241   6.088 -0.1583  0.1700 -0.0799
  742CHOL    R5 6694  10.575  14.435   6.151 -0.0346  0.1048 -0.0336
  742CHOL    C1 6695  10.521  14.271   6.492 -0.2018  0.0833 -0.0698
  742CHOL    C2 6696  10.280  14.314   6.887 -0.0984 -0.2379  0.1497
  743CHOL   ROH 6697   4.207  10.292   5.280  0.0962 -0.1280  0.0282
  743CHOL    R1 6698   4.132  10.218   5.542  0.0810 -0.1503  0.0177
  743CHOL    R2 6699   4.300  10.078   5.711  0.1616  0.0405  0.0984
  743CHOL    R3 6700   4.251  10.285   5.880 -0.0913  0.0268  0.0451
  743CHOL    R4 6701   4.358  10.072   6.052  0.0285  0.1457  0.1233
  743CHOL    R5 6702   4.170  10.181   6.080 -0.0813 -0.0136  0.0289
  743CHOL    C1 6703   4.344  10.264   6.409 -0.2864  0.1941  0.0877
  743CHOL    C2 6704   4.411  10.470   6.704 -0.1030 -0.0725  0.2870
  744XCA    COO 6705  11.878   5.394   4.090  0.0786  0.3977 -0.0124
  744XCA     C1 6706  11.617   5.272   4.387 -0.3203 -0.1850  0.4338
  744XCA     C2 6707  11.392   5.160   4.710 -0.1028  0.3614  0.0446
  744XCA     C3 6708  11.271   5.242   5.196 -0.1815 -0.2070 -0.0256
  744XCA     C4 6709  11.391   5.363   5.583 -0.2367  0.0654 -0.2892
  744XCA     C5 6710  11.616   5.628   5.875 -0.0312 -0.0923  0.2899
  744XCA     C6 6711  12.075   5.768   6.018  0.2708  0.0839  0.1512
  745PNCE   AM1 6712   3.852   8.700   4.210 -0.0987 -0.2283  0.1873
  745PNCE   AM2 6713   3.793   8.445   3.910  0.1685  0.1512 -0.1838
  745PNCE   T1A 6714   4.025   8.768   4.578  0.1594 -0.0281  0.0449
  745PNCE   C2A 6715   4.095   8.762   5.021 -0.0683 -0.1125  0.0681
  745PNCE   C3A 6716   4.331   8.708   5.490 -0.3011 -0.0263  0.1570
  745PNCE   C1B 6717   3.574   8.436   4.408  0.1572 -0.0781 -0.0258
  745PNCE   C2B 6718   3.470   8.686   4.778  0.2962 -0.0617  0.2528
  745PNCE   C3B 6719   3.345   8.723   5.193  0.0659 -0.0023 -0.1238
  745PNCE   D4B 6720   3.469   8.491   5.607  0.1386 -0.0051  0.0502
  745PNCE   C5B 6721   3.453   8.500   6.097  0.0314 -0.2328 -0.2807
  745PNCE   C6B 6722   3.457   8.702   6.514 -0.1443  0.0562  0.0256
  746PNCE   AM1 6723   7.236  10.774   4.750 -0.1961 -0.0069  0.2105
  746PNCE   AM2 6724   7.474  10.616   4.740  0.4212  0.0179  0.1044
  746PNCE   T1A 6725   6.989  10.416   4.766  0.2555  0.0226  0.1858
  746PNCE   C2A 6726   6.912   9.990   4.946 -0.3041 -0.1147  0.0004
  746PNCE   C3A 6727   6.458   9.941   4.986 -0.3430 -0.1302 -0.1723
  746PNCE   C1B 6728   7.361  10.298   5.117  0.2810 -0.1574 -0.0123
  746PNCE   C2B 6729   7.123  10.252   5.426 -0.0243  0.0398  0.0117
  746PNCE   C3B 6730   6.904   9.971   5.712  0.2061  0.2971 -0.0493
  746PNCE   D4B 6731   6.629   9.782   6.057 -0.0761  0.2427  0.3499
  746PNCE   C5B 6732   6.790   9.892   6.491  0.1747  0.0590 -0.0333
  746PNCE   C6B 6733   6.927   9.852   6.903  0.0469 -0.3842 -0.0331
  747XCA    COO 6734   4.065  15.026   8.656  0.2088  0.0350 -0.1393
  747XCA     C1 6735   4.187  15.346   8.450  0.2254  0.1023 -0.0265
  747XCA     C2 6736   4.316  15.506   8.224 -0.1140  0.2044 -0.0645
  747XCA     C3 6737   4.305  15.451   7.713  0.0183 -0.1545  0.2625
  747XCA     C4 6738   4.363  15.263   7.415 -0.0533  0.1459  0.3774
  747XCA     C5 6739   4.201  15.160   7.093 -0.2036 -0.2036 -0.0904
  747XCA     C6 6740   3.933  14.777   6.851  0.1017 -0.4704  0.0885
  748CHOL   ROH 6741   2.992   6.821   5.954  0.0482  0.0560  0.0980
  748CHOL    R1 6742   2.848   7.002   6.117 -0.1227  0.0429 -0.0339
  748CHOL    R2 6743   2.606   7.112   6.041 -0.1860 -0.1655 -0.1568
  748CHOL    R3 6744   2.521   7.010   6.278 -0.1713 -0.1049 -0.1260
  748CHOL    R4 6745   2.312   7.200   6.200 -0.1760 -0.1342 -0.1564
  748CHOL    R5 6746   2.419   7.195   6.390 -0.1677 -0.0836 -0.1654
  748CHOL    C1 6747   2.061   7.154   6.516 -0.1564 -0.0591 -0.1273
  748CHOL    C2 6748   1.755   6.955   6.539 -0.0999 -0.1284 -0.2847
  749PNCE   AM1 6749  13.177   0.119   4.980  0.0817  0.0271 -0.1265
  749PNCE   AM2 6750  13.407  -0.101   4.995  0.0127 -0.2199 -0.0397
  749PNCE   T1A 6751  12.903   0.261   5.324 -0.2783  0.2131 -0.0745
  749PNCE   C2A 6752  12.593   0.354   5.735  0.1749  0.0026  0.0267
  749PNCE   C3A 6753  12.452   0.774   5.863  0.3495  0.1482 -0.0894
  749PNCE   C1B 6754  13.660   0.346   5.108 -0.2519  0.2931 -0.0285
  749PNCE   C2B 6755  13.730   0.386   5.587  0.2387  0.1496 -0.2726
  749PNCE   C3B 6756  13.430   0.369   5.971  0.1896  0.2147  0.0302
  749PNCE   D4B 6757  13.429   0.368   6.374 -0.2836 -0.0219 -0.0887
  749PNCE   C5B 6758  13.130   0.495   6.565 -0.0499  0.0073 -0.1659
  749PNCE   C6B 6759  12.996   0.807   6.862 -0.1833 -0.0658  0.0727
  750XCA    COO 6760   4.261  12.219   4.615  0.2406  0.1929 -0.4759
  750XCA     C1 6761   4.058  12.082   5.060 -0.0831 -0.3944 -0.1919
  750XCA     C2 6762   4.064  12.013   5.438  0.1276 -0.0514  0.1015
  750XCA     C3 6763   3.857  12.099   5.820 -0.0265  0.1583  0.0375
  750XCA     C4 6764   3.509  12.396   6.006 -0.0486 -0.1849  0.2805
  750XCA     C5 6765   3.266  12.586   6.316 -0.0369 -0.0106  0.1473
  750XCA     C6 6766   3.248  12.984   6.434 -0.1183 -0.0720  0.2487
  751XCA    COO 6767   8.632   3.187   5.087 -0.1744 -0.0132 -0.0282
  751XCA     C1 6768   8.534   3.362   5.444 -0.1173  0.1687  0.1018
  751XCA     C2 6769   8.616   3.291   5.833 -0.1606  0.1953 -0.0879
  751XCA     C3 6770   8.755   3.010   6.171  0.0551  0.0604  0.1791
  751XCA     C4 6771   8.763   2.853   6.512  0.0129 -0.3261 -0.2195
  751XCA     C5 6772   8.618   2.652   6.833  0.0668 -0.0579  0.0941
  751XCA     C6 6773   8.314   2.619   7.151 -0.0923 -0.1958 -0.1719
  752PNCE   AM1 6774  14.291   7.417   4.663 -0.1794  0.1469 -0.2963
  752PNCE   AM2 6775  14.169   7.680   4.513 -0.0849  0.1549 -0.1469
  752PNCE   T1A 6776  14.401   7.479   5.147  0.4326 -0.1898  0.1369
  752PNCE   C2A 6777  14.738   7.460   5.420  0.1837  0.2435  0.0136
  752PNCE   C3A 6778  14.813   7.459   5.891 -0.0990 -0.2847  0.0211
  752PNCE   C1B 6779  14.115   8.031   4.753 -0.1339 -0.0329 -0.0122
  752PNCE   C2B 6780  14.133   8.469   4.835 -0.0807  0.0781 -0.1352
  752PNCE   C3B 6781  14.059   8.914   5.008 -0.1520  0.1204 -0.0922
  752PNCE   D4B 6782  14.089   9.223   5.227 -0.0841 -0.1309 -0.2120
  752PNCE   C5B 6783  14.392   9.143   5.537 -0.1831 -0.1211  0.0651
  752PNCE   C6B 6784  14.526   9.295   5.895  0.1115  0.1395  0.1652
  753PNCE   AM1 6785   8.824   4.439   4.683  0.3203 -0.2346 -0.0677
  753PNCE   AM2 6786   8.873   4.123   4.795  0.0191 -0.1591  0.2161
  753PNCE   T1A 6787   8.428   4.509   4.685 -0.0080  0.0406  0.0306
  753PNCE   C2A 6788   8.026   4.743   4.603 -0.1196  0.0565 -0.2023
  753PNCE   C3A 6789   7.760   5.010   4.658  0.0926 -0.2041  0.1569
  753PNCE   C1B 6790   8.803   4.195   5.197 -0.0150 -0.1339 -0.0648
  753PNCE   C2B 6791   8.600   4.237   5.493 -0.3006  0.0014 -0.3590
  753PNCE   C3B 6792   8.587   4.184   5.960  0.2634  0.1762 -0.2710
  753PNCE   D4B 6793   8.561   4.096   6.462 -0.2238 -0.3436  0.0015
  753PNCE   C5B 6794   8.411   4.409   6.713 -0.1031  0.0431  0.0140
  753PNCE   C6B 6795   8.673   4.823   6.767  0.0808  0.2953  0.1148
  754XCA    COO 6796   4.299  11.840   8.046 -0.0399  0.2287 -0.2467
  754XCA     C1 6797   4.384  11.716   7.554  0.1110 -0.1776 -0.2519
  754XCA     C2 6798   4.214  11.812   7.140  0.0352  0.0177  0.0489
  754XCA     C3 6799   3.942  11.669   6.767 -0.2206 -0.3665  0.0677
  754XCA     C4 6800   3.964  11.759   6.333 -0.1006  0.3409  0.0129
  754XCA     C5 6801   3.823  11.470   5.979 -0.2433  0.1045 -0.0493
  754XCA     C6 6802   3.982  11.544   5.501 -0.0975  0.1231 -0.0291
  755PNCE   AM1 6803   0.410  13.161   8.625  0.0184 -0.1558 -0.0422
  755PNCE   AM2 6804   0.635  12.988   8.655 -0.0679  0.0446  0.0871
  755PNCE   T1A 6805   0.408  13.014   8.179 -0.0546  0.0325 -0.0633
  755PNCE   C2A 6806   0.388  13.143   7.742 -0.0231 -0.2585 -0.2088
  755PNCE   C3A 6807   0.366  13.263   7.409 -0.0123 -0.0389 -0.2011
  755PNCE   C1B 6808   0.888  13.151   8.285  0.2429  0.4129 -0.1300
  755PNCE   C2B 6809   0.910  13.290   8.016 -0.2313 -0.0501 -0.0801
  755PNCE   C3B 6810   1.028  13.241   7.560 -0.2712 -0.0723  0.1440
  755PNCE   D4B 6811   0.880  13.109   7.121  0.1690 -0.0873  0.0629
  755PNCE   C5B 6812   1.191  12.952   6.881  0.1004  0.6581 -0.1671
  755PNCE   C6B 6813   1.391  13.101   6.576 -0.0457  0.1112  0.3572
  756CHOL   ROH 6814   1.769  15.104   8.745 -0.0960  0.0664 -0.1299
  756CHOL    R1 6815   1.864  15.195   8.494 -0.1196  0.1741 -0.1010
  756CHOL    R2 6816   1.937  15.023   8.290  0.1120  0.2512 -0.0934
  756CHOL    R3 6817   1.760  15.170   8.147 -0.0040  0.0795 -0.1283
  756CHOL    R4 6818   1.912  15.022   7.946  0.1763  0.2369 -0.0974
  756CHOL    R5 6819   1.882  15.238   7.952 -0.0359  0.2031 -0.1015
  756CHOL    C1 6820   1.732  15.161   7.610  0.1049  0.0672 -0.1326
  756CHOL    C2 6821   1.593  15.229   7.248 -0.2483  0.3852 -0.0674
  757CHOL   ROH 6822   6.790   1.784   6.114  0.0225  0.0204  0.0767
  757CHOL    R1 6823   6.858   1.920   6.352 -0.0938 -0.0120  0.1298
  757CHOL    R2 6824   6.727   1.876   6.591 -0.1437 -0.1207  0.0872
  757CHOL    R3 6825   6.978   1.830   6.684 -0.1507 -0.0499  0.1392
  757CHOL    R4 6826   6.805   1.784   6.916 -0.1725 -0.0199  0.1221
  757CHOL    R5 6827   6.977   1.918   6.907 -0.1984  0.0070  0.1138
  757CHOL    C1 6828   7.086   1.688   7.191 -0.1959  0.1051  0.1914
  757CHOL    C2 6829   7.095   1.469   7.521 -0.0054  0.1786 -0.0177
  758CHOL   ROH 6830   6.932   0.095   9.077  0.2021 -0.0475  0.0130
  758CHOL    R1 6831   6.900   0.202   8.817  0.1341 -0.0589  0.0170
  758CHOL    R2 6832   7.105   0.330   8.682  0.0840 -0.0227 -0.0215
  758CHOL    R3 6833   7.047   0.148   8.489  0.0842 -0.0363 -0.0097
  758CHOL    R4 6834   7.224   0.342   8.358  0.0569 -0.0238 -0.0321
  758CHOL    R5 6835   7.028   0.278   8.289  0.0556 -0.0448 -0.0136
  758CHOL    C1 6836   7.240   0.178   7.988  0.0413 -0.0372 -0.0272
  758CHOL    C2 6837   7.437   0.132   7.922  0.1286 -0.0680 -0.0147
  759CHOL   ROH 6838  14.668  14.121   6.380 -0.0392  0.0294  0.0272
  759CHOL    R1 6839  14.722  13.870   6.499 -0.1628 -0.0184 -0.0197
  759CHOL    R2 6840  14.557  13.651   6.467 -0.0237 -0.0579 -0.4523
  759CHOL    R3 6841  14.786  13.531   6.384  0.1777  0.0679 -0.1040
  759CHOL    R4 6842  14.624  13.313   6.493  0.0624 -0.0420 -0.4452
  759CHOL    R5 6843  14.829  13.363   6.549 -0.0393  0.0301 -0.0740
  759CHOL    C1 6844  14.879  13.004   6.431  0.3015  0.0854 -0.1142
  759CHOL    C2 6845  15.101  12.676   6.490  0.1597 -0.0294  0.2580
  760CHOL   ROH 6846  12.093  15.302   5.520 -0.0930 -0.3786 -0.0910
  760CHOL    R1 6847  12.024  15.351   5.790  0.0068 -0.1052 -0.1102
  760CHOL    R2 6848  11.934  15.151   5.959 -0.0533  0.0872  0.0932
  760CHOL    R3 6849  12.138  15.237   6.117  0.0367  0.1189 -0.0407
  760CHOL    R4 6850  11.964  15.084   6.297  0.1235  0.1660  0.0930
  760CHOL    R5 6851  12.033  15.289   6.326  0.1488  0.1729  0.0043
  760CHOL    C1 6852  12.172  15.126   6.642  0.3110  0.2417 -0.0328
  760CHOL    C2 6853  11.849  15.068   6.766 -0.0717 -0.0685 -0.1523
  761CHOL   ROH 6854   6.451   5.347   6.534 -0.0337  0.0002 -0.1748
  761CHOL    R1 6855   6.434   5.544   6.736 -0.0253  0.0190 -0.1929
  761CHOL    R2 6856   6.211   5.574   6.897 -0.0210  0.0396 -0.1936
  761CHOL    R3 6857   6.392   5.550   7.098 -0.0201  0.0546 -0.1922
  761CHOL    R4 6858   6.151   5.657   7.227 -0.1018 -0.1568 -0.1570
  761CHOL    R5 6859   6.353   5.741   7.237 -0.1521 -0.0345 -0.1019
  761CHOL    C1 6860   6.287   5.683   7.608 -0.1481 -0.2571 -0.1344
  761CHOL    C2 6861   6.363   5.882   8.008 -0.3125 -0.1855  0.2282
  762PNCE   AM1 6862   7.225   1.632   5.582  0.0624  0.1420  0.1511
  762PNCE   AM2 6863   7.153   1.969   5.497  0.1200 -0.1434  0.0237
  762PNCE   T1A 6864   7.263   1.690   6.038 -0.3186 -0.1319  0.0716
  762PNCE   C2A 6865   7.228   1.571   6.340  0.0169 -0.2197  0.0110
  762PNCE   C3A 6866   7.372   1.638   6.727  0.1309  0.3158  0.1687
  762PNCE   C1B 6867   7.191   2.156   5.969 -0.2149  0.0620 -0.3505
  762PNCE   C2B 6868   7.227   2.234   6.400  0.0011  0.0155 -0.0957
  762PNCE   C3B 6869   7.279   2.272   6.830 -0.0680  0.2420  0.5248
  762PNCE   D4B 6870   7.462   2.500   7.142 -0.0209 -0.0487 -0.0904
  762PNCE   C5B 6871   7.382   2.501   7.530 -0.1761 -0.0105  0.0840
  762PNCE   C6B 6872   7.054   2.316   7.761  0.4137  0.0214 -0.1081
  763PNCE   AM1 6873   5.792  12.355   5.322  0.3098 -0.2109 -0.1161
  763PNCE   AM2 6874   6.104  12.336   5.277  0.0081 -0.3105 -0.0390
  763PNCE   T1A 6875   6.062  12.102   5.710 -0.0068 -0.0119 -0.3251
  763PNCE   C2A 6876   6.319  12.195   6.095 -0.0751  0.1021 -0.1144
  763PNCE   C3A 6877   6.637  12.351   6.322 -0.1632 -0.0593  0.3340
  763PNCE   C1B 6878   5.896  12.700   5.642 -0.3281  0.0131  0.0511
  763PNCE   C2B 6879   5.830  12.590   6.088  0.0482 -0.0479  0.1527
  763PNCE   C3B 6880   5.554  12.549   6.513  0.0983  0.0237  0.0305
  763PNCE   D4B 6881   5.603  12.397   6.960  0.3309 -0.1512  0.2846
  763PNCE   C5B 6882   5.510  11.936   7.110 -0.0762  0.0198 -0.0461
  763PNCE   C6B 6883   5.688  11.532   7.126 -0.0487  0.3180  0.3625
  764CHOL   ROH 6884   3.391   7.808   9.011  0.0810 -0.1621  0.0558
  764CHOL    R1 6885   3.482   7.885   8.755  0.0623 -0.1827  0.0416
  764CHOL    R2 6886   3.750   7.882   8.685  0.0809 -0.0215  0.0770
  764CHOL    R3 6887   3.661   7.728   8.480  0.2077 -0.1543  0.1214
  764CHOL    R4 6888   3.885   7.880   8.367 -0.0656  0.1599  0.0120
  764CHOL    R5 6889   3.683   7.868   8.287 -0.0833 -0.1316  0.1062
  764CHOL    C1 6890   3.881   7.734   7.989 -0.0319  0.1408  0.0159
  764CHOL    C2 6891   4.110   7.894   7.757  0.4509 -0.0374 -0.1100
  765PNCE   AM1 6892   8.092  12.330   4.749 -0.4063 -0.3666 -0.2424
  765PNCE   AM2 6893   8.239  12.446   4.820  0.2763 -0.1416 -0.2765
  765PNCE   T1A 6894   7.830  12.268   5.112 -0.1307  0.0936 -0.2576
  765PNCE   C2A 6895   7.681  12.432   5.600  0.0639 -0.2366  0.3115
  765PNCE   C3A 6896   7.471  12.659   5.872  0.2366  0.0103  0.2111
  765PNCE   C1B 6897   8.268  12.350   5.257 -0.0046 -0.0666  0.1860
  765PNCE   C2B 6898   8.105  12.218   5.654 -0.3408 -0.2425  0.3629
  765PNCE   C3B 6899   8.209  12.182   6.058 -0.2440 -0.1765  0.1282
  765PNCE   D4B 6900   8.361  12.041   6.548  0.2002 -0.1353  0.1134
  765PNCE   C5B 6901   8.849  12.032   6.624 -0.2796 -0.2296 -0.3876
  765PNCE   C6B 6902   9.134  12.285   6.671 -0.0649  0.1762 -0.3845
  766PNCE   AM1 6903  15.365  11.885   4.931  0.0146  0.0119  0.0824
  766PNCE   AM2 6904  15.088  11.752   4.863  0.2421 -0.2344 -0.0562
  766PNCE   T1A 6905  15.714  11.728   5.179  0.3421 -0.0851 -0.0230
  766PNCE   C2A 6906  15.759  11.460   5.444  0.0550 -0.1312 -0.0276
  766PNCE   C3A 6907  16.003  11.256   5.680  0.0216  0.1292  0.1581
  766PNCE   C1B 6908  15.008  11.320   4.885 -0.2228 -0.0562  0.0202
  766PNCE   C2B 6909  15.154  10.900   4.987 -0.2016 -0.1592 -0.2402
  766PNCE   C3B 6910  15.400  10.527   5.300 -0.0528 -0.1274  0.2444
  766PNCE   D4B 6911  15.728  10.203   5.526  0.1634 -0.0684  0.1024
  766PNCE   C5B 6912  15.520  10.117   5.820  0.3246 -0.0882  0.3406
  766PNCE   C6B 6913  15.458  10.452   5.944 -0.1165  0.2691  0.1916
  767CHOL   ROH 6914   5.944   2.695   6.009 -0.1483  0.0340 -0.0331
  767CHOL    R1 6915   5.746   2.836   6.153 -0.0726  0.0022  0.1032
  767CHOL    R2 6916   5.476   2.782   6.126 -0.1041  0.2077  0.0086
  767CHOL    R3 6917   5.488   2.754   6.396 -0.1547 -0.1052 -0.0176
  767CHOL    R4 6918   5.201   2.772   6.335 -0.1397  0.1679 -0.0399
  767CHOL    R5 6919   5.311   2.895   6.478 -0.0670 -0.0676  0.1160
  767CHOL    C1 6920   5.051   2.739   6.710 -0.2081 -0.1490 -0.0927
  767CHOL    C2 6921   4.987   2.990   7.086  0.0212  0.2502 -0.0749
  768XCA    COO 6922   7.426   7.450   4.186  0.2485  0.0615  0.1031
  768XCA     C1 6923   7.669   7.322   4.619  0.0546 -0.1604  0.1465
  768XCA     C2 6924   7.661   7.059   4.976 -0.1296 -0.0405  0.1947
  768XCA     C3 6925   7.453   6.827   5.272 -0.0578 -0.0662 -0.3538
  768XCA     C4 6926   7.366   6.837   5.625 -0.2855  0.1100 -0.0075
  768XCA     C5 6927   7.094   7.032   5.941  0.2162 -0.0886  0.1767
  768XCA     C6 6928   6.952   7.147   6.299  0.2643  0.2068  0.3166
  769XCA    COO 6929   5.294  12.488   4.863 -0.0361 -0.0724  0.0471
  769XCA     C1 6930   5.347  12.526   5.287 -0.0490  0.2332  0.1572
  769XCA     C2 6931   5.437  12.617   5.794 -0.2603 -0.3191  0.0368
  769XCA     C3 6932   5.130  12.513   6.217  0.2531 -0.2517 -0.2990
  769XCA     C4 6933   5.083  12.113   6.517 -0.1301 -0.1483  0.0167
  769XCA     C5 6934   4.860  12.124   6.756  0.0794  0.1280  0.0260
  769XCA     C6 6935   4.459  12.247   6.963 -0.1159  0.1240 -0.2682
  770PNCE   AM1 6936  15.064  12.281   4.962 -0.1326 -0.2296  0.4063
  770PNCE   AM2 6937  14.891  12.444   4.885  0.1896 -0.1389 -0.0879
  770PNCE   T1A 6938  15.407  12.630   5.139 -0.0434  0.0264 -0.0553
  770PNCE   C2A 6939  15.652  12.996   5.116  0.1363 -0.2192 -0.0629
  770PNCE   C3A 6940  16.032  13.188   4.843 -0.2465  0.4507  0.1211
  770PNCE   C1B 6941  14.981  12.482   5.462 -0.0062 -0.1201  0.1787
  770PNCE   C2B 6942  15.369  12.729   5.603  0.0576 -0.3447  0.1118
  770PNCE   C3B 6943  15.656  12.805   5.944 -0.4405 -0.0648 -0.0608
  770PNCE   D4B 6944  15.871  12.410   6.214 -0.1522 -0.2241  0.4656
  770PNCE   C5B 6945  16.030  12.147   6.484  0.0787  0.1714 -0.0294
  770PNCE   C6B 6946  16.283  11.772   6.551 -0.0867 -0.0570  0.0533
  771PNCE   AM1 6947   3.772   0.882   5.018 -0.1286 -0.2956 -0.1070
  771PNCE   AM2 6948   4.025   1.035   4.888  0.0304 -0.0873  0.0717
  771PNCE   T1A 6949   3.543   0.945   5.416  0.0983  0.2705 -0.2683
  771PNCE   C2A 6950   3.416   1.010   5.807  0.1215  0.0670 -0.0873
  771PNCE   C3A 6951   3.450   0.967   6.146  0.0319  0.0525  0.1081
  771PNCE   C1B 6952   4.264   0.985   5.324 -0.1310  0.1656  0.0748
  771PNCE   C2B 6953   4.270   0.917   5.643  0.1343 -0.2662 -0.2624
  771PNCE   C3B 6954   4.465   1.008   6.127 -0.3347 -0.1262 -0.0006
  771PNCE   D4B 6955   4.303   1.386   6.506 -0.1120  0.2963 -0.2261
  771PNCE   C5B 6956   3.930   1.500   6.393 -0.0055 -0.3138 -0.0396
  771PNCE   C6B 6957   3.602   1.433   6.200  0.1421  0.3219 -0.0707
  772CHOL   ROH 6958   6.307   1.364   8.594 -0.0207  0.4224  0.0026
  772CHOL    R1 6959   6.405   1.446   8.341  0.1396  0.2594  0.0093
  772CHOL    R2 6960   6.644   1.352   8.237  0.0440 -0.0713  0.0673
  772CHOL    R3 6961   6.487   1.286   8.025 -0.0068  0.1038  0.0497
  772CHOL    R4 6962   6.718   1.424   7.907  0.1117 -0.0743  0.0823
  772CHOL    R5 6963   6.508   1.472   7.875  0.1564  0.1123  0.0848
  772CHOL    C1 6964   6.614   1.403   7.516  0.1035  0.0883  0.0747
  772CHOL    C2 6965   6.580   1.507   7.220 -0.2413  0.2289 -0.0827
  773PNCE   AM1 6966   7.667   9.730   4.233  0.1860  0.3509 -0.2279
  773PNCE   AM2 6967   7.877   9.426   4.418 -0.3100  0.1048 -0.2567
  773PNCE   T1A 6968   8.066   9.905   4.150 -0.2150 -0.1483  0.0723
  773PNCE   C2A 6969   8.499   9.919   4.194 -0.2690 -0.3076 -0.0983
  773PNCE   C3A 6970   8.560  10.388   4.157  0.0861  0.0923 -0.0478
  773PNCE   C1B 6971   7.784   9.469   4.837 -0.1163  0.0230 -0.4937
  773PNCE   C2B 6972   7.801   9.435   5.306  0.2815 -0.0404 -0.1262
  773PNCE   C3B 6973   7.656   9.467   5.672 -0.1031 -0.0403  0.1377
  773PNCE   D4B 6974   7.610   9.654   5.999  0.0973  0.1300 -0.1739
  773PNCE   C5B 6975   7.922   9.574   6.408 -0.1583  0.1809  0.2794
  773PNCE   C6B 6976   8.376   9.388   6.192 -0.0424  0.2092  0.1667
  774CHOL   ROH 6977   4.085  13.208   6.394 -0.1924 -0.0166  0.0842
  774CHOL    R1 6978   4.056  13.052   6.628 -0.0211 -0.1125  0.0451
  774CHOL    R2 6979   4.240  12.859   6.702  0.1509  0.0041 -0.0478
  774CHOL    R3 6980   4.244  12.999   6.935  0.0877 -0.0561 -0.0128
  774CHOL    R4 6981   4.280  12.718   7.015 -0.0073 -0.0783 -0.0656
  774CHOL    R5 6982   4.130  12.857   7.091 -0.0043 -0.0662 -0.0937
  774CHOL    C1 6983   4.308  12.767   7.416 -0.1588 -0.1829 -0.0430
  774CHOL    C2 6984   4.240  12.639   7.713  0.1831 -0.2775 -0.0190
  775CHOL   ROH 6985   0.233   1.207   5.275 -0.0736 -0.0476  0.0579
  775CHOL    R1 6986   0.262   1.136   5.548  0.1044  0.1484  0.0927
  775CHOL    R2 6987   0.282   1.325   5.749 -0.1239  0.2990 -0.0172
  775CHOL    R3 6988   0.073   1.186   5.855  0.1056  0.0430  0.1097
  775CHOL    R4 6989   0.210   1.305   6.086 -0.0401  0.4093  0.0073
  775CHOL    R5 6990   0.161   1.094   6.058  0.2818  0.3123  0.1578
  775CHOL    C1 6991  -0.027   1.163   6.383  0.2242  0.2333  0.1408
  775CHOL    C2 6992  -0.375   1.358   6.553  0.0893  0.0082 -0.2210
  776CHOL   ROH 6993   9.573  14.233   5.100 -0.1106 -0.0651 -0.1286
  776CHOL    R1 6994   9.602  14.068   5.328  0.0545 -0.0273 -0.1210
  776CHOL    R2 6995   9.798  14.111   5.519  0.0407  0.1502 -0.1469
  776CHOL    R3 6996   9.587  14.112   5.689  0.0587 -0.0182 -0.1214
  776CHOL    R4 6997   9.814  14.031   5.855  0.1803  0.3080 -0.1148
  776CHOL    R5 6998   9.625  13.925   5.834  0.2931  0.0817 -0.0471
  776CHOL    C1 6999   9.625  13.986   6.210  0.2785  0.2418 -0.0721
  776CHOL    C2 7000   9.445  13.885   6.692 -0.1067 -0.0289 -0.0742
  777CHOL   ROH 7001  14.860   6.789   4.318  0.0399 -0.1494  0.0222
  777CHOL    R1 7002  14.801   6.966   4.530 -0.0460 -0.1153 -0.0264
  777CHOL    R2 7003  14.572   6.944   4.684 -0.0597 -0.1641 -0.0312
  777CHOL    R3 7004  14.749   6.940   4.890 -0.0639 -0.0516 -0.0280
  777CHOL    R4 7005  14.487   6.970   5.018 -0.0432 -0.0502 -0.0373
  777CHOL    R5 7006  14.661   7.097   5.047 -0.0778 -0.0163 -0.0870
  777CHOL    C1 7007  14.605   6.981   5.406 -0.0374  0.1218 -0.0379
  777CHOL    C2 7008  14.627   7.073   5.722  0.2089 -0.1462 -0.0411
  778PNCE   AM1 7009   0.300   1.591   8.533 -0.3325 -0.0365 -0.2527
  778PNCE   AM2 7010   0.155   1.916   8.655 -0.0429  0.2298  0.1776
  778PNCE   T1A 7011   0.317   1.695   8.089  0.0023  0.1055  0.2454
  778PNCE   C2A 7012   0.451   1.587   7.652 -0.0769 -0.0190 -0.1129
  778PNCE   C3A 7013   0.673   1.208   7.408  0.2674 -0.3903 -0.1253
  778PNCE   C1B 7014   0.142   2.100   8.211  0.0072  0.1656  0.0280
  778PNCE   C2B 7015   0.199   2.059   7.730 -0.0128  0.3126 -0.0311
  778PNCE   C3B 7016  -0.047   2.049   7.398  0.2148  0.1277 -0.1672
  778PNCE   D4B 7017  -0.104   1.846   6.907  0.2186 -0.1810  0.0687
  778PNCE   C5B 7018  -0.023   2.075   6.519 -0.1485 -0.3202  0.0071
  778PNCE   C6B 7019  -0.195   2.410   6.290  0.2613 -0.1404 -0.1648
  779XCA    COO 7020  14.392  12.109   7.841 -0.1382  0.1698  0.1656
  779XCA     C1 7021  14.138  12.229   7.405 -0.0263 -0.0184 -0.0807
  779XCA     C2 7022  14.299  12.502   7.051 -0.1701  0.1497 -0.0497
  779XCA     C3 7023  14.161  12.821   6.811 -0.1261 -0.1415 -0.1180
  779XCA     C4 7024  13.964  12.834   6.426  0.1028  0.0086 -0.1376
  779XCA     C5 7025  13.779  12.952   5.963 -0.0531  0.1247 -0.0836
  779XCA     C6 7026  13.767  13.440   5.915 -0.0508  0.0599 -0.0631
  780PNCE   AM1 7027  11.232   4.047   5.174  0.0671  0.0623 -0.2700
  780PNCE   AM2 7028  11.001   3.859   5.194  0.1241 -0.0979 -0.0848
  780PNCE   T1A 7029  11.608   4.284   4.960  0.2542 -0.0529  0.2526
  780PNCE   C2A 7030  11.926   4.621   4.933 -0.0773  0.0026  0.2790
  780PNCE   C3A 7031  12.149   4.835   4.646 -0.1891 -0.2675 -0.1467
  780PNCE   C1B 7032  11.055   3.773   5.673  0.3696 -0.3078 -0.2921
  780PNCE   C2B 7033  10.816   3.682   6.035 -0.0068  0.3304 -0.2930
  780PNCE   C3B 7034  10.686   3.607   6.433  0.1001  0.0995  0.1042
  780PNCE   D4B 7035  10.511   3.587   6.858  0.2343  0.1293  0.0625
  780PNCE   C5B 7036  10.105   3.482   6.897  0.0395 -0.0326  0.1603
  780PNCE   C6B 7037   9.812   3.540   7.043  0.1577  0.1578  0.1380
  781PNCE   AM1 7038   5.710   0.923   4.781 -0.0412 -0.3941  0.1004
  781PNCE   AM2 7039   5.634   0.493   4.851 -0.0624 -0.2535  0.2393
  781PNCE   T1A 7040   5.722   1.196   5.146 -0.3793 -0.1149  0.1856
  781PNCE   C2A 7041   5.631   1.460   5.506  0.0107 -0.2537 -0.0664
  781PNCE   C3A 7042   5.469   1.495   5.938  0.2211 -0.0716 -0.2010
  781PNCE   C1B 7043   5.426   0.607   5.339  0.0447 -0.0022  0.4269
  781PNCE   C2B 7044   5.208   0.955   5.471  0.0765 -0.0447  0.0909
  781PNCE   C3B 7045   5.104   1.067   5.862 -0.0255  0.1921  0.0542
  781PNCE   D4B 7046   4.986   1.004   6.305 -0.5531 -0.1568  0.1236
  781PNCE   C5B 7047   4.712   0.740   6.479 -0.2182  0.0978 -0.0251
  781PNCE   C6B 7048   4.712   0.447   6.741  0.0310 -0.0832  0.1459
  782PNCE   AM1 7049   3.326   6.430   4.380  0.3579  0.0078  0.0963
  782PNCE   AM2 7050   3.398   6.218   4.548  0.1618 -0.0877 -0.1453
  782PNCE   T1A 7051   2.984   6.379   4.796  0.0198  0.1169 -0.0875
  782PNCE   C2A 7052   2.861   6.342   5.246 -0.0214  0.2588  0.1921
  782PNCE   C3A 7053   2.812   6.410   5.690 -0.1794  0.2428  0.1736
  782PNCE   C1B 7054   3.484   6.392   4.881 -0.1187  0.2488  0.0291
  782PNCE   C2B 7055   3.708   6.585   5.264 -0.0435 -0.1799 -0.4119
  782PNCE   C3B 7056   3.816   7.005   5.543  0.0842 -0.0741  0.0115
  782PNCE   D4B 7057   4.257   7.012   5.781  0.2020  0.0978  0.2289
  782PNCE   C5B 7058   4.251   6.811   6.124  0.0972  0.1815 -0.1601
  782PNCE   C6B 7059   4.208   6.415   6.382  0.1558 -0.1272  0.0294
  783PNCE   AM1 7060   1.951   2.733   8.749  0.2017  0.3537 -0.1163
  783PNCE   AM2 7061   2.138   2.694   8.552  0.1571  0.2319 -0.1509
  783PNCE   T1A 7062   1.627   2.874   8.459 -0.1707 -0.1268 -0.0301
  783PNCE   C2A 7063   1.456   3.173   8.031 -0.0348 -0.1992  0.0593
  783PNCE   C3A 7064   1.373   3.439   7.612 -0.1420  0.0930  0.0956
  783PNCE   C1B 7065   2.389   2.493   8.236 -0.0342  0.0727 -0.4011
  783PNCE   C2B 7066   2.495   2.422   7.856  0.0776 -0.0649  0.1068
  783PNCE   C3B 7067   2.671   2.180   7.409  0.0885  0.0453  0.1005
  783PNCE   D4B 7068   2.411   2.287   6.952 -0.3754 -0.1403  0.0889
  783PNCE   C5B 7069   2.453   2.629   6.833 -0.0557  0.1304  0.0251
  783PNCE   C6B 7070   2.549   3.068   6.623 -0.0484  0.0042 -0.2088
  784CHOL   ROH 7071   2.216   9.479   5.627  0.0022 -0.1494 -0.1031
  784CHOL    R1 7072   2.158   9.658   5.416  0.1616 -0.1229 -0.1261
  784CHOL    R2 7073   1.970   9.859   5.439 -0.0254 -0.2687 -0.3179
  784CHOL    R3 7074   2.177  10.018   5.362 -0.0289 -0.0896  0.0244
  784CHOL    R4 7075   1.936  10.164   5.280 -0.0225 -0.2278 -0.2398
  784CHOL    R5 7076   2.106  10.111   5.153  0.1880 -0.0564 -0.0354
  784CHOL    C1 7077   2.111  10.491   5.116 -0.0242 -0.0359  0.1269
  784CHOL    C2 7078   1.823  10.828   5.035  0.3890  0.0878 -0.0880
  785PNCE   AM1 7079   8.139  14.881   5.081 -0.0439 -0.0653  0.0027
  785PNCE   AM2 7080   8.238  14.518   4.997 -0.1165 -0.2076 -0.1252
  785PNCE   T1A 7081   8.559  14.702   5.441 -0.3098  0.0185  0.1380
  785PNCE   C2A 7082   8.689  14.551   5.774  0.1049 -0.3154  0.0775
  785PNCE   C3A 7083   8.906  14.581   6.110  0.2618 -0.1749  0.0757
  785PNCE   C1B 7084   8.109  14.554   5.521 -0.2370 -0.1692  0.1460
  785PNCE   C2B 7085   7.886  14.388   5.869  0.0655  0.3255 -0.0425
  785PNCE   C3B 7086   7.790  14.339   6.165 -0.3441 -0.6010  0.0010
  785PNCE   D4B 7087   7.348  14.454   6.383  0.1408 -0.0619 -0.0141
  785PNCE   C5B 7088   7.290  14.094   6.650  0.0662 -0.2659 -0.1275
  785PNCE   C6B 7089   7.200  13.934   6.975  0.2596 -0.2407 -0.1669
  786XCA    COO 7090   2.331   9.620   8.116 -0.0561  0.0188  0.0994
  786XCA     C1 7091   2.537   9.645   7.778 -0.1138 -0.1249  0.1517
  786XCA     C2 7092   3.001   9.687   7.582  0.1548 -0.0335  0.0046
  786XCA     C3 7093   3.233   9.600   7.331 -0.1226 -0.1546 -0.1871
  786XCA     C4 7094   3.386   9.425   6.878 -0.0404  0.2064 -0.1118
  786XCA     C5 7095   3.472   9.194   6.522  0.1462 -0.3041 -0.1576
  786XCA     C6 7096   3.888   9.092   6.588  0.1057 -0.0956 -0.2927
  787CHOL   ROH 7097   5.563  11.262   8.033  0.0776  0.0497 -0.0361
  787CHOL    R1 7098   5.542  11.141   7.778  0.1230  0.0975 -0.0624
  787CHOL    R2 7099   5.655  11.251   7.551  0.3385  0.0352  0.0146
  787CHOL    R3 7100   5.771  11.006   7.530  0.1553 -0.0566  0.0492
  787CHOL    R4 7101   5.616  11.036   7.283  0.1449  0.0093  0.0615
  787CHOL    R5 7102   5.605  10.870   7.424  0.0393  0.0443  0.0973
  787CHOL    C1 7103   5.702  10.681   7.107 -0.1397 -0.0919  0.1214
  787CHOL    C2 7104   5.512  10.483   6.945 -0.0809  0.2045 -0.0194
  788CHOL   ROH 7105   0.994   3.524   4.341 -0.0222 -0.1374  0.0275
  788CHOL    R1 7106   1.056   3.617   4.601  0.0040  0.0745 -0.0531
  788CHOL    R2 7107   0.877   3.761   4.754 -0.1018 -0.0892 -0.0277
  788CHOL    R3 7108   0.927   3.567   4.938  0.2625  0.0670  0.0488
  788CHOL    R4 7109   0.794   3.781   5.089 -0.4295 -0.2218 -0.0970
  788CHOL    R5 7110   0.985   3.687   5.137 -0.2048  0.2790  0.0757
  788CHOL    C1 7111   0.792   3.610   5.457 -0.2782 -0.1524 -0.0655
  788CHOL    C2 7112   0.880   3.727   5.877 -0.0534 -0.0138 -0.0305
  789XCA    COO 7113   2.000  15.499   5.151 -0.0982 -0.1052  0.0797
  789XCA     C1 7114   1.956  15.865   5.261  0.0369 -0.3191  0.0710
  789XCA     C2 7115   1.914  16.233   5.224  0.1896  0.2333  0.0650
  789XCA     C3 7116   2.032  16.457   5.504  0.0391  0.1069  0.2185
  789XCA     C4 7117   1.721  16.550   5.975 -0.3501 -0.0683 -0.0612
  789XCA     C5 7118   1.355  16.594   6.260 -0.0362 -0.0633  0.0423
  789XCA     C6 7119   1.112  16.892   6.232  0.1053 -0.0533 -0.0095
  790XCA    COO 7120  15.602   6.306   8.485  0.1465  0.1889  0.1783
  790XCA     C1 7121  15.769   6.121   7.993  0.3540  0.0689  0.2631
  790XCA     C2 7122  15.918   5.978   7.627 -0.0242  0.1458 -0.0513
  790XCA     C3 7123  16.264   5.601   7.333  0.1056 -0.1333  0.1297
  790XCA     C4 7124  16.207   5.219   7.315  0.1611  0.3441  0.2063
  790XCA     C5 7125  16.317   4.993   6.959 -0.2622  0.0014  0.2510
  790XCA     C6 7126  16.201   4.649   6.636  0.0471  0.0184 -0.0986
  791CHOL   ROH 7127  14.246   4.239   5.199 -0.0434 -0.2317  0.3535
  791CHOL    R1 7128  14.469   4.075   5.140  0.0417 -0.0416  0.1310
  791CHOL    R2 7129  14.713   4.178   5.061  0.0185  0.1997  0.3608
  791CHOL    R3 7130  14.807   4.031   5.269  0.0282 -0.1135  0.1428
  791CHOL    R4 7131  15.043   4.087   5.104  0.0864  0.4528  0.3931
  791CHOL    R5 7132  14.975   3.891   5.172  0.2377  0.2420 -0.0287
  791CHOL    C1 7133  15.324   3.896   5.325  0.1348  0.3063  0.2073
  791CHOL    C2 7134  15.690   3.778   5.196 -0.0749 -0.0655  0.1177
  792PNCE   AM1 7135   1.060  14.272   4.782 -0.1939  0.1318 -0.0989
  792PNCE   AM2 7136   0.704  14.131   4.709  0.1635  0.0068 -0.1449
  792PNCE   T1A 7137   1.108  14.212   5.213  0.1411  0.2457 -0.1235
  792PNCE   C2A 7138   1.245  14.064   5.586  0.1549  0.2189  0.0357
  792PNCE   C3A 7139   1.485  13.600   5.638  0.1245  0.0783 -0.1174
  792PNCE   C1B 7140   0.449  14.046   5.067  0.2607  0.1272 -0.0801
  792PNCE   C2B 7141   0.363  13.906   5.487 -0.0205  0.1432 -0.2553
  792PNCE   C3B 7142   0.404  13.760   5.925 -0.0933 -0.2486 -0.0906
  792PNCE   D4B 7143   0.207  13.461   6.076 -0.0824 -0.0284 -0.0184
  792PNCE   C5B 7144  -0.186  13.286   6.044  0.3345  0.0576  0.1345
  792PNCE   C6B 7145  -0.236  13.207   5.577  0.0133 -0.2096  0.0306
  793XCA    COO 7146   5.162   3.073   5.007 -0.2814  0.0547 -0.1754
  793XCA     C1 7147   5.437   3.028   5.369  0.1564 -0.2669  0.0500
  793XCA     C2 7148   5.389   3.073   5.797 -0.0627 -0.2572 -0.3635
  793XCA     C3 7149   5.049   3.071   6.049 -0.3031  0.4939  0.1990
  793XCA     C4 7150   4.784   2.967   6.342 -0.2684  0.0979 -0.0110
  793XCA     C5 7151   4.680   2.565   6.457 -0.0306 -0.1385  0.0259
  793XCA     C6 7152   4.489   2.118   6.674 -0.0866 -0.0802 -0.2260
  794CHOL   ROH 7153   5.125   7.014   5.447 -0.1932 -0.2941  0.1671
  794CHOL    R1 7154   5.294   7.177   5.605 -0.2080 -0.2099  0.0953
  794CHOL    R2 7155   5.331   7.137   5.876 -0.0582 -0.2047  0.0741
  794CHOL    R3 7156   5.594   7.132   5.807 -0.0851 -0.0553 -0.0476
  794CHOL    R4 7157   5.593   7.142   6.100  0.0354 -0.3586 -0.0294
  794CHOL    R5 7158   5.699   7.277   5.965 -0.0626 -0.1844  0.0604
  794CHOL    C1 7159   5.993   7.140   6.166  0.0647 -0.3079 -0.2039
  794CHOL    C2 7160   6.262   7.006   6.471  0.2659 -0.1776  0.0418
  795PNCE   AM1 7161  13.371  12.300   5.345  0.3788  0.0954 -0.0790
  795PNCE   AM2 7162  13.349  11.970   5.439 -0.0797  0.3238  0.2411
  795PNCE   T1A 7163  13.111  12.300   5.702  0.1968  0.0827  0.0612
  795PNCE   C2A 7164  13.156  12.209   6.117  0.1568  0.1030 -0.3636
  795PNCE   C3A 7165  12.898  12.197   6.475  0.2652 -0.0460  0.3504
  795PNCE   C1B 7166  13.479  11.684   5.787 -0.1379 -0.0841 -0.3575
  795PNCE   C2B 7167  13.531  11.798   6.277  0.1785  0.0462  0.0377
  795PNCE   C3B 7168  13.375  12.231   6.584 -0.2020 -0.0248 -0.0778
  795PNCE   D4B 7169  13.265  12.556   6.454 -0.2646 -0.0270 -0.2403
  795PNCE   C5B 7170  13.488  12.599   6.189 -0.1669 -0.0620  0.2741
  795PNCE   C6B 7171  13.587  12.372   5.850  0.0103 -0.0637 -0.2333
  796XCA    COO 7172   4.557   4.446   4.231 -0.0646 -0.2875  0.0083
  796XCA     C1 7173   4.660   4.390   4.697  0.1828  0.0156 -0.3999
  796XCA     C2 7174   4.435   4.305   4.994  0.0291  0.0760 -0.0119
  796XCA     C3 7175   4.140   4.193   5.303  0.1379  0.1350  0.0919
  796XCA     C4 7176   4.205   3.844   5.512 -0.1920  0.1445 -0.2175
  796XCA     C5 7177   4.124   3.424   5.704  0.2262 -0.0886 -0.2049
  796XCA     C6 7178   4.307   3.029   5.408 -0.0389 -0.0606  0.0082
  797XCA    COO 7179   8.779   1.740   5.629 -0.2393 -0.1810 -0.1992
  797XCA     C1 7180   8.626   1.708   5.952  0.1152 -0.1539 -0.1344
  797XCA     C2 7181   8.588   1.623   6.384  0.4006 -0.3963 -0.0315
  797XCA     C3 7182   8.507   1.670   6.781  0.1518 -0.3707 -0.0092
  797XCA     C4 7183   8.561   1.775   7.220  0.0876  0.0888 -0.1150
  797XCA     C5 7184   8.729   2.124   7.418  0.2312  0.0034  0.0721
  797XCA     C6 7185   8.707   2.489   7.605  0.0879 -0.0526 -0.0949
  798PNCE   AM1 7186   4.983   5.219   3.836  0.1990 -0.0025  0.0470
  798PNCE   AM2 7187   4.623   5.478   3.955 -0.1243  0.0159 -0.3080
  798PNCE   T1A 7188   5.096   5.432   4.291 -0.1846  0.0711 -0.1942
  798PNCE   C2A 7189   5.080   5.540   4.732 -0.2875 -0.2924 -0.2476
  798PNCE   C3A 7190   5.155   5.952   4.979  0.0379 -0.0113  0.1444
  798PNCE   C1B 7191   4.684   5.686   4.431 -0.1069  0.3763 -0.0912
  798PNCE   C2B 7192   4.665   5.885   4.903  0.0266  0.0678  0.0925
  798PNCE   C3B 7193   4.771   5.742   5.392  0.0081 -0.1876  0.1051
  798PNCE   D4B 7194   4.680   5.388   5.651  0.0665 -0.1973 -0.0998
  798PNCE   C5B 7195   4.486   5.065   5.544 -0.2519  0.0574  0.0380
  798PNCE   C6B 7196   4.142   4.631   5.615 -0.3050 -0.0390  0.0657
  799CHOL   ROH 7197   6.679  12.045   5.044  0.1771 -0.0130 -0.1882
  799CHOL    R1 7198   6.923  11.993   5.178  0.1278 -0.0622 -0.1189
  799CHOL    R2 7199   6.936  11.948   5.450  0.0444 -0.0304 -0.1139
  799CHOL    R3 7200   7.063  11.720   5.374  0.0070 -0.0753 -0.0468
  799CHOL    R4 7201   7.074  11.717   5.667  0.1813  0.1179 -0.0393
  799CHOL    R5 7202   7.243  11.697   5.531  0.1048  0.0378 -0.1335
  799CHOL    C1 7203   7.273  11.368   5.721  0.2258  0.1621  0.0672
  799CHOL    C2 7204   7.606  11.372   5.759 -0.3699  0.0201  0.1129
  800PNCE   AM1 7205   1.065   6.332   4.005 -0.3457 -0.0682  0.1237
  800PNCE   AM2 7206   1.370   6.475   4.132  0.0053 -0.1497 -0.1628
  800PNCE   T1A 7207   0.869   6.424   4.280  0.1633 -0.0846  0.0729
  800PNCE   C2A 7208   0.799   6.414   4.732 -0.1598  0.1754 -0.1627
  800PNCE   C3A 7209   0.861   6.338   5.162 -0.2096  0.1154  0.1884
  800PNCE   C1B 7210   1.373   6.349   4.471 -0.2824 -0.1079 -0.1182
  800PNCE   C2B 7211   1.331   6.488   4.921  0.0921 -0.1577  0.0793
  800PNCE   C3B 7212   1.352   6.310   5.350 -0.1911  0.1209  0.1438
  800PNCE   D4B 7213   1.303   6.105   5.759 -0.0782  0.2489  0.0046
  800PNCE   C5B 7214   1.133   6.297   6.056 -0.1486 -0.0960  0.0960
  800PNCE   C6B 7215   1.224   6.554   6.368  0.2052 -0.0471 -0.1611
  801CHOL   ROH 7216   2.758  12.391   6.140  0.1257 -0.0787  0.0683
  801CHOL    R1 7217   2.769  12.542   6.380  0.0802 -0.0294  0.0404
  801CHOL    R2 7218   2.577  12.523   6.577  0.0505 -0.0020  0.0176
  801CHOL    R3 7219   2.791  12.471   6.736  0.0313  0.0423  0.0571
  801CHOL    R4 7220   2.582  12.562   6.920  0.0181  0.1058  0.0056
  801CHOL    R5 7221   2.784  12.642   6.903  0.0201  0.0935  0.0020
  801CHOL    C1 7222   2.786  12.536   7.270 -0.0188  0.2104  0.0357
  801CHOL    C2 7223   2.796  12.535   7.582 -0.1401  0.0177 -0.1405
  802CHOL   ROH 7224   3.704  15.263   8.466  0.1076  0.0345 -0.1881
  802CHOL    R1 7225   3.703  15.466   8.268  0.1080 -0.0598 -0.2858
  802CHOL    R2 7226   3.897  15.662   8.255 -0.0800  0.1364 -0.1642
  802CHOL    R3 7227   3.922  15.575   7.999  0.2893  0.0400 -0.1012
  802CHOL    R4 7228   4.033  15.847   7.997 -0.3208  0.3077 -0.1727
  802CHOL    R5 7229   3.877  15.769   7.866 -0.0672 -0.1275 -0.2392
  802CHOL    C1 7230   4.136  15.873   7.606 -0.1144  0.3169 -0.1185
  802CHOL    C2 7231   3.979  16.107   7.438 -0.1636 -0.1566  0.0865
  803PNCE   AM1 7232   6.269   3.120   4.136  0.1589 -0.0646  0.0198
  803PNCE   AM2 7233   5.964   3.042   4.286  0.1099 -0.3057 -0.0540
  803PNCE   T1A 7234   6.249   3.482   4.363 -0.0361  0.0571  0.0174
  803PNCE   C2A 7235   6.369   3.771   4.684  0.2010 -0.0830  0.1697
  803PNCE   C3A 7236   6.502   3.842   5.127 -0.1012 -0.0044  0.0211
  803PNCE   C1B 7237   6.041   3.211   4.718  0.0071  0.0317 -0.1544
  803PNCE   C2B 7238   5.996   3.622   4.951 -0.1806  0.0011  0.1249
  803PNCE   C3B 7239   5.973   3.865   5.365  0.0069  0.1031 -0.1186
  803PNCE   D4B 7240   6.311   4.008   5.584  0.1312  0.0886  0.2698
  803PNCE   C5B 7241   6.646   4.234   5.371 -0.2292 -0.0288  0.1992
  803PNCE   C6B 7242   7.064   4.257   5.468  0.0284  0.1469 -0.0464
  804PNCE   AM1 7243   5.221   3.501   8.369 -0.0617 -0.1147 -0.0823
  804PNCE   AM2 7244   5.571   3.671   8.429  0.1292  0.3168 -0.1811
  804PNCE   T1A 7245   5.100   3.154   8.242 -0.0077 -0.1188 -0.1132
  804PNCE   C2A 7246   4.947   2.869   8.045  0.1562 -0.0096 -0.4058
  804PNCE   C3A 7247   5.021   2.495   7.976 -0.1552 -0.1506  0.2242
  804PNCE   C1B 7248   5.448   3.594   7.968 -0.3766  0.2977  0.1602
  804PNCE   C2B 7249   5.283   3.578   7.596 -0.1944 -0.0671  0.1005
  804PNCE   C3B 7250   5.368   3.510   7.164 -0.0566  0.1018 -0.1848
  804PNCE   D4B 7251   5.323   3.209   6.860  0.0858 -0.0404  0.3542
  804PNCE   C5B 7252   5.475   2.805   6.910  0.0218  0.1115  0.0174
  804PNCE   C6B 7253   5.604   2.671   7.269 -0.0766  0.2136  0.3142
  805XCA    COO 7254   0.216   4.098   4.208 -0.3784 -0.2314  0.0251
  805XCA     C1 7255   0.345   3.887   4.514  0.0627 -0.1809  0.1724
  805XCA     C2 7256   0.404   3.802   4.836  0.1894  0.2117  0.3639
  805XCA     C3 7257   0.319   3.683   5.262 -0.0872  0.0496 -0.0065
  805XCA     C4 7258   0.425   3.706   5.746  0.0287 -0.2805  0.0033
  805XCA     C5 7259   0.451   3.853   6.218  0.0276 -0.1875  0.0231
  805XCA     C6 7260   0.082   4.066   6.525  0.0681  0.0930 -0.1490
  806PNCE   AM1 7261   1.734  13.111   4.060  0.0223 -0.0049 -0.0192
  806PNCE   AM2 7262   1.704  13.269   4.357  0.2309  0.1981  0.0717
  806PNCE   T1A 7263   1.676  12.794   4.391  0.0786 -0.2570  0.4973
  806PNCE   C2A 7264   1.517  12.429   4.601  0.2050  0.0455  0.2496
  806PNCE   C3A 7265   1.449  12.227   4.966  0.2987  0.3131  0.4525
  806PNCE   C1B 7266   1.548  13.513   4.706  0.0647 -0.1178  0.2765
  806PNCE   C2B 7267   1.848  13.639   5.037  0.2248 -0.1050 -0.2972
  806PNCE   C3B 7268   2.233  13.682   5.259 -0.2376  0.0258  0.0997
  806PNCE   D4B 7269   2.267  13.725   5.680  0.1590 -0.4881 -0.1292
  806PNCE   C5B 7270   2.484  13.657   6.038 -0.1589  0.1277  0.4077
  806PNCE   C6B 7271   2.801  13.370   6.163  0.1914  0.3183 -0.2758
  807PNCE   AM1 7272   0.910  15.489   5.041  0.2263  0.2841 -0.3044
  807PNCE   AM2 7273   0.645  15.389   4.870 -0.1140  0.0230 -0.0379
  807PNCE   T1A 7274   0.684  15.699   5.325  0.4254 -0.0910 -0.1617
  807PNCE   C2A 7275   0.544  15.988   5.669  0.0126 -0.2041 -0.2089
  807PNCE   C3A 7276   0.300  15.782   6.001 -0.0403 -0.0892  0.1594
  807PNCE   C1B 7277   0.772  14.980   5.226  0.2404 -0.1041 -0.1404
  807PNCE   C2B 7278   0.678  14.764   5.610 -0.0368  0.3401  0.2700
  807PNCE   C3B 7279   0.560  14.561   6.041  0.0957 -0.0662 -0.1528
  807PNCE   D4B 7280   0.383  14.169   6.185 -0.2519  0.3053 -0.2397
  807PNCE   C5B 7281   0.076  14.095   5.911 -0.1070  0.1260  0.2632
  807PNCE   C6B 7282  -0.100  13.718   5.700  0.1943  0.0688  0.1094
  808PNCE   AM1 7283   8.363   0.303   9.303  0.1952  0.0894 -0.1806
  808PNCE   AM2 7284   8.550   0.168   9.551 -0.3483  0.1274 -0.2435
  808PNCE   T1A 7285   8.447   0.129   8.951 -0.0126 -0.0776  0.0835
  808PNCE   C2A 7286   8.602  -0.305   8.822  0.2055 -0.1385 -0.1572
  808PNCE   C3A 7287   8.641  -0.710   8.714 -0.0774 -0.3959 -0.1594
  808PNCE   C1B 7288   8.511  -0.156   9.341 -0.1057  0.0242 -0.0890
  808PNCE   C2B 7289   8.744  -0.582   9.282 -0.3747 -0.0778  0.1967
  808PNCE   C3B 7290   8.998  -0.948   9.256 -0.1930 -0.1949  0.5450
  808PNCE   D4B 7291   9.360  -0.995   9.026 -0.1530 -0.1070 -0.1916
  808PNCE   C5B 7292   9.448  -1.176   8.564  0.0408  0.0112  0.0534
  808PNCE   C6B 7293   9.201  -1.289   8.165 -0.1605 -0.1470 -0.0597
  809CHOL   ROH 7294   1.398   1.405   6.408  0.2159  0.0374  0.4116
  809CHOL    R1 7295   1.657   1.294   6.434  0.2300  0.0471  0.3130
  809CHOL    R2 7296   1.718   1.039   6.349  0.1407 -0.0429  0.5195
  809CHOL    R3 7297   1.914   1.167   6.211  0.0417 -0.1964  0.2290
  809CHOL    R4 7298   2.027   0.903   6.275  0.1160 -0.1016  0.5228
  809CHOL    R5 7299   2.117   1.097   6.318  0.1157 -0.0233  0.2091
  809CHOL    C1 7300   2.391   0.943   6.101  0.0087 -0.2799  0.2520
  809CHOL    C2 7301   2.768   0.984   6.256  0.3436  0.0096 -0.0558
  810PNCE   AM1 7302   6.565   2.736   4.383 -0.0571  0.0003 -0.0117
  810PNCE   AM2 7303   6.474   2.698   4.639  0.0873  0.0399 -0.2049
  810PNCE   T1A 7304   6.605   3.196   4.593 -0.0139  0.2559 -0.2147
  810PNCE   C2A 7305   6.497   3.403   4.970  0.0887  0.2948  0.0272
  810PNCE   C3A 7306   6.300   3.483   5.356 -0.1367 -0.0181  0.2118
  810PNCE   C1B 7307   6.461   2.865   5.026 -0.1271  0.3129 -0.6367
  810PNCE   C2B 7308   6.441   3.000   5.427  0.1664  0.1545  0.2352
  810PNCE   C3B 7309   6.651   2.676   5.748 -0.3040  0.0235 -0.2098
  810PNCE   D4B 7310   6.782   2.447   6.069 -0.1781 -0.1787  0.1345
  810PNCE   C5B 7311   7.018   2.686   6.465 -0.6121 -0.1009 -0.0630
  810PNCE   C6B 7312   7.024   2.689   6.883 -0.0301 -0.2214 -0.0493
  811PNCE   AM1 7313   2.834   4.453   4.274  0.1487  0.1237  0.0518
  811PNCE   AM2 7314   2.947   4.181   4.406 -0.0345 -0.0640  0.4185
  811PNCE   T1A 7315   3.127   4.621   4.571 -0.1020  0.1105  0.2396
  811PNCE   C2A 7316   3.441   4.471   4.976 -0.0343  0.1445  0.5037
  811PNCE   C3A 7317   3.739   4.464   5.335  0.1647 -0.2433 -0.0968
  811PNCE   C1B 7318   2.964   4.229   4.860 -0.0557 -0.3001  0.2368
  811PNCE   C2B 7319   3.042   4.192   5.202 -0.2492 -0.2590 -0.1231
  811PNCE   C3B 7320   3.188   4.015   5.541  0.1608  0.1074  0.2894
  811PNCE   D4B 7321   3.343   4.172   5.992  0.1865 -0.0033  0.0036
  811PNCE   C5B 7322   3.720   4.111   6.211 -0.0549 -0.3038 -0.1140
  811PNCE   C6B 7323   4.042   3.838   6.064 -0.1164  0.2998 -0.1750
  812CHOL   ROH 7324  10.205  15.800   7.363  0.2370 -0.0817 -0.0949
  812CHOL    R1 7325  10.041  15.976   7.215  0.1193 -0.0541  0.0669
  812CHOL    R2 7326  10.137  16.130   7.008 -0.0319  0.0308  0.0608
  812CHOL    R3 7327   9.935  16.012   6.869 -0.1015  0.0522  0.1425
  812CHOL    R4 7328  10.027  16.232   6.696 -0.1098  0.0155  0.0831
  812CHOL    R5 7329   9.822  16.195   6.762 -0.0985  0.0647  0.1561
  812CHOL    C1 7330   9.773  16.180   6.384 -0.2204  0.0267  0.1727
  812CHOL    C2 7331   9.867  16.238   5.909 -0.2420 -0.0013 -0.0412
  813PNCE   AM1 7332   8.449  10.754   4.500  0.3728 -0.0334 -0.3093
  813PNCE   AM2 7333   8.330  10.712   4.803 -0.2034 -0.2257 -0.1656
  813PNCE   T1A 7334   8.779  10.606   4.756 -0.0331  0.1710  0.0198
  813PNCE   C2A 7335   8.955  10.636   5.106  0.2382  0.4159  0.0653
  813PNCE   C3A 7336   9.304  10.704   5.280  0.2128 -0.1591 -0.0871
  813PNCE   C1B 7337   8.412  10.394   5.077  0.1478 -0.0634 -0.1713
  813PNCE   C2B 7338   8.659  10.242   5.421 -0.0475  0.4641  0.1893
  813PNCE   C3B 7339   8.844  10.351   5.845 -0.1450  0.2664  0.0089
  813PNCE   D4B 7340   8.980  10.590   6.174  0.2288 -0.1167 -0.2109
  813PNCE   C5B 7341   9.413  10.784   6.146  0.0869 -0.0966  0.0543
  813PNCE   C6B 7342   9.779  10.956   5.956  0.0752  0.1908 -0.2819
  814CHOL   ROH 7343  15.669   1.265   8.416 -0.2020 -0.2747  0.0528
  814CHOL    R1 7344  15.602   1.116   8.185 -0.3312 -0.1198 -0.0115
  814CHOL    R2 7345  15.427   1.210   7.992 -0.0500  0.2286 -0.1070
  814CHOL    R3 7346  15.634   1.157   7.825 -0.0357 -0.1171  0.0135
  814CHOL    R4 7347  15.394   1.104   7.665 -0.0395  0.4071 -0.1664
  814CHOL    R5 7348  15.561   0.968   7.697 -0.3225  0.0663 -0.1004
  814CHOL    C1 7349  15.569   0.994   7.317 -0.0199  0.1865 -0.0878
  814CHOL    C2 7350  15.708   1.126   7.022  0.0824  0.0067 -0.0753
  815XCA    COO 7351  12.378   4.668   8.981  0.2965  0.2145  0.2469
  815XCA     C1 7352  12.437   4.628   8.512  0.0116 -0.2155  0.0816
  815XCA     C2 7353  12.722   4.425   8.230  0.2633 -0.0592 -0.1015
  815XCA     C3 7354  12.976   4.466   7.891 -0.0352 -0.0149 -0.0953
  815XCA     C4 7355  12.995   4.425   7.413 -0.3279 -0.1363  0.1744
  815XCA     C5 7356  13.017   4.337   6.990 -0.0845 -0.2127 -0.2069
  815XCA     C6 7357  12.849   4.035   6.835 -0.0209 -0.1062  0.1944
  816PNCE   AM1 7358   3.495   6.918   4.375 -0.1680  0.0371  0.0931
  816PNCE   AM2 7359   3.638   7.137   4.415 -0.0763 -0.3033  0.2419
  816PNCE   T1A 7360   3.303   6.893   4.749  0.0182  0.1639 -0.2237
  816PNCE   C2A 7361   3.191   6.814   5.183  0.0124 -0.0859 -0.0904
  816PNCE   C3A 7362   3.246   6.778   5.566  0.1592 -0.0814  0.1425
  816PNCE   C1B 7363   3.486   7.395   4.713 -0.2465 -0.0403 -0.0233
  816PNCE   C2B 7364   3.341   7.678   4.956  0.0733  0.1663 -0.0172
  816PNCE   C3B 7365   3.008   7.833   5.198  0.2238  0.0151  0.2154
  816PNCE   D4B 7366   2.455   7.944   5.301  0.1431  0.0057 -0.0359
  816PNCE   C5B 7367   2.070   8.226   5.411 -0.2231  0.3650  0.0232
  816PNCE   C6B 7368   1.669   8.264   5.408  0.0427 -0.0767 -0.2166
  817PNCE   AM1 7369   4.440   1.491   4.794  0.0795  0.1143 -0.2000
  817PNCE   AM2 7370   4.130   1.625   4.978 -0.2117  0.1812 -0.1197
  817PNCE   T1A 7371   4.486   1.508   5.322 -0.1630  0.1831 -0.2155
  817PNCE   C2A 7372   4.461   1.364   5.756  0.1917 -0.0296 -0.2676
  817PNCE   C3A 7373   4.223   1.496   5.972  0.0316 -0.0779  0.1219
  817PNCE   C1B 7374   3.947   1.382   5.224 -0.0742 -0.0790 -0.0383
  817PNCE   C2B 7375   3.894   1.273   5.611  0.0857  0.1189  0.3054
  817PNCE   C3B 7376   3.867   1.152   5.934 -0.5083 -0.0287  0.0373
  817PNCE   D4B 7377   4.009   1.044   6.321 -0.0011  0.1267  0.2907
  817PNCE   C5B 7378   3.687   0.905   6.588 -0.3787 -0.1522  0.0043
  817PNCE   C6B 7379   3.420   0.740   6.881  0.1110  0.0013  0.1364
  818CHOL   ROH 7380   7.617   3.994   6.883  0.1433  0.0430  0.3660
  818CHOL    R1 7381   7.426   4.196   6.830  0.1678 -0.0024  0.0945
  818CHOL    R2 7382   7.333   4.369   7.025 -0.1001  0.0174 -0.0517
  818CHOL    R3 7383   7.413   4.559   6.849  0.0742  0.0010  0.0068
  818CHOL    R4 7384   7.268   4.707   7.055 -0.1192  0.0210 -0.1265
  818CHOL    R5 7385   7.232   4.714   6.841  0.0794  0.0073 -0.1694
  818CHOL    C1 7386   7.306   5.083   6.907  0.0332  0.0077 -0.1152
  818CHOL    C2 7387   7.253   5.575   6.994 -0.1114  0.1702  0.1796
  819CHOL   ROH 7388  10.486  10.699   8.380  0.1523 -0.1177  0.0435
  819CHOL    R1 7389  10.492  10.778   8.108  0.0126  0.0787  0.0965
  819CHOL    R2 7390  10.608  11.014   8.025  0.1936  0.0156  0.1828
  819CHOL    R3 7391  10.747  10.849   7.859 -0.1144 -0.0084 -0.0628
  819CHOL    R4 7392  10.753  11.111   7.726  0.1949  0.1471  0.2248
  819CHOL    R5 7393  10.687  10.922   7.639 -0.1180  0.3274  0.0399
  819CHOL    C1 7394  10.969  11.013   7.397 -0.0936  0.2012  0.0187
  819CHOL    C2 7395  11.334  11.204   7.217  0.1829  0.0937 -0.2943
  820CHOL   ROH 7396  12.630   7.651   7.929 -0.0831  0.3944  0.3836
  820CHOL    R1 7397  12.745   7.885   7.817 -0.1471  0.3256  0.1671
  820CHOL    R2 7398  12.912   7.878   7.597  0.0270  0.1408  0.3000
  820CHOL    R3 7399  12.735   8.059   7.498 -0.0152 -0.0962 -0.0752
  820CHOL    R4 7400  12.977   8.093   7.335  0.2827  0.1906  0.4014
  820CHOL    R5 7401  12.870   8.250   7.443 -0.1416  0.0714  0.1770
  820CHOL    C1 7402  12.848   8.388   7.088  0.3919 -0.0030  0.1083
  820CHOL    C2 7403  13.094   8.482   6.767  0.0229  0.0198  0.0416
  821CHOL   ROH 7404  15.687   1.694   8.419  0.0334 -0.0923  0.1761
  821CHOL    R1 7405  15.746   1.724   8.143  0.0007  0.0216  0.1802
  821CHOL    R2 7406  15.819   1.511   7.982  0.0250  0.0932  0.0908
  821CHOL    R3 7407  15.612   1.599   7.829 -0.0078  0.1130  0.1478
  821CHOL    R4 7408  15.817   1.516   7.637 -0.0205  0.2144  0.0930
  821CHOL    R5 7409  15.718   1.709   7.645 -0.0506  0.1941  0.1732
  821CHOL    C1 7410  15.622   1.601   7.292 -0.0778  0.3036  0.1478
  821CHOL    C2 7411  15.390   1.492   7.005 -0.1342  0.0275  0.1591
  822CHOL   ROH 7412   9.104   0.962   5.704 -0.1598  0.3548  0.0161
  822CHOL    R1 7413   9.182   0.864   5.958 -0.0466  0.3202 -0.0319
  822CHOL    R2 7414   9.156   1.013   6.189 -0.0671  0.2382  0.0159
  822CHOL    R3 7415   9.019   0.795   6.276  0.0680  0.1410 -0.0101
  822CHOL    R4 7416   9.155   0.897   6.515 -0.1346  0.3080  0.0414
  822CHOL    R5 7417   9.164   0.694   6.437  0.0742  0.2955  0.0864
  822CHOL    C1 7418   9.026   0.625   6.786 -0.0471  0.2574  0.0319
  822CHOL    C2 7419   9.176   0.320   6.975  0.0417  0.0431 -0.3158
  823PNCE   AM1 7420   5.091   3.415   4.291 -0.1490 -0.1683 -0.3042
  823PNCE   AM2 7421   5.173   3.686   4.533  0.0466 -0.1528  0.0426
  823PNCE   T1A 7422   4.867   3.321   4.725 -0.0607 -0.0645  0.0108
  823PNCE   C2A 7423   4.741   3.373   5.119  0.2068  0.0517  0.0626
  823PNCE   C3A 7424   4.608   3.518   5.505  0.0282 -0.0317 -0.1771
  823PNCE   C1B 7425   5.178   3.625   5.034 -0.0013  0.3656 -0.2579
  823PNCE   C2B 7426   5.151   3.888   5.373 -0.3791  0.2200  0.0146
  823PNCE   C3B 7427   4.896   3.915   5.786  0.1215  0.2823 -0.2121
  823PNCE   D4B 7428   4.662   3.622   6.088 -0.1726  0.0320  0.0976
  823PNCE   C5B 7429   4.562   3.190   5.940  0.1939  0.2202  0.3503
  823PNCE   C6B 7430   4.338   2.899   6.227  0.3163  0.0185 -0.2457
  824PNCE   AM1 7431  13.433   3.713   8.802  0.0889  0.1637 -0.6882
  824PNCE   AM2 7432  13.352   3.969   8.988 -0.1283  0.0202 -0.3851
  824PNCE   T1A 7433  13.279   3.681   8.428 -0.1231 -0.1921  0.2596
  824PNCE   C2A 7434  12.958   3.576   8.153  0.1587  0.2244  0.1337
  824PNCE   C3A 7435  12.946   3.117   7.978 -0.2042  0.0781  0.2198
  824PNCE   C1B 7436  12.934   4.012   8.742  0.0050  0.1016  0.0313
  824PNCE   C2B 7437  12.700   3.912   8.423  0.2641 -0.4017  0.2199
  824PNCE   C3B 7438  12.514   3.828   8.023  0.2528 -0.1824  0.1202
  824PNCE   D4B 7439  12.230   3.857   7.556 -0.0760 -0.2772  0.2042
  824PNCE   C5B 7440  12.009   4.208   7.359 -0.1850  0.2466  0.1983
  824PNCE   C6B 7441  11.699   4.223   6.984  0.1717 -0.0972  0.0799
  825XCA    COO 7442  10.941   4.419   8.950 -0.2086  0.1039 -0.2233
  825XCA     C1 7443  10.935   4.442   8.452 -0.0690  0.1537  0.0478
  825XCA     C2 7444  10.974   4.295   7.963 -0.1355  0.0577 -0.0580
  825XCA     C3 7445  10.807   4.229   7.517  0.0044  0.1002  0.1734
  825XCA     C4 7446  10.699   4.043   7.101 -0.0451  0.2246  0.0151
  825XCA     C5 7447  10.860   3.890   6.745  0.2773  0.1683  0.2665
  825XCA     C6 7448  10.946   3.985   6.356 -0.1343  0.2945 -0.2172
  826XCA    COO 7449  10.328  15.645   5.239 -0.3061 -0.0192 -0.0979
  826XCA     C1 7450  10.244  15.277   5.629  0.3227  0.1818  0.2788
  826XCA     C2 7451  10.078  15.261   6.138  0.1668 -0.0156 -0.1557
  826XCA     C3 7452   9.918  15.467   6.501 -0.0319 -0.0735  0.2077
  826XCA     C4 7453   9.641  15.751   6.556 -0.0911 -0.1008  0.3974
  826XCA     C5 7454   9.189  15.698   6.815  0.0747 -0.3320  0.1439
  826XCA     C6 7455   9.001  15.192   6.974  0.1045 -0.2780 -0.0522
  827XCA    COO 7456  11.321  11.202   8.441 -0.0139 -0.1297  0.3260
  827XCA     C1 7457  10.978  11.415   8.161  0.2412  0.1147  0.1627
  827XCA     C2 7458  11.012  11.626   7.808  0.1524  0.3432  0.1104
  827XCA     C3 7459  11.006  11.629   7.368  0.1861 -0.1591 -0.2936
  827XCA     C4 7460  10.802  11.791   7.044  0.1180  0.1859  0.0804
  827XCA     C5 7461  10.826  11.818   6.552 -0.1790 -0.1182 -0.1947
  827XCA     C6 7462  11.205  11.766   6.260  0.0778  0.0582  0.0134
  828PNCE   AM1 7463   2.081   1.982   5.110 -0.1106  0.1421  0.1382
  828PNCE   AM2 7464   2.140   2.279   5.246 -0.0843 -0.2544 -0.1170
  828PNCE   T1A 7465   2.365   1.678   5.390 -0.0551  0.0916 -0.1045
  828PNCE   C2A 7466   2.725   1.522   5.603  0.0556  0.0094  0.3628
  828PNCE   C3A 7467   2.885   1.166   5.721  0.0644 -0.1117 -0.1302
  828PNCE   C1B 7468   2.012   2.140   5.682 -0.0159 -0.2349 -0.3591
  828PNCE   C2B 7469   1.952   2.030   6.179  0.2395 -0.1968 -0.3574
  828PNCE   C3B 7470   1.580   1.902   6.393  0.1463 -0.3129  0.0746
  828PNCE   D4B 7471   1.203   1.769   6.706 -0.2749 -0.2021 -0.3273
  828PNCE   C5B 7472   0.908   1.955   6.807  0.1363  0.2534 -0.1190
  828PNCE   C6B 7473   0.810   2.416   6.875 -0.0433  0.0306 -0.0178
  829PNCE   AM1 7474  10.950   2.527   5.331  0.1351  0.0282  0.1965
  829PNCE   AM2 7475  11.106   2.380   5.590  0.0902 -0.1365 -0.0159
  829PNCE   T1A 7476  10.748   2.790   5.621 -0.1284 -0.1878 -0.3077
  829PNCE   C2A 7477  10.500   2.790   5.900 -0.2663 -0.0683 -0.0009
  829PNCE   C3A 7478  10.452   2.714   6.345 -0.2842 -0.0556  0.3999
  829PNCE   C1B 7479  11.248   2.709   5.900  0.1054  0.2166 -0.0180
  829PNCE   C2B 7480  11.468   2.893   6.146  0.2076  0.1837  0.3121
  829PNCE   C3B 7481  11.589   3.123   6.515  0.1675 -0.1180  0.3774
  829PNCE   D4B 7482  11.464   3.256   6.927 -0.2179 -0.1839  0.2647
  829PNCE   C5B 7483  11.866   3.215   7.058  0.1666  0.1834 -0.0087
  829PNCE   C6B 7484  12.112   3.553   7.125  0.1704 -0.1988  0.0254
  830PNCE   AM1 7485   8.057   8.903   4.492 -0.0241 -0.2552 -0.1055
  830PNCE   AM2 7486   7.778   8.962   4.200  0.4178 -0.1919 -0.0873
  830PNCE   T1A 7487   8.076   9.159   4.956  0.3383 -0.0692  0.2766
  830PNCE   C2A 7488   8.335   9.483   5.033 -0.1370  0.0886 -0.0491
  830PNCE   C3A 7489   8.230   9.853   5.258 -0.1837  0.0542 -0.0416
  830PNCE   C1B 7490   7.568   9.038   4.611  0.3039 -0.0800 -0.0703
  830PNCE   C2B 7491   7.268   9.122   4.885  0.3123  0.1001  0.0495
  830PNCE   C3B 7492   7.124   9.143   5.246 -0.1386  0.0409  0.0449
  830PNCE   D4B 7493   7.148   9.153   5.720  0.0362 -0.2885  0.0756
  830PNCE   C5B 7494   7.115   9.566   5.949  0.1278 -0.1857 -0.1395
  830PNCE   C6B 7495   7.207   9.964   6.111  0.0195  0.1024 -0.1106
  831PNCE   AM1 7496   1.206   5.002   3.944 -0.1918 -0.0969 -0.2823
  831PNCE   AM2 7497   1.372   4.807   3.734 -0.0685  0.0233  0.2637
  831PNCE   T1A 7498   1.208   5.078   4.393  0.0502  0.5251 -0.0439
  831PNCE   C2A 7499   1.057   5.290   4.803 -0.0783 -0.3015 -0.2871
  831PNCE   C3A 7500   1.005   5.172   5.224 -0.1619  0.1027 -0.0394
  831PNCE   C1B 7501   1.382   4.618   4.165 -0.1795 -0.2808 -0.1571
  831PNCE   C2B 7502   1.539   4.683   4.638  0.0022  0.0190 -0.1500
  831PNCE   C3B 7503   1.546   4.464   5.030  0.1488 -0.0500 -0.1937
  831PNCE   D4B 7504   1.380   4.486   5.439 -0.0342 -0.0938 -0.0959
  831PNCE   C5B 7505   1.189   4.856   5.602  0.0976 -0.1450  0.0319
  831PNCE   C6B 7506   0.756   4.935   5.566  0.0483  0.0923 -0.2215
  832XCA    COO 7507  14.170   7.322   7.284 -0.1617  0.0390  0.4393
  832XCA     C1 7508  14.346   7.733   7.083  0.1517  0.0458 -0.1869
  832XCA     C2 7509  14.592   8.092   7.010 -0.0155 -0.3581 -0.0987
  832XCA     C3 7510  14.668   8.289   6.547  0.0093 -0.0259  0.2525
  832XCA     C4 7511  14.608   8.336   6.093 -0.2571  0.1548  0.1874
  832XCA     C5 7512  14.572   8.245   5.598 -0.0987  0.1668  0.0110
  832XCA     C6 7513  14.459   8.481   5.355  0.1262  0.0369 -0.0597
  833PNCE   AM1 7514   3.100  13.535   4.387  0.0174  0.1583 -0.3106
  833PNCE   AM2 7515   3.397  13.510   4.561 -0.0397  0.0523 -0.0519
  833PNCE   T1A 7516   2.686  13.434   4.544  0.0522 -0.0577 -0.0287
  833PNCE   C2A 7517   2.475  13.339   4.851  0.0872 -0.0578  0.0361
  833PNCE   C3A 7518   2.427  13.213   5.292  0.2375 -0.1727  0.1321
  833PNCE   C1B 7519   3.015  13.491   4.969  0.0843  0.1690  0.1071
  833PNCE   C2B 7520   2.802  13.632   5.408 -0.0523  0.0186 -0.0000
  833PNCE   C3B 7521   2.927  13.653   5.797  0.0233  0.1631  0.0774
  833PNCE   D4B 7522   3.257  13.459   6.035 -0.1569  0.0527  0.0425
  833PNCE   C5B 7523   3.151  13.501   6.458 -0.0170  0.1615 -0.2499
  833PNCE   C6B 7524   3.077  13.213   6.827  0.0740 -0.1523 -0.1610
  834PNCE   AM1 7525   8.869   2.473   4.951 -0.1702 -0.2074  0.1712
  834PNCE   AM2 7526   8.688   2.681   4.977 -0.2674 -0.1806  0.1996
  834PNCE   T1A 7527   8.990   2.332   5.444  0.1435 -0.1179 -0.0062
  834PNCE   C2A 7528   9.054   2.197   5.830 -0.1179  0.0876 -0.1060
  834PNCE   C3A 7529   9.015   2.003   6.318 -0.0300  0.0547 -0.0786
  834PNCE   C1B 7530   8.622   2.695   5.400  0.3719 -0.0171 -0.0670
  834PNCE   C2B 7531   8.754   2.653   5.820 -0.3306 -0.1617 -0.1016
  834PNCE   C3B 7532   8.984   2.548   6.247  0.1143  0.2479 -0.1189
  834PNCE   D4B 7533   9.041   2.398   6.684 -0.0118  0.1134  0.2055
  834PNCE   C5B 7534   9.086   2.484   7.068  0.0011 -0.0111  0.0617
  834PNCE   C6B 7535   9.412   2.627   7.363  0.2593 -0.2392 -0.0399
  835CHOL   ROH 7536  10.632   8.329   4.495 -0.0160 -0.1591 -0.0111
  835CHOL    R1 7537  10.466   8.304   4.724  0.0041  0.1599  0.0431
  835CHOL    R2 7538  10.328   8.517   4.831 -0.1632  0.2722 -0.3755
  835CHOL    R3 7539  10.114   8.351   4.802 -0.0346  0.0403 -0.0564
  835CHOL    R4 7540  10.001   8.601   4.906 -0.2127  0.1070 -0.4011
  835CHOL    R5 7541   9.974   8.402   4.990 -0.0154  0.2066 -0.0861
  835CHOL    C1 7542   9.610   8.495   4.923 -0.1209 -0.2070 -0.1163
  835CHOL    C2 7543   9.373   8.881   5.043 -0.1326  0.1669 -0.1469
  836CHOL   ROH 7544  13.670   9.770   8.277  0.1907  0.0553 -0.0195
  836CHOL    R1 7545  13.622   9.917   8.040 -0.0340  0.0381  0.0124
  836CHOL    R2 7546  13.814   9.947   7.843 -0.1327  0.2368 -0.0566
  836CHOL    R3 7547  13.618   9.848   7.682 -0.1021  0.0714  0.0068
  836CHOL    R4 7548  13.783  10.012   7.504 -0.1992  0.0693 -0.0837
  836CHOL    R5 7549  13.568  10.027   7.532 -0.2030 -0.0208 -0.0696
  836CHOL    C1 7550  13.581   9.956   7.157 -0.2090 -0.1837 -0.0399
  836CHOL    C2 7551  13.649  10.102   6.851  0.3512  0.3449  0.0546
  837PNCE   AM1 7552   8.128   3.718   4.709  0.1761  0.1044  0.3339
  837PNCE   AM2 7553   8.242   3.396   4.871  0.2164  0.2961  0.2676
  837PNCE   T1A 7554   8.269   4.127   5.017  0.1185  0.0753 -0.2469
  837PNCE   C2A 7555   8.141   4.610   5.118  0.1151  0.0611 -0.2818
  837PNCE   C3A 7556   7.910   4.912   5.104 -0.1357 -0.0433  0.0585
  837PNCE   C1B 7557   7.980   3.416   5.201 -0.2872  0.0134 -0.2494
  837PNCE   C2B 7558   7.850   3.618   5.572  0.3079 -0.1956  0.3356
  837PNCE   C3B 7559   7.782   3.654   5.997 -0.0253 -0.1860 -0.1463
  837PNCE   D4B 7560   7.520   3.351   6.305 -0.2070 -0.1503  0.2504
  837PNCE   C5B 7561   7.674   3.328   6.708  0.1340 -0.0051  0.0591
  837PNCE   C6B 7562   7.695   3.514   7.180 -0.1108  0.0264 -0.0274
  838PNCE   AM1 7563  13.414   4.355   5.130 -0.3858  0.0097 -0.0181
  838PNCE   AM2 7564  13.634   4.130   5.082  0.2256 -0.1932 -0.0039
  838PNCE   T1A 7565  13.397   4.335   5.485  0.0566 -0.0139 -0.0670
  838PNCE   C2A 7566  13.343   4.577   5.877 -0.0319 -0.3064  0.1003
  838PNCE   C3A 7567  13.054   4.759   6.225  0.1878  0.0690  0.0345
  838PNCE   C1B 7568  13.860   4.182   5.489 -0.1210  0.0335 -0.3044
  838PNCE   C2B 7569  14.030   4.354   5.893  0.0428  0.3762 -0.2163
  838PNCE   C3B 7570  14.076   4.291   6.301  0.0273 -0.1339 -0.3991
  838PNCE   D4B 7571  14.343   4.230   6.599 -0.1393 -0.0720  0.0876
  838PNCE   C5B 7572  14.178   3.822   6.629  0.1800  0.0121  0.1154
  838PNCE   C6B 7573  13.922   3.506   6.565  0.0922 -0.1324  0.0402
  839PNCE   AM1 7574   2.512   7.154   4.470 -0.1476  0.1038  0.4183
  839PNCE   AM2 7575   2.369   6.845   4.397 -0.1561  0.1188  0.0005
  839PNCE   T1A 7576   2.713   6.955   4.842 -0.2928  0.0869  0.1244
  839PNCE   C2A 7577   2.656   6.901   5.301 -0.1929 -0.0104 -0.0078
  839PNCE   C3A 7578   2.636   6.853   5.675 -0.0153  0.2615 -0.3284
  839PNCE   C1B 7579   2.187   6.828   4.735  0.2641  0.1102  0.2635
  839PNCE   C2B 7580   2.175   6.898   5.214 -0.2767 -0.2539  0.0203
  839PNCE   C3B 7581   2.205   7.101   5.673  0.2021  0.0224 -0.2732
  839PNCE   D4B 7582   2.025   7.491   5.906  0.0542  0.0289 -0.0241
  839PNCE   C5B 7583   1.877   7.417   6.218  0.1418 -0.0777  0.2208
  839PNCE   C6B 7584   1.492   7.307   6.342 -0.0551 -0.0026 -0.0036
  840XCA    COO 7585  14.264  11.610   4.836  0.1660 -0.1992  0.0297
  840XCA     C1 7586  14.114  11.448   5.305 -0.1580 -0.2142 -0.1229
  840XCA     C2 7587  14.339  11.186   5.525  0.1484  0.0862 -0.0668
  840XCA     C3 7588  14.340  10.765   5.561  0.4547  0.1495  0.2118
  840XCA     C4 7589  14.248  10.396   5.731 -0.0147  0.0495  0.0650
  840XCA     C5 7590  14.606  10.106   5.772  0.0274  0.0247  0.2846
  840XCA     C6 7591  14.684   9.654   5.669  0.2160  0.0195 -0.2795
  841CHOL   ROH 7592   7.245   6.394   8.402  0.3755  0.0517 -0.0334
  841CHOL    R1 7593   7.298   6.487   8.140  0.2048  0.0767 -0.0600
  841CHOL    R2 7594   7.548   6.471   8.023  0.1639  0.2224 -0.1694
  841CHOL    R3 7595   7.412   6.343   7.826  0.1528  0.1363 -0.1071
  841CHOL    R4 7596   7.632   6.479   7.688  0.1805  0.0344 -0.1707
  841CHOL    R5 7597   7.420   6.494   7.641  0.1825  0.0396 -0.1873
  841CHOL    C1 7598   7.552   6.364   7.308  0.1798 -0.1559 -0.1129
  841CHOL    C2 7599   7.396   6.688   7.131 -0.1404  0.1505  0.1209
  842PNCE   AM1 7600   6.704   1.540   5.597 -0.0496 -0.1552 -0.1036
  842PNCE   AM2 7601   6.873   1.235   5.611  0.4317  0.0737  0.1990
  842PNCE   T1A 7602   6.421   1.541   5.921 -0.3066 -0.2751  0.3549
  842PNCE   C2A 7603   6.286   1.549   6.384 -0.0854  0.0485  0.2951
  842PNCE   C3A 7604   6.382   1.652   6.736  0.2002  0.0629 -0.0091
  842PNCE   C1B 7605   6.937   1.312   6.042 -0.1524 -0.1886  0.1601
  842PNCE   C2B 7606   6.762   1.422   6.406  0.1110  0.4608  0.1928
  842PNCE   C3B 7607   6.831   1.343   6.787 -0.3150  0.2357  0.1975
  842PNCE   D4B 7608   7.179   1.272   7.036 -0.1157 -0.1726  0.0167
  842PNCE   C5B 7609   7.538   1.220   6.908  0.0545  0.1491 -0.0875
  842PNCE   C6B 7610   7.800   0.998   6.595 -0.0075  0.1415 -0.2064
  843CHOL   ROH 7611   1.313   2.497   6.046  0.0412  0.0036 -0.0390
  843CHOL    R1 7612   1.360   2.771   5.988 -0.0647  0.0084 -0.1070
  843CHOL    R2 7613   1.155   2.950   5.941 -0.1441 -0.0445  0.0143
  843CHOL    R3 7614   1.276   3.091   6.140 -0.0362  0.0051 -0.0864
  843CHOL    R4 7615   1.129   3.292   5.985  0.1056  0.0061 -0.2110
  843CHOL    R5 7616   1.341   3.296   6.036  0.1081 -0.1109 -0.2242
  843CHOL    C1 7617   1.227   3.623   6.197  0.3522  0.0822 -0.4366
  843CHOL    C2 7618   0.978   3.994   6.255 -0.3386 -0.1230 -0.1636
  844XCA    COO 7619   0.841  10.119   8.313  0.1360 -0.2564  0.4222
  844XCA     C1 7620   0.854  10.034   7.976  0.3345 -0.0286 -0.0564
  844XCA     C2 7621   1.051  10.068   7.578 -0.0863  0.3889  0.0165
  844XCA     C3 7622   1.109  10.198   7.192 -0.0687 -0.1154  0.2502
  844XCA     C4 7623   1.324  10.043   6.804  0.0440  0.2382 -0.3081
  844XCA     C5 7624   1.548  10.094   6.459 -0.2925 -0.1171  0.2151
  844XCA     C6 7625   1.737  10.307   6.169  0.1126  0.1693  0.1889
  845PNCE   AM1 7626  12.089  11.348   5.082  0.1265 -0.2081  0.1067
  845PNCE   AM2 7627  11.882  11.182   5.299  0.1422 -0.1517  0.1861
  845PNCE   T1A 7628  12.078  11.577   5.492 -0.0510 -0.0986  0.4707
  845PNCE   C2A 7629  12.233  11.707   5.853 -0.4737 -0.0495  0.1000
  845PNCE   C3A 7630  12.508  12.047   6.026  0.2661  0.3353  0.0672
  845PNCE   C1B 7631  11.841  11.130   5.695  0.2017  0.0492 -0.1333
  845PNCE   C2B 7632  11.884  11.405   5.946  0.1857  0.4934 -0.0403
  845PNCE   C3B 7633  12.043  11.493   6.463 -0.0933 -0.0280  0.0271
  845PNCE   D4B 7634  11.777  11.622   6.746  0.2259  0.1861  0.1631
  845PNCE   C5B 7635  11.596  12.059   6.590  0.3825  0.1260 -0.1817
  845PNCE   C6B 7636  11.752  12.427   6.457  0.1070  0.0143  0.1648
  846CHOL   ROH 7637  12.526  11.407   5.677 -0.0376 -0.0368 -0.0513
  846CHOL    R1 7638  12.302  11.290   5.805  0.0081 -0.2258 -0.1464
  846CHOL    R2 7639  12.280  11.018   5.846  0.3333 -0.2174  0.0467
  846CHOL    R3 7640  12.243  11.092   6.104  0.0125 -0.0669 -0.0359
  846CHOL    R4 7641  12.096  10.840   6.078  0.4580 -0.3639  0.0382
  846CHOL    R5 7642  12.017  11.029   6.152  0.0696 -0.4226 -0.1672
  846CHOL    C1 7643  11.953  10.807   6.456  0.2293 -0.3077 -0.0441
  846CHOL    C2 7644  11.648  10.714   6.659  0.0159  0.0188  0.1989
  847XCA    COO 7645   9.558  11.187   8.442 -0.0793 -0.0368  0.2411
  847XCA     C1 7646   9.499  11.152   7.978 -0.1042 -0.1008  0.0392
  847XCA     C2 7647   9.183  11.267   7.678  0.1284 -0.0731 -0.1729
  847XCA     C3 7648   9.092  11.663   7.376  0.1765 -0.1001  0.1391
  847XCA     C4 7649   9.236  12.002   7.154 -0.0868 -0.2511  0.2417
  847XCA     C5 7650   9.567  12.236   6.895 -0.1633  0.2692  0.2300
  847XCA     C6 7651   9.984  12.257   6.835  0.2787 -0.1592  0.0704
  848CHOL   ROH 7652  12.367   5.314   8.207  0.2270  0.1209 -0.2755
  848CHOL    R1 7653  12.230   5.099   8.084  0.1051  0.0753 -0.0636
  848CHOL    R2 7654  11.955   5.094   8.058  0.1074  0.2346 -0.1108
  848CHOL    R3 7655  12.013   5.054   7.795  0.1330 -0.0996 -0.0591
  848CHOL    R4 7656  11.730   4.982   7.821  0.0525  0.1970 -0.0416
  848CHOL    R5 7657  11.889   4.858   7.736 -0.0422 -0.0482  0.1226
  848CHOL    C1 7658  11.654   4.879   7.436  0.0445 -0.1386  0.0474
  848CHOL    C2 7659  11.749   4.604   7.357  0.0326  0.0553 -0.0122
  849CHOL   ROH 7660   0.183   1.608   5.341 -0.0431  0.0244 -0.0281
  849CHOL    R1 7661   0.068   1.730   5.570  0.2295  0.2067  0.0165
  849CHOL    R2 7662  -0.108   1.598   5.736 -0.1168  0.5524 -0.0575
  849CHOL    R3 7663   0.069   1.671   5.929  0.0599  0.0378 -0.0103
  849CHOL    R4 7664  -0.161   1.561   6.076 -0.2578  0.5894 -0.0751
  849CHOL    R5 7665  -0.068   1.757   6.106  0.2547  0.3504 -0.0060
  849CHOL    C1 7666  -0.025   1.609   6.455 -0.1742  0.1279 -0.0409
  849CHOL    C2 7667   0.078   1.459   6.716  0.0766 -0.1030 -0.0225
  850CHOL   ROH 7668  11.166   2.031   9.405  0.0884 -0.0020 -0.0280
  850CHOL    R1 7669  11.104   2.071   9.132  0.0040 -0.0605 -0.0183
  850CHOL    R2 7670  11.270   1.987   8.927  0.0377  0.0683 -0.0492
  850CHOL    R3 7671  11.045   1.861   8.840  0.1223 -0.1199  0.0017
  850CHOL    R4 7672  11.201   1.909   8.597 -0.0120  0.0714 -0.0393
  850CHOL    R5 7673  10.994   1.966   8.632 -0.0502 -0.1266  0.0433
  850CHOL    C1 7674  10.950   1.745   8.324  0.0384 -0.1034  0.0142
  850CHOL    C2 7675  11.029   1.497   8.057 -0.0726  0.0524 -0.0105
  851PNCE   AM1 7676  14.485   4.557   4.874  0.0083  0.0203  0.0612
  851PNCE   AM2 7677  14.666   4.415   4.567  0.2415 -0.3943 -0.1030
  851PNCE   T1A 7678  14.742   4.585   5.255  0.0691 -0.2456  0.0219
  851PNCE   C2A 7679  14.943   4.359   5.637  0.3188 -0.1726 -0.0461
  851PNCE   C3A 7680  15.112   4.124   6.048 -0.3792 -0.1074  0.0157
  851PNCE   C1B 7681  15.077   4.516   4.813  0.2706 -0.2384  0.0273
  851PNCE   C2B 7682  15.422   4.321   5.269 -0.1173 -0.1475 -0.1173
  851PNCE   C3B 7683  15.518   4.359   5.684  0.3106  0.1019 -0.1508
  851PNCE   D4B 7684  15.753   4.576   5.978 -0.0045  0.1608 -0.1032
  851PNCE   C5B 7685  16.108   4.481   6.189  0.2470 -0.1798  0.1067
  851PNCE   C6B 7686  16.461   4.272   6.460  0.1131 -0.2315  0.2648
  852XCA    COO 7687  14.133   9.995   8.737  0.2239 -0.2715  0.0774
  852XCA     C1 7688  14.141   9.959   8.213 -0.0267 -0.2186 -0.0485
  852XCA     C2 7689  14.219  10.173   7.805 -0.1722 -0.2784 -0.1240
  852XCA     C3 7690  14.509  10.506   7.567 -0.0579 -0.0377 -0.1380
  852XCA     C4 7691  14.577  10.991   7.652 -0.1558  0.0214 -0.0312
  852XCA     C5 7692  14.773  11.358   7.803 -0.0351 -0.0760 -0.2703
  852XCA     C6 7693  14.592  11.715   7.925 -0.1298 -0.2583  0.1946
  853PNCE   AM1 7694  12.371   1.936   5.152 -0.1086 -0.1905 -0.2608
  853PNCE   AM2 7695  12.122   2.246   5.126  0.1329 -0.1081  0.0723
  853PNCE   T1A 7696  12.357   1.747   5.611 -0.1014 -0.2427 -0.2482
  853PNCE   C2A 7697  12.557   1.769   6.063 -0.1512  0.1382 -0.0020
  853PNCE   C3A 7698  12.749   1.674   6.419  0.1863 -0.1182  0.0632
  853PNCE   C1B 7699  12.300   2.236   5.635 -0.0928  0.3855 -0.3159
  853PNCE   C2B 7700  12.444   2.351   5.967  0.2061  0.2695 -0.1298
  853PNCE   C3B 7701  12.658   2.170   6.355 -0.3899  0.1449  0.1293
  853PNCE   D4B 7702  12.588   2.085   6.902 -0.1588  0.2441 -0.2778
  853PNCE   C5B 7703  12.985   2.209   7.070  0.0996  0.1791  0.1755
  853PNCE   C6B 7704  13.400   2.196   6.956 -0.2519  0.1028  0.1365
  854CHOL   ROH 7705   0.477   2.213   8.561  0.0866  0.1518 -0.0016
  854CHOL    R1 7706   0.599   2.292   8.318  0.1391 -0.0337 -0.0372
  854CHOL    R2 7707   0.736   2.115   8.156 -0.0528 -0.2149 -0.0066
  854CHOL    R3 7708   0.566   2.209   7.966  0.0161 -0.0964 -0.0111
  854CHOL    R4 7709   0.725   2.004   7.829 -0.0413 -0.1208 -0.0393
  854CHOL    R5 7710   0.696   2.211   7.765  0.0506 -0.0923  0.0117
  854CHOL    C1 7711   0.559   2.028   7.460  0.0302  0.0452 -0.0625
  854CHOL    C2 7712   0.739   1.695   7.213 -0.2056 -0.0224  0.3098
  855PNCE   AM1 7713  11.353   1.988   5.721  0.2283 -0.1679  0.2693
  855PNCE   AM2 7714  11.257   1.891   5.516  0.0267  0.1464  0.1021
  855PNCE   T1A 7715  11.602   1.782   5.944 -0.1330  0.1993  0.1110
  855PNCE   C2A 7716  11.744   1.644   6.343 -0.1805  0.0396 -0.1710
  855PNCE   C3A 7717  11.466   1.509   6.776 -0.0689 -0.0719 -0.1141
  855PNCE   C1B 7718  10.854   1.929   5.770  0.2484 -0.0786  0.0847
  855PNCE   C2B 7719  10.700   1.809   6.067 -0.0594  0.2157  0.0245
  855PNCE   C3B 7720  10.423   1.642   6.430  0.0961 -0.1263 -0.1095
  855PNCE   D4B 7721  10.344   1.474   6.760 -0.1205 -0.1882 -0.0802
  855PNCE   C5B 7722  10.155   1.529   7.134 -0.0677 -0.3850  0.0129
  855PNCE   C6B 7723   9.863   1.297   7.384 -0.3477 -0.0056 -0.1287
  856CHOL   ROH 7724   2.144   3.681   5.063 -0.1680  0.0604  0.0561
  856CHOL    R1 7725   2.192   3.541   5.305 -0.1068  0.0109  0.0152
  856CHOL    R2 7726   2.426   3.402   5.352 -0.0155  0.1607  0.0030
  856CHOL    R3 7727   2.434   3.556   5.576 -0.1599  0.0897  0.0588
  856CHOL    R4 7728   2.542   3.297   5.660 -0.0638  0.1103  0.0045
  856CHOL    R5 7729   2.378   3.406   5.754 -0.1464  0.0016 -0.0099
  856CHOL    C1 7730   2.617   3.381   6.050 -0.2275  0.0143  0.0577
  856CHOL    C2 7731   2.742   3.472   6.372  0.0833 -0.0515  0.0825
  857CHOL   ROH 7732  11.879   9.310   6.391  0.0760  0.1191 -0.0129
  857CHOL    R1 7733  11.704   9.089   6.415  0.1784  0.0513  0.1143
  857CHOL    R2 7734  11.503   9.079   6.604  0.0949  0.1327  0.0251
  857CHOL    R3 7735  11.346   9.031   6.387  0.2196 -0.1616 -0.0067
  857CHOL    R4 7736  11.196   8.921   6.614 -0.0139  0.3454  0.1070
  857CHOL    R5 7737  11.249   8.816   6.430  0.0543 -0.0307  0.3258
  857CHOL    C1 7738  10.869   8.785   6.417  0.0397  0.1930  0.1247
  857CHOL    C2 7739  10.476   8.615   6.614  0.1711  0.0775  0.2050
  858CHOL   ROH 7740   4.186  13.951   8.618 -0.3454 -0.0858  0.1404
  858CHOL    R1 7741   4.137  13.730   8.449 -0.1021 -0.0633  0.0360
  858CHOL    R2 7742   3.933  13.728   8.262 -0.1677 -0.2374  0.1047
  858CHOL    R3 7743   4.134  13.667   8.090 -0.1376  0.1330  0.0015
  858CHOL    R4 7744   3.888  13.617   7.938 -0.1234 -0.2747  0.1115
  858CHOL    R5 7745   4.053  13.477   7.969  0.1362  0.0047  0.0164
  858CHOL    C1 7746   4.052  13.495   7.587 -0.0693  0.0514  0.0184
  858CHOL    C2 7747   4.363  13.230   7.337  0.0959  0.2495  0.1908
  859CHOL   ROH 7748  11.262   9.646   8.458  0.1988  0.1511  0.2209
  859CHOL    R1 7749  11.484   9.670   8.284  0.0878  0.0620  0.0628
  859CHOL    R2 7750  11.465   9.784   8.033 -0.0649 -0.0246  0.0313
  859CHOL    R3 7751  11.666   9.942   8.125  0.0150 -0.0160 -0.1558
  859CHOL    R4 7752  11.622  10.030   7.849 -0.0587 -0.1992 -0.1999
  859CHOL    R5 7753  11.812   9.968   7.936 -0.0462 -0.1901 -0.2266
  859CHOL    C1 7754  11.903  10.322   7.827  0.0199 -0.2926 -0.5102
  859CHOL    C2 7755  11.964  10.549   7.559  0.0670  0.0496 -0.2429
  860PNCE   AM1 7756   6.229  13.877   5.315  0.1593 -0.0407 -0.0357
  860PNCE   AM2 7757   5.821  13.767   5.109 -0.2174 -0.2585 -0.0535
  860PNCE   T1A 7758   6.142  13.802   5.806 -0.3739 -0.0839 -0.0423
  860PNCE   C2A 7759   5.836  13.972   6.134  0.1969  0.2752 -0.2687
  860PNCE   C3A 7760   5.625  13.621   6.528  0.0375 -0.0518  0.2011
  860PNCE   C1B 7761   5.797  13.926   5.465 -0.0926 -0.1709  0.3140
  860PNCE   C2B 7762   5.960  14.314   5.588  0.0620 -0.3135  0.0690
  860PNCE   C3B 7763   6.047  14.377   6.010  0.1257  0.0597  0.1249
  860PNCE   D4B 7764   6.347  14.450   6.344 -0.0569  0.1555 -0.1558
  860PNCE   C5B 7765   6.476  14.743   6.711 -0.2304  0.1981 -0.0640
  860PNCE   C6B 7766   6.573  14.815   7.174 -0.0218  0.2208 -0.1206
  861PNCE   AM1 7767   8.858   4.934   4.402  0.1358 -0.1634  0.0731
  861PNCE   AM2 7768   9.076   4.790   4.442 -0.3140  0.0034  0.4005
  861PNCE   T1A 7769   8.648   5.014   4.848  0.2498  0.0601 -0.1127
  861PNCE   C2A 7770   8.379   5.032   5.115 -0.0302 -0.2042  0.1015
  861PNCE   C3A 7771   8.162   5.239   5.405 -0.3412  0.1611 -0.1142
  861PNCE   C1B 7772   9.149   4.979   4.836  0.0609  0.1694  0.1071
  861PNCE   C2B 7773   9.153   5.269   5.220  0.0318  0.1162 -0.1294
  861PNCE   C3B 7774   9.386   5.548   5.576  0.0820  0.1389  0.2347
  861PNCE   D4B 7775   9.364   5.813   5.956 -0.4403 -0.1592 -0.1778
  861PNCE   C5B 7776   8.965   5.982   6.254 -0.1208  0.2968  0.1099
  861PNCE   C6B 7777   8.614   5.761   6.317 -0.0008  0.0236 -0.2300
  862XCA    COO 7778  10.263   8.964   7.759 -0.0953  0.1125  0.0900
  862XCA     C1 7779  10.072   9.135   7.412  0.1279 -0.1607  0.3242
  862XCA     C2 7780   9.844   9.117   7.076 -0.2986 -0.1282 -0.0490
  862XCA     C3 7781   9.588   9.020   6.732 -0.2027  0.2481  0.0572
  862XCA     C4 7782   9.117   8.960   6.686 -0.0645 -0.0955 -0.0159
  862XCA     C5 7783   8.612   9.110   6.630 -0.3215 -0.1411 -0.0268
  862XCA     C6 7784   8.215   9.150   6.716 -0.0925 -0.1678  0.1644
  863CHOL   ROH 7785  11.241   3.828   6.915  0.0620  0.1744 -0.0667
  863CHOL    R1 7786  11.308   3.658   6.698  0.0920  0.1580 -0.0442
  863CHOL    R2 7787  11.128   3.481   6.586  0.1451  0.0619  0.0256
  863CHOL    R3 7788  11.194   3.609   6.356  0.0502  0.0407 -0.0145
  863CHOL    R4 7789  11.109   3.342   6.271  0.1732 -0.0276  0.0628
  863CHOL    R5 7790  11.298   3.440   6.222  0.1194  0.0576  0.0142
  863CHOL    C1 7791  11.160   3.381   5.871  0.1005 -0.0997  0.0468
  863CHOL    C2 7792  11.216   3.131   5.638  0.0472 -0.0582  0.2411
  864PNCE   AM1 7793   5.014  15.411   8.672  0.0635 -0.1869 -0.0698
  864PNCE   AM2 7794   5.375  15.489   8.700  0.3288 -0.0230  0.0836
  864PNCE   T1A 7795   4.812  15.499   8.368  0.0551  0.1636  0.1179
  864PNCE   C2A 7796   4.837  15.556   7.937  0.2491 -0.1237 -0.0923
  864PNCE   C3A 7797   4.828  15.601   7.473  0.3030  0.2972  0.1640
  864PNCE   C1B 7798   5.267  15.572   8.257 -0.0307 -0.2043 -0.0996
  864PNCE   C2B 7799   5.408  15.665   7.835  0.1407 -0.0417 -0.2303
  864PNCE   C3B 7800   5.360  15.550   7.427  0.2110 -0.1335 -0.0243
  864PNCE   D4B 7801   5.194  15.454   7.138 -0.1311  0.2943 -0.1353
  864PNCE   C5B 7802   5.321  15.757   6.918 -0.2311  0.1496  0.0376
  864PNCE   C6B 7803   5.572  15.909   6.534 -0.0206  0.2714 -0.1346
  865PNCE   AM1 7804   8.584   8.587   4.391  0.1882  0.0070  0.0313
  865PNCE   AM2 7805   8.304   8.425   4.201  0.1492 -0.0871 -0.3253
  865PNCE   T1A 7806   8.745   8.316   4.581 -0.1492 -0.0759 -0.0960
  865PNCE   C2A 7807   8.631   8.242   5.072  0.2152 -0.1854 -0.2854
  865PNCE   C3A 7808   8.607   8.552   5.439 -0.2029 -0.4025 -0.0518
  865PNCE   C1B 7809   8.225   8.421   4.753 -0.0341  0.1278  0.0043
  865PNCE   C2B 7810   7.899   8.242   4.962 -0.1224  0.0015  0.1411
  865PNCE   C3B 7811   7.497   8.153   4.788 -0.0112 -0.2610  0.0532
  865PNCE   D4B 7812   7.098   8.042   4.898 -0.0303  0.0252  0.2192
  865PNCE   C5B 7813   7.001   7.919   5.331 -0.0486 -0.1031  0.0905
  865PNCE   C6B 7814   6.784   7.777   5.787  0.1534  0.0269  0.4216
  866PNCE   AM1 7815   4.416   2.776   4.553  0.2614  0.0664  0.1352
  866PNCE   AM2 7816   4.717   2.825   4.748  0.1220  0.0045 -0.0801
  866PNCE   T1A 7817   4.270   3.273   4.759 -0.0497 -0.0240  0.1461
  866PNCE   C2A 7818   4.206   3.416   5.127 -0.3533 -0.4040  0.0716
  866PNCE   C3A 7819   3.829   3.606   5.316  0.2830 -0.2437  0.1060
  866PNCE   C1B 7820   4.701   2.798   5.144  0.2184 -0.1327  0.1007
  866PNCE   C2B 7821   4.935   3.024   5.469  0.0481  0.2313 -0.2393
  866PNCE   C3B 7822   5.048   3.390   5.578 -0.0093  0.2326 -0.1404
  866PNCE   D4B 7823   5.140   3.531   5.958 -0.2121  0.0227  0.2279
  866PNCE   C5B 7824   5.464   3.745   5.903 -0.4655  0.5298 -0.1258
  866PNCE   C6B 7825   5.847   3.880   5.897  0.0966 -0.0880  0.2709
  867CHOL   ROH 7826   0.381   2.476   6.789 -0.0740  0.0518  0.0763
  867CHOL    R1 7827   0.157   2.596   6.663 -0.0338  0.0723  0.0233
  867CHOL    R2 7828   0.126   2.870   6.644  0.0040  0.0764 -0.0001
  867CHOL    R3 7829   0.100   2.816   6.379  0.0524  0.0620 -0.0017
  867CHOL    R4 7830  -0.010   3.085   6.411  0.1201  0.0934 -0.0529
  867CHOL    R5 7831  -0.109   2.914   6.318  0.0955  0.1143 -0.0616
  867CHOL    C1 7832  -0.114   3.159   6.026  0.2332  0.0897 -0.0850
  867CHOL    C2 7833  -0.300   3.441   6.053 -0.0351  0.0666  0.1529
  868PNCE   AM1 7834   9.825   5.451   4.816 -0.0977 -0.2803  0.0804
  868PNCE   AM2 7835   9.518   5.328   4.766 -0.0105  0.1533 -0.0809
  868PNCE   T1A 7836   9.697   5.410   5.203 -0.2955  0.0636 -0.1623
  868PNCE   C2A 7837   9.837   5.209   5.590  0.1013 -0.1212  0.0589
  868PNCE   C3A 7838  10.278   5.154   5.846  0.3880 -0.1744  0.1581
  868PNCE   C1B 7839   9.400   5.700   4.951  0.2561  0.1133 -0.0124
  868PNCE   C2B 7840   9.521   5.942   5.308 -0.2943  0.0991  0.1195
  868PNCE   C3B 7841   9.785   6.135   5.566 -0.0208  0.2787  0.1373
  868PNCE   D4B 7842   9.738   6.286   5.964 -0.6153  0.1144  0.1751
  868PNCE   C5B 7843   9.966   6.713   5.887  0.1896  0.2410  0.1723
  868PNCE   C6B 7844  10.158   7.008   6.057  0.3077  0.0606  0.0893
  869PNCE   AM1 7845   9.972  11.860   4.535 -0.3727 -0.3838 -0.0778
  869PNCE   AM2 7846  10.160  11.533   4.728 -0.2036  0.0670 -0.2293
  869PNCE   T1A 7847  10.075  12.014   4.948 -0.0930  0.4075 -0.0319
  869PNCE   C2A 7848  10.236  12.351   5.136  0.2951  0.2078 -0.1751
  869PNCE   C3A 7849  10.612  12.459   5.376 -0.1584 -0.2127  0.1099
  869PNCE   C1B 7850  10.160  11.545   5.197 -0.3360 -0.1189  0.1255
  869PNCE   C2B 7851  10.136  11.673   5.522 -0.1427 -0.1036 -0.1641
  869PNCE   C3B 7852  10.108  11.797   6.002  0.2695  0.3791  0.2249
  869PNCE   D4B 7853  10.298  12.114   6.401 -0.1858  0.0292  0.0328
  869PNCE   C5B 7854  10.427  11.959   6.736  0.0140 -0.1819 -0.1208
  869PNCE   C6B 7855  10.333  11.909   7.185 -0.0101  0.1473 -0.2693
  870XCA    COO 7856   7.209  12.184   4.938 -0.2598  0.1000  0.0671
  870XCA     C1 7857   7.276  12.236   5.358  0.0835 -0.0270 -0.0160
  870XCA     C2 7858   7.191  12.158   5.810  0.3862  0.1522 -0.0434
  870XCA     C3 7859   7.044  12.120   6.251  0.0300 -0.0928  0.1550
  870XCA     C4 7860   6.884  12.120   6.698 -0.3916  0.0360  0.3389
  870XCA     C5 7861   6.571  11.897   7.087 -0.2829  0.0303 -0.1317
  870XCA     C6 7862   6.244  11.873   7.224  0.2936  0.0033  0.1894
  871CHOL   ROH 7863  15.311  11.676   6.695 -0.0977  0.3567 -0.2578
  871CHOL    R1 7864  15.517  11.501   6.610 -0.1786  0.1465 -0.0331
  871CHOL    R2 7865  15.699  11.570   6.415 -0.2892 -0.2750 -0.3001
  871CHOL    R3 7866  15.881  11.502   6.606 -0.1795  0.0898 -0.2666
  871CHOL    R4 7867  16.007  11.425   6.352 -0.3304 -0.4077 -0.2017
  871CHOL    R5 7868  15.977  11.297   6.526 -0.2336 -0.0741  0.0716
  871CHOL    C1 7869  16.356  11.277   6.495 -0.2516 -0.1426 -0.1129
  871CHOL    C2 7870  16.373  11.248   6.093  0.2179 -0.2474  0.0427
  872CHOL   ROH 7871  10.958   0.571   8.679 -0.2517 -0.1743  0.0613
  872CHOL    R1 7872  10.987   0.469   8.417 -0.2954 -0.0919  0.0257
  872CHOL    R2 7873  10.795   0.503   8.221 -0.1488  0.3220 -0.0451
  872CHOL    R3 7874  11.003   0.606   8.080  0.0887  0.0527  0.0944
  872CHOL    R4 7875  10.817   0.509   7.876  0.1186  0.2162 -0.0334
  872CHOL    R5 7876  11.028   0.459   7.894  0.0599 -0.0284  0.1451
  872CHOL    C1 7877  11.026   0.610   7.543  0.4973 -0.0981  0.1045
  872CHOL    C2 7878  11.064   0.976   7.386  0.0238  0.0644  0.0295
  873XCA    COO 7879  13.410   8.681   6.463 -0.0076 -0.0645  0.2825
  873XCA     C1 7880  13.193   9.136   6.575  0.0647 -0.1570  0.0889
  873XCA     C2 7881  12.948   9.426   6.606  0.0176  0.2549  0.0148
  873XCA     C3 7882  12.761   9.810   6.589 -0.3848 -0.1998  0.3136
  873XCA     C4 7883  12.292  10.095   6.532 -0.5099 -0.0540  0.0438
  873XCA     C5 7884  11.837  10.274   6.499  0.1680  0.2941  0.1631
  873XCA     C6 7885  11.469  10.356   6.287  0.1392  0.2208 -0.0575
  874CHOL   ROH 7886  15.029   0.264   7.373  0.2940  0.3809 -0.2304
  874CHOL    R1 7887  14.886   0.321   7.610  0.1220  0.1143 -0.2653
  874CHOL    R2 7888  14.966   0.515   7.790 -0.0001 -0.0883  0.0202
  874CHOL    R3 7889  14.714   0.608   7.753  0.0301 -0.0399 -0.0624
  874CHOL    R4 7890  14.793   0.709   8.016 -0.1400 -0.2861  0.0844
  874CHOL    R5 7891  14.613   0.594   7.970 -0.1160 -0.2332 -0.1407
  874CHOL    C1 7892  14.454   0.910   8.114 -0.1932 -0.3558  0.0443
  874CHOL    C2 7893  14.244   0.849   8.342  0.0218 -0.0991 -0.1848
  875PNCE   AM1 7894   3.438   2.018   4.907 -0.2586 -0.1022 -0.0771
  875PNCE   AM2 7895   3.054   2.035   4.889 -0.1033 -0.1104  0.0684
  875PNCE   T1A 7896   3.349   2.169   5.316 -0.0243 -0.0472  0.0017
  875PNCE   C2A 7897   3.368   2.176   5.706  0.1346 -0.2220 -0.1217
  875PNCE   C3A 7898   3.392   1.860   6.135 -0.2246  0.1981  0.1316
  875PNCE   C1B 7899   2.943   1.905   5.342 -0.1814 -0.0538  0.1521
  875PNCE   C2B 7900   2.973   1.917   5.799  0.4303 -0.0135  0.2230
  875PNCE   C3B 7901   2.870   2.068   6.193  0.2427 -0.0186  0.3102
  875PNCE   D4B 7902   2.466   2.003   6.443 -0.1772 -0.0098 -0.3349
  875PNCE   C5B 7903   2.175   2.293   6.517 -0.1211  0.4286 -0.0258
  875PNCE   C6B 7904   1.798   2.219   6.763  0.1640  0.0967  0.1809
  876CHOL   ROH 7905  14.132   9.508   8.584 -0.0164  0.0636  0.1256
  876CHOL    R1 7906  14.184   9.422   8.320  0.0311 -0.0268  0.1636
  876CHOL    R2 7907  14.030   9.501   8.105  0.0186 -0.1660  0.1185
  876CHOL    R3 7908  14.269   9.579   8.003 -0.0000 -0.1258  0.1062
  876CHOL    R4 7909  14.099   9.537   7.768  0.0311 -0.2591  0.1110
  876CHOL    R5 7910  14.295   9.449   7.804  0.0550 -0.1844  0.1534
  876CHOL    C1 7911  14.365   9.632   7.477  0.0208 -0.2756  0.0952
  876CHOL    C2 7912  14.495   9.657   7.103  0.0279  0.0324  0.1173
  877CHOL   ROH 7913  12.977   8.846   7.002 -0.2243  0.1483 -0.2477
  877CHOL    R1 7914  12.880   9.105   6.938 -0.4786  0.0214 -0.3879
  877CHOL    R2 7915  12.622   9.150   6.851 -0.7313 -0.2087  0.2050
  877CHOL    R3 7916  12.617   9.326   7.058 -0.2572  0.1024 -0.0300
  877CHOL    R4 7917  12.430   9.437   6.863 -0.5173 -0.0576  0.1078
  877CHOL    R5 7918  12.598   9.540   6.953 -0.2797 -0.0305 -0.3206
  877CHOL    C1 7919  12.314   9.769   7.064  0.0524  0.3223 -0.1692
  877CHOL    C2 7920  12.041  10.098   6.918  0.0406 -0.0370  0.2298
  878CHOL   ROH 7921  13.978   3.860   7.920 -0.1662  0.0722  0.0466
  878CHOL    R1 7922  13.903   4.133   7.935 -0.0562  0.1030  0.0426
  878CHOL    R2 7923  14.047   4.319   8.080 -0.0161  0.0350  0.0914
  878CHOL    R3 7924  14.051   4.453   7.844  0.1021  0.0468  0.0997
  878CHOL    R4 7925  14.024   4.662   8.048 -0.0381  0.0337  0.0939
  878CHOL    R5 7926  13.895   4.632   7.874  0.0636  0.0268  0.0193
  878CHOL    C1 7927  14.015   4.988   7.807  0.0600  0.0441  0.1033
  878CHOL    C2 7928  13.690   5.121   8.006  0.1541 -0.1659 -0.0363
  879CHOL   ROH 7929   7.226  14.702   5.743  0.0970 -0.0228 -0.0022
  879CHOL    R1 7930   7.413  14.669   5.953 -0.1054 -0.0201  0.1801
  879CHOL    R2 7931   7.656  14.801   5.958  0.0739 -0.3503  0.1884
  879CHOL    R3 7932   7.569  14.883   6.202  0.0022  0.0809  0.0300
  879CHOL    R4 7933   7.862  14.882   6.224  0.0000 -0.4470  0.2771
  879CHOL    R5 7934   7.722  14.781   6.356 -0.3154 -0.0471  0.2755
  879CHOL    C1 7935   7.900  15.005   6.608 -0.1103 -0.0986  0.1800
  879CHOL    C2 7936   8.038  15.239   6.794 -0.2705 -0.0999  0.0479
  880CHOL   ROH 7937   8.581  12.825   8.482 -0.1287 -0.1261 -0.0105
  880CHOL    R1 7938   8.306  12.880   8.445 -0.1055 -0.0906 -0.1350
  880CHOL    R2 7939   8.205  13.137   8.444 -0.0874 -0.0825 -0.0655
  880CHOL    R3 7940   8.102  13.061   8.203  0.0394  0.0407 -0.1604
  880CHOL    R4 7941   7.956  13.306   8.273 -0.1377 -0.1044 -0.0142
  880CHOL    R5 7942   7.869  13.113   8.220  0.0004 -0.1191 -0.1948
  880CHOL    C1 7943   7.715  13.333   7.948 -0.0481 -0.0015 -0.0732
  880CHOL    C2 7944   7.343  13.408   7.761 -0.2409  0.2199 -0.1665
  881PNCE   AM1 7945  14.807   0.190   4.818 -0.2557 -0.3854 -0.0695
  881PNCE   AM2 7946  14.940   0.505   4.686  0.1891  0.0643  0.1809
  881PNCE   T1A 7947  14.530   0.427   5.254 -0.0744 -0.1883 -0.3440
  881PNCE   C2A 7948  14.590   0.517   5.686 -0.0341  0.0716  0.1021
  881PNCE   C3A 7949  14.730   0.732   6.090 -0.0868  0.1569 -0.1183
  881PNCE   C1B 7950  14.808   0.881   4.955 -0.3429  0.1216  0.1840
  881PNCE   C2B 7951  14.560   1.045   5.301  0.1192 -0.0878  0.1083
  881PNCE   C3B 7952  14.444   1.093   5.827 -0.0980 -0.0506 -0.4156
  881PNCE   D4B 7953  14.506   1.118   6.256 -0.0988  0.0377 -0.0134
  881PNCE   C5B 7954  14.188   0.820   6.480 -0.0355 -0.3229  0.0578
  881PNCE   C6B 7955  13.857   0.750   6.253  0.0145  0.1214  0.2025
  882XCA    COO 7956  13.855   1.055   4.652  0.0120  0.3644  0.3747
  882XCA     C1 7957  13.706   0.868   5.079 -0.1245 -0.0815  0.3257
  882XCA     C2 7958  13.526   0.884   5.475  0.0961  0.1495 -0.0083
  882XCA     C3 7959  13.565   0.859   5.865  0.2451  0.0110  0.1216
  882XCA     C4 7960  13.373   0.895   6.266  0.0085  0.0460 -0.1603
  882XCA     C5 7961  13.174   1.257   6.576  0.3529  0.3392  0.0584
  882XCA     C6 7962  13.202   1.303   6.961 -0.0650 -0.1263  0.2527
  883XCA    COO 7963   9.148   6.983   8.513 -0.0920 -0.0341  0.0463
  883XCA     C1 7964   9.286   7.110   8.086  0.0005  0.1500  0.0932
  883XCA     C2 7965   9.315   6.947   7.691 -0.1328 -0.1019 -0.1418
  883XCA     C3 7966   9.370   6.732   7.287 -0.2539  0.0021  0.3041
  883XCA     C4 7967   9.235   6.791   6.908 -0.1904  0.2980 -0.1688
  883XCA     C5 7968   9.257   6.929   6.374  0.1116 -0.0531  0.2679
  883XCA     C6 7969   9.056   7.101   5.982 -0.1946  0.1189 -0.3340
  884PNCE   AM1 7970   4.668   2.288   5.065 -0.4053  0.2622  0.2227
  884PNCE   AM2 7971   4.416   2.441   4.916  0.2450 -0.1343  0.0900
  884PNCE   T1A 7972   4.363   1.994   5.160  0.0098 -0.1782  0.0356
  884PNCE   C2A 7973   4.142   1.816   5.533  0.0901 -0.3202 -0.0515
  884PNCE   C3A 7974   3.797   1.848   5.888  0.1449  0.2817  0.2925
  884PNCE   C1B 7975   4.307   2.554   5.338 -0.1547 -0.2772 -0.4450
  884PNCE   C2B 7976   4.036   2.809   5.729 -0.1080 -0.1869  0.2275
  884PNCE   C3B 7977   3.833   2.765   6.090  0.1432 -0.0679 -0.1287
  884PNCE   D4B 7978   3.460   2.744   6.353  0.1143 -0.0988 -0.0116
  884PNCE   C5B 7979   3.493   3.225   6.537 -0.0300 -0.1741 -0.3462
  884PNCE   C6B 7980   3.752   3.510   6.516  0.0213 -0.1732  0.0168
  885CHOL   ROH 7981   3.308  11.751   7.826 -0.3183  0.1734  0.0562
  885CHOL    R1 7982   3.334  11.678   7.553 -0.1629  0.2005  0.0637
  885CHOL    R2 7983   3.126  11.571   7.408  0.0085 -0.0792  0.0227
  885CHOL    R3 7984   3.182  11.776   7.238 -0.2255 -0.0075  0.0271
  885CHOL    R4 7985   3.071  11.566   7.066  0.2214 -0.2280 -0.0120
  885CHOL    R5 7986   3.261  11.669   7.039  0.0760  0.0857  0.0895
  885CHOL    C1 7987   3.091  11.755   6.708  0.1258 -0.2473 -0.0281
  885CHOL    C2 7988   3.454  11.686   6.536  0.1609 -0.0798 -0.1034
  886XCA    COO 7989  13.977   4.583   4.978  0.1234 -0.1836  0.2301
  886XCA     C1 7990  14.228   4.695   5.289  0.2125 -0.1801 -0.1048
  886XCA     C2 7991  14.277   4.819   5.749  0.0185  0.2327  0.0367
  886XCA     C3 7992  14.272   4.776   6.257 -0.0829  0.0562  0.0824
  886XCA     C4 7993  14.477   4.828   6.535 -0.0907  0.2471  0.0810
  886XCA     C5 7994  14.574   5.277   6.746  0.0696 -0.0002  0.0109
  886XCA     C6 7995  14.332   5.514   6.990  0.0123  0.1156 -0.0667
  887PNCE   AM1 7996  10.422   3.417   5.267  0.2513  0.3403  0.1376
  887PNCE   AM2 7997  10.515   3.673   5.291  0.3010 -0.0701 -0.0829
  887PNCE   T1A 7998  10.091   3.308   5.659 -0.3130 -0.1113  0.0668
  887PNCE   C2A 7999  10.081   3.436   6.146  0.2260 -0.0960  0.1966
  887PNCE   C3A 8000  10.144   3.742   6.507  0.1317  0.0291 -0.2140
  887PNCE   C1B 8001  10.430   3.675   5.709 -0.1638 -0.0479  0.1344
  887PNCE   C2B 8002  10.386   3.907   6.102 -0.1903 -0.0473 -0.0122
  887PNCE   C3B 8003  10.536   4.265   6.283 -0.3183 -0.3407 -0.1108
  887PNCE   D4B 8004  10.801   4.405   6.633  0.3596  0.0495  0.0572
  887PNCE   C5B 8005  11.114   4.274   6.795 -0.0227 -0.1386 -0.4006
  887PNCE   C6B 8006  11.226   4.189   7.238 -0.0993  0.0773 -0.0144
  888PNCE   AM1 8007  11.290  14.195   5.134  0.0504 -0.0394  0.0978
  888PNCE   AM2 8008  10.930  14.242   5.006  0.2562  0.1487 -0.2326
  888PNCE   T1A 8009  11.351  13.764   5.344 -0.1283  0.0329  0.0242
  888PNCE   C2A 8010  11.373  13.379   5.663  0.0874  0.0315  0.0804
  888PNCE   C3A 8011  11.068  13.288   6.063 -0.1642 -0.2334  0.1667
  888PNCE   C1B 8012  10.677  14.098   5.329  0.0738 -0.0193 -0.1684
  888PNCE   C2B 8013  10.732  13.807   5.701 -0.0385  0.0930  0.2064
  888PNCE   C3B 8014  10.830  13.880   6.172 -0.1201 -0.1042  0.0202
  888PNCE   D4B 8015  10.960  13.837   6.646  0.0118 -0.0270  0.2959
  888PNCE   C5B 8016  11.416  13.737   6.808 -0.0801  0.1863 -0.1528
  888PNCE   C6B 8017  11.525  13.801   7.207 -0.0344 -0.2567 -0.0472
  889PNCE   AM1 8018  15.451  13.912   4.176  0.1241 -0.2037 -0.1414
  889PNCE   AM2 8019  15.683  13.721   4.378 -0.0677 -0.0427 -0.0241
  889PNCE   T1A 8020  15.166  13.613   4.391 -0.0811 -0.0441 -0.1724
  889PNCE   C2A 8021  15.004  13.468   4.753 -0.1369  0.0274 -0.4210
  889PNCE   C3A 8022  15.222  13.308   5.116  0.0092 -0.1788  0.1032
  889PNCE   C1B 8023  15.640  13.483   4.808  0.0120 -0.1846 -0.2358
  889PNCE   C2B 8024  15.861  13.555   5.220  0.1391 -0.2964 -0.1378
  889PNCE   C3B 8025  16.094  13.397   5.599 -0.0556  0.0792 -0.0122
  889PNCE   D4B 8026  16.483  13.279   5.703  0.0667  0.1072  0.1638
  889PNCE   C5B 8027  16.601  12.864   5.511 -0.1485  0.1892  0.1402
  889PNCE   C6B 8028  16.949  12.653   5.757 -0.0271  0.0063  0.1750
  890CHOL   ROH 8029  12.870   1.963   5.139 -0.2824  0.0032 -0.0248
  890CHOL    R1 8030  12.902   2.107   5.380 -0.0913 -0.0236 -0.0335
  890CHOL    R2 8031  12.779   2.032   5.616 -0.0413  0.0486  0.0120
  890CHOL    R3 8032  13.033   2.040   5.713  0.0037 -0.1138 -0.0873
  890CHOL    R4 8033  12.863   2.106   5.943  0.1205 -0.1117  0.0084
  890CHOL    R5 8034  13.032   2.222   5.868  0.1523 -0.1657 -0.0181
  890CHOL    C1 8035  13.151   2.156   6.225  0.2570 -0.3575 -0.0869
  890CHOL    C2 8036  13.070   2.368   6.565  0.0100  0.0346 -0.1742
  891PNCE   AM1 8037   5.049   0.046   5.283  0.0024 -0.0887  0.1791
  891PNCE   AM2 8038   4.798  -0.048   5.112  0.1505  0.0790  0.3517
  891PNCE   T1A 8039   4.998  -0.133   5.629 -0.0636  0.2271 -0.5114
  891PNCE   C2A 8040   4.785  -0.468   5.941 -0.3670  0.1422  0.0660
  891PNCE   C3A 8041   4.698  -0.609   6.290 -0.1647 -0.3306  0.2213
  891PNCE   C1B 8042   4.598  -0.286   5.390  0.1716 -0.1649  0.5046
  891PNCE   C2B 8043   4.308  -0.315   5.769 -0.3331  0.0116  0.2325
  891PNCE   C3B 8044   4.247  -0.452   6.227  0.0031  0.2093  0.3979
  891PNCE   D4B 8045   4.036  -0.481   6.587 -0.0297 -0.1050 -0.1353
  891PNCE   C5B 8046   3.700  -0.627   6.523  0.0700  0.0077  0.1223
  891PNCE   C6B 8047   3.335  -0.677   6.114  0.4792  0.0989 -0.4255
  892PNCE   AM1 8048   0.398   4.372   4.655 -0.2272 -0.0474 -0.1013
  892PNCE   AM2 8049   0.249   4.617   4.755  0.0364 -0.0087 -0.2319
  892PNCE   T1A 8050   0.542   4.292   5.054  0.1807 -0.2489  0.1735
  892PNCE   C2A 8051   0.627   4.080   5.447  0.2538  0.2601 -0.2512
  892PNCE   C3A 8052   0.513   4.210   5.901 -0.0173  0.2213  0.1958
  892PNCE   C1B 8053   0.644   4.770   5.003 -0.0590 -0.0831  0.4225
  892PNCE   C2B 8054   1.074   4.682   5.122  0.1527 -0.2240 -0.0255
  892PNCE   C3B 8055   1.035   4.192   5.029  0.0828 -0.0179 -0.3046
  892PNCE   D4B 8056   1.316   3.893   4.796 -0.0524 -0.0865  0.0848
  892PNCE   C5B 8057   1.471   3.532   4.962 -0.2022  0.1491 -0.2296
  892PNCE   C6B 8058   1.686   3.478   5.278 -0.0910  0.2989  0.1538
  893CHOL   ROH 8059   9.185   3.805   6.559 -0.0691  0.1563 -0.0464
  893CHOL    R1 8060   8.934   3.794   6.689 -0.0283 -0.0154  0.0221
  893CHOL    R2 8061   8.906   3.839   6.960  0.0126 -0.0234  0.0291
  893CHOL    R3 8062   8.725   4.025   6.877 -0.1405 -0.1538  0.0677
  893CHOL    R4 8063   8.721   4.043   7.170  0.2504  0.1636  0.0603
  893CHOL    R5 8064   8.549   4.013   7.039  0.0779 -0.0183  0.3212
  893CHOL    C1 8065   8.444   4.336   7.214  0.2451  0.1501  0.1148
  893CHOL    C2 8066   8.248   4.635   7.142  0.0668 -0.1602  0.1663
  894XCA    COO 8067   5.826   4.545   8.234 -0.0328 -0.0740 -0.0987
  894XCA     C1 8068   5.729   4.486   7.805 -0.0224  0.1135  0.0279
  894XCA     C2 8069   6.029   4.622   7.399 -0.1312  0.1640 -0.1227
  894XCA     C3 8070   6.240   4.603   6.987 -0.0795 -0.0748  0.1130
  894XCA     C4 8071   6.432   4.285   6.766  0.0130 -0.0191 -0.2787
  894XCA     C5 8072   6.648   4.322   6.469  0.0744  0.2557 -0.0705
  894XCA     C6 8073   7.029   4.502   6.467 -0.0317  0.3551  0.1581
  895PNCE   AM1 8074  11.783  14.521   4.789 -0.1892 -0.1422  0.0773
  895PNCE   AM2 8075  11.706  14.710   4.836  0.2290  0.0709  0.2236
  895PNCE   T1A 8076  11.953  14.548   5.285  0.0857  0.4885  0.0203
  895PNCE   C2A 8077  11.965  14.809   5.616  0.3647 -0.4244 -0.1902
  895PNCE   C3A 8078  11.792  14.595   5.961  0.5253 -0.1636 -0.3705
  895PNCE   C1B 8079  11.477  14.708   5.233  0.2331 -0.2169 -0.0021
  895PNCE   C2B 8080  11.396  14.492   5.649  0.0903  0.0103 -0.0300
  895PNCE   C3B 8081  11.166  14.101   5.696  0.0776 -0.1884  0.0262
  895PNCE   D4B 8082  11.233  13.830   5.835 -0.0152 -0.0370  0.1315
  895PNCE   C5B 8083  11.289  13.705   6.306  0.3398 -0.1966  0.4075
  895PNCE   C6B 8084  11.143  13.257   6.587  0.1349  0.2856  0.1970
  896XCA    COO 8085   2.631  15.724   4.950 -0.1549 -0.3609  0.3343
  896XCA     C1 8086   2.599  15.673   5.492  0.1617 -0.1368  0.0457
  896XCA     C2 8087   2.551  15.701   5.940  0.0793 -0.0660 -0.0483
  896XCA     C3 8088   2.386  15.832   6.293  0.0975 -0.2754  0.2162
  896XCA     C4 8089   2.649  16.027   6.655  0.0696 -0.2159 -0.1640
  896XCA     C5 8090   2.791  16.441   6.692  0.2933 -0.0137 -0.2156
  896XCA     C6 8091   3.044  16.783   6.614 -0.1979 -0.2558  0.0128
  897CHOL   ROH 8092   3.613   3.411   7.846  0.2163 -0.1011  0.0393
  897CHOL    R1 8093   3.484   3.333   7.606  0.1056 -0.0154  0.0695
  897CHOL    R2 8094   3.306   3.496   7.473  0.2351  0.1357  0.0758
  897CHOL    R3 8095   3.471   3.450   7.262  0.1646 -0.0483  0.0554
  897CHOL    R4 8096   3.266   3.632   7.157  0.3580  0.1940  0.0853
  897CHOL    R5 8097   3.325   3.440   7.073  0.1299  0.1255  0.0702
  897CHOL    C1 8098   3.399   3.668   6.776  0.3633  0.0554  0.0716
  897CHOL    C2 8099   3.105   3.878   6.653 -0.1860 -0.1504  0.2029
  898CHOL   ROH 8100   2.650   7.854   8.466 -0.0454 -0.1311  0.1187
  898CHOL    R1 8101   2.777   7.948   8.231 -0.2025  0.0716  0.1107
  898CHOL    R2 8102   2.922   7.782   8.063  0.1054  0.3033  0.1329
  898CHOL    R3 8103   2.755   7.882   7.874 -0.0765 -0.0159  0.1192
  898CHOL    R4 8104   2.974   7.761   7.723  0.1702  0.3994  0.1373
  898CHOL    R5 8105   2.901   7.965   7.704 -0.2201  0.2632  0.1293
  898CHOL    C1 8106   2.848   7.843   7.346  0.0372  0.1556  0.1269
  898CHOL    C2 8107   2.949   7.716   6.932 -0.1197 -0.2316  0.1617
  899CHOL   ROH 8108  15.050   2.695   4.527 -0.1379 -0.1579 -0.0082
  899CHOL    R1 8109  15.162   2.779   4.772 -0.0128 -0.1456 -0.0674
  899CHOL    R2 8110  15.038   2.964   4.936  0.1682  0.0219 -0.1076
  899CHOL    R3 8111  15.066   2.769   5.123  0.0577  0.0692 -0.0420
  899CHOL    R4 8112  15.040   3.017   5.278  0.2371  0.1329 -0.1252
  899CHOL    R5 8113  15.200   2.870   5.295  0.1387  0.0359 -0.0903
  899CHOL    C1 8114  15.068   2.864   5.653  0.1737  0.2419 -0.0739
  899CHOL    C2 8115  14.826   2.927   5.965  0.1360  0.2822  0.1188
  900CHOL   ROH 8116   8.111   4.219   5.428 -0.0402  0.1288 -0.1099
  900CHOL    R1 8117   8.161   4.156   5.699  0.0405  0.1604 -0.1175
  900CHOL    R2 8118   8.134   4.341   5.902 -0.2544  0.0901 -0.0909
  900CHOL    R3 8119   7.971   4.152   6.009  0.0242 -0.1804 -0.1273
  900CHOL    R4 8120   8.070   4.305   6.240 -0.4013  0.1054 -0.1162
  900CHOL    R5 8121   8.080   4.089   6.213  0.0215  0.1025 -0.0308
  900CHOL    C1 8122   7.880   4.107   6.537 -0.2255 -0.1396 -0.1651
  900CHOL    C2 8123   8.101   4.056   6.887  0.0786 -0.1420  0.1866
  901CHOL   ROH 8124  15.255   7.333   7.722  0.0406 -0.3704  0.0486
  901CHOL    R1 8125  15.279   7.197   7.475  0.0714 -0.2419 -0.0220
  901CHOL    R2 8126  15.213   7.315   7.233 -0.0548 -0.1652  0.0386
  901CHOL    R3 8127  15.466   7.241   7.166 -0.0204  0.0235 -0.0399
  901CHOL    R4 8128  15.308   7.194   6.923 -0.0772 -0.2399  0.0619
  901CHOL    R5 8129  15.437   7.050   7.024  0.0925 -0.0708  0.0730
  901CHOL    C1 8130  15.601   7.055   6.680 -0.0578 -0.1062  0.0018
  901CHOL    C2 8131  15.847   6.960   6.450  0.2992 -0.0149 -0.1394
  902PNCE   AM1 8132   4.568  10.732   5.154 -0.0706 -0.0421  0.3457
  902PNCE   AM2 8133   4.854  10.803   5.189  0.1225  0.0994  0.2005
  902PNCE   T1A 8134   4.251  10.710   5.527  0.1340  0.0536  0.0070
  902PNCE   C2A 8135   3.990  10.764   5.858 -0.2503  0.0269 -0.3219
  902PNCE   C3A 8136   4.068  11.037   6.118  0.3752 -0.2989  0.3109
  902PNCE   C1B 8137   4.730  10.952   5.595  0.2061  0.1473 -0.1399
  902PNCE   C2B 8138   4.600  10.793   5.898  0.0766  0.0025 -0.0459
  902PNCE   C3B 8139   4.347  10.679   6.224 -0.3000 -0.1407  0.2753
  902PNCE   D4B 8140   3.934  10.512   6.289  0.2080  0.2027 -0.0235
  902PNCE   C5B 8141   3.939  10.101   6.481  0.1242 -0.0897 -0.1533
  902PNCE   C6B 8142   3.520   9.926   6.763  0.1991  0.1592 -0.1087
  903CHOL   ROH 8143  10.722   1.915   6.479 -0.0867 -0.3797 -0.2566
  903CHOL    R1 8144  10.632   1.952   6.745  0.0183 -0.2910 -0.2331
  903CHOL    R2 8145  10.444   2.143   6.813  0.0891 -0.2311 -0.2138
  903CHOL    R3 8146  10.314   1.930   6.922  0.0768 -0.1718 -0.1099
  903CHOL    R4 8147  10.163   2.164   7.013  0.0788 -0.1147 -0.2393
  903CHOL    R5 8148  10.246   2.007   7.139  0.0685 -0.0543 -0.1513
  903CHOL    C1 8149   9.877   1.977   7.232  0.0614  0.0088 -0.1566
  903CHOL    C2 8150   9.707   1.820   7.464  0.0643  0.0356 -0.0120
  904PNCE   AM1 8151   9.318  13.440   4.953  0.0269 -0.2933  0.3412
  904PNCE   AM2 8152   9.612  13.622   4.975  0.1885  0.0001  0.1889
  904PNCE   T1A 8153   9.466  13.397   5.421 -0.5737 -0.0102 -0.0174
  904PNCE   C2A 8154   9.587  13.456   5.837 -0.1680  0.1261 -0.1050
  904PNCE   C3A 8155   9.916  13.644   6.111  0.3871  0.0506 -0.2898
  904PNCE   C1B 8156   9.985  13.681   5.354 -0.0352 -0.1910  0.3910
  904PNCE   C2B 8157  10.213  13.767   5.771 -0.1013  0.0371  0.0544
  904PNCE   C3B 8158  10.487  13.491   6.011  0.4327 -0.0753 -0.0081
  904PNCE   D4B 8159  10.667  13.154   6.272  0.2561  0.0469 -0.0519
  904PNCE   C5B 8160  10.516  12.991   6.531  0.0193  0.3412 -0.2564
  904PNCE   C6B 8161  10.065  12.878   6.590  0.0564 -0.0559  0.4139
  905CHOL   ROH 8162   1.483   2.863   4.824 -0.1528 -0.2465  0.0446
  905CHOL    R1 8163   1.479   3.012   5.065  0.0221 -0.1138 -0.0328
  905CHOL    R2 8164   1.367   2.915   5.298 -0.0385  0.1141  0.0340
  905CHOL    R3 8165   1.612   2.975   5.402  0.0345 -0.0614 -0.0314
  905CHOL    R4 8166   1.436   2.949   5.635  0.0478  0.1814  0.0104
  905CHOL    R5 8167   1.564   3.119   5.587  0.1916  0.0530 -0.0764
  905CHOL    C1 8168   1.705   3.025   5.929  0.1666  0.0558 -0.0648
  905CHOL    C2 8169   1.722   3.081   6.234  0.1884 -0.3498  0.5032
  906PNCE   AM1 8170   4.863   4.089   8.419  0.1005 -0.2908  0.0772
  906PNCE   AM2 8171   5.069   3.923   8.180  0.2480 -0.0980  0.3359
  906PNCE   T1A 8172   4.838   4.344   8.105  0.0818 -0.2500  0.1105
  906PNCE   C2A 8173   4.771   4.327   7.607 -0.0738 -0.1576  0.0880
  906PNCE   C3A 8174   4.826   4.446   7.307  0.0091  0.0021 -0.0513
  906PNCE   C1B 8175   5.042   3.972   7.745  0.2856 -0.0416  0.1880
  906PNCE   C2B 8176   5.078   3.931   7.254  0.6951 -0.1467 -0.0351
  906PNCE   C3B 8177   4.932   3.746   6.899  0.0470  0.0658 -0.2312
  906PNCE   D4B 8178   4.771   3.387   6.583 -0.0691  0.1343  0.2685
  906PNCE   C5B 8179   4.543   3.064   6.770  0.2557  0.1128 -0.1085
  906PNCE   C6B 8180   4.265   2.848   6.910 -0.1039  0.0124 -0.1083
  907PNCE   AM1 8181   1.903   1.393   8.980 -0.0603 -0.0980 -0.0468
  907PNCE   AM2 8182   2.057   1.783   9.148 -0.0730  0.1365 -0.2602
  907PNCE   T1A 8183   2.253   1.032   8.921 -0.3436 -0.1471  0.2349
  907PNCE   C2A 8184   2.690   1.101   9.024 -0.1039  0.2758 -0.3570
  907PNCE   C3A 8185   3.123   1.031   9.224 -0.0013  0.2844  0.3161
  907PNCE   C1B 8186   2.012   2.167   8.827 -0.3635 -0.1274  0.3075
  907PNCE   C2B 8187   1.947   2.172   8.355  0.2857 -0.1997  0.0071
  907PNCE   C3B 8188   2.006   1.899   8.041 -0.3194 -0.2602  0.0667
  907PNCE   D4B 8189   2.018   1.551   7.840  0.0702 -0.1366 -0.3320
  907PNCE   C5B 8190   1.861   1.630   7.423  0.1306 -0.2282 -0.0297
  907PNCE   C6B 8191   1.761   1.661   6.959  0.2774  0.0244  0.2448
  908PNCE   AM1 8192   4.826   9.684   4.606  0.0485  0.1194  0.2293
  908PNCE   AM2 8193   4.586   9.525   4.645  0.3001  0.0390  0.0766
  908PNCE   T1A 8194   4.805   9.491   5.071 -0.0254 -0.0944  0.1619
  908PNCE   C2A 8195   5.006   9.606   5.345 -0.2018  0.3119 -0.0961
  908PNCE   C3A 8196   5.289   9.588   5.723 -0.1334 -0.3496  0.0720
  908PNCE   C1B 8197   4.218   9.483   4.931 -0.1685 -0.0577 -0.0129
  908PNCE   C2B 8198   4.099   9.238   5.118  0.2101 -0.1260  0.2432
  908PNCE   C3B 8199   3.785   9.003   5.461 -0.0079  0.0747  0.1392
  908PNCE   D4B 8200   3.866   8.669   5.810  0.1637 -0.2093 -0.1299
  908PNCE   C5B 8201   3.790   8.223   5.839 -0.2990  0.0573  0.1541
  908PNCE   C6B 8202   3.460   7.928   6.131  0.0154  0.0856  0.1200
  909PNCE   AM1 8203   4.633  10.245   5.060  0.0293 -0.0274  0.1562
  909PNCE   AM2 8204   4.580  10.046   4.866  0.4266  0.0732  0.4051
  909PNCE   T1A 8205   4.637  10.292   5.483 -0.2159  0.0726 -0.2043
  909PNCE   C2A 8206   4.736  10.311   5.885  0.2814 -0.0692  0.1717
  909PNCE   C3A 8207   4.803  10.407   6.282 -0.0125  0.0212 -0.1712
  909PNCE   C1B 8208   5.059   9.992   5.003 -0.1248  0.1326  0.3788
  909PNCE   C2B 8209   5.418   9.936   5.241  0.2139 -0.1591 -0.2174
  909PNCE   C3B 8210   5.605   9.499   5.194 -0.3324 -0.1564  0.0117
  909PNCE   D4B 8211   5.628   9.174   5.399 -0.1044  0.2332  0.1012
  909PNCE   C5B 8212   5.388   9.080   5.838  0.2761  0.4443 -0.1974
  909PNCE   C6B 8213   5.457   8.967   6.233 -0.0941  0.2664  0.2717
  910XCA    COO 8214   4.244  13.265   5.000  0.0890 -0.1943 -0.2521
  910XCA     C1 8215   4.305  13.213   5.459 -0.0990  0.3049 -0.0466
  910XCA     C2 8216   4.186  12.853   5.651 -0.1888  0.3713  0.3576
  910XCA     C3 8217   3.879  12.697   6.000  0.0677  0.1330 -0.1563
  910XCA     C4 8218   3.725  12.883   6.359 -0.3175  0.2426  0.2957
  910XCA     C5 8219   3.771  12.697   6.781 -0.0112  0.0998 -0.0109
  910XCA     C6 8220   3.595  12.487   7.156 -0.0134 -0.1366 -0.2021
  911PNCE   AM1 8221  10.456  14.843   4.960 -0.0403 -0.4302 -0.1216
  911PNCE   AM2 8222  10.354  15.155   5.121  0.0979 -0.2700  0.1100
  911PNCE   T1A 8223  10.776  14.817   5.095 -0.3488  0.0882 -0.2947
  911PNCE   C2A 8224  11.000  14.897   5.532 -0.1967  0.0194  0.0704
  911PNCE   C3A 8225  11.092  14.820   5.897 -0.0943 -0.1280 -0.2416
  911PNCE   C1B 8226  10.696  15.298   5.408 -0.0104  0.1303 -0.1584
  911PNCE   C2B 8227  10.858  15.551   5.785 -0.2633 -0.1259 -0.2109
  911PNCE   C3B 8228  10.876  15.925   6.100 -0.2061 -0.0084  0.0684
  911PNCE   D4B 8229  11.176  16.334   6.062  0.0345  0.1996  0.3795
  911PNCE   C5B 8230  11.323  16.454   6.461  0.1270  0.0339  0.4399
  911PNCE   C6B 8231  11.526  16.598   6.844  0.1901 -0.1064  0.4139
  912CHOL   ROH 8232   6.769  10.429   8.515 -0.1673  0.0482 -0.0250
  912CHOL    R1 8233   6.789  10.315   8.257 -0.1130  0.1640 -0.0720
  912CHOL    R2 8234   6.909  10.447   8.045  0.0907  0.1862  0.0581
  912CHOL    R3 8235   7.057  10.220   8.030 -0.0616  0.0873  0.0191
  912CHOL    R4 8236   7.070  10.335   7.761  0.1642  0.2308  0.0819
  912CHOL    R5 8237   7.010  10.132   7.813 -0.0098  0.2404 -0.0584
  912CHOL    C1 8238   7.304  10.056   7.582  0.0640  0.1639  0.0590
  912CHOL    C2 8239   7.371   9.973   7.191  0.1459 -0.0027 -0.0479
  913CHOL   ROH 8240   8.166   3.014   5.197 -0.1172  0.0530 -0.0747
  913CHOL    R1 8241   8.047   3.030   5.453 -0.0739 -0.0365 -0.0488
  913CHOL    R2 8242   8.191   3.001   5.686 -0.0193 -0.0337 -0.0824
  913CHOL    R3 8243   8.079   3.241   5.748 -0.0884 -0.0824 -0.0145
  913CHOL    R4 8244   8.147   3.121   6.007  0.1338 -0.0457 -0.0560
  913CHOL    R5 8245   7.952   3.197   5.946  0.0592 -0.1351  0.0694
  913CHOL    C1 8246   8.017   3.416   6.253  0.1581 -0.0983  0.0231
  913CHOL    C2 8247   8.099   3.607   6.599  0.1230  0.2106  0.1172
  914CHOL   ROH 8248  11.186   6.284   4.658  0.1519  0.0631 -0.0176
  914CHOL    R1 8249  11.372   6.270   4.872  0.1241  0.0818  0.0080
  914CHOL    R2 8250  11.508   6.491   4.965  0.0405  0.1076  0.0699
  914CHOL    R3 8251  11.404   6.414   5.204  0.0281  0.0305  0.0399
  914CHOL    R4 8252  11.594   6.627   5.272  0.1842 -0.1370  0.1406
  914CHOL    R5 8253  11.588   6.426   5.357  0.0632 -0.1875  0.0182
  914CHOL    C1 8254  11.546   6.633   5.674  0.2563 -0.3519  0.1536
  914CHOL    C2 8255  11.602   6.633   6.001 -0.0978 -0.0690  0.0772
  915XCA    COO 8256  11.778  15.190   4.776 -0.1864 -0.0258  0.0571
  915XCA     C1 8257  12.080  15.046   5.047 -0.3209  0.0574 -0.2383
  915XCA     C2 8258  12.390  14.965   5.398 -0.1244  0.2982 -0.0744
  915XCA     C3 8259  12.423  15.160   5.827 -0.3203 -0.1649  0.1532
  915XCA     C4 8260  12.547  15.136   6.342 -0.2843 -0.1270  0.0420
  915XCA     C5 8261  12.833  14.787   6.450 -0.0543 -0.2562 -0.2157
  915XCA     C6 8262  12.972  14.393   6.532 -0.1768  0.1250  0.2812
  916PNCE   AM1 8263  11.520  10.486   5.291 -0.1220 -0.0783  0.0195
  916PNCE   AM2 8264  11.712  10.736   5.228 -0.0789  0.1545 -0.0081
  916PNCE   T1A 8265  11.471  10.516   5.767  0.1341 -0.1831 -0.0474
  916PNCE   C2A 8266  11.605  10.793   6.147  0.0347  0.2708 -0.0301
  916PNCE   C3A 8267  11.599  11.337   6.332  0.1014 -0.1825  0.1180
  916PNCE   C1B 8268  12.016  10.688   5.578 -0.1236  0.2040 -0.1308
  916PNCE   C2B 8269  12.405  10.525   5.736  0.2267 -0.0570 -0.0849
  916PNCE   C3B 8270  12.792  10.412   5.934 -0.1738 -0.1693 -0.1806
  916PNCE   D4B 8271  13.217  10.417   5.826  0.0770  0.0838 -0.2204
  916PNCE   C5B 8272  13.588  10.788   5.925 -0.1288 -0.1997  0.0257
  916PNCE   C6B 8273  13.588  10.956   6.403 -0.1005  0.3457  0.3392
  917CHOL   ROH 8274  14.291   6.872   7.392  0.1780  0.2254  0.3675
  917CHOL    R1 8275  14.476   7.048   7.269 -0.0247  0.3942  0.2995
  917CHOL    R2 8276  14.567   7.011   7.011  0.3011  0.1770  0.4414
  917CHOL    R3 8277  14.479   7.266   6.978 -0.1485 -0.0197 -0.0233
  917CHOL    R4 8278  14.695   7.236   6.782  0.3969  0.1922  0.5088
  917CHOL    R5 8279  14.678   7.392   6.933 -0.2773  0.3314  0.3242
  917CHOL    C1 8280  14.688   7.606   6.617  0.0305  0.0163  0.1119
  917CHOL    C2 8281  14.786   7.860   6.294 -0.1366  0.0105  0.2848
  918CHOL   ROH 8282  14.240   0.339   7.287 -0.0536  0.1908 -0.1850
  918CHOL    R1 8283  14.198   0.379   7.010 -0.1101  0.1558 -0.1827
  918CHOL    R2 8284  14.308   0.214   6.818  0.0341  0.2576 -0.1966
  918CHOL    R3 8285  14.050   0.192   6.736  0.0462  0.0170 -0.1716
  918CHOL    R4 8286  14.205   0.218   6.488 -0.0079  0.1202 -0.1846
  918CHOL    R5 8287  14.035   0.339   6.548 -0.1077 -0.0259 -0.1884
  918CHOL    C1 8288  13.903   0.198   6.219 -0.0210 -0.1856 -0.1542
  918CHOL    C2 8289  13.832  -0.086   5.891 -0.1581  0.0711 -0.0857
  919CHOL   ROH 8290   0.682  15.042   6.329  0.0126 -0.2452 -0.0527
  919CHOL    R1 8291   0.858  15.251   6.251 -0.0098 -0.1875  0.0444
  919CHOL    R2 8292   1.074  15.328   6.405  0.0440 -0.3008  0.0356
  919CHOL    R3 8293   1.212  15.283   6.175 -0.0337 -0.1373 -0.0433
  919CHOL    R4 8294   1.381  15.467   6.328  0.0313 -0.2713  0.0451
  919CHOL    R5 8295   1.313  15.494   6.123 -0.0305 -0.1074  0.0877
  919CHOL    C1 8296   1.690  15.504   6.067 -0.0489 -0.1007 -0.0234
  919CHOL    C2 8297   2.042  15.467   6.175  0.1673 -0.2682 -0.1835
  920CHOL   ROH 8298  11.806   0.268   5.518 -0.1097  0.1540 -0.0019
  920CHOL    R1 8299  11.986   0.229   5.733 -0.1482 -0.0938 -0.0113
  920CHOL    R2 8300  12.095   0.439   5.876  0.2667 -0.2276 -0.1137
  920CHOL    R3 8301  11.994   0.304   6.089  0.0370  0.0455 -0.0434
  920CHOL    R4 8302  12.225   0.449   6.196  0.2513 -0.2438 -0.1073
  920CHOL    R5 8303  12.187   0.235   6.213 -0.0776 -0.1805  0.0129
  920CHOL    C1 8304  12.206   0.327   6.582  0.0266  0.0031 -0.0375
  920CHOL    C2 8305  12.308   0.057   6.957 -0.1709 -0.3052  0.2199
  921PNCE   AM1 8306   2.001   4.778   4.051 -0.1238 -0.0633  0.1890
  921PNCE   AM2 8307   2.352   4.735   4.141 -0.2546  0.0875  0.0833
  921PNCE   T1A 8308   1.997   4.746   4.508  0.2122  0.0291  0.0322
  921PNCE   C2A 8309   2.038   4.430   4.858 -0.2736 -0.0283  0.0202
  921PNCE   C3A 8310   1.950   4.338   5.239  0.1859  0.3026  0.0719
  921PNCE   C1B 8311   2.515   4.640   4.610  0.3591  0.1371 -0.1340
  921PNCE   C2B 8312   2.636   4.539   5.073  0.0444 -0.4492 -0.2475
  921PNCE   C3B 8313   2.708   4.668   5.400 -0.1446 -0.4713 -0.0724
  921PNCE   D4B 8314   2.961   4.954   5.645  0.0677 -0.2062  0.3154
  921PNCE   C5B 8315   2.853   4.887   6.030  0.2914  0.0705  0.0187
  921PNCE   C6B 8316   2.633   4.648   6.403  0.1844 -0.1249  0.0877
  922CHOL   ROH 8317   4.690   5.474   7.857 -0.0417  0.0709  0.0709
  922CHOL    R1 8318   4.627   5.692   7.688 -0.1251  0.0593  0.0847
  922CHOL    R2 8319   4.817   5.816   7.530 -0.1879  0.0863  0.0207
  922CHOL    R3 8320   4.639   5.762   7.331 -0.2422  0.0498  0.0806
  922CHOL    R4 8321   4.855   5.907   7.198 -0.1766 -0.1924 -0.0564
  922CHOL    R5 8322   4.643   5.956   7.192 -0.1394 -0.0647 -0.0692
  922CHOL    C1 8323   4.711   5.909   6.819 -0.2211 -0.3888 -0.0451
  922CHOL    C2 8324   4.612   6.003   6.435  0.1837 -0.0188  0.0931
  923PNCE   AM1 8325   5.496   3.689   4.122  0.0014  0.2678 -0.0769
  923PNCE   AM2 8326   5.666   3.568   4.421  0.1426 -0.0352  0.1613
  923PNCE   T1A 8327   5.460   4.002   4.349 -0.0703  0.2609  0.1419
  923PNCE   C2A 8328   5.490   4.377   4.625  0.4536 -0.3012  0.2318
  923PNCE   C3A 8329   5.521   4.618   4.855  0.3245  0.0555 -0.4574
  923PNCE   C1B 8330   5.552   3.874   4.828  0.4675  0.0668  0.0167
  923PNCE   C2B 8331   5.605   4.155   5.201  0.0139 -0.1153 -0.2083
  923PNCE   C3B 8332   5.645   4.232   5.613  0.2604  0.3480  0.0061
  923PNCE   D4B 8333   5.347   4.202   5.837 -0.2997 -0.0504 -0.0911
  923PNCE   C5B 8334   5.273   4.031   6.205  0.2796 -0.0914  0.0874
  923PNCE   C6B 8335   4.968   3.801   6.407 -0.1145  0.3742  0.2885
  924PNCE   AM1 8336   9.932  14.737   5.292 -0.1969 -0.1593  0.1752
  924PNCE   AM2 8337   9.698  14.533   5.451  0.0764  0.1177  0.1561
  924PNCE   T1A 8338   9.984  14.891   5.797 -0.0009 -0.1741 -0.2954
  924PNCE   C2A 8339  10.143  14.748   6.229  0.5740 -0.1402 -0.2512
  924PNCE   C3A 8340  10.238  14.716   6.600 -0.2761  0.1355 -0.0518
  924PNCE   C1B 8341   9.615  14.573   5.921  0.2696 -0.0337  0.1564
  924PNCE   C2B 8342   9.428  14.448   6.306 -0.1046  0.0410 -0.2556
  924PNCE   C3B 8343   9.714  14.319   6.623  0.2517 -0.0064 -0.0271
  924PNCE   D4B 8344   9.701  14.464   7.022  0.2764 -0.0477 -0.0967
  924PNCE   C5B 8345   9.333  14.447   7.322 -0.0734  0.1282 -0.0940
  924PNCE   C6B 8346   9.161  14.575   7.666  0.1098 -0.0859  0.0078
  925CHOL   ROH 8347   4.349  15.100   5.143  0.0902 -0.2249 -0.2924
  925CHOL    R1 8348   4.317  15.146   5.421  0.0708 -0.0909 -0.3170
  925CHOL    R2 8349   4.204  14.958   5.590  0.0232  0.0083 -0.2437
  925CHOL    R3 8350   4.435  14.993   5.729  0.0141  0.0323 -0.2325
  925CHOL    R4 8351   4.252  14.868   5.920  0.0392 -0.0618 -0.2641
  925CHOL    R5 8352   4.364  15.053   5.950 -0.0059 -0.0385 -0.2175
  925CHOL    C1 8353   4.497  14.848   6.243  0.0400 -0.0801 -0.2655
  925CHOL    C2 8354   4.476  14.852   6.571  0.1086  0.1494  0.0281
  926CHOL   ROH 8355  12.597  13.899   7.929 -0.3199  0.0606 -0.0329
  926CHOL    R1 8356  12.637  13.802   7.666 -0.3080  0.0677 -0.0312
  926CHOL    R2 8357  12.724  13.964   7.459 -0.0425  0.0115  0.0466
  926CHOL    R3 8358  12.917  13.774   7.435 -0.2331 -0.1953  0.0821
  926CHOL    R4 8359  12.849  13.845   7.160  0.1290  0.1604  0.0551
  926CHOL    R5 8360  12.851  13.645   7.245 -0.1977  0.0607 -0.1215
  926CHOL    C1 8361  13.103  13.598   6.963  0.0499  0.0529  0.0933
  926CHOL    C2 8362  13.472  13.442   6.905 -0.0293 -0.0156 -0.0900
  927PNCE   AM1 8363   0.539   0.903   5.066 -0.0360  0.0593 -0.4990
  927PNCE   AM2 8364   0.723   0.488   5.165 -0.0024  0.0635 -0.0195
  927PNCE   T1A 8365   0.735   1.242   5.453  0.1690 -0.0379  0.2148
  927PNCE   C2A 8366   0.768   1.407   5.734  0.0616  0.1306 -0.2299
  927PNCE   C3A 8367   0.950   1.557   6.083  0.0680  0.1069  0.0527
  927PNCE   C1B 8368   1.047   0.274   5.498  0.3632 -0.1243  0.0405
  927PNCE   C2B 8369   1.193   0.158   5.881  0.2536  0.1352 -0.0582
  927PNCE   C3B 8370   1.448   0.215   6.134  0.2544  0.0004 -0.0565
  927PNCE   D4B 8371   1.426   0.261   6.599 -0.1945  0.2511 -0.1881
  927PNCE   C5B 8372   1.022   0.495   6.647  0.0965 -0.0259 -0.0237
  927PNCE   C6B 8373   0.994   0.909   6.768 -0.1852  0.2141  0.2514
  928CHOL   ROH 8374   2.414  13.738   8.357  0.2154 -0.1019 -0.1917
  928CHOL    R1 8375   2.272  13.852   8.140  0.0973 -0.1393 -0.1359
  928CHOL    R2 8376   2.376  13.863   7.884  0.0410 -0.0063 -0.1578
  928CHOL    R3 8377   2.144  13.737   7.819  0.1108 -0.1449 -0.1381
  928CHOL    R4 8378   2.263  13.812   7.562 -0.0084  0.0096 -0.1424
  928CHOL    R5 8379   2.061  13.859   7.630 -0.0210 -0.1489 -0.0800
  928CHOL    C1 8380   1.980  13.664   7.313  0.0283 -0.1113 -0.1149
  928CHOL    C2 8381   1.731  13.736   7.036  0.0230  0.1527 -0.0186
  929CHOL   ROH 8382   6.851  12.490   5.018  0.1813  0.2311  0.0334
  929CHOL    R1 8383   6.664  12.416   5.218 -0.0473  0.3191 -0.1442
  929CHOL    R2 8384   6.739  12.356   5.476 -0.2855 -0.0232 -0.1504
  929CHOL    R3 8385   6.556  12.547   5.540 -0.0509  0.1885 -0.0912
  929CHOL    R4 8386   6.630  12.426   5.797 -0.3303 -0.1209 -0.1436
  929CHOL    R5 8387   6.428  12.450   5.718 -0.2691  0.2228 -0.2228
  929CHOL    C1 8388   6.395  12.646   6.043 -0.1362  0.0209 -0.0840
  929CHOL    C2 8389   6.487  12.809   6.463  0.0038 -0.0715  0.1872
  930CHOL   ROH 8390   7.352   9.140   8.387  0.2742  0.2665  0.0588
  930CHOL    R1 8391   7.224   9.346   8.242  0.1113  0.1792  0.0777
  930CHOL    R2 8392   7.356   9.501   8.056 -0.0447  0.2119 -0.0003
  930CHOL    R3 8393   7.154   9.421   7.892 -0.0750  0.0911  0.0934
  930CHOL    R4 8394   7.308   9.615   7.733 -0.2368  0.1660  0.0098
  930CHOL    R5 8395   7.093   9.621   7.773 -0.2286  0.0561  0.1033
  930CHOL    C1 8396   7.091   9.607   7.392 -0.3773  0.0260  0.1036
  930CHOL    C2 8397   6.926   9.914   7.384  0.1433  0.2154 -0.1958
  931CHOL   ROH 8398   0.170  11.352   4.543  0.1770  0.2175  0.0174
  931CHOL    R1 8399   0.298  11.299   4.790  0.0032  0.1678  0.0979
  931CHOL    R2 8400   0.159  11.233   5.019 -0.1548  0.0511 -0.0314
  931CHOL    R3 8401   0.324  11.018   5.019 -0.0954  0.0958  0.0220
  931CHOL    R4 8402   0.190  11.008   5.279 -0.2480  0.0073 -0.0569
  931CHOL    R5 8403   0.405  11.005   5.244 -0.2243  0.0733  0.0688
  931CHOL    C1 8404   0.364  10.675   5.431 -0.2466  0.0238 -0.0216
  931CHOL    C2 8405   0.383  10.278   5.533  0.0689  0.1375  0.2236
  932XCA    COO 8406   7.649   9.338   8.686 -0.0437  0.4480 -0.2292
  932XCA     C1 8407   7.580   9.764   8.329  0.1401  0.1405 -0.0055
  932XCA     C2 8408   7.533   9.942   7.998 -0.0221  0.0744 -0.2278
  932XCA     C3 8409   7.704   9.935   7.666  0.0195 -0.1967 -0.1192
  932XCA     C4 8410   7.857   9.849   7.362  0.2334 -0.0527  0.0243
  932XCA     C5 8411   7.767   9.725   6.958  0.1720  0.0648  0.2677
  932XCA     C6 8412   7.723   9.280   6.769  0.2386 -0.0223 -0.4241
  933XCA    COO 8413   3.443   0.028   4.958 -0.1885 -0.1128 -0.1159
  933XCA     C1 8414   3.357   0.466   5.257 -0.0183 -0.0552  0.0121
  933XCA     C2 8415   3.098   0.647   5.545  0.2567 -0.0407 -0.2443
  933XCA     C3 8416   3.020   0.628   5.965  0.1587 -0.0341  0.1077
  933XCA     C4 8417   3.220   0.575   6.381  0.1502 -0.2739  0.1382
  933XCA     C5 8418   3.177   0.325   6.811  0.2695 -0.1495 -0.1175
  933XCA     C6 8419   3.075  -0.071   6.913  0.0635 -0.0309 -0.0846
  934CHOL   ROH 8420   9.808   4.036   5.131 -0.0413 -0.0730 -0.0318
  934CHOL    R1 8421   9.683   4.102   5.376 -0.1043  0.0344 -0.0919
  934CHOL    R2 8422   9.813   4.239   5.577 -0.0805 -0.0806 -0.0257
  934CHOL    R3 8423   9.600   4.407   5.557  0.0749  0.1074 -0.1317
  934CHOL    R4 8424   9.671   4.410   5.842 -0.0408  0.0775 -0.1057
  934CHOL    R5 8425   9.474   4.368   5.757 -0.0439  0.2430 -0.1799
  934CHOL    C1 8426   9.389   4.668   5.977  0.1281  0.3460 -0.2519
  934CHOL    C2 8427   9.099   4.586   6.281  0.0026  0.3171  0.0277
  935PNCE   AM1 8428   7.372   9.331   4.120 -0.3214  0.0565 -0.0174
  935PNCE   AM2 8429   7.074   9.253   4.045  0.2014  0.1904 -0.0011
  935PNCE   T1A 8430   7.351   9.455   4.551  0.1063 -0.2331 -0.2955
  935PNCE   C2A 8431   7.312   9.598   5.000 -0.0878 -0.1863 -0.0791
  935PNCE   C3A 8432   7.078   9.547   5.442  0.2137  0.0214  0.0033
  935PNCE   C1B 8433   6.989   9.148   4.353  0.1281  0.0231  0.0093
  935PNCE   C2B 8434   7.086   8.765   4.592  0.0209  0.1316  0.5425
  935PNCE   C3B 8435   7.259   8.584   4.848 -0.0377 -0.4647 -0.1516
  935PNCE   D4B 8436   7.386   8.308   5.252 -0.1837 -0.1024  0.2236
  935PNCE   C5B 8437   7.837   8.376   5.429 -0.2847  0.0590  0.0426
  935PNCE   C6B 8438   7.920   8.176   5.758 -0.1065 -0.2128 -0.0925
  936CHOL   ROH 8439   6.126   3.935   6.667 -0.1180 -0.0763  0.1517
  936CHOL    R1 8440   6.358   3.777   6.632 -0.1378 -0.0793  0.0281
  936CHOL    R2 8441   6.483   3.748   6.387 -0.1004  0.1538  0.0173
  936CHOL    R3 8442   6.702   3.832   6.525 -0.1099 -0.0237  0.1434
  936CHOL    R4 8443   6.811   3.691   6.293 -0.0954  0.2938 -0.0514
  936CHOL    R5 8444   6.859   3.653   6.502 -0.1024  0.0101 -0.0954
  936CHOL    C1 8445   7.206   3.736   6.367 -0.1014  0.2087  0.0270
  936CHOL    C2 8446   7.568   3.812   6.427 -0.0896 -0.0635  0.1412
  937PNCE   AM1 8447   5.138   7.599   4.295  0.2465  0.1310  0.0960
  937PNCE   AM2 8448   5.541   7.750   4.464 -0.0223  0.3116  0.0298
  937PNCE   T1A 8449   5.330   7.338   4.580 -0.1038 -0.0957 -0.1177
  937PNCE   C2A 8450   5.530   7.313   4.934 -0.4492 -0.3945  0.0221
  937PNCE   C3A 8451   5.690   7.265   5.376 -0.0726  0.0810 -0.1994
  937PNCE   C1B 8452   5.641   7.813   4.916 -0.3078 -0.1110 -0.1042
  937PNCE   C2B 8453   5.767   7.852   5.312  0.0799  0.3351 -0.3627
  937PNCE   C3B 8454   6.109   7.921   5.606 -0.2515 -0.1307  0.2773
  937PNCE   D4B 8455   6.375   7.718   6.017 -0.3585 -0.2095 -0.2475
  937PNCE   C5B 8456   6.535   7.282   6.082 -0.0082  0.1212  0.0409
  937PNCE   C6B 8457   6.572   7.040   5.753  0.0446 -0.1526  0.3610
  938XCA    COO 8458   1.183  13.768   4.638 -0.3235 -0.4237 -0.2887
  938XCA     C1 8459   0.924  13.832   5.016  0.0549  0.1213 -0.0476
  938XCA     C2 8460   0.919  13.738   5.497 -0.2520 -0.0753 -0.1520
  938XCA     C3 8461   0.920  13.583   5.993 -0.0116 -0.2179 -0.2428
  938XCA     C4 8462   0.679  13.440   6.271  0.1895  0.1521 -0.1557
  938XCA     C5 8463   0.224  13.336   6.550  0.2023  0.1724 -0.2109
  938XCA     C6 8464  -0.160  13.313   6.621 -0.0242  0.0907  0.4806
  939CHOL   ROH 8465   2.088   9.794   7.731 -0.1935 -0.0217  0.1689
  939CHOL    R1 8466   2.192   9.764   7.470 -0.1662  0.1939  0.1539
  939CHOL    R2 8467   2.260   9.518   7.364  0.2277  0.3188  0.1062
  939CHOL    R3 8468   2.093   9.594   7.164  0.0811  0.0817  0.1331
  939CHOL    R4 8469   2.294   9.426   7.033  0.4732  0.5899  0.0517
  939CHOL    R5 8470   2.237   9.629   6.976  0.0388  0.5116  0.1688
  939CHOL    C1 8471   2.158   9.444   6.652  0.4786  0.5253  0.0452
  939CHOL    C2 8472   2.132   9.441   6.281  0.0317  0.2638 -0.0142
  940CHOL   ROH 8473  15.083  13.991   6.765  0.0266 -0.1302  0.3038
  940CHOL    R1 8474  15.052  13.730   6.659  0.0632 -0.0259  0.0266
  940CHOL    R2 8475  15.196  13.639   6.442  0.3171  0.1156  0.1293
  940CHOL    R3 8476  15.262  13.437   6.611  0.0167 -0.0612  0.0421
  940CHOL    R4 8477  15.338  13.340   6.345  0.2649  0.1166  0.0489
  940CHOL    R5 8478  15.210  13.238   6.489  0.0466  0.0658 -0.1795
  940CHOL    C1 8479  15.483  12.975   6.447 -0.0476 -0.0488 -0.0797
  940CHOL    C2 8480  15.917  12.935   6.381  0.0142 -0.0262 -0.1900
  941CHOL   ROH 8481   0.688  14.549   4.954 -0.0500  0.0800  0.0174
  941CHOL    R1 8482   0.711  14.529   5.235 -0.1793  0.0793  0.0290
  941CHOL    R2 8483   0.521  14.403   5.392 -0.1586 -0.0906 -0.0767
  941CHOL    R3 8484   0.736  14.262   5.480 -0.0848  0.0806  0.0202
  941CHOL    R4 8485   0.556  14.273   5.710 -0.2124 -0.0951 -0.0730
  941CHOL    R5 8486   0.765  14.332   5.707 -0.2607  0.0810  0.0421
  941CHOL    C1 8487   0.777  14.065   5.979 -0.1744  0.0631  0.0200
  941CHOL    C2 8488   0.867  13.964   6.327  0.0857  0.3321 -0.3266
  942PNCE   AM1 8489  13.868   3.662   4.779  0.1423  0.0740  0.1254
  942PNCE   AM2 8490  13.539   3.633   4.961 -0.3714 -0.0281 -0.0404
  942PNCE   T1A 8491  14.328   3.500   4.929 -0.0133  0.1659 -0.0173
  942PNCE   C2A 8492  14.522   3.630   5.288  0.0492  0.1221 -0.0269
  942PNCE   C3A 8493  14.450   3.915   5.652  0.0273  0.1908 -0.1899
  942PNCE   C1B 8494  13.501   3.773   5.417 -0.1412  0.1115 -0.0921
  942PNCE   C2B 8495  13.499   4.050   5.837  0.1134  0.0430  0.1299
  942PNCE   C3B 8496  13.568   4.308   6.219  0.2561  0.1871 -0.3353
  942PNCE   D4B 8497  13.489   4.431   6.683 -0.0440  0.3727  0.3519
  942PNCE   C5B 8498  13.288   4.851   6.773 -0.1316 -0.1354 -0.2752
  942PNCE   C6B 8499  13.163   5.158   6.528 -0.0092  0.1979 -0.1850
  943PNCE   AM1 8500  13.594  11.084   4.350  0.4291 -0.0838  0.0925
  943PNCE   AM2 8501  13.851  11.231   4.348 -0.2601 -0.0398 -0.0081
  943PNCE   T1A 8502  13.788  10.729   4.441  0.1610 -0.1900  0.2764
  943PNCE   C2A 8503  13.940  10.629   4.831  0.0154  0.1645 -0.1505
  943PNCE   C3A 8504  14.140  10.393   5.234 -0.0414 -0.1102 -0.1734
  943PNCE   C1B 8505  13.961  11.144   4.798 -0.1794  0.3191 -0.0971
  943PNCE   C2B 8506  14.003  10.907   5.212 -0.1507 -0.1430  0.1135
  943PNCE   C3B 8507  13.841  11.053   5.555 -0.0720  0.0357  0.0779
  943PNCE   D4B 8508  13.929  11.363   5.917  0.1034 -0.2354  0.1771
  943PNCE   C5B 8509  13.997  11.225   6.263  0.1614 -0.2182 -0.1366
  943PNCE   C6B 8510  14.143  10.914   6.664 -0.0558 -0.0607 -0.2126
  944PNCE   AM1 8511   9.333   0.812   5.349  0.1536  0.0896  0.3887
  944PNCE   AM2 8512   9.235   0.569   5.073  0.0661 -0.1243 -0.1764
  944PNCE   T1A 8513   9.308   0.482   5.636  0.1121  0.0617  0.2322
  944PNCE   C2A 8514   9.399   0.384   6.107 -0.0581  0.0391  0.0522
  944PNCE   C3A 8515   9.356   0.265   6.560 -0.0350 -0.1592  0.2782
  944PNCE   C1B 8516   9.248   0.115   5.265 -0.1964  0.1774  0.1287
  944PNCE   C2B 8517   9.254  -0.057   5.634  0.2353 -0.0041  0.0897
  944PNCE   C3B 8518   9.547  -0.095   5.933 -0.2091  0.1714  0.1752
  944PNCE   D4B 8519   9.847  -0.199   6.002 -0.1106  0.0661 -0.1670
  944PNCE   C5B 8520  10.143   0.013   6.303  0.2314 -0.2660 -0.5394
  944PNCE   C6B 8521  10.420   0.212   6.460 -0.2948 -0.2411  0.0053
  945CHOL   ROH 8522  11.816  14.119   5.261  0.1846  0.2709 -0.0078
  945CHOL    R1 8523  11.646  14.145   5.486  0.0894  0.0662 -0.0534
  945CHOL    R2 8524  11.630  13.954   5.684  0.1745 -0.0107 -0.1200
  945CHOL    R3 8525  11.686  14.164   5.847 -0.0425 -0.0176 -0.0340
  945CHOL    R4 8526  11.654  13.934   6.028  0.3744 -0.1653 -0.1410
  945CHOL    R5 8527  11.550  14.126   6.041  0.1063 -0.3178  0.0161
  945CHOL    C1 8528  11.721  14.120   6.382  0.2872 -0.2619 -0.0725
  945CHOL    C2 8529  11.429  14.114   6.519  0.2022 -0.2784  0.1495
  946CHOL   ROH 8530   5.593   9.931   5.893  0.1608  0.0483 -0.0429
  946CHOL    R1 8531   5.628   9.852   6.163  0.2956  0.1836 -0.0185
  946CHOL    R2 8532   5.706  10.028   6.361  0.0251  0.3742 -0.0687
  946CHOL    R3 8533   5.482   9.937   6.485  0.1651  0.0538 -0.0441
  946CHOL    R4 8534   5.624  10.089   6.691 -0.0579  0.2931 -0.0749
  946CHOL    R5 8535   5.554   9.883   6.707  0.2521  0.1916 -0.0425
  946CHOL    C1 8536   5.366  10.038   7.000  0.0252 -0.0549 -0.0554
  946CHOL    C2 8537   5.282  10.046   7.344  0.3703 -0.1503  0.1100
  947XCA    COO 8538  14.925  12.023   8.114  0.1153  0.0780  0.1180
  947XCA     C1 8539  15.096  11.739   7.755 -0.0097 -0.2361 -0.1513
  947XCA     C2 8540  15.148  11.562   7.391 -0.0877 -0.0702  0.3751
  947XCA     C3 8541  15.338  11.390   7.166 -0.2013  0.1201 -0.1109
  947XCA     C4 8542  15.208  10.926   6.980 -0.3187  0.0370 -0.0136
  947XCA     C5 8543  15.047  10.462   7.049 -0.2688 -0.1239  0.1710
  947XCA     C6 8544  14.764  10.082   6.962  0.1365  0.2043  0.0229
  948PNCE   AM1 8545   9.590   3.173   5.577  0.0752 -0.0054 -0.1013
  948PNCE   AM2 8546   9.700   2.874   5.748 -0.0214 -0.2078  0.0718
  948PNCE   T1A 8547   9.594   3.358   5.886 -0.1128 -0.0380  0.1248
  948PNCE   C2A 8548   9.586   3.551   6.314  0.1188 -0.0605 -0.1828
  948PNCE   C3A 8549   9.582   3.832   6.657  0.0906  0.3145  0.0510
  948PNCE   C1B 8550  10.004   2.961   6.116  0.3789 -0.4695 -0.0007
  948PNCE   C2B 8551   9.847   3.085   6.468  0.1579 -0.0597 -0.1052
  948PNCE   C3B 8552   9.507   3.254   6.778  0.3041  0.1468  0.1310
  948PNCE   D4B 8553   9.324   3.619   7.020 -0.1393 -0.0753  0.1338
  948PNCE   C5B 8554   9.029   3.417   7.305 -0.0470  0.0684  0.0259
  948PNCE   C6B 8555   8.692   3.559   7.288  0.1748 -0.3369  0.3317
  949XCA    COO 8556  15.296  10.224   8.986 -0.0919 -0.0610 -0.1471
  949XCA     C1 8557  15.275  10.529   8.608  0.4979  0.1987 -0.3059
  949XCA     C2 8558  15.383  10.669   8.170  0.2074  0.2561 -0.1846
  949XCA     C3 8559  15.369  10.596   7.721  0.2634 -0.1152  0.2299
  949XCA     C4 8560  15.506  10.430   7.269  0.1302 -0.0760  0.0952
  949XCA     C5 8561  15.507  10.100   7.047 -0.1089  0.0678  0.1317
  949XCA     C6 8562  15.450   9.770   6.762  0.3008 -0.0485 -0.0162
  950CHOL   ROH 8563   0.843   9.193   8.147 -0.0524 -0.3743 -0.0940
  950CHOL    R1 8564   0.782   9.089   7.891 -0.0912 -0.0697 -0.2118
  950CHOL    R2 8565   0.666   9.242   7.692  0.0613  0.2231 -0.0799
  950CHOL    R3 8566   0.880   9.160   7.547  0.0204  0.2011 -0.1282
  950CHOL    R4 8567   0.699   9.281   7.350 -0.1503 -0.0415 -0.1336
  950CHOL    R5 8568   0.786   9.081   7.341 -0.0626 -0.0136 -0.0136
  950CHOL    C1 8569   0.920   9.225   7.015 -0.3120 -0.2162 -0.2102
  950CHOL    C2 8570   0.809   9.252   6.616  0.0324  0.0854  0.2048
  951CHOL   ROH 8571   9.341   4.605   6.901  0.0391  0.0254 -0.0732
  951CHOL    R1 8572   9.434   4.532   6.644  0.0706  0.0404 -0.0659
  951CHOL    R2 8573   9.591   4.309   6.600  0.0316  0.0140 -0.0667
  951CHOL    R3 8574   9.396   4.248   6.420  0.0518  0.0781 -0.1111
  951CHOL    R4 8575   9.633   4.103   6.326  0.0263 -0.0025 -0.0553
  951CHOL    R5 8576   9.511   4.240   6.209  0.0988  0.0387 -0.0851
  951CHOL    C1 8577   9.476   3.925   5.997  0.0425  0.0481 -0.0904
  951CHOL    C2 8578   9.470   3.786   5.668 -0.1910 -0.2718  0.0361
  952XCA    COO 8579  11.713  10.335   8.611 -0.0658  0.0161 -0.1204
  952XCA     C1 8580  11.976  10.247   8.306  0.2359 -0.0242 -0.1622
  952XCA     C2 8581  12.189  10.540   8.158  0.2096  0.2339  0.1886
  952XCA     C3 8582  12.512  10.832   8.185  0.0476 -0.1059 -0.0533
  952XCA     C4 8583  12.681  11.091   7.882  0.2471 -0.4352 -0.0543
  952XCA     C5 8584  12.856  11.076   7.419 -0.2026 -0.1108  0.1958
  952XCA     C6 8585  13.017  11.204   7.022  0.3690  0.3498 -0.0594
  953CHOL   ROH 8586  14.747   4.918   4.656 -0.0763  0.0711 -0.0450
  953CHOL    R1 8587  14.605   5.066   4.851 -0.0874 -0.0028  0.0040
  953CHOL    R2 8588  14.532   4.959   5.095 -0.0350 -0.0723 -0.0083
  953CHOL    R3 8589  14.663   5.177   5.193 -0.0715 -0.0640  0.0207
  953CHOL    R4 8590  14.613   5.008   5.428 -0.1301 -0.0535  0.0118
  953CHOL    R5 8591  14.559   5.218   5.404 -0.1312 -0.0586 -0.0113
  953CHOL    C1 8592  14.782   5.241   5.713 -0.2198 -0.0348  0.0507
  953CHOL    C2 8593  14.975   5.304   5.951  0.1393  0.1480  0.2700
  954PNCE   AM1 8594   1.504  14.107   4.984 -0.0595  0.1335  0.2101
  954PNCE   AM2 8595   1.607  14.303   5.131  0.2282 -0.1134  0.0442
  954PNCE   T1A 8596   1.371  13.685   5.147 -0.0489  0.1251 -0.0444
  954PNCE   C2A 8597   1.431  13.286   5.196 -0.2535 -0.0187  0.2375
  954PNCE   C3A 8598   1.374  12.902   5.385  0.3581 -0.0070 -0.0332
  954PNCE   C1B 8599   1.671  13.971   5.406 -0.1499 -0.1047  0.2585
  954PNCE   C2B 8600   1.621  14.182   5.852 -0.0251  0.1902  0.0239
  954PNCE   C3B 8601   1.773  14.035   6.241 -0.2696  0.1786  0.2441
  954PNCE   D4B 8602   1.564  14.045   6.642  0.2582 -0.1056 -0.2447
  954PNCE   C5B 8603   1.776  14.222   6.963  0.1617  0.0055  0.0888
  954PNCE   C6B 8604   1.679  14.065   7.416  0.0443 -0.0605  0.3244
  955XCA    COO 8605   9.930  10.636   4.457  0.1196  0.2086 -0.2817
  955XCA     C1 8606   9.999  10.402   4.853  0.1300  0.0243  0.3097
  955XCA     C2 8607   9.756  10.335   5.264  0.1003 -0.1155 -0.3033
  955XCA     C3 8608   9.776  10.114   5.661  0.3005  0.4700 -0.5281
  955XCA     C4 8609   9.833   9.854   5.986 -0.1014  0.1194  0.2139
  955XCA     C5 8610   9.601   9.523   6.192  0.0967 -0.2433 -0.1698
  955XCA     C6 8611   9.399   9.384   6.469  0.3559  0.1173 -0.0078
  956PNCE   AM1 8612   7.698   2.399   5.138 -0.0681 -0.1102  0.1398
  956PNCE   AM2 8613   7.989   2.528   5.109  0.2042  0.0815  0.1964
  956PNCE   T1A 8614   7.264   2.666   5.126 -0.1623 -0.3867 -0.0413
  956PNCE   C2A 8615   6.898   3.015   5.077 -0.0597  0.3133 -0.0467
  956PNCE   C3A 8616   6.964   3.424   5.069 -0.2437 -0.0734  0.0240
  956PNCE   C1B 8617   7.707   2.932   5.187  0.2508 -0.2094  0.1480
  956PNCE   C2B 8618   7.594   3.167   5.488 -0.0719 -0.3017 -0.1368
  956PNCE   C3B 8619   7.504   3.230   5.815 -0.1974  0.4069  0.1130
  956PNCE   D4B 8620   7.107   3.454   6.021  0.0135 -0.1435  0.1681
  956PNCE   C5B 8621   6.655   3.500   5.905  0.1059  0.1546  0.3681
  956PNCE   C6B 8622   6.277   3.593   5.848  0.1186  0.0448  0.0106
  957CHOL   ROH 8623   5.253  10.047   8.522  0.2108 -0.1663  0.2585
  957CHOL    R1 8624   5.257   9.988   8.245 -0.0625 -0.0816  0.2340
  957CHOL    R2 8625   5.473  10.046   8.083 -0.2608  0.0663  0.0125
  957CHOL    R3 8626   5.456   9.782   8.020 -0.2074  0.0766 -0.0444
  957CHOL    R4 8627   5.526   9.914   7.768  0.0665  0.1071  0.0480
  957CHOL    R5 8628   5.359   9.779   7.802  0.0242  0.1108 -0.1494
  957CHOL    C1 8629   5.542   9.589   7.526  0.3072  0.1405  0.0152
  957CHOL    C2 8630   5.665   9.699   7.196  0.0941  0.0480  0.0301
  958PNCE   AM1 8631   1.895   7.205   4.498  0.3178  0.0121 -0.0300
  958PNCE   AM2 8632   1.914   7.556   4.469  0.1812 -0.1416 -0.0504
  958PNCE   T1A 8633   1.969   7.259   4.900 -0.0184  0.2617 -0.4766
  958PNCE   C2A 8634   1.841   7.269   5.385  0.2634 -0.0391  0.0902
  958PNCE   C3A 8635   1.451   7.369   5.650  0.2044  0.1894 -0.0737
  958PNCE   C1B 8636   1.666   7.656   4.850 -0.0951 -0.1748  0.1751
  958PNCE   C2B 8637   1.539   7.810   5.309 -0.2260 -0.0398 -0.1723
  958PNCE   C3B 8638   1.120   7.823   5.552  0.0962 -0.4220 -0.3058
  958PNCE   D4B 8639   0.968   7.824   5.914  0.1468  0.2850  0.0277
  958PNCE   C5B 8640   0.728   8.138   5.953 -0.1577 -0.0969  0.2982
  958PNCE   C6B 8641   0.332   8.323   5.880 -0.3320 -0.0484 -0.0581
  959CHOL   ROH 8642   3.186   5.438   7.708 -0.3287  0.1520 -0.0886
  959CHOL    R1 8643   3.259   5.508   7.443 -0.1944  0.0373 -0.0828
  959CHOL    R2 8644   3.456   5.373   7.303 -0.1504 -0.0500  0.0603
  959CHOL    R3 8645   3.259   5.345   7.118 -0.0695 -0.0898 -0.0203
  959CHOL    R4 8646   3.505   5.272   6.976  0.0226  0.1105  0.0349
  959CHOL    R5 8647   3.359   5.420   6.913 -0.0414  0.0510  0.0444
  959CHOL    C1 8648   3.350   5.186   6.612  0.1992  0.1665 -0.0556
  959CHOL    C2 8649   3.430   5.451   6.415 -0.0954  0.0865  0.0439
  960CHOL   ROH 8650   7.924  12.015   6.942 -0.1239 -0.1607  0.1592
  960CHOL    R1 8651   7.651  12.090   6.924 -0.0858 -0.0698 -0.0658
  960CHOL    R2 8652   7.554  12.325   7.032 -0.1331 -0.1451  0.0503
  960CHOL    R3 8653   7.462  12.365   6.779  0.1453  0.1196 -0.0171
  960CHOL    R4 8654   7.277  12.515   6.951 -0.1479 -0.2009 -0.0333
  960CHOL    R5 8655   7.223  12.364   6.803  0.1117 -0.0510 -0.2956
  960CHOL    C1 8656   7.029  12.663   6.666  0.1050  0.0151 -0.1454
  960CHOL    C2 8657   6.769  12.615   6.996  0.1199 -0.2828  0.2375
  961PNCE   AM1 8658   5.425  12.043   5.153 -0.1674  0.1409  0.0874
  961PNCE   AM2 8659   5.316  11.768   5.142  0.1570 -0.0711  0.0577
  961PNCE   T1A 8660   5.496  12.164   5.620  0.1765  0.0573 -0.1109
  961PNCE   C2A 8661   5.508  12.173   6.034 -0.2977 -0.0628  0.2549
  961PNCE   C3A 8662   5.673  12.102   6.326 -0.1808  0.0676  0.1952
  961PNCE   C1B 8663   5.149  11.756   5.571  0.0132  0.0233 -0.3489
  961PNCE   C2B 8664   4.857  11.421   5.834  0.2714 -0.0229  0.2110
  961PNCE   C3B 8665   4.864  11.134   6.183  0.1540  0.0665  0.0642
  961PNCE   D4B 8666   4.741  10.916   6.499 -0.0152  0.0773  0.0961
  961PNCE   C5B 8667   5.128  10.727   6.717  0.1100  0.1248  0.1007
  961PNCE   C6B 8668   5.274  10.345   6.509  0.0733 -0.0908  0.2336
  962CHOL   ROH 8669  10.723  10.815   5.101  0.1428 -0.0007 -0.0433
  962CHOL    R1 8670  10.663  10.967   5.333  0.1369  0.0090 -0.0514
  962CHOL    R2 8671  10.501  10.873   5.535  0.0291  0.0675 -0.1119
  962CHOL    R3 8672  10.715  10.934   5.691  0.0056 -0.0402 -0.0358
  962CHOL    R4 8673  10.511  10.837   5.879 -0.0021 -0.2470 -0.1404
  962CHOL    R5 8674  10.619  11.026   5.890 -0.0314 -0.2360  0.0422
  962CHOL    C1 8675  10.718  10.874   6.225 -0.0422 -0.5313 -0.0855
  962CHOL    C2 8676  10.630  10.847   6.599 -0.2300 -0.1165 -0.1477
  963PNCE   AM1 8677   0.120   1.723   4.659 -0.0369 -0.0888 -0.0657
  963PNCE   AM2 8678   0.194   1.944   4.941  0.0826 -0.1913 -0.0985
  963PNCE   T1A 8679  -0.145   1.461   4.979 -0.2719 -0.3668  0.0852
  963PNCE   C2A 8680  -0.241   1.340   5.314 -0.0257 -0.0146 -0.0160
  963PNCE   C3A 8681  -0.207   0.973   5.499 -0.1754  0.1223  0.0497
  963PNCE   C1B 8682   0.388   2.204   5.320 -0.1665 -0.0678  0.1217
  963PNCE   C2B 8683   0.268   2.407   5.730 -0.1882 -0.1011 -0.1645
  963PNCE   C3B 8684   0.185   2.821   5.906  0.1146 -0.0356  0.1964
  963PNCE   D4B 8685   0.327   3.272   6.016 -0.2033  0.1354 -0.0458
  963PNCE   C5B 8686   0.719   3.414   6.226  0.0613  0.0326  0.1129
  963PNCE   C6B 8687   1.071   3.477   6.611 -0.1641 -0.2155 -0.1695
  964CHOL   ROH 8688   6.108   0.784   5.664 -0.1178  0.0773  0.0728
  964CHOL    R1 8689   6.100   0.680   5.927 -0.0988  0.1600  0.1063
  964CHOL    R2 8690   5.995   0.821   6.139 -0.3537  0.1124  0.0141
  964CHOL    R3 8691   5.843   0.598   6.171 -0.1026 -0.0608  0.0316
  964CHOL    R4 8692   5.868   0.711   6.442 -0.1108 -0.0859  0.0478
  964CHOL    R5 8693   5.915   0.507   6.381  0.0857 -0.0270 -0.0147
  964CHOL    C1 8694   5.651   0.438   6.647  0.2664 -0.3640  0.0838
  964CHOL    C2 8695   5.664   0.372   7.129 -0.0841 -0.0067  0.0779
  965XCA    COO 8696   4.053   0.538   8.870  0.0146 -0.0011 -0.0872
  965XCA     C1 8697   4.070   0.385   8.395  0.1564  0.3571 -0.1287
  965XCA     C2 8698   4.121   0.463   7.937 -0.1173  0.2762 -0.0500
  965XCA     C3 8699   4.071   0.701   7.569 -0.2782  0.2274 -0.0600
  965XCA     C4 8700   4.283   0.890   7.339 -0.0294  0.0241 -0.3185
  965XCA     C5 8701   4.186   1.170   7.016 -0.0321  0.0373  0.3688
  965XCA     C6 8702   3.849   1.369   6.858  0.2575  0.1238 -0.3911
  966XCA    COO 8703   4.704   0.004   8.727  0.0441  0.0007 -0.1348
  966XCA     C1 8704   4.549   0.183   8.346  0.0675 -0.0084  0.2401
  966XCA     C2 8705   4.536   0.139   7.933  0.1542  0.0518 -0.0625
  966XCA     C3 8706   4.510   0.130   7.373  0.1257 -0.0989  0.0573
  966XCA     C4 8707   4.337   0.326   7.024  0.2424 -0.1567  0.0364
  966XCA     C5 8708   3.878   0.223   6.971  0.0944  0.1178  0.1886
  966XCA     C6 8709   3.518   0.269   7.165 -0.2323  0.1106 -0.0633
  967PNCE   AM1 8710   2.337   8.096   4.880  0.0234  0.0685  0.1965
  967PNCE   AM2 8711   2.166   7.851   4.809  0.0581 -0.0091  0.2376
  967PNCE   T1A 8712   2.316   8.379   5.012 -0.1927 -0.1100 -0.1833
  967PNCE   C2A 8713   2.404   8.824   5.208  0.1693  0.0455 -0.0703
  967PNCE   C3A 8714   2.543   9.231   5.403 -0.0366  0.1447  0.0575
  967PNCE   C1B 8715   1.983   7.720   5.226  0.1711  0.1224  0.0638
  967PNCE   C2B 8716   1.879   7.839   5.640  0.0549 -0.1737 -0.0011
  967PNCE   C3B 8717   1.732   8.092   5.959 -0.2036  0.1197 -0.0356
  967PNCE   D4B 8718   1.590   8.407   6.226  0.0485  0.1274  0.2095
  967PNCE   C5B 8719   1.673   8.520   6.669  0.0148  0.1226  0.0288
  967PNCE   C6B 8720   1.602   8.761   7.042  0.3213  0.0324 -0.1310
  968PNCE   AM1 8721  10.009   4.346   9.025  0.1495  0.0697 -0.2917
  968PNCE   AM2 8722   9.757   4.276   9.120 -0.1114  0.1022 -0.0655
  968PNCE   T1A 8723  10.021   4.373   8.635 -0.1249  0.2826  0.1528
  968PNCE   C2A 8724  10.229   4.282   8.273  0.0427 -0.4805  0.0014
  968PNCE   C3A 8725  10.493   4.352   7.921  0.2063  0.3487  0.0090
  968PNCE   C1B 8726   9.523   4.063   8.876 -0.2081 -0.1082 -0.1688
  968PNCE   C2B 8727   9.213   4.079   8.662 -0.1448  0.1439  0.0206
  968PNCE   C3B 8728   8.911   4.471   8.600  0.0594 -0.1094 -0.1245
  968PNCE   D4B 8729   8.587   4.551   8.326  0.5452 -0.2960 -0.3123
  968PNCE   C5B 8730   8.685   4.689   7.990 -0.1517 -0.1367  0.1912
  968PNCE   C6B 8731   8.543   4.610   7.529  0.0206  0.0579 -0.2242
  969PNCE   AM1 8732   0.599  11.323   4.222 -0.0469 -0.2392  0.2162
  969PNCE   AM2 8733   0.370  11.008   4.200 -0.0308  0.1105  0.2139
  969PNCE   T1A 8734   1.001  11.202   4.370 -0.0405  0.1701 -0.0899
  969PNCE   C2A 8735   1.140  11.024   4.640  0.1092  0.3170 -0.1870
  969PNCE   C3A 8736   1.292  10.787   5.010  0.1308 -0.3045 -0.0159
  969PNCE   C1B 8737   0.546  10.928   4.595 -0.2133  0.1272 -0.1791
  969PNCE   C2B 8738   0.743  11.198   4.929  0.1833 -0.0064 -0.2164
  969PNCE   C3B 8739   1.143  11.257   5.122 -0.1513  0.0644  0.1189
  969PNCE   D4B 8740   1.424  11.066   5.438  0.1131 -0.0852 -0.2692
  969PNCE   C5B 8741   1.295  11.125   5.831  0.5493  0.0880  0.0040
  969PNCE   C6B 8742   1.010  11.197   6.084  0.0770  0.0330  0.2344
  970CHOL   ROH 8743   1.168   7.389   4.291 -0.0228  0.1241 -0.0700
  970CHOL    R1 8744   1.343   7.318   4.502  0.0511  0.1324 -0.1283
  970CHOL    R2 8745   1.315   7.417   4.758  0.0899  0.0768 -0.1042
  970CHOL    R3 8746   1.313   7.154   4.825  0.1801  0.0638 -0.1498
  970CHOL    R4 8747   1.435   7.288   5.055 -0.1441  0.1083  0.0068
  970CHOL    R5 8748   1.518   7.120   4.943  0.0801  0.1745  0.0650
  970CHOL    C1 8749   1.503   6.965   5.291 -0.1956  0.1142  0.0285
  970CHOL    C2 8750   1.675   6.809   5.534 -0.2913 -0.1168  0.0258
  971PNCE   AM1 8751  11.443   3.134   5.073 -0.1038 -0.2210  0.0009
  971PNCE   AM2 8752  11.401   3.470   5.280  0.1342  0.2248 -0.3158
  971PNCE   T1A 8753  11.827   3.231   5.318  0.2079 -0.0981 -0.1450
  971PNCE   C2A 8754  12.140   3.296   5.698  0.0080  0.1272  0.1294
  971PNCE   C3A 8755  12.402   3.408   6.032  0.2706  0.0591  0.0143
  971PNCE   C1B 8756  11.574   3.583   5.701  0.1936  0.1480  0.2210
  971PNCE   C2B 8757  11.849   3.709   6.024 -0.1607  0.0528 -0.1733
  971PNCE   C3B 8758  12.141   3.711   6.317  0.0531 -0.1802 -0.1321
  971PNCE   D4B 8759  12.431   3.530   6.666  0.3400  0.0574 -0.0322
  971PNCE   C5B 8760  12.652   3.286   6.457 -0.0241  0.1664 -0.0236
  971PNCE   C6B 8761  12.967   3.256   6.174  0.1881  0.0153  0.1515
  972CHOL   ROH 8762   1.489   5.590   6.084 -0.1133 -0.0451 -0.0786
  972CHOL    R1 8763   1.575   5.776   5.888 -0.1354 -0.0393 -0.0843
  972CHOL    R2 8764   1.787   5.724   5.717 -0.0382  0.0349  0.0028
  972CHOL    R3 8765   1.604   5.784   5.525 -0.0024 -0.1044 -0.0741
  972CHOL    R4 8766   1.863   5.839   5.400 -0.0052  0.1726  0.0605
  972CHOL    R5 8767   1.694   5.976   5.414 -0.1411  0.0026  0.0060
  972CHOL    C1 8768   1.735   5.961   5.035  0.0477  0.1220  0.0218
  972CHOL    C2 8769   1.901   6.239   4.809 -0.2804  0.1404  0.0599
  973PNCE   AM1 8770  12.692  13.790   5.136  0.2225  0.1228  0.3178
  973PNCE   AM2 8771  12.812  13.912   5.372 -0.2152 -0.0837 -0.2539
  973PNCE   T1A 8772  12.449  13.646   5.397 -0.0070  0.6588  0.4557
  973PNCE   C2A 8773  12.070  13.880   5.598 -0.4518 -0.0918 -0.0980
  973PNCE   C3A 8774  12.170  14.270   5.809  0.0914 -0.1923  0.0472
  973PNCE   C1B 8775  12.564  14.005   5.711  0.0331 -0.1779  0.2375
  973PNCE   C2B 8776  12.643  14.054   6.127  0.2302  0.0195  0.0551
  973PNCE   C3B 8777  12.481  14.363   6.287  0.1277 -0.0468  0.0548
  973PNCE   D4B 8778  12.325  14.672   6.541  0.1154 -0.1191 -0.1858
  973PNCE   C5B 8779  11.996  14.601   6.913 -0.1409 -0.2166  0.0001
  973PNCE   C6B 8780  11.950  14.655   7.343  0.0497  0.0569  0.3405
  974XCA    COO 8781   3.356   7.430   8.423 -0.2912  0.1622  0.0415
  974XCA     C1 8782   3.582   7.414   8.090  0.1257 -0.0550 -0.0236
  974XCA     C2 8783   3.359   7.461   7.673 -0.1263 -0.0695 -0.0577
  974XCA     C3 8784   3.176   7.449   7.336  0.1123  0.0158 -0.1967
  974XCA     C4 8785   2.980   7.163   7.083 -0.1392  0.2894 -0.0418
  974XCA     C5 8786   2.581   6.988   6.923  0.0331  0.0670  0.2220
  974XCA     C6 8787   2.436   6.774   6.642 -0.1781  0.3079  0.1721
  975CHOL   ROH 8788  10.424   3.721   8.892 -0.0946  0.2085  0.0532
  975CHOL    R1 8789  10.393   3.690   8.612 -0.1237  0.3021  0.0452
  975CHOL    R2 8790  10.424   3.900   8.435  0.2014  0.2914  0.0818
  975CHOL    R3 8791  10.602   3.732   8.317 -0.0387  0.0429  0.0663
  975CHOL    R4 8792  10.567   3.949   8.124  0.2823  0.1264  0.0926
  975CHOL    R5 8793  10.543   3.736   8.085 -0.0288  0.1598  0.0649
  975CHOL    C1 8794  10.817   3.820   7.832  0.1042 -0.2029  0.0843
  975CHOL    C2 8795  10.774   3.687   7.423  0.0534 -0.0786 -0.2088
  976XCA    COO 8796   3.954   0.143   4.766 -0.3455 -0.2575  0.2218
  976XCA     C1 8797   3.827   0.338   5.126 -0.5162  0.2551 -0.0654
  976XCA     C2 8798   3.962   0.545   5.468 -0.1697 -0.1451 -0.4699
  976XCA     C3 8799   4.282   0.471   5.902 -0.3971 -0.0362  0.0203
  976XCA     C4 8800   4.260   0.606   6.265 -0.2387  0.2586 -0.0504
  976XCA     C5 8801   4.108   0.596   6.722 -0.1061 -0.2251 -0.1103
  976XCA     C6 8802   3.909   0.782   7.031  0.0626  0.0374 -0.0094
  977PNCE   AM1 8803  13.730  13.741   4.747 -0.2485 -0.0544 -0.0640
  977PNCE   AM2 8804  13.695  14.042   4.750  0.2297  0.0721  0.1501
  977PNCE   T1A 8805  13.963  13.832   5.091  0.0733  0.3920  0.2157
  977PNCE   C2A 8806  14.160  14.057   5.379  0.2363  0.0390  0.0343
  977PNCE   C3A 8807  13.996  14.249   5.699  0.3128  0.0524 -0.5617
  977PNCE   C1B 8808  13.667  14.326   5.035 -0.0471  0.0755 -0.0681
  977PNCE   C2B 8809  13.557  14.422   5.521 -0.1967 -0.1151  0.3066
  977PNCE   C3B 8810  13.416  14.689   5.705  0.0738 -0.1460  0.1242
  977PNCE   D4B 8811  13.054  14.582   5.989 -0.1733  0.0678 -0.2134
  977PNCE   C5B 8812  12.616  14.663   5.899  0.0980  0.2338  0.0221
  977PNCE   C6B 8813  12.233  14.772   6.029 -0.1755  0.1923  0.0989
  978XCA    COO 8814   9.216  13.830   5.197 -0.1206  0.0563  0.1063
  978XCA     C1 8815   9.142  13.696   5.562 -0.1310 -0.2161 -0.2545
  978XCA     C2 8816   9.200  13.697   5.980 -0.2901  0.0969  0.1404
  978XCA     C3 8817   9.088  13.592   6.432 -0.3578 -0.0412  0.0146
  978XCA     C4 8818   9.168  13.456   6.745  0.1437 -0.1897 -0.1809
  978XCA     C5 8819   9.321  13.065   6.668  0.1159  0.1406 -0.1665
  978XCA     C6 8820   9.620  12.748   6.923 -0.2241  0.0058 -0.2022
  979PNCE   AM1 8821   7.977   1.635   5.170  0.0007  0.0562  0.2640
  979PNCE   AM2 8822   7.961   1.975   5.076  0.4418 -0.0208 -0.3941
  979PNCE   T1A 8823   8.271   1.773   5.526  0.0900  0.1771 -0.1599
  979PNCE   C2A 8824   8.155   1.790   6.001  0.0363  0.0528  0.0309
  979PNCE   C3A 8825   8.088   1.859   6.433 -0.1549 -0.0767 -0.0994
  979PNCE   C1B 8826   8.325   2.180   5.328 -0.0974 -0.1310  0.1134
  979PNCE   C2B 8827   8.565   2.144   5.628  0.2344  0.0129 -0.0729
  979PNCE   C3B 8828   8.576   2.278   6.086 -0.3197 -0.2131 -0.1376
  979PNCE   D4B 8829   8.534   2.168   6.495  0.1963 -0.1820 -0.1714
  979PNCE   C5B 8830   8.211   2.300   6.595 -0.0657  0.3127 -0.2389
  979PNCE   C6B 8831   8.057   2.662   6.694  0.0648  0.1835 -0.2767
  980PNCE   AM1 8832  15.485  10.397   4.268  0.3314 -0.1787 -0.0700
  980PNCE   AM2 8833  15.750  10.692   4.258 -0.0206 -0.0911 -0.4333
  980PNCE   T1A 8834  15.089  10.459   4.388 -0.1416  0.0180  0.0745
  980PNCE   C2A 8835  14.769  10.765   4.677  0.3083  0.0671  0.0040
  980PNCE   C3A 8836  14.449  10.677   4.973  0.0063 -0.4106  0.1430
  980PNCE   C1B 8837  16.077  10.609   4.625 -0.1409  0.0990 -0.1242
  980PNCE   C2B 8838  16.347  10.366   5.030 -0.0345 -0.1310 -0.0525
  980PNCE   C3B 8839  16.716  10.264   5.233  0.2979  0.0551 -0.4044
  980PNCE   D4B 8840  17.104  10.327   5.109  0.1418 -0.3149 -0.0381
  980PNCE   C5B 8841  17.394  10.581   5.338  0.0528  0.1623 -0.2734
  980PNCE   C6B 8842  17.472  10.625   5.769 -0.0367 -0.0241 -0.2337
  981PNCE   AM1 8843   7.693   1.949   5.462  0.3643 -0.2850 -0.0807
  981PNCE   AM2 8844   7.589   1.945   5.759  0.1792 -0.4268 -0.2592
  981PNCE   T1A 8845   7.969   2.193   5.665 -0.0112 -0.2645  0.0048
  981PNCE   C2A 8846   8.300   2.541   5.747 -0.1329  0.0364  0.0931
  981PNCE   C3A 8847   8.381   2.693   6.240 -0.1336 -0.0005 -0.0811
  981PNCE   C1B 8848   7.647   1.952   6.159 -0.0003  0.1900 -0.0782
  981PNCE   C2B 8849   7.679   2.047   6.624  0.0456 -0.2082 -0.1682
  981PNCE   C3B 8850   7.824   2.287   6.859  0.1922  0.0817 -0.1979
  981PNCE   D4B 8851   7.858   2.353   7.348  0.0662 -0.0847 -0.1198
  981PNCE   C5B 8852   7.649   2.132   7.647  0.0918  0.0295 -0.2600
  981PNCE   C6B 8853   7.371   1.908   7.813 -0.0665  0.0806  0.0093
  982CHOL   ROH 8854   8.862  12.982   8.177  0.1182  0.2160 -0.2282
  982CHOL    R1 8855   8.921  12.913   7.909  0.0970  0.0900 -0.2010
  982CHOL    R2 8856   8.775  12.726   7.767  0.0771  0.0336 -0.1065
  982CHOL    R3 8857   8.750  12.929   7.588  0.0774 -0.0464 -0.1981
  982CHOL    R4 8858   8.672  12.689   7.439 -0.0762 -0.0919 -0.0456
  982CHOL    R5 8859   8.823  12.834   7.380 -0.0460 -0.1774 -0.1831
  982CHOL    C1 8860   8.589  12.857   7.080 -0.1651 -0.2401 -0.0962
  982CHOL    C2 8861   8.358  12.864   6.821  0.0012 -0.0447  0.0470
  983PNCE   AM1 8862   4.296   8.165   4.080  0.3912 -0.2604 -0.5650
  983PNCE   AM2 8863   4.401   7.893   4.344  0.2719 -0.1602 -0.0851
  983PNCE   T1A 8864   4.074   8.298   4.381 -0.1868  0.2265  0.1140
  983PNCE   C2A 8865   3.957   8.331   4.804  0.1417 -0.0521 -0.0585
  983PNCE   C3A 8866   3.793   8.457   5.223  0.0275  0.0843  0.2128
  983PNCE   C1B 8867   4.555   8.274   4.575 -0.2864  0.3247  0.2299
  983PNCE   C2B 8868   4.409   8.370   5.015  0.1768  0.2068  0.0644
  983PNCE   C3B 8869   4.434   8.215   5.472  0.0965  0.0030  0.1852
  983PNCE   D4B 8870   4.214   7.931   5.741  0.0108 -0.0743 -0.0222
  983PNCE   C5B 8871   4.007   7.592   5.732 -0.0942 -0.1326 -0.3229
  983PNCE   C6B 8872   3.709   7.344   6.006  0.2442  0.0011 -0.0179
  984XCA    COO 8873  12.636  11.497   5.219 -0.1750  0.0392  0.0323
  984XCA     C1 8874  12.820  11.757   5.489  0.0303  0.0609  0.2877
  984XCA     C2 8875  12.990  11.844   5.844  0.1461 -0.1351  0.0070
  984XCA     C3 8876  12.934  11.728   6.181 -0.1334  0.0035 -0.1117
  984XCA     C4 8877  13.133  11.405   6.288  0.1740 -0.0623  0.1512
  984XCA     C5 8878  12.957  11.039   6.524 -0.1014 -0.0738 -0.1999
  984XCA     C6 8879  13.118  10.591   6.384 -0.2430  0.1115  0.3144
  985CHOL   ROH 8880   1.505   5.117   8.209 -0.1881  0.1703 -0.0321
  985CHOL    R1 8881   1.524   5.023   7.943 -0.1097  0.0797  0.0041
  985CHOL    R2 8882   1.305   5.006   7.775 -0.0567  0.0525 -0.0659
  985CHOL    R3 8883   1.460   5.157   7.610  0.0191 -0.0207 -0.0617
  985CHOL    R4 8884   1.287   5.004   7.430  0.1045 -0.0994 -0.0746
  985CHOL    R5 8885   1.504   5.015   7.423  0.1067 -0.1024  0.0216
  985CHOL    C1 8886   1.422   5.145   7.074  0.2695 -0.2564 -0.0757
  985CHOL    C2 8887   1.468   4.932   6.629 -0.1860  0.4771 -0.2111
  986CHOL   ROH 8888  15.475   3.293   4.867 -0.0184  0.0432  0.1952
  986CHOL    R1 8889  15.390   3.233   5.130  0.1009 -0.0147  0.2211
  986CHOL    R2 8890  15.549   3.278   5.351  0.1244  0.1250  0.1741
  986CHOL    R3 8891  15.333   3.419   5.438  0.0316 -0.0472  0.2287
  986CHOL    R4 8892  15.409   3.252   5.666  0.3371  0.1359  0.2714
  986CHOL    R5 8893  15.212   3.264   5.574  0.2660 -0.1070  0.3777
  986CHOL    C1 8894  15.125   3.368   5.931  0.3740 -0.0195  0.3794
  986CHOL    C2 8895  14.902   3.363   6.328 -0.0191  0.2152  0.1045
  987XCA    COO 8896  15.147   2.183   8.801 -0.2360 -0.2645 -0.2207
  987XCA     C1 8897  14.751   2.283   8.527  0.1133 -0.2115  0.2857
  987XCA     C2 8898  14.604   2.313   8.101  0.0513  0.2433  0.0701
  987XCA     C3 8899  14.280   2.224   7.712  0.1056 -0.1257 -0.4877
  987XCA     C4 8900  14.219   2.158   7.213  0.3859 -0.0414 -0.2182
  987XCA     C5 8901  14.120   2.332   6.811 -0.2039  0.0187  0.0349
  987XCA     C6 8902  14.141   2.720   6.661  0.0487  0.2114 -0.4180
  988PNCE   AM1 8903   9.118   1.191   9.479 -0.0248 -0.2008 -0.3000
  988PNCE   AM2 8904   9.034   1.387   9.187 -0.2437 -0.0882 -0.3664
  988PNCE   T1A 8905   9.270   1.009   9.064  0.1024 -0.2033  0.1850
  988PNCE   C2A 8906   9.486   1.180   8.663 -0.3540 -0.3384  0.4141
  988PNCE   C3A 8907   9.595   1.274   8.316 -0.0273 -0.1665  0.0069
  988PNCE   C1B 8908   9.055   1.459   8.662  0.1148 -0.3112 -0.0705
  988PNCE   C2B 8909   8.936   1.239   8.303 -0.2672 -0.2222  0.3134
  988PNCE   C3B 8910   9.280   1.287   7.929 -0.1356  0.2253  0.1251
  988PNCE   D4B 8911   9.369   1.127   7.528  0.3319 -0.0666  0.2318
  988PNCE   C5B 8912   9.719   0.806   7.505  0.0028 -0.1636 -0.1368
  988PNCE   C6B 8913   9.749   0.425   7.561  0.2989 -0.1108  0.0913
  989CHOL   ROH 8914  15.531   9.624   5.407 -0.2549 -0.1484 -0.1125
  989CHOL    R1 8915  15.368   9.564   5.630 -0.1500 -0.1134 -0.0259
  989CHOL    R2 8916  15.380   9.707   5.867 -0.0449 -0.0710 -0.0577
  989CHOL    R3 8917  15.113   9.736   5.826 -0.0659 -0.0869  0.0617
  989CHOL    R4 8918  15.143   9.738   6.117  0.0865  0.1046  0.0478
  989CHOL    R5 8919  15.011   9.609   6.001  0.0193  0.0324  0.2005
  989CHOL    C1 8920  14.755   9.783   6.224  0.1433  0.1918  0.2214
  989CHOL    C2 8921  14.479   9.827   6.574 -0.0684 -0.1809 -0.1988
  990CHOL   ROH 8922  15.172   2.063   4.574  0.1080  0.2471  0.0097
  990CHOL    R1 8923  15.016   2.106   4.806  0.1224  0.3054  0.0090
  990CHOL    R2 8924  14.941   1.900   4.975 -0.1737  0.2920 -0.1299
  990CHOL    R3 8925  15.057   2.057   5.164  0.0021  0.0284 -0.0128
  990CHOL    R4 8926  14.889   1.872   5.316  0.0127 -0.0700 -0.1273
  990CHOL    R5 8927  14.886   2.089   5.329  0.1123 -0.0829  0.1226
  990CHOL    C1 8928  14.968   2.003   5.692  0.2863 -0.5281 -0.0159
  990CHOL    C2 8929  14.855   1.763   5.996  0.2129 -0.1315  0.3844
  991CHOL   ROH 8930   2.029   8.145   8.162 -0.0087  0.1419 -0.0518
  991CHOL    R1 8931   1.905   8.128   7.909 -0.0819  0.0410 -0.0091
  991CHOL    R2 8932   2.047   8.134   7.672 -0.1586  0.0333 -0.0529
  991CHOL    R3 8933   1.916   7.902   7.624 -0.0966 -0.0218  0.0390
  991CHOL    R4 8934   1.986   8.003   7.358 -0.1839 -0.0669 -0.0068
  991CHOL    R5 8935   1.787   7.945   7.427 -0.1538 -0.1117  0.0531
  991CHOL    C1 8936   1.827   7.708   7.130 -0.1404 -0.1770  0.1063
  991CHOL    C2 8937   1.772   7.525   6.777 -0.3631 -0.1265  0.2885
  992CHOL   ROH 8938   5.938   7.067   8.199 -0.1060  0.0327  0.0419
  992CHOL    R1 8939   5.893   7.122   7.925 -0.0629 -0.0469  0.0188
  992CHOL    R2 8940   6.096   7.122   7.738 -0.0318 -0.0879  0.0536
  992CHOL    R3 8941   5.935   6.945   7.610  0.0002 -0.1329  0.0748
  992CHOL    R4 8942   6.072   7.089   7.395 -0.0857 -0.0761  0.0560
  992CHOL    R5 8943   5.857   7.064   7.417 -0.0744 -0.1462  0.0957
  992CHOL    C1 8944   5.907   6.903   7.075 -0.0870 -0.1115  0.0772
  992CHOL    C2 8945   5.883   7.042   6.762  0.2714  0.0953  0.0158
  993CHOL   ROH 8946   0.189   2.924   8.507 -0.0883  0.0035 -0.0972
  993CHOL    R1 8947   0.052   2.938   8.260 -0.1072 -0.1164 -0.0933
  993CHOL    R2 8948   0.123   3.115   8.060 -0.2400 -0.0826 -0.1094
  993CHOL    R3 8949   0.134   2.890   7.908 -0.0844 -0.0894 -0.0917
  993CHOL    R4 8950   0.134   3.110   7.714 -0.1599 -0.1076 -0.1077
  993CHOL    R5 8951  -0.002   2.940   7.718 -0.0687 -0.1801 -0.1261
  993CHOL    C1 8952   0.150   2.895   7.371  0.0327 -0.1285 -0.0901
  993CHOL    C2 8953   0.518   2.758   7.145  0.2452 -0.1350  0.0212
  994CHOL   ROH 8954  12.178  13.708   7.811 -0.0553 -0.0087  0.0117
  994CHOL    R1 8955  12.191  13.669   7.531 -0.0590 -0.2417  0.0425
  994CHOL    R2 8956  12.335  13.835   7.365 -0.4745 -0.0691 -0.1553
  994CHOL    R3 8957  12.451  13.603   7.286  0.0205  0.1019  0.0272
  994CHOL    R4 8958  12.466  13.777   7.050 -0.5431 -0.0974 -0.1789
  994CHOL    R5 8959  12.382  13.576   7.058 -0.0769 -0.3025  0.0938
  994CHOL    C1 8960  12.651  13.525   6.793 -0.1185  0.0466 -0.0213
  994CHOL    C2 8961  12.659  13.926   6.630 -0.0057 -0.1113  0.0340
  995PNCE   AM1 8962   1.758   8.968   4.504  0.2212 -0.3057 -0.0217
  995PNCE   AM2 8963   2.073   8.934   4.460  0.0682 -0.0505  0.0113
  995PNCE   T1A 8964   1.454   8.552   4.708  0.1971 -0.1711 -0.4406
  995PNCE   C2A 8965   1.366   8.201   5.001 -0.1046 -0.0568 -0.0552
  995PNCE   C3A 8966   1.155   8.256   5.401 -0.0377 -0.3034 -0.0430
  995PNCE   C1B 8967   2.369   8.872   4.695 -0.2254 -0.3705 -0.2075
  995PNCE   C2B 8968   2.777   8.754   4.884  0.1775  0.3252 -0.1132
  995PNCE   C3B 8969   2.906   8.868   5.324  0.2546  0.0915 -0.0715
  995PNCE   D4B 8970   2.879   9.028   5.735 -0.0836 -0.0501  0.1855
  995PNCE   C5B 8971   2.446   9.086   5.862 -0.0010  0.6246  0.3371
  995PNCE   C6B 8972   2.159   8.937   5.627 -0.2949  0.0740 -0.1790
  996CHOL   ROH 8973  10.206   1.152   5.666  0.0863 -0.1118 -0.0418
  996CHOL    R1 8974  10.033   1.224   5.879  0.1011 -0.0958 -0.0355
  996CHOL    R2 8975  10.002   1.068   6.104  0.0885 -0.0968 -0.0394
  996CHOL    R3 8976  10.067   1.298   6.234  0.1191 -0.1079 -0.0343
  996CHOL    R4 8977   9.901   1.149   6.424 -0.0706 -0.0022 -0.1122
  996CHOL    R5 8978   9.870   1.354   6.357  0.0681  0.0043 -0.1634
  996CHOL    C1 8979   9.903   1.412   6.733 -0.1344  0.0425 -0.1499
  996CHOL    C2 8980   9.688   1.701   6.769  0.3005 -0.3246 -0.1786
  997PNCE   AM1 8981  15.827   3.293   8.675  0.0852  0.1555  0.0063
  997PNCE   AM2 8982  15.885   3.565   8.497  0.1661 -0.0869 -0.0281
  997PNCE   T1A 8983  15.548   3.177   8.272  0.1078  0.1248  0.2244
  997PNCE   C2A 8984  15.375   2.907   7.902 -0.1157  0.1383 -0.2109
  997PNCE   C3A 8985  15.020   2.736   7.581  0.0909 -0.3382 -0.0362
  997PNCE   C1B 8986  15.721   3.524   7.962  0.0257 -0.2218  0.0294
  997PNCE   C2B 8987  15.569   3.241   7.533 -0.0025 -0.1887 -0.1451
  997PNCE   C3B 8988  15.486   2.782   7.357  0.0057 -0.2623  0.0363
  997PNCE   D4B 8989  15.706   2.598   7.143  0.0163  0.1664  0.0882
  997PNCE   C5B 8990  15.492   2.379   6.860 -0.3243 -0.0708  0.3308
  997PNCE   C6B 8991  15.325   2.042   6.933  0.0025  0.2228 -0.0769
  998PNCE   AM1 8992   6.872  11.169   4.933  0.3797 -0.2251  0.0007
  998PNCE   AM2 8993   6.744  10.843   4.923 -0.0001 -0.4428  0.3476
  998PNCE   T1A 8994   6.988  11.197   5.401 -0.1145  0.2129 -0.0344
  998PNCE   C2A 8995   6.953  10.773   5.646  0.2474 -0.1559 -0.1436
  998PNCE   C3A 8996   7.136  10.435   5.904 -0.0289 -0.3160 -0.1597
  998PNCE   C1B 8997   6.535  10.937   5.290 -0.0540 -0.1208  0.0589
  998PNCE   C2B 8998   6.454  11.042   5.766  0.2272 -0.0508  0.0488
  998PNCE   C3B 8999   6.211  10.888   6.080 -0.0390  0.3460 -0.0439
  998PNCE   D4B 9000   6.065  10.505   6.153  0.2515  0.0038 -0.0874
  998PNCE   C5B 9001   5.541  10.390   6.046 -0.1909 -0.2281  0.0417
  998PNCE   C6B 9002   5.188  10.082   6.052 -0.5392 -0.2533 -0.0957
  999CHOL   ROH 9003   0.587   1.709   5.129  0.3292 -0.0521  0.1782
  999CHOL    R1 9004   0.573   1.700   5.411  0.2981  0.1126  0.1838
  999CHOL    R2 9005   0.658   1.909   5.572 -0.0216  0.3478  0.0665
  999CHOL    R3 9006   0.407   1.891   5.673 -0.0171  0.0551  0.0298
  999CHOL    R4 9007   0.548   2.068   5.858 -0.1960  0.0411  0.1739
  999CHOL    R5 9008   0.438   1.888   5.910 -0.0445 -0.0920  0.0302
  999CHOL    C1 9009   0.247   2.144   6.119 -0.2933 -0.4123  0.2020
  999CHOL    C2 9010   0.320   2.455   6.260  0.1336 -0.1639 -0.0632
 1000CHOL   ROH 9011  13.505  11.854   8.403 -0.1603 -0.0798  0.0761
 1000CHOL    R1 9012  13.458  11.690   8.177 -0.1425  0.0667 -0.0351
 1000CHOL    R2 9013  13.551  11.754   7.925  0.0985  0.1047  0.0612
 1000CHOL    R3 9014  13.661  11.506   7.938 -0.1297 -0.0009  0.0268
 1000CHOL    R4 9015  13.674  11.578   7.654 -0.0150  0.0522  0.0432
 1000CHOL    R5 9016  13.586  11.397   7.738 -0.1963  0.1114 -0.0111
 1000CHOL    C1 9017  13.849  11.243   7.508 -0.2954 -0.0775  0.0004
 1000CHOL    C2 9018  14.262  11.232   7.293 -0.3474 -0.1409  0.1228
 1001XCA    COO 9019   1.596  12.818   8.583 -0.0099  0.0469 -0.1948
 1001XCA     C1 9020   1.371  12.638   8.270  0.0176 -0.1136  0.0561
 1001XCA     C2 9021   1.352  12.688   7.842 -0.0396 -0.0622 -0.1373
 1001XCA     C3 9022   1.209  12.762   7.362 -0.2624 -0.2261 -0.1651
 1001XCA     C4 9023   0.840  12.552   7.072  0.1711 -0.6145  0.0931
 1001XCA     C5 9024   0.774  12.676   6.741 -0.4481 -0.1962  0.1478
 1001XCA     C6 9025   0.397  12.608   6.593 -0.2252  0.0796  0.1244
 1002CHOL   ROH 9026   6.500   4.970   8.135 -0.2948  0.1025 -0.1165
 1002CHOL    R1 9027   6.456   5.060   7.870 -0.2669  0.1803 -0.0934
 1002CHOL    R2 9028   6.538   5.309   7.782  0.0318  0.0763 -0.0991
 1002CHOL    R3 9029   6.662   5.165   7.589 -0.2254 -0.0701 -0.1609
 1002CHOL    R4 9030   6.625   5.430   7.471 -0.1421 -0.0641 -0.2054
 1002CHOL    R5 9031   6.562   5.240   7.385 -0.3483 -0.0543 -0.1028
 1002CHOL    C1 9032   6.792   5.365   7.107 -0.4849 -0.2834 -0.3252
 1002CHOL    C2 9033   6.896   5.352   6.763  0.1917  0.1096 -0.0197
 1003PNCE   AM1 9034  15.726   2.552   4.215 -0.1163  0.0614  0.0104
 1003PNCE   AM2 9035  15.858   2.832   4.323  0.0683  0.2410 -0.0413
 1003PNCE   T1A 9036  15.540   2.471   4.612 -0.1521 -0.1941  0.1280
 1003PNCE   C2A 9037  15.315   2.408   4.994 -0.0803  0.0047 -0.1126
 1003PNCE   C3A 9038  15.278   2.379   5.367 -0.2645 -0.4842 -0.2388
 1003PNCE   C1B 9039  15.649   2.942   4.673  0.2198 -0.0495  0.3821
 1003PNCE   C2B 9040  15.569   2.847   4.986 -0.5105  0.1307 -0.0285
 1003PNCE   C3B 9041  15.698   2.820   5.431  0.1944 -0.1496 -0.0851
 1003PNCE   D4B 9042  15.565   2.551   5.786  0.1874  0.1807 -0.1840
 1003PNCE   C5B 9043  15.389   2.894   6.019  0.2561  0.0060  0.0700
 1003PNCE   C6B 9044  15.336   3.138   6.348  0.0135  0.0325  0.2680
 1004CHOL   ROH 9045   8.430  13.226   5.499 -0.0071  0.2159  0.0984
 1004CHOL    R1 9046   8.462  12.999   5.666 -0.0943  0.1122 -0.0255
 1004CHOL    R2 9047   8.575  13.014   5.917 -0.0193 -0.0812 -0.0506
 1004CHOL    R3 9048   8.343  12.893   5.994 -0.0678  0.0112 -0.0469
 1004CHOL    R4 9049   8.541  12.807   6.192 -0.0651 -0.1525 -0.1085
 1004CHOL    R5 9050   8.412  12.678   6.073 -0.1560 -0.0521 -0.1291
 1004CHOL    C1 9051   8.304  12.574   6.424 -0.1374 -0.1072 -0.1387
 1004CHOL    C2 9052   8.611  12.530   6.536  0.1980 -0.0542 -0.1594
 1005PNCE   AM1 9053   9.147   5.964   4.384 -0.0659 -0.0109  0.1601
 1005PNCE   AM2 9054   9.317   6.218   4.410 -0.1201  0.1363 -0.1550
 1005PNCE   T1A 9055   8.985   5.883   4.853 -0.1958 -0.4626  0.4733
 1005PNCE   C2A 9056   9.027   5.815   5.300 -0.0266  0.1129 -0.1589
 1005PNCE   C3A 9057   8.939   5.756   5.739 -0.2323 -0.1673  0.2113
 1005PNCE   C1B 9058   9.300   6.560   4.674 -0.2137 -0.1825 -0.0718
 1005PNCE   C2B 9059   9.173   6.718   5.093  0.2419  0.0554 -0.0052
 1005PNCE   C3B 9060   9.109   6.801   5.577  0.0615 -0.0365  0.0612
 1005PNCE   D4B 9061   8.787   6.628   5.794  0.1321  0.1029  0.2936
 1005PNCE   C5B 9062   8.871   6.660   6.214  0.3607 -0.1010 -0.1289
 1005PNCE   C6B 9063   8.810   6.682   6.661  0.0131  0.0003  0.2098
 1006PNCE   AM1 9064   7.980  14.088   5.214  0.2057 -0.1243 -0.1057
 1006PNCE   AM2 9065   8.185  13.797   5.378  0.0596  0.1825  0.1159
 1006PNCE   T1A 9066   7.772  13.942   5.607  0.1966 -0.0599  0.1200
 1006PNCE   C2A 9067   7.722  13.543   5.879 -0.2233 -0.2052 -0.0242
 1006PNCE   C3A 9068   7.710  13.140   6.060 -0.0194 -0.0779 -0.1090
 1006PNCE   C1B 9069   8.482  13.660   5.647  0.3096 -0.0273 -0.4091
 1006PNCE   C2B 9070   8.732  13.461   5.964 -0.0603 -0.1485  0.2747
 1006PNCE   C3B 9071   9.007  13.124   6.197  0.4558  0.3526 -0.1188
 1006PNCE   D4B 9072   9.366  13.074   6.094  0.1506 -0.1567  0.1888
 1006PNCE   C5B 9073   9.829  13.052   6.155 -0.2261  0.0150 -0.0070
 1006PNCE   C6B 9074  10.258  13.044   6.034  0.2116 -0.0637  0.1514
 1007PNCE   AM1 9075   3.878   2.403   4.862  0.2839  0.0007 -0.0593
 1007PNCE   AM2 9076   3.971   2.114   4.824 -0.2057 -0.2453 -0.3641
 1007PNCE   T1A 9077   3.577   2.550   5.148 -0.0835 -0.0416  0.1426
 1007PNCE   C2A 9078   3.480   2.686   5.617 -0.0180  0.0167  0.1064
 1007PNCE   C3A 9079   3.308   2.972   5.808 -0.1503  0.1972  0.1383
 1007PNCE   C1B 9080   3.904   2.238   5.378 -0.2463  0.1237 -0.0137
 1007PNCE   C2B 9081   4.009   2.264   5.789 -0.0244  0.0620 -0.1334
 1007PNCE   C3B 9082   3.689   2.307   6.182 -0.0808  0.1419  0.0651
 1007PNCE   D4B 9083   3.699   2.183   6.547 -0.0027  0.1095  0.2283
 1007PNCE   C5B 9084   4.022   1.993   6.766  0.0082 -0.0908  0.2225
 1007PNCE   C6B 9085   3.975   1.687   7.157 -0.1387 -0.1970 -0.0696
 1008CHOL   ROH 9086   5.262   1.467   8.325 -0.0452 -0.1615 -0.1454
 1008CHOL    R1 9087   5.347   1.662   8.139 -0.2468 -0.2031 -0.2803
 1008CHOL    R2 9088   5.611   1.692   8.066 -0.2520  0.1616 -0.1240
 1008CHOL    R3 9089   5.512   1.664   7.814 -0.0301 -0.2481 -0.1757
 1008CHOL    R4 9090   5.746   1.839   7.783 -0.4400  0.3724 -0.1100
 1008CHOL    R5 9091   5.543   1.879   7.714 -0.5297 -0.1972 -0.2668
 1008CHOL    C1 9092   5.732   1.897   7.382 -0.3412  0.1105 -0.1504
 1008CHOL    C2 9093   6.054   2.233   7.324  0.0138  0.5827 -0.1298
 1009CHOL   ROH 9094  15.833  14.726   8.384  0.1634  0.1485 -0.0342
 1009CHOL    R1 9095  15.852  14.739   8.102  0.0339  0.0387 -0.0505
 1009CHOL    R2 9096  15.639  14.681   7.935 -0.1173  0.2009  0.0712
 1009CHOL    R3 9097  15.694  14.928   7.834  0.0869  0.1179 -0.0234
 1009CHOL    R4 9098  15.517  14.806   7.637  0.0020  0.1970  0.0214
 1009CHOL    R5 9099  15.712  14.894   7.599  0.0693  0.0212 -0.0053
 1009CHOL    C1 9100  15.497  15.110   7.369  0.2631  0.1170 -0.0964
 1009CHOL    C2 9101  15.373  15.466   7.363  0.1884 -0.0308 -0.1992
 1010CHOL   ROH 9102   2.694   6.332   4.358 -0.2204 -0.1359  0.0170
 1010CHOL    R1 9103   2.588   6.455   4.590 -0.0855 -0.0110  0.0139
 1010CHOL    R2 9104   2.372   6.352   4.728 -0.0772  0.1237  0.1314
 1010CHOL    R3 9105   2.542   6.364   4.940  0.0072  0.1304  0.0635
 1010CHOL    R4 9106   2.285   6.455   5.046  0.0763  0.2371  0.1380
 1010CHOL    R5 9107   2.475   6.560   5.059  0.1130  0.1830  0.0367
 1010CHOL    C1 9108   2.394   6.526   5.430  0.2451  0.3094  0.0781
 1010CHOL    C2 9109   2.099   6.598   5.698 -0.4027  0.1964  0.0867
 1011XCA    COO 9110   0.832  10.286   3.760  0.2428  0.0172 -0.3888
 1011XCA     C1 9111   0.641  10.005   4.096  0.1659 -0.2426  0.2428
 1011XCA     C2 9112   0.577   9.781   4.449  0.3582 -0.1590  0.1147
 1011XCA     C3 9113   0.461   9.843   4.888  0.1366  0.1699  0.0022
 1011XCA     C4 9114   0.499   9.878   5.294 -0.2207 -0.0686  0.3711
 1011XCA     C5 9115   0.193   9.824   5.614 -0.0225  0.0840  0.0609
 1011XCA     C6 9116  -0.043   9.521   5.759  0.0161 -0.0643 -0.0592
 1012PNCE   AM1 9117  14.626   7.859   4.561 -0.2306 -0.1245  0.2376
 1012PNCE   AM2 9118  14.831   7.811   4.329 -0.0893  0.0226 -0.1642
 1012PNCE   T1A 9119  14.857   7.884   5.003  0.2107  0.2797 -0.0541
 1012PNCE   C2A 9120  14.972   8.039   5.420  0.1382  0.0436 -0.0865
 1012PNCE   C3A 9121  15.019   7.897   5.827 -0.2292  0.1364 -0.2575
 1012PNCE   C1B 9122  14.791   8.352   4.475  0.1103  0.2463 -0.0091
 1012PNCE   C2B 9123  14.622   8.745   4.754  0.1105  0.2859  0.0364
 1012PNCE   C3B 9124  14.521   8.958   5.123 -0.1224  0.0958  0.2087
 1012PNCE   D4B 9125  14.850   9.048   5.250  0.3934  0.2021  0.2089
 1012PNCE   C5B 9126  14.967   9.231   5.708 -0.0276 -0.1973  0.0611
 1012PNCE   C6B 9127  15.364   9.208   5.955 -0.0757  0.3187  0.2784
 1013CHOL   ROH 9128   9.181   3.075   5.942 -0.2525  0.2129 -0.0465
 1013CHOL    R1 9129   9.253   2.874   6.129 -0.0489  0.1618 -0.1766
 1013CHOL    R2 9130   9.513   2.839   6.217 -0.0259  0.4320 -0.1292
 1013CHOL    R3 9131   9.398   2.863   6.462 -0.1335  0.0996 -0.1411
 1013CHOL    R4 9132   9.620   2.676   6.502  0.0320  0.2670 -0.2436
 1013CHOL    R5 9133   9.411   2.643   6.556  0.0407  0.0204 -0.3400
 1013CHOL    C1 9134   9.575   2.604   6.898 -0.0352 -0.1411 -0.3214
 1013CHOL    C2 9135   9.828   2.430   7.170  0.1564 -0.4940  0.0787
 1014PNCE   AM1 9136   8.252   5.352   4.029 -0.1066  0.4714 -0.0156
 1014PNCE   AM2 9137   8.197   5.647   3.833  0.2399  0.2274 -0.0446
 1014PNCE   T1A 9138   8.292   5.619   4.387  0.0297  0.0550 -0.3224
 1014PNCE   C2A 9139   8.083   5.852   4.658 -0.2363 -0.0228 -0.0224
 1014PNCE   C3A 9140   7.834   6.005   4.907  0.2980 -0.1255  0.0712
 1014PNCE   C1B 9141   7.976   5.954   4.146  0.2857 -0.0468 -0.0293
 1014PNCE   C2B 9142   7.564   5.983   4.375 -0.1497 -0.2869  0.0382
 1014PNCE   C3B 9143   7.211   5.881   4.629 -0.1046 -0.0084  0.0378
 1014PNCE   D4B 9144   7.016   6.040   4.976 -0.0526 -0.2054 -0.0536
 1014PNCE   C5B 9145   6.988   5.963   5.365 -0.0423  0.1417  0.0728
 1014PNCE   C6B 9146   6.912   6.059   5.704  0.0740  0.0111  0.0011
 1015XCA    COO 9147   9.492  14.976   5.431  0.2783  0.0190  0.0148
 1015XCA     C1 9148   9.654  15.271   5.709 -0.0992 -0.1463  0.1089
 1015XCA     C2 9149   9.632  15.130   6.123 -0.2223  0.2878  0.2569
 1015XCA     C3 9150   9.770  14.977   6.498 -0.0427 -0.0113  0.0274
 1015XCA     C4 9151   9.887  15.102   6.872  0.0620 -0.0511 -0.0408
 1015XCA     C5 9152   9.995  14.924   7.211 -0.0761  0.1671 -0.1629
 1015XCA     C6 9153  10.421  14.722   7.163  0.1285 -0.1072 -0.2169
 1016CHOL   ROH 9154  15.413   8.311   4.565 -0.1017 -0.0757  0.0859
 1016CHOL    R1 9155  15.276   8.471   4.753 -0.0098 -0.0062  0.0937
 1016CHOL    R2 9156  15.040   8.392   4.873  0.0029  0.0761  0.1709
 1016CHOL    R3 9157  15.177   8.444   5.102  0.0768  0.0840  0.1260
 1016CHOL    R4 9158  14.894   8.467   5.177  0.0911 -0.2002  0.2857
 1016CHOL    R5 9159  15.049   8.617   5.209 -0.0222 -0.0775  0.2763
 1016CHOL    C1 9160  14.937   8.561   5.569  0.2117 -0.3537  0.3104
 1016CHOL    C2 9161  14.624   8.764   5.747 -0.1035 -0.1974  0.0073
 1017XCA    COO 9162   2.931   8.682   6.264  0.1870  0.0481 -0.0628
 1017XCA     C1 9163   2.565   8.616   6.132  0.2156  0.2692  0.0210
 1017XCA     C2 9164   2.211   8.689   6.035  0.1831  0.0795 -0.1303
 1017XCA     C3 9165   1.917   8.530   5.799  0.1526  0.2228  0.0046
 1017XCA     C4 9166   1.546   8.720   5.783 -0.2073  0.3967  0.2549
 1017XCA     C5 9167   1.275   9.052   5.915  0.0926  0.1015  0.1805
 1017XCA     C6 9168   0.915   9.371   6.002  0.0082  0.1191 -0.1030
 1018CHOL   ROH 9169   9.172   7.961   7.913 -0.2156 -0.0043  0.0567
 1018CHOL    R1 9170   9.081   7.791   7.706  0.0105 -0.0009 -0.0482
 1018CHOL    R2 9171   8.843   7.833   7.572 -0.0339 -0.2199 -0.0359
 1018CHOL    R3 9172   9.002   7.823   7.352 -0.0063  0.1045 -0.0360
 1018CHOL    R4 9173   8.744   7.719   7.262  0.1487 -0.2721 -0.0763
 1018CHOL    R5 9174   8.938   7.621   7.241  0.3093  0.0341 -0.1051
 1018CHOL    C1 9175   8.836   7.643   6.874  0.2811  0.0019 -0.0999
 1018CHOL    C2 9176   8.641   7.686   6.580  0.1225  0.1688 -0.2342
 1019PNCE   AM1 9177  11.864  12.301   5.153 -0.1550  0.0282 -0.0182
 1019PNCE   AM2 9178  11.523  12.044   5.164 -0.0572  0.0310  0.1941
 1019PNCE   T1A 9179  12.008  12.081   5.519 -0.0854 -0.1001 -0.2731
 1019PNCE   C2A 9180  11.973  12.166   5.931  0.2281 -0.3719  0.2483
 1019PNCE   C3A 9181  11.909  11.887   6.239  0.0240  0.0390  0.1991
 1019PNCE   C1B 9182  11.541  12.333   5.542  0.2165 -0.3447  0.1244
 1019PNCE   C2B 9183  11.820  12.541   5.707  0.2267  0.2501 -0.2274
 1019PNCE   C3B 9184  12.203  12.620   6.011  0.1374 -0.0010 -0.3311
 1019PNCE   D4B 9185  12.237  12.598   6.543  0.0449  0.0911  0.1479
 1019PNCE   C5B 9186  12.512  12.426   6.765 -0.1813  0.1037 -0.2647
 1019PNCE   C6B 9187  12.523  12.049   7.035  0.1137 -0.2050  0.1416
 1020XCA    COO 9188  14.209   1.863   9.162  0.0664  0.3851 -0.2404
 1020XCA     C1 9189  13.931   1.912   8.849 -0.2433  0.2469 -0.2440
 1020XCA     C2 9190  13.792   2.225   8.542 -0.5140  0.2356  0.0458
 1020XCA     C3 9191  13.611   2.533   8.351  0.0050 -0.0430  0.1810
 1020XCA     C4 9192  13.384   2.758   8.060 -0.0052 -0.3487 -0.1088
 1020XCA     C5 9193  13.230   2.835   7.714  0.0645 -0.0061  0.0060
 1020XCA     C6 9194  13.221   2.534   7.325  0.2369 -0.1026 -0.2877
 1021PNCE   AM1 9195  13.968   8.332   8.347 -0.1950  0.3529 -0.1499
 1021PNCE   AM2 9196  14.261   8.463   8.187  0.2371  0.2016 -0.0237
 1021PNCE   T1A 9197  13.706   8.393   8.010 -0.0755 -0.2436  0.1915
 1021PNCE   C2A 9198  13.532   8.629   7.718  0.0657  0.3309  0.0389
 1021PNCE   C3A 9199  13.124   8.687   7.423 -0.0628  0.0209  0.0350
 1021PNCE   C1B 9200  14.122   8.620   7.790  0.3945  0.0095 -0.0234
 1021PNCE   C2B 9201  14.081   8.680   7.388 -0.0660  0.0472  0.0491
 1021PNCE   C3B 9202  14.208   8.770   6.969 -0.2527 -0.1765 -0.0641
 1021PNCE   D4B 9203  13.940   8.798   6.515  0.1627 -0.1209  0.0505
 1021PNCE   C5B 9204  13.958   9.227   6.399 -0.0560 -0.3405  0.1520
 1021PNCE   C6B 9205  14.137   9.667   6.250  0.2552  0.1482 -0.1379
 1022XCA    COO 9206   5.669   4.483   4.212  0.1017 -0.1764  0.0682
 1022XCA     C1 9207   5.892   4.767   4.577 -0.1487  0.0372 -0.3696
 1022XCA     C2 9208   6.004   4.758   4.935  0.6091 -0.2897  0.0059
 1022XCA     C3 9209   5.736   4.827   5.292 -0.0635 -0.3718  0.3062
 1022XCA     C4 9210   5.649   4.756   5.743  0.0796  0.0342  0.3505
 1022XCA     C5 9211   5.339   4.909   6.024 -0.0375  0.1466 -0.2928
 1022XCA     C6 9212   4.964   5.113   5.916  0.3047 -0.0796 -0.2467
 1023CHOL   ROH 9213  11.370   2.608   9.393 -0.1449  0.1105  0.0095
 1023CHOL    R1 9214  11.173   2.459   9.254 -0.2698  0.2129  0.0750
 1023CHOL    R2 9215  10.960   2.578   9.124 -0.0306  0.3557 -0.1974
 1023CHOL    R3 9216  11.051   2.435   8.912 -0.0959 -0.0326  0.0278
 1023CHOL    R4 9217  10.791   2.539   8.825  0.0851  0.2095 -0.2442
 1023CHOL    R5 9218  10.856   2.331   8.822 -0.1860  0.1138  0.0512
 1023CHOL    C1 9219  10.779   2.381   8.452  0.0911 -0.2400 -0.0601
 1023CHOL    C2 9220  10.642   2.102   8.337 -0.1204 -0.1059  0.0155
 1024XCA    COO 9221  12.513   6.577   4.032  0.0320 -0.0215 -0.0230
 1024XCA     C1 9222  12.919   6.385   4.146 -0.0482  0.0918 -0.0116
 1024XCA     C2 9223  13.263   6.160   4.288  0.1023 -0.1262 -0.0689
 1024XCA     C3 9224  13.398   5.920   4.547 -0.0534  0.0916  0.0504
 1024XCA     C4 9225  13.614   5.922   4.936 -0.0650  0.4187 -0.2705
 1024XCA     C5 9226  13.829   5.965   5.294 -0.2220  0.1243 -0.0725
 1024XCA     C6 9227  13.953   5.772   5.522  0.0997  0.1461 -0.1496
 1025CHOL   ROH 9228   6.609   2.380   7.686  0.0251  0.3280  0.1254
 1025CHOL    R1 9229   6.674   2.645   7.612 -0.0112  0.3189  0.0635
 1025CHOL    R2 9230   6.926   2.718   7.526  0.0026  0.3515  0.1446
 1025CHOL    R3 9231   6.790   2.815   7.312  0.0698  0.2505  0.0543
 1025CHOL    R4 9232   7.050   2.951   7.303  0.0043  0.4041  0.1989
 1025CHOL    R5 9233   6.854   3.046   7.300 -0.0559  0.2904  0.0747
 1025CHOL    C1 9234   6.995   3.177   6.971  0.0684  0.3399  0.1458
 1025CHOL    C2 9235   7.067   3.276   6.603 -0.0302 -0.1889 -0.3242
 1026CHOL   ROH 9236  11.475   7.675   7.693 -0.0397 -0.0426  0.1739
 1026CHOL    R1 9237  11.405   7.634   7.421 -0.0454  0.0255  0.1656
 1026CHOL    R2 9238  11.543   7.752   7.212  0.0427 -0.0418  0.1898
 1026CHOL    R3 9239  11.565   7.496   7.125 -0.1106 -0.0483  0.1629
 1026CHOL    R4 9240  11.495   7.649   6.886 -0.2481 -0.0099  0.2193
 1026CHOL    R5 9241  11.392   7.473   6.962 -0.2510  0.0185  0.2951
 1026CHOL    C1 9242  11.488   7.348   6.614 -0.5615  0.0025  0.2111
 1026CHOL    C2 9243  11.371   7.018   6.441 -0.0846  0.5584 -0.2458
 1027PNCE   AM1 9244   8.295  11.848   4.900  0.1419  0.2852 -0.3449
 1027PNCE   AM2 9245   8.574  11.703   4.811 -0.1399 -0.2304 -0.2190
 1027PNCE   T1A 9246   8.140  11.778   5.384 -0.2206  0.3077  0.5330
 1027PNCE   C2A 9247   8.058  11.610   5.794 -0.2070 -0.0554 -0.0476
 1027PNCE   C3A 9248   7.951  11.850   6.259  0.0138 -0.3422  0.0330
 1027PNCE   C1B 9249   8.598  11.857   5.276 -0.1667 -0.0278 -0.2397
 1027PNCE   C2B 9250   8.548  11.884   5.739  0.0410  0.0665 -0.3697
 1027PNCE   C3B 9251   8.484  11.730   6.144 -0.1541 -0.2397  0.2555
 1027PNCE   D4B 9252   8.378  11.366   6.047 -0.1730 -0.0027  0.1804
 1027PNCE   C5B 9253   8.226  11.129   6.315 -0.0324  0.0716 -0.2183
 1027PNCE   C6B 9254   8.289  10.971   6.731  0.1338  0.4166 -0.0177
 1028CHOL   ROH 9255   8.823   6.347   4.425  0.0959 -0.2550 -0.0552
 1028CHOL    R1 9256   8.913   6.325   4.693  0.1354 -0.1194 -0.0559
 1028CHOL    R2 9257   8.806   6.475   4.898  0.1171 -0.0638 -0.1030
 1028CHOL    R3 9258   8.767   6.232   5.013  0.2000 -0.0291 -0.0008
 1028CHOL    R4 9259   8.754   6.422   5.236 -0.0417  0.0743 -0.1050
 1028CHOL    R5 9260   8.882   6.246   5.223  0.0720  0.1456  0.0576
 1028CHOL    C1 9261   8.687   6.163   5.540 -0.0563  0.1874 -0.0101
 1028CHOL    C2 9262   8.656   6.168   5.920  0.1355  0.3762 -0.0618
 1029PNCE   AM1 9263   1.504   6.941   4.263  0.0887 -0.1357  0.0050
 1029PNCE   AM2 9264   1.196   6.961   4.117  0.2290 -0.3276 -0.3860
 1029PNCE   T1A 9265   1.552   6.823   4.627  0.0193 -0.2426 -0.0537
 1029PNCE   C2A 9266   1.743   6.711   5.010 -0.1425  0.0091  0.1959
 1029PNCE   C3A 9267   1.846   6.406   5.258  0.0154 -0.1211 -0.1803
 1029PNCE   C1B 9268   0.951   6.949   4.540  0.1401  0.3233 -0.2308
 1029PNCE   C2B 9269   1.044   6.850   4.957 -0.2987  0.1247 -0.1195
 1029PNCE   C3B 9270   1.049   6.835   5.414 -0.1287 -0.0101 -0.0128
 1029PNCE   D4B 9271   1.242   6.675   5.769 -0.1357 -0.4837  0.2572
 1029PNCE   C5B 9272   1.156   7.009   6.070 -0.1252  0.1773 -0.1505
 1029PNCE   C6B 9273   1.085   7.040   6.513 -0.1045  0.3261  0.0253
 1030XCA    COO 9274   0.174   9.971   8.418 -0.0803  0.2929 -0.2360
 1030XCA     C1 9275   0.352  10.090   8.059  0.0014 -0.3535 -0.0819
 1030XCA     C2 9276   0.518  10.407   7.867  0.1442  0.1365 -0.2144
 1030XCA     C3 9277   0.286  10.665   7.540 -0.2786  0.0707  0.1539
 1030XCA     C4 9278   0.027  10.710   7.225 -0.2409 -0.1816  0.0045
 1030XCA     C5 9279  -0.009  10.592   6.890  0.3342  0.1266  0.0667
 1030XCA     C6 9280  -0.272  10.484   6.697  0.0309 -0.1482 -0.1093
 1031CHOL   ROH 9281   0.122   9.291   7.676  0.2428 -0.0050 -0.0143
 1031CHOL    R1 9282   0.330   9.341   7.491  0.2349  0.0673 -0.0032
 1031CHOL    R2 9283   0.313   9.269   7.225  0.2754  0.0580 -0.0024
 1031CHOL    R3 9284   0.370   9.532   7.184  0.1844  0.0781 -0.0034
 1031CHOL    R4 9285   0.445   9.398   6.933  0.1238  0.1196 -0.0448
 1031CHOL    R5 9286   0.571   9.529   7.054  0.1349  0.1457 -0.0835
 1031CHOL    C1 9287   0.575   9.720   6.724 -0.0499  0.1741 -0.0703
 1031CHOL    C2 9288   0.485   9.892   6.411 -0.2054  0.0837  0.1971
 1032PNCE   AM1 9289   8.694   3.685   4.571  0.2660 -0.3089  0.0760
 1032PNCE   AM2 9290   8.873   3.448   4.722 -0.0524  0.1116 -0.0708
 1032PNCE   T1A 9291   8.569   3.755   5.059 -0.1132 -0.0384 -0.0191
 1032PNCE   C2A 9292   8.346   3.814   5.462 -0.0958  0.1357  0.2016
 1032PNCE   C3A 9293   8.278   3.691   5.910  0.1589 -0.1899  0.0794
 1032PNCE   C1B 9294   9.006   3.650   5.241 -0.2631  0.0997 -0.1299
 1032PNCE   C2B 9295   9.100   3.461   5.605  0.0289  0.1445  0.2301
 1032PNCE   C3B 9296   9.104   3.557   6.022 -0.2020  0.1970  0.1254
 1032PNCE   D4B 9297   9.167   3.241   6.396  0.4115  0.0070 -0.0866
 1032PNCE   C5B 9298   8.910   3.350   6.645  0.1351  0.1725  0.0676
 1032PNCE   C6B 9299   8.656   3.158   6.972  0.0943  0.3290  0.0326
 1033PNCE   AM1 9300   3.293  10.356   8.318 -0.1663  0.2919  0.2475
 1033PNCE   AM2 9301   3.600  10.257   8.354  0.0946 -0.0561  0.1793
 1033PNCE   T1A 9302   3.249  10.396   7.752  0.1799  0.2070 -0.1844
 1033PNCE   C2A 9303   3.270  10.721   7.434  0.0871  0.1927  0.0953
 1033PNCE   C3A 9304   3.003  10.740   7.042 -0.0428 -0.1446  0.0088
 1033PNCE   C1B 9305   3.562  10.018   8.034  0.0898 -0.1128  0.2033
 1033PNCE   C2B 9306   3.542   9.909   7.612 -0.1663 -0.2003  0.1296
 1033PNCE   C3B 9307   3.779   9.850   7.209  0.0639 -0.1712  0.1114
 1033PNCE   D4B 9308   3.862   9.584   6.870 -0.0140  0.0122  0.1003
 1033PNCE   C5B 9309   3.728   9.599   6.430 -0.0741  0.0634 -0.0791
 1033PNCE   C6B 9310   3.934   9.807   6.056 -0.1657  0.2037  0.0274
 1034PNCE   AM1 9311   3.506  15.442   5.340  0.3750  0.1294  0.1709
 1034PNCE   AM2 9312   3.860  15.479   5.267  0.1947  0.0398  0.0378
 1034PNCE   T1A 9313   3.651  15.886   5.437 -0.0568 -0.0012  0.1517
 1034PNCE   C2A 9314   3.546  16.289   5.748 -0.1698 -0.1755  0.1984
 1034PNCE   C3A 9315   3.812  16.423   6.035  0.1031  0.0622 -0.0809
 1034PNCE   C1B 9316   3.887  15.289   5.583 -0.1446 -0.0781  0.1228
 1034PNCE   C2B 9317   3.870  15.090   5.918 -0.1050  0.3275  0.2147
 1034PNCE   C3B 9318   3.926  14.925   6.242  0.0616 -0.3515 -0.0532
 1034PNCE   D4B 9319   4.146  14.548   6.376 -0.2929 -0.1025 -0.0060
 1034PNCE   C5B 9320   4.019  14.201   6.675 -0.0960 -0.0110  0.3063
 1034PNCE   C6B 9321   4.050  13.759   6.673 -0.0763  0.3430 -0.1387
 1035CHOL   ROH 9322   9.627   6.007   6.354  0.2193 -0.0170 -0.0947
 1035CHOL    R1 9323   9.470   5.794   6.456  0.0899  0.0704 -0.1092
 1035CHOL    R2 9324   9.581   5.571   6.573 -0.0443 -0.0118 -0.1363
 1035CHOL    R3 9325   9.416   5.636   6.779  0.0053  0.0715 -0.1225
 1035CHOL    R4 9326   9.597   5.434   6.891 -0.1324 -0.0736 -0.1582
 1035CHOL    R5 9327   9.379   5.429   6.894 -0.1369  0.0780 -0.1545
 1035CHOL    C1 9328   9.451   5.416   7.268 -0.1372 -0.0314 -0.1578
 1035CHOL    C2 9329   9.474   5.319   7.670  0.0305 -0.1760  0.2170
 1036PNCE   AM1 9330   5.559   2.476   5.206 -0.3394  0.0784 -0.2237
 1036PNCE   AM2 9331   5.591   2.797   4.924 -0.2720  0.0161  0.0879
 1036PNCE   T1A 9332   5.941   2.451   5.506  0.0884  0.0602 -0.0819
 1036PNCE   C2A 9333   6.110   2.252   5.819 -0.2763  0.1281 -0.2973
 1036PNCE   C3A 9334   6.056   2.339   6.291 -0.1386  0.1717 -0.2726
 1036PNCE   C1B 9335   5.921   2.977   5.170 -0.1824  0.3101 -0.0091
 1036PNCE   C2B 9336   5.966   2.913   5.605 -0.3333 -0.2926  0.1770
 1036PNCE   C3B 9337   6.194   3.100   6.026 -0.0948  0.2239  0.1795
 1036PNCE   D4B 9338   6.251   2.940   6.433 -0.0549 -0.1756 -0.4093
 1036PNCE   C5B 9339   6.490   2.538   6.451  0.0692 -0.2986  0.3876
 1036PNCE   C6B 9340   6.820   2.298   6.656 -0.0430  0.1239 -0.2140
 1037XCA    COO 9341  13.433  12.680   8.815 -0.1825 -0.2159  0.0389
 1037XCA     C1 9342  13.302  12.785   8.408 -0.1188 -0.2718  0.0101
 1037XCA     C2 9343  13.119  12.649   8.035 -0.1661 -0.1246  0.5432
 1037XCA     C3 9344  13.195  12.313   7.752  0.1178  0.0628  0.1288
 1037XCA     C4 9345  13.218  11.834   7.623 -0.0106  0.0341  0.1278
 1037XCA     C5 9346  13.330  11.550   7.354 -0.2118 -0.0012 -0.2136
 1037XCA     C6 9347  13.711  11.420   7.085 -0.1896 -0.3238 -0.4604
 1038PNCE   AM1 9348  14.374  11.901   5.345 -0.1552 -0.0153 -0.1420
 1038PNCE   AM2 9349  14.631  12.025   5.240  0.0266  0.1565  0.0963
 1038PNCE   T1A 9350  14.411  11.714   5.711  0.4816  0.3095  0.1298
 1038PNCE   C2A 9351  14.423  11.482   6.016  0.2749 -0.1378 -0.2842
 1038PNCE   C3A 9352  14.524  11.255   6.361  0.1358 -0.0141 -0.0993
 1038PNCE   C1B 9353  14.712  12.117   5.685  0.1855 -0.1499 -0.2212
 1038PNCE   C2B 9354  14.905  11.923   6.079 -0.0957 -0.2988  0.0889
 1038PNCE   C3B 9355  15.280  11.783   6.220  0.0586 -0.0704  0.1795
 1038PNCE   D4B 9356  15.650  11.965   6.098  0.1480  0.1847 -0.0984
 1038PNCE   C5B 9357  16.048  11.790   6.027 -0.0594 -0.0016 -0.0649
 1038PNCE   C6B 9358  16.536  11.733   5.877 -0.1776  0.1098  0.0504
 1039CHOL   ROH 9359   0.508   5.190   5.180  0.0726  0.0392 -0.0783
 1039CHOL    R1 9360   0.422   5.456   5.225  0.2096  0.0543  0.0983
 1039CHOL    R2 9361   0.159   5.535   5.191  0.3075  0.2706 -0.1297
 1039CHOL    R3 9362   0.187   5.624   5.446  0.0677 -0.0095  0.0012
 1039CHOL    R4 9363  -0.067   5.739   5.354  0.1885  0.1668 -0.1618
 1039CHOL    R5 9364   0.101   5.847   5.441  0.1410  0.0296  0.1374
 1039CHOL    C1 9365  -0.173   5.940   5.689 -0.1059 -0.1565 -0.0577
 1039CHOL    C2 9366  -0.281   6.161   5.998 -0.0815 -0.0810 -0.0564
 1040CHOL   ROH 9367   4.400  12.379   5.071  0.2492 -0.1269 -0.0704
 1040CHOL    R1 9368   4.346  12.379   5.348  0.1567  0.1259 -0.0857
 1040CHOL    R2 9369   4.466  12.203   5.523 -0.0989  0.1071  0.0768
 1040CHOL    R3 9370   4.536  12.430   5.655  0.1154  0.1225 -0.0596
 1040CHOL    R4 9371   4.545  12.220   5.860 -0.3672  0.2775  0.1331
 1040CHOL    R5 9372   4.434  12.408   5.870 -0.1091  0.4527 -0.1247
 1040CHOL    C1 9373   4.656  12.444   6.179 -0.3221  0.3913  0.0378
 1040CHOL    C2 9374   4.594  12.485   6.506  0.2083 -0.2151  0.1217
 1041CHOL   ROH 9375  10.533   4.932   6.790  0.2437 -0.2937  0.0883
 1041CHOL    R1 9376  10.264   4.844   6.788  0.1765 -0.0943  0.1059
 1041CHOL    R2 9377  10.191   4.591   6.703 -0.0386  0.0252 -0.0780
 1041CHOL    R3 9378  10.071   4.580   6.947  0.0367 -0.0852 -0.0454
 1041CHOL    R4 9379   9.936   4.374   6.788 -0.0153 -0.0102 -0.0989
 1041CHOL    R5 9380   9.840   4.536   6.898  0.0208 -0.0591  0.0057
 1041CHOL    C1 9381   9.674   4.236   7.066  0.0690 -0.1345 -0.0805
 1041CHOL    C2 9382   9.257   4.106   7.057  0.1028 -0.0507 -0.0133
 1042PNCE   AM1 9383  15.165   0.966   8.443  0.1365 -0.0426  0.0446
 1042PNCE   AM2 9384  15.035   1.099   8.187 -0.1827  0.1251 -0.0760
 1042PNCE   T1A 9385  15.336   0.750   8.084  0.2242  0.1130  0.4303
 1042PNCE   C2A 9386  15.447   0.537   7.698  0.1054  0.2275 -0.3282
 1042PNCE   C3A 9387  15.464   0.534   7.180 -0.3009 -0.2184  0.2952
 1042PNCE   C1B 9388  14.909   1.027   7.742 -0.2874 -0.1600  0.0256
 1042PNCE   C2B 9389  15.008   0.902   7.431 -0.3258  0.1165 -0.0156
 1042PNCE   C3B 9390  15.176   0.962   7.061  0.1048  0.4384  0.1537
 1042PNCE   D4B 9391  14.917   0.918   6.699 -0.1515  0.1000 -0.0607
 1042PNCE   C5B 9392  14.600   0.645   6.610  0.1196 -0.3375  0.1437
 1042PNCE   C6B 9393  14.665   0.342   6.388  0.1313 -0.0302  0.4073
 1043PNCE   AM1 9394  13.242  14.168   5.226  0.1167  0.0150 -0.1397
 1043PNCE   AM2 9395  13.483  13.890   5.205 -0.2002 -0.1177 -0.3720
 1043PNCE   T1A 9396  13.214  14.579   5.203  0.0086 -0.0688 -0.1393
 1043PNCE   C2A 9397  13.332  14.970   5.287 -0.1058  0.0736  0.1057
 1043PNCE   C3A 9398  13.569  15.256   5.154 -0.0745 -0.2953  0.0820
 1043PNCE   C1B 9399  13.539  13.962   5.650 -0.1926 -0.4168 -0.1355
 1043PNCE   C2B 9400  13.633  14.347   6.002  0.2279  0.1425  0.2471
 1043PNCE   C3B 9401  13.953  14.580   6.094  0.4464 -0.0780  0.2049
 1043PNCE   D4B 9402  14.408  14.381   6.013  0.1945  0.1082 -0.1484
 1043PNCE   C5B 9403  14.535  14.166   5.633  0.0875  0.1632  0.0394
 1043PNCE   C6B 9404  14.975  14.061   5.485  0.1199 -0.0822  0.1114
 1044PNCE   AM1 9405   2.053   3.872   4.647 -0.0657 -0.0957  0.1517
 1044PNCE   AM2 9406   2.286   3.587   4.535 -0.0761 -0.2103 -0.1709
 1044PNCE   T1A 9407   1.827   3.957   4.922  0.0719 -0.0638 -0.0258
 1044PNCE   C2A 9408   1.517   3.950   5.234 -0.0229  0.3942  0.0553
 1044PNCE   C3A 9409   1.199   4.020   5.483  0.3441 -0.1781 -0.3453
 1044PNCE   C1B 9410   2.714   3.691   4.675 -0.4298  0.3909  0.0351
 1044PNCE   C2B 9411   3.255   3.844   4.854 -0.1004 -0.1381 -0.0060
 1044PNCE   C3B 9412   3.511   4.027   5.162 -0.0399 -0.2324  0.3223
 1044PNCE   D4B 9413   3.670   4.045   5.599 -0.0563 -0.0998 -0.0679
 1044PNCE   C5B 9414   3.560   3.721   5.887 -0.1649  0.1866  0.4929
 1044PNCE   C6B 9415   3.591   3.270   6.033  0.1683 -0.0811 -0.1780
 1045CHOL   ROH 9416  12.718  14.462   7.823  0.1885 -0.3496 -0.0822
 1045CHOL    R1 9417  12.882  14.428   7.595  0.1504 -0.3135 -0.1148
 1045CHOL    R2 9418  12.805  14.509   7.343  0.0999 -0.2922 -0.0915
 1045CHOL    R3 9419  13.041  14.644   7.349  0.0920 -0.2762 -0.1206
 1045CHOL    R4 9420  12.921  14.717   7.092  0.0640 -0.3030 -0.1173
 1045CHOL    R5 9421  13.120  14.635   7.123  0.0731 -0.2882 -0.1277
 1045CHOL    C1 9422  13.210  14.963   6.951  0.0357 -0.2944 -0.1597
 1045CHOL    C2 9423  13.289  14.779   6.703 -0.0151  0.1402  0.1405
 1046CHOL   ROH 9424   0.706  12.484   8.480  0.0360  0.2678  0.3072
 1046CHOL    R1 9425   0.748  12.690   8.290  0.1075  0.0599  0.0917
 1046CHOL    R2 9426   0.897  12.653   8.060  0.0183 -0.2562  0.0780
 1046CHOL    R3 9427   0.672  12.744   7.938  0.0369 -0.2377  0.0588
 1046CHOL    R4 9428   0.873  12.736   7.726  0.1223 -0.0148  0.1290
 1046CHOL    R5 9429   0.751  12.907   7.782  0.0462 -0.0954  0.2099
 1046CHOL    C1 9430   0.648  12.870   7.416  0.2003  0.1432  0.1408
 1046CHOL    C2 9431   0.328  12.765   7.137  0.2166 -0.3112  0.2092
 1047PNCE   AM1 9432   6.661  14.427   4.749  0.0901 -0.3236 -0.0179
 1047PNCE   AM2 9433   6.774  14.028   4.796 -0.0746  0.2397 -0.0389
 1047PNCE   T1A 9434   6.843  14.427   5.095  0.0965 -0.2750  0.1852
 1047PNCE   C2A 9435   6.911  14.378   5.580 -0.1085 -0.0526 -0.3569
 1047PNCE   C3A 9436   6.948  14.262   6.090  0.1011  0.1270 -0.0804
 1047PNCE   C1B 9437   6.611  13.705   4.940  0.0315 -0.3506  0.0084
 1047PNCE   C2B 9438   6.755  13.385   5.205  0.1065  0.1222  0.1480
 1047PNCE   C3B 9439   6.891  13.255   5.632 -0.0575 -0.1894 -0.0852
 1047PNCE   D4B 9440   6.870  13.234   6.141  0.0057  0.3974 -0.3462
 1047PNCE   C5B 9441   6.555  13.314   6.432 -0.1801 -0.1153 -0.2473
 1047PNCE   C6B 9442   6.555  13.642   6.765 -0.1156  0.1953  0.2124
 1048CHOL   ROH 9443   2.394   0.302   5.441  0.0279 -0.0203 -0.0001
 1048CHOL    R1 9444   2.216   0.204   5.638 -0.0956 -0.0284 -0.1139
 1048CHOL    R2 9445   2.273   0.215   5.908 -0.1358 -0.2977 -0.0919
 1048CHOL    R3 9446   2.032   0.342   5.920 -0.0300 -0.0979 -0.0365
 1048CHOL    R4 9447   2.107   0.297   6.200 -0.1624 -0.4805 -0.0551
 1048CHOL    R5 9448   1.920   0.238   6.105 -0.1843 -0.2101 -0.1896
 1048CHOL    C1 9449   1.785   0.463   6.382 -0.0785 -0.3993  0.0184
 1048CHOL    C2 9450   1.789   0.717   6.693 -0.3257  0.0011 -0.1354
 1049CHOL   ROH 9451   4.457   3.125   7.831 -0.0558 -0.0392 -0.0567
 1049CHOL    R1 9452   4.599   2.928   7.687  0.0005 -0.0442  0.0046
 1049CHOL    R2 9453   4.477   2.704   7.581  0.0528 -0.0835  0.0222
 1049CHOL    R3 9454   4.592   2.790   7.350  0.0811 -0.1056  0.0283
 1049CHOL    R4 9455   4.519   2.511   7.297 -0.1401 -0.0321 -0.0426
 1049CHOL    R5 9456   4.716   2.600   7.271 -0.0766 -0.1765 -0.0483
 1049CHOL    C1 9457   4.651   2.479   6.916 -0.2259 -0.0230 -0.0747
 1049CHOL    C2 9458   4.793   2.040   7.011  0.0659 -0.0093  0.0088
 1050CHOL   ROH 9459   5.127   9.456   7.507 -0.2099  0.1415  0.2209
 1050CHOL    R1 9460   5.211   9.502   7.240 -0.0644  0.0344  0.2469
 1050CHOL    R2 9461   5.048   9.454   7.022  0.0635 -0.0807  0.1733
 1050CHOL    R3 9462   5.106   9.712   6.963  0.0662 -0.0994  0.0948
 1050CHOL    R4 9463   5.029   9.592   6.706 -0.0047 -0.1541  0.1447
 1050CHOL    R5 9464   5.213   9.701   6.749  0.0117 -0.1568  0.0716
 1050CHOL    C1 9465   5.073   9.916   6.466 -0.0421 -0.2145  0.0544
 1050CHOL    C2 9466   4.724   9.912   6.347  0.4179  0.2020 -0.1770
 1051CHOL   ROH 9467  13.959   3.713   5.271 -0.1761  0.2671 -0.0786
 1051CHOL    R1 9468  13.982   3.642   5.544 -0.2083 -0.0622 -0.1563
 1051CHOL    R2 9469  14.005   3.830   5.745  0.1580 -0.3028  0.0431
 1051CHOL    R3 9470  13.792   3.698   5.849 -0.0320 -0.0704 -0.0446
 1051CHOL    R4 9471  13.880   3.879   6.063  0.2272 -0.3415  0.0760
 1051CHOL    R5 9472  13.850   3.663   6.079 -0.0808 -0.3109 -0.0693
 1051CHOL    C1 9473  13.606   3.783   6.346  0.0892 -0.1459  0.0128
 1051CHOL    C2 9474  13.713   3.995   6.558 -0.2443 -0.0066 -0.0038
 1052CHOL   ROH 9475   5.814   1.606   9.084  0.1988 -0.1032  0.0268
 1052CHOL    R1 9476   5.798   1.672   8.810  0.1619  0.0751  0.0707
 1052CHOL    R2 9477   5.958   1.866   8.695  0.3386 -0.0388  0.1203
 1052CHOL    R3 9478   6.022   1.665   8.523  0.0386 -0.0158 -0.0247
 1052CHOL    R4 9479   6.138   1.907   8.402  0.3788 -0.0866  0.1385
 1052CHOL    R5 9480   6.003   1.765   8.305  0.1636  0.1695  0.0457
 1052CHOL    C1 9481   6.303   1.743   8.071  0.1205 -0.0930  0.0130
 1052CHOL    C2 9482   6.229   1.743   7.693  0.3224 -0.1016 -0.0149
 1053CHOL   ROH 9483   5.880  12.050   8.115  0.0575 -0.0809  0.0678
 1053CHOL    R1 9484   6.150  11.976   8.073  0.0166 -0.1741 -0.0335
 1053CHOL    R2 9485   6.241  11.877   7.832 -0.0460  0.0801 -0.1639
 1053CHOL    R3 9486   6.421  12.079   7.854  0.0650 -0.0417  0.0867
 1053CHOL    R4 9487   6.489  11.948   7.602 -0.0278  0.2457 -0.0946
 1053CHOL    R5 9488   6.625  11.988   7.767  0.0095 -0.0412 -0.0483
 1053CHOL    C1 9489   6.803  12.179   7.489  0.0871  0.2279  0.1810
 1053CHOL    C2 9490   6.979  12.169   7.183 -0.0278 -0.0608 -0.0894
 1054PNCE   AM1 9491  10.821   4.381   4.922 -0.3603 -0.0650  0.2379
 1054PNCE   AM2 9492  11.135   4.151   4.685  0.2929 -0.2071  0.0593
 1054PNCE   T1A 9493  11.023   4.597   5.282  0.1251  0.2280  0.0692
 1054PNCE   C2A 9494  11.255   4.875   5.652 -0.1201 -0.1564  0.0340
 1054PNCE   C3A 9495  11.158   4.872   6.058  0.1141 -0.1435 -0.0126
 1054PNCE   C1B 9496  11.292   4.606   4.796  0.1987  0.0964  0.2825
 1054PNCE   C2B 9497  11.493   4.761   5.174  0.0216  0.0444 -0.1387
 1054PNCE   C3B 9498  11.736   5.077   5.175  0.4139  0.1034 -0.0664
 1054PNCE   D4B 9499  11.772   5.433   5.347 -0.0702  0.2355  0.1430
 1054PNCE   C5B 9500  11.911   5.688   5.046 -0.1055  0.0517 -0.1687
 1054PNCE   C6B 9501  11.771   5.696   4.726  0.2702 -0.3699 -0.2504
 1055CHOL   ROH 9502   2.144   8.680   8.466  0.1127  0.1359  0.0405
 1055CHOL    R1 9503   2.351   8.775   8.300  0.0534  0.0961 -0.0559
 1055CHOL    R2 9504   2.574   8.623   8.237  0.0262  0.0807 -0.1013
 1055CHOL    R3 9505   2.500   8.680   7.981 -0.0614  0.0249 -0.0897
 1055CHOL    R4 9506   2.791   8.651   7.970 -0.0797 -0.1730 -0.2188
 1055CHOL    R5 9507   2.675   8.821   7.899 -0.0039 -0.1219 -0.2310
 1055CHOL    C1 9508   2.849   8.721   7.575 -0.2237 -0.3729 -0.2761
 1055CHOL    C2 9509   2.765   8.719   7.182  0.0880 -0.0951 -0.1587
 1056PNCE   AM1 9510  14.767   6.355   8.134  0.0484  0.0673 -0.0689
 1056PNCE   AM2 9511  14.737   6.560   7.936 -0.0483  0.0156  0.0407
 1056PNCE   T1A 9512  15.206   6.233   7.945 -0.1167 -0.0384 -0.0212
 1056PNCE   C2A 9513  15.503   6.383   7.724  0.0909 -0.1197 -0.0336
 1056PNCE   C3A 9514  15.757   6.356   7.324 -0.2267  0.3372 -0.2082
 1056PNCE   C1B 9515  14.582   6.599   7.500 -0.2061  0.1158 -0.2127
 1056PNCE   C2B 9516  14.496   6.573   7.036 -0.1738  0.1505  0.1845
 1056PNCE   C3B 9517  14.040   6.409   6.790  0.0971 -0.1526 -0.1604
 1056PNCE   D4B 9518  13.666   6.030   6.960  0.0129 -0.1386  0.0770
 1056PNCE   C5B 9519  13.203   6.081   6.897 -0.4644  0.0874  0.1004
 1056PNCE   C6B 9520  12.882   5.927   6.618 -0.0308  0.2144 -0.1126
 1057CHOL   ROH 9521   8.363   5.094   4.393 -0.2833 -0.0059 -0.0196
 1057CHOL    R1 9522   8.246   5.153   4.644 -0.3641 -0.0983 -0.0352
 1057CHOL    R2 9523   8.286   5.394   4.774 -0.2116 -0.2349  0.1765
 1057CHOL    R3 9524   8.014   5.400   4.776 -0.2098  0.0113  0.0340
 1057CHOL    R4 9525   8.095   5.546   5.018 -0.2036 -0.1746  0.1456
 1057CHOL    R5 9526   7.957   5.377   5.008 -0.3538 -0.0455 -0.0063
 1057CHOL    C1 9527   7.729   5.641   5.163 -0.1972  0.0918 -0.0063
 1057CHOL    C2 9528   7.792   5.653   5.523 -0.1357 -0.0464  0.1183
 1058PNCE   AM1 9529  10.359   4.707   4.821  0.1296 -0.1799 -0.2468
 1058PNCE   AM2 9530  10.222   4.395   4.872  0.1421  0.1685  0.1484
 1058PNCE   T1A 9531  10.468   4.599   5.343 -0.3749  0.0466  0.2816
 1058PNCE   C2A 9532  10.664   4.680   5.690 -0.0923 -0.0560  0.0762
 1058PNCE   C3A 9533  10.684   4.728   6.103 -0.0665 -0.2643  0.1733
 1058PNCE   C1B 9534   9.984   4.472   5.210 -0.0672  0.0018  0.1403
 1058PNCE   C2B 9535  10.004   4.765   5.622  0.0547 -0.0464  0.1298
 1058PNCE   C3B 9536   9.786   4.962   6.009 -0.0412  0.2550 -0.1558
 1058PNCE   D4B 9537   9.739   5.052   6.342 -0.0916  0.2189 -0.0139
 1058PNCE   C5B 9538   9.392   5.025   6.530  0.3847  0.0775  0.0858
 1058PNCE   C6B 9539   8.981   5.240   6.637 -0.3747  0.2429 -0.1876
 1059CHOL   ROH 9540   7.804   3.942   7.263  0.0264  0.0557  0.1816
 1059CHOL    R1 9541   8.054   4.035   7.359  0.1408  0.0087 -0.0684
 1059CHOL    R2 9542   8.174   3.933   7.586  0.1873  0.2126 -0.0068
 1059CHOL    R3 9543   8.384   3.893   7.418  0.0801 -0.1387 -0.0679
 1059CHOL    R4 9544   8.498   3.868   7.686  0.1921  0.1204 -0.0767
 1059CHOL    R5 9545   8.568   3.999   7.527  0.2062 -0.1187 -0.2830
 1059CHOL    C1 9546   8.884   3.792   7.587  0.0943 -0.2630 -0.1748
 1059CHOL    C2 9547   9.232   3.895   7.483 -0.0703 -0.0498  0.1831
 1060PNCE   AM1 9548   0.640   5.678   3.919  0.1653 -0.1148 -0.0895
 1060PNCE   AM2 9549   0.679   5.926   4.024  0.1846  0.0867  0.5417
 1060PNCE   T1A 9550   0.627   5.464   4.370 -0.1595  0.0848  0.3111
 1060PNCE   C2A 9551   0.588   5.462   4.782  0.1387 -0.2499 -0.4013
 1060PNCE   C3A 9552   0.750   5.835   5.085 -0.0987 -0.0815  0.2493
 1060PNCE   C1B 9553   0.806   5.938   4.477 -0.1116  0.2093 -0.0953
 1060PNCE   C2B 9554   1.086   5.927   4.722 -0.0959  0.0928  0.2990
 1060PNCE   C3B 9555   1.269   5.928   5.037 -0.2447 -0.4044  0.3422
 1060PNCE   D4B 9556   1.167   5.741   5.365  0.2729  0.4143  0.3198
 1060PNCE   C5B 9557   0.855   5.765   5.530  0.0140 -0.0825  0.3060
 1060PNCE   C6B 9558   0.574   5.500   5.673  0.2064  0.0364 -0.1051
 1061PNCE   AM1 9559   5.202  11.291   5.509 -0.3509 -0.3012  0.0486
 1061PNCE   AM2 9560   5.424  11.329   5.305  0.1488  0.1181 -0.1061
 1061PNCE   T1A 9561   5.327  11.281   5.935  0.1619 -0.0291 -0.0699
 1061PNCE   C2A 9562   5.316  11.147   6.367 -0.0491 -0.0608 -0.1715
 1061PNCE   C3A 9563   5.509  11.109   6.774 -0.1793 -0.2427  0.0457
 1061PNCE   C1B 9564   5.770  11.260   5.630  0.1984 -0.2409  0.0290
 1061PNCE   C2B 9565   5.865  11.332   6.112  0.2760  0.0586  0.0133
 1061PNCE   C3B 9566   5.622  11.532   6.403 -0.0552  0.0646 -0.3980
 1061PNCE   D4B 9567   5.389  11.643   6.690 -0.1629  0.0432  0.0365
 1061PNCE   C5B 9568   4.951  11.605   6.608 -0.2340 -0.2237 -0.0672
 1061PNCE   C6B 9569   4.483  11.814   6.631  0.4018 -0.0552  0.0492
 1062CHOL   ROH 9570  12.008   1.422   5.638  0.2692 -0.2402 -0.1212
 1062CHOL    R1 9571  12.170   1.428   5.871  0.1013 -0.0377 -0.0059
 1062CHOL    R2 9572  12.139   1.618   6.069 -0.1782  0.0154 -0.0940
 1062CHOL    R3 9573  12.117   1.400   6.230 -0.1356  0.0569 -0.0321
 1062CHOL    R4 9574  12.251   1.602   6.395 -0.0952  0.0960 -0.1183
 1062CHOL    R5 9575  12.321   1.399   6.356 -0.1052  0.0883 -0.0837
 1062CHOL    C1 9576  12.296   1.388   6.737 -0.0068  0.1820 -0.0743
 1062CHOL    C2 9577  12.499   1.532   6.972 -0.4975  0.2936  0.0311
 1063PNCE   AM1 9578   2.835   9.726   3.995 -0.1053 -0.0494 -0.3612
 1063PNCE   AM2 9579   2.562   9.761   4.181 -0.0944  0.0362  0.4476
 1063PNCE   T1A 9580   2.834   9.402   4.310  0.0381  0.3514  0.2066
 1063PNCE   C2A 9581   2.699   9.275   4.810  0.0611 -0.0521 -0.0502
 1063PNCE   C3A 9582   2.222   9.253   4.993  0.1899 -0.1447  0.1887
 1063PNCE   C1B 9583   2.101   9.660   4.107 -0.1999 -0.1327  0.0277
 1063PNCE   C2B 9584   1.831   9.497   4.228 -0.1037 -0.2540 -0.0718
 1063PNCE   C3B 9585   1.765   9.406   4.650  0.4624  0.1906 -0.0612
 1063PNCE   D4B 9586   1.553   9.107   4.934  0.0674 -0.0803 -0.0869
 1063PNCE   C5B 9587   1.286   9.260   5.280 -0.3901 -0.2452  0.0506
 1063PNCE   C6B 9588   0.888   9.102   5.581 -0.3066  0.1698  0.1533
 1064CHOL   ROH 9589   8.227   4.644   8.572  0.0600  0.0169 -0.0913
 1064CHOL    R1 9590   8.118   4.790   8.355  0.1118  0.1281 -0.0426
 1064CHOL    R2 9591   8.245   4.811   8.111  0.0711  0.0787 -0.0664
 1064CHOL    R3 9592   8.009   4.718   8.016 -0.0169  0.2597 -0.0306
 1064CHOL    R4 9593   8.131   4.857   7.788  0.0700  0.1463 -0.0569
 1064CHOL    R5 9594   7.931   4.891   7.869  0.1041  0.3128 -0.0349
 1064CHOL    C1 9595   7.842   4.796   7.510 -0.0133  0.3555 -0.0178
 1064CHOL    C2 9596   7.665   4.917   7.140 -0.4148  0.2220  0.3186
 1065PNCE   AM1 9597  13.864   2.368   4.545 -0.0703 -0.0361 -0.0102
 1065PNCE   AM2 9598  14.040   2.146   4.734 -0.4023 -0.1689  0.0329
 1065PNCE   T1A 9599  13.995   2.761   4.636  0.0519  0.1724  0.1936
 1065PNCE   C2A 9600  14.088   2.940   4.974  0.0331  0.1246 -0.1706
 1065PNCE   C3A 9601  14.151   3.198   5.425  0.1438  0.1321  0.0065
 1065PNCE   C1B 9602  14.235   2.457   4.916  0.0924 -0.1086 -0.1434
 1065PNCE   C2B 9603  14.305   2.636   5.309 -0.0403  0.1630 -0.1316
 1065PNCE   C3B 9604  14.399   2.801   5.744 -0.0920 -0.5018 -0.0202
 1065PNCE   D4B 9605  14.156   3.048   6.031 -0.1714  0.2440  0.0641
 1065PNCE   C5B 9606  14.418   3.128   6.439 -0.0186  0.2041  0.0163
 1065PNCE   C6B 9607  14.507   2.961   6.865 -0.2865 -0.0492 -0.1519
 1066XCA    COO 9608  13.843   7.303   4.387 -0.0458 -0.0056  0.0118
 1066XCA     C1 9609  13.575   7.235   4.644 -0.1486  0.0323 -0.1287
 1066XCA     C2 9610  13.425   7.358   5.227  0.1137 -0.1894  0.1239
 1066XCA     C3 9611  13.598   7.323   5.565  0.0410 -0.1492 -0.0695
 1066XCA     C4 9612  13.929   7.330   5.778  0.0759 -0.0481  0.1949
 1066XCA     C5 9613  14.268   7.273   6.061  0.2136  0.2742  0.0193
 1066XCA     C6 9614  14.515   7.395   6.276 -0.1405  0.2903 -0.2458
 1067PNCE   AM1 9615   6.777  14.030   8.855  0.1825  0.0870  0.1006
 1067PNCE   AM2 9616   6.562  14.370   8.889 -0.1522  0.1261  0.0159
 1067PNCE   T1A 9617   6.525  13.601   8.803 -0.3176 -0.3857 -0.1440
 1067PNCE   C2A 9618   6.473  13.389   8.478  0.1629 -0.1942 -0.2147
 1067PNCE   C3A 9619   6.697  13.007   8.260  0.3102  0.2011 -0.1586
 1067PNCE   C1B 9620   6.485  14.514   8.507  0.1290 -0.1801 -0.1534
 1067PNCE   C2B 9621   6.365  14.414   8.046  0.2552 -0.1916 -0.2508
 1067PNCE   C3B 9622   6.546  14.131   7.734  0.0347  0.4487  0.0564
 1067PNCE   D4B 9623   6.591  13.645   7.580 -0.1868 -0.2492 -0.0829
 1067PNCE   C5B 9624   6.251  13.436   7.311  0.0136 -0.0723 -0.2409
 1067PNCE   C6B 9625   5.965  13.083   7.231  0.2279  0.1345 -0.1454
 1068PNCE   AM1 9626  11.681   3.839   5.117  0.0585 -0.0968  0.1942
 1068PNCE   AM2 9627  11.855   3.585   4.995 -0.0704 -0.0453  0.0857
 1068PNCE   T1A 9628  11.757   3.998   5.515  0.0273 -0.1603  0.0277
 1068PNCE   C2A 9629  11.970   4.235   5.774 -0.0270  0.0800  0.2466
 1068PNCE   C3A 9630  12.228   4.509   5.820 -0.3642  0.1909 -0.1214
 1068PNCE   C1B 9631  12.137   3.661   5.335  0.2557  0.3177  0.2613
 1068PNCE   C2B 9632  12.192   3.814   5.709 -0.1122 -0.0460  0.0541
 1068PNCE   C3B 9633  12.353   4.056   5.993  0.1368 -0.0524  0.2026
 1068PNCE   D4B 9634  12.579   4.204   6.246 -0.0880  0.2617  0.1920
 1068PNCE   C5B 9635  12.340   4.142   6.637 -0.1520 -0.1055 -0.0531
 1068PNCE   C6B 9636  12.119   3.918   6.739  0.2271  0.1718  0.2026
 1069PNCE   AM1 9637  13.069  12.799   5.256 -0.2063 -0.0843  0.0538
 1069PNCE   AM2 9638  13.353  12.770   5.235 -0.3211  0.0454  0.1092
 1069PNCE   T1A 9639  12.822  12.663   5.572 -0.1177  0.0686  0.1047
 1069PNCE   C2A 9640  12.800  12.574   5.973  0.0543  0.1791  0.1106
 1069PNCE   C3A 9641  12.732  12.644   6.369  0.0929 -0.0360 -0.3979
 1069PNCE   C1B 9642  13.274  12.782   5.744 -0.0633  0.3621 -0.2307
 1069PNCE   C2B 9643  13.207  13.026   6.077 -0.0569  0.1190 -0.0428
 1069PNCE   C3B 9644  12.882  13.132   6.395 -0.3168 -0.0792  0.2245
 1069PNCE   D4B 9645  12.626  12.991   6.716 -0.1055  0.2649 -0.0913
 1069PNCE   C5B 9646  12.163  13.061   6.711  0.2419  0.0422  0.2750
 1069PNCE   C6B 9647  11.922  12.939   6.401  0.0457  0.0436 -0.2327
 1070PNCE   AM1 9648   5.833  11.970   4.927  0.2875  0.0237  0.2245
 1070PNCE   AM2 9649   6.188  11.838   5.155  0.1685  0.0308  0.2557
 1070PNCE   T1A 9650   5.727  11.726   5.383  0.3267  0.0206  0.1461
 1070PNCE   C2A 9651   5.642  11.703   5.874 -0.4696 -0.0441  0.4942
 1070PNCE   C3A 9652   5.233  11.754   6.172 -0.2244 -0.0091 -0.0595
 1070PNCE   C1B 9653   6.466  11.984   5.474  0.0122 -0.1608 -0.1416
 1070PNCE   C2B 9654   6.712  11.995   5.880  0.0209  0.2805 -0.0954
 1070PNCE   C3B 9655   6.683  11.774   6.160  0.4441 -0.1973 -0.1140
 1070PNCE   D4B 9656   6.900  11.614   6.515 -0.0067 -0.0517 -0.0195
 1070PNCE   C5B 9657   6.786  11.143   6.570 -0.3264  0.0373  0.4224
 1070PNCE   C6B 9658   6.794  10.828   6.133  0.3120 -0.2958 -0.2949
 1071CHOL   ROH 9659   8.409   0.447   5.337  0.1530  0.0232 -0.2499
 1071CHOL    R1 9660   8.482   0.326   5.583  0.1609  0.2020 -0.1630
 1071CHOL    R2 9661   8.393   0.419   5.827 -0.0906  0.1886 -0.2492
 1071CHOL    R3 9662   8.310   0.162   5.858  0.1999  0.0968 -0.2002
 1071CHOL    R4 9663   8.352   0.261   6.131 -0.1990  0.3007 -0.2041
 1071CHOL    R5 9664   8.438   0.081   6.043  0.1198  0.3568 -0.0239
 1071CHOL    C1 9665   8.250  -0.073   6.338  0.0105  0.2797 -0.1318
 1071CHOL    C2 9666   8.362  -0.322   6.610 -0.1715 -0.2528  0.0531
 1072PNCE   AM1 9667   4.154   9.871   4.642 -0.0009 -0.0540  0.2416
 1072PNCE   AM2 9668   4.234  10.229   4.560  0.2407 -0.0656  0.2633
 1072PNCE   T1A 9669   4.011   9.961   5.024  0.0014 -0.0438 -0.0187
 1072PNCE   C2A 9670   3.754  10.054   5.352 -0.1812  0.0797  0.0376
 1072PNCE   C3A 9671   3.777  10.189   5.824  0.0542 -0.3594 -0.0246
 1072PNCE   C1B 9672   4.004  10.475   4.916 -0.1392 -0.1370  0.0636
 1072PNCE   C2B 9673   3.802  10.535   5.327  0.0420 -0.2216 -0.0746
 1072PNCE   C3B 9674   3.387  10.589   5.554 -0.4041  0.2543 -0.0422
 1072PNCE   D4B 9675   3.329  10.536   5.961  0.2118  0.0554 -0.1705
 1072PNCE   C5B 9676   3.481  10.767   6.195 -0.0028 -0.0575  0.1790
 1072PNCE   C6B 9677   3.146  10.853   6.525 -0.1788  0.2026 -0.3856
 1073XCA    COO 9678   6.010   9.261   8.883  0.3988  0.3266 -0.3493
 1073XCA     C1 9679   5.863   9.269   8.487 -0.1647 -0.4975  0.0351
 1073XCA     C2 9680   5.893   9.619   8.123 -0.1864 -0.3066 -0.2641
 1073XCA     C3 9681   6.150   9.776   7.769 -0.3373  0.1212 -0.1466
 1073XCA     C4 9682   6.494   9.727   7.559 -0.2014 -0.0137 -0.1317
 1073XCA     C5 9683   6.714   9.383   7.359  0.0771 -0.4021 -0.4833
 1073XCA     C6 9684   7.121   9.178   7.501  0.0436 -0.0446  0.1333
 1074XCA    COO 9685  13.152   8.605   3.840 -0.2674  0.0214  0.3167
 1074XCA     C1 9686  12.815   8.506   4.101 -0.1661  0.0982  0.3649
 1074XCA     C2 9687  12.577   8.433   4.507  0.0854  0.2455 -0.0785
 1074XCA     C3 9688  12.463   8.629   4.936 -0.2321  0.0897  0.1289
 1074XCA     C4 9689  12.340   8.316   5.225  0.1875 -0.2527  0.1039
 1074XCA     C5 9690  12.705   8.152   5.438 -0.0263  0.0801 -0.3191
 1074XCA     C6 9691  13.190   8.084   5.512  0.4707  0.0197 -0.1896
 1075XCA    COO 9692   6.471   3.614   3.846  0.1955 -0.2834  0.0509
 1075XCA     C1 9693   6.761   3.568   4.265 -0.0837  0.0634  0.1264
 1075XCA     C2 9694   6.826   3.839   4.681 -0.0911  0.1905 -0.2840
 1075XCA     C3 9695   6.538   4.209   4.790  0.3387 -0.2308  0.0670
 1075XCA     C4 9696   6.235   4.328   5.040 -0.0368  0.0149 -0.0307
 1075XCA     C5 9697   6.040   4.406   5.347 -0.0712 -0.0033  0.2197
 1075XCA     C6 9698   6.187   4.453   5.800 -0.0076  0.1560  0.1143
 1076PNCE   AM1 9699   4.909   7.552   4.778 -0.0386  0.0243  0.3983
 1076PNCE   AM2 9700   4.793   7.809   4.643  0.0497  0.0065  0.1248
 1076PNCE   T1A 9701   5.160   7.719   4.963  0.0874 -0.0275  0.0421
 1076PNCE   C2A 9702   5.318   7.697   5.354 -0.0560  0.0964  0.0775
 1076PNCE   C3A 9703   5.563   7.637   5.693 -0.0909  0.0266 -0.0698
 1076PNCE   C1B 9704   4.726   7.899   5.080  0.0017 -0.0510  0.2133
 1076PNCE   C2B 9705   4.866   7.893   5.492 -0.0482  0.1064  0.0298
 1076PNCE   C3B 9706   5.158   7.843   5.934 -0.0331  0.0952  0.1474
 1076PNCE   D4B 9707   5.413   8.085   6.281  0.0792 -0.0146 -0.1241
 1076PNCE   C5B 9708   5.330   8.053   6.664 -0.1807 -0.1032 -0.2191
 1076PNCE   C6B 9709   5.433   8.106   7.061 -0.2220 -0.0599 -0.0160
 1077CHOL   ROH 9710  12.255   2.145   8.572 -0.0977  0.1375 -0.3095
 1077CHOL    R1 9711  12.458   1.947   8.566 -0.1265  0.1046 -0.1811
 1077CHOL    R2 9712  12.508   1.793   8.341  0.1606  0.2829 -0.2341
 1077CHOL    R3 9713  12.761   1.887   8.375  0.1432  0.1990  0.2012
 1077CHOL    R4 9714  12.797   1.612   8.282  0.1889  0.3547 -0.3244
 1077CHOL    R5 9715  12.884   1.700   8.461  0.0322 -0.0032 -0.0462
 1077CHOL    C1 9716  13.202   1.594   8.280  0.1890  0.3178  0.0316
 1077CHOL    C2 9717  13.441   1.246   8.250 -0.1138  0.3013 -0.0913
 1078CHOL   ROH 9718   7.839  14.979   8.916 -0.2907 -0.0291 -0.0322
 1078CHOL    R1 9719   8.017  15.050   8.708 -0.2507 -0.0328  0.0012
 1078CHOL    R2 9720   8.252  14.912   8.659 -0.1997  0.0198  0.1043
 1078CHOL    R3 9721   8.150  14.893   8.408 -0.1204 -0.0722  0.0779
 1078CHOL    R4 9722   8.437  14.846   8.376 -0.1271 -0.2324  0.2063
 1078CHOL    R5 9723   8.317  14.993   8.269 -0.0193 -0.2311  0.0795
 1078CHOL    C1 9724   8.450  14.791   7.974 -0.0107 -0.4656  0.2411
 1078CHOL    C2 9725   8.843  14.870   7.973  0.0422 -0.1214 -0.1977
 1079XCA    COO 9726   5.265   4.864   3.950 -0.0237 -0.0064  0.3658
 1079XCA     C1 9727   5.378   5.005   4.375  0.2311 -0.1522 -0.5962
 1079XCA     C2 9728   5.287   5.109   4.854 -0.0520 -0.0634 -0.2608
 1079XCA     C3 9729   5.301   5.355   5.190 -0.2034 -0.3251 -0.1127
 1079XCA     C4 9730   5.276   5.448   5.602  0.0840  0.1594 -0.3992
 1079XCA     C5 9731   5.223   5.838   5.717  0.1757 -0.1121  0.1210
 1079XCA     C6 9732   5.028   6.179   5.456  0.1480  0.1914 -0.4223
 1080PNCE   AM1 9733   1.789   5.584   4.168  0.1285  0.3026 -0.0615
 1080PNCE   AM2 9734   1.632   5.867   4.016  0.3617  0.1124  0.1405
 1080PNCE   T1A 9735   1.924   5.585   4.579  0.2578  0.1317 -0.0959
 1080PNCE   C2A 9736   1.976   5.581   5.016  0.0113  0.0145  0.1000
 1080PNCE   C3A 9737   1.955   5.367   5.429 -0.1837  0.2221 -0.1871
 1080PNCE   C1B 9738   1.451   5.888   4.393 -0.1362  0.1307 -0.3756
 1080PNCE   C2B 9739   1.505   5.573   4.790  0.0403 -0.2608 -0.1018
 1080PNCE   C3B 9740   1.520   5.470   5.214  0.1005 -0.2781 -0.1598
 1080PNCE   D4B 9741   1.461   5.304   5.603  0.1449 -0.0891 -0.0177
 1080PNCE   C5B 9742   1.062   5.419   5.811 -0.0424 -0.2945  0.1066
 1080PNCE   C6B 9743   1.050   5.803   6.065 -0.1195  0.1471 -0.1593
 1081CHOL   ROH 9744   9.993  10.947   8.476  0.0325 -0.1310  0.0317
 1081CHOL    R1 9745  10.070  10.872   8.214 -0.0360  0.0639 -0.0448
 1081CHOL    R2 9746   9.917  10.931   7.991 -0.0592  0.2863  0.0362
 1081CHOL    R3 9747  10.148  11.043   7.903 -0.0475  0.2970  0.0753
 1081CHOL    R4 9748  10.036  10.910   7.667  0.1135  0.0623  0.1105
 1081CHOL    R5 9749  10.237  10.884   7.748  0.0880  0.1928  0.2461
 1081CHOL    C1 9750  10.322  11.003   7.395  0.2249 -0.0581  0.1905
 1081CHOL    C2 9751  10.299  10.950   6.959 -0.1605 -0.3179  0.3174
 1082PNCE   AM1 9752   3.492  10.149   4.226  0.3660  0.1107  0.1940
 1082PNCE   AM2 9753   3.738  10.349   4.188  0.1952 -0.0253 -0.3627
 1082PNCE   T1A 9754   3.097   9.874   4.340  0.0534  0.1402 -0.3892
 1082PNCE   C2A 9755   2.720   9.810   4.640 -0.1959 -0.3635 -0.0535
 1082PNCE   C3A 9756   2.328   9.429   4.535 -0.0502  0.0113  0.3840
 1082PNCE   C1B 9757   3.665  10.206   4.651 -0.1277  0.1525 -0.1926
 1082PNCE   C2B 9758   3.434  10.317   5.020 -0.0400 -0.0141  0.0483
 1082PNCE   C3B 9759   3.115  10.592   5.063  0.2604 -0.2001 -0.5053
 1082PNCE   D4B 9760   2.673  10.662   5.266 -0.3502 -0.2070  0.1472
 1082PNCE   C5B 9761   2.527  10.316   5.366  0.1048  0.0414  0.1358
 1082PNCE   C6B 9762   2.541   9.994   5.682  0.3245 -0.0190  0.1688
 1083CHOL   ROH 9763  12.785   2.782   7.420 -0.0001  0.0542  0.1902
 1083CHOL    R1 9764  12.925   2.994   7.295 -0.0102 -0.0579 -0.0156
 1083CHOL    R2 9765  13.092   3.165   7.435 -0.2307  0.2536 -0.1249
 1083CHOL    R3 9766  13.273   3.089   7.247 -0.0176  0.0601  0.1493
 1083CHOL    R4 9767  13.398   3.316   7.383 -0.2735  0.3551 -0.0851
 1083CHOL    R5 9768  13.367   3.295   7.169 -0.0726 -0.0002 -0.0886
 1083CHOL    C1 9769  13.747   3.333   7.177 -0.0985  0.2326  0.1955
 1083CHOL    C2 9770  14.071   3.319   7.034  0.1638  0.1529 -0.0795
 1084XCA    COO 9771   9.011   6.589   8.200 -0.2258 -0.2529 -0.1082
 1084XCA     C1 9772   8.915   6.494   7.716  0.0608 -0.0919 -0.1430
 1084XCA     C2 9773   8.981   6.213   7.262 -0.2541  0.1101  0.0471
 1084XCA     C3 9774   9.269   5.866   7.261 -0.1991 -0.0391  0.0179
 1084XCA     C4 9775   9.774   5.848   7.052  0.1527 -0.0113 -0.2274
 1084XCA     C5 9776  10.072   6.209   7.036  0.1568 -0.0924  0.1810
 1084XCA     C6 9777  10.251   6.563   6.870 -0.3300 -0.1440  0.0077
 1085PNCE   AM1 9778  13.428  11.236   4.798  0.2755 -0.0115  0.0174
 1085PNCE   AM2 9779  13.034  11.181   4.711  0.3096  0.0190 -0.0359
 1085PNCE   T1A 9780  13.545  11.078   5.167  0.2068  0.2951  0.0105
 1085PNCE   C2A 9781  13.277  10.853   5.470  0.1823  0.1563  0.0262
 1085PNCE   C3A 9782  12.819  10.899   5.678 -0.0053 -0.0398  0.3157
 1085PNCE   C1B 9783  13.021  11.150   5.208 -0.0341  0.0773 -0.2180
 1085PNCE   C2B 9784  13.009  11.351   5.536  0.1634 -0.1881 -0.0244
 1085PNCE   C3B 9785  12.784  11.270   5.977 -0.3235 -0.0937 -0.2066
 1085PNCE   D4B 9786  12.552  11.339   6.366 -0.0126 -0.1996 -0.0557
 1085PNCE   C5B 9787  12.329  11.031   6.541 -0.2159 -0.1089  0.2335
 1085PNCE   C6B 9788  12.096  11.240   6.855 -0.2476  0.1360  0.0602
 1086PNCE   AM1 9789   6.578   0.880   5.397 -0.1298 -0.2929 -0.1440
 1086PNCE   AM2 9790   6.433   0.590   5.294 -0.2864 -0.0603 -0.0447
 1086PNCE   T1A 9791   6.496   1.048   5.820 -0.2966 -0.0434 -0.2038
 1086PNCE   C2A 9792   6.425   0.934   6.234  0.0937 -0.0517 -0.0561
 1086PNCE   C3A 9793   6.152   1.104   6.529 -0.2306 -0.2244  0.0181
 1086PNCE   C1B 9794   6.541   0.445   5.725  0.0809  0.2162 -0.1239
 1086PNCE   C2B 9795   6.406   0.392   6.155  0.1870  0.2470 -0.1107
 1086PNCE   C3B 9796   6.325   0.500   6.603  0.0211  0.1629  0.0270
 1086PNCE   D4B 9797   6.005   0.654   6.929  0.0142 -0.1888 -0.3071
 1086PNCE   C5B 9798   5.637   0.931   6.809 -0.1320  0.0951 -0.0645
 1086PNCE   C6B 9799   5.155   0.923   6.769 -0.1686 -0.0990  0.1712
 1087CHOL   ROH 9800  12.673   2.460   5.353  0.1248  0.0666  0.0109
 1087CHOL    R1 9801  12.765   2.444   5.620  0.1797  0.0877 -0.0060
 1087CHOL    R2 9802  12.942   2.626   5.729  0.0449  0.2170  0.0060
 1087CHOL    R3 9803  12.749   2.651   5.919  0.0485  0.0145  0.0380
 1087CHOL    R4 9804  12.998   2.719   6.057  0.0174  0.0963  0.0451
 1087CHOL    R5 9805  12.852   2.570   6.119  0.1125 -0.0180 -0.0102
 1087CHOL    C1 9806  12.850   2.797   6.426  0.0048 -0.1641  0.0979
 1087CHOL    C2 9807  12.722   2.773   6.833  0.0910 -0.0585  0.0517
 1088CHOL   ROH 9808   7.400  11.372   6.676 -0.0822  0.0063 -0.0391
 1088CHOL    R1 9809   7.354  11.131   6.533  0.1499 -0.0375 -0.0420
 1088CHOL    R2 9810   7.189  11.119   6.312  0.0897 -0.2096  0.0169
 1088CHOL    R3 9811   7.409  11.010   6.195  0.1774  0.0511 -0.0711
 1088CHOL    R4 9812   7.206  11.014   5.983 -0.0455 -0.5109  0.1017
 1088CHOL    R5 9813   7.321  10.841   6.049  0.3215 -0.2558  0.1792
 1088CHOL    C1 9814   7.422  10.850   5.682 -0.0419 -0.4417  0.0684
 1088CHOL    C2 9815   7.346  10.759   5.286  0.1353  0.3421 -0.1037
 1089XCA    COO 9816  11.173  13.642   4.629  0.1671 -0.1203  0.2149
 1089XCA     C1 9817  10.972  13.737   5.081  0.0251  0.2192  0.1369
 1089XCA     C2 9818  10.955  13.387   5.394 -0.0754  0.4321  0.1344
 1089XCA     C3 9819  10.772  13.069   5.703  0.0531 -0.3121 -0.1391
 1089XCA     C4 9820  10.615  12.691   5.799  0.0129 -0.2596  0.0185
 1089XCA     C5 9821  10.617  12.347   5.868 -0.1565 -0.1246  0.0044
 1089XCA     C6 9822  10.797  12.181   6.208  0.0504 -0.2807 -0.0094
 1090CHOL   ROH 9823   7.758   8.469   8.317 -0.1361  0.0450  0.0111
 1090CHOL    R1 9824   7.763   8.661   8.108  0.0367  0.0805  0.0467
 1090CHOL    R2 9825   7.994   8.721   7.967  0.0886 -0.1121  0.0489
 1090CHOL    R3 9826   7.838   8.661   7.752  0.0216  0.0769  0.0431
 1090CHOL    R4 9827   8.039   8.846   7.648  0.2032 -0.0968  0.0707
 1090CHOL    R5 9828   7.823   8.866   7.630  0.2184  0.1172  0.0806
 1090CHOL    C1 9829   7.918   8.863   7.261  0.2072  0.0896  0.0779
 1090CHOL    C2 9830   7.985   8.674   6.886  0.0217  0.2671  0.2621
 1091XCA    COO 9831  15.745   6.865   8.502  0.4897  0.0133 -0.1045
 1091XCA     C1 9832  15.944   6.615   8.113  0.0351  0.0442 -0.2733
 1091XCA     C2 9833  16.127   6.416   7.712  0.1378  0.2087 -0.0573
 1091XCA     C3 9834  16.345   6.247   7.505  0.1852  0.3918 -0.1881
 1091XCA     C4 9835  16.533   5.974   7.202 -0.1192  0.1315 -0.0424
 1091XCA     C5 9836  16.759   5.824   6.811  0.0059 -0.0809 -0.0527
 1091XCA     C6 9837  16.900   5.997   6.495 -0.1143  0.2809 -0.0545
 1092CHOL   ROH 9838   5.076  13.447   4.817 -0.0274 -0.0541  0.0969
 1092CHOL    R1 9839   4.970  13.380   5.070 -0.1251 -0.0037  0.0693
 1092CHOL    R2 9840   5.059  13.496   5.305 -0.0570 -0.1212  0.1013
 1092CHOL    R3 9841   4.795  13.554   5.338 -0.0136  0.1058  0.0723
 1092CHOL    R4 9842   4.885  13.457   5.601 -0.1870 -0.2385  0.0110
 1092CHOL    R5 9843   4.715  13.382   5.485 -0.2283  0.0378 -0.1173
 1092CHOL    C1 9844   4.536  13.489   5.805 -0.2220 -0.0939 -0.0688
 1092CHOL    C2 9845   4.283  13.273   5.955 -0.0895 -0.0165 -0.0583
 1093XCA    COO 9846   4.459  12.739   4.613 -0.0156 -0.2292  0.0485
 1093XCA     C1 9847   4.255  12.809   4.938 -0.0380 -0.0970 -0.1519
 1093XCA     C2 9848   3.859  12.964   5.184  0.0458 -0.0145 -0.2814
 1093XCA     C3 9849   3.841  13.226   5.582  0.0684 -0.1003 -0.0127
 1093XCA     C4 9850   3.756  13.248   6.051  0.1549 -0.1736 -0.0550
 1093XCA     C5 9851   3.653  13.348   6.489  0.2739 -0.2527  0.1819
 1093XCA     C6 9852   3.616  13.144   6.839  0.4975 -0.1018 -0.2066
 1094PNCE   AM1 9853   9.264   9.246   8.230 -0.0250 -0.0532  0.0777
 1094PNCE   AM2 9854   9.129   9.510   8.339 -0.2384  0.1552  0.1545
 1094PNCE   T1A 9855   8.855   9.235   8.042  0.1553  0.0895  0.2187
 1094PNCE   C2A 9856   8.598   9.499   7.716  0.0534 -0.0181  0.1626
 1094PNCE   C3A 9857   8.325   9.789   7.553 -0.3705  0.2889 -0.0032
 1094PNCE   C1B 9858   9.041   9.779   8.009  0.0471 -0.0492  0.0436
 1094PNCE   C2B 9859   8.779  10.263   7.899  0.3225  0.0484 -0.1728
 1094PNCE   C3B 9860   8.660  10.663   7.941  0.2353 -0.0937  0.1666
 1094PNCE   D4B 9861   8.722  11.029   7.701 -0.1082 -0.0984  0.2368
 1094PNCE   C5B 9862   8.760  10.821   7.269 -0.1183 -0.2077  0.0761
 1094PNCE   C6B 9863   8.698  10.384   6.929  0.1340  0.1210  0.3523
 1095XCA    COO 9864   8.087  13.211   5.249  0.0660 -0.0004  0.2486
 1095XCA     C1 9865   8.040  13.233   5.685  0.3720 -0.1016  0.0121
 1095XCA     C2 9866   8.210  13.401   5.988  0.2356  0.0978 -0.2980
 1095XCA     C3 9867   8.404  13.207   6.430  0.1823  0.1302  0.0983
 1095XCA     C4 9868   8.573  13.374   6.803 -0.0768  0.1092 -0.2130
 1095XCA     C5 9869   8.605  13.702   7.047 -0.0472 -0.0556 -0.3374
 1095XCA     C6 9870   8.424  14.165   7.005 -0.2657  0.3383 -0.0817
 1096XCA    COO 9871   0.238   9.159   8.072  0.0944  0.4255  0.1994
 1096XCA     C1 9872   0.486   9.558   7.943  0.0511  0.0449  0.1235
 1096XCA     C2 9873   0.555   9.888   7.581 -0.1948  0.4859  0.2074
 1096XCA     C3 9874   0.649  10.017   7.156 -0.0598  0.0969  0.2285
 1096XCA     C4 9875   0.856  10.083   6.809 -0.6190  0.0342  0.2000
 1096XCA     C5 9876   1.048  10.341   6.355 -0.2873  0.3805 -0.2089
 1096XCA     C6 9877   1.221  10.541   6.036  0.2083  0.1201  0.0294
 1097PNCE   AM1 9878  10.109  13.559   4.763 -0.2107  0.1379  0.0914
 1097PNCE   AM2 9879  10.244  13.302   4.685  0.0316  0.1638 -0.0807
 1097PNCE   T1A 9880  10.067  13.101   5.131 -0.0784  0.0770 -0.0309
 1097PNCE   C2A 9881  10.000  12.759   5.407  0.0441 -0.1527 -0.0178
 1097PNCE   C3A 9882   9.994  12.706   5.789  0.0170 -0.0168  0.1413
 1097PNCE   C1B 9883  10.517  13.471   5.115  0.0363 -0.2644 -0.1204
 1097PNCE   C2B 9884  10.429  13.360   5.518 -0.1117 -0.0193 -0.0713
 1097PNCE   C3B 9885  10.012  13.178   5.635 -0.0462  0.0833 -0.0217
 1097PNCE   D4B 9886   9.591  12.951   5.658  0.0798 -0.4026 -0.0366
 1097PNCE   C5B 9887   9.446  12.602   5.858 -0.2231 -0.1284  0.1606
 1097PNCE   C6B 9888   9.681  12.230   5.883 -0.0146 -0.0656 -0.1057
 1098PNCE   AM1 9889  14.234   6.775   4.232 -0.2442  0.3934  0.3209
 1098PNCE   AM2 9890  14.028   6.658   4.023 -0.2598 -0.0907 -0.3543
 1098PNCE   T1A 9891  14.039   6.480   4.567 -0.0031 -0.0841 -0.0294
 1098PNCE   C2A 9892  14.095   6.209   4.927  0.3252  0.1702  0.1429
 1098PNCE   C3A 9893  14.333   6.190   5.328  0.2134 -0.0711  0.3255
 1098PNCE   C1B 9894  13.664   6.818   4.381 -0.0052  0.1962 -0.0979
 1098PNCE   C2B 9895  13.314   6.897   4.374  0.2407 -0.0184  0.2795
 1098PNCE   C3B 9896  13.039   7.065   4.522 -0.1316  0.2032 -0.1411
 1098PNCE   D4B 9897  12.996   7.065   4.874  0.1562 -0.2602 -0.0705
 1098PNCE   C5B 9898  13.256   6.867   5.230  0.2302 -0.0192 -0.5287
 1098PNCE   C6B 9899  13.429   6.823   5.643  0.1202  0.0046 -0.0781
 1099PNCE   AM1 9900   3.494  12.992   4.406  0.0494  0.0299  0.1175
 1099PNCE   AM2 9901   3.245  13.062   4.270 -0.2130  0.2558 -0.1868
 1099PNCE   T1A 9902   3.618  12.719   4.711 -0.1581 -0.1498  0.0195
 1099PNCE   C2A 9903   3.845  12.531   4.956  0.2662 -0.1552  0.2741
 1099PNCE   C3A 9904   3.789  12.484   5.427 -0.4045 -0.1563  0.1172
 1099PNCE   C1B 9905   3.035  12.985   4.700  0.0311  0.1228  0.1956
 1099PNCE   C2B 9906   2.952  12.951   5.164 -0.0147 -0.0248  0.4499
 1099PNCE   C3B 9907   2.590  12.800   5.534 -0.1974 -0.0562 -0.0618
 1099PNCE   D4B 9908   2.440  12.494   5.849 -0.0404 -0.4087 -0.1248
 1099PNCE   C5B 9909   2.269  12.491   6.201  0.2196 -0.0929  0.2078
 1099PNCE   C6B 9910   2.087  12.350   6.633 -0.2218  0.3270 -0.1457
 1100CHOL   ROH 9911   0.700   0.671   5.587  0.2247  0.0203  0.0619
 1100CHOL    R1 9912   0.592   0.886   5.736  0.1379 -0.0203  0.0586
 1100CHOL    R2 9913   0.520   0.862   6.002  0.0984 -0.0588  0.0443
 1100CHOL    R3 9914   0.686   1.075   6.032  0.0324 -0.0141  0.0887
 1100CHOL    R4 9915   0.620   0.992   6.306 -0.1258  0.0485  0.0738
 1100CHOL    R5 9916   0.598   1.192   6.222 -0.1166  0.0208  0.0008
 1100CHOL    C1 9917   0.834   1.268   6.512 -0.3183  0.1529  0.1327
 1100CHOL    C2 9918   0.950   1.407   6.897  0.0120  0.1978 -0.1390
 1101XCA    COO 9919   3.146  11.259   7.917 -0.3661 -0.0748 -0.2740
 1101XCA     C1 9920   3.448  11.165   7.572  0.3874  0.0208 -0.1328
 1101XCA     C2 9921   3.367  11.137   7.239  0.2366 -0.0838  0.0672
 1101XCA     C3 9922   3.297  11.138   6.869 -0.1136  0.0286  0.3141
 1101XCA     C4 9923   2.962  11.272   6.600 -0.2720  0.0760 -0.0191
 1101XCA     C5 9924   2.667  11.223   6.304 -0.0389  0.0853 -0.2069
 1101XCA     C6 9925   2.271  11.453   6.234  0.0100 -0.0612 -0.3471
 1102PNCE   AM1 9926   4.187   5.710   4.214  0.2939 -0.3470 -0.7918
 1102PNCE   AM2 9927   4.073   5.422   4.134 -0.0523 -0.0114  0.0322
 1102PNCE   T1A 9928   4.046   5.746   4.586  0.3158  0.1267 -0.0502
 1102PNCE   C2A 9929   3.932   5.990   4.876 -0.2699 -0.1364  0.4652
 1102PNCE   C3A 9930   3.950   6.120   5.486 -0.0699 -0.1855 -0.1717
 1102PNCE   C1B 9931   3.759   5.296   4.452  0.0684 -0.0551  0.1743
 1102PNCE   C2B 9932   3.656   5.470   4.951 -0.0048  0.1578 -0.2947
 1102PNCE   C3B 9933   3.748   5.691   5.313  0.1878  0.0913  0.1021
 1102PNCE   D4B 9934   3.793   5.731   5.736  0.1963 -0.2011  0.0211
 1102PNCE   C5B 9935   3.816   5.378   6.047  0.0207 -0.1085  0.0621
 1102PNCE   C6B 9936   4.141   5.067   5.997  0.3304  0.1503 -0.0394
 1103CHOL   ROH 9937   6.304   9.918   8.287  0.0625 -0.2793 -0.1059
 1103CHOL    R1 9938   6.453  10.112   8.145  0.0701 -0.2388 -0.0384
 1103CHOL    R2 9939   6.599  10.051   7.918 -0.1396 -0.1196 -0.1954
 1103CHOL    R3 9940   6.453  10.252   7.809 -0.0931  0.0756  0.0853
 1103CHOL    R4 9941   6.671  10.208   7.619 -0.4267 -0.1554 -0.2880
 1103CHOL    R5 9942   6.615  10.397   7.710 -0.0638 -0.0946 -0.1469
 1103CHOL    C1 9943   6.575  10.488   7.342 -0.5502  0.0070 -0.0784
 1103CHOL    C2 9944   6.655  10.825   7.219 -0.0426  0.0156 -0.3114
 1104XCA    COO 9945  10.436  10.129   5.069  0.0552 -0.0481 -0.2796
 1104XCA     C1 9946  10.370  10.133   5.510 -0.0485 -0.0822 -0.1982
 1104XCA     C2 9947  10.274  10.135   5.894 -0.2695  0.0858  0.3151
 1104XCA     C3 9948  10.405  10.499   6.167 -0.0590  0.0294 -0.0707
 1104XCA     C4 9949  10.184  10.904   6.347 -0.1595 -0.0361  0.1117
 1104XCA     C5 9950   9.954  11.172   6.600 -0.1312 -0.4219  0.1315
 1104XCA     C6 9951   9.671  11.331   6.739 -0.1643 -0.0874  0.1624
 1105CHOL   ROH 9952  10.010  11.180   7.279 -0.0473  0.0094 -0.0268
 1105CHOL    R1 9953   9.909  10.942   7.164 -0.1184  0.0300 -0.0069
 1105CHOL    R2 9954   9.680  10.937   7.010 -0.1178  0.0864 -0.0083
 1105CHOL    R3 9955   9.843  10.818   6.828 -0.1527  0.0199  0.0034
 1105CHOL    R4 9956   9.571  10.747   6.743 -0.1832  0.2531 -0.1026
 1105CHOL    R5 9957   9.736  10.608   6.782 -0.2985  0.1145 -0.0955
 1105CHOL    C1 9958   9.660  10.523   6.417 -0.2540  0.2876 -0.1466
 1105CHOL    C2 9959   9.867  10.379   6.137  0.1729 -0.1406  0.0370
 1106PNCE   AM1 9960   7.782  13.546   5.175  0.0084  0.3103 -0.1512
 1106PNCE   AM2 9961   7.534  13.839   5.078 -0.0277 -0.0677 -0.0463
 1106PNCE   T1A 9962   7.455  13.505   5.479  0.2427 -0.1854 -0.3656
 1106PNCE   C2A 9963   7.115  13.693   5.743 -0.2175 -0.0589 -0.2851
 1106PNCE   C3A 9964   6.930  13.744   6.146 -0.2477 -0.0065 -0.0469
 1106PNCE   C1B 9965   7.163  14.070   5.302  0.0848  0.0241 -0.1671
 1106PNCE   C2B 9966   6.710  13.973   5.303 -0.0336  0.0627  0.2590
 1106PNCE   C3B 9967   6.590  13.704   5.595 -0.0584 -0.2662  0.0315
 1106PNCE   D4B 9968   6.423  13.401   5.869  0.0437 -0.4291  0.1644
 1106PNCE   C5B 9969   6.458  12.995   5.673  0.0272  0.0370 -0.1891
 1106PNCE   C6B 9970   6.665  12.890   5.268  0.2685 -0.1560 -0.1946
 1107CHOL   ROH 9971  12.771   6.583   6.158  0.2472 -0.1020  0.0202
 1107CHOL    R1 9972  12.821   6.837   6.045  0.1965 -0.0826  0.0410
 1107CHOL    R2 9973  13.047   6.891   5.894  0.1402 -0.0509 -0.0304
 1107CHOL    R3 9974  12.865   6.974   5.710  0.0723 -0.0286  0.0459
 1107CHOL    R4 9975  13.099   7.145   5.666  0.0329  0.0263  0.0303
 1107CHOL    R5 9976  12.894   7.212   5.701  0.0291 -0.0194  0.1089
 1107CHOL    C1 9977  12.958   7.372   5.361 -0.0934  0.0922  0.1373
 1107CHOL    C2 9978  12.894   7.745   5.077 -0.0673 -0.1865 -0.4253
 1108CHOL   ROH 9979   7.159   0.306   5.370  0.1380  0.0822  0.0364
 1108CHOL    R1 9980   6.984   0.303   5.593  0.0866  0.0462 -0.0027
 1108CHOL    R2 9981   6.925   0.071   5.732  0.0109  0.0101 -0.0828
 1108CHOL    R3 9982   7.007   0.218   5.946 -0.0047 -0.0675 -0.0250
 1108CHOL    R4 9983   6.836   0.009   6.060 -0.2611  0.0857 -0.1413
 1108CHOL    R5 9984   6.816   0.224   6.091 -0.0927  0.0983 -0.1515
 1108CHOL    C1 9985   6.861   0.110   6.452 -0.4341  0.0569 -0.1211
 1108CHOL    C2 9986   6.576   0.084   6.644  0.1955 -0.0086  0.1007
 1109CHOL   ROH 9987  15.519   7.108   8.184 -0.0607 -0.0893 -0.0872
 1109CHOL    R1 9988  15.576   6.925   7.975 -0.1107 -0.1107 -0.0825
 1109CHOL    R2 9989  15.591   7.000   7.710 -0.0802 -0.1204 -0.0829
 1109CHOL    R3 9990  15.836   6.883   7.723 -0.1165 -0.1949 -0.0758
 1109CHOL    R4 9991  15.777   6.902   7.436 -0.0003  0.0512 -0.0912
 1109CHOL    R5 9992  15.834   6.722   7.546 -0.0914 -0.0543 -0.2086
 1109CHOL    C1 9993  16.115   6.734   7.289  0.0123  0.0812 -0.0893
 1109CHOL    C2 9994  16.271   6.417   7.042 -0.1940  0.0832 -0.0134
 1110PNCE   AM1 9995   7.626   7.900   4.196 -0.1141 -0.1886 -0.0663
 1110PNCE   AM2 9996   7.943   7.741   4.177 -0.0077  0.0590 -0.2513
 1110PNCE   T1A 9997   7.343   7.702   4.603 -0.1176 -0.0909  0.1697
 1110PNCE   C2A 9998   7.285   7.579   4.939  0.1154  0.1125  0.0696
 1110PNCE   C3A 9999   7.356   7.316   5.244 -0.1094  0.0776  0.0520
 1110PNCE   C1B10000   8.126   7.487   4.522 -0.2169 -0.0871 -0.0563
 1110PNCE   C2B10001   8.088   7.318   4.892 -0.2182 -0.3961  0.0032
 1110PNCE   C3B10002   7.935   7.391   5.361 -0.0212  0.2474  0.2551
 1110PNCE   D4B10003   7.943   7.531   5.758 -0.1626 -0.0354  0.2584
 1110PNCE   C5B10004   7.618   7.779   5.974  0.0564  0.0671  0.0482
 1110PNCE   C6B10005   7.433   7.853   6.364  0.4500 -0.0193  0.0085
 1111XCA    COO10006   3.367  10.794   8.025  0.1572  0.0105 -0.2929
 1111XCA     C110007   3.735  10.761   7.832 -0.0284 -0.0137  0.0469
 1111XCA     C210008   4.173  10.744   7.617  0.0377 -0.1764  0.0225
 1111XCA     C310009   4.209  10.536   7.237 -0.1998 -0.2385  0.1294
 1111XCA     C410010   3.839  10.334   7.009 -0.0639  0.0763 -0.0477
 1111XCA     C510011   3.394  10.225   7.195 -0.3359  0.1583 -0.0065
 1111XCA     C610012   3.051  10.135   7.404 -0.2515 -0.1418  0.3103
 1112CHOL   ROH10013  11.152  12.928   5.001 -0.3368 -0.2154  0.2699
 1112CHOL    R110014  11.293  12.994   5.238 -0.1044 -0.1416  0.1147
 1112CHOL    R210015  11.172  12.996   5.487  0.0991  0.0853  0.2147
 1112CHOL    R310016  11.376  12.827   5.551  0.0578  0.0116  0.1547
 1112CHOL    R410017  11.268  12.915   5.809 -0.0016 -0.1550  0.1867
 1112CHOL    R510018  11.476  12.926   5.745  0.0179 -0.1382  0.2530
 1112CHOL    C110019  11.514  12.710   6.057 -0.0989 -0.3641  0.1140
 1112CHOL    C210020  11.447  12.816   6.414  0.0246 -0.1115  0.0681
 1113CHOL   ROH10021   6.158   8.769   4.626 -0.1067  0.0846  0.0545
 1113CHOL    R110022   6.238   8.688   4.886 -0.0232  0.1289  0.0425
 1113CHOL    R210023   6.134   8.465   5.010  0.0489  0.1283  0.0957
 1113CHOL    R310024   6.396   8.397   5.035  0.0671  0.1739  0.0370
 1113CHOL    R410025   6.260   8.251   5.250  0.1025 -0.0268 -0.0677
 1113CHOL    R510026   6.432   8.384   5.272  0.0723  0.0023  0.0306
 1113CHOL    C110027   6.580   8.063   5.414  0.1509 -0.0742 -0.2180
 1113CHOL    C210028   6.523   8.182   5.803  0.1945 -0.0001 -0.1672
 1114XCA    COO10029  15.787  12.822   4.226  0.2738 -0.0942  0.3616
 1114XCA     C110030  16.151  12.750   4.518  0.1011  0.1307  0.0268
 1114XCA     C210031  16.521  13.027   4.634  0.1725  0.0547  0.3577
 1114XCA     C310032  16.875  13.241   4.865  0.1512 -0.0445 -0.0290
 1114XCA     C410033  16.840  13.282   5.330  0.4377 -0.0074 -0.1136
 1114XCA     C510034  17.062  13.139   5.794  0.0309 -0.0681 -0.0306
 1114XCA     C610035  16.973  12.994   6.206 -0.1211 -0.1312  0.1541
 1115CHOL   ROH10036   8.838   0.896   7.252  0.2009 -0.1779  0.0911
 1115CHOL    R110037   8.810   0.870   7.533  0.1054 -0.0537  0.0942
 1115CHOL    R210038   8.762   1.086   7.698 -0.0018  0.0144 -0.0220
 1115CHOL    R310039   8.550   0.935   7.780  0.0013  0.0058 -0.0303
 1115CHOL    R410040   8.556   1.163   7.965 -0.2302  0.1859 -0.2429
 1115CHOL    R510041   8.555   0.951   8.019 -0.1801  0.2371 -0.0402
 1115CHOL    C110042   8.238   1.066   8.197 -0.3603  0.2778 -0.3793
 1115CHOL    C210043   8.079   1.060   8.607  0.3412 -0.2934 -0.0290
 1116XCA    COO10044  10.023   8.216   7.706 -0.1033 -0.1441  0.0755
 1116XCA     C110045  10.132   8.155   7.287  0.1437  0.1702 -0.4031
 1116XCA     C210046  10.258   8.259   6.885  0.0211  0.2355 -0.1050
 1116XCA     C310047  10.166   8.107   6.538 -0.0726 -0.0477  0.1877
 1116XCA     C410048  10.305   7.781   6.357 -0.2916  0.1730 -0.0731
 1116XCA     C510049  10.120   7.407   6.466  0.0641 -0.0685  0.0567
 1116XCA     C610050   9.790   7.110   6.543  0.3202  0.0734  0.2123
 1117PNCE   AM110051  12.916  13.288   5.224  0.1799 -0.2751 -0.0946
 1117PNCE   AM210052  13.112  13.528   5.140 -0.1253 -0.2141  0.0166
 1117PNCE   T1A10053  12.589  13.110   5.405 -0.2199  0.0996 -0.3174
 1117PNCE   C2A10054  12.415  12.971   5.762 -0.0874 -0.0109 -0.0042
 1117PNCE   C3A10055  12.409  13.016   6.250 -0.2344  0.0136 -0.3980
 1117PNCE   C1B10056  13.093  13.647   5.597  0.1322 -0.2065  0.0737
 1117PNCE   C2B10057  12.929  13.662   6.091 -0.1532  0.0936  0.1139
 1117PNCE   C3B10058  13.102  13.766   6.474  0.3571  0.1567 -0.1321
 1117PNCE   D4B10059  13.456  13.922   6.654  0.1605 -0.3436 -0.0121
 1117PNCE   C5B10060  13.452  14.312   6.460  0.0460 -0.0508 -0.5055
 1117PNCE   C6B10061  13.487  14.792   6.234 -0.1295 -0.2378 -0.0197
 1118PNCE   AM110062   4.661   0.440   5.243 -0.0157 -0.1375 -0.1472
 1118PNCE   AM210063   4.941   0.499   5.316  0.0610 -0.2136 -0.3111
 1118PNCE   T1A10064   4.617   0.166   5.637 -0.4326 -0.0119  0.0462
 1118PNCE   C2A10065   4.555  -0.010   6.062  0.0499 -0.3141 -0.1585
 1118PNCE   C3A10066   4.405   0.102   6.439  0.1233 -0.1980  0.2368
 1118PNCE   C1B10067   5.129   0.385   5.715  0.0679  0.2244  0.2880
 1118PNCE   C2B10068   5.410   0.657   5.988 -0.0600  0.1829 -0.2968
 1118PNCE   C3B10069   5.475   0.968   6.292  0.0013  0.2012  0.1590
 1118PNCE   D4B10070   5.624   1.265   6.437  0.0453  0.0295 -0.1315
 1118PNCE   C5B10071   5.270   1.461   6.469 -0.1094  0.1163  0.0587
 1118PNCE   C6B10072   5.150   1.842   6.609 -0.0116 -0.0899 -0.0750
 1119PNCE   AM110073  13.970   5.961   3.828 -0.0164 -0.2439  0.1125
 1119PNCE   AM210074  14.307   5.924   3.814  0.0571  0.0411  0.0442
 1119PNCE   T1A10075  13.681   6.309   4.097 -0.1089 -0.0550 -0.2412
 1119PNCE   C2A10076  13.560   6.377   4.632  0.0057  0.0846  0.2189
 1119PNCE   C3A10077  13.556   6.393   4.991  0.0847  0.2179  0.2628
 1119PNCE   C1B10078  14.604   5.718   4.220  0.2774 -0.1606 -0.2508
 1119PNCE   C2B10079  14.874   5.550   4.560 -0.0079 -0.2600  0.2361
 1119PNCE   C3B10080  15.040   5.265   4.741  0.1709  0.1433 -0.2706
 1119PNCE   D4B10081  15.083   4.956   5.043 -0.2762  0.0899 -0.0123
 1119PNCE   C5B10082  15.437   4.952   5.189  0.1869  0.0619  0.0637
 1119PNCE   C6B10083  15.569   4.828   5.494 -0.1790 -0.0026 -0.0587
 1120PNCE   AM110084  11.430   2.752   5.444  0.0767 -0.2058 -0.0668
 1120PNCE   AM210085  11.712   2.726   5.240 -0.0903  0.2163 -0.1017
 1120PNCE   T1A10086  11.705   2.935   5.692  0.2323  0.1108 -0.3313
 1120PNCE   C2A10087  11.826   3.180   6.076  0.0909 -0.0273 -0.1373
 1120PNCE   C3A10088  12.160   3.121   6.428 -0.0630  0.1028 -0.1437
 1120PNCE   C1B10089  12.121   2.719   5.595 -0.0541 -0.2286 -0.3344
 1120PNCE   C2B10090  11.941   2.672   6.052  0.0709 -0.0606  0.1653
 1120PNCE   C3B10091  11.861   2.654   6.429  0.1686  0.3130  0.1280
 1120PNCE   D4B10092  11.614   2.744   6.817 -0.2352  0.0659 -0.0344
 1120PNCE   C5B10093  11.203   2.897   6.629 -0.1270 -0.0731 -0.5448
 1120PNCE   C6B10094  10.975   2.884   6.366 -0.2130 -0.2553  0.1615
 1121PNCE   AM110095  13.909   8.021   4.189  0.2648 -0.0587  0.1102
 1121PNCE   AM210096  13.849   8.369   4.244  0.0071  0.0962 -0.1898
 1121PNCE   T1A10097  13.654   7.793   4.532  0.0117  0.2829  0.0733
 1121PNCE   C2A10098  13.748   7.609   4.886  0.1548  0.0709  0.0364
 1121PNCE   C3A10099  13.926   7.624   5.278 -0.0531  0.2060  0.0877
 1121PNCE   C1B10100  13.611   8.288   4.624 -0.1449 -0.0556  0.1096
 1121PNCE   C2B10101  13.671   8.279   4.993  0.0839  0.0128  0.3113
 1121PNCE   C3B10102  13.897   8.266   5.322 -0.1346  0.1521 -0.2734
 1121PNCE   D4B10103  13.626   8.398   5.752 -0.0680  0.0934 -0.0585
 1121PNCE   C5B10104  13.727   8.782   6.053 -0.0036  0.2659  0.0135
 1121PNCE   C6B10105  14.031   9.056   5.927  0.3111 -0.2375  0.0234
 1122CHOL   ROH10106  11.049   9.461   6.325  0.1570 -0.1658  0.0380
 1122CHOL    R110107  10.997   9.239   6.492 -0.0546 -0.1744 -0.0364
 1122CHOL    R210108  10.980   9.261   6.767  0.2402 -0.2900 -0.0076
 1122CHOL    R310109  10.739   9.142   6.730 -0.0025  0.1262  0.1508
 1122CHOL    R410110  10.831   9.045   6.991  0.1824 -0.3018 -0.0569
 1122CHOL    R510111  10.767   8.922   6.822 -0.2220 -0.0263 -0.1224
 1122CHOL    C110112  10.517   8.806   7.087 -0.0791  0.0820  0.0632
 1122CHOL    C210113  10.225   8.655   7.233  0.0069 -0.1558 -0.0714
 1123CHOL   ROH10114  14.122   1.701   7.183 -0.1731  0.2060 -0.1648
 1123CHOL    R110115  14.360   1.724   7.031 -0.0552 -0.0811 -0.0307
 1123CHOL    R210116  14.391   1.912   6.832  0.1828 -0.3023 -0.2051
 1123CHOL    R310117  14.613   1.979   6.974  0.1259 -0.2779 -0.1259
 1123CHOL    R410118  14.647   2.112   6.714  0.1611 -0.2051 -0.0899
 1123CHOL    R510119  14.790   1.979   6.811  0.1712 -0.1931 -0.0811
 1123CHOL    C110120  15.005   2.292   6.778  0.0951 -0.1256  0.0515
 1123CHOL    C210121  15.171   2.504   6.465  0.1123 -0.0760 -0.0166
 1124XCA    COO10122   9.787   9.094   8.236 -0.0382  0.0082 -0.3261
 1124XCA     C110123   9.766   9.250   7.840 -0.3910  0.3456 -0.0532
 1124XCA     C210124   9.714   9.542   7.418  0.0512  0.3421  0.0805
 1124XCA     C310125   9.254   9.708   7.321 -0.1598 -0.0970  0.2218
 1124XCA     C410126   8.913   9.907   7.257 -0.1847  0.4350 -0.3568
 1124XCA     C510127   8.633   9.873   6.928 -0.0637 -0.4115  0.1164
 1124XCA     C610128   8.257   9.618   6.848 -0.1356 -0.2068  0.3812
 1125CHOL   ROH10129   7.774  11.273   8.610  0.0029 -0.0741 -0.0096
 1125CHOL    R110130   7.778  11.402   8.358  0.0715 -0.0077  0.0258
 1125CHOL    R210131   7.903  11.293   8.137 -0.0273 -0.0364 -0.0139
 1125CHOL    R310132   7.660  11.330   8.021 -0.0125  0.1700  0.0153
 1125CHOL    R410133   7.853  11.400   7.812  0.0328 -0.1364 -0.0570
 1125CHOL    R510134   7.688  11.524   7.884  0.1746  0.0784 -0.0829
 1125CHOL    C110135   7.596  11.497   7.515  0.0818 -0.0008 -0.0546
 1125CHOL    C210136   7.369  11.360   7.216 -0.1657  0.0179  0.1653
 1126PNCE   AM110137  11.066   7.892   4.527 -0.1241 -0.1601  0.1460
 1126PNCE   AM210138  10.724   7.893   4.548 -0.0193 -0.0899 -0.0263
 1126PNCE   T1A10139  11.343   7.935   4.945 -0.0916  0.0373 -0.1141
 1126PNCE   C2A10140  11.142   7.768   5.336  0.3598 -0.1815 -0.1953
 1126PNCE   C3A10141  10.836   7.594   5.632 -0.0079  0.2321  0.0576
 1126PNCE   C1B10142  10.717   7.915   4.989  0.3401 -0.1755 -0.1483
 1126PNCE   C2B10143  10.599   7.998   5.459  0.1477  0.3980  0.0723
 1126PNCE   C3B10144  10.521   8.362   5.721 -0.2568  0.1440  0.3727
 1126PNCE   D4B10145  10.838   8.638   5.982 -0.0967 -0.0680  0.0824
 1126PNCE   C5B10146  11.156   8.423   6.161 -0.1208 -0.1677 -0.0215
 1126PNCE   C6B10147  11.462   8.373   6.444 -0.1517  0.1236  0.1454
 1127CHOL   ROH10148  15.822   0.212   5.709  0.3002 -0.2280 -0.0159
 1127CHOL    R110149  15.753   0.331   5.957  0.3516 -0.1840 -0.0223
 1127CHOL    R210150  15.537   0.247   6.107  0.0918  0.1529 -0.1921
 1127CHOL    R310151  15.724   0.223   6.303 -0.0729 -0.2545 -0.0751
 1127CHOL    R410152  15.471   0.270   6.446 -0.0486  0.4787 -0.2382
 1127CHOL    R510153  15.657   0.383   6.469  0.2481  0.0068 -0.1878
 1127CHOL    C110154  15.608   0.261   6.827 -0.2850  0.2860 -0.1552
 1127CHOL    C210155  15.307   0.062   7.064  0.2186 -0.0871 -0.1605
 1128PNCE   AM110156   5.016   3.906   4.068  0.1273  0.0505 -0.1780
 1128PNCE   AM210157   4.701   3.954   4.311  0.1032 -0.1348  0.0154
 1128PNCE   T1A10158   5.039   4.317   4.109  0.2567  0.1788  0.1891
 1128PNCE   C2A10159   5.000   4.663   4.337  0.1101  0.2568 -0.0569
 1128PNCE   C3A10160   4.863   5.058   4.546 -0.0727 -0.0495  0.1234
 1128PNCE   C1B10161   5.062   4.126   4.605 -0.1991  0.0189 -0.0539
 1128PNCE   C2B10162   5.131   4.385   5.146 -0.1276 -0.3249 -0.0880
 1128PNCE   C3B10163   4.988   4.506   5.519 -0.2121 -0.0639  0.1765
 1128PNCE   D4B10164   5.028   4.553   5.916 -0.1530  0.3683  0.0902
 1128PNCE   C5B10165   4.872   4.726   6.239  0.2934  0.0438  0.0194
 1128PNCE   C6B10166   4.546   5.026   6.370  0.1553  0.2068 -0.0015
 1129CHOL   ROH10167  14.085  12.687   5.707 -0.1914  0.2174  0.0347
 1129CHOL    R110168  14.307  12.737   5.875  0.0014 -0.1231 -0.1114
 1129CHOL    R210169  14.288  12.890   6.105  0.4555  0.2043 -0.2879
 1129CHOL    R310170  14.396  12.669   6.221 -0.0347  0.0679 -0.0609
 1129CHOL    R410171  14.440  12.884   6.415  0.5405  0.2319 -0.3274
 1129CHOL    R510172  14.591  12.751   6.334  0.2102 -0.2459 -0.2263
 1129CHOL    C110173  14.630  12.674   6.705  0.1300  0.1201 -0.1372
 1129CHOL    C210174  14.772  12.671   7.106  0.3033 -0.1449 -0.0449
 1130PNCE   AM110175   0.444   7.630   4.397  0.1434  0.0361 -0.1422
 1130PNCE   AM210176   0.690   7.374   4.465  0.1477 -0.3448 -0.3085
 1130PNCE   T1A10177   0.396   7.785   4.836  0.1179  0.2420 -0.0577
 1130PNCE   C2A10178   0.564   7.764   5.213 -0.0345 -0.0173 -0.1367
 1130PNCE   C3A10179   0.648   8.097   5.473 -0.2605 -0.1724 -0.1444
 1130PNCE   C1B10180   0.828   7.321   4.888 -0.0546  0.2340 -0.3208
 1130PNCE   C2B10181   0.961   7.365   5.353 -0.1092  0.0907  0.2656
 1130PNCE   C3B10182   0.899   7.359   5.837 -0.2600 -0.1353 -0.1671
 1130PNCE   D4B10183   0.514   7.508   6.033 -0.0602 -0.1596 -0.1057
 1130PNCE   C5B10184   0.183   7.734   5.656  0.1321  0.2605 -0.2179
 1130PNCE   C6B10185   0.087   8.109   5.444 -0.0667  0.3042  0.1989
 1131PNCE   AM110186   0.316   2.719   4.794  0.0730 -0.0466  0.0412
 1131PNCE   AM210187   0.247   2.482   4.739 -0.0647  0.2791 -0.0596
 1131PNCE   T1A10188   0.286   2.716   5.280  0.3523 -0.2085 -0.1559
 1131PNCE   C2A10189   0.602   2.776   5.522 -0.2395  0.3728  0.1732
 1131PNCE   C3A10190   0.999   2.728   5.527  0.0557 -0.1277  0.0959
 1131PNCE   C1B10191  -0.002   2.349   4.992 -0.0128 -0.0011 -0.3924
 1131PNCE   C2B10192  -0.082   2.179   5.383  0.0398  0.2349  0.1734
 1131PNCE   C3B10193  -0.134   2.085   5.791  0.1661  0.0112  0.0112
 1131PNCE   D4B10194  -0.410   2.049   5.982  0.0249 -0.1571  0.2866
 1131PNCE   C5B10195  -0.721   2.372   5.951 -0.1011 -0.0719 -0.1115
 1131PNCE   C6B10196  -1.122   2.442   5.920  0.1215  0.1123 -0.0367
 1132PNCE   AM110197  15.452  12.114   5.345 -0.4944 -0.0659 -0.0935
 1132PNCE   AM210198  15.144  12.020   5.415  0.1154 -0.2332 -0.1910
 1132PNCE   T1A10199  15.770  12.118   5.568  0.1425  0.2054 -0.3396
 1132PNCE   C2A10200  16.173  11.817   5.551  0.0707 -0.1975 -0.1007
 1132PNCE   C3A10201  16.340  11.512   5.304 -0.1321 -0.1760 -0.2315
 1132PNCE   C1B10202  15.325  12.277   5.818  0.0175  0.1405 -0.0769
 1132PNCE   C2B10203  15.335  12.341   6.243 -0.0658  0.1204  0.1889
 1132PNCE   C3B10204  15.571  12.058   6.606  0.1493  0.2561 -0.1194
 1132PNCE   D4B10205  15.833  11.857   6.872 -0.4284 -0.2312  0.2431
 1132PNCE   C5B10206  15.869  11.793   7.268  0.1764  0.1888 -0.0026
 1132PNCE   C6B10207  15.751  11.491   7.580  0.1124  0.4691  0.2024
 1133PNCE   AM110208  10.262   1.936   5.757  0.1203  0.0695  0.1489
 1133PNCE   AM210209  10.159   1.663   5.881 -0.0266  0.1533  0.1556
 1133PNCE   T1A10210   9.820   1.985   5.668  0.0631 -0.0333 -0.2290
 1133PNCE   C2A10211   9.430   1.819   5.833  0.2648  0.1941  0.5071
 1133PNCE   C3A10212   9.123   1.535   5.999  0.0373  0.0566  0.1292
 1133PNCE   C1B10213   9.778   1.920   6.155  0.2436 -0.1846  0.1647
 1133PNCE   C2B10214   9.379   1.744   6.330 -0.1504  0.0539 -0.1338
 1133PNCE   C3B10215   9.045   1.507   6.489  0.0515 -0.3135  0.1840
 1133PNCE   D4B10216   8.960   1.313   6.935  0.1539 -0.4496 -0.0081
 1133PNCE   C5B10217   9.243   0.934   7.074 -0.0733 -0.0845 -0.0812
 1133PNCE   C6B10218   9.573   0.568   7.067  0.2087  0.2619  0.0412
 1134PNCE   AM110219   4.157   9.182   4.338 -0.1461  0.1662  0.0671
 1134PNCE   AM210220   3.868   9.221   4.312 -0.2237  0.1367  0.4226
 1134PNCE   T1A10221   4.369   9.084   4.673 -0.1748  0.2630 -0.1663
 1134PNCE   C2A10222   4.537   9.024   5.124 -0.1674  0.0138  0.2909
 1134PNCE   C3A10223   4.490   9.267   5.511 -0.2991  0.0144 -0.1185
 1134PNCE   C1B10224   3.706   9.144   4.780 -0.0745 -0.2946 -0.2242
 1134PNCE   C2B10225   3.632   9.412   5.176 -0.2953  0.0909 -0.4438
 1134PNCE   C3B10226   3.510   9.621   5.419  0.0772 -0.0430  0.1404
 1134PNCE   D4B10227   3.500   9.819   5.795 -0.0515  0.0588 -0.2824
 1134PNCE   C5B10228   3.148  10.084   5.750  0.2281 -0.4148 -0.1373
 1134PNCE   C6B10229   2.923  10.494   5.702  0.0148 -0.0221 -0.1259
 1135CHOL   ROH10230   7.260   9.068   6.225 -0.1971  0.0318  0.0411
 1135CHOL    R110231   7.267   9.274   6.420 -0.1376  0.0872 -0.0187
 1135CHOL    R210232   7.464   9.467   6.424 -0.1075  0.0601 -0.1036
 1135CHOL    R310233   7.252   9.638   6.421 -0.0830  0.0900 -0.1216
 1135CHOL    R410234   7.471   9.794   6.538 -0.1072  0.0168  0.0215
 1135CHOL    R510235   7.273   9.763   6.624 -0.1444  0.0110 -0.0665
 1135CHOL    C110236   7.275  10.143   6.601 -0.0840  0.0198  0.0776
 1135CHOL    C210237   7.413  10.394   6.311  0.2392  0.1736  0.0952
 1136PNCE   AM110238   2.034  11.244   3.956 -0.0931 -0.0231 -0.0634
 1136PNCE   AM210239   2.142  10.918   3.831  0.3404 -0.0781  0.0127
 1136PNCE   T1A10240   1.615  11.088   3.946 -0.0095  0.0697  0.2338
 1136PNCE   C2A10241   1.270  10.753   4.049  0.1355 -0.0899  0.3288
 1136PNCE   C3A10242   0.843  10.743   4.243 -0.1452 -0.2545  0.3732
 1136PNCE   C1B10243   2.114  10.727   4.220  0.1102  0.1625  0.1165
 1136PNCE   C2B10244   2.035  10.605   4.628 -0.0305 -0.0377  0.0302
 1136PNCE   C3B10245   1.715  10.332   4.920 -0.0210 -0.1487  0.2740
 1136PNCE   D4B10246   1.499   9.949   5.197 -0.1279 -0.1876  0.2020
 1136PNCE   C5B10247   1.100   9.784   5.244 -0.2863 -0.0272  0.1202
 1136PNCE   C6B10248   0.850   9.513   5.106  0.5078 -0.3055  0.0370
 1137CHOL   ROH10249   4.741   9.401   6.445 -0.3419 -0.0199 -0.1252
 1137CHOL    R110250   4.732   9.153   6.308 -0.1499 -0.0614 -0.0641
 1137CHOL    R210251   4.955   8.993   6.278 -0.0796 -0.0110  0.1890
 1137CHOL    R310252   4.794   8.804   6.390 -0.1344 -0.0240  0.0911
 1137CHOL    R410253   5.012   8.652   6.266 -0.0361 -0.0053  0.2253
 1137CHOL    R510254   4.798   8.622   6.234 -0.0180 -0.0254  0.0908
 1137CHOL    C110255   4.894   8.277   6.364 -0.0622 -0.0143  0.1545
 1137CHOL    C210256   4.974   7.856   6.355  0.2942 -0.0266  0.2502
 1138PNCE   AM110257   5.789   8.678   4.384  0.3213  0.0931 -0.2232
 1138PNCE   AM210258   6.047   8.471   4.205 -0.1500 -0.1849 -0.0692
 1138PNCE   T1A10259   5.881   8.279   4.619 -0.0520 -0.0367 -0.0180
 1138PNCE   C2A10260   6.168   7.979   4.796 -0.2641  0.3957 -0.0559
 1138PNCE   C3A10261   6.576   8.004   4.909  0.0358 -0.0769  0.1666
 1138PNCE   C1B10262   6.409   8.353   4.538  0.1763  0.2035  0.0782
 1138PNCE   C2B10263   6.775   8.451   4.775 -0.1768  0.0360  0.2477
 1138PNCE   C3B10264   6.881   8.384   5.192  0.0814 -0.1423  0.0206
 1138PNCE   D4B10265   7.138   8.694   5.450 -0.1130 -0.0746 -0.3214
 1138PNCE   C5B10266   7.438   8.489   5.733  0.2909 -0.0966  0.1494
 1138PNCE   C6B10267   7.420   8.210   6.063 -0.2150  0.2994 -0.1009
 1139PNCE   AM110268   6.052  10.190   8.631 -0.0875 -0.2425 -0.1867
 1139PNCE   AM210269   5.736  10.045   8.546 -0.4765 -0.2981  0.2358
 1139PNCE   T1A10270   6.220  10.488   8.418  0.2099 -0.0164 -0.3325
 1139PNCE   C2A10271   6.434  10.630   8.083 -0.2756  0.0802 -0.1376
 1139PNCE   C3A10272   6.574  10.856   7.720 -0.1098 -0.0499  0.0462
 1139PNCE   C1B10273   5.939  10.107   8.093  0.1883  0.1070 -0.3149
 1139PNCE   C2B10274   5.984  10.197   7.672 -0.2656 -0.2575  0.0969
 1139PNCE   C3B10275   6.267  10.135   7.428  0.0305  0.0086 -0.2335
 1139PNCE   D4B10276   6.488   9.980   7.164  0.2599 -0.0463  0.1612
 1139PNCE   C5B10277   6.692  10.320   6.942  0.3292  0.2205 -0.0325
 1139PNCE   C6B10278   6.521  10.681   6.666  0.0852  0.1080  0.0603
 1140XCA    COO10279   4.080   7.174   4.777 -0.1455  0.0128  0.1604
 1140XCA     C110280   3.728   6.981   4.949  0.0897 -0.1264 -0.0248
 1140XCA     C210281   3.475   7.191   5.203  0.0800 -0.0689 -0.1345
 1140XCA     C310282   3.571   7.581   5.378  0.3926 -0.1118  0.2314
 1140XCA     C410283   3.505   7.918   5.544 -0.0842 -0.0191  0.4772
 1140XCA     C510284   3.166   8.025   5.649  0.0360 -0.0835 -0.1745
 1140XCA     C610285   2.886   7.868   5.717  0.3030  0.1611  0.3431
 1141CHOL   ROH10286  10.646  10.485   7.745 -0.3673  0.0707 -0.1735
 1141CHOL    R110287  10.668  10.475   7.463 -0.0957  0.0434 -0.1537
 1141CHOL    R210288  10.616  10.693   7.302 -0.2483 -0.0565 -0.2383
 1141CHOL    R310289  10.866  10.641   7.207 -0.0839  0.2645 -0.0057
 1141CHOL    R410290  10.769  10.863   7.042 -0.3416 -0.0332 -0.2786
 1141CHOL    R510291  10.847  10.673   6.970  0.0294  0.0207 -0.0533
 1141CHOL    C110292  11.091  10.913   6.802 -0.2415  0.2818 -0.0837
 1141CHOL    C210293  11.432  11.092   6.769  0.0585 -0.4359  0.1338
 1142PNCE   AM110294   0.718   3.859   4.192 -0.0383 -0.0400  0.0327
 1142PNCE   AM210295   0.434   3.638   4.062  0.0761 -0.0432  0.0117
 1142PNCE   T1A10296   0.807   4.140   4.403  0.2090 -0.2519  0.2194
 1142PNCE   C2A10297   0.875   4.595   4.563 -0.4711  0.0342  0.0348
 1142PNCE   C3A10298   0.659   5.012   4.587  0.1248  0.0193  0.1279
 1142PNCE   C1B10299   0.322   3.379   4.371  0.0741 -0.2644 -0.1140
 1142PNCE   C2B10300   0.077   3.337   4.767 -0.2574 -0.0368 -0.0825
 1142PNCE   C3B10301   0.067   3.170   5.079 -0.3613  0.0068  0.0009
 1142PNCE   D4B10302   0.115   3.188   5.555  0.2459 -0.0536 -0.0453
 1142PNCE   C5B10303  -0.074   3.560   5.632 -0.1784 -0.0374 -0.0860
 1142PNCE   C6B10304  -0.453   3.759   5.735  0.2294 -0.0237  0.0898
 1143PNCE   AM110305   7.721   1.126   5.222  0.1812 -0.1525 -0.0290
 1143PNCE   AM210306   7.418   1.063   5.400  0.2905  0.1768  0.2902
 1143PNCE   T1A10307   7.795   0.923   5.659  0.0221 -0.1680  0.1206
 1143PNCE   C2A10308   7.711   0.916   6.124  0.0928  0.1143 -0.0896
 1143PNCE   C3A10309   7.546   0.599   6.477 -0.3023 -0.2075  0.0312
 1143PNCE   C1B10310   7.345   1.096   5.813  0.0808 -0.2610  0.0039
 1143PNCE   C2B10311   7.278   1.035   6.275 -0.2322  0.1871 -0.3622
 1143PNCE   C3B10312   7.247   1.040   6.567  0.0923 -0.1357  0.1062
 1143PNCE   D4B10313   7.012   0.833   6.787  0.0052 -0.0430  0.1835
 1143PNCE   C5B10314   6.706   0.892   6.746  0.0344 -0.1828 -0.0392
 1143PNCE   C6B10315   6.449   0.965   7.122  0.0490 -0.4494  0.2228
 1144CHOL   ROH10316   5.419   6.482   5.141 -0.0012 -0.0656 -0.0400
 1144CHOL    R110317   5.552   6.402   5.378 -0.0326 -0.0776 -0.0272
 1144CHOL    R210318   5.425   6.389   5.623 -0.0273  0.0539 -0.0198
 1144CHOL    R310319   5.520   6.134   5.621 -0.1640  0.0006  0.0440
 1144CHOL    R410320   5.484   6.198   5.905  0.1423  0.2005  0.0460
 1144CHOL    R510321   5.666   6.124   5.811  0.0161  0.0448 -0.0872
 1144CHOL    C110322   5.608   5.849   6.068  0.1127  0.2359  0.1442
 1144CHOL    C210323   5.579   5.534   6.097 -0.1062  0.2536 -0.2242
 1145CHOL   ROH10324   3.108   3.339   4.912 -0.1375  0.0100 -0.1453
 1145CHOL    R110325   2.924   3.487   5.067 -0.0666 -0.1037  0.0498
 1145CHOL    R210326   2.937   3.500   5.343  0.2636 -0.0377  0.0291
 1145CHOL    R310327   2.939   3.768   5.298 -0.0062 -0.0415 -0.0262
 1145CHOL    R410328   2.824   3.738   5.566  0.3872 -0.0945  0.1549
 1145CHOL    R510329   2.736   3.846   5.399  0.0632 -0.1876  0.2487
 1145CHOL    C110330   2.759   4.128   5.655  0.2059 -0.1311  0.1762
 1145CHOL    C210331   2.718   4.419   5.935 -0.0992 -0.1298 -0.1614
 1146PNCE   AM110332   8.662   7.187   4.333 -0.1958  0.1270  0.1868
 1146PNCE   AM210333   8.538   7.343   4.113 -0.3648 -0.0499  0.0361
 1146PNCE   T1A10334   8.550   7.252   4.741 -0.2980 -0.0424 -0.1952
 1146PNCE   C2A10335   8.472   7.381   5.186  0.2434 -0.5519 -0.0557
 1146PNCE   C3A10336   8.391   7.373   5.580 -0.1260  0.0931  0.1666
 1146PNCE   C1B10337   8.537   7.671   4.278  0.1534  0.1587  0.2691
 1146PNCE   C2B10338   8.631   7.766   4.754  0.0051  0.1311  0.1766
 1146PNCE   C3B10339   8.330   7.830   5.037  0.0622 -0.1393  0.1765
 1146PNCE   D4B10340   8.251   7.899   5.513  0.3309  0.1753  0.1386
 1146PNCE   C5B10341   8.407   8.189   5.703  0.3790 -0.1094  0.0155
 1146PNCE   C6B10342   8.343   8.508   5.918  0.1046 -0.0001 -0.0739
 1147CHOL   ROH10343  12.024   3.876   8.018 -0.2282 -0.3031 -0.0875
 1147CHOL    R110344  11.855   3.755   7.826 -0.1328 -0.2267 -0.2220
 1147CHOL    R210345  11.709   3.902   7.643 -0.0891 -0.1491 -0.2010
 1147CHOL    R310346  11.835   3.742   7.463  0.0136 -0.0263 -0.2376
 1147CHOL    R410347  11.631   3.883   7.307 -0.0128 -0.0615 -0.2233
 1147CHOL    R510348  11.661   3.668   7.317  0.0782 -0.0488 -0.2992
 1147CHOL    C110349  11.704   3.723   6.942  0.1279  0.1047 -0.2707
 1147CHOL    C210350  11.834   3.523   6.600 -0.1090  0.0363  0.2204
 1148CHOL   ROH10351   4.652   4.977   8.071  0.0064  0.1535  0.0581
 1148CHOL    R110352   4.553   4.979   7.806 -0.0080  0.0904  0.0630
 1148CHOL    R210353   4.718   4.992   7.585 -0.0220  0.0849  0.0523
 1148CHOL    R310354   4.583   4.768   7.511  0.0164  0.0466  0.0965
 1148CHOL    R410355   4.664   4.894   7.258  0.1008 -0.0548  0.0729
 1148CHOL    R510356   4.462   4.835   7.315  0.0833 -0.0414  0.0247
 1148CHOL    C110357   4.505   4.626   6.998  0.2084 -0.1721  0.1264
 1148CHOL    C210358   4.841   4.904   6.831  0.3400  0.0276 -0.0724
 1149XCA    COO10359  15.482   6.935   4.135 -0.0637 -0.0629  0.0386
 1149XCA     C110360  15.322   6.988   4.553  0.0421 -0.0430 -0.0698
 1149XCA     C210361  15.271   6.917   4.893 -0.4945 -0.1760  0.0175
 1149XCA     C310362  15.080   7.001   5.289 -0.2604  0.1760  0.1945
 1149XCA     C410363  15.129   7.143   5.624 -0.0643 -0.0412  0.0458
 1149XCA     C510364  15.184   7.023   6.021 -0.1977 -0.3233  0.2346
 1149XCA     C610365  15.216   6.994   6.515  0.3081  0.1579  0.1114
 1150PNCE   AM110366   8.736  12.500   4.884 -0.3007 -0.2483 -0.0836
 1150PNCE   AM210367   8.727  12.252   5.030  0.0402 -0.0055 -0.2789
 1150PNCE   T1A10368   9.190  12.553   5.172 -0.2695  0.2516  0.3146
 1150PNCE   C2A10369   9.502  12.360   5.411  0.1245  0.0853  0.2303
 1150PNCE   C3A10370   9.776  12.032   5.372 -0.2372 -0.5300 -0.0346
 1150PNCE   C1B10371   8.893  12.189   5.482  0.1311 -0.0020 -0.1136
 1150PNCE   C2B10372   9.086  12.210   5.783  0.3977 -0.2108  0.2737
 1150PNCE   C3B10373   9.272  12.216   6.163 -0.2276 -0.1843  0.4638
 1150PNCE   D4B10374   9.551  12.018   6.419 -0.2983  0.2502  0.3312
 1150PNCE   C5B10375   9.326  11.741   6.686 -0.0152  0.0888 -0.0390
 1150PNCE   C6B10376   8.979  11.538   6.818 -0.2869  0.1818  0.3503
 1151XCA    COO10377  14.934   8.541   7.593  0.0204  0.1002  0.1684
 1151XCA     C110378  14.548   8.450   7.482  0.1485 -0.2170  0.0006
 1151XCA     C210379  14.222   8.190   7.312 -0.1421 -0.3902 -0.3650
 1151XCA     C310380  13.974   8.190   6.991  0.2415  0.1029  0.0613
 1151XCA     C410381  13.649   8.335   6.664 -0.1924  0.0549 -0.0841
 1151XCA     C510382  13.640   8.266   6.224  0.0564 -0.0409 -0.3421
 1151XCA     C610383  13.719   7.909   5.977  0.0500 -0.0858 -0.0253
 1152CHOL   ROH10384   3.678   5.882   7.966  0.1513 -0.2433 -0.0923
 1152CHOL    R110385   3.576   5.894   7.702  0.0988 -0.1879 -0.0702
 1152CHOL    R210386   3.731   5.969   7.486  0.0350 -0.0623 -0.0754
 1152CHOL    R310387   3.646   5.731   7.384  0.0960 -0.0570 -0.1379
 1152CHOL    R410388   3.789   5.862   7.162  0.2235 -0.0459 -0.0478
 1152CHOL    R510389   3.585   5.783   7.158  0.2273 -0.0468 -0.1707
 1152CHOL    C110390   3.743   5.577   6.878  0.3905 -0.0314 -0.0905
 1152CHOL    C210391   3.911   5.391   6.607  0.4344  0.0012  0.1786
 1153PNCE   AM110392   6.676  11.588   5.183  0.0439  0.1195 -0.1425
 1153PNCE   AM210393   6.444  11.402   5.117  0.0764 -0.0318 -0.0258
 1153PNCE   T1A10394   6.688  11.494   5.641  0.0476 -0.1472  0.1570
 1153PNCE   C2A10395   6.920  11.374   6.018 -0.1076  0.0884  0.5362
 1153PNCE   C3A10396   7.321  11.670   6.065  0.2222 -0.0374 -0.1484
 1153PNCE   C1B10397   6.213  11.464   5.507 -0.2150  0.2374  0.1996
 1153PNCE   C2B10398   6.210  11.642   5.813  0.1417  0.1390  0.0764
 1153PNCE   C3B10399   6.055  11.756   6.228  0.0865 -0.1642  0.1827
 1153PNCE   D4B10400   5.937  11.766   6.696 -0.2622 -0.2382  0.0010
 1153PNCE   C5B10401   5.984  12.147   6.741 -0.1396  0.0371 -0.4361
 1153PNCE   C6B10402   6.163  12.452   6.478  0.0162  0.0543  0.0126
 1154XCA    COO10403  12.664   2.981   5.096  0.0442  0.1769 -0.1628
 1154XCA     C110404  12.584   2.908   5.534 -0.2981 -0.2014 -0.1684
 1154XCA     C210405  12.425   2.936   5.996 -0.1053  0.1334  0.1827
 1154XCA     C310406  12.422   2.618   6.364 -0.3104 -0.2416  0.2096
 1154XCA     C410407  12.269   2.423   6.759 -0.0067 -0.2144 -0.1437
 1154XCA     C510408  12.274   2.287   7.193 -0.1314 -0.0568 -0.1145
 1154XCA     C610409  12.131   2.387   7.620 -0.1638 -0.0648 -0.1140
 1155CHOL   ROH10410   8.683  13.755   5.254  0.0937  0.1185  0.2673
 1155CHOL    R110411   8.714  13.478   5.302 -0.1991  0.0891  0.3039
 1155CHOL    R210412   8.961  13.359   5.334 -0.3048 -0.2142  0.0477
 1155CHOL    R310413   8.852  13.269   5.566 -0.1529 -0.0118  0.2005
 1155CHOL    R410414   9.045  13.061   5.489 -0.4546 -0.2489  0.0627
 1155CHOL    R510415   8.834  13.032   5.535 -0.4408 -0.0066  0.3033
 1155CHOL    C110416   8.991  12.804   5.797 -0.3991 -0.0791  0.2148
 1155CHOL    C210417   8.954  12.624   6.036  0.1649  0.0393 -0.1994
 1156CHOL   ROH10418   9.592   1.231   5.241 -0.2312 -0.1538  0.0674
 1156CHOL    R110419   9.645   1.233   5.519 -0.0879 -0.1182  0.0430
 1156CHOL    R210420   9.544   1.427   5.689  0.1226  0.0024  0.0565
 1156CHOL    R310421   9.451   1.212   5.826  0.0454  0.0917  0.1398
 1156CHOL    R410422   9.568   1.386   6.031  0.4021 -0.0505  0.0309
 1156CHOL    R510423   9.614   1.176   5.998  0.1616 -0.0823 -0.0192
 1156CHOL    C110424   9.495   1.161   6.360  0.4925  0.0025  0.0941
 1156CHOL    C210425   9.436   1.297   6.688 -0.1601 -0.4961 -0.0717
 1157CHOL   ROH10426   2.267   5.221   4.305  0.1171  0.1637  0.0592
 1157CHOL    R110427   2.348   5.144   4.566  0.0059  0.2717  0.1266
 1157CHOL    R210428   2.219   5.233   4.794 -0.2354  0.1883  0.0266
 1157CHOL    R310429   2.199   4.967   4.847 -0.0325  0.1753  0.0457
 1157CHOL    R410430   2.196   5.095   5.110  0.0915  0.1732  0.0469
 1157CHOL    R510431   2.329   4.936   5.045  0.1398  0.2543 -0.0534
 1157CHOL    C110432   2.164   4.766   5.344  0.4724  0.1520  0.0768
 1157CHOL    C210433   2.191   4.779   5.758  0.4080 -0.0176  0.1065
 1158PNCE   AM110434   8.710  14.228   5.268 -0.0256  0.1231 -0.2795
 1158PNCE   AM210435   8.473  14.201   5.389  0.0922  0.1422  0.1926
 1158PNCE   T1A10436   8.783  14.064   5.737 -0.0584 -0.0723 -0.0220
 1158PNCE   C2A10437   8.665  13.981   6.129  0.0973 -0.0500 -0.0851
 1158PNCE   C3A10438   8.584  13.683   6.395 -0.0940 -0.0672  0.2671
 1158PNCE   C1B10439   8.284  14.091   5.807  0.0297  0.1520 -0.0723
 1158PNCE   C2B10440   8.052  13.877   6.129 -0.3161 -0.1254  0.0304
 1158PNCE   C3B10441   7.880  13.508   6.359  0.2755  0.1301 -0.1977
 1158PNCE   D4B10442   7.642  13.369   6.657  0.3245  0.4809 -0.2398
 1158PNCE   C5B10443   7.591  13.706   6.893  0.1382 -0.2380  0.0768
 1158PNCE   C6B10444   7.460  13.598   7.262  0.1740  0.3746 -0.1762
 1159CHOL   ROH10445  13.279  10.535   8.569  0.1488  0.0894 -0.1528
 1159CHOL    R110446  13.369  10.501   8.303  0.1524 -0.0270 -0.1376
 1159CHOL    R210447  13.348  10.260   8.169 -0.0645 -0.0258 -0.1160
 1159CHOL    R310448  13.220  10.412   7.983  0.1060  0.0833 -0.1457
 1159CHOL    R410449  13.280  10.161   7.844 -0.3256 -0.0757 -0.0487
 1159CHOL    R510450  13.332  10.362   7.778 -0.0389 -0.1856 -0.1604
 1159CHOL    C110451  13.121  10.247   7.482 -0.3176 -0.0023 -0.0372
 1159CHOL    C210452  13.164  10.151   7.211 -0.1250  0.1719  0.5704
 1160XCA    COO10453  15.804  10.985   4.674  0.0372  0.2151 -0.1218
 1160XCA     C110454  15.620  11.000   5.121 -0.1210  0.0572 -0.3166
 1160XCA     C210455  15.698  10.799   5.570  0.0504 -0.0683 -0.2052
 1160XCA     C310456  15.950  10.621   5.792 -0.5070  0.2191  0.0903
 1160XCA     C410457  16.260  10.605   5.928  0.2135  0.0668 -0.1652
 1160XCA     C510458  16.676  10.579   5.720  0.2274 -0.1220  0.0388
 1160XCA     C610459  16.968  10.696   5.497 -0.1975 -0.1669  0.4746
 1161CHOL   ROH10460   9.043  13.678   8.567 -0.1457 -0.0725  0.0896
 1161CHOL    R110461   9.047  13.530   8.326 -0.2497 -0.1550  0.1366
 1161CHOL    R210462   8.830  13.385   8.236 -0.3861  0.0357  0.1395
 1161CHOL    R310463   8.865  13.533   8.011 -0.1890 -0.0653  0.1027
 1161CHOL    R410464   8.745  13.282   7.918 -0.1417 -0.0846  0.1118
 1161CHOL    R510465   8.929  13.373   7.845 -0.0750 -0.1396  0.2203
 1161CHOL    C110466   8.728  13.360   7.520  0.1857 -0.2496  0.0612
 1161CHOL    C210467   8.868  13.270   7.212 -0.2296 -0.2561  0.0228
 1162CHOL   ROH10468   8.210   8.419   6.552 -0.1348  0.0382 -0.3029
 1162CHOL    R110469   8.465   8.374   6.437 -0.0579  0.0452 -0.1390
 1162CHOL    R210470   8.573   8.122   6.409 -0.0374  0.0418 -0.0853
 1162CHOL    R310471   8.598   8.196   6.149  0.1269  0.0631 -0.0638
 1162CHOL    R410472   8.718   7.929   6.162 -0.2989 -0.1270 -0.1112
 1162CHOL    R510473   8.811   8.110   6.083  0.0009 -0.2573 -0.0513
 1162CHOL    C110474   8.827   7.887   5.774 -0.2971 -0.2053 -0.1060
 1162CHOL    C210475   8.763   7.537   5.835  0.1184  0.1088 -0.0818
 1163CHOL   ROH10476  14.256   6.226   7.499 -0.0679 -0.1165  0.1069
 1163CHOL    R110477  14.175   6.193   7.229 -0.1713 -0.0461  0.1278
 1163CHOL    R210478  14.346   6.098   7.034 -0.1633  0.2531 -0.0205
 1163CHOL    R310479  14.147   5.917   6.994  0.0120  0.0570 -0.0165
 1163CHOL    R410480  14.292   5.925   6.739 -0.0019  0.1954 -0.0162
 1163CHOL    R510481  14.078   5.953   6.767 -0.0285 -0.0143 -0.0135
 1163CHOL    C110482  14.074   5.654   6.531  0.2567 -0.0223 -0.0099
 1163CHOL    C210483  14.153   5.241   6.467 -0.1126 -0.0168  0.1336
 1164CHOL   ROH10484  15.694   7.249   4.873 -0.0260 -0.1088  0.0140
 1164CHOL    R110485  15.672   7.377   5.125  0.2920 -0.0589  0.0197
 1164CHOL    R210486  15.566   7.251   5.347  0.1312  0.1376  0.0561
 1164CHOL    R310487  15.802   7.323   5.461  0.3099 -0.2914 -0.0224
 1164CHOL    R410488  15.631   7.245   5.686  0.1515  0.2390  0.0548
 1164CHOL    R510489  15.738   7.434   5.664  0.5660 -0.0015 -0.0920
 1164CHOL    C110490  15.890   7.309   5.991  0.3311 -0.1047 -0.0196
 1164CHOL    C210491  15.625   7.259   6.143 -0.1100  0.1728 -0.1502
 1165CHOL   ROH10492  13.879   9.149   8.707  0.0696 -0.1025 -0.0178
 1165CHOL    R110493  13.811   9.221   8.442  0.1356 -0.2244 -0.0694
 1165CHOL    R210494  13.599   9.107   8.306  0.0191 -0.1191  0.0152
 1165CHOL    R310495  13.522   9.366   8.273  0.2701 -0.0646 -0.1634
 1165CHOL    R410496  13.449   9.234   8.022  0.0214 -0.1947 -0.0196
 1165CHOL    R510497  13.571   9.413   8.044  0.2152 -0.3015 -0.2240
 1165CHOL    C110498  13.290   9.551   7.825  0.2584 -0.1876 -0.2077
 1165CHOL    C210499  13.153   9.784   7.514  0.0362 -0.3629  0.2669
 1166PNCE   AM110500   8.784   0.772   5.185  0.1276  0.1433  0.2045
 1166PNCE   AM210501   8.637   0.916   5.224  0.2655 -0.1776 -0.1228
 1166PNCE   T1A10502   8.878   0.420   5.377 -0.0439 -0.0436 -0.2652
 1166PNCE   C2A10503   8.906   0.251   5.790  0.1835 -0.2217 -0.1710
 1166PNCE   C3A10504   8.976   0.019   6.190 -0.1609 -0.1926  0.1988
 1166PNCE   C1B10505   8.338   0.884   5.646  0.0603 -0.0628 -0.2456
 1166PNCE   C2B10506   8.222   0.791   6.091 -0.1706 -0.0111 -0.1106
 1166PNCE   C3B10507   8.259   0.808   6.476 -0.3090  0.1198 -0.2990
 1166PNCE   D4B10508   8.037   0.697   6.925 -0.2870 -0.0671 -0.0598
 1166PNCE   C5B10509   7.697   0.331   6.935 -0.0395 -0.0842  0.1773
 1166PNCE   C6B10510   7.516  -0.053   7.028 -0.2658 -0.1336  0.2156
 1167XCA    COO10511   8.107  15.299   5.334  0.2245  0.1901 -0.0173
 1167XCA     C110512   8.081  15.014   5.665  0.4138 -0.1923  0.1634
 1167XCA     C210513   8.219  14.735   5.974  0.3188  0.0413 -0.0295
 1167XCA     C310514   8.364  14.373   6.176  0.2850  0.3461  0.1563
 1167XCA     C410515   8.355  14.092   6.526  0.1970  0.0817 -0.3850
 1167XCA     C510516   8.225  13.687   6.779 -0.0577  0.0965  0.1120
 1167XCA     C610517   8.031  13.239   6.881 -0.1221 -0.1173  0.2108
 1168PNCE   AM110518   9.052   6.721   4.282 -0.0055  0.0739 -0.1827
 1168PNCE   AM210519   9.347   6.618   4.156  0.0185 -0.3083 -0.0765
 1168PNCE   T1A10520   8.960   6.909   4.687 -0.0964 -0.0057  0.1854
 1168PNCE   C2A10521   8.743   6.937   5.109  0.0579 -0.3244  0.2556
 1168PNCE   C3A10522   8.553   6.908   5.481 -0.1035 -0.0196  0.0675
 1168PNCE   C1B10523   9.579   6.955   4.364 -0.1646  0.0200 -0.2161
 1168PNCE   C2B10524   9.615   7.020   4.851  0.4063 -0.3162  0.2165
 1168PNCE   C3B10525   9.481   7.093   5.228 -0.1005 -0.1260  0.1104
 1168PNCE   D4B10526   9.452   7.270   5.636 -0.2196 -0.2994  0.2816
 1168PNCE   C5B10527   9.166   7.670   5.556 -0.5460 -0.0690 -0.1098
 1168PNCE   C6B10528   8.772   7.748   5.311 -0.0832 -0.1398 -0.1203
 1169PNCE   AM110529   1.052   1.743   4.486 -0.0648  0.0198 -0.2470
 1169PNCE   AM210530   0.788   1.606   4.708  0.3062 -0.1532  0.0153
 1169PNCE   T1A10531   1.278   1.883   4.796  0.1132  0.0020 -0.0977
 1169PNCE   C2A10532   1.492   1.988   5.102 -0.1153  0.1811  0.1360
 1169PNCE   C3A10533   1.630   1.939   5.411 -0.0652  0.0104  0.1956
 1169PNCE   C1B10534   1.046   1.410   5.091  0.0768  0.1101 -0.0433
 1169PNCE   C2B10535   1.054   1.642   5.463 -0.3983  0.0175  0.4924
 1169PNCE   C3B10536   1.120   1.954   5.674 -0.1458  0.0537 -0.0103
 1169PNCE   D4B10537   1.102   2.054   6.140  0.2236  0.1099 -0.0181
 1169PNCE   C5B10538   0.798   2.025   6.325  0.0097  0.0562 -0.0786
 1169PNCE   C6B10539   0.500   2.061   6.543  0.1625  0.2321 -0.0233
 1170XCA    COO10540   3.695   7.992   4.162 -0.2003 -0.0741 -0.3323
 1170XCA     C110541   3.664   7.976   4.644  0.1403 -0.0651 -0.0358
 1170XCA     C210542   3.876   7.580   4.980 -0.0558 -0.2045 -0.2160
 1170XCA     C310543   4.127   7.503   5.246  0.1807 -0.0738  0.0175
 1170XCA     C410544   4.465   7.607   5.418 -0.2681  0.1126  0.2435
 1170XCA     C510545   4.653   7.375   5.678 -0.2135  0.0756 -0.0660
 1170XCA     C610546   4.882   7.098   5.946 -0.0958 -0.0716 -0.0788
 1171CHOL   ROH10547  15.652   6.424   4.545  0.0820 -0.0367 -0.0597
 1171CHOL    R110548  15.551   6.565   4.769 -0.0832 -0.1848 -0.0393
 1171CHOL    R210549  15.399   6.443   4.965  0.1402 -0.4157 -0.0048
 1171CHOL    R310550  15.587   6.547   5.131  0.0234 -0.1281 -0.0467
 1171CHOL    R410551  15.337   6.566   5.282  0.0244 -0.5187  0.0136
 1171CHOL    R510552  15.476   6.729   5.241 -0.2326 -0.2988 -0.0151
 1171CHOL    C110553  15.478   6.736   5.622 -0.1526 -0.3087 -0.0149
 1171CHOL    C210554  15.558   6.706   6.034  0.1450  0.1698  0.4667
 1172CHOL   ROH10555   3.644   2.211   7.570 -0.4914  0.1445  0.1092
 1172CHOL    R110556   3.654   2.037   7.347 -0.2981  0.1263  0.1302
 1172CHOL    R210557   3.489   1.816   7.323 -0.1710  0.0358  0.0767
 1172CHOL    R310558   3.425   1.930   7.084 -0.1237 -0.0220  0.0364
 1172CHOL    R410559   3.463   1.646   7.023 -0.0455 -0.0267  0.1006
 1172CHOL    R510560   3.561   1.814   6.924 -0.0511 -0.0242  0.0986
 1172CHOL    C110561   3.387   1.654   6.624  0.0720 -0.1173  0.0768
 1172CHOL    C210562   3.157   1.368   6.474 -0.0497  0.3347 -0.2550
 1173PNCE   AM110563   5.580  14.579   4.706 -0.1285  0.1244  0.0453
 1173PNCE   AM210564   5.683  14.820   4.910 -0.0300  0.0201  0.3323
 1173PNCE   T1A10565   5.619  14.361   5.048 -0.0129  0.1466  0.0450
 1173PNCE   C2A10566   5.454  14.275   5.480 -0.2364 -0.4499  0.0068
 1173PNCE   C3A10567   5.520  14.350   5.969  0.1919  0.1971 -0.1117
 1173PNCE   C1B10568   5.794  14.765   5.279  0.0041  0.1509  0.1195
 1173PNCE   C2B10569   5.914  14.792   5.774 -0.0848  0.0639  0.2429
 1173PNCE   C3B10570   5.777  14.685   6.291 -0.0779  0.4037  0.1161
 1173PNCE   D4B10571   5.857  14.338   6.462  0.0647 -0.1258  0.1247
 1173PNCE   C5B10572   5.586  14.079   6.804 -0.1705 -0.1448  0.1591
 1173PNCE   C6B10573   5.398  13.767   7.081 -0.1019 -0.2372 -0.0171
 1174CHOL   ROH10574   2.571   5.169   8.107  0.3133 -0.2456  0.0512
 1174CHOL    R110575   2.419   5.085   7.883  0.1803 -0.1325  0.0977
 1174CHOL    R210576   2.355   5.255   7.674  0.1110 -0.0442  0.1901
 1174CHOL    R310577   2.470   5.060   7.524 -0.0089 -0.0165  0.0611
 1174CHOL    R410578   2.253   5.165   7.357 -0.1254  0.0362  0.2417
 1174CHOL    R510579   2.286   4.956   7.411 -0.0983  0.0211  0.1699
 1174CHOL    C110580   2.300   4.929   7.030 -0.3756  0.1090  0.1506
 1174CHOL    C210581   2.266   4.588   6.754 -0.0669  0.1994 -0.2035
 1175CHOL   ROH10582  10.859   2.961   8.952  0.0037 -0.0020 -0.0089
 1175CHOL    R110583  10.940   2.956   8.681 -0.0244 -0.0452 -0.0172
 1175CHOL    R210584  10.833   2.781   8.497 -0.1427  0.0180 -0.0111
 1175CHOL    R310585  10.784   3.008   8.357 -0.0257  0.0485 -0.0017
 1175CHOL    R410586  10.834   2.804   8.152 -0.0905  0.0373 -0.0090
 1175CHOL    R510587  10.934   2.996   8.170 -0.0076 -0.0071  0.0158
 1175CHOL    C110588  10.788   3.031   7.820  0.0498  0.0772  0.0009
 1175CHOL    C210589  11.041   2.793   7.663 -0.0215  0.1819 -0.1799
 1176XCA    COO10590  11.608   8.832   4.749 -0.2733  0.2489 -0.1522
 1176XCA     C110591  11.611   8.778   5.269 -0.3725 -0.1070  0.1288
 1176XCA     C210592  12.005   8.769   5.441  0.1328 -0.2875 -0.0360
 1176XCA     C310593  12.479   8.738   5.532  0.1067 -0.1593 -0.0030
 1176XCA     C410594  12.796   8.930   5.784  0.0400  0.1018  0.0503
 1176XCA     C510595  13.137   8.965   5.996  0.0577  0.2272  0.1450
 1176XCA     C610596  13.470   9.200   6.133 -0.1410 -0.1835 -0.1756
 1177XCA    COO10597  12.687   0.255   9.073 -0.0142  0.2981  0.0478
 1177XCA     C110598  12.366   0.350   8.727 -0.3680  0.2425  0.2182
 1177XCA     C210599  12.255   0.687   8.434  0.2526  0.1277 -0.1357
 1177XCA     C310600  11.991   0.910   8.138  0.2622  0.0056 -0.0019
 1177XCA     C410601  11.919   1.023   7.838 -0.0821 -0.5619  0.0822
 1177XCA     C510602  11.897   1.163   7.491 -0.1778 -0.0350  0.1243
 1177XCA     C610603  11.592   1.256   7.255  0.2169 -0.0466 -0.0858
 1178XCA    COO10604   9.320   9.680   4.468 -0.2004  0.1307  0.2224
 1178XCA     C110605   8.922   9.740   4.780 -0.0372 -0.4434  0.0805
 1178XCA     C210606   8.751   9.680   5.209 -0.2006 -0.1621  0.0534
 1178XCA     C310607   8.635   9.810   5.636  0.1797 -0.1962 -0.1315
 1178XCA     C410608   8.808   9.764   6.042 -0.1706  0.0602 -0.3953
 1178XCA     C510609   8.845  10.070   6.235  0.1549  0.1076 -0.1890
 1178XCA     C610610   8.623  10.297   6.408 -0.2922  0.0414  0.0600
 1179XCA    COO10611  10.779  10.413   4.903 -0.0230  0.2833  0.2032
 1179XCA     C110612  10.791  10.316   5.339 -0.0644  0.1081  0.1199
 1179XCA     C210613  10.786  10.365   5.722 -0.0119  0.3692  0.0929
 1179XCA     C310614  10.894  10.352   6.183  0.0039  0.0032 -0.0189
 1179XCA     C410615  10.768  10.369   6.630 -0.1076  0.4696  0.2514
 1179XCA     C510616  10.460  10.316   6.933  0.1900  0.0746 -0.0822
 1179XCA     C610617  10.185  10.029   7.140  0.0338 -0.0031 -0.0200
 1180CHOL   ROH10618  11.282  15.055   8.689 -0.0115  0.1305 -0.1090
 1180CHOL    R110619  11.258  15.008   8.411 -0.0206  0.2060 -0.1215
 1180CHOL    R210620  11.090  14.815   8.306  0.1570  0.0673 -0.1556
 1180CHOL    R310621  10.993  15.023   8.162 -0.0908  0.0209 -0.0588
 1180CHOL    R410622  10.991  14.797   7.976  0.1283  0.0919 -0.1481
 1180CHOL    R510623  11.083  14.991   7.943 -0.0873  0.2068 -0.0850
 1180CHOL    C110624  10.841  14.982   7.648 -0.1213  0.0628 -0.0530
 1180CHOL    C210625  10.880  14.757   7.347 -0.0578 -0.2344 -0.1794
 1181PNCE   AM110626   3.292  12.848   8.214 -0.0048 -0.1305 -0.0108
 1181PNCE   AM210627   3.544  12.902   8.412  0.0686 -0.0029 -0.2001
 1181PNCE   T1A10628   3.295  12.709   7.836  0.0570  0.1066  0.3998
 1181PNCE   C2A10629   3.323  12.369   7.540 -0.1219  0.0753 -0.1514
 1181PNCE   C3A10630   3.139  12.209   7.068 -0.1675  0.1319  0.0911
 1181PNCE   C1B10631   3.780  13.064   8.053  0.3638  0.1097  0.1965
 1181PNCE   C2B10632   3.648  13.297   7.583 -0.0679  0.1257  0.0545
 1181PNCE   C3B10633   3.373  13.420   7.273 -0.1304 -0.0955  0.2309
 1181PNCE   D4B10634   3.367  13.613   6.924 -0.1341  0.0617  0.1431
 1181PNCE   C5B10635   3.090  13.846   6.824  0.1521 -0.0734 -0.1336
 1181PNCE   C6B10636   3.158  14.194   6.622  0.4008  0.2263 -0.2685
 1182CHOL   ROH10637   0.449   5.202   8.077 -0.0327 -0.0196 -0.0056
 1182CHOL    R110638   0.533   5.326   7.836 -0.1462  0.0168 -0.0268
 1182CHOL    R210639   0.552   5.600   7.808 -0.1476  0.0200  0.0099
 1182CHOL    R310640   0.806   5.542   7.730 -0.1880  0.0219 -0.1265
 1182CHOL    R410641   0.766   5.822   7.651 -0.1886  0.0639  0.0159
 1182CHOL    R510642   0.833   5.658   7.523 -0.2645  0.1118 -0.0870
 1182CHOL    C110643   1.129   5.896   7.487 -0.2504  0.0913 -0.1087
 1182CHOL    C210644   1.436   6.242   7.440  0.1832  0.1916  0.2982
 1183PNCE   AM110645   6.966   4.767   4.292  0.3169  0.1900  0.4096
 1183PNCE   AM210646   7.094   5.051   4.270  0.2599  0.0640  0.1778
 1183PNCE   T1A10647   6.690   4.792   4.728 -0.2206 -0.0603  0.1617
 1183PNCE   C2A10648   6.521   4.724   5.184 -0.1679 -0.1371  0.0688
 1183PNCE   C3A10649   6.239   4.852   5.512 -0.1505  0.1207 -0.0711
 1183PNCE   C1B10650   7.101   5.336   4.654 -0.0823  0.0069 -0.1642
 1183PNCE   C2B10651   6.851   5.157   5.030 -0.1640 -0.1304 -0.0070
 1183PNCE   C3B10652   6.746   5.112   5.436 -0.3119 -0.2633 -0.1536
 1183PNCE   D4B10653   6.645   4.719   5.755  0.2447 -0.3695  0.0043
 1183PNCE   C5B10654   6.704   4.893   6.204 -0.1596  0.1615 -0.0361
 1183PNCE   C6B10655   7.120   4.976   6.462 -0.0398 -0.0520  0.3770
 1184PNCE   AM110656   1.270   9.222   8.087  0.1153  0.2495 -0.0063
 1184PNCE   AM210657   1.190   8.878   8.081  0.0737  0.1027  0.1404
 1184PNCE   T1A10658   1.663   9.058   7.939 -0.2157  0.0545  0.3027
 1184PNCE   C2A10659   2.047   8.748   7.762  0.1327  0.2371 -0.2504
 1184PNCE   C3A10660   2.401   8.739   7.484  0.4459 -0.1257 -0.0818
 1184PNCE   C1B10661   1.234   8.892   7.653 -0.0592 -0.3062  0.1873
 1184PNCE   C2B10662   1.198   8.916   7.251  0.0880 -0.3081  0.0856
 1184PNCE   C3B10663   1.044   8.841   6.842  0.0722 -0.0033 -0.2089
 1184PNCE   D4B10664   1.095   8.405   6.516 -0.3124 -0.1737 -0.0365
 1184PNCE   C5B10665   1.344   8.127   6.803  0.0516 -0.0007 -0.1005
 1184PNCE   C6B10666   1.462   8.103   7.157 -0.1187  0.0801  0.2026
 1185PNCE   AM110667   7.670  14.724   5.044 -0.3819  0.0602  0.0725
 1185PNCE   AM210668   7.681  15.033   5.173  0.0902  0.2252 -0.0111
 1185PNCE   T1A10669   7.513  14.458   5.399 -0.2324  0.3235 -0.2854
 1185PNCE   C2A10670   7.344  14.203   5.738  0.2912  0.1373  0.0184
 1185PNCE   C3A10671   7.436  13.925   6.106 -0.1555  0.1468 -0.1748
 1185PNCE   C1B10672   7.582  15.111   5.609  0.0874  0.2060 -0.1028
 1185PNCE   C2B10673   7.543  15.280   6.015  0.1163 -0.0963 -0.1231
 1185PNCE   C3B10674   7.562  15.437   6.366 -0.2442 -0.4337 -0.0990
 1185PNCE   D4B10675   7.242  15.488   6.740 -0.2541  0.2259 -0.2842
 1185PNCE   C5B10676   7.021  15.811   6.864  0.1332  0.0988  0.3213
 1185PNCE   C6B10677   7.188  16.205   6.766  0.0221  0.1523  0.1771
 1186XCA    COO10678   2.764   3.905   8.566  0.1750  0.0272  0.1220
 1186XCA     C110679   2.766   3.859   8.117 -0.0100  0.2791  0.0543
 1186XCA     C210680   2.736   3.507   7.850  0.1605 -0.0625  0.1962
 1186XCA     C310681   2.564   3.481   7.409 -0.2104 -0.3216  0.1150
 1186XCA     C410682   2.332   3.743   7.184  0.1105 -0.0026 -0.1738
 1186XCA     C510683   2.250   3.547   6.907 -0.0979  0.0005  0.0126
 1186XCA     C610684   2.081   3.174   6.762  0.1448  0.2796 -0.0590
 1187CHOL   ROH10685   4.415   4.534   6.619 -0.0199  0.0729  0.0582
 1187CHOL    R110686   4.692   4.483   6.596 -0.0450 -0.0098 -0.0760
 1187CHOL    R210687   4.851   4.428   6.815  0.0733  0.1027 -0.1343
 1187CHOL    R310688   4.918   4.207   6.671 -0.0664 -0.0139 -0.0235
 1187CHOL    R410689   5.117   4.219   6.886  0.1239  0.1442 -0.2003
 1187CHOL    R510690   5.157   4.206   6.672 -0.0626 -0.0240 -0.2299
 1187CHOL    C110691   5.335   3.890   6.792  0.0223  0.0589 -0.1347
 1187CHOL    C210692   5.763   3.688   6.826 -0.0222 -0.0901 -0.0128
 1188XCA    COO10693  13.655   3.087   4.709  0.0472 -0.1200 -0.2248
 1188XCA     C110694  13.573   3.056   5.136 -0.2831  0.2143 -0.2561
 1188XCA     C210695  13.658   3.305   5.502 -0.2821 -0.0168  0.0568
 1188XCA     C310696  13.699   3.265   5.954  0.2377 -0.0140 -0.0488
 1188XCA     C410697  13.449   3.121   6.324 -0.0329  0.2155  0.0659
 1188XCA     C510698  13.317   2.715   6.386  0.1213  0.0711 -0.0125
 1188XCA     C610699  13.537   2.276   6.488 -0.1779  0.0956  0.1107
 1189XCA    COO10700   4.310  13.288   4.496  0.3052  0.0297 -0.0438
 1189XCA     C110701   3.921  13.172   4.678  0.2000  0.0601  0.2597
 1189XCA     C210702   3.549  13.219   4.886 -0.0925  0.2345  0.0116
 1189XCA     C310703   3.339  13.257   5.398  0.1582 -0.3657 -0.0863
 1189XCA     C410704   3.045  13.210   5.605 -0.0999 -0.0109  0.1254
 1189XCA     C510705   2.587  13.222   5.751  0.0528  0.0592  0.0969
 1189XCA     C610706   2.184  13.116   5.893  0.1272  0.3016  0.4441
 1190PNCE   AM110707   2.990  11.298   4.406 -0.0255  0.0522 -0.2184
 1190PNCE   AM210708   3.061  10.888   4.350  0.2946  0.3495 -0.2003
 1190PNCE   T1A10709   2.869  11.343   4.734  0.1371  0.0568 -0.1047
 1190PNCE   C2A10710   2.859  11.188   5.072  0.0189 -0.0612  0.2512
 1190PNCE   C3A10711   2.917  11.064   5.559 -0.1253  0.1569  0.0234
 1190PNCE   C1B10712   2.723  10.904   4.650 -0.1739  0.0612 -0.0492
 1190PNCE   C2B10713   2.355  10.962   4.953  0.2092 -0.0168 -0.1782
 1190PNCE   C3B10714   2.358  11.131   5.291 -0.0568  0.1546  0.2312
 1190PNCE   D4B10715   2.325  11.255   5.742  0.2006 -0.0585  0.0889
 1190PNCE   C5B10716   2.696  11.422   5.897  0.0658  0.0097 -0.0873
 1190PNCE   C6B10717   3.078  11.539   6.164 -0.1341  0.0177  0.3132
 1191PNCE   AM110718   0.591  10.980   8.519  0.3660  0.2464 -0.2424
 1191PNCE   AM210719   0.435  11.139   8.286 -0.0195 -0.0458 -0.2265
 1191PNCE   T1A10720   0.694  10.848   8.027  0.3256  0.0388  0.3855
 1191PNCE   C2A10721   0.735  10.962   7.543 -0.2445  0.2409  0.0483
 1191PNCE   C3A10722   0.790  11.344   7.313  0.0361 -0.0411 -0.2527
 1191PNCE   C1B10723   0.049  10.940   8.210  0.1630  0.2884 -0.0309
 1191PNCE   C2B10724  -0.162  10.898   7.773  0.1285 -0.2163  0.1460
 1191PNCE   C3B10725  -0.323  11.006   7.387 -0.1108  0.0792  0.1305
 1191PNCE   D4B10726  -0.122  11.099   6.901 -0.1022  0.0864 -0.0020
 1191PNCE   C5B10727  -0.269  10.976   6.555  0.0789 -0.1972 -0.1740
 1191PNCE   C6B10728  -0.184  10.929   6.046  0.0460 -0.4147  0.1617
 1192CHOL   ROH10729   6.482  15.345   7.008 -0.0045  0.2300 -0.1251
 1192CHOL    R110730   6.226  15.460   7.043  0.0291  0.3043 -0.1214
 1192CHOL    R210731   6.071  15.412   7.266 -0.0712  0.1780 -0.2172
 1192CHOL    R310732   6.067  15.683   7.283  0.0336  0.1674  0.0104
 1192CHOL    R410733   5.818  15.597   7.412 -0.1170  0.1617 -0.2758
 1192CHOL    R510734   5.837  15.741   7.249  0.0855  0.2940 -0.1389
 1192CHOL    C110735   5.667  15.959   7.513 -0.0454  0.1423 -0.0963
 1192CHOL    C210736   5.430  16.303   7.594 -0.0365 -0.2347 -0.0869
 1193PNCE   AM110737   6.055   7.417   4.375  0.0401 -0.1845 -0.2101
 1193PNCE   AM210738   5.810   7.318   4.383  0.1638  0.0063  0.2197
 1193PNCE   T1A10739   6.418   7.709   4.490 -0.3225  0.0703 -0.1638
 1193PNCE   C2A10740   6.737   8.043   4.403 -0.3289  0.0001 -0.0184
 1193PNCE   C3A10741   7.125   8.177   4.424 -0.1183  0.2218  0.0982
 1193PNCE   C1B10742   5.920   6.983   4.719  0.1938  0.2887 -0.0178
 1193PNCE   C2B10743   6.073   7.005   5.150  0.1531  0.1124 -0.2404
 1193PNCE   C3B10744   6.444   7.115   5.307 -0.0584 -0.0681 -0.2181
 1193PNCE   D4B10745   6.752   7.066   4.966 -0.2623 -0.0898 -0.0184
 1193PNCE   C5B10746   7.206   6.968   4.713  0.2972  0.0199  0.0377
 1193PNCE   C6B10747   7.512   6.871   4.414  0.0619 -0.0601 -0.0146
 1194CHOL   ROH10748  10.077  12.131   8.345  0.0498 -0.0647 -0.0606
 1194CHOL    R110749   9.967  12.037   8.102  0.0766 -0.0460 -0.0787
 1194CHOL    R210750  10.084  12.089   7.857  0.1661 -0.1274 -0.0487
 1194CHOL    R310751  10.073  11.818   7.831  0.0532 -0.1267 -0.0245
 1194CHOL    R410752  10.044  11.921   7.557  0.1994 -0.1335 -0.0508
 1194CHOL    R510753   9.910  11.782   7.659  0.0957 -0.0658 -0.0832
 1194CHOL    C110754  10.010  11.569   7.359  0.1128 -0.1363 -0.0293
 1194CHOL    C210755  10.098  11.467   6.996  0.0162 -0.0577  0.1445
 1195CHOL   ROH10756   5.603   3.234   8.265 -0.1006 -0.0185  0.0344
 1195CHOL    R110757   5.631   3.116   8.009  0.1306  0.0263  0.0387
 1195CHOL    R210758   5.478   3.192   7.793  0.0479 -0.2119  0.0161
 1195CHOL    R310759   5.720   3.228   7.675  0.0160  0.1692  0.0543
 1195CHOL    R410760   5.542   3.146   7.456  0.2109 -0.2977  0.0568
 1195CHOL    R510761   5.733   3.054   7.510  0.3774  0.0851  0.1596
 1195CHOL    C110762   5.807   3.153   7.149  0.2758  0.0101  0.1164
 1195CHOL    C210763   5.766   3.153   6.653  0.0016 -0.0500 -0.2670
 1196CHOL   ROH10764  11.341  12.038   8.287 -0.0830 -0.0728 -0.1609
 1196CHOL    R110765  11.316  11.928   8.028  0.0840 -0.0539 -0.1856
 1196CHOL    R210766  11.339  12.080   7.798  0.1969 -0.0319 -0.1575
 1196CHOL    R310767  11.527  11.895   7.733  0.2607 -0.0002 -0.0674
 1196CHOL    R410768  11.380  11.942   7.484  0.3036 -0.0971 -0.1158
 1196CHOL    R510769  11.416  11.749   7.579  0.3316 -0.0669 -0.0588
 1196CHOL    C110770  11.581  11.687   7.240  0.4258 -0.1052 -0.0070
 1196CHOL    C210771  11.289  11.552   6.882  0.1144 -0.1557 -0.3018
 1197CHOL   ROH10772  15.757   5.527   5.815 -0.2827  0.2246 -0.0279
 1197CHOL    R110773  15.629   5.564   6.065 -0.2054 -0.0484  0.0569
 1197CHOL    R210774  15.550   5.354   6.225  0.1390 -0.2254  0.0070
 1197CHOL    R310775  15.699   5.482   6.413  0.0774 -0.1222 -0.0148
 1197CHOL    R410776  15.452   5.406   6.552  0.1495 -0.2897  0.0200
 1197CHOL    R510777  15.539   5.606   6.541  0.0112 -0.2309  0.0067
 1197CHOL    C110778  15.535   5.557   6.919  0.0979 -0.2301  0.0072
 1197CHOL    C210779  15.232   5.767   6.886 -0.2609  0.0242  0.1447
 1198PNCE   AM110780   3.080   5.539   4.246  0.1525  0.1513  0.0791
 1198PNCE   AM210781   3.265   5.221   4.444  0.0603 -0.0107  0.0867
 1198PNCE   T1A10782   2.927   5.859   4.629  0.1511  0.0433  0.0610
 1198PNCE   C2A10783   2.939   5.810   5.116  0.0013 -0.1303 -0.3443
 1198PNCE   C3A10784   2.849   5.930   5.516  0.0300 -0.2821 -0.0794
 1198PNCE   C1B10785   3.147   5.379   4.886 -0.1044  0.1803 -0.1079
 1198PNCE   C2B10786   2.984   5.268   5.295 -0.2003 -0.0721 -0.3075
 1198PNCE   C3B10787   2.841   5.450   5.703 -0.1096  0.2603 -0.2758
 1198PNCE   D4B10788   3.056   5.718   6.005  0.1417  0.0822  0.1803
 1198PNCE   C5B10789   2.919   6.030   6.069  0.0782 -0.2767  0.0336
 1198PNCE   C6B10790   2.299   6.166   5.947 -0.1363  0.1509  0.2734
 1199PNCE   AM110791   0.650   8.351   4.033  0.0051 -0.1024  0.0606
 1199PNCE   AM210792   0.877   8.315   4.007 -0.4279  0.1030 -0.2526
 1199PNCE   T1A10793   0.656   8.140   4.524  0.1222 -0.0616 -0.4008
 1199PNCE   C2A10794   0.879   8.090   4.921  0.1985 -0.0582  0.1025
 1199PNCE   C3A10795   1.102   7.762   5.055 -0.0992  0.2164 -0.1179
 1199PNCE   C1B10796   1.057   8.403   4.434 -0.1523  0.1637  0.0129
 1199PNCE   C2B10797   0.947   8.545   4.850  0.1069 -0.0841  0.1953
 1199PNCE   C3B10798   0.707   8.579   5.318 -0.0600 -0.2243 -0.0423
 1199PNCE   D4B10799   0.707   8.648   5.759 -0.1337 -0.1308 -0.0113
 1199PNCE   C5B10800   1.026   8.559   6.006 -0.2895  0.0677  0.0261
 1199PNCE   C6B10801   1.248   8.273   5.880 -0.1910 -0.1958  0.0549
 1200CHOL   ROH10802   0.993  14.380   6.165  0.0605  0.1253 -0.0545
 1200CHOL    R110803   1.206  14.208   6.093  0.0667  0.1246 -0.0333
 1200CHOL    R210804   1.336  14.048   6.277  0.0506  0.1287 -0.0197
 1200CHOL    R310805   1.270  13.850   6.103  0.0668  0.1247 -0.0218
 1200CHOL    R410806   1.454  13.724   6.294  0.0070  0.1151  0.0313
 1200CHOL    R510807   1.473  13.724   6.077  0.0584  0.0978  0.0348
 1200CHOL    C110808   1.461  13.349   6.141 -0.0032  0.1034  0.0590
 1200CHOL    C210809   1.680  13.055   6.113 -0.2724  0.1129  0.0881
 1201CHOL   ROH10810   0.562  15.415   8.519 -0.0308  0.1890 -0.1227
 1201CHOL    R110811   0.741  15.486   8.311  0.0448  0.1547 -0.0686
 1201CHOL    R210812   0.991  15.593   8.361  0.0856  0.0187  0.0086
 1201CHOL    R310813   1.075  15.387   8.205  0.0184  0.0195 -0.0298
 1201CHOL    R410814   1.268  15.601   8.154  0.0500 -0.0051 -0.0407
 1201CHOL    R510815   1.153  15.491   8.004  0.0002  0.0310 -0.0337
 1201CHOL    C110816   1.507  15.412   7.886 -0.0339 -0.0181 -0.1055
 1201CHOL    C210817   1.562  15.590   7.601 -0.0793  0.1521  0.0720
 1202XCA    COO10818   6.123   9.851   4.315 -0.0390 -0.1658  0.3546
 1202XCA     C110819   6.318   9.595   4.728 -0.2149  0.0503  0.0699
 1202XCA     C210820   6.198   9.535   5.111 -0.0785 -0.0045  0.2602
 1202XCA     C310821   6.122   9.368   5.466 -0.0320 -0.0662 -0.1223
 1202XCA     C410822   6.119   9.090   5.856 -0.2553  0.2800  0.2716
 1202XCA     C510823   5.956   9.016   6.172  0.0882 -0.0159 -0.1238
 1202XCA     C610824   5.838   9.019   6.574  0.2276 -0.0769  0.0267
 1203PNCE   AM110825   9.992   7.758   4.326 -0.3174  0.1315  0.2113
 1203PNCE   AM210826  10.242   7.977   4.383  0.3124  0.1539  0.2398
 1203PNCE   T1A10827   9.799   7.992   4.613 -0.1103  0.1565  0.1892
 1203PNCE   C2A10828   9.640   8.092   5.055 -0.1140 -0.1515  0.0624
 1203PNCE   C3A10829   9.478   8.451   5.368 -0.0832  0.1841 -0.2471
 1203PNCE   C1B10830  10.267   7.855   4.840 -0.0633  0.0563  0.1157
 1203PNCE   C2B10831  10.106   7.957   5.311  0.0360  0.2672  0.1678
 1203PNCE   C3B10832  10.006   8.215   5.637 -0.1198 -0.2595 -0.0475
 1203PNCE   D4B10833   9.702   8.180   6.033 -0.1073 -0.2904  0.2878
 1203PNCE   C5B10834   9.605   8.639   6.412  0.1308 -0.0569  0.2116
 1203PNCE   C6B10835   9.398   8.591   6.812  0.0306 -0.1748  0.0854
 1204CHOL   ROH10836   0.070   6.821   4.966  0.1004 -0.2075  0.1807
 1204CHOL    R110837   0.084   6.970   5.206  0.1296 -0.0325  0.0726
 1204CHOL    R210838  -0.022   6.878   5.444  0.0113  0.2114  0.1190
 1204CHOL    R310839   0.229   6.925   5.537  0.0182  0.1271  0.1436
 1204CHOL    R410840   0.060   6.922   5.777 -0.0266  0.3303  0.1130
 1204CHOL    R510841   0.197   7.081   5.717  0.0655  0.2300  0.0623
 1204CHOL    C110842   0.344   6.992   6.058 -0.0421  0.3205  0.1324
 1204CHOL    C210843   0.672   7.052   6.269  0.2183 -0.1237  0.3447
 1205CHOL   ROH10844   7.729  11.646   6.777 -0.0019  0.2253  0.1034
 1205CHOL    R110845   8.009  11.673   6.755  0.0100  0.0727  0.0569
 1205CHOL    R210846   8.182  11.461   6.787 -0.1056 -0.0403 -0.0663
 1205CHOL    R310847   8.273  11.538   6.543 -0.1102  0.0079 -0.0533
 1205CHOL    R410848   8.492  11.379   6.657 -0.1147 -0.0306 -0.0948
 1205CHOL    R510849   8.506  11.582   6.577 -0.1058 -0.0130 -0.0515
 1205CHOL    C110850   8.757  11.404   6.351 -0.1243  0.0203 -0.0992
 1205CHOL    C210851   8.871  11.074   6.119  0.0910  0.3712  0.0934
 1206PNCE   AM110852   0.076  10.554   3.810 -0.2781  0.0059 -0.1918
 1206PNCE   AM210853   0.430  10.481   4.093 -0.0628 -0.2088  0.3029
 1206PNCE   T1A10854   0.045  10.186   4.291  0.0429 -0.0083  0.0480
 1206PNCE   C2A10855   0.023   9.883   4.598 -0.1479  0.3639 -0.0058
 1206PNCE   C3A10856   0.128   9.449   4.581  0.0090 -0.4298 -0.0040
 1206PNCE   C1B10857   0.653  10.323   4.488 -0.0526 -0.1096  0.0924
 1206PNCE   C2B10858   0.895  10.500   4.782 -0.4760 -0.1863  0.0893
 1206PNCE   C3B10859   0.793  10.772   5.115 -0.1198  0.2612  0.1785
 1206PNCE   D4B10860   0.773  11.116   5.505 -0.0787  0.2609  0.0948
 1206PNCE   C5B10861   1.007  11.442   5.593  0.3724 -0.1998  0.0810
 1206PNCE   C6B10862   1.171  11.890   5.626 -0.4509 -0.2596 -0.0629
 1207CHOL   ROH10863   0.124   8.055   6.845 -0.0492  0.0287 -0.0169
 1207CHOL    R110864   0.040   8.078   6.575  0.1536  0.0694 -0.0777
 1207CHOL    R210865  -0.183   8.221   6.500 -0.0130 -0.2363 -0.1761
 1207CHOL    R310866  -0.008   8.346   6.334 -0.0592  0.1551  0.0565
 1207CHOL    R410867  -0.263   8.349   6.189  0.0689 -0.2316 -0.1956
 1207CHOL    R510868  -0.071   8.274   6.115  0.2850  0.1379 -0.0452
 1207CHOL    C110869  -0.144   8.540   5.852  0.0730  0.1386  0.0114
 1207CHOL    C210870  -0.396   8.317   5.467  0.2011  0.2001 -0.1083
 1208PNCE   AM110871  10.603   0.765   5.803 -0.6242  0.2967 -0.0493
 1208PNCE   AM210872  10.678   1.045   5.581  0.1889 -0.2650  0.1753
 1208PNCE   T1A10873  10.696   0.549   6.130  0.2973 -0.0760 -0.1272
 1208PNCE   C2A10874  10.932   0.352   6.500 -0.0831  0.0624 -0.1910
 1208PNCE   C3A10875  11.260   0.130   6.664  0.0891  0.0470 -0.0934
 1208PNCE   C1B10876  10.643   1.273   5.977 -0.1612  0.4035 -0.1347
 1208PNCE   C2B10877  10.655   1.182   6.434 -0.0408 -0.0930 -0.2478
 1208PNCE   C3B10878  10.762   0.964   6.720 -0.2235  0.0428  0.0113
 1208PNCE   D4B10879  10.933   0.668   6.903  0.0734 -0.1351  0.3241
 1208PNCE   C5B10880  11.226   0.405   7.169  0.2191 -0.0652  0.0857
 1208PNCE   C6B10881  11.617   0.156   7.022  0.0338  0.1912  0.1136
 1209XCA    COO10882  10.077  14.252   5.203  0.0335  0.0559  0.3961
 1209XCA     C110883  10.268  14.384   5.483 -0.0417  0.0176  0.0326
 1209XCA     C210884  10.119  14.408   5.875 -0.0325  0.3471  0.1722
 1209XCA     C310885  10.100  14.253   6.291  0.0169  0.3852  0.0322
 1209XCA     C410886   9.922  13.884   6.608  0.2436 -0.1846 -0.0343
 1209XCA     C510887   9.726  13.469   6.854 -0.1229 -0.0043  0.1047
 1209XCA     C610888   9.384  13.208   7.136 -0.2035 -0.1190  0.1366
 1210PNCE   AM110889   4.635  14.685   4.921 -0.3371 -0.1876 -0.0474
 1210PNCE   AM210890   4.523  14.938   4.644 -0.0248  0.0879  0.4858
 1210PNCE   T1A10891   4.332  14.568   5.294  0.0448  0.1057  0.0325
 1210PNCE   C2A10892   4.493  14.557   5.649  0.1669 -0.3618  0.0685
 1210PNCE   C3A10893   4.542  14.366   6.033  0.0368 -0.2535 -0.2741
 1210PNCE   C1B10894   4.105  14.763   4.852 -0.1178  0.0489 -0.2353
 1210PNCE   C2B10895   3.866  14.774   5.358 -0.1661 -0.2197  0.0975
 1210PNCE   C3B10896   3.864  14.648   5.743 -0.1773 -0.1844 -0.2112
 1210PNCE   D4B10897   3.563  14.621   6.057  0.3724 -0.0537  0.1504
 1210PNCE   C5B10898   3.587  14.212   6.281  0.1169 -0.0756  0.1684
 1210PNCE   C6B10899   3.547  13.829   6.525 -0.1540 -0.3276 -0.0056
 1211PNCE   AM110900   3.543  14.535   5.087  0.1202 -0.1575 -0.0461
 1211PNCE   AM210901   3.366  14.673   4.726 -0.1962  0.0402  0.0183
 1211PNCE   T1A10902   3.279  14.570   5.409 -0.1720  0.0031 -0.5071
 1211PNCE   C2A10903   2.941  14.351   5.634 -0.3045 -0.3436  0.0431
 1211PNCE   C3A10904   2.607  14.144   5.865 -0.1451  0.2621 -0.2061
 1211PNCE   C1B10905   3.184  14.923   5.064 -0.3263  0.0687  0.0165
 1211PNCE   C2B10906   3.014  15.306   5.303 -0.1411 -0.1654  0.0582
 1211PNCE   C3B10907   2.946  15.360   5.758 -0.1776 -0.1093  0.0822
 1211PNCE   D4B10908   2.918  15.422   6.177  0.1146  0.0909  0.1072
 1211PNCE   C5B10909   3.139  15.419   6.580  0.0074 -0.0642 -0.0206
 1211PNCE   C6B10910   3.051  15.252   7.064  0.3207 -0.0919 -0.4100
 1212CHOL   ROH10911   7.740  10.231   6.838  0.0119 -0.1713 -0.1052
 1212CHOL    R110912   7.816  10.222   6.565  0.0277 -0.1618 -0.1000
 1212CHOL    R210913   7.941  10.004   6.453 -0.0779 -0.2039 -0.1268
 1212CHOL    R310914   7.737  10.018   6.274 -0.0550 -0.0685 -0.1450
 1212CHOL    R410915   7.979  10.007   6.109 -0.0384 -0.1853 -0.1233
 1212CHOL    R510916   7.821  10.157   6.099  0.0435 -0.0923 -0.1212
 1212CHOL    C110917   7.808  10.023   5.742  0.0060 -0.0473 -0.1384
 1212CHOL    C210918   7.557  10.367   5.699 -0.0988  0.1208  0.0917
 1213PNCE   AM110919  15.492   5.631   4.706  0.5373  0.2076  0.0148
 1213PNCE   AM210920  15.789   5.600   4.515  0.1219 -0.2949 -0.0536
 1213PNCE   T1A10921  15.568   5.457   5.113  0.1974  0.0726 -0.0653
 1213PNCE   C2A10922  15.599   5.306   5.427 -0.2761 -0.2947  0.0384
 1213PNCE   C3A10923  15.529   5.107   5.864  0.1358 -0.1216  0.0363
 1213PNCE   C1B10924  16.046   5.825   4.850  0.1090  0.0471  0.1381
 1213PNCE   C2B10925  16.222   6.104   5.128  0.0694  0.0288  0.1832
 1213PNCE   C3B10926  16.373   6.064   5.436 -0.0092  0.0376 -0.2813
 1213PNCE   D4B10927  16.560   6.227   5.794 -0.1569 -0.0244 -0.1023
 1213PNCE   C5B10928  16.496   6.034   6.156 -0.3325  0.2278 -0.1012
 1213PNCE   C6B10929  16.300   6.153   6.521 -0.2166  0.0786  0.0114
 1214PNCE   AM110930   4.165  11.398   4.553  0.2613  0.0159 -0.0653
 1214PNCE   AM210931   4.199  11.737   4.430 -0.0485  0.1536 -0.1797
 1214PNCE   T1A10932   4.214  11.410   5.020 -0.1056  0.1017  0.1322
 1214PNCE   C2A10933   4.243  11.176   5.367 -0.0263 -0.1777 -0.1078
 1214PNCE   C3A10934   4.322  11.230   5.754 -0.3483 -0.1610 -0.0795
 1214PNCE   C1B10935   3.841  11.695   4.768  0.1328  0.1346  0.4329
 1214PNCE   C2B10936   3.687  11.735   5.212  0.0700 -0.0547  0.2163
 1214PNCE   C3B10937   3.518  11.919   5.515 -0.0007 -0.0300 -0.1852
 1214PNCE   D4B10938   3.205  12.294   5.547  0.0639 -0.3902 -0.1458
 1214PNCE   C5B10939   3.060  12.587   5.786 -0.1128  0.2131 -0.2486
 1214PNCE   C6B10940   2.986  12.884   6.005 -0.0869 -0.1836  0.2477
 1215XCA    COO10941   5.691  15.079   8.516 -0.0560 -0.3160  0.3933
 1215XCA     C110942   5.845  14.926   8.066 -0.2599  0.0631 -0.0981
 1215XCA     C210943   5.985  14.624   7.763 -0.1983 -0.3639 -0.3176
 1215XCA     C310944   6.267  14.455   7.442 -0.2101 -0.1846 -0.1124
 1215XCA     C410945   6.266  14.407   7.081 -0.0955 -0.1355 -0.3221
 1215XCA     C510946   5.925  14.474   6.929  0.2337 -0.3659 -0.3192
 1215XCA     C610947   5.668  14.874   6.767 -0.1751 -0.2155  0.0169
 1216CHOL   ROH10948   9.240  10.410   8.493 -0.0789 -0.1490 -0.0852
 1216CHOL    R110949   9.096  10.489   8.262 -0.1098  0.1021  0.0163
 1216CHOL    R210950   9.124  10.739   8.147  0.2898  0.0385 -0.0367
 1216CHOL    R310951   9.176  10.593   7.923 -0.1658 -0.1005 -0.0607
 1216CHOL    R410952   9.171  10.872   7.831  0.3914 -0.0800 -0.0719
 1216CHOL    R510953   9.055  10.706   7.750 -0.0309  0.1596  0.0078
 1216CHOL    C110954   9.246  10.812   7.437  0.0230 -0.2797 -0.1150
 1216CHOL    C210955   9.618  11.052   7.515 -0.2064 -0.1575  0.4226
 1217CHOL   ROH10956   7.394   3.199   7.088 -0.0646 -0.1218 -0.0416
 1217CHOL    R110957   7.367   2.959   6.941  0.0331 -0.2136  0.0869
 1217CHOL    R210958   7.401   2.948   6.667 -0.1896 -0.3010  0.0562
 1217CHOL    R310959   7.580   2.753   6.730  0.0490 -0.1033 -0.0022
 1217CHOL    R410960   7.535   2.723   6.442  0.1023 -0.0724 -0.0025
 1217CHOL    R510961   7.517   2.567   6.593  0.2890 -0.1413 -0.0576
 1217CHOL    C110962   7.783   2.410   6.369  0.4962  0.2463 -0.0914
 1217CHOL    C210963   8.082   2.317   6.113 -0.0911 -0.2137  0.2511
 1218CHOL   ROH10964   6.612  14.932   4.920 -0.0313  0.2747  0.0599
 1218CHOL    R110965   6.702  14.864   5.179 -0.0174  0.1263  0.0127
 1218CHOL    R210966   6.688  15.039   5.393 -0.0452 -0.0206  0.1091
 1218CHOL    R310967   6.555  14.834   5.511  0.0007 -0.1160  0.0063
 1218CHOL    R410968   6.601  15.025   5.727 -0.4293  0.0265  0.0200
 1218CHOL    R510969   6.654  14.814   5.727 -0.2226  0.0563  0.1449
 1218CHOL    C110970   6.426  14.823   6.032 -0.6099 -0.0357 -0.1284
 1218CHOL    C210971   6.128  14.969   6.194  0.0551  0.2431 -0.1731
 1219CHOL   ROH10972   1.826  12.457   4.197  0.0715 -0.0831  0.0062
 1219CHOL    R110973   1.958  12.360   4.428  0.1512  0.0779  0.0294
 1219CHOL    R210974   2.058  12.528   4.623 -0.1381  0.2034  0.0740
 1219CHOL    R310975   1.905  12.375   4.788  0.0341 -0.0361  0.0180
 1219CHOL    R410976   2.077  12.529   4.968 -0.2883  0.2621  0.0832
 1219CHOL    R510977   2.053  12.313   4.965  0.0636  0.2160  0.0869
 1219CHOL    C110978   1.944  12.387   5.324 -0.2140  0.0715  0.0360
 1219CHOL    C210979   2.056  12.269   5.639 -0.0479 -0.2085  0.3708
 1220XCA    COO10980   7.694  11.787   4.888  0.0722 -0.0725 -0.1246
 1220XCA     C110981   7.519  11.835   5.135  0.3377 -0.0816 -0.1759
 1220XCA     C210982   7.629  11.917   5.559  0.0767 -0.0960 -0.0033
 1220XCA     C310983   7.699  12.097   5.908 -0.3683 -0.1146 -0.0733
 1220XCA     C410984   7.520  12.197   6.215  0.4651 -0.1976 -0.0803
 1220XCA     C510985   7.528  12.641   6.353  0.0833  0.0374  0.0054
 1220XCA     C610986   7.338  12.971   6.556  0.0462  0.1942  0.2071
 1221CHOL   ROH10987   1.056   2.894   4.942  0.0125  0.0850  0.1104
 1221CHOL    R110988   1.059   3.141   5.081  0.1730  0.1652 -0.0336
 1221CHOL    R210989   1.036   3.158   5.356 -0.1193  0.3547 -0.0665
 1221CHOL    R310990   1.268   3.299   5.334  0.0939  0.0447  0.1083
 1221CHOL    R410991   1.152   3.384   5.590 -0.1640  0.4460 -0.1314
 1221CHOL    R510992   1.215   3.513   5.426  0.2285  0.2079 -0.1817
 1221CHOL    C110993   1.437   3.648   5.706  0.0101  0.2081 -0.0052
 1221CHOL    C210994   1.425   3.956   5.953  0.1597 -0.2260 -0.0149
 1222PNCE   AM110995  11.713  10.002   5.853 -0.0639 -0.2744  0.2290
 1222PNCE   AM210996  11.681   9.951   5.510 -0.1865 -0.0998 -0.3285
 1222PNCE   T1A10997  12.017  10.317   6.007  0.0938  0.3453 -0.0061
 1222PNCE   C2A10998  12.285  10.498   6.261 -0.1325  0.0266  0.1016
 1222PNCE   C3A10999  12.636  10.879   6.184 -0.1843 -0.2526 -0.0909
 1222PNCE   C1B11000  11.548   9.562   5.561  0.3642  0.2516 -0.1483
 1222PNCE   C2B11001  11.135   9.485   5.752 -0.1548 -0.1281 -0.1290
 1222PNCE   C3B11002  11.071   9.052   5.941  0.0508 -0.1331  0.1395
 1222PNCE   D4B11003  11.371   8.777   5.923  0.1295 -0.0212  0.1877
 1222PNCE   C5B11004  11.621   8.707   6.159  0.0953  0.1749 -0.1844
 1222PNCE   C6B11005  11.976   8.690   6.358  0.1893 -0.2357  0.2980
 1223PNCE   AM111006  15.147   8.678   3.897 -0.1970 -0.3495  0.1336
 1223PNCE   AM211007  15.167   8.434   4.068  0.1600  0.1756  0.2621
 1223PNCE   T1A11008  14.766   8.668   4.112 -0.0440  0.0110  0.6246
 1223PNCE   C2A11009  14.308   8.597   4.314  0.0787  0.2754  0.1756
 1223PNCE   C3A11010  14.334   8.257   4.366 -0.1145 -0.1638 -0.0704
 1223PNCE   C1B11011  15.147   8.777   4.411 -0.1619 -0.1319  0.1622
 1223PNCE   C2B11012  15.134   8.897   4.843  0.0510 -0.0808  0.1019
 1223PNCE   C3B11013  15.542   8.762   5.068  0.3336  0.1768 -0.0077
 1223PNCE   D4B11014  15.921   8.665   5.382 -0.2572 -0.0536 -0.1014
 1223PNCE   C5B11015  16.288   8.966   5.388  0.0715  0.0519  0.0045
 1223PNCE   C6B11016  16.359   9.406   5.553 -0.1972  0.0896 -0.1093
 1224PNCE   AM111017   4.725   6.802   4.304 -0.0762  0.1215  0.0577
 1224PNCE   AM211018   4.496   6.881   4.595  0.0384 -0.1929 -0.0426
 1224PNCE   T1A11019   4.970   6.977   4.538  0.0670  0.1286  0.0187
 1224PNCE   C2A11020   5.003   7.039   4.992  0.0862  0.0912  0.0928
 1224PNCE   C3A11021   4.936   7.381   5.243  0.0938 -0.1058 -0.0838
 1224PNCE   C1B11022   4.696   6.649   4.961  0.0683 -0.1274 -0.0291
 1224PNCE   C2B11023   4.978   6.623   5.313 -0.1422 -0.1480  0.1482
 1224PNCE   C3B11024   5.153   6.686   5.820 -0.1896 -0.0393 -0.1080
 1224PNCE   D4B11025   5.276   6.733   6.231  0.1368 -0.3368 -0.0406
 1224PNCE   C5B11026   4.940   6.974   6.470  0.0636 -0.2890 -0.3650
 1224PNCE   C6B11027   4.516   6.857   6.595 -0.1334  0.2572 -0.0585
 1225XCA    COO11028   7.586   0.727   7.191 -0.2019 -0.0765  0.1203
 1225XCA     C111029   7.785   1.028   7.388 -0.0930 -0.0145 -0.0808
 1225XCA     C211030   8.046   1.391   7.428  0.0203 -0.2781 -0.1128
 1225XCA     C311031   8.033   1.868   7.460 -0.2378 -0.0219  0.1422
 1225XCA     C411032   8.259   2.123   7.663  0.2363 -0.0731  0.0123
 1225XCA     C511033   8.352   2.448   7.889 -0.1506 -0.1131  0.1622
 1225XCA     C611034   8.669   2.782   8.037 -0.4708 -0.0713  0.2024
 1226CHOL   ROH11035  15.263   8.765   7.300  0.2024  0.2500  0.0852
 1226CHOL    R111036  15.223   8.833   7.028  0.1843  0.1040  0.0510
 1226CHOL    R211037  15.402   8.762   6.829  0.1416 -0.0542  0.0679
 1226CHOL    R311038  15.181   8.652   6.715  0.0997 -0.0661  0.1585
 1226CHOL    R411039  15.398   8.594   6.527  0.0246 -0.0458  0.0640
 1226CHOL    R511040  15.209   8.692   6.480 -0.0026 -0.0571  0.1469
 1226CHOL    C111041  15.188   8.394   6.243 -0.0828 -0.0521  0.1469
 1226CHOL    C211042  15.183   8.343   5.872 -0.1656 -0.0061 -0.4491
 1227CHOL   ROH11043   9.916   3.292   8.952 -0.1523  0.1794 -0.0782
 1227CHOL    R111044  10.040   3.398   8.721 -0.0219  0.0646 -0.0636
 1227CHOL    R211045  10.290   3.317   8.636 -0.0179 -0.0653  0.0476
 1227CHOL    R311046  10.160   3.268   8.403  0.0401 -0.0772  0.0193
 1227CHOL    R411047  10.420   3.377   8.321 -0.0270  0.0952  0.0746
 1227CHOL    R511048  10.224   3.449   8.260 -0.0563 -0.0069  0.0741
 1227CHOL    C111049  10.373   3.366   7.919  0.0222  0.1774  0.0639
 1227CHOL    C211050  10.508   3.382   7.676  0.2224  0.0693 -0.0750
 1228XCA    COO11051  11.515   8.347   4.769 -0.0580 -0.0261  0.1286
 1228XCA     C111052  11.372   8.335   5.214 -0.3421  0.3432 -0.4477
 1228XCA     C211053  11.028   8.307   5.485 -0.2642 -0.0335 -0.1730
 1228XCA     C311054  10.994   8.056   5.890 -0.0780  0.4516 -0.1263
 1228XCA     C411055  10.838   7.764   6.169  0.2978 -0.2608 -0.1642
 1228XCA     C511056  10.727   7.509   6.507 -0.0347  0.2397 -0.2498
 1228XCA     C611057  11.034   7.276   6.774 -0.1948  0.0780  0.1540
 1229CHOL   ROH11058   7.651  14.999   8.354  0.0866 -0.2184 -0.0572
 1229CHOL    R111059   7.843  15.165   8.227  0.1556 -0.2858 -0.0412
 1229CHOL    R211060   7.982  15.085   8.002 -0.0543 -0.2319 -0.1918
 1229CHOL    R311061   7.884  15.317   7.899  0.0868 -0.0582  0.0533
 1229CHOL    R411062   8.099  15.241   7.717 -0.2713 -0.2666 -0.3021
 1229CHOL    R511063   8.076  15.433   7.817  0.1227 -0.2730 -0.1805
 1229CHOL    C111064   8.075  15.550   7.454 -0.2652 -0.1240 -0.1363
 1229CHOL    C211065   8.206  15.611   7.094 -0.1772 -0.1250  0.2578
 1230CHOL   ROH11066   7.808   7.944   7.388  0.1588 -0.0194 -0.0594
 1230CHOL    R111067   7.569   8.067   7.298 -0.0181 -0.1628  0.2066
 1230CHOL    R211068   7.533   8.151   7.037 -0.1590  0.2806  0.3673
 1230CHOL    R311069   7.311   7.995   7.052  0.0400 -0.0432  0.1071
 1230CHOL    R411070   7.304   8.108   6.782 -0.0779  0.3939  0.2728
 1230CHOL    R511071   7.145   8.116   6.930 -0.1099 -0.0525  0.2871
 1230CHOL    C111072   6.962   7.937   6.647  0.1561  0.1559 -0.0265
 1230CHOL    C211073   6.674   7.617   6.425  0.1506 -0.2733 -0.1516
 1231CHOL   ROH11074   8.980   8.047   4.141 -0.1810 -0.3765  0.0229
 1231CHOL    R111075   8.937   7.917   4.389 -0.3529 -0.1872  0.0955
 1231CHOL    R211076   9.144   7.837   4.554 -0.4506 -0.4264  0.1062
 1231CHOL    R311077   9.009   7.983   4.739 -0.2037 -0.1206  0.0529
 1231CHOL    R411078   9.235   7.867   4.886 -0.3447 -0.3806  0.0734
 1231CHOL    R511079   9.024   7.853   4.940 -0.3616 -0.0377  0.1212
 1231CHOL    C111080   9.161   8.021   5.253 -0.0512 -0.0668  0.0044
 1231CHOL    C211081   9.096   8.185   5.589  0.1493  0.0265  0.1848
 1232XCA    COO11082   3.557   7.472   6.457  0.2148  0.0103 -0.0932
 1232XCA     C111083   3.280   7.207   6.410 -0.0204  0.1009 -0.0495
 1232XCA     C211084   2.884   7.204   6.562  0.0572  0.1604  0.2516
 1232XCA     C311085   2.595   7.492   6.692 -0.0709  0.2619 -0.3035
 1232XCA     C411086   2.225   7.420   6.921  0.0820  0.1527  0.1722
 1232XCA     C511087   2.100   7.001   7.040  0.3226  0.0117  0.3509
 1232XCA     C611088   1.978   6.865   7.365  0.4279 -0.1381  0.0838
 1233PNCE   AM111089   1.250   2.451   4.730 -0.0787 -0.0345 -0.0331
 1233PNCE   AM211090   1.617   2.326   4.820  0.1978 -0.1467 -0.2276
 1233PNCE   T1A11091   1.234   2.400   5.169  0.0857 -0.1006 -0.0064
 1233PNCE   C2A11092   1.353   2.414   5.556  0.1009 -0.0537 -0.0460
 1233PNCE   C3A11093   1.545   2.161   5.855  0.1519 -0.1906 -0.1414
 1233PNCE   C1B11094   1.760   2.571   5.174 -0.2866 -0.3299 -0.4257
 1233PNCE   C2B11095   1.796   2.652   5.697 -0.1026  0.2162  0.0007
 1233PNCE   C3B11096   1.878   2.532   6.038  0.2963  0.0937  0.0421
 1233PNCE   D4B11097   1.616   2.444   6.364  0.0633 -0.1836  0.0999
 1233PNCE   C5B11098   1.323   2.778   6.466  0.3267 -0.1969  0.1069
 1233PNCE   C6B11099   1.000   2.882   6.788 -0.2110  0.2177  0.1847
 1234PNCE   AM111100  11.603  15.229   5.371  0.0286  0.3298  0.2599
 1234PNCE   AM211101  11.307  15.397   5.508 -0.0067  0.2499 -0.3255
 1234PNCE   T1A11102  11.531  14.991   5.823  0.2797 -0.3693  0.3365
 1234PNCE   C2A11103  11.490  14.982   6.183 -0.1631 -0.2403  0.0508
 1234PNCE   C3A11104  11.088  14.839   6.402  0.1456  0.0137  0.1077
 1234PNCE   C1B11105  11.628  15.619   5.656  0.0309 -0.3384  0.1495
 1234PNCE   C2B11106  11.501  15.940   6.060 -0.0960 -0.1011 -0.1235
 1234PNCE   C3B11107  11.718  15.979   6.432 -0.0997 -0.3609 -0.1578
 1234PNCE   D4B11108  12.096  15.727   6.535  0.2847 -0.3516 -0.1811
 1234PNCE   C5B11109  12.437  15.663   6.300 -0.1009 -0.2848 -0.1182
 1234PNCE   C6B11110  12.797  15.505   6.118  0.2877 -0.1018  0.0034
 1235PNCE   AM111111   5.546  12.707   8.715  0.0551 -0.2834 -0.1964
 1235PNCE   AM211112   5.830  12.540   8.772 -0.1341  0.0876 -0.0416
 1235PNCE   T1A11113   5.861  12.839   8.366  0.1689 -0.1258  0.1540
 1235PNCE   C2A11114   5.864  12.784   7.959  0.4235 -0.1564  0.3342
 1235PNCE   C3A11115   5.718  12.745   7.533  0.3029 -0.1134  0.1152
 1235PNCE   C1B11116   5.610  12.405   8.319 -0.3864  0.2430  0.0408
 1235PNCE   C2B11117   5.628  12.325   7.821  0.2388  0.1113  0.1145
 1235PNCE   C3B11118   6.070  12.357   7.644  0.1418 -0.3015  0.2141
 1235PNCE   D4B11119   6.372  12.346   7.423 -0.0170  0.0495 -0.0726
 1235PNCE   C5B11120   6.373  12.328   6.928 -0.0179 -0.0928 -0.2569
 1235PNCE   C6B11121   6.394  11.974   6.558  0.2959 -0.2404 -0.2052
 1236PNCE   AM111122  13.691  11.747   5.171 -0.0581  0.0613  0.2857
 1236PNCE   AM211123  13.893  11.904   5.154 -0.2596 -0.2480 -0.0060
 1236PNCE   T1A11124  13.575  11.485   5.392 -0.1754 -0.1532  0.0550
 1236PNCE   C2A11125  13.399  11.206   5.784 -0.1584 -0.1049 -0.1117
 1236PNCE   C3A11126  13.168  10.937   6.036  0.0820  0.0463  0.0496
 1236PNCE   C1B11127  13.922  11.892   5.596  0.1696 -0.1541  0.1902
 1236PNCE   C2B11128  14.027  11.846   5.966 -0.1750 -0.0483  0.1913
 1236PNCE   C3B11129  13.905  12.262   6.296 -0.0614 -0.1631  0.2642
 1236PNCE   D4B11130  13.862  12.442   6.760 -0.0782 -0.1004  0.0025
 1236PNCE   C5B11131  13.664  12.186   7.047 -0.1833 -0.0508  0.0245
 1236PNCE   C6B11132  13.447  11.785   6.896 -0.1242 -0.0342 -0.1829
 1237CHOL   ROH11133  15.196  15.262   5.189 -0.0485 -0.0525 -0.0541
 1237CHOL    R111134  15.241  15.140   5.440  0.0158 -0.1649 -0.1198
 1237CHOL    R211135  15.173  15.260   5.679  0.2017 -0.2110 -0.0404
 1237CHOL    R311136  15.038  15.028   5.721  0.0988 -0.1546 -0.0555
 1237CHOL    R411137  15.119  15.115   5.988  0.0661 -0.1696 -0.0437
 1237CHOL    R511138  15.158  14.921   5.898  0.0107 -0.1904 -0.0187
 1237CHOL    C111139  14.962  14.813   6.207 -0.1093 -0.0925 -0.0599
 1237CHOL    C211140  14.860  14.579   6.450  0.0006 -0.2485  0.4920
 1238XCA    COO11141  12.760   5.754   8.634 -0.0097 -0.1524 -0.0443
 1238XCA     C111142  12.885   5.644   8.203  0.1939 -0.1985  0.0792
 1238XCA     C211143  12.988   5.366   7.909  0.1374  0.0614 -0.1097
 1238XCA     C311144  13.297   5.283   7.705 -0.0317  0.0966 -0.0582
 1238XCA     C411145  13.368   5.073   7.292 -0.3473  0.0931 -0.1519
 1238XCA     C511146  13.736   4.839   6.984  0.1136  0.0670 -0.0433
 1238XCA     C611147  13.980   4.698   6.612 -0.1792  0.0357  0.0540
 1239XCA    COO11148  13.172   3.065   4.879 -0.0370  0.0197  0.1576
 1239XCA     C111149  13.249   3.375   5.251  0.1898  0.0794 -0.1708
 1239XCA     C211150  13.195   3.453   5.668  0.1129  0.2990 -0.1634
 1239XCA     C311151  13.335   3.605   6.045 -0.4360 -0.2769 -0.1612
 1239XCA     C411152  13.210   3.995   6.207  0.0633  0.1277 -0.2427
 1239XCA     C511153  13.052   4.202   6.433  0.2832 -0.2088 -0.0681
 1239XCA     C611154  12.779   4.555   6.574 -0.0136 -0.0272  0.3840
 1240PNCE   AM111155   6.196   5.879   3.972  0.0910  0.1539  0.5025
 1240PNCE   AM211156   6.552   5.887   3.814 -0.0866  0.1185  0.2947
 1240PNCE   T1A11157   6.195   5.617   4.464 -0.2070 -0.2935  0.0773
 1240PNCE   C2A11158   6.262   5.682   4.858  0.2921  0.0948 -0.2328
 1240PNCE   C3A11159   6.174   5.826   5.180 -0.2663  0.0873  0.1311
 1240PNCE   C1B11160   6.579   6.100   4.251 -0.1970  0.1020 -0.1848
 1240PNCE   C2B11161   6.768   6.151   4.595 -0.0852  0.2595  0.0625
 1240PNCE   C3B11162   6.918   6.555   4.881  0.0764  0.1988 -0.0243
 1240PNCE   D4B11163   7.062   6.536   5.295 -0.0074  0.1638  0.2106
 1240PNCE   C5B11164   6.885   6.854   5.401  0.1877 -0.0225  0.2554
 1240PNCE   C6B11165   6.897   7.262   5.433  0.3397 -0.0573 -0.2074
 1241CHOL   ROH11166   6.967  13.579   8.802 -0.2163 -0.1607 -0.0915
 1241CHOL    R111167   6.907  13.636   8.531  0.0648 -0.0391 -0.1308
 1241CHOL    R211168   6.730  13.835   8.457 -0.0161 -0.1458 -0.2143
 1241CHOL    R311169   6.940  13.922   8.308  0.0945  0.1352  0.0916
 1241CHOL    R411170   6.713  14.087   8.221 -0.0559 -0.2739 -0.3509
 1241CHOL    R511171   6.845  13.969   8.093  0.3585 -0.1212 -0.0914
 1241CHOL    C111172   6.901  14.315   7.944  0.0248 -0.0847 -0.1433
 1241CHOL    C211173   7.106  14.603   7.694  0.2857 -0.0262 -0.4388
 1242PNCE   AM111174  10.906  11.734   4.561  0.1504  0.2922 -0.0323
 1242PNCE   AM211175  10.925  11.868   4.912 -0.2724  0.3678  0.0021
 1242PNCE   T1A11176  11.125  11.373   4.882  0.1343  0.3022 -0.1931
 1242PNCE   C2A11177  11.125  11.082   5.225 -0.3733 -0.0844  0.3315
 1242PNCE   C3A11178  11.116  10.756   5.461  0.0425  0.2020 -0.0290
 1242PNCE   C1B11179  11.089  11.966   5.331  0.0972 -0.3300 -0.1936
 1242PNCE   C2B11180  11.166  11.974   5.749  0.2554  0.0523 -0.6466
 1242PNCE   C3B11181  11.423  12.124   6.028 -0.2544 -0.0726  0.0434
 1242PNCE   D4B11182  11.256  12.340   6.304  0.0278 -0.2064  0.0720
 1242PNCE   C5B11183  11.116  12.229   6.720  0.1800 -0.0383 -0.1022
 1242PNCE   C6B11184  11.297  12.011   7.059 -0.0267  0.0259 -0.0552
 1243XCA    COO11185  12.683   4.445   4.590 -0.3507  0.0163  0.0096
 1243XCA     C111186  12.409   4.401   4.949  0.1732  0.0630  0.0674
 1243XCA     C211187  12.076   4.350   5.295 -0.2281  0.2709  0.0378
 1243XCA     C311188  11.895   4.666   5.538  0.2936  0.1060  0.1000
 1243XCA     C411189  11.704   5.019   5.753  0.2038 -0.2007  0.1733
 1243XCA     C511190  11.942   5.312   5.810 -0.1101  0.0025 -0.2147
 1243XCA     C611191  12.373   5.376   5.960 -0.0031  0.0444  0.2167
 1244PNCE   AM111192   5.310  14.171   4.661 -0.0184 -0.3076  0.2791
 1244PNCE   AM211193   5.085  14.527   4.615  0.1099  0.5405 -0.0052
 1244PNCE   T1A11194   5.065  14.300   5.083  0.1260 -0.3174 -0.2524
 1244PNCE   C2A11195   4.944  14.365   5.408  0.0544 -0.1876  0.1962
 1244PNCE   C3A11196   5.005  14.181   5.880 -0.2334  0.0164 -0.1351
 1244PNCE   C1B11197   5.088  14.747   4.976 -0.1352 -0.3047  0.1698
 1244PNCE   C2B11198   5.312  14.666   5.287 -0.2497  0.1170  0.0632
 1244PNCE   C3B11199   5.499  14.996   5.658  0.2611 -0.0947  0.3142
 1244PNCE   D4B11200   5.696  15.140   6.016 -0.1717 -0.2961  0.4529
 1244PNCE   C5B11201   5.507  15.102   6.346  0.0984 -0.0623 -0.0700
 1244PNCE   C6B11202   5.266  15.177   6.681 -0.0866  0.1571  0.0677
 1245PNCE   AM111203  11.694   2.027   5.168  0.4690  0.1499 -0.0057
 1245PNCE   AM211204  11.473   2.276   5.251  0.1131 -0.1063 -0.0102
 1245PNCE   T1A11205  11.810   2.008   5.558  0.2704  0.3344  0.2064
 1245PNCE   C2A11206  11.979   2.056   5.992 -0.2604 -0.3927  0.0315
 1245PNCE   C3A11207  12.156   2.192   6.317 -0.1553 -0.2082  0.0403
 1245PNCE   C1B11208  11.631   2.423   5.722 -0.0045  0.1083 -0.2565
 1245PNCE   C2B11209  11.500   2.354   6.099  0.0919  0.0996 -0.2085
 1245PNCE   C3B11210  11.381   2.485   6.448 -0.1264 -0.2062 -0.0632
 1245PNCE   D4B11211  11.205   2.435   6.866 -0.2768 -0.2076 -0.1480
 1245PNCE   C5B11212  11.121   2.001   6.959  0.0708  0.0970  0.1287
 1245PNCE   C6B11213  10.950   1.575   6.698 -0.0233 -0.1887 -0.0254
 1246PNCE   AM111214   7.680   4.138   4.638  0.0946  0.0554 -0.1410
 1246PNCE   AM211215   7.869   4.236   4.796 -0.2065 -0.2094  0.0796
 1246PNCE   T1A11216   7.256   4.105   4.789  0.0735 -0.1893  0.2851
 1246PNCE   C2A11217   7.091   3.914   5.151 -0.3398 -0.1662 -0.1668
 1246PNCE   C3A11218   6.755   3.761   5.510 -0.1649 -0.1616 -0.0931
 1246PNCE   C1B11219   7.550   4.565   4.936 -0.1385  0.3719 -0.2032
 1246PNCE   C2B11220   7.581   4.665   5.406 -0.1430  0.1100 -0.2068
 1246PNCE   C3B11221   7.947   4.677   5.650 -0.0263 -0.0113  0.3753
 1246PNCE   D4B11222   8.327   4.755   5.725  0.0962  0.4082 -0.1188
 1246PNCE   C5B11223   8.309   5.189   5.963  0.1767 -0.0150 -0.1466
 1246PNCE   C6B11224   8.135   5.480   6.293 -0.0376 -0.1059 -0.3618
 1247CHOL   ROH11225   0.212  12.270   4.560 -0.1253 -0.1056  0.1524
 1247CHOL    R111226   0.275  12.376   4.815 -0.1502 -0.0270  0.1264
 1247CHOL    R211227   0.495  12.536   4.860 -0.1139 -0.0735  0.1128
 1247CHOL    R311228   0.310  12.706   4.964 -0.0875  0.0195  0.0093
 1247CHOL    R411229   0.569  12.819   5.044 -0.0724 -0.0606  0.0764
 1247CHOL    R511230   0.402  12.771   5.175 -0.1381  0.0314  0.0279
 1247CHOL    C111231   0.439  13.144   5.248 -0.0234  0.0342 -0.0420
 1247CHOL    C211232   0.532  13.450   5.126  0.2094 -0.1439 -0.2424
 1248XCA    COO11233   5.217   2.008   4.853 -0.2673  0.1760  0.3062
 1248XCA     C111234   5.209   2.113   5.294 -0.0443 -0.0740 -0.1132
 1248XCA     C211235   5.324   2.383   5.691 -0.0160  0.2015 -0.3233
 1248XCA     C311236   5.565   2.354   6.001 -0.1623 -0.0588  0.0404
 1248XCA     C411237   5.336   2.318   6.409  0.2899 -0.1229  0.0952
 1248XCA     C511238   5.050   2.274   6.686  0.1234 -0.2575 -0.1433
 1248XCA     C611239   5.134   2.455   7.031 -0.3071  0.0516 -0.0023
 1249XCA    COO11240   7.810  10.730   8.760  0.1362  0.3330  0.1876
 1249XCA     C111241   7.758  10.810   8.296  0.1304 -0.1359 -0.3124
 1249XCA     C211242   7.897  10.930   7.834  0.2060 -0.0496  0.1970
 1249XCA     C311243   7.572  11.026   7.542 -0.0074  0.0738  0.1752
 1249XCA     C411244   7.671  10.926   7.076 -0.0281  0.2511 -0.1163
 1249XCA     C511245   7.833  11.171   6.682  0.0101  0.0040  0.1834
 1249XCA     C611246   7.710  11.437   6.359 -0.0878 -0.1709 -0.1097
 1250CHOL   ROH11247  11.194   5.732   4.575 -0.0251 -0.3300 -0.1148
 1250CHOL    R111248  11.229   5.868   4.821 -0.1427 -0.2749 -0.1276
 1250CHOL    R211249  11.270   5.735   5.060 -0.1015 -0.2182 -0.1033
 1250CHOL    R311250  11.490   5.894   5.073 -0.1961 -0.0868 -0.0895
 1250CHOL    R411251  11.461   5.785   5.343  0.0515 -0.3850 -0.1751
 1250CHOL    R511252  11.478   5.995   5.290 -0.1228 -0.3152  0.0259
 1250CHOL    C111253  11.779   5.963   5.521  0.0517 -0.3587 -0.2039
 1250CHOL    C211254  11.910   6.359   5.764 -0.0120 -0.6076 -0.0335
 1251XCA    COO11255  15.809  10.442   8.422 -0.0164  0.1988  0.0021
 1251XCA     C111256  15.825  10.436   7.862 -0.0632  0.0446  0.1346
 1251XCA     C211257  15.944  10.215   7.528  0.4709  0.1278  0.0268
 1251XCA     C311258  15.991  10.205   7.126  0.2351  0.1490 -0.0823
 1251XCA     C411259  15.975  10.107   6.782  0.3739 -0.3384 -0.0739
 1251XCA     C511260  15.782   9.966   6.423 -0.2466  0.0560 -0.0155
 1251XCA     C611261  15.652   9.615   6.217 -0.1178  0.2145 -0.0797
 1252CHOL   ROH11262   9.876  12.500   8.101 -0.0851  0.1316 -0.0345
 1252CHOL    R111263   9.705  12.381   7.909 -0.0244  0.0719 -0.0529
 1252CHOL    R211264   9.712  12.449   7.641 -0.0399  0.0959 -0.0517
 1252CHOL    R311265   9.746  12.181   7.608  0.0807  0.1129 -0.0649
 1252CHOL    R411266   9.734  12.289   7.336 -0.0349  0.1037 -0.0548
 1252CHOL    R511267   9.612  12.127   7.417  0.0647  0.0471 -0.0306
 1252CHOL    C111268   9.779  11.945   7.126  0.0813  0.1243 -0.0691
 1252CHOL    C211269   9.839  11.827   6.749 -0.0226 -0.0105 -0.0511
 1253CHOL   ROH11270   8.130   1.291   5.479 -0.3067 -0.0812 -0.0060
 1253CHOL    R111271   8.137   1.368   5.751 -0.2602 -0.0815 -0.0091
 1253CHOL    R211272   8.037   1.210   5.953  0.0709 -0.2236  0.0354
 1253CHOL    R311273   8.286   1.242   6.058  0.0865  0.1123 -0.0886
 1253CHOL    R411274   8.110   1.208   6.291  0.2649 -0.4802 -0.0027
 1253CHOL    R511275   8.250   1.373   6.256 -0.0466 -0.1690  0.0884
 1253CHOL    C111276   8.386   1.238   6.586  0.3924 -0.3142 -0.1414
 1253CHOL    C211277   8.128   1.203   6.921 -0.1243  0.1584 -0.0734
 1254XCA    COO11278   1.743   8.592   8.240  0.0810 -0.1593  0.1353
 1254XCA     C111279   1.542   8.500   7.936 -0.1613  0.0168 -0.0521
 1254XCA     C211280   1.693   8.492   7.478  0.3144  0.2916 -0.1507
 1254XCA     C311281   1.863   8.350   7.094 -0.0794 -0.1523 -0.3550
 1254XCA     C411282   1.839   8.051   6.741  0.0498 -0.1956  0.1751
 1254XCA     C511283   1.660   7.927   6.399  0.1363 -0.1588  0.1828
 1254XCA     C611284   1.451   7.697   5.987 -0.2156 -0.3911 -0.1042
 1255PNCE   AM111285   2.661  10.776   3.927 -0.1876  0.2148  0.1263
 1255PNCE   AM211286   2.902  11.026   3.926 -0.1235 -0.0235  0.1143
 1255PNCE   T1A11287   2.550  10.520   4.344 -0.0007  0.1010  0.2412
 1255PNCE   C2A11288   2.506  10.450   4.793 -0.0508  0.1210  0.1851
 1255PNCE   C3A11289   2.736  10.183   4.919  0.2063  0.4789 -0.1276
 1255PNCE   C1B11290   2.480  11.289   4.119 -0.1674 -0.0812 -0.1382
 1255PNCE   C2B11291   2.393  11.360   4.570  0.0048  0.1706  0.0354
 1255PNCE   C3B11292   2.243  11.501   4.958 -0.0476  0.0461 -0.1614
 1255PNCE   D4B11293   2.046  11.562   5.310  0.0784 -0.0355 -0.1316
 1255PNCE   C5B11294   1.868  11.243   5.351  0.0802  0.0216 -0.1819
 1255PNCE   C6B11295   2.009  10.785   5.514  0.0596 -0.0887  0.1787
 1256CHOL   ROH11296   1.803  10.639   3.947 -0.1249 -0.0897 -0.0829
 1256CHOL    R111297   1.684  10.432   4.099 -0.0688 -0.1063 -0.0607
 1256CHOL    R211298   1.802  10.185   4.133  0.0183 -0.0576  0.0005
 1256CHOL    R311299   1.768  10.241   4.397 -0.0366 -0.0206 -0.0147
 1256CHOL    R411300   1.695   9.958   4.372  0.1213 -0.0659  0.0387
 1256CHOL    R511301   1.574  10.116   4.460  0.0266 -0.1143 -0.0059
 1256CHOL    C111302   1.601   9.879   4.758  0.1297 -0.0362  0.0466
 1256CHOL    C211303   1.325   9.562   4.865 -0.2773  0.2839  0.0424
 1257XCA    COO11304   5.479  15.375   4.616 -0.1594 -0.0602  0.0910
 1257XCA     C111305   5.312  15.242   5.100  0.1951  0.0026 -0.1338
 1257XCA     C211306   5.149  15.266   5.422  0.0272  0.1101 -0.3158
 1257XCA     C311307   5.329  15.461   5.846 -0.2081 -0.1450 -0.0274
 1257XCA     C411308   5.229  15.500   6.254 -0.4028  0.2728 -0.2593
 1257XCA     C511309   4.886  15.659   6.549 -0.3133 -0.3734 -0.0342
 1257XCA     C611310   4.760  15.874   6.946  0.1408  0.0450 -0.0065
 1258PNCE   AM111311   7.290   4.284   4.172  0.0076 -0.2185  0.0556
 1258PNCE   AM211312   7.376   4.489   4.451  0.0436 -0.0485  0.4562
 1258PNCE   T1A11313   7.224   3.858   4.344  0.3316 -0.0331  0.0374
 1258PNCE   C2A11314   7.166   3.514   4.577 -0.0086  0.2190  0.0357
 1258PNCE   C3A11315   7.166   3.101   4.667 -0.0636  0.1913 -0.0451
 1258PNCE   C1B11316   7.176   4.872   4.776 -0.2840  0.2023 -0.2721
 1258PNCE   C2B11317   7.355   5.007   5.083  0.1778 -0.1963  0.0018
 1258PNCE   C3B11318   7.637   5.202   5.489  0.4019  0.1263 -0.3590
 1258PNCE   D4B11319   7.674   5.199   5.912  0.1359  0.0346  0.1837
 1258PNCE   C5B11320   7.752   5.639   6.065  0.1269  0.0091 -0.0527
 1258PNCE   C6B11321   7.642   5.827   6.388  0.0278  0.0664  0.0573
 1259CHOL   ROH11322  15.276  11.541   5.253 -0.0479  0.1387  0.2230
 1259CHOL    R111323  15.320  11.282   5.357  0.0884  0.1710  0.2470
 1259CHOL    R211324  15.337  11.231   5.628 -0.2684  0.1547  0.2672
 1259CHOL    R311325  15.141  11.050   5.574  0.0129 -0.0677 -0.0601
 1259CHOL    R411326  15.252  10.966   5.833 -0.3892  0.1388  0.1988
 1259CHOL    R511327  15.229  10.842   5.655  0.0837  0.0480  0.1818
 1259CHOL    C111328  15.019  10.642   5.902 -0.1955 -0.0792 -0.1483
 1259CHOL    C211329  15.096  10.481   6.323 -0.2357  0.1040 -0.0903
 1260XCA    COO11330   7.879   0.294   5.386  0.2051 -0.0727 -0.0825
 1260XCA     C111331   7.878   0.440   5.843  0.2607 -0.0931  0.0502
 1260XCA     C211332   7.931   0.433   6.242  0.0199 -0.0013 -0.0476
 1260XCA     C311333   8.220   0.325   6.671 -0.0926  0.1382 -0.3287
 1260XCA     C411334   8.250   0.270   7.141 -0.3557  0.0350 -0.1681
 1260XCA     C511335   8.470   0.036   7.434  0.5057 -0.0148  0.1509
 1260XCA     C611336   8.583  -0.059   7.805  0.0505 -0.0046 -0.1785
 1261XCA    COO11337   1.091   9.625   8.261  0.2863  0.0785 -0.0513
 1261XCA     C111338   0.979   9.539   7.846 -0.1400  0.3806  0.1633
 1261XCA     C211339   0.992   9.631   7.385  0.2140  0.0988  0.0870
 1261XCA     C311340   1.040   9.645   6.885 -0.2335 -0.1250 -0.1266
 1261XCA     C411341   1.040   9.772   6.424 -0.0020  0.1243 -0.4073
 1261XCA     C511342   1.230   9.971   6.031 -0.0879 -0.0719  0.0960
 1261XCA     C611343   1.196  10.217   5.650  0.0741 -0.0506  0.0848
 1262PNCE   AM111344   7.143   9.859   4.441  0.2349 -0.0971 -0.1721
 1262PNCE   AM211345   6.894   9.641   4.336 -0.0352 -0.0294  0.1845
 1262PNCE   T1A11346   7.411  10.011   4.731  0.4561  0.0846  0.3037
 1262PNCE   C2A11347   7.706   9.872   5.127  0.0708 -0.1345 -0.0533
 1262PNCE   C3A11348   7.478   9.893   5.483 -0.3047 -0.2809  0.0745
 1262PNCE   C1B11349   6.870   9.494   4.875 -0.0401  0.1346 -0.0016
 1262PNCE   C2B11350   6.587   9.370   5.296  0.0399 -0.0021 -0.1728
 1262PNCE   C3B11351   6.643   9.286   5.795 -0.2513 -0.1910 -0.2154
 1262PNCE   D4B11352   6.656   8.917   6.058 -0.2596  0.1984 -0.0624
 1262PNCE   C5B11353   7.062   8.569   6.089 -0.2175  0.4114 -0.0089
 1262PNCE   C6B11354   6.951   8.104   6.217  0.1099 -0.1479 -0.2081
 1263XCA    COO11355   9.980   9.836   4.789  0.2350  0.0958  0.0468
 1263XCA     C111356   9.582   9.530   4.823  0.0744  0.1512  0.2005
 1263XCA     C211357   9.233   9.331   4.771  0.0150 -0.2055 -0.0590
 1263XCA     C311358   8.925   9.169   5.083 -0.0279 -0.5466  0.3162
 1263XCA     C411359   8.562   9.070   5.332 -0.1101  0.1468 -0.0455
 1263XCA     C511360   8.349   9.405   5.527  0.2826 -0.1476 -0.0852
 1263XCA     C611361   8.133   9.593   5.799  0.1958 -0.1430 -0.2088
 1264XCA    COO11362  11.159   1.352   5.444 -0.0111 -0.0680  0.1192
 1264XCA     C111363  11.149   1.470   5.891 -0.4631  0.0041 -0.1424
 1264XCA     C211364  11.150   1.688   6.275 -0.2313  0.0435  0.0656
 1264XCA     C311365  11.331   1.964   6.491  0.1682 -0.0113  0.2454
 1264XCA     C411366  11.740   2.107   6.517  0.3395  0.0302 -0.3126
 1264XCA     C511367  11.791   2.324   6.802 -0.0169  0.2508 -0.2871
 1264XCA     C611368  11.804   2.098   7.106  0.1178 -0.1808  0.0805
 1265WN      WN11369   0.666   7.559   3.533 -0.0432  0.0282 -0.0221
 1266WN      WN11370   8.565   0.341  10.464 -0.0313  0.0269 -0.2202
 1267WN      WN11371   7.007   8.868  13.368 -0.3948 -0.1753 -0.0589
 1268WN      WN11372   2.923  15.165  12.879 -0.1299 -0.0136 -0.0380
 1269WN      WN11373  13.552   9.548  11.805 -0.0356  0.0494  0.1519
 1270WN      WN11374   1.572   2.562   4.370 -0.0864  0.0184 -0.0556
 1271WN      WN11375   7.471  10.338  12.278 -0.2586  0.0739  0.2203
 1272WN      WN11376  13.784  12.635   2.427 -0.1070 -0.0824 -0.0196
 1273WN      WN11377   6.001   5.078   3.665  0.0903 -0.1874 -0.1605
 1274WN      WN11378   9.944  13.248   0.269  0.1182 -0.3251  0.0906
 1275WN      WN11379   1.965  12.367  13.439  0.0871  0.0036 -0.0239
 1276WN      WN11380   0.270  15.714   4.571 -0.0024 -0.0515 -0.1891
 1277WN      WN11381   1.683   3.279   9.776  0.3912  0.2091 -0.2147
 1278WN      WN11382   3.873  13.664  13.189  0.1846  0.0361 -0.0666
 1279WN      WN11383   1.504   9.309   2.467 -0.1271  0.2398 -0.1671
 1280WN      WN11384   7.938   7.425   1.614 -0.1725  0.0213 -0.0271
 1281WN      WN11385   5.532  11.241   0.087 -0.0846 -0.0309 -0.3450
 1282WN      WN11386  11.543  14.983  11.293 -0.1110 -0.1350  0.0800
 1283WN      WN11387   0.594   7.715  12.594  0.0389  0.0212  0.0355
 1284WN      WN11388   8.221  12.738  11.972 -0.0713 -0.0063 -0.1406
 1285WN      WN11389   2.105   8.130   9.805  0.0452 -0.0721  0.2076
 1286WN      WN11390  11.589   2.038   3.029 -0.1526  0.0684 -0.0147
 1287WN      WN11391   5.137   7.515   0.943  0.2120  0.0116 -0.0298
 1288WN      WN11392   0.119  10.384   1.530 -0.1879 -0.0594  0.0328
 1289WN      WN11393  10.642   1.626  11.782 -0.3674  0.1624 -0.0621
 1290WN      WN11394  14.307  11.808   0.591  0.3083  0.0463 -0.2727
 1291WN      WN11395   4.220  15.394   4.855 -0.1196 -0.0255  0.1563
 1292WN      WN11396   3.799   3.711   9.888  0.0505  0.0006 -0.1118
 1293WN      WN11397   0.655   5.174   8.654 -0.0067 -0.1399 -0.1475
 1294WN      WN11398   5.058   0.900  10.986 -0.0910 -0.2277  0.1189
 1295WN      WN11399  13.753   0.188  12.935 -0.1646  0.0337  0.0429
 1296WN      WN11400   4.817   6.058   0.219  0.1802 -0.0429  0.1575
 1297WN      WN11401  10.198   4.210  12.816 -0.1743 -0.0345  0.0665
 1298WN      WN11402   1.454  15.785  12.916  0.4022  0.0509 -0.0368
 1299WN      WN11403  15.200   4.483   2.518  0.2496  0.0463 -0.0620
 1300WN      WN11404   7.723  12.405   1.979 -0.1549 -0.1015 -0.1195
 1301WN      WN11405   7.555  10.284   0.960  0.1992  0.2951 -0.0955
 1302WN      WN11406  10.371   1.778  10.649 -0.1066 -0.0605 -0.0188
 1303WN      WN11407   5.593   1.065   1.423  0.3601 -0.0136  0.0129
 1304WN      WN11408   5.669   8.646   3.896  0.0330 -0.1031 -0.1908
 1305WN      WN11409   1.173   1.684  12.361 -0.2744 -0.0588 -0.1742
 1306WN      WN11410  14.917   1.031  10.463  0.1824 -0.1317  0.0733
 1307WN      WN11411   8.597   7.998  12.154 -0.2818  0.0950  0.0443
 1308WN      WN11412   9.516  11.045  11.306  0.2444  0.2606  0.2024
 1309WN      WN11413   3.244  11.040   3.573 -0.1762  0.2585  0.0292
 1310WN      WN11414  11.319   6.214   3.258 -0.0830 -0.0531  0.0109
 1311WN      WN11415  10.836  11.500   3.147  0.1627 -0.0003  0.0542
 1312WN      WN11416  10.766  12.730   2.410  0.0539  0.0626 -0.1958
 1313WN      WN11417   3.840   3.027   0.786 -0.0170  0.1044  0.2767
 1314WN      WN11418  12.703   1.898  11.369  0.1918 -0.1150 -0.0619
 1315WN      WN11419   6.581  15.066   1.236  0.2267 -0.1567 -0.0335
 1316WN      WN11420   4.518  11.023  11.115 -0.1506  0.1541  0.1677
 1317WN      WN11421   9.850  14.578   1.774 -0.0788  0.0894  0.0095
 1318WN      WN11422   9.158   2.243  10.198  0.1542 -0.0096  0.0818
 1319WN      WN11423  11.287  15.079   9.594 -0.0098  0.1355  0.0670
 1320WN      WN11424   8.406  13.832   3.109 -0.1393  0.3033 -0.4983
 1321WN      WN11425  12.192   7.207   0.989 -0.1321 -0.1796 -0.0077
 1322WN      WN11426  15.349  10.810  12.031  0.0162  0.0444  0.0747
 1323WN      WN11427   1.825  14.164   9.538  0.0684 -0.1230  0.4527
 1324WN      WN11428   5.348  15.300  12.386  0.2610  0.0632 -0.1202
 1325WN      WN11429   3.129   8.799   3.068  0.0266 -0.0955 -0.1722
 1326WN      WN11430   5.016   5.747   1.273 -0.3150  0.0831  0.0102
 1327WN      WN11431  13.506   6.005   8.575 -0.1239 -0.3249 -0.1721
 1328WN      WN11432   4.897   7.773  13.172 -0.2705  0.1340 -0.1741
 1329WN      WN11433   5.491   9.611   1.053  0.3285  0.0182 -0.0105
 1330WN      WN11434   6.905  10.607   9.425 -0.2734  0.1554 -0.1897
 1331WN      WN11435   4.540  11.832  11.259 -0.1229 -0.3687 -0.2157
 1332WN      WN11436   4.164   7.509  10.009 -0.0783 -0.2533 -0.0669
 1333WN      WN11437   9.634   5.022  11.660 -0.1885 -0.2614  0.1802
 1334WN      WN11438   6.919   0.840   1.536  0.0550 -0.0015  0.0825
 1335WN      WN11439   8.435   7.864  10.385  0.1495 -0.1819  0.0389
 1336WN      WN11440   4.240   1.421  10.760  0.1030 -0.2641  0.1886
 1337WN      WN11441   9.825  12.046   8.777 -0.1639 -0.0865 -0.4440
 1338WN      WN11442  13.048  11.860   2.517  0.2512  0.1727  0.2653
 1339WN      WN11443  11.501   9.390   0.816 -0.4022  0.0923 -0.1029
 1340WN      WN11444   6.317   6.971  12.422  0.0278 -0.2012  0.1113
 1341WN      WN11445   7.680   3.177  13.521  0.2563  0.1785 -0.0975
 1342WN      WN11446   2.884   5.530   8.877 -0.0150  0.0735 -0.1678
 1343WN      WN11447   1.346   8.908  13.339 -0.1739 -0.1988 -0.2451
 1344WN      WN11448  13.428   9.507   1.733 -0.2799  0.0238 -0.1079
 1345WN      WN11449   7.779  10.928   2.273  0.2597 -0.1268  0.2303
 1346WN      WN11450  15.776   8.757   2.212  0.0467 -0.2266  0.1202
 1347WN      WN11451  12.014   1.276   3.421 -0.2470 -0.0017 -0.0383
 1348WN      WN11452   0.100  11.775   3.344 -0.2295 -0.1073  0.0886
 1349WN      WN11453   7.262  15.299  11.888 -0.0079  0.0911 -0.1261
 1350WN      WN11454  10.379   5.238   0.995 -0.1069  0.3107  0.3618
 1351WN      WN11455   4.209  15.247  10.124  0.3467  0.1960  0.1738
 1352WN      WN11456   9.328   9.932   8.649  0.1570  0.0587  0.0691
 1353WN      WN11457   3.901   7.114   9.601  0.1838 -0.3697  0.1917
 1354WN      WN11458  11.510   8.172  11.628 -0.0377 -0.0259  0.1838
 1355WN      WN11459  10.564   5.813  10.612  0.2490 -0.1319  0.1976
 1356WN      WN11460   2.456   9.249   0.791  0.1969  0.2984 -0.0319
 1357WN      WN11461   1.601   1.904   3.854  0.1271  0.0241 -0.1308
 1358WN      WN11462   3.841  12.932   1.909  0.1560 -0.1410 -0.1598
 1359WN      WN11463  14.166   6.848   2.665 -0.3147 -0.2296 -0.0707
 1360WN      WN11464   9.197  11.890   0.238  0.0566  0.3179  0.1564
 1361WN      WN11465   5.828   7.123  13.281  0.0408 -0.2077  0.1397
 1362WN      WN11466  12.340   7.831   2.162 -0.0328 -0.0518  0.2450
 1363WN      WN11467   7.937   1.745   4.631 -0.1555  0.0506 -0.2430
 1364WN      WN11468   7.729   5.263   9.163 -0.0890  0.2748 -0.3227
 1365WN      WN11469   2.441   8.917   1.206 -0.1873 -0.0932  0.1261
 1366WN      WN11470  10.124   2.764   4.025  0.0793 -0.1173  0.2000
 1367WN      WN11471   2.939  11.506  11.287  0.0256  0.1710 -0.1074
 1368WN      WN11472   8.748   4.414  10.311 -0.0036 -0.3764 -0.0572
 1369WN      WN11473   3.364  13.652   9.710  0.0353 -0.0661 -0.3775
 1370WN      WN11474   3.762   4.137   0.461 -0.0509 -0.0723  0.1804
 1371WN      WN11475  10.894   8.828  11.663 -0.0756  0.3361 -0.1163
 1372WN      WN11476  14.633   7.772  10.758  0.1334  0.1821 -0.2457
 1373WN      WN11477   7.728  10.980   0.935  0.1078  0.0939 -0.0295
 1374WN      WN11478   5.993   8.421   0.888 -0.2055  0.0384 -0.4101
 1375WN      WN11479   6.519   4.460   0.300  0.5478 -0.1652  0.2247
 1376WN      WN11480   1.202   1.931  12.928  0.2990  0.1104  0.0653
 1377WN      WN11481   0.877   5.777   0.003  0.0950 -0.3159 -0.1935
 1378WN      WN11482  15.436   9.575   2.362 -0.0186 -0.0273  0.1818
 1379WN      WN11483   7.702   3.879   9.056 -0.0717  0.0126  0.0032
 1380WN      WN11484   4.801   5.637  10.219 -0.0974  0.2678 -0.1227
 1381WN      WN11485   5.567   7.769   9.807  0.0505  0.2140  0.2110
 1382WN      WN11486  15.204  14.589  11.357  0.0827  0.1486 -0.0511
 1383WN      WN11487  12.557   8.540   0.389  0.0891  0.0844 -0.1984
 1384WN      WN11488  14.809  12.864  11.896 -0.3268  0.0432 -0.0156
 1385WN      WN11489  11.333  12.792  12.232 -0.1341 -0.0437 -0.2979
 1386WN      WN11490  14.834   5.126  11.978 -0.2556 -0.1274 -0.1419
 1387WN      WN11491   5.120  11.305   0.949  0.0075  0.2264 -0.2803
 1388WN      WN11492  11.465  12.884  13.098 -0.0844  0.1973  0.3702
 1389WN      WN11493   8.963  10.369   2.277 -0.0583 -0.1291  0.0523
 1390WN      WN11494   1.836   5.402  10.526  0.0468  0.0454  0.1878
 1391WN      WN11495   9.222   2.650   9.949  0.0822 -0.3167 -0.2100
 1392WN      WN11496  14.004  12.063  11.119 -0.2163 -0.0211  0.1299
 1393WN      WN11497   3.368   6.803   1.847  0.0216  0.2042 -0.1933
 1394WN      WN11498   2.851   6.895  11.873 -0.1395  0.0706  0.1194
 1395WN      WN11499   5.890   4.014  10.973  0.0130 -0.4247  0.0471
 1396WN      WN11500  12.962  13.199   4.146  0.0913 -0.4310 -0.1124
 1397WN      WN11501  13.343  10.120   2.972  0.0381 -0.1384 -0.0243
 1398WN      WN11502   8.463  15.262   4.205  0.0093 -0.0616  0.0818
 1399WN      WN11503  15.374   0.854   0.189  0.0264 -0.1835 -0.1287
 1400WN      WN11504   1.643  11.372  13.073  0.0861  0.2563  0.1753
 1401WN      WN11505  15.543   4.922   4.660  0.1392 -0.4504 -0.0312
 1402WN      WN11506   3.944  11.041  12.418  0.6954  0.2252  0.0609
 1403WN      WN11507  12.105   5.966  12.599  0.0998  0.0487 -0.0175
 1404WN      WN11508   0.108   7.640  12.234  0.0648  0.0848  0.1373
 1405WN      WN11509   3.453   0.156   1.454 -0.1180 -0.0280  0.2805
 1406WN      WN11510  12.260   0.746   8.979  0.0509  0.0508 -0.1601
 1407WN      WN11511   3.098  12.019   0.738  0.2546 -0.1425 -0.0791
 1408WN      WN11512   4.773   4.906   9.515 -0.3482 -0.0692  0.0733
 1409WN      WN11513   0.106   1.005   3.222  0.0466  0.0137 -0.0110
 1410WN      WN11514   8.509   8.723   0.084  0.0506 -0.0778  0.0150
 1411WN      WN11515  12.845  13.201   9.642 -0.4961  0.1016  0.2720
 1412WN      WN11516   6.950   6.561   0.100 -0.0414  0.2697  0.4176
 1413WN      WN11517   1.497   6.359  12.088  0.1019 -0.0381  0.3935
 1414WN      WN11518   1.296  11.306  12.505  0.0586  0.4384 -0.3371
 1415WN      WN11519   9.388   1.606   9.573  0.1331 -0.2502  0.0757
 1416WN      WN11520  12.193  12.638  12.796 -0.2774 -0.3028 -0.2136
 1417WN      WN11521   4.851   2.608   1.681  0.0383  0.1058  0.2424
 1418WN      WN11522   8.459  13.613   0.973  0.1601  0.0866  0.1124
 1419WN      WN11523  11.265   3.817   1.831  0.0255 -0.0651  0.0321
 1420WN      WN11524  10.311  12.057   9.703  0.3654 -0.0805 -0.0804
 1421WN      WN11525   5.839  14.693   2.254 -0.1218  0.0855 -0.3406
 1422WN      WN11526   7.042   7.902  13.041  0.1392 -0.3419  0.0218
 1423WN      WN11527   2.814   3.765  10.319  0.3289  0.1656  0.1119
 1424WN      WN11528   3.579   7.123   1.104  0.1186 -0.0860  0.1106
 1425WN      WN11529   7.851  13.543   9.974 -0.0976  0.0812 -0.1211
 1426WN      WN11530   8.010   7.745  12.865  0.4797  0.2388  0.0147
 1427WN      WN11531   9.796   3.582  11.010 -0.1304 -0.0077  0.0749
 1428WN      WN11532   2.620   7.981   0.952 -0.0601  0.2418  0.0081
 1429WN      WN11533   9.824   5.802   3.088 -0.3835 -0.0092 -0.1017
 1430WN      WN11534  11.804  12.631   9.842 -0.0525  0.0542 -0.1063
 1431WN      WN11535  13.759   5.871  12.112 -0.2907  0.0656  0.2155
 1432WN      WN11536   3.734  15.174   9.758 -0.1729  0.1913  0.0192
 1433WN      WN11537  12.548   7.188   2.575  0.0982 -0.3116  0.1997
 1434WN      WN11538  15.758   4.392   2.519  0.0949 -0.0415 -0.0613
 1435WN      WN11539   5.206   2.387  13.454 -0.1052  0.0084  0.0705
 1436WN      WN11540  10.146  12.116  12.691 -0.0145 -0.0187 -0.0192
 1437WN      WN11541   2.709   8.523  13.239 -0.0084  0.2480  0.2544
 1438WN      WN11542  14.900  15.330  11.250  0.1336 -0.0066 -0.2863
 1439WN      WN11543   8.689   1.766   2.277  0.0631 -0.1283 -0.0673
 1440WN      WN11544   0.489  14.180   9.860  0.0607 -0.1371 -0.1979
 1441WN      WN11545  11.238  15.142  12.242 -0.2252  0.1856  0.1683
 1442WN      WN11546   6.492   7.008   9.036  0.1011  0.0097 -0.1099
 1443WN      WN11547  15.574   6.973  13.478 -0.2195  0.2350 -0.0457
 1444WN      WN11548  11.631  12.780   8.974  0.0420 -0.0315 -0.1431
 1445WN      WN11549   4.621  13.586   3.574  0.0235 -0.2160 -0.0379
 1446WN      WN11550   7.080   6.238   2.365  0.2035  0.1141  0.0960
 1447WN      WN11551  10.079   7.220   3.084  0.0560  0.1216  0.0676
 1448WN      WN11552   2.546  10.596  12.515  0.1179  0.1354  0.0695
 1449WN      WN11553  11.850  13.664   1.503  0.0290 -0.1783  0.2053
 1450WN      WN11554   5.819  10.841  13.432 -0.1722  0.1229  0.0876
 1451WN      WN11555   0.506   9.414  12.801 -0.3256 -0.3177  0.1391
 1452WN      WN11556   1.437  13.058   2.291 -0.0637  0.1460 -0.0704
 1453WN      WN11557   6.072   4.165   0.948  0.0155  0.1679 -0.0566
 1454WN      WN11558   9.104   4.381  10.704 -0.0577  0.1145 -0.0362
 1455WN      WN11559   8.158  15.657  10.990 -0.0218 -0.2786 -0.0511
 1456WN      WN11560  13.683   5.627  11.244 -0.3704  0.1497  0.2359
 1457WN      WN11561  11.382   6.672  10.275  0.2339 -0.1099 -0.0371
 1458WN      WN11562  11.250   2.392   1.320 -0.0407 -0.1195 -0.0022
 1459WN      WN11563   3.684   7.052   3.538  0.0766  0.2085  0.1314
 1460WN      WN11564  14.813   3.860  10.510 -0.0006 -0.2302 -0.2987
 1461WN      WN11565   0.396   2.949   1.061  0.0620 -0.1466  0.1541
 1462WN      WN11566   6.170   1.578   4.643  0.0040 -0.0491  0.0904
 1463WN      WN11567  15.246   5.845   8.799  0.0461  0.1887  0.2531
 1464WN      WN11568   7.810   1.305   4.697  0.1504  0.3955  0.1346
 1465WN      WN11569   7.468   2.708  12.971  0.1823 -0.0993  0.1757
 1466WN      WN11570   4.882   5.336   2.916 -0.0051 -0.0316 -0.1753
 1467WN      WN11571   8.405  11.625   2.014 -0.0337 -0.1115  0.4108
 1468WN      WN11572   3.733   0.151  10.151  0.0367 -0.0021 -0.1491
 1469WN      WN11573  15.726  15.024   1.492  0.1667  0.0712  0.1249
 1470WN      WN11574   5.339  14.418  12.985 -0.1545 -0.2127  0.2335
 1471WN      WN11575   4.851  15.046   2.448  0.0170  0.0530  0.0852
 1472WN      WN11576   4.432   0.135   1.627  0.2793  0.0920  0.1067
 1473WN      WN11577   7.893   5.628  10.452  0.1697 -0.1674  0.0801
 1474WN      WN11578   1.681   0.383   2.356  0.0288 -0.4490  0.1683
 1475WN      WN11579   5.528  12.262  11.678  0.2915  0.2243 -0.1920
 1476WN      WN11580   9.211   5.930   0.324  0.1172  0.0613  0.3198
 1477WN      WN11581   5.050  12.387  10.759 -0.2547  0.1691 -0.1352
 1478WN      WN11582  13.028  14.898   9.401  0.0202 -0.0399  0.1280
 1479WN      WN11583  11.556  12.652   1.431  0.0299  0.0399  0.2326
 1480WN      WN11584  12.755   7.372  10.097  0.1239  0.0509  0.0324
 1481WN      WN11585  12.662  10.931  12.983 -0.1563 -0.3174  0.2290
 1482WN      WN11586  10.890  14.683   1.843 -0.0058  0.3277 -0.3040
 1483WN      WN11587   6.690  15.454  10.254 -0.1504  0.0603  0.0402
 1484WN      WN11588  11.216  12.307   8.780 -0.0538 -0.0228  0.1925
 1485WN      WN11589  14.540   6.052  13.200  0.1708  0.1684 -0.2516
 1486WN      WN11590   8.131   9.423  13.471 -0.0503  0.2444 -0.3519
 1487WN      WN11591   0.859  14.619   4.431 -0.0616 -0.0205 -0.0623
 1488WN      WN11592   2.605   2.329   3.095  0.0211 -0.2070 -0.1032
 1489WN      WN11593   9.307   3.340   4.869  0.0569  0.2419  0.2835
 1490WN      WN11594   8.265   1.454   4.370 -0.0941  0.0597 -0.1884
 1491WN      WN11595   9.446  13.883   3.523  0.2015 -0.3059 -0.0349
 1492WN      WN11596   6.104   5.261   1.985 -0.0160  0.0052 -0.1246
 1493WN      WN11597  11.184   3.555   9.583 -0.2158  0.1363 -0.2193
 1494WN      WN11598   3.088   6.240   2.191 -0.0108  0.1897 -0.2056
 1495WN      WN11599   1.971   0.084   9.249  0.1400  0.0046  0.1096
 1496WN      WN11600  11.194  15.166  10.293  0.0000  0.4840 -0.1678
 1497WN      WN11601  12.998  13.004   2.562  0.0563  0.2521 -0.2141
 1498WN      WN11602   7.147   7.476  12.529  0.2113  0.0053 -0.0714
 1499WN      WN11603   2.043   9.304   1.700  0.4169 -0.2422  0.1598
 1500WN      WN11604   6.193  15.315   1.106  0.2762 -0.1314  0.1278
 1501WN      WN11605   2.992  13.127   1.803 -0.0485  0.0865  0.0127
 1502WN      WN11606  10.244   3.898  10.184 -0.2329  0.1101  0.0087
 1503WN      WN11607  13.407  15.207  11.125 -0.2306 -0.2161 -0.1683
 1504WN      WN11608  11.162   5.804   2.599  0.1236 -0.2240 -0.4367
 1505WN      WN11609  14.593   8.088  11.636 -0.4516 -0.1207  0.0700
 1506WN      WN11610  11.368   1.395   4.348 -0.2121 -0.0021 -0.2290
 1507WN      WN11611  13.320  14.284  12.223  0.0368 -0.1744 -0.1991
 1508WN      WN11612  12.887   5.193  10.068  0.4335 -0.0471  0.0822
 1509WN      WN11613   5.810   2.586   2.421 -0.1210 -0.0993 -0.1098
 1510WN      WN11614   5.720  12.434  10.150  0.0871 -0.2337 -0.4266
 1511WN      WN11615   6.269  12.314   3.505 -0.0439 -0.1784  0.0948
 1512WN      WN11616   8.513   7.517   0.243  0.0538 -0.3338 -0.2062
 1513WN      WN11617  15.391   4.359   1.035 -0.0760  0.2824  0.2551
 1514WN      WN11618  14.210   6.965   9.234  0.0475  0.0039 -0.2132
 1515WN      WN11619   1.331  14.055   0.314 -0.0502 -0.0547  0.3198
 1516WN      WN11620  15.124  14.761   0.662  0.1320 -0.3091  0.0222
 1517WN      WN11621  10.626   7.780  10.672 -0.0523 -0.0285 -0.1688
 1518WN      WN11622   3.384   0.264   1.928  0.2769  0.0576  0.0890
 1519WN      WN11623   4.349  13.920   0.578 -0.3049  0.1683 -0.0853
 1520WN      WN11624   9.348   3.257   3.541  0.2997 -0.0737 -0.0287
 1521WN      WN11625  14.246   9.987   2.668 -0.3132 -0.0060  0.0175
 1522WN      WN11626  14.679   2.396  12.773  0.2188 -0.0029 -0.1278
 1523WN      WN11627   0.968   7.700  12.929  0.2447 -0.3509  0.2297
 1524WN      WN11628   4.516   3.193  10.134  0.2567 -0.1210 -0.0158
 1525WN      WN11629   6.044   4.404   0.521 -0.0146 -0.1252  0.0885
 1526WN      WN11630  14.366   8.342   0.670  0.1771 -0.1607 -0.2569
 1527WN      WN11631   8.312   8.326   1.132 -0.2972 -0.2684  0.0637
 1528WN      WN11632   0.941  15.150   0.485  0.4192  0.2213 -0.2120
 1529WN      WN11633   6.286  14.068   4.766  0.0052  0.1702 -0.0872
 1530WN      WN11634   0.870  13.536  10.530  0.4203 -0.0039 -0.1800
 1531WN      WN11635   8.291  10.583  11.119  0.0636  0.0000  0.1536
 1532WN      WN11636  14.127   1.881  10.299 -0.2949  0.0665  0.0464
 1533WN      WN11637  10.804   3.986   1.901  0.0227  0.1355  0.1022
 1534WN      WN11638  10.797  15.814   4.323 -0.1443  0.0104  0.1624
 1535WN      WN11639   4.055   4.533  11.816  0.1699 -0.1399 -0.1563
 1536WN      WN11640   1.860   3.627   0.354 -0.0257 -0.0280  0.1849
 1537WN      WN11641   8.633   1.329   0.793  0.0167 -0.0106  0.1000
 1538WN      WN11642   9.078   7.646   9.758  0.0609 -0.0996  0.0573
 1539WN      WN11643  10.732   2.114   4.213  0.3090  0.0970  0.2221
 1540WN      WN11644  14.064   4.597   1.141  0.3225  0.0327  0.2253
 1541WN      WN11645   7.887   6.070  12.135  0.3101  0.1088 -0.0832
 1542WN      WN11646   2.035  12.993   1.715  0.3621 -0.3093  0.0546
 1543WN      WN11647   2.312  15.294   1.687  0.2207  0.0104  0.2311
 1544WN      WN11648   7.586  14.066  12.773 -0.0805  0.2126 -0.0831
 1545WN      WN11649   5.392   4.448   9.981 -0.2177 -0.1017  0.0173
 1546WN      WN11650   5.039  10.840  11.022 -0.1323 -0.2747  0.1713
 1547WN      WN11651  14.531  10.370  10.389 -0.0933 -0.0998  0.0041
 1548WN      WN11652  10.861  15.532   3.789 -0.2557  0.1706  0.0764
 1549WN      WN11653  11.681   1.355   2.856  0.0402 -0.1084  0.0738
 1550WN      WN11654   0.856   0.298   0.795 -0.0678  0.1594  0.0651
 1551WN      WN11655   8.627  13.123  12.874 -0.2803  0.2307 -0.1281
 1552WN      WN11656   4.611  10.974   2.573  0.0393  0.2711  0.2521
 1553WN      WN11657  14.416   6.880   0.872  0.0230  0.0695  0.0508
 1554WN      WN11658   8.995   5.959  11.280  0.0561 -0.0510  0.0477
 1555WN      WN11659   1.224  12.463   9.227 -0.0498 -0.1873  0.3859
 1556WN      WN11660   1.621   9.130   1.494  0.0719  0.0013  0.3569
 1557WN      WN11661  10.478   1.226   1.940  0.2487 -0.1423  0.0017
 1558WN      WN11662   0.114  15.136   0.118  0.0321  0.2888 -0.0074
 1559WN      WN11663   2.039  12.947   0.160 -0.0403 -0.2607 -0.0979
 1560WN      WN11664   2.664   3.929   9.821  0.0562  0.2361  0.2285
 1561WN      WN11665   4.233   3.415   0.764  0.2938  0.0902 -0.0477
 1562WN      WN11666  14.071   7.694  10.571 -0.0525  0.2241  0.3911
 1563WN      WN11667  14.538  15.713   4.012 -0.0637  0.1765  0.0666
 1564WN      WN11668   2.529   3.764  12.589 -0.4522 -0.0698 -0.1450
 1565WN      WN11669  12.114  14.297   0.965 -0.1292  0.1785 -0.0984
 1566WN      WN11670   8.051   4.466   3.660 -0.0213  0.0869 -0.0901
 1567WN      WN11671  12.089   8.920  13.509  0.1267 -0.1920  0.0430
 1568WN      WN11672  11.771   7.224  12.964 -0.3554  0.1038 -0.0213
 1569WN      WN11673  13.278   7.953  11.999 -0.1574 -0.3030 -0.1523
 1570WN      WN11674   4.392  11.267   0.439  0.1052 -0.1484  0.0035
 1571WN      WN11675   9.931  12.997   9.978  0.1135 -0.2596 -0.1087
 1572WN      WN11676   9.111  12.207   2.470 -0.2605  0.0388 -0.2367
 1573WN      WN11677  14.451  11.604   1.994 -0.2238 -0.0568 -0.0191
 1574WN      WN11678   2.530   0.433   4.579  0.0725 -0.2801  0.1226
 1575WN      WN11679  10.027   2.120   9.876  0.1439 -0.1900 -0.2617
 1576WN      WN11680   7.088   8.416   0.086 -0.0923  0.0702  0.1916
 1577WN      WN11681   5.784  11.467  10.479 -0.0971 -0.1077 -0.0131
 1578WN      WN11682  11.097   5.347   1.541  0.0737 -0.1895 -0.0783
 1579WN      WN11683  12.591   8.721  13.386 -0.1496  0.0219 -0.3998
 1580WN      WN11684   8.814   7.933   8.219  0.0828  0.0989  0.0042
 1581WN      WN11685  13.753   9.320   9.143  0.1762  0.3531  0.1656
 1582WN      WN11686   6.339  15.815   3.001  0.0496 -0.1178 -0.0071
 1583WN      WN11687   5.131   7.432  11.585 -0.1237  0.1161  0.0905
 1584WN      WN11688  12.716  15.141  12.614 -0.2618  0.0255  0.0707
 1585WN      WN11689  13.733   5.728  12.679 -0.0170 -0.1024  0.2116
 1586WN      WN11690   1.727   7.882  11.947 -0.0093 -0.0135 -0.0299
 1587WN      WN11691   0.627  12.123  11.446  0.2949  0.0896  0.2676
 1588WN      WN11692  15.064   4.800  12.634  0.3246  0.0576  0.0229
 1589WN      WN11693   6.404   0.577   9.723  0.2829 -0.1478 -0.0103
 1590WN      WN11694   6.803  15.633  12.433 -0.2750 -0.0901 -0.3664
 1591WN      WN11695   9.923   1.510  10.424  0.1369 -0.3454  0.2387
 1592WN      WN11696  10.013  14.591  12.457 -0.0663 -0.0815  0.0144
 1593WN      WN11697  10.722   7.873   3.539 -0.0469 -0.0511 -0.0646
 1594WN      WN11698   2.947   7.683   0.618  0.2169 -0.0365  0.1072
 1595WN      WN11699   7.317   0.725   2.874  0.0322  0.1040  0.5808
 1596WN      WN11700  14.549   2.288  10.999 -0.0296  0.1757  0.1518
 1597WN      WN11701   3.034   3.146   9.899  0.1246  0.1261  0.1645
 1598WN      WN11702  14.232   9.214  11.120  0.1564 -0.0556 -0.2286
 1599WN      WN11703  12.020  14.022  11.323 -0.0223 -0.0761 -0.1122
 1600WN      WN11704  12.517   7.597   8.370  0.1237 -0.0354  0.3020
 1601WN      WN11705   7.640  13.886   1.852 -0.1473 -0.2656  0.1519
 1602WN      WN11706   4.982  12.129   1.704  0.3186 -0.2240  0.4485
 1603WN      WN11707  13.342   2.028  10.263 -0.1166 -0.0534  0.2608
 1604WN      WN11708   1.447   3.336  11.991  0.0949  0.3202  0.0432
 1605WN      WN11709   5.272   8.545   9.916 -0.3234 -0.0460 -0.0242
 1606WN      WN11710  11.942  12.771   1.142  0.1516  0.1033 -0.0311
 1607WN      WN11711  13.935   0.239   4.277 -0.2870  0.0169 -0.0664
 1608WN      WN11712   2.542   1.343   0.489 -0.2143  0.1573  0.0309
 1609WN      WN11713   3.593  15.189   3.490  0.1248  0.1733 -0.0492
 1610WN      WN11714   4.398   3.831   3.497  0.2510  0.2138 -0.0052
 1611WN      WN11715   0.855   3.585  11.914  0.1668 -0.0831 -0.0374
 1612WN      WN11716   2.527  11.716  12.622 -0.3565  0.1171  0.2826
 1613WN      WN11717  12.118   9.344   0.516 -0.2666  0.3872 -0.0124
 1614WN      WN11718   0.491  11.690  10.040 -0.3248  0.0970 -0.0987
 1615WN      WN11719   3.444  13.321   1.700 -0.0453 -0.2893 -0.2295
 1616WN      WN11720  13.441   0.204   3.964  0.0282  0.0024 -0.1983
 1617WN      WN11721  14.308   2.219   3.764 -0.1930 -0.1171  0.0086
 1618WN      WN11722   3.884   3.427  13.365 -0.1826 -0.1817  0.0200
 1619WN      WN11723   2.166   0.161   2.818  0.2532 -0.1046  0.1479
 1620WN      WN11724   8.161  14.247   2.282  0.0279 -0.1181 -0.2249
 1621WN      WN11725   7.824  11.987  12.404  0.1533  0.0496 -0.0332
 1622WN      WN11726  14.307   4.077   3.499 -0.0088  0.2077 -0.3285
 1623WN      WN11727   2.689  13.086  10.348 -0.1236 -0.0838 -0.0276
 1624WN      WN11728   9.064   1.085  10.469  0.1929 -0.4071  0.1816
 1625WN      WN11729   9.059   0.152   1.506  0.0534 -0.1348  0.2073
 1626WN      WN11730  15.062   7.097   8.342 -0.1435 -0.1939 -0.1156
 1627WN      WN11731   8.121   3.147   2.097 -0.1401  0.0079 -0.0453
 1628WN      WN11732  14.940   0.799   4.044 -0.1415  0.2009 -0.0522
 1629WN      WN11733  10.457   6.865  10.899 -0.2735  0.2353  0.1447
 1630WN      WN11734   8.835   9.565   2.894 -0.3066  0.0480 -0.1772
 1631WN      WN11735  11.683   2.333   4.797  0.1455 -0.0628 -0.1030
 1632WN      WN11736   7.672   0.840   3.492  0.1227  0.1756 -0.0630
 1633WN      WN11737   5.479   7.514   2.401  0.0001 -0.2995  0.1626
 1634WN      WN11738   1.993   4.110   0.945  0.0351  0.0783 -0.1703
 1635WN      WN11739  12.433  10.685   4.027  0.1173 -0.1300  0.0429
 1636WN      WN11740  10.894   0.476   3.440  0.1138  0.0176 -0.1328
 1637WN      WN11741   7.391   7.392   9.088  0.0556 -0.3709  0.1842
 1638WN      WN11742  12.614  13.628   9.687 -0.2527  0.0563  0.1625
 1639WN      WN11743  10.724  11.770  11.900  0.2708  0.0955  0.1488
 1640WN      WN11744  15.784  13.953  12.666  0.1207 -0.4719  0.1273
 1641WN      WN11745  12.528  12.165   9.888  0.1795 -0.0246 -0.3684
 1642WN      WN11746  14.269   6.658  12.499 -0.0779 -0.1123  0.0707
 1643WN      WN11747  11.740  10.888   4.573 -0.0308 -0.2610 -0.0187
 1644WN      WN11748   2.288  13.251  11.155 -0.3724 -0.0306 -0.3051
 1645WN      WN11749   0.342  11.733  11.479  0.0298 -0.0452 -0.1372
 1646WN      WN11750   6.617   4.535   1.948 -0.1424 -0.3843 -0.1846
 1647WN      WN11751  14.005  11.395  11.134  0.1335  0.1015  0.1417
 1648WN      WN11752   0.020  10.052  10.899 -0.0434  0.0989  0.1104
 1649WN      WN11753   9.228   1.971  11.952  0.1205  0.1026  0.1899
 1650WN      WN11754  11.525   0.996   2.541 -0.3124  0.0827  0.0666
 1651WN      WN11755   9.546   1.877  10.507  0.1677  0.2322 -0.4695
 1652WN      WN11756   0.161  11.446   0.583 -0.0320  0.0802  0.0708
 1653WN      WN11757   5.131   8.810  12.401  0.0059 -0.1699  0.1436
 1654WN      WN11758  12.465   3.012   9.932  0.1444 -0.0203  0.1723
 1655WN      WN11759   5.922  14.582   0.580  0.2631  0.0245 -0.2210
 1656WN      WN11760   4.287  13.974   1.981  0.0875 -0.1159  0.3119
 1657WN      WN11761   3.023   1.325   3.762 -0.4213  0.0287  0.0734
 1658WN      WN11762  12.456   1.653   4.250 -0.2112 -0.0528 -0.2642
 1659WN      WN11763  13.937   0.960   1.499 -0.0810 -0.0428 -0.0307
 1660WN      WN11764   7.893   8.211  10.318 -0.2914  0.2878  0.0390
 1661WN      WN11765  14.800  12.347  10.750 -0.0088  0.1635 -0.2160
 1662WN      WN11766   2.157  10.984  12.264 -0.2406  0.0679  0.0848
 1663WN      WN11767  12.000  14.154   8.996 -0.4293 -0.0669  0.2476
 1664WN      WN11768   9.923  12.504  10.385  0.0818 -0.1152 -0.1734
 1665WN      WN11769   3.577   7.505  13.211  0.2457  0.1425  0.3017
 1666WN      WN11770   1.262   2.631  10.179  0.0950  0.0413  0.0338
 1667WN      WN11771  10.714   4.687   1.147 -0.2218  0.0596 -0.1257
 1668WN      WN11772   1.446   3.844   3.681 -0.1987 -0.2799 -0.3845
 1669WN      WN11773   9.008   4.376   1.143 -0.1845 -0.2174  0.0386
 1670WN      WN11774   4.649  10.999   0.878 -0.1182  0.0766 -0.1062
 1671WN      WN11775  11.529   8.083  10.684 -0.2164  0.2608 -0.1062
 1672WN      WN11776  12.642  11.155   2.146  0.1299  0.0070 -0.2053
 1673WN      WN11777  10.770   6.773   9.611  0.0459  0.2156  0.1595
 1674WN      WN11778  15.699   8.308  10.834  0.1643  0.4237  0.5821
 1675WN      WN11779   4.106  10.339   2.046  0.2955  0.0832  0.2467
 1676WN      WN11780  14.397  12.309   0.792  0.2683  0.0148  0.1479
 1677WN      WN11781  15.300  11.980   0.485 -0.1323 -0.0721 -0.0400
 1678WN      WN11782   1.745  12.034   9.296 -0.0229  0.0419 -0.4083
 1679WN      WN11783   6.678   3.095   1.744 -0.0184  0.0616  0.0296
 1680WN      WN11784   9.570  13.364  10.690  0.0749 -0.2875 -0.0635
 1681WN      WN11785  15.686  10.102   3.475  0.0224  0.0309 -0.2005
 1682WN      WN11786  14.881  13.414   1.297  0.2016 -0.0720  0.2188
 1683WN      WN11787   8.752   5.520  10.292 -0.3563 -0.0194 -0.1995
 1684WN      WN11788   6.477  14.511   1.346 -0.0285  0.0611 -0.0800
 1685WN      WN11789  15.320   2.064   3.543  0.1857 -0.2792 -0.3015
 1686WN      WN11790   3.170   6.143   0.477  0.1108 -0.4304  0.0213
 1687WN      WN11791   2.179   3.169   8.915 -0.1671 -0.0789  0.2206
 1688WN      WN11792  13.281  15.611   3.832  0.0717 -0.0501 -0.0877
 1689WN      WN11793   4.966   8.048  12.701  0.0867 -0.3083 -0.1485
 1690WN      WN11794   0.176   3.288   3.852 -0.0242  0.0258 -0.1632
 1691WN      WN11795   8.614  15.648  11.145  0.1158 -0.0650 -0.0597
 1692WN      WN11796  13.827   5.757   0.239 -0.0926 -0.0248  0.0254
 1693WN      WN11797  13.145   5.019  12.942  0.1697  0.3571 -0.1281
 1694WN      WN11798   0.016   7.105  11.419  0.2550 -0.0668  0.0856
 1695WN      WN11799   3.871   9.333  11.249 -0.0673 -0.1966  0.4022
 1696WN      WN11800   1.383  11.793   0.000  0.2357 -0.0540  0.1899
 1697WN      WN11801  12.313  13.237   9.507 -0.0864  0.0001  0.0854
 1698WN      WN11802  15.294  13.113   2.103  0.0972  0.0633  0.1227
 1699WN      WN11803   7.415   7.959  11.291  0.3526  0.2453  0.0253
 1700WN      WN11804  10.065  15.492   1.874 -0.0896 -0.1374 -0.0011
 1701WN      WN11805   4.239   4.572   8.822 -0.0971  0.1580 -0.0739
 1702WN      WN11806  13.411   1.998   3.670  0.0826 -0.0637  0.0520
 1703WN      WN11807   9.107   2.861   3.751  0.0750  0.0771 -0.1469
 1704WN      WN11808   2.975   9.986  10.951  0.1104 -0.0352  0.0166
 1705WN      WN11809   0.438  11.579   8.486  0.0274  0.0002 -0.3449
 1706WN      WN11810   7.968   1.038   4.286 -0.0438 -0.0317  0.3217
 1707WN      WN11811  15.043   2.375   2.423  0.1487  0.2534 -0.1783
 1708WN      WN11812  14.750   1.192   3.125 -0.0869 -0.2003  0.1040
 1709WN      WN11813  10.444   4.264   2.132  0.1111 -0.1371 -0.1115
 1710WN      WN11814  14.995   1.918   0.243  0.2480 -0.0735 -0.2378
 1711WN      WN11815   5.683   7.288   9.980  0.1508 -0.2084 -0.0502
 1712WN      WN11816  10.747  10.633  12.761 -0.0108  0.0662 -0.1376
 1713WN      WN11817  12.273   1.213  12.192  0.2913 -0.0824 -0.5997
 1714WN      WN11818   1.384   4.906  12.994  0.5480 -0.2368 -0.1976
 1715WN      WN11819   0.568  14.267   2.547  0.1643 -0.1054  0.0076
 1716WN      WN11820  12.933  10.954   2.641 -0.0989  0.3194  0.1569
 1717WN      WN11821   7.831  12.997  11.600 -0.1613  0.1379  0.0789
 1718WN      WN11822   0.133   0.815   2.055  0.1465  0.0815  0.0860
 1719WN      WN11823  14.252   8.469   8.791 -0.0937  0.0979 -0.2541
 1720WN      WN11824   7.752  14.520  12.586  0.0200 -0.0951 -0.1921
 1721WN      WN11825   8.855   4.998   3.443  0.0384  0.1904  0.5237
 1722WN      WN11826   4.536   8.575   0.747  0.2754 -0.1060 -0.0755
 1723WN      WN11827  14.049   0.730  13.501 -0.2737 -0.0294 -0.0564
 1724WN      WN11828  11.840  15.784  12.780 -0.0259 -0.1966 -0.3514
 1725WN      WN11829   9.076   4.808  10.486 -0.0786  0.3366  0.0023
 1726WN      WN11830   3.883   6.026   0.765 -0.2376  0.0424 -0.0732
 1727WN      WN11831  12.334   8.522  10.727  0.0770  0.1040 -0.1110
 1728WN      WN11832  14.990   4.135   1.361  0.4482 -0.1952  0.0559
 1729WN      WN11833  14.921  11.220   3.089  0.1992 -0.4161 -0.2043
 1730WN      WN11834  13.039   4.691   9.281 -0.2453  0.1584  0.0651
 1731WN      WN11835   2.009  10.780   8.183 -0.0851 -0.3102 -0.0903
 1732WN      WN11836  11.906   4.621   1.264  0.0045  0.0201 -0.3076
 1733WN      WN11837   4.426   4.178  10.951 -0.0740 -0.0810 -0.3250
 1734WN      WN11838  14.955   7.495  13.313 -0.0557 -0.0475  0.0103
 1735WN      WN11839   4.112   8.911  11.322 -0.1907  0.1133 -0.2247
 1736WN      WN11840  13.191   1.571   4.285 -0.1955 -0.1999  0.1553
 1737WN      WN11841  14.345   8.065  11.119 -0.0788  0.0485  0.1306
 1738WN      WN11842   9.058   2.710   1.950  0.1950 -0.0961 -0.1863
 1739WN      WN11843   4.062   5.948   8.728 -0.1782 -0.0122  0.1928
 1740WN      WN11844  14.822   5.941  12.369 -0.2327 -0.1192 -0.1860
 1741WN      WN11845   8.291   4.520  10.167  0.0273  0.0568 -0.1928
 1742WN      WN11846   2.927  14.764   2.984 -0.2764  0.0658 -0.0206
 1743WN      WN11847   2.508  10.605   8.408  0.0886  0.2148 -0.2472
 1744WN      WN11848   1.850  10.743  11.939  0.4069  0.1170 -0.0518
 1745WN      WN11849   8.048   6.222   2.658 -0.2024 -0.1311 -0.1721
 1746WN      WN11850   4.396   2.201  11.889  0.1754  0.2139 -0.2050
 1747WN      WN11851  12.077   2.355   0.480  0.1732  0.0672  0.0534
 1748WN      WN11852  11.313   7.709   1.277 -0.0046  0.4073  0.0455
 1749WN      WN11853   4.315   2.002   9.513  0.2262 -0.1914  0.0157
 1750WN      WN11854   7.390   9.384   9.828 -0.1670  0.1201  0.1563
 1751WN      WN11855  10.429   0.116  10.771  0.0072  0.2735  0.3660
 1752WN      WN11856   7.434   7.683  12.100 -0.1824 -0.4352 -0.1456
 1753WN      WN11857  13.479  11.003  12.487  0.0607 -0.1585 -0.0123
 1754WN      WN11858   0.451  12.727   1.454  0.0740  0.0509 -0.0877
 1755WN      WN11859   9.668   1.095   4.399 -0.0364 -0.0821 -0.0372
 1756WN      WN11860  11.365   0.914   4.374 -0.1511 -0.2654 -0.1550
 1757WN      WN11861   9.198   9.021   3.707 -0.2115 -0.2750  0.1637
 1758WN      WN11862   4.602   1.769  10.967  0.2411 -0.3047  0.3482
 1759WN      WN11863  15.687   5.362  11.751  0.1189 -0.0890  0.0569
 1760WN      WN11864   4.507  13.648   1.620  0.1121 -0.4681 -0.0964
 1761WN      WN11865   3.651   4.341  12.619  0.1832  0.1607 -0.0895
 1762WN      WN11866  15.003   8.296   2.337 -0.1243 -0.3534  0.0236
 1763WN      WN11867  13.930  13.083  10.077 -0.2424 -0.2778 -0.2678
 1764WN      WN11868   3.596   6.422   0.565  0.0941 -0.0195  0.2845
 1765WN      WN11869   7.146  12.913   3.376 -0.3048  0.0187 -0.3034
 1766WN      WN11870  15.569  14.108   2.254  0.3227 -0.4921 -0.4160
 1767WN      WN11871   7.607  14.036   0.581  0.2213  0.0613 -0.2440
 1768WN      WN11872   0.108   0.793   9.244  0.1636 -0.1348  0.1707
 1769WN      WN11873   7.309  13.600  12.754 -0.1081 -0.2616 -0.0696
 1770WN      WN11874   5.554   7.184  11.935 -0.1727  0.0762  0.1481
 1771WN      WN11875   8.984   3.861  10.870 -0.1857  0.1248  0.2981
 1772WN      WN11876  12.313   7.660  10.129 -0.1794  0.0982 -0.2290
 1773WN      WN11877   9.220   5.639   9.215  0.1217 -0.3048 -0.0311
 1774WN      WN11878   0.486   7.293   3.953 -0.4028  0.1207 -0.2215
 1775WN      WN11879   2.488   8.174   2.862  0.0052  0.0462 -0.1398
 1776WN      WN11880   3.862  14.961   9.251  0.1058 -0.4374  0.2316
 1777WN      WN11881  10.813  12.316  10.677  0.0502 -0.0205 -0.1034
 1778WN      WN11882   9.891   3.017  12.916  0.0356 -0.0747 -0.2256
 1779WN      WN11883   1.729   1.188  12.715 -0.2956  0.2733  0.2030
 1780WN      WN11884   2.168   3.970   3.922 -0.1318  0.0870 -0.2658
 1781WN      WN11885   6.485  12.034  10.257  0.0041  0.0619  0.2789
 1782WN      WN11886  11.931  10.747   4.130  0.2688 -0.1747 -0.0919
 1783WN      WN11887  14.154   5.628   1.371 -0.0326  0.1421 -0.0914
 1784WN      WN11888   5.694  12.135  10.571  0.1936 -0.1600 -0.0479
 1785WN      WN11889   7.325   3.082  11.027 -0.2423  0.0359  0.0353
 1786WN      WN11890   2.595   6.763  11.432  0.0071  0.0469  0.1407
 1787WN      WN11891   5.623   8.210   4.131 -0.2154 -0.0622 -0.1702
 1788WN      WN11892  13.849   8.738   1.566  0.3045  0.0763 -0.0754
 1789WN      WN11893   4.184   3.719  10.923  0.1682  0.1457  0.0064
 1790WN      WN11894  14.865   5.380   1.591  0.0008 -0.0983 -0.0879
 1791WN      WN11895  10.850  10.789  10.239  0.0623  0.2651  0.0574
 1792WN      WN11896  10.426  15.521   2.316 -0.0288  0.2624 -0.1341
 1793WN      WN11897  15.290   6.493   9.507  0.1025 -0.1556 -0.0681
 1794WN      WN11898  13.239   5.554  12.719  0.0654 -0.1667  0.0801
 1795WN      WN11899   2.684  14.484   1.077  0.1023 -0.1148 -0.0873
 1796WN      WN11900   2.924  11.161   9.712  0.0115  0.1062 -0.1790
 1797WN      WN11901  11.517  12.287  12.299  0.1983  0.2065 -0.1303
 1798WN      WN11902  11.616  13.647  12.245 -0.1714 -0.1451  0.2101
 1799WN      WN11903  14.539   0.752  11.837  0.0597  0.1023  0.0871
 1800WN      WN11904  11.124  10.275   0.517  0.2112 -0.0803  0.2981
 1801WN      WN11905   0.978  15.719  12.751 -0.0441  0.0419 -0.1530
 1802WN      WN11906  13.539  10.433  12.152  0.1872  0.1363  0.1028
 1803WN      WN11907   6.550   4.883   9.474  0.0770  0.7408 -0.2517
 1804WN      WN11908   3.109   9.298   3.889 -0.1386 -0.2131  0.1758
 1805WN      WN11909  10.664   3.324   9.609 -0.1000  0.0627 -0.1679
 1806WN      WN11910   4.304   7.777   1.408 -0.0346  0.0863  0.2396
 1807WN      WN11911  12.098  13.337   0.774 -0.1537  0.1525 -0.2126
 1808WN      WN11912  10.567   6.150   9.349  0.0686 -0.0076 -0.2166
 1809WN      WN11913  11.050   1.390   1.151 -0.0914 -0.0593  0.1424
 1810WN      WN11914   3.934  10.909   1.254 -0.2224 -0.1340  0.1453
 1811WN      WN11915   3.695  11.388   2.282  0.1984  0.0092  0.0115
 1812WN      WN11916  10.853   8.996   3.117 -0.0032  0.1847 -0.0413
 1813WN      WN11917  14.147   1.690   4.077  0.1563 -0.2825 -0.0309
 1814WN      WN11918  10.598   5.596   4.473 -0.0159  0.4149  0.0301
 1815WN      WN11919  11.611   5.704  12.751  0.0639 -0.1003 -0.1269
 1816WN      WN11920   7.353  12.984  11.685 -0.2699  0.1006  0.0209
 1817WN      WN11921   3.497   3.559  13.086  0.0630  0.1780 -0.2472
 1818WN      WN11922  13.069   0.508  11.440  0.1217 -0.0631 -0.0637
 1819WN      WN11923   8.740   9.093   2.961  0.2897  0.0158  0.0801
 1820WN      WN11924   5.548  15.528   9.903 -0.0274 -0.0513  0.1639
 1821WN      WN11925   3.409   1.260  12.917  0.0145 -0.1597  0.0370
 1822WN      WN11926   4.717   4.649   9.988 -0.2071  0.3378 -0.0033
 1823WN      WN11927   4.039  11.251   9.253 -0.1311  0.0105 -0.3623
 1824WN      WN11928   1.974   1.138   1.706  0.0621  0.1513 -0.0362
 1825WN      WN11929  13.932   7.207  13.080  0.0012 -0.0360  0.0126
 1826WN      WN11930   4.740   6.479   0.523  0.2330 -0.0439  0.1565
 1827WN      WN11931   7.348   1.924  12.450 -0.0290 -0.1163 -0.2758
 1828WN      WN11932   2.547   4.056  11.605 -0.4038 -0.4981 -0.2253
 1829WN      WN11933  11.808   9.256   9.186 -0.0912  0.1073 -0.0354
 1830WN      WN11934   3.397   9.226  11.330 -0.2389 -0.0241  0.4834
 1831WN      WN11935   4.123   2.769   0.361 -0.0572  0.1927  0.1715
 1832WN      WN11936   8.450   6.726   0.940  0.3093 -0.2424 -0.0555
 1833WN      WN11937   2.563   5.717   9.901 -0.2482  0.0834  0.4546
 1834WN      WN11938  11.960  11.930  11.370  0.0412  0.0555  0.0532
 1835WN      WN11939   4.421   5.504   8.823  0.2381  0.0649  0.0456
 1836WN      WN11940  10.104   1.331   1.154 -0.2114  0.1920 -0.2140
 1837WN      WN11941  14.696   6.608  12.895  0.4034  0.0749 -0.2334
 1838WN      WN11942   8.580   3.704   2.202 -0.3640  0.3020 -0.2082
 1839WN      WN11943   7.325   3.348   4.142 -0.2986  0.0944 -0.0530
 1840WN      WN11944   4.683  12.464   8.838 -0.0150 -0.0436  0.4183
 1841WN      WN11945   2.635  11.045  13.225 -0.1010 -0.0023 -0.0444
 1842WN      WN11946   7.335  15.366  11.374  0.2181 -0.0746 -0.2429
 1843WN      WN11947   4.860   9.480   1.607 -0.0901 -0.2224 -0.2006
 1844WN      WN11948  14.906   4.106   4.171 -0.0102  0.4034  0.1163
 1845WN      WN11949  14.483  11.021  11.625  0.0221  0.1024  0.0175
 1846WN      WN11950  14.556   2.694  11.317  0.1346 -0.0782 -0.0115
 1847WN      WN11951   0.032   1.965   1.409  0.2210 -0.1015  0.2304
 1848WN      WN11952  14.293   7.968   9.223  0.3217  0.2828  0.3834
 1849WN      WN11953   8.868  12.776   0.208  0.0452 -0.3445  0.0622
 1850WN      WN11954   6.158  10.282   3.557 -0.0029  0.0228  0.0654
 1851WN      WN11955  15.393   3.377  12.049 -0.0956 -0.1211  0.2270
 1852WN      WN11956   9.765   0.067   4.369  0.0705  0.0351  0.2762
 1853WN      WN11957  15.535   4.586   8.156 -0.0068 -0.0215 -0.0673
 1854WN      WN11958   0.686   4.994   1.189 -0.0818  0.0403  0.3172
 1855WN      WN11959   2.730  15.239   2.604  0.0970  0.2240  0.3360
 1856WN      WN11960   1.186  15.858   3.876  0.0558  0.2865 -0.0002
 1857WN      WN11961  11.164   0.871  10.602  0.1931  0.3681 -0.2456
 1858WN      WN11962   6.459   0.676   0.811  0.3747  0.3437 -0.2028
 1859WN      WN11963   8.721   1.320   4.830 -0.0799  0.2977 -0.0283
 1860WN      WN11964   5.133  11.342  10.711 -0.2192 -0.3158 -0.0823
 1861WN      WN11965   5.963  12.969   2.255  0.0514  0.1622  0.1095
 1862WN      WN11966   0.403   5.953   2.138  0.0737  0.1061  0.0833
 1863WN      WN11967  12.624   2.822  13.043  0.2516  0.1971  0.0873
 1864WN      WN11968   6.608   5.551   1.156 -0.2864 -0.0087  0.1762
 1865WN      WN11969   1.256   5.892   8.737  0.0105  0.0398  0.0898
 1866WN      WN11970  12.914   2.348  10.486  0.0869 -0.2783  0.1942
 1867WN      WN11971  11.697  12.022   4.398  0.2962  0.1620 -0.0135
 1868WN      WN11972   6.802  10.477   1.427  0.0324  0.0772  0.2507
 1869WN      WN11973  11.957  13.177  13.430 -0.0941  0.3192  0.0485
 1870WN      WN11974   4.473   1.983   0.463  0.0679  0.1465 -0.0730
 1871WN      WN11975   6.728   7.799  12.520  0.0001  0.1101  0.2519
 1872WN      WN11976  13.639   1.294   1.732 -0.0200  0.1790 -0.3176
 1873WN      WN11977   9.713   3.238   2.201 -0.2435 -0.1106  0.0579
 1874WN      WN11978   9.087  15.528   4.777 -0.1958  0.2974  0.1230
 1875WN      WN11979   7.566  12.634  11.423  0.1334 -0.1401  0.0985
 1876WN      WN11980  14.998   3.698   2.771 -0.2637 -0.0131 -0.2435
 1877WN      WN11981   8.332   2.769   3.195 -0.1590  0.0550 -0.1396
 1878WN      WN11982   6.645   1.317   5.142  0.0744 -0.3766  0.1815
 1879WN      WN11983   6.254   6.868   2.451 -0.0959 -0.2802 -0.0184
 1880WN      WN11984   7.308  15.848   1.900 -0.0586  0.1661 -0.1425
 1881WN      WN11985   2.170   3.566   0.727  0.2806  0.2239 -0.1330
 1882WN      WN11986  11.678   0.828  10.502  0.3336 -0.0483  0.0976
 1883WN      WN11987   8.831   8.353   9.546  0.2602 -0.3728  0.1998
 1884WN      WN11988   8.217   0.540  12.468 -0.2093  0.0044  0.0295
 1885WN      WN11989  13.573  13.654  13.223  0.0723  0.1808  0.1373
 1886WN      WN11990   7.179   3.996  12.115  0.3878 -0.0810 -0.0122
 1887WN      WN11991   6.437   8.765   0.288  0.0145  0.1414 -0.0621
 1888WN      WN11992   5.575   7.506   0.635 -0.1603  0.1598  0.2461
 1889WN      WN11993   5.693  15.270   2.078 -0.1591 -0.0151  0.3617
 1890WN      WN11994   2.998  10.250  13.298 -0.2665 -0.1494 -0.2596
 1891WN      WN11995  11.282  13.603   1.269 -0.1428  0.2787 -0.0111
 1892WN      WN11996   6.410  15.597  12.104 -0.2202  0.0981 -0.1584
 1893WN      WN11997   6.090   7.443   9.704  0.0221  0.0926 -0.3138
 1894WN      WN11998   5.778  14.083  11.522  0.0361  0.2468 -0.2136
 1895WN      WN11999  14.725  15.766  11.162 -0.3301 -0.1797  0.1002
 1896WN      WN12000   5.300   9.207   9.271  0.1921 -0.1815 -0.1162
 1897WN      WN12001  11.749  10.626   1.151  0.2366 -0.1352 -0.2740
 1898WN      WN12002   9.724   0.112  12.415 -0.0872 -0.1980  0.1457
 1899WN      WN12003   1.323   2.988  12.823  0.1857  0.0767 -0.0507
 1900WN      WN12004  11.567   7.629   3.801 -0.2854 -0.0599 -0.1897
 1901WN      WN12005   7.319   2.023   1.662 -0.0253  0.2814  0.3615
 1902WN      WN12006  12.371   0.119   2.011  0.0884  0.0142 -0.3253
 1903WN      WN12007   6.901   2.456   4.194  0.1476  0.1735 -0.1876
 1904WN      WN12008   5.146   7.321   0.505 -0.1654  0.2609 -0.2307
 1905WN      WN12009   2.341   5.001   3.627 -0.3088 -0.0928 -0.0895
 1906WN      WN12010   4.201  11.821  11.628 -0.0724 -0.0468  0.0743
 1907WN      WN12011  10.162   0.934  11.232  0.0698  0.2087 -0.0125
 1908WN      WN12012   1.722   9.390   9.046  0.0276 -0.1840 -0.0263
 1909WN      WN12013  10.997   1.106   4.040 -0.0255 -0.0777 -0.0244
 1910WN      WN12014  15.435   1.609   4.582  0.3554  0.0041 -0.0537
 1911WN      WN12015  11.990  12.026  12.338  0.0949 -0.3151 -0.0088
 1912WN      WN12016   5.993   6.689   3.093 -0.2438 -0.2688 -0.1555
 1913WN      WN12017   9.001  10.652   9.961  0.0164  0.0466  0.0887
 1914WN      WN12018   9.400  11.631  10.387  0.1255  0.3808  0.0131
 1915WN      WN12019   5.108   8.711   0.928  0.1549 -0.0819 -0.2573
 1916WN      WN12020   8.812  12.004   3.610  0.2435  0.0575  0.1568
 1917WN      WN12021  11.159  13.374   0.793  0.0213 -0.1216 -0.2272
 1918WN      WN12022  10.630   0.484  11.525 -0.2356 -0.1042  0.0664
 1919WN      WN12023   8.645   5.850   9.878  0.2159 -0.2727  0.1118
 1920WN      WN12024  12.300  10.771   0.788  0.0705 -0.1787 -0.0990
 1921WN      WN12025   9.317   1.362  11.157 -0.1101  0.1426  0.0874
 1922WN      WN12026   1.448   5.570  12.401 -0.0308  0.1700  0.0357
 1923WN      WN12027   6.166  11.981   0.488 -0.2113 -0.2015 -0.0456
 1924WN      WN12028   2.099   8.014   3.456  0.0528  0.0606 -0.1467
 1925WN      WN12029   7.737   4.023  11.890  0.0451 -0.1007 -0.1162
 1926WN      WN12030   9.864  12.807   9.502  0.1400  0.0774 -0.0401
 1927WN      WN12031   8.161  15.252  13.052 -0.0924  0.0017  0.1734
 1928WN      WN12032   2.999   6.577  11.057 -0.2532 -0.0066 -0.1228
 1929WN      WN12033   2.262   8.729  10.452 -0.0812 -0.2840  0.0650
 1930WN      WN12034   3.412  13.966  12.530  0.1672 -0.1172 -0.1700
 1931WN      WN12035   4.267   4.851   9.398  0.3461 -0.2046 -0.0772
 1932WN      WN12036   3.009  15.816   1.833  0.1366  0.0360 -0.2178
 1933WN      WN12037   1.218   5.354   1.466  0.0874 -0.1422 -0.0804
 1934WN      WN12038   2.262   4.900   8.755  0.0860  0.1226  0.2092
 1935WN      WN12039   1.202  14.848  12.691  0.0037 -0.2824 -0.1347
 1936WN      WN12040   0.330  10.938  10.044  0.2045  0.1174  0.0249
 1937WN      WN12041  12.512  12.777   2.562  0.0944  0.2109  0.0303
 1938WN      WN12042   0.554  12.290  10.659 -0.1685 -0.3087 -0.0879
 1939WN      WN12043   9.425   4.054   9.394  0.2078  0.0205 -0.1304
 1940WN      WN12044  10.033   9.333   9.985 -0.0703  0.4296  0.0290
 1941WN      WN12045   3.240   6.045   0.975 -0.2861  0.0661 -0.1712
 1942WN      WN12046   6.288  14.840   3.250 -0.0850  0.1617 -0.1812
 1943WN      WN12047  13.377   8.754   3.319 -0.0014 -0.3264 -0.1121
 1944WN      WN12048  10.428  11.908   3.904 -0.0674  0.1954 -0.1193
 1945WN      WN12049   3.905   6.804   9.164 -0.2018  0.2251 -0.0089
 1946WN      WN12050  15.851   7.478  13.364 -0.0137  0.0045  0.3381
 1947WN      WN12051  12.946  12.484   1.422  0.2494  0.0194  0.0455
 1948WN      WN12052   7.149  11.240   0.330 -0.1408 -0.0680  0.3149
 1949WN      WN12053   8.933   3.982  10.351 -0.2954 -0.2087 -0.2454
 1950WN      WN12054   3.510   0.702  12.989 -0.1085  0.2066  0.4062
 1951WN      WN12055  13.088   6.639  10.756  0.0717  0.0330 -0.2565
 1952WN      WN12056   2.091   0.999  13.125  0.2843  0.1381 -0.2319
 1953WN      WN12057   3.490   6.873   9.484 -0.0708 -0.2132 -0.0708
 1954WN      WN12058   4.427   5.110   0.844 -0.0005  0.0200 -0.2257
 1955WN      WN12059  15.787   0.191   4.437  0.3969 -0.2538  0.0708
 1956WN      WN12060   1.057   9.322  13.529 -0.1195 -0.1904 -0.0474
 1957WN      WN12061  13.128  13.654   3.185  0.0792  0.0061  0.4893
 1958WN      WN12062  13.437  13.008   0.249  0.0332  0.3456 -0.2614
 1959WN      WN12063  13.569   6.896  10.148  0.1224 -0.1502  0.2403
 1960WN      WN12064   7.434  13.935   4.552 -0.0471  0.0539  0.1947
 1961WN      WN12065  15.452  15.809  12.807 -0.1754 -0.1240  0.3442
 1962WN      WN12066  15.451  12.664   1.940 -0.0005  0.1837 -0.0603
 1963WN      WN12067   7.309   4.085  10.502 -0.3466 -0.3506  0.1908
 1964WN      WN12068   1.109  14.855   2.841 -0.2415  0.0394 -0.2564
 1965WN      WN12069   7.924   8.004  12.039  0.0529  0.1200  0.1342
 1966WN      WN12070   8.923   7.650  11.782 -0.0894  0.0047 -0.1722
 1967WN      WN12071   8.998  12.805  13.026  0.2149 -0.0624  0.0444
 1968WN      WN12072   7.198   3.241   2.306 -0.1876 -0.2761 -0.1022
 1969WN      WN12073   6.717   4.264   1.525  0.4629  0.0259  0.0170
 1970WN      WN12074   5.744  15.234  11.229  0.1145 -0.3127  0.1931
 1971WN      WN12075  13.922   2.927   2.991 -0.3999  0.1022  0.1551
 1972WN      WN12076   1.080  12.713   8.712 -0.1319  0.0064  0.0199
 1973WN      WN12077   7.453   7.172   3.472 -0.0534 -0.1010  0.0333
 1974WN      WN12078   1.916   0.661  11.167 -0.5833 -0.1368  0.1632
 1975WN      WN12079  10.473  15.845   1.707  0.1149 -0.0706 -0.3423
 1976WN      WN12080   4.069   5.565  13.095  0.1233  0.3887 -0.1455
 1977WN      WN12081   8.669   4.250  10.928 -0.1585 -0.2298  0.1689
 1978WN      WN12082   7.817  13.419   1.590 -0.0473  0.0016  0.2004
 1979WN      WN12083   3.898   7.832   9.139  0.0654  0.0411 -0.1726
 1980WN      WN12084  11.645   2.133   1.524 -0.0293  0.1561  0.0935
 1981WN      WN12085  15.672   2.423   1.275  0.1085  0.0566  0.1206
 1982WN      WN12086   1.487  12.441  12.552 -0.2346 -0.3323 -0.3487
 1983WN      WN12087   2.896   2.804  13.223 -0.2232 -0.1062 -0.0230
 1984WN      WN12088   6.716   7.700   1.273 -0.2776  0.1096  0.0502
 1985WN      WN12089  15.586   8.897  12.791 -0.1713 -0.0267 -0.2822
 1986WN      WN12090   0.548  13.300  12.146 -0.1671 -0.0189 -0.4422
 1987WN      WN12091   8.848  12.422   1.635 -0.2241  0.0378  0.0499
 1988WN      WN12092   2.221  11.084   8.560 -0.0396  0.2086 -0.1728
 1989WN      WN12093   0.510   6.399  12.315  0.3130  0.0011  0.1317
 1990WN      WN12094  13.962  10.382   2.708  0.2138 -0.0015 -0.2139
 1991WN      WN12095   5.021  10.346  11.181 -0.0382  0.1766  0.1511
 1992WN      WN12096  13.740   7.882  12.131 -0.4091  0.0125  0.0055
 1993WN      WN12097   7.883   4.514  10.549 -0.0691  0.1583 -0.3127
 1994WN      WN12098  10.117  15.703   0.414 -0.1183 -0.0348 -0.0712
 1995WN      WN12099   1.463   3.050   2.357 -0.1773 -0.1106  0.0881
 1996WN      WN12100   1.502   4.851   9.363 -0.1262 -0.0345  0.0092
 1997WN      WN12101   0.029  12.911   0.055  0.1867  0.0986 -0.1622
 1998WN      WN12102   9.565   1.333   9.980 -0.2378 -0.1870  0.1375
 1999WN      WN12103   4.390   4.550   1.110 -0.2336  0.1900  0.1249
 2000WN      WN12104   3.553   4.688   4.401  0.1703 -0.0704 -0.0845
 2001WN      WN12105   9.422   8.015  10.052 -0.3055 -0.2437 -0.3493
 2002WN      WN12106   8.749   2.281   4.053 -0.0124 -0.2853  0.2824
 2003WN      WN12107   1.095  11.852  12.448  0.2459  0.3208 -0.1007
 2004WN      WN12108  11.169   3.784   2.308 -0.0973  0.0725  0.1098
 2005WN      WN12109   2.518   1.837   0.740 -0.0851  0.0111 -0.0805
 2006WN      WN12110   3.962   5.092   8.443  0.3091  0.2933  0.3343
 2007WN      WN12111  13.984   1.215   0.132 -0.1207 -0.1245  0.0275
 2008WN      WN12112   8.936  15.091   3.892  0.0942 -0.3259 -0.1215
 2009WN      WN12113   8.110   5.602   2.023 -0.2636 -0.1489 -0.3390
 2010WN      WN12114   2.040  12.930   9.397  0.2179 -0.0547 -0.2249
 2011WN      WN12115  11.754  11.173   2.256  0.2100 -0.1463  0.6127
 2012WN      WN12116  15.503  15.196   0.209  0.1427  0.0645 -0.0129
 2013WN      WN12117   1.810   1.623   1.163  0.2972 -0.1038 -0.0359
 2014WN      WN12118  14.319   1.070  11.454  0.1460 -0.2065 -0.2039
 2015WN      WN12119   3.389   4.250   1.620  0.0716 -0.0731  0.4314
 2016WN      WN12120  12.547  14.097   8.325  0.0245  0.3127 -0.1128
 2017WN      WN12121   1.422  14.061   3.919 -0.1494 -0.0984 -0.1241
 2018WN      WN12122  14.181   5.889  11.114 -0.0576 -0.0369  0.1323
 2019WN      WN12123  13.948   9.390   3.146 -0.0334 -0.0186  0.1397
 2020WN      WN12124   2.652   7.231  13.400  0.1383  0.1042  0.2212
 2021WN      WN12125  13.454   8.481  12.423 -0.2006  0.2169  0.2316
 2022WN      WN12126   0.486   8.978  12.625  0.1958  0.0608 -0.0516
 2023WN      WN12127   4.933  13.106  11.920  0.0695 -0.4105 -0.0289
 2024WN      WN12128   2.827  10.377  10.636 -0.2585 -0.0094  0.3714
 2025WN      WN12129   0.828  10.809   1.080 -0.1697 -0.0991 -0.0396
 2026WN      WN12130   8.373  11.221   2.263 -0.2344  0.0885 -0.2665
 2027WN      WN12131  12.412   2.826   1.721  0.3296  0.0988 -0.1516
 2028WN      WN12132   5.573  12.412  13.353 -0.2561 -0.0781  0.3536
 2029WN      WN12133   9.958  11.345   3.319 -0.0003 -0.0654 -0.0000
 2030WN      WN12134   0.088   6.698  12.419 -0.1755 -0.0310 -0.1194
 2031WN      WN12135   8.684  15.239  11.721  0.2523 -0.1085 -0.1851
 2032WN      WN12136  10.673  11.829  10.468 -0.1347  0.1125 -0.1108
 2033WN      WN12137  12.819   2.623   1.077  0.3842 -0.2976 -0.1114
 2034WN      WN12138   4.024   4.041   1.871 -0.0326 -0.0835 -0.0402
 2035WN      WN12139  10.514   7.061  13.175  0.1159 -0.2226 -0.1683
 2036WN      WN12140   9.037   2.428   9.490 -0.3062  0.0416 -0.2512
 2037WN      WN12141   5.785  15.409   8.137 -0.4857  0.4066 -0.0954
 2038WN      WN12142   9.091  14.302   0.611  0.0223  0.1026  0.0871
 2039WN      WN12143  13.069  11.186  13.255 -0.0832 -0.0674 -0.2896
 2040WN      WN12144  12.355   4.461   1.491 -0.4619  0.0862  0.1351
 2041WN      WN12145   5.788   3.511  10.353  0.1119 -0.1067 -0.1295
 2042WN      WN12146   5.190   6.238   2.385 -0.0402  0.1506  0.0465
 2043WN      WN12147  13.984   2.921   2.440  0.1089 -0.1418 -0.3779
 2044WN      WN12148  13.685  12.840  12.647  0.4532  0.0881 -0.2289
 2045WN      WN12149   0.810   8.223  13.001 -0.1753  0.0634  0.3210
 2046WN      WN12150  12.921   6.990  12.645  0.0489 -0.2898  0.0608
 2047WN      WN12151  10.865   0.939  11.478  0.1288 -0.1951  0.2243
 2048WN      WN12152   7.506   1.935   4.773  0.1269  0.0543  0.1993
 2049WN      WN12153   8.749   0.800  10.155 -0.0364  0.1233  0.0961
 2050WN      WN12154  11.767   0.585   3.997 -0.1609 -0.0657 -0.3178
 2051WN      WN12155  11.770  14.250  10.375  0.0960  0.2825 -0.2227
 2052WN      WN12156   6.684   7.521  11.645 -0.1114 -0.0474 -0.0810
 2053WN      WN12157  13.761  12.875  10.533  0.1299  0.1959 -0.0035
 2054WN      WN12158  14.209   6.825  11.190 -0.2314 -0.0473  0.1135
 2055WN      WN12159   4.628  10.472   1.802  0.0040 -0.6788  0.0076
 2056WN      WN12160   4.772  11.667  11.651 -0.1371 -0.1228 -0.1263
 2057WN      WN12161  14.730   4.758   9.642  0.3620  0.1553 -0.3794
 2058WN      WN12162   9.900   0.599   2.377 -0.1194 -0.1250  0.0119
 2059WN      WN12163  10.451   6.265   9.922  0.1847  0.0096 -0.0251
 2060WN      WN12164   1.168   3.487   1.459  0.1240  0.2718 -0.1474
 2061WN      WN12165  10.947   2.846  12.698  0.4489  0.0543  0.1998
 2062WN      WN12166   4.550   6.252  12.709  0.0314 -0.2399  0.0071
 2063WN      WN12167   2.405   2.951   3.959 -0.0026  0.0125 -0.1350
 2064WN      WN12168   3.793  11.668  10.743  0.0543  0.0516 -0.1806
 2065WN      WN12169  11.488  14.867   2.748  0.0680 -0.0467  0.2136
 2066WN      WN12170   7.196   2.135  10.289  0.1684  0.0765 -0.2351
 2067WN      WN12171  15.854   2.977  12.138 -0.0515  0.3605 -0.2668
 2068WN      WN12172  11.468   3.975  10.523  0.2722 -0.1035  0.1964
 2069WN      WN12173  12.882   1.835  10.290 -0.3677 -0.3407  0.3640
 2070WN      WN12174  15.380  15.327   2.371 -0.0554  0.0838  0.0968
 2071WN      WN12175   5.839  12.985   8.920 -0.0537 -0.0771 -0.3911
 2072WN      WN12176  13.534   1.966   1.647  0.0441  0.0326 -0.0807
 2073WN      WN12177   7.423   2.272  12.101 -0.2897  0.0765 -0.2128
 2074WN      WN12178  11.899   9.948   9.674  0.2241 -0.3799  0.0457
 2075WN      WN12179   7.048   6.818   1.217 -0.0584  0.0393  0.0489
 2076WN      WN12180   4.809   5.686   9.094  0.1200 -0.0703 -0.1640
 2077WN      WN12181   6.216   3.767  11.216 -0.1596 -0.0073  0.0850
 2078WN      WN12182   9.227   4.188  12.754 -0.2426 -0.0292  0.1865
 2079WN      WN12183  14.128   6.418  10.901 -0.0306  0.1394 -0.1064
 2080WN      WN12184   8.027   5.006   1.957 -0.3887 -0.1110  0.0094
 2081WN      WN12185  15.265  10.293  11.840  0.0077  0.0563 -0.1448
 2082WN      WN12186   5.155  12.466   4.261  0.0668  0.5497 -0.0816
 2083WN      WN12187   0.071  11.638  11.007  0.1498  0.1406  0.4365
 2084WN      WN12188  11.930   9.200   1.277  0.1849  0.0641 -0.2649
 2085WN      WN12189   3.989  10.476   2.530 -0.2925 -0.0703  0.0151
 2086WN      WN12190   1.098   2.334   2.570  0.0100  0.0649  0.1456
 2087WN      WN12191   4.666   2.360  13.441  0.2053  0.0719  0.1331
 2088WN      WN12192   8.827  11.827  13.382 -0.3376 -0.1486  0.0650
 2089WN      WN12193  14.608   1.344   9.042 -0.2132  0.0032 -0.0087
 2090WN      WN12194  13.206   1.525  12.673  0.1590  0.2252 -0.1136
 2091WN      WN12195  11.660   8.188   8.751 -0.0832 -0.2183 -0.2881
 2092WN      WN12196   3.277   5.015  13.254  0.2915 -0.3244  0.0850
 2093WN      WN12197   1.308   5.807   0.823  0.3372 -0.3974  0.1940
 2094WN      WN12198  14.525  14.371  11.549 -0.5190 -0.0248  0.0956
 2095WN      WN12199  12.977   0.361   9.551  0.0423  0.1117 -0.1680
 2096WN      WN12200   5.727   4.677   0.843  0.4034  0.0024  0.0217
 2097WN      WN12201  12.148   8.188   9.735  0.1519 -0.0419 -0.1436
 2098WN      WN12202   8.316   8.331  11.564 -0.2036 -0.1945  0.1974
 2099WN      WN12203   6.563  13.910  12.868  0.1448  0.0835 -0.1459
 2100WN      WN12204   3.694   9.001   9.993 -0.0071  0.0521  0.0760
 2101WN      WN12205  11.587   4.241  11.106  0.0531 -0.0962  0.1083
 2102WN      WN12206   8.672  10.084   3.783 -0.1659 -0.4202 -0.2434
 2103WN      WN12207  15.124  14.093  11.708  0.1374  0.1044 -0.1612
 2104WN      WN12208  10.458   0.924   9.705  0.0030 -0.1290  0.0440
 2105WN      WN12209  13.110  10.357  11.350 -0.1834 -0.0523 -0.1763
 2106WN      WN12210   7.132   7.129   2.326  0.1759  0.0016  0.0640
 2107WN      WN12211  12.043   3.426  13.301  0.4011 -0.0019 -0.0374
 2108WN      WN12212  14.143   4.520   3.541  0.1229 -0.1743  0.1167
 2109WN      WN12213  15.760  11.051  10.242 -0.0663 -0.2510 -0.2546
 2110WN      WN12214  14.898  14.367  12.889  0.3792  0.0247  0.2366
 2111WN      WN12215  12.138   2.890  13.193  0.1018 -0.0933  0.0055
 2112WN      WN12216   9.330  12.144  10.610  0.2143  0.1589  0.4798
 2113WN      WN12217   7.157   2.942   1.936 -0.1439 -0.1358  0.0144
 2114WN      WN12218  14.987   3.365   9.433  0.2762  0.0323  0.2996
 2115WN      WN12219  15.076   9.371   2.666  0.0738 -0.2215  0.0913
 2116WN      WN12220   2.043   0.757   1.360 -0.2982 -0.3683  0.0621
 2117WN      WN12221   1.066  11.502  11.960 -0.0358  0.3003  0.1469
 2118WN      WN12222   5.253  11.251   3.513 -0.2773 -0.3224 -0.2224
 2119WN      WN12223  13.624   9.975  12.711 -0.1705 -0.3428  0.1347
 2120WN      WN12224  12.986   2.591  10.038 -0.1534 -0.0974 -0.0226
 2121WN      WN12225  12.722   9.796   2.214  0.1947  0.1434 -0.1585
 2122WN      WN12226   0.084  15.582  12.785  0.1117  0.1500 -0.3912
 2123WN      WN12227  11.062   1.360  11.492 -0.0147 -0.1584  0.0701
 2124WN      WN12228  10.296   2.156   1.629 -0.1374  0.1796  0.1261
 2125WN      WN12229  10.231   1.912  11.902  0.0652 -0.0690 -0.3594
 2126WN      WN12230   0.839   3.428   1.122  0.0939 -0.1056 -0.0369
 2127WN      WN12231   6.778   6.939   2.667 -0.0696 -0.2978  0.3055
 2128WN      WN12232   3.963  12.237   3.462 -0.1819  0.0473 -0.1847
 2129WN      WN12233   4.038  12.976  11.502  0.2369  0.2155 -0.0772
 2130WN      WN12234   2.815   8.637   1.522  0.0722 -0.2138 -0.0457
 2131WN      WN12235   6.095  13.065   2.746  0.1501 -0.1998  0.1574
 2132WN      WN12236   2.952   3.769  11.281  0.2687  0.0255  0.0876
 2133WN      WN12237   8.381   1.590  11.106  0.2479 -0.1196 -0.2372
 2134WN      WN12238  10.304  10.039   2.843 -0.2565  0.1010  0.2169
 2135WN      WN12239   5.509   8.740   9.536  0.1867  0.3305  0.0883
 2136WN      WN12240   4.608  13.894   9.833 -0.1552  0.0809  0.1797
 2137WN      WN12241  14.318   2.130  11.409 -0.2532 -0.3318  0.0665
 2138WN      WN12242  10.090   0.256   1.980 -0.3270  0.2006  0.1101
 2139WN      WN12243   1.472   8.566   0.110 -0.1984 -0.1865  0.1026
 2140WN      WN12244   5.659  13.262   9.749  0.2769  0.0795 -0.1020
 2141WN      WN12245   2.012   0.803  12.485 -0.0715 -0.0631 -0.0428
 2142WN      WN12246   1.121  14.359   2.571  0.0138  0.2768 -0.1097
 2143WN      WN12247  13.200   4.332   4.501 -0.0500 -0.1652  0.0425
 2144WN      WN12248   5.773  13.411   2.972  0.1639 -0.3052  0.1285
 2145WN      WN12249  13.113   8.390  10.170  0.1666  0.2505  0.1341
 2146WN      WN12250  13.061   5.163  10.945  0.2580 -0.0098  0.0669
 2147WN      WN12251  10.325   7.914   8.977 -0.1860 -0.1339  0.1995
 2148WN      WN12252   1.799   2.087  11.716 -0.1595 -0.0109 -0.0287
 2149WN      WN12253   1.558   7.062  12.670  0.2775  0.1246  0.4569
 2150WN      WN12254   8.452   9.018   2.112 -0.0685  0.1159 -0.3539
 2151WN      WN12255  15.222   5.058   9.628 -0.0268  0.4190 -0.1020
 2152WN      WN12256   7.424   1.074   0.253  0.1570 -0.0001 -0.1151
 2153WN      WN12257  11.260   0.639  11.108 -0.0071  0.0792  0.1388
 2154WN      WN12258  14.834   3.158   9.862  0.0691  0.0974  0.0271
 2155WN      WN12259  10.068  12.372  12.303  0.0234  0.4164 -0.2279
 2156WN      WN12260  11.616   4.959   3.240 -0.3293 -0.0997  0.0497
 2157WN      WN12261   3.781  13.204  11.070  0.3938  0.0895 -0.1063
 2158WN      WN12262   2.217  12.032   2.913  0.3183  0.0108  0.0780
 2159WN      WN12263   9.154   2.358   3.806  0.0373 -0.3775  0.2842
 2160WN      WN12264  14.769   4.580  10.452 -0.0059  0.3272  0.1642
 2161WN      WN12265   0.290  14.575   2.805  0.0371  0.1005  0.2229
 2162WN      WN12266   3.406   4.240  11.169 -0.0507 -0.0488 -0.0472
 2163WN      WN12267   6.076   3.317   8.411  0.2809  0.0524 -0.0668
 2164WN      WN12268   3.906   6.019  11.322  0.3443 -0.0092  0.4373
 2165WN      WN12269   1.058   3.536   9.503 -0.0936  0.1595  0.3445
 2166WN      WN12270  10.486  13.984  13.338 -0.0931 -0.1767  0.2342
 2167WN      WN12271   8.646   7.552  12.331 -0.1025 -0.2140 -0.2008
 2168WN      WN12272  13.738   0.553  10.650 -0.1271 -0.0067 -0.0791
 2169WN      WN12273  14.396  13.455   9.626  0.2336 -0.1547  0.2492
 2170WN      WN12274   4.418   6.321   0.137 -0.0271 -0.1458 -0.0423
 2171WN      WN12275  10.948  15.644   0.982  0.2325  0.1256 -0.1758
 2172WN      WN12276   0.998   6.478   2.599 -0.0771 -0.0324 -0.0020
 2173WN      WN12277  13.658  12.173  11.965 -0.2081 -0.3282 -0.2300
 2174WN      WN12278  15.691   7.573  10.129  0.3316  0.2565 -0.1034
 2175WN      WN12279   9.127  15.794  12.904 -0.3629  0.2588 -0.1904
 2176WN      WN12280   5.231   2.353   4.270  0.0011 -0.0430 -0.0356
 2177WN      WN12281   5.383  12.016  12.232 -0.1215 -0.2608 -0.0969
 2178WN      WN12282   8.479  15.460   2.348 -0.0395  0.2097  0.3023
 2179WN      WN12283  15.206   1.846   0.669  0.0916 -0.1857 -0.0973
 2180WN      WN12284   4.852   8.079   3.585 -0.2091 -0.2330 -0.0911
 2181WN      WN12285   1.466   6.577   2.465  0.1689  0.3468  0.0846
 2182WN      WN12286   4.879  14.501   3.249 -0.2688  0.2572  0.0613
 2183WN      WN12287   5.445  10.528   1.224  0.0616  0.2943  0.1209
 2184WN      WN12288   3.779   9.009  11.706  0.2566 -0.0797 -0.1824
 2185WN      WN12289  10.677   0.834  10.537 -0.3189  0.1351  0.1772
 2186WN      WN12290   8.351  14.070  10.636 -0.0003  0.2865  0.0287
 2187WN      WN12291   3.151  13.938  11.677 -0.0584  0.1087 -0.0048
 2188WN      WN12292   8.007  12.861   0.777 -0.2744  0.1595 -0.1385
 2189WN      WN12293   2.250  15.269   1.182  0.1286  0.0303 -0.2249
 2190WN      WN12294   6.934  13.130  12.656 -0.2638  0.1990  0.1454
 2191WN      WN12295   0.313   7.519   2.689  0.3216  0.1763  0.0984
 2192WN      WN12296   7.263   8.466  11.182  0.3328  0.2273  0.1431
 2193WN      WN12297  11.216   0.132   3.641  0.0775 -0.1513  0.0837
 2194WN      WN12298   6.257   3.750  12.208  0.3166 -0.0208 -0.1560
 2195WN      WN12299  12.979   0.048   2.446 -0.1979  0.0445 -0.1794
 2196WN      WN12300  11.077   8.321   3.668  0.2521  0.2759  0.2820
 2197WN      WN12301   1.099  13.003   0.326 -0.3006 -0.0371  0.1417
 2198WN      WN12302  14.243   5.730  12.232 -0.2512  0.1916  0.1314
 2199WN      WN12303  11.118   3.766   0.300  0.0332  0.1153 -0.1777
 2200WN      WN12304  10.812   5.746   0.169  0.0008 -0.3134 -0.2532
 2201WN      WN12305   6.945   4.563   0.660 -0.3189  0.4038 -0.0889
 2202WN      WN12306   0.352   7.968  12.974 -0.0863 -0.3238 -0.0065
 2203WN      WN12307  15.665   1.573   4.152 -0.3569  0.2624  0.1032
 2204WN      WN12308   4.711   7.620   1.877 -0.0951  0.1130 -0.2722
 2205WN      WN12309  13.636  11.232  11.579  0.1787 -0.1566 -0.4185
 2206WN      WN12310  13.283   5.676   3.522  0.2965 -0.3054  0.0855
 2207WN      WN12311   0.792  15.474  11.904 -0.1626 -0.1952  0.3614
 2208WN      WN12312  14.538  13.887   9.973 -0.0635  0.0343  0.1479
 2209WN      WN12313   7.971   2.738  12.601  0.1919 -0.2718 -0.0739
 2210WN      WN12314   8.973   4.959  13.102  0.0207 -0.1927  0.3378
 2211WN      WN12315   7.271   4.041   9.285  0.2304 -0.0168  0.0530
 2212WN      WN12316   3.268   5.660   3.772  0.1829  0.2857 -0.2168
 2213WN      WN12317  15.177   3.218  12.980 -0.1976  0.2697  0.2249
 2214WN      WN12318   5.325   3.059   0.521 -0.3175  0.0581  0.1179
 2215WN      WN12319   5.010   7.663  12.395  0.1341 -0.0537  0.1522
 2216WN      WN12320  12.970   4.245   0.801  0.1804 -0.0424 -0.4060
 2217WN      WN12321   2.418  11.329   9.736 -0.2483  0.4726  0.1457
 2218WN      WN12322   8.394   1.640   4.805 -0.1723 -0.2150 -0.1391
 2219WN      WN12323  11.353   2.395  10.357  0.1320 -0.0571  0.0803
 2220WN      WN12324   0.006  15.379   2.469  0.0576  0.1609 -0.0557
 2221WN      WN12325  14.012  12.895  13.240  0.0397 -0.0912  0.2865
 2222WN      WN12326   9.116  14.432  12.026  0.2169  0.2098 -0.0911
 2223WN      WN12327  14.108   0.705   4.271  0.2823 -0.1734 -0.1320
 2224WN      WN12328   9.224   0.214   0.300 -0.2386  0.1282 -0.2653
 2225WN      WN12329   2.704  13.349   8.587 -0.0475 -0.4294 -0.1720
 2226WN      WN12330   7.174  12.471   9.367 -0.1265 -0.0236  0.0753
 2227WN      WN12331   8.488   1.714  10.624 -0.3304  0.2651  0.1799
 2228WN      WN12332   4.074   9.443   1.027  0.0304  0.2086 -0.1727
 2229WN      WN12333   3.431   9.026   2.360 -0.3049 -0.2678  0.0700
 2230WN      WN12334  12.229  14.290  11.677  0.1488  0.1988 -0.4568
 2231WN      WN12335  15.549  12.522   0.357  0.0676 -0.0358  0.0291
 2232WN      WN12336   0.068   0.817  12.456 -0.1003  0.0726 -0.0275
 2233WN      WN12337   7.444  14.917   9.887 -0.0194  0.4819  0.0692
 2234WN      WN12338  10.668  15.291   4.232  0.1532 -0.0143 -0.0427
 2235WN      WN12339   8.883   2.104   4.563 -0.2596  0.1660 -0.0383
 2236WN      WN12340   7.826   2.011   1.683 -0.1163 -0.2391 -0.0205
 2237WN      WN12341  13.997   9.209   2.205 -0.1650  0.3314 -0.1348
 2238WN      WN12342  10.640   7.184  11.365 -0.0611  0.1081  0.0145
 2239WN      WN12343   9.405   0.419   2.083  0.3434  0.2293 -0.1729
 2240WN      WN12344  13.185   3.528   0.814 -0.0295  0.1233  0.1107
 2241WN      WN12345   0.938   3.688   0.728 -0.0695 -0.0088  0.2363
 2242WN      WN12346  14.565   1.106   3.566 -0.1326  0.0514 -0.0457
 2243WN      WN12347   0.106   3.599   2.440  0.3050  0.2997 -0.0635
 2244WN      WN12348   1.220   9.907   9.497 -0.1246 -0.2418  0.0805
 2245WN      WN12349  14.346  12.807   2.185 -0.0772 -0.3255  0.4476
 2246WN      WN12350  15.071  12.381   0.612  0.1539  0.1966  0.0039
 2247WN      WN12351  13.258   8.132   3.396 -0.1422 -0.1010  0.0312
 2248WN      WN12352   7.940   0.908  12.808  0.1639 -0.1724  0.6518
 2249WN      WN12353   0.911  13.166   1.222 -0.0383  0.0442  0.4678
 2250WN      WN12354   5.164   0.301   4.890 -0.0501 -0.1519  0.1561
 2251WN      WN12355  10.829  13.300   2.469  0.1120  0.1966  0.0534
 2252WN      WN12356  14.281   4.358  10.393  0.0566  0.3575 -0.0443
 2253WN      WN12357   4.992   2.238  12.578 -0.1610  0.2143 -0.0873
 2254WN      WN12358   9.984   1.472   5.438  0.2448 -0.0339  0.1424
 2255WN      WN12359  11.649   8.151   9.611 -0.1041  0.1975  0.0750
 2256WN      WN12360   4.890  11.779  13.150 -0.0165  0.0385  0.1877
 2257WN      WN12361  10.110   6.526  10.848 -0.1994 -0.0816  0.1340
 2258WN      WN12362   2.278  10.394  12.073  0.1667  0.0279  0.2379
 2259WN      WN12363   3.619   5.703  10.071  0.0718 -0.2770 -0.2065
 2260WN      WN12364   6.919   0.486   5.020  0.1748  0.1159  0.3126
 2261WN      WN12365  11.323   3.400   2.704 -0.1458  0.1101 -0.0437
 2262WN      WN12366  11.472   4.037   3.894  0.2457  0.1298  0.0606
 2263WN      WN12367   6.099   9.137  12.446  0.4642 -0.0351  0.2365
 2264WN      WN12368  10.862  13.911  12.378 -0.1391  0.2819  0.3335
 2265WN      WN12369  14.773  12.312   8.843 -0.0280  0.0100  0.1495
 2266WN      WN12370  10.933   7.166   8.828  0.0227  0.1200  0.2401
 2267WN      WN12371   7.143  12.245   2.106  0.1275 -0.2575 -0.1017
 2268WN      WN12372   5.884  11.694   0.803  0.2859 -0.1683  0.3510
 2269WN      WN12373   0.342   2.855  12.462  0.0364 -0.2597  0.3123
 2270WN      WN12374   5.306  11.333   2.514  0.0763 -0.1100  0.0165
 2271WN      WN12375   4.124   5.302   9.242  0.0127 -0.1288 -0.2363
 2272WN      WN12376  11.314   1.313   0.150 -0.0201  0.1269 -0.0515
 2273WN      WN12377  11.200   0.576   4.766 -0.2129  0.0928 -0.1821
 2274WN      WN12378  14.205   9.852   2.164  0.2939 -0.0053  0.2607
 2275WN      WN12379  11.413  15.807   0.950 -0.0573 -0.0738  0.1970
 2276WN      WN12380   8.590   8.857   1.196 -0.0162  0.1209  0.2174
 2277WN      WN12381   6.170  13.568   9.720 -0.0802  0.0424  0.0759
 2278WN      WN12382  12.906   0.140   4.429  0.2056  0.0021 -0.2904
 2279WN      WN12383  13.250  14.700  10.253  0.1423 -0.2196 -0.0085
 2280WN      WN12384   8.440   6.356   2.301 -0.1339  0.3567 -0.0748
 2281WN      WN12385  13.573   3.235   1.173 -0.0632  0.0618  0.0003
 2282WN      WN12386  11.832   8.523   0.916 -0.0193  0.1843  0.2135
 2283WN      WN12387  13.496   0.031   3.324  0.0193  0.0090  0.0382
 2284WN      WN12388  14.245   1.987   2.688  0.1496  0.0986 -0.3009
 2285WN      WN12389   7.245   1.213   0.670  0.0781  0.2842  0.0320
 2286WN      WN12390  15.327   6.523  11.132 -0.1759 -0.0317 -0.2623
 2287WN      WN12391  15.499  12.740   0.867 -0.1150  0.1033 -0.3064
 2288WN      WN12392  11.832  11.913   9.337 -0.0878 -0.0543 -0.1316
 2289WN      WN12393  14.384  11.072  10.589  0.3852 -0.0870 -0.2019
 2290WN      WN12394   5.689   9.995   3.397  0.3280 -0.0826  0.0608
 2291WN      WN12395  12.626  11.205   1.095 -0.0978  0.1031 -0.3013
 2292WN      WN12396   4.362   5.667   2.918 -0.4657 -0.0880 -0.0228
 2293WN      WN12397   8.389   2.257   4.812 -0.1608 -0.1063 -0.2346
 2294WN      WN12398   9.584  10.416  13.125  0.0387 -0.2219  0.0287
 2295WN      WN12399   7.987   2.500   1.430 -0.0600 -0.0183 -0.3706
 2296WN      WN12400  15.443   7.372  11.389  0.2602 -0.0933 -0.0396
 2297WN      WN12401   5.597   7.782   0.190 -0.1571 -0.0557  0.3243
 2298WN      WN12402   5.790   0.975   9.185 -0.0968  0.0067 -0.0578
 2299WN      WN12403   1.534  10.829  10.679 -0.1733  0.0788 -0.0442
 2300WN      WN12404   1.419   7.183  10.766  0.1734 -0.2028  0.0675
 2301WN      WN12405   4.984   1.829   9.898 -0.2747 -0.3066  0.0941
 2302WN      WN12406   5.707   6.325   1.799 -0.1253  0.0410  0.5397
 2303WN      WN12407  10.366   0.518  13.292  0.0435  0.0733 -0.2556
 2304WN      WN12408  13.989  14.934  11.971  0.0349  0.4810  0.1313
 2305WN      WN12409   2.847   5.490  13.165 -0.1213  0.0669  0.1433
 2306WN      WN12410   2.092   0.026   0.227  0.0275 -0.2062 -0.2705
 2307WN      WN12411   8.698   0.753  11.623  0.2120 -0.3676 -0.0935
 2308WN      WN12412   2.129   2.654   1.811 -0.2361 -0.1158  0.0922
 2309WN      WN12413   1.760   7.463  11.568  0.3338 -0.3997  0.0929
 2310WN      WN12414  15.739   4.695  13.017 -0.2174  0.1571 -0.1201
 2311WN      WN12415   9.694  13.825   9.803 -0.1494 -0.0952  0.0402
 2312WN      WN12416   1.838  15.357   3.395 -0.0554  0.4356 -0.0587
 2313WN      WN12417  11.795   7.120  10.767 -0.1320 -0.1399 -0.4735
 2314WN      WN12418   5.888  10.513   0.867  0.2272  0.0843  0.3666
 2315WN      WN12419   7.508   1.654  10.183  0.1233 -0.1161  0.1407
 2316WN      WN12420   3.788   6.669   1.671  0.1247  0.1927  0.0066
 2317WN      WN12421  15.692  14.632   4.138 -0.0605  0.0372  0.1024
 2318WN      WN12422   5.191  13.045   1.316 -0.0150 -0.1468  0.0720
 2319WN      WN12423   8.441  13.487  11.660  0.1788 -0.1314 -0.1635
 2320WN      WN12424  15.539   8.623   9.938  0.1632  0.3511  0.0087
 2321WN      WN12425   2.069  14.208  10.048 -0.1726  0.2784  0.0351
 2322WN      WN12426   7.075  14.296  11.085 -0.1533 -0.0519 -0.1539
 2323WN      WN12427   2.803   4.496   9.226  0.1683  0.1118 -0.1876
 2324WN      WN12428  13.829   8.147  10.383 -0.0505 -0.2601  0.2156
 2325WN      WN12429   5.585   4.767  13.425 -0.0109  0.1311 -0.0688
 2326WN      WN12430   4.197   9.089  12.073  0.0580 -0.0280 -0.0292
 2327WN      WN12431   9.603  10.618   1.774  0.3345  0.0722  0.1236
 2328WN      WN12432   7.165   6.590   0.531 -0.3661  0.0126  0.2278
 2329WN      WN12433   7.947   7.523   2.117  0.1920  0.1929 -0.1627
 2330WN      WN12434   5.291   0.312   2.165 -0.0055  0.2922 -0.0872
 2331WN      WN12435   9.720   5.376  12.149 -0.3442  0.1450 -0.1611
 2332WN      WN12436   3.236   0.037  10.174 -0.0732  0.0122 -0.3062
 2333WN      WN12437   4.209  10.038  13.451  0.1879 -0.1575  0.2407
 2334WN      WN12438   0.067  13.267  12.663 -0.1935 -0.1801  0.1984
 2335WN      WN12439   9.421   9.877  13.086 -0.0112 -0.1459  0.2220
 2336WN      WN12440   3.965   0.787  10.139  0.0186 -0.1128 -0.1317
 2337WN      WN12441   8.719   2.537   0.884  0.1632 -0.0577  0.1675
 2338WN      WN12442   9.325   7.463   1.730 -0.2303 -0.2764  0.1090
 2339WN      WN12443   4.145   8.943   0.912  0.0174  0.0961 -0.0716
 2340WN      WN12444   7.547   5.857  11.857  0.0608  0.0356  0.3220
 2341WN      WN12445  12.693   6.011   0.091  0.2829 -0.1492 -0.0435
 2342WN      WN12446   9.285   5.294   3.480 -0.3580 -0.3138 -0.2183
 2343WN      WN12447   4.759   8.238   0.411  0.1172 -0.0983 -0.1765
 2344WN      WN12448   5.134  12.884  11.383 -0.2182  0.2011  0.1379
 2345WN      WN12449   9.295   5.141   1.025 -0.0451  0.1215 -0.0794
 2346WN      WN12450   4.109   3.257  10.552 -0.2505 -0.0508 -0.0722
 2347WN      WN12451  10.066   5.408  11.818 -0.1583 -0.0295  0.1015
 2348WN      WN12452   1.710  10.652  13.032 -0.2214  0.1790 -0.3311
 2349WN      WN12453  15.006   9.714   1.608 -0.1159  0.1594  0.1259
 2350WN      WN12454   6.020   4.430   2.861  0.2764  0.0107 -0.0167
 2351WN      WN12455   4.191  11.548  11.053  0.1545  0.0525  0.1975
 2352WN      WN12456   8.972  11.145   1.553 -0.0339 -0.0084 -0.0838
 2353WN      WN12457  13.422   1.069  10.656  0.1317 -0.3965 -0.0738
 2354PP      PP12458  14.645  12.023   3.706 -0.0155 -0.0040  0.1466
 2355PP      PP12459   8.113   1.735   0.784  0.0908 -0.0529  0.0282
 2356PP      PP12460  13.645  15.087  11.542  0.0449  0.1950 -0.1165
 2357PP      PP12461  15.837  14.068   1.726 -0.1461 -0.0131  0.0541
 2358PP      PP12462   7.038  12.433   0.029 -0.0855  0.4136 -0.0994
 2359PP      PP12463  10.122   1.670   1.611  0.3569  0.0352 -0.2774
 2360PP      PP12464   8.080   3.355   9.576  0.5367  0.0019  0.1398
 2361PP      PP12465   7.213  12.292   2.667 -0.0043 -0.1625  0.2089
 2362PP      PP12466  13.152  11.595   5.114  0.0309 -0.4627 -0.2206
 2363PP      PP12467  12.285   3.001  12.321 -0.1806 -0.0544 -0.0086
 2364PP      PP12468   4.064  11.105  11.910  0.2748 -0.0594  0.2123
 2365PP      PP12469   3.800   3.143   5.461  0.0589  0.0601  0.2590
 2366PP      PP12470   0.525  10.693  11.753 -0.4372 -0.0831  0.1677
 2367PP      PP12471   9.137   7.227  11.464  0.0390 -0.3630  0.1170
 2368PP      PP12472  12.824  15.571  11.580  0.0688 -0.0598 -0.2169
 2369PP      PP12473   6.450   8.708   8.013  0.1098 -0.0053  0.1026
 2370PP      PP12474   0.435   6.942   1.475 -0.2656  0.0334 -0.0400
 2371PP      PP12475   8.901  14.147  10.241 -0.0632 -0.4802  0.0328
 2372PP      PP12476   4.762   5.394   1.550  0.1987  0.1549  0.2594
 2373PP      PP12477   5.052  11.667   1.310 -0.1413  0.0938 -0.1036
 2374PP      PP12478  14.851  11.304   2.421 -0.1930  0.2745  0.2380
 2375PP      PP12479   9.076  14.842  12.342  0.4059 -0.4459 -0.2886
 2376PP      PP12480   0.996  15.276  12.999  0.1167  0.2807 -0.0222
 2377PP      PP12481   1.144  10.252   9.179  0.0661  0.1229 -0.1049
 2378PP      PP12482   0.122  15.625   8.992 -0.0345  0.1328 -0.2808
 2379PP      PP12483   4.543  14.324   4.061  0.1584 -0.1195 -0.1162
 2380PP      PP12484  15.049   5.374  10.148 -0.1413 -0.0884 -0.0851
 2381PP      PP12485  10.645   1.330   2.377 -0.0164 -0.0938 -0.2376
 2382PP      PP12486  10.321   7.137   3.974 -0.0543 -0.0369 -0.1178
 2383PP      PP12487  13.468   2.672  13.207 -0.1219 -0.3123  0.0414
 2384PP      PP12488  12.298   8.788   9.860 -0.1432  0.0917 -0.1928
 2385PP      PP12489   2.250   0.303   1.585  0.0605  0.0477  0.1202
 2386PP      PP12490  13.717  13.112   2.841 -0.0439 -0.0218 -0.3448
 2387PP      PP12491   4.191  10.084   2.924 -0.1689 -0.0008  0.0768
 2388PP      PP12492   9.161  11.803   2.747  0.0130  0.3312  0.0497
 2389PP      PP12493   0.416   9.769  11.874  0.2900 -0.1892 -0.2874
 2390PP      PP12494  14.847   3.234   2.617 -0.1313  0.3086 -0.0764
 2391PP      PP12495   9.280   0.888  10.863 -0.0698  0.1820  0.0346
 2392PP      PP12496   5.563  14.191   4.231 -0.2173 -0.1175 -0.1736
 2393PP      PP12497  14.758   4.128  12.017  0.1982  0.2815  0.3348
 2394PP      PP12498  10.730  11.698   8.465 -0.0005  0.3002 -0.0627
 2395PP      PP12499   7.202  12.723   1.949  0.1054 -0.0300 -0.2069
 2396PP      PP12500  13.436  11.502  12.522  0.2971  0.0332  0.2054
 2397PP      PP12501   3.015   3.074   1.160  0.2568 -0.2098 -0.1426
 2398PP      PP12502  11.519   1.327   3.395  0.0668 -0.1312  0.2129
 2399PP      PP12503  15.567  14.898  13.124 -0.1192  0.0096 -0.1282
 2400PP      PP12504   7.116   1.343   1.623  0.1206 -0.0817 -0.2446
 2401PP      PP12505   7.240   5.543  12.125 -0.0951 -0.2529 -0.2247
 2402PP      PP12506  14.612   1.236  11.868  0.2037  0.1081  0.1314
 2403PP      PP12507  13.968   3.876   2.735  0.2189  0.1360 -0.2003
 2404PP      PP12508  10.817  13.748   0.836  0.0793  0.0140  0.0251
 2405PP      PP12509   8.404  12.595   9.171 -0.1871  0.1012  0.0690
 2406PP      PP12510  10.258  13.806   0.837  0.0417  0.2432  0.1608
 2407PP      PP12511  11.636   3.592   0.130 -0.0213 -0.0768  0.0158
 2408PP      PP12512  13.162   2.254   2.923  0.0761 -0.1365  0.0604
 2409PP      PP12513   7.337  15.318   4.846  0.0403  0.2477  0.0234
 2410PP      PP12514  14.493   7.002   0.374  0.1707 -0.1644 -0.1872
 2411PP      PP12515   7.744   3.353   0.507 -0.0064 -0.1559 -0.0700
 2412PP      PP12516  10.889   7.238  11.817 -0.0834  0.3722  0.0856
 2413PP      PP12517  13.814   9.681  11.398 -0.0979 -0.2766 -0.4994
 2414PP      PP12518   4.557   6.802   0.187  0.0806  0.1453  0.3866
 2415PP      PP12519  14.917   3.610   1.253 -0.2737  0.1082 -0.0416
 2416PP      PP12520  13.283  14.433  10.762  0.2095 -0.3529 -0.1700
 2417PP      PP12521   8.981   7.773  10.280 -0.0448 -0.1969 -0.0885
 2418PP      PP12522  14.177   4.390  11.478  0.1144  0.3013  0.3853
 2419PP      PP12523   8.577  12.134  12.946  0.0871  0.0795 -0.4052
 2420PP      PP12524  11.989  10.072   3.493 -0.3018 -0.1612 -0.0058
 2421PP      PP12525   7.298  13.142  10.665 -0.2425 -0.1497 -0.2504
 2422PP      PP12526  13.078   0.142   1.212  0.1413  0.0834 -0.1274
 2423PP      PP12527   0.694   8.233   1.238  0.2059 -0.2717 -0.1165
 2424PP      PP12528  10.402   0.784   3.309 -0.0625 -0.2089  0.2082
 2425PP      PP12529   1.151   9.943   3.464  0.2350 -0.2183  0.2744
 2426PP      PP12530   4.829   2.034  10.363  0.2137 -0.0545 -0.2547
 2427PP      PP12531  11.612   0.519   9.860  0.1068  0.2393 -0.1692
 2428PP      PP12532   0.384   7.463  12.972  0.2268  0.0929 -0.0596
 2429PP      PP12533   5.453   1.346   9.070 -0.2279  0.0681 -0.1612
 2430PP      PP12534   3.714   2.426   0.662 -0.1760  0.1333  0.1696
 2431PP      PP12535  12.626   5.761   0.569  0.1538 -0.4458  0.0607
 2432PP      PP12536  12.748   6.969   2.219  0.0464  0.0390 -0.4115
 2433PP      PP12537  10.433  10.697  12.360  0.2555 -0.2239 -0.1324
 2434PP      PP12538   1.341   3.017   3.892 -0.0592  0.1106 -0.0712
 2435PP      PP12539   2.726  13.660   9.596 -0.0058 -0.0755  0.2078
 2436PP      PP12540  11.164  15.220   2.202  0.0960 -0.0394 -0.0391
 2437PP      PP12541  14.762   3.961   3.672 -0.2034 -0.2533 -0.3000
 2438PP      PP12542   5.403  13.446   3.964 -0.2535 -0.0999  0.2173
 2439PP      PP12543  12.387  11.009   5.405  0.0741 -0.1029  0.1023
 2440PP      PP12544  10.526   4.006  11.607  0.0181 -0.1414  0.4566
 2441PP      PP12545   2.103   4.022  12.421  0.0405 -0.4909  0.1704
 2442PP      PP12546  13.070  15.538  10.917  0.1322 -0.3057 -0.0999
 2443PP      PP12547   9.680   2.900   0.362 -0.2933 -0.1473  0.0807
 2444PP      PP12548   0.975  12.667  10.901  0.0691 -0.0744 -0.1438
 2445PP      PP12549   6.307   6.490   1.456 -0.3302  0.1384  0.0749
 2446PP      PP12550   0.273  12.479   2.074  0.1515  0.1310 -0.0175
 2447PP      PP12551   0.514  11.296  10.892 -0.0086 -0.2749  0.0082
 2448PP      PP12552   8.187   6.239   0.704 -0.3888  0.0055  0.0777
 2449PP      PP12553   6.199  11.150   9.951 -0.1135  0.0014  0.1747
 2450PP      PP12554   8.396  13.759   4.425  0.3792 -0.1820 -0.0910
 2451PP      PP12555   8.133   0.704  11.544 -0.1440 -0.0659  0.1138
 2452PP      PP12556  14.333  15.629  10.851 -0.3738 -0.0413  0.2251
 2453PP      PP12557   5.896  11.823   9.225 -0.0005  0.1683  0.3661
 2454PP      PP12558  15.532  12.664  10.340 -0.2624 -0.4618  0.0677
 2455PP      PP12559   4.531   4.914   0.171  0.1120  0.0674  0.1459
 2456PP      PP12560  10.986   6.623   3.246  0.1159 -0.1360 -0.1240
 2457PP      PP12561  11.700   0.393  13.058  0.4723 -0.0390 -0.1713
 2458PP      PP12562  13.417   6.522   8.745  0.0418 -0.0612  0.1056
 2459PP      PP12563   5.665  14.712   8.860 -0.0741 -0.0667  0.2114
 2460PP      PP12564   0.728   7.248  13.274 -0.2745 -0.1098 -0.0252
 2461PP      PP12565  12.177   0.839   0.116 -0.0035  0.1163 -0.1214
 2462PP      PP12566   3.537   9.547   1.077  0.2170  0.2317  0.0843
 2463PP      PP12567   9.043   3.921   2.521  0.0081 -0.1238  0.1133
 2464PP      PP12568   8.424   9.690   0.554 -0.1778  0.4845  0.2842
 2465PP      PP12569   6.487   1.685  12.970  0.0059  0.0710 -0.1501
 2466PP      PP12570  12.786   4.528  11.663  0.4052 -0.0788 -0.1330
 2467PP      PP12571  10.854  12.400   9.356 -0.0790  0.2949  0.2458
 2468PP      PP12572   1.205   2.917  12.339  0.2945 -0.2437 -0.0156
 2469PP      PP12573  14.630  11.649   3.077 -0.2977  0.1312  0.0675
 2470PP      PP12574   9.926   5.617   0.654  0.0865 -0.0751  0.3030
 2471PP      PP12575  14.410   5.283   1.675  0.3844  0.0910 -0.1301
 2472PP      PP12576   8.885   1.497   1.844  0.0421 -0.0524 -0.2374
 2473PP      PP12577   4.551   4.986  11.104 -0.0864 -0.3450 -0.0615
 2474PP      PP12578  11.879  10.334   1.806 -0.2347 -0.3144  0.2547
 2475PP      PP12579   6.415  15.687  12.723  0.1243 -0.1025  0.1151
 2476PP      PP12580  14.292   1.645   8.685 -0.1609  0.1299 -0.0463
 2477PP      PP12581  12.286  10.499  10.744 -0.3444  0.3821 -0.1724
 2478PP      PP12582   4.397   3.971  11.973 -0.0929  0.1057 -0.1039
 2479PP      PP12583   0.659   6.464  11.603 -0.1597 -0.0580  0.1907
 2480PP      PP12584   3.621   9.538   2.349  0.1097 -0.1049 -0.3515
 2481PP      PP12585   6.118   0.439   9.313  0.0757  0.0257  0.0835
 2482PP      PP12586  10.839   1.750  10.889 -0.0798  0.1217  0.2530
 2483PP      PP12587   1.817   7.090   1.665  0.0724  0.0273 -0.1271
 2484PP      PP12588   8.886  13.648   4.789 -0.1378  0.2480  0.0214
 2485PP      PP12589   4.193   0.581   9.339  0.0272 -0.1293  0.2825
 2486PP      PP12590   2.521  11.829  13.161 -0.1046  0.3709 -0.1149
 2487PP      PP12591   4.911   5.905   3.086 -0.2446  0.1511  0.0987
 2488PP      PP12592  12.190   4.898   2.352  0.0967 -0.2719 -0.2387
 2489PP      PP12593  13.778   2.045   4.147 -0.1193  0.3231  0.0714
 2490PP      PP12594   2.359  13.033  12.231  0.0404  0.3104 -0.1542
 2491PP      PP12595   2.480  13.144   1.962  0.2142  0.2092 -0.1316
 2492PP      PP12596   6.950  10.627   4.276 -0.0009 -0.2826  0.1126
 2493PP      PP12597   7.892   6.513   2.244  0.0045  0.0393 -0.3654
 2494PP      PP12598   8.075  10.567  11.588  0.1245  0.1360  0.1563
 2495PP      PP12599   5.955   2.824   3.844  0.0803 -0.0585  0.0757
 2496PP      PP12600   1.827   8.177   4.951 -0.2160 -0.1468 -0.0449
 2497PP      PP12601   5.389   4.770   8.539 -0.0524 -0.1233  0.0075
 2498PP      PP12602  14.984   0.393   9.345 -0.0490 -0.2647  0.1457
 2499PP      PP12603  14.943   0.486  11.829  0.0276  0.0291 -0.0613
 2500PP      PP12604   0.290   2.928  13.002 -0.0561 -0.1918  0.0497
 2501PP      PP12605   3.970   1.903   1.529 -0.1015 -0.0733  0.1759
 2502PP      PP12606  14.116   4.333  12.832 -0.0212 -0.1330 -0.1580
 2503PP      PP12607   3.520   2.466  10.983  0.0835 -0.5521  0.3627
 2504PP      PP12608  14.404  13.498   0.413 -0.1631 -0.2561  0.1811
 2505PP      PP12609  14.841  15.116   1.847  0.0132 -0.2740 -0.0611
 2506PP      PP12610   5.438   8.161  10.336 -0.0742  0.0133  0.4640
 2507PP      PP12611  11.169  10.777   8.657  0.1008  0.3555 -0.2440
 2508PP      PP12612   8.048  12.779  11.145  0.2549  0.2125  0.3320
 2509PP      PP12613   3.838   9.763  11.890  0.2492  0.0664 -0.1246
 2510PP      PP12614  11.095  12.882   1.661  0.0260  0.2688  0.1135
 2511PP      PP12615  14.939  12.100  11.144 -0.1322 -0.0422 -0.1320
 2512PP      PP12616   8.558   5.810   2.962  0.2303 -0.2779  0.5011
 2513PP      PP12617   3.018   5.246   9.315  0.2496  0.3201  0.2701
 2514PP      PP12618   0.492  14.898  10.740  0.0380  0.1213 -0.0037
 2515PP      PP12619  14.033   9.285   3.623 -0.2750 -0.1200  0.1574
 2516PP      PP12620   5.299  10.577   0.085 -0.0061 -0.0994 -0.1621
 2517PP      PP12621  12.863   3.699   9.646  0.1105 -0.0211 -0.0386
 2518PP      PP12622   3.969   1.943  11.906 -0.0067  0.0766  0.0371
 2519PP      PP12623  12.607  15.585   3.761 -0.0608  0.1088  0.0448
 2520PP      PP12624  15.415   2.579  11.006  0.0780  0.1898  0.0799
 2521PP      PP12625   7.539   5.832  13.110  0.1655  0.0474 -0.0677
 2522PP      PP12626  14.523   3.267   0.677 -0.0001  0.0648  0.4777
 2523PP      PP12627   2.330   7.759  11.682 -0.1556 -0.0414  0.1142
 2524PP      PP12628  11.078   0.186  11.282 -0.1575 -0.0681 -0.0856
 2525PP      PP12629   1.710  13.627   2.061  0.0008 -0.1074  0.0248
 2526PP      PP12630   5.288   4.618   2.600  0.2869 -0.0730 -0.2990
 2527PP      PP12631   9.741   3.683   4.374 -0.0309 -0.0940 -0.1699
 2528PP      PP12632  13.357   8.804  12.056 -0.1513  0.1233 -0.0526
 2529PP      PP12633  10.173   2.847  10.666  0.2026 -0.1249 -0.0659
 2530PP      PP12634   7.584   4.870   2.301 -0.4310 -0.1295 -0.0711
 2531PP      PP12635  13.132   1.057  12.412 -0.1215  0.0537  0.0655
 2532PP      PP12636  13.206  13.663   1.382  0.2735 -0.0113 -0.1096
 2533PP      PP12637   6.116  15.693   3.429  0.1910  0.0382  0.3856
 2534PP      PP12638   4.436   0.167   2.386  0.0655 -0.1684 -0.0557
 2535PP      PP12639  12.484  11.593  12.193 -0.1367  0.0979  0.2068
 2536PP      PP12640  12.278  14.106  12.521  0.0441 -0.3243  0.2876
 2537PP      PP12641  10.925  13.784  10.550 -0.0625  0.3435 -0.1292
 2538PP      PP12642  10.842   6.678   0.267  0.1265  0.1726 -0.0214
 2539PP      PP12643  11.477   6.340   1.807 -0.1884 -0.2651  0.0551
 2540PP      PP12644   0.799  14.177   0.972  0.3130  0.2468 -0.1450
 2541PP      PP12645   6.497   4.496  12.748  0.0002  0.0359 -0.0133
 2542PP      PP12646  15.027  12.003   9.845 -0.3790  0.1169  0.1136
 2543PP      PP12647   7.911   6.192  11.603  0.0813 -0.0053  0.1532
 2544PP      PP12648   0.152   3.552   1.149  0.1442 -0.2849 -0.1452
 2545PP      PP12649   9.961  12.763   0.219  0.1596 -0.2281  0.0937
 2546PP      PP12650   1.752   6.845   2.137  0.0876  0.3506  0.2068
 2547PP      PP12651   4.395  10.599  13.299  0.3787  0.0089 -0.1581
 2548PP      PP12652   8.980   4.151   0.044  0.0218  0.4032 -0.0763
 2549PP      PP12653   1.451  11.764  11.600 -0.2595  0.0871  0.0144
 2550PP      PP12654   9.482  13.195  12.459 -0.0911 -0.0052  0.1758
 2551PP      PP12655  15.863   5.947   8.802  0.2822 -0.1572  0.1878
 2552PP      PP12656   7.141   5.083   0.312  0.0026 -0.1354 -0.2203
 2553PP      PP12657   0.713   8.559  10.577 -0.2234  0.3201  0.3938
 2554PP      PP12658   7.772   9.899   0.763 -0.0129  0.1130 -0.3670
 2555PP      PP12659   4.357   9.759   9.403  0.0905 -0.1689 -0.0241
 2556PP      PP12660   8.833  13.449   3.167 -0.3421 -0.5314 -0.0566
 2557PP      PP12661  13.028   1.806   0.831 -0.1491 -0.0770  0.0621
 2558PP      PP12662   8.464  13.093  10.834 -0.0527 -0.1022  0.0234
 2559PP      PP12663  14.965   6.368   1.133 -0.1461 -0.1098  0.3407
 2560PP      PP12664   6.264  10.782   1.139 -0.2080 -0.0421 -0.3545
 2561PP      PP12665   1.532   4.728  11.177  0.2162  0.2894  0.0668
 2562PP      PP12666   8.706   8.255  13.307 -0.1815  0.2600  0.2838
 2563PP      PP12667  14.884   5.589  10.545  0.2544  0.1935 -0.2697
 2564PP      PP12668   6.750  11.296   2.968 -0.1270  0.0103  0.0147
 2565PP      PP12669  13.404  15.644   1.632  0.2144  0.2083  0.1029
 2566PP      PP12670   9.504   0.867   4.791 -0.0260 -0.1863  0.0329
 2567PP      PP12671   3.217   7.155   2.523 -0.0802  0.0032 -0.1247
 2568PP      PP12672  11.284   8.856  11.951  0.0763 -0.0214  0.4088
 2569PP      PP12673  13.947   8.390  11.985  0.1996  0.0043 -0.0796
 2570PP      PP12674   1.404   9.269   3.059 -0.1031 -0.2080  0.1383
 2571PP      PP12675   3.904  11.210   0.267  0.1512 -0.0296  0.0575
 2572PP      PP12676   8.309  11.195  10.318 -0.1512  0.2042  0.4741
 2573PP      PP12677   8.709  11.065  12.234  0.0093 -0.2492 -0.2599
 2574PP      PP12678   8.968   0.153   3.507 -0.2080 -0.2577  0.0889
 2575PP      PP12679  12.684   2.322   3.272  0.1042 -0.2006 -0.0986
 2576PP      PP12680   8.430   7.058  12.133 -0.0284 -0.1131 -0.1268
 2577PP      PP12681   2.540  15.305  11.710  0.3335  0.1200 -0.0842
 2578PP      PP12682  11.498  13.526   9.383 -0.1878 -0.0125 -0.0584
 2579PP      PP12683   5.924   8.629  12.282  0.1258 -0.1618  0.1875
 2580PP      PP12684   9.541  14.859  11.123 -0.0376 -0.1146 -0.0257
 2581PP      PP12685   5.029   6.112  12.794  0.1560  0.0898 -0.2774
 2582PP      PP12686   6.819   8.383  13.207 -0.1565 -0.0663  0.0807
 2583PP      PP12687   1.082   7.343   3.247 -0.0283 -0.0518  0.1896
 2584PP      PP12688   5.435   8.408  12.619  0.0913  0.0209 -0.2363
 2585PP      PP12689  13.871   6.165   2.814  0.1549  0.0529  0.0460
 2586PP      PP12690   4.377   0.366  12.640 -0.2968 -0.1378  0.1028
 2587PP      PP12691   7.807   7.860   9.559 -0.0222  0.0711  0.1392
 2588PP      PP12692  13.747   7.805   9.236 -0.0715  0.0567  0.0046
 2589PP      PP12693   0.058   8.951   1.262  0.2696 -0.0877  0.1551
 2590PP      PP12694  14.272   0.250  13.492  0.2993 -0.1837  0.1917
 2591PP      PP12695   2.134  10.022  11.783 -0.1483  0.3794  0.0201
 2592PP      PP12696   8.949  13.704   2.307 -0.2483 -0.3668 -0.1024
 2593PP      PP12697  15.713   7.983  10.459 -0.3173 -0.0752  0.1497
 2594PP      PP12698  15.181   2.338  13.313  0.1854 -0.0915  0.1326
 2595PP      PP12699  14.881  14.252   0.542  0.2041  0.0104  0.0689
 2596PP      PP12700   9.533   1.439  13.341  0.2150  0.4136  0.0615
 2597PP      PP12701  10.303  15.082   2.731 -0.0294  0.3825 -0.1897
 2598PP      PP12702  11.314  11.323   2.848 -0.1252 -0.0381 -0.0955
 2599PP      PP12703   0.007   9.347  12.541 -0.1157  0.3948 -0.2322
 2600PP      PP12704   0.257   1.328   4.196 -0.0143 -0.0707  0.0042
 2601PP      PP12705  10.342   7.344   4.508 -0.0975 -0.0299 -0.0677
 2602PP      PP12706   9.138   5.924  10.158  0.1833 -0.0500 -0.0259
 2603PP      PP12707   7.379   5.408  11.188 -0.1678 -0.0154  0.1415
 2604PP      PP12708   2.628  13.172  11.795 -0.2240 -0.1685  0.3588
 2605PP      PP12709  11.198   8.917  12.572  0.1953 -0.0800  0.0230
 2606PP      PP12710   5.355  10.367  10.687 -0.0889 -0.0062  0.0484
 2607PP      PP12711   3.447   3.170   2.349  0.3465 -0.1965  0.2137
 2608PP      PP12712   4.161   1.752  12.863 -0.0723 -0.0676  0.0961
 2609PP      PP12713   6.206   0.100   1.792 -0.0074  0.0832 -0.0669
 2610PP      PP12714   8.210  10.442   0.355 -0.1684  0.0622 -0.1644
 2611PP      PP12715   0.726  10.631  12.244  0.0403  0.1400  0.1297
 2612PP      PP12716  11.822  14.114   2.405  0.0830  0.2807 -0.4071
 2613PP      PP12717   4.154  12.134  11.130 -0.0719  0.3531  0.1722
 2614PP      PP12718   1.182   1.107  11.885  0.1825 -0.0590 -0.1477
 2615PP      PP12719   1.461   1.897   3.314  0.4443 -0.1225  0.0097
 2616PP      PP12720   5.284  11.135   4.003 -0.1314  0.0711 -0.1085
 2617PP      PP12721   3.043   7.582  10.720  0.3084 -0.1612 -0.1623
 2618PP      PP12722   0.170   7.388  11.025  0.0164 -0.1680 -0.0444
 2619PP      PP12723   3.927  11.023   4.097  0.3553  0.3705 -0.1270
 2620PP      PP12724   8.339   1.959   4.427 -0.0811  0.3518 -0.3905
 2621PP      PP12725   4.933   8.508   2.721  0.0272  0.1427  0.0994
 2622PP      PP12726  11.138   6.780   3.722  0.0239  0.0925 -0.0579
 2623PP      PP12727   4.402   7.496   9.584  0.0332 -0.0274  0.2310
 2624PP      PP12728  12.910   6.176  12.316  0.1187  0.0182 -0.0423
 2625PP      PP12729   6.110  14.965   4.076  0.1118 -0.0570 -0.1873
 2626PP      PP12730  12.144  13.279  11.420  0.2229 -0.1102  0.0714
 2627PP      PP12731   4.361   9.042   3.901  0.1158  0.1882 -0.1767
 2628PP      PP12732   6.863   3.662   2.392  0.0336  0.0075  0.1606
 2629PP      PP12733   4.427   3.347  11.901  0.0307 -0.6718  0.1178
 2630PP      PP12734   2.559  13.037  13.433  0.1637 -0.0135 -0.1943
 2631PP      PP12735  12.300   4.922  13.497 -0.2299  0.0544 -0.3422
 2632PP      PP12736   5.527   4.037  10.459 -0.1519  0.0148  0.1661
 2633PP      PP12737   8.717   8.923   1.664 -0.0145  0.3227 -0.3104
 2634PP      PP12738   0.653  13.766   3.442  0.1706  0.2390  0.1263
 2635PP      PP12739   8.299   5.112   2.753 -0.4340  0.0832  0.2173
 2636PP      PP12740   6.746  14.252  12.505  0.0711  0.1482 -0.1657
 2637PP      PP12741   9.411   7.214  10.492  0.3197  0.4033  0.1847
 2638PP      PP12742  10.369   5.019  11.718 -0.1247  0.1604  0.0637
 2639PP      PP12743  13.747   7.374   7.601  0.2909  0.2177  0.1526
 2640PP      PP12744   6.705   5.535  11.959  0.2091 -0.0006 -0.0988
 2641PP      PP12745   3.562  15.312  11.658  0.1494  0.3068 -0.1836
 2642PP      PP12746  11.806  15.807  13.288 -0.0457  0.3454 -0.2730
 2643PP      PP12747   3.821   9.600  12.601 -0.1354  0.2843  0.2409
 2644PP      PP12748   7.044  11.762   2.007 -0.0366  0.0810 -0.4434
 2645PP      PP12749  12.292   0.155  10.873 -0.2944  0.0393 -0.0539
 2646PP      PP12750  11.680   7.839  12.164 -0.1279 -0.0236 -0.0500
 2647PP      PP12751   6.670   3.010  12.850  0.0285 -0.1572 -0.2732
 2648PP      PP12752   1.664  14.156  12.875 -0.0348 -0.3286 -0.2165
 2649PP      PP12753  13.924  10.414   0.509  0.1854  0.1458  0.2580
 2650PP      PP12754   6.021   1.258   1.367 -0.2173 -0.2584 -0.0646
 2651PP      PP12755   5.086  12.322  13.310  0.2202 -0.2012  0.0769
 2652PP      PP12756   3.343   4.688   0.123 -0.0006 -0.0755 -0.3058
 2653PP      PP12757  10.499  10.878   1.841  0.3661  0.1578  0.1325
 2654PP      PP12758  15.843   8.289   2.077 -0.1246  0.0894  0.0394
 2655PP      PP12759   7.664  12.960   1.736 -0.0407 -0.0739  0.1013
 2656PP      PP12760   1.399   5.646  10.340  0.1057 -0.0561 -0.4362
 2657PP      PP12761   1.114   9.713  11.465 -0.0255 -0.0212 -0.1036
 2658PP      PP12762   5.948  11.618   1.888  0.0498 -0.0513 -0.2121
 2659PP      PP12763   9.524   3.284   1.335  0.1037  0.0079  0.0391
 2660PP      PP12764  10.845  10.869   4.594 -0.0010  0.2433 -0.2554
 2661PP      PP12765  10.637  10.347   3.741  0.4450 -0.2565 -0.0016
 2662PP      PP12766   9.170  11.974   1.664  0.0811  0.1085  0.2383
 2663PP      PP12767   3.957   7.032  10.177 -0.2534 -0.1728 -0.1804
 2664PP      PP12768   3.774  11.114   1.731  0.3328 -0.0800  0.3624
 2665PP      PP12769   0.286  14.808   1.926  0.0873 -0.4579 -0.0968
 2666PP      PP12770  14.527   3.375   3.053 -0.0775 -0.1739  0.1333
 2667PP      PP12771   9.135   8.074   2.704 -0.1924  0.2246 -0.0983
 2668PP      PP12772   6.208   7.172   2.915  0.1218  0.1796 -0.0432
 2669PP      PP12773  11.127   8.927   2.336 -0.2602 -0.0254  0.2095
 2670PP      PP12774  14.676   6.161   2.625  0.1361  0.0980 -0.1194
 2671PP      PP12775  11.600  15.314  12.493 -0.1063 -0.1810 -0.2636
 2672PP      PP12776   3.852   5.608   3.273 -0.2280 -0.2522  0.0966
 2673PP      PP12777   2.970   9.855  12.403 -0.0089 -0.6162  0.3291
 2674PP      PP12778  13.375   0.523   1.031 -0.1539 -0.0681  0.0229
 2675PP      PP12779   6.719   3.018  13.368  0.1953  0.2740 -0.1295
 2676PP      PP12780   4.553   9.252  11.177  0.1360  0.1672 -0.2497
 2677PP      PP12781   9.368   3.686  10.168  0.0306  0.1439 -0.0769
 2678PP      PP12782   1.746   0.916  10.561 -0.0185 -0.0885 -0.1720
 2679PP      PP12783   2.534   7.251  12.899  0.0297 -0.0924  0.0652
 2680PP      PP12784   9.984   2.208  11.478  0.1545 -0.1690  0.1853
 2681PP      PP12785  13.837  11.639   0.440 -0.1717  0.2354  0.0575
 2682PP      PP12786   7.101   3.636   1.015 -0.0101 -0.0041  0.1880
 2683PP      PP12787   0.069   4.309  12.641  0.1903  0.3668 -0.0869
 2684PP      PP12788  11.355   9.847   1.102 -0.3084  0.0333  0.2792
 2685PP      PP12789   8.722  12.169   4.490 -0.1950 -0.1387  0.0849
 2686PP      PP12790  10.729  11.244   9.484 -0.0160 -0.0034  0.0437
 2687PP      PP12791  13.175  10.706   3.630  0.0437 -0.0306 -0.1148
 2688PP      PP12792   0.420  13.405   3.135 -0.2338 -0.0949 -0.1465
 2689PP      PP12793   1.039   4.779   3.214 -0.2063 -0.1232 -0.5550
 2690PP      PP12794   0.245   5.707  13.074  0.2148 -0.0611  0.0430
 2691PP      PP12795   3.094   9.693  10.037  0.2276  0.1455 -0.0589
 2692PP      PP12796   3.909  13.344   2.276 -0.1356  0.2659 -0.1227
 2693PP      PP12797  12.762  12.711  10.580 -0.0611 -0.1357  0.2427
 2694PP      PP12798  13.997   8.043   1.562  0.2912 -0.0808  0.1204
 2695PP      PP12799   4.882  15.533   3.514 -0.1302 -0.4237  0.2426
 2696PP      PP12800   4.181   6.562  12.825  0.0844 -0.1639 -0.1825
 2697PP      PP12801   8.549  10.861   1.406 -0.2979 -0.2918  0.1960
 2698PP      PP12802   9.061   1.847  11.200 -0.4481 -0.0182 -0.2150
 2699PP      PP12803  15.716   8.107  13.008 -0.0992  0.1329 -0.2360
 2700PP      PP12804  11.604  13.622   0.052  0.1405  0.1244  0.1380
 2701PP      PP12805  12.471   0.490   9.794  0.1502  0.0519 -0.0066
 2702PP      PP12806   1.781   1.827   4.739 -0.2479 -0.0196 -0.0011
 2703PP      PP12807  13.516   1.517   3.313 -0.1299 -0.1387 -0.1040
 2704PP      PP12808   1.659   4.166  12.579  0.0809 -0.2738  0.2337
 2705PP      PP12809   3.210   6.809   0.396 -0.1549 -0.2686 -0.1751
 2706PP      PP12810   9.235  14.357   3.249  0.0561  0.2890 -0.0447
 2707PP      PP12811  11.845   4.878   3.766  0.0663  0.1140 -0.0964
 2708PP      PP12812   6.268  13.579   1.642 -0.0524 -0.1837  0.1624
 2709PP      PP12813   0.032   4.693   9.833  0.0522  0.1357 -0.5147
 2710PP      PP12814  10.104   9.620  10.465 -0.0338  0.0510  0.0646
 2711PP      PP12815   8.863   8.485  12.287  0.1752  0.2775 -0.1781
 2712PP      PP12816   3.180   7.536   0.020 -0.0728 -0.0151 -0.1979
 2713PP      PP12817   4.841   9.660   3.233  0.2559  0.3425  0.0041
 2714PP      PP12818   6.733  10.393  13.496 -0.3023  0.3177 -0.0228
 2715PP      PP12819   2.366  14.016   0.049  0.3821 -0.0217 -0.0551
 2716PP      PP12820   7.994   3.281   2.753 -0.0644 -0.1114  0.2223
 2717PP      PP12821  14.359   7.154  12.597 -0.2017 -0.0465  0.2168
 2718PP      PP12822   5.498   6.937  12.791 -0.1262 -0.4949 -0.1528
 2719PP      PP12823  13.332   6.345   7.805 -0.0959  0.1658 -0.0792
 2720PP      PP12824   9.158  12.517   0.833  0.0664  0.1628  0.0763
 2721PP      PP12825   9.215   6.509   2.833 -0.3327  0.3696  0.1226
 2722PP      PP12826   1.168   9.939   2.286  0.0787 -0.0997  0.2703
 2723PP      PP12827   5.612  11.542   4.662 -0.0400  0.0332 -0.1692
 2724PP      PP12828  14.161   6.315   2.480  0.0360 -0.0366  0.0609
 2725PP      PP12829   8.222   7.915   3.045  0.1653 -0.0198  0.4037
 2726PP      PP12830  12.195   8.009   0.473  0.2507 -0.0548  0.1288
 2727PP      PP12831   1.306   3.118   0.365 -0.0701  0.2665 -0.3670
 2728PP      PP12832  10.286   2.052  12.983  0.3414  0.4684 -0.1639
 2729PP      PP12833   5.109  11.682   4.687  0.2404  0.4605 -0.1758
 2730PP      PP12834  12.642  13.234   4.570  0.0819  0.0283  0.0224
 2731PP      PP12835  12.144  12.891   8.900  0.1896  0.1097  0.3478
 2732PP      PP12836   4.569   0.285   4.265 -0.3237 -0.2450  0.1056
 2733PP      PP12837   2.957  10.494  12.179  0.0786  0.0228 -0.1339
 2734PP      PP12838   6.171   4.441   1.413  0.3480 -0.0273  0.1917
 2735PP      PP12839  11.637   5.214  10.531  0.3162  0.0286 -0.2011
 2736PP      PP12840   2.374   7.593   9.826 -0.2318 -0.0514 -0.3101
 2737PP      PP12841   2.422   6.371   0.130 -0.0857 -0.0280  0.0744
 2738PP      PP12842  12.747   5.017  10.554  0.0691  0.1643  0.0622
 2739PP      PP12843  14.814  13.473  11.030 -0.1669 -0.0631  0.0849
 2740PP      PP12844  14.162   7.586   1.640 -0.2212 -0.3801  0.0476
 2741PP      PP12845  10.443  15.661  12.748  0.0879  0.0281  0.0113
 2742PP      PP12846   1.950  14.553   2.913 -0.1032  0.0077  0.0730
 2743PP      PP12847   4.947   0.472   0.821 -0.1342  0.1736  0.1209
 2744PP      PP12848  10.134   0.217   2.581  0.2387  0.4176  0.0653
 2745PP      PP12849   6.465   7.616  11.194 -0.3000 -0.1180  0.4430
 2746PP      PP12850   2.645   1.669   4.909 -0.0675 -0.1400 -0.0188
 2747PP      PP12851   7.463  10.105   2.980  0.3911  0.2159 -0.2904
 2748PP      PP12852   5.541   4.195   0.884 -0.0639 -0.1353 -0.0432
 2749PP      PP12853   0.274  13.703  12.291  0.0013  0.3991 -0.2575
 2750PP      PP12854   7.104   6.361   3.260 -0.0970  0.2337  0.0016
 2751PP      PP12855   6.090   3.270  12.825 -0.3159 -0.1379  0.2074
 2752PP      PP12856  14.006   2.409   2.978 -0.1187 -0.2127  0.1476
 2753PP      PP12857   1.375   0.865   0.255 -0.0057  0.0757  0.1487
 2754PP      PP12858  15.428  15.315   4.800  0.1723  0.1790  0.0478
 2755PP      PP12859  12.501  13.948   4.573 -0.1172  0.0982  0.0620
 2756PP      PP12860   3.475   0.547   4.073  0.3835  0.1996 -0.2436
 2757PP      PP12861  10.182   7.974  10.303 -0.0255  0.2419  0.1459
 2758PP      PP12862   7.968  10.344  12.051  0.6049  0.1206  0.0646
 2759PP      PP12863  12.647   1.165  12.503  0.4081  0.3579 -0.0044
 2760PP      PP12864   0.881   0.000   1.362 -0.2180 -0.2029 -0.0745
 2761PP      PP12865   2.111   9.052   9.246 -0.5745 -0.1252 -0.0039
 2762PP      PP12866   3.718   3.906   3.020 -0.2959 -0.0542 -0.2797
 2763PP      PP12867  10.035   1.591   3.605  0.3595  0.0882  0.5360
 2764PP      PP12868   5.834  11.969   3.439 -0.1613 -0.0173  0.0212
 2765PP      PP12869  14.774   6.175   1.535  0.0776  0.0687  0.0682
 2766PP      PP12870   7.768  12.270  11.158 -0.4330  0.0168 -0.3231
 2767PP      PP12871   4.160   3.134   9.344 -0.0880  0.0838  0.0046
 2768PP      PP12872  13.507  13.662   9.065 -0.0268  0.0923  0.3078
 2769PP      PP12873   6.463  11.856  12.366  0.1200 -0.0542 -0.2151
 2770PP      PP12874  10.856   9.439   0.121 -0.0266 -0.4548  0.0330
 2771PP      PP12875  13.144   9.876   0.278  0.1603  0.2289  0.0351
 2772PP      PP12876   1.307  11.013  12.992 -0.1623  0.4136 -0.1705
 2773PP      PP12877   8.264   1.161   2.935 -0.2176 -0.0638 -0.0285
 2774PP      PP12878  12.609  14.536  12.556  0.0246  0.1143  0.0587
 2775PP      PP12879   2.293   8.796  13.134  0.1190  0.5969  0.3321
 2776PP      PP12880   3.957   2.070  13.215  0.0556  0.2163  0.1271
 2777PP      PP12881   1.104   5.552  11.725 -0.0590  0.4096  0.0332
 2778PP      PP12882   6.230   1.374   3.674  0.0355  0.2320  0.0557
 2779PP      PP12883   6.038   6.865  12.775 -0.1332 -0.0003 -0.4586
 2780PP      PP12884   5.315  11.662   8.899  0.0435  0.0003  0.1761
 2781PP      PP12885   0.174   8.568  10.519 -0.2131 -0.0296 -0.0262
 2782PP      PP12886   8.011  10.194   2.608  0.1609 -0.4716 -0.0480
 2783PP      PP12887  11.749   9.752   0.551 -0.4833 -0.0953 -0.2228
 2784PP      PP12888   3.975   3.564   2.292  0.1150  0.1040 -0.0478
 2785PP      PP12889   3.081   4.565   8.721  0.3046 -0.2234  0.1929
 2786PP      PP12890   7.726  10.552  10.580 -0.2568 -0.4683  0.2839
 2787PP      PP12891  12.732   1.703   0.381 -0.0047 -0.0806  0.0226
 2788PP      PP12892  12.411   7.417   3.006  0.0857 -0.3173 -0.0462
 2789PP      PP12893   6.304  10.042   9.400 -0.0068 -0.0680  0.0846
 2790PP      PP12894   3.362   8.121   1.407  0.0302  0.2951  0.1108
 2791PP      PP12895   9.941  14.223  10.724  0.2682  0.2225  0.2406
 2792PP      PP12896  12.837   2.239   0.650 -0.3140 -0.0762 -0.2764
 2793PP      PP12897  12.642   8.416   3.629 -0.0432  0.1263 -0.0812
 2794PP      PP12898  10.926   7.197   0.479  0.5190 -0.1533 -0.0902
 2795PP      PP12899  10.759   5.367  11.742  0.0914 -0.3545  0.0767
 2796PP      PP12900  11.934  12.889   1.750 -0.1214 -0.1381 -0.0812
 2797PP      PP12901  15.384  13.958   9.274 -0.2424  0.0067  0.1578
 2798PP      PP12902   4.467   7.952   0.021  0.1457 -0.1851 -0.2007
 2799PP      PP12903   8.007  11.346  13.141 -0.2918  0.1428 -0.1553
 2800PP      PP12904  15.200  14.343   2.556  0.1207  0.1558 -0.2020
 2801PP      PP12905   9.133   8.235  11.920  0.1045  0.0762 -0.0602
 2802PP      PP12906  12.289  13.108  10.943  0.5103  0.1020 -0.0564
 2803PP      PP12907   3.312   8.891   0.288 -0.2965 -0.2136  0.0013
 2804PP      PP12908   1.691  10.281   1.712 -0.0557  0.0628  0.1914
 2805PP      PP12909   7.058   0.117  13.249 -0.0922 -0.3751  0.1348
 2806PP      PP12910  14.887   8.109   1.827 -0.3014  0.0759  0.0903
 2807PP      PP12911  10.127   7.371   0.863 -0.2347 -0.2135 -0.1060
 2808PP      PP12912  12.912  11.161  12.633  0.0130 -0.2895  0.2155
 2809PP      PP12913  11.160   0.642   3.982  0.0501  0.1188  0.0094
 2810PP      PP12914   4.401   6.195   9.734  0.0245  0.1718  0.2525
 2811PP      PP12915   0.539   9.009   0.931 -0.0871  0.1613  0.3509
 2812PP      PP12916   5.317   5.722  12.889  0.1530 -0.0320  0.1695
 2813PP      PP12917   7.948   2.334   4.013  0.0949 -0.1475  0.1328
 2814PP      PP12918  10.863   6.157   3.101  0.0764  0.3460  0.0482
 2815PP      PP12919   8.537  14.292  11.998 -0.0623  0.1434  0.0330
 2816PP      PP12920   2.526   7.432  10.588  0.2786  0.0757  0.0039
 2817PP      PP12921   2.036  10.364   8.491 -0.1119 -0.0419  0.1650
 2818PP      PP12922   7.355  11.874   2.985 -0.3082 -0.0634 -0.3230
 2819PP      PP12923   2.820  13.705   1.153  0.2749 -0.1111  0.0689
 2820PP      PP12924  10.183   1.532  11.024  0.1934 -0.0250 -0.2365
 2821PP      PP12925   0.164   8.124   3.319  0.0773  0.0680 -0.3792
 2822PP      PP12926   9.101   4.817   2.529 -0.1226 -0.2915  0.1195
 2823PP      PP12927   8.928  13.113   2.661 -0.0185 -0.3679 -0.3072
 2824PP      PP12928   7.733   8.391  11.351 -0.2564  0.0117  0.0250
 2825PP      PP12929   0.807   1.060   4.700 -0.1784 -0.0882 -0.1080
 2826PP      PP12930  10.768  11.097  12.390 -0.2010  0.0557 -0.0702
 2827PP      PP12931   2.711   8.939   0.007 -0.1095  0.0341 -0.1970
 2828PP      PP12932  13.589   3.744   4.005  0.0267  0.2733 -0.1283
 2829PP      PP12933   2.802   9.411  10.328 -0.0316 -0.0923 -0.1451
 2830PP      PP12934  10.690   9.191   9.001  0.2280  0.0231  0.2007
 2831PP      PP12935  10.597   6.572   2.867 -0.0546 -0.0394 -0.4366
 2832PP      PP12936  11.482  15.794   9.729 -0.0823 -0.1965 -0.1130
 2833PP      PP12937   1.445   9.473   1.108  0.0284  0.2145  0.0267
 2834PP      PP12938  12.969  11.300   1.701  0.1643  0.0840  0.1050
 2835PP      PP12939   1.519   8.458   0.629 -0.2233  0.3007 -0.2013
 2836PP      PP12940   6.602  12.685  13.228 -0.0886 -0.1723  0.0042
 2837PP      PP12941   7.206  12.787   9.925 -0.2475 -0.1080 -0.0065
 2838PP      PP12942  12.337  12.744  13.351  0.2198  0.1648  0.3333
 2839PP      PP12943   1.212   7.312   0.978 -0.3479  0.0966  0.2597
 2840PP      PP12944  11.091   6.520  12.468 -0.1927 -0.3156 -0.1202
 2841PP      PP12945   6.985  11.586   3.908  0.1743 -0.5646  0.1029
 2842PP      PP12946  15.074  10.016  10.128 -0.1036 -0.0340 -0.0484
 2843PP      PP12947  11.740  10.145   9.114 -0.1131  0.2214  0.0925
 2844PP      PP12948   2.956   6.534   3.923  0.0759 -0.0319 -0.3179
 2845PP      PP12949   5.863   8.491  12.824 -0.4713 -0.0881  0.2052
 2846PP      PP12950   3.177  11.038  12.174  0.2899 -0.1488 -0.1149
 2847PP      PP12951  10.429   9.622   9.164  0.1611  0.3505 -0.1307
 2848PP      PP12952  14.068  11.816  13.425 -0.0242 -0.0460  0.0059
 2849PP      PP12953   8.331  13.525  12.762 -0.0460  0.1303  0.3137
 2850PP      PP12954   2.496  11.910   3.365 -0.0677  0.0302 -0.0381
 2851PP      PP12955  10.735  10.201   4.287  0.2064  0.1436  0.0541
 2852PP      PP12956   3.961   3.873   0.068 -0.1449 -0.0467  0.2162
 2853PP      PP12957  13.537  10.456   9.265 -0.0303 -0.2286 -0.1136
 2854PP      PP12958  14.168   3.182   3.457  0.0034  0.0902  0.1473
 2855PP      PP12959  11.332   6.764   1.477  0.1058 -0.2030  0.1934
 2856PP      PP12960   1.435  12.559  13.072  0.1388 -0.1384 -0.0083
 2857PP      PP12961   3.117   0.585  10.116 -0.1249 -0.0940 -0.1428
 2858PP      PP12962  10.750   0.911   1.664  0.0742  0.0781 -0.3038
 2859PP      PP12963  10.123   3.726   9.651 -0.4110  0.0099  0.0028
 2860PP      PP12964   1.957   7.329  12.648 -0.3054  0.0147 -0.1719
 2861PP      PP12965   2.047   8.347  11.570 -0.0451  0.3011 -0.2272
 2862PP      PP12966   3.244   2.934   9.504 -0.1470  0.2217 -0.1767
 2863PP      PP12967   9.424  14.393   8.962  0.2132  0.3364  0.0211
 2864PP      PP12968   3.611   2.833   0.357  0.0742  0.0428 -0.1416
 2865PP      PP12969   8.005  12.476  11.599 -0.1387  0.0117  0.0255
 2866PP      PP12970  13.508   2.728  11.125 -0.0770  0.0477  0.1788
 2867PP      PP12971  15.584  14.929  11.554  0.0928  0.0561  0.1431
 2868PP      PP12972   3.937   7.793   2.561 -0.2740 -0.3028 -0.0560
 2869PP      PP12973  10.053  10.533   2.059  0.1483  0.0566 -0.0660
 2870PP      PP12974   6.486   0.261   3.805  0.1614  0.0493 -0.0894
 2871PP      PP12975   7.967   4.523  12.700 -0.0972  0.3104  0.1914
 2872PP      PP12976   7.513   3.834  12.408 -0.0155 -0.1155 -0.1855
 2873PP      PP12977   5.076   1.949   4.029  0.0316  0.1391 -0.0716
 2874PP      PP12978   6.342  10.766   3.936 -0.1876  0.0893  0.0760
 2875PP      PP12979  10.528  15.577   9.682 -0.2569 -0.0993 -0.1098
 2876PP      PP12980   0.132   1.306  11.777  0.0742  0.0295  0.1068
 2877PP      PP12981  10.854  13.340   3.162  0.1819  0.4365  0.0790
 2878PP      PP12982   3.463   4.078   8.760  0.0076 -0.0756 -0.0287
 2879PP      PP12983   7.461   1.033   4.319  0.0118 -0.2119  0.0915
 2880PP      PP12984  10.786  13.835  10.096 -0.2797 -0.1194 -0.1106
 2881PP      PP12985   2.638   8.362  10.320 -0.3171  0.0478 -0.2376
 2882PP      PP12986   5.102   5.481  10.622  0.3169 -0.0345 -0.1360
 2883PP      PP12987  14.640   4.440   8.496  0.2185 -0.2072 -0.0130
 2884PP      PP12988  13.477  11.103   3.312  0.1202 -0.0378  0.4619
 2885PP      PP12989   6.058  10.474   1.957  0.0370 -0.1413  0.0276
 2886PP      PP12990   7.264  14.240  10.028  0.0511 -0.1572 -0.1837
 2887PP      PP12991   6.866  10.293  10.789  0.0908 -0.2491  0.2471
 2888PP      PP12992  14.990  12.144   4.463  0.2263 -0.1064 -0.4893
 2889PP      PP12993   5.198   0.443  11.232  0.0594 -0.2662  0.0408
 2890PP      PP12994   3.017   4.522  12.838 -0.1446 -0.0713 -0.1576
 2891PP      PP12995   2.512   2.005  10.784 -0.1063  0.0235  0.1256
 2892PP      PP12996   7.949  11.394   0.141 -0.0343  0.4189  0.1332
 2893PP      PP12997  12.873  11.798   9.574 -0.1953 -0.2750  0.1971
 2894PP      PP12998   8.389   1.652  12.770  0.0478 -0.1501  0.2587
 2895PP      PP12999   7.423   2.511   9.145  0.1907 -0.2851  0.1010
 2896PP      PP13000   5.519   4.535   3.089  0.2600  0.3348  0.1135
 2897PP      PP13001   6.978   5.072   2.874 -0.2418 -0.0491 -0.2610
 2898PP      PP13002   5.599   5.074  12.297  0.1559 -0.1637 -0.1118
 2899PP      PP13003   6.038   3.917   2.729  0.0515  0.0524  0.1031
 2900PP      PP13004  13.206   2.819  10.713  0.1760 -0.0579 -0.1458
 2901PP      PP13005   7.894   3.703   9.946  0.0599 -0.0013  0.2225
 2902PP      PP13006   8.455   6.717   8.307 -0.1325 -0.1338  0.0633
 2903PP      PP13007  11.376  12.531   4.189  0.0215  0.1469  0.1488
 2904PP      PP13008   9.668   3.954   9.834 -0.0937 -0.0879 -0.1527
 2905PP      PP13009  12.821   0.239  13.052  0.0063  0.0264  0.1983
 2906PP      PP13010   6.534  15.860   2.210  0.0696 -0.3489  0.0754
 2907PP      PP13011   8.290  15.529  11.971  0.1359  0.1972  0.4435
 2908PP      PP13012  12.841   6.276   3.584 -0.0025  0.4653 -0.3656
 2909PP      PP13013   9.138  15.314  11.493  0.2070  0.2836 -0.6001
 2910PP      PP13014   7.820   1.628  11.115 -0.1156 -0.3193 -0.0824
 2911PP      PP13015   2.225  11.410  13.332  0.0677  0.0351 -0.1944
 2912PP      PP13016   2.274   7.422   4.090 -0.0937 -0.1699  0.0825
 2913PP      PP13017  14.179   7.641   3.649 -0.1169 -0.0380 -0.0931
 2914PP      PP13018   2.425   2.178   0.395 -0.0524  0.1008  0.2306
 2915PP      PP13019  15.864   7.486   8.562 -0.0049  0.2480  0.0286
 2916PP      PP13020  11.718   9.582   9.941  0.0614  0.0587 -0.0450
 2917PP      PP13021  14.329  13.899  12.245  0.1554 -0.2130 -0.1594
 2918PP      PP13022  10.153   9.706  12.516 -0.0461  0.2295  0.0025
 2919PP      PP13023  11.167   6.425  13.414 -0.0236  0.2775  0.0300
 2920PP      PP13024  14.680   5.019   1.324 -0.1163 -0.0977  0.1774
 2921PP      PP13025   7.588   4.354   1.503  0.0379 -0.1674  0.2846
 2922PP      PP13026   1.261   0.975   4.885  0.1154  0.0189 -0.2816
 2923PP      PP13027   0.206   2.242   1.001 -0.1672 -0.3018  0.1045
 2924PP      PP13028   8.164   5.695  11.124  0.1081  0.0061  0.2441
 2925PP      PP13029   5.536   0.882   9.976  0.0730 -0.3578  0.3319
 2926PP      PP13030  10.440   3.068  11.481 -0.0463  0.1669 -0.2802
 2927PP      PP13031  14.350  14.260   0.223  0.1789  0.2208 -0.3504
 2928PP      PP13032   6.508   8.203   1.448  0.1885 -0.0739 -0.1850
 2929PP      PP13033   5.867   2.331  11.742  0.0233 -0.1653 -0.1322
 2930PP      PP13034   9.125  13.560  13.267  0.3654  0.0873  0.0205
 2931PP      PP13035  10.122   4.145  10.590  0.0530  0.1761  0.1251
 2932PP      PP13036   1.387  12.688   3.990  0.3323 -0.0578  0.1093
 2933PP      PP13037  11.623   6.575  12.286 -0.2093 -0.3771  0.1349
 2934PP      PP13038   7.251  11.414   3.550 -0.3368  0.1897  0.0705
 2935PP      PP13039   9.720   5.578  10.793 -0.1452  0.3680 -0.2460
 2936PP      PP13040  10.989  14.681  13.230 -0.3546 -0.1876  0.0632
 2937PP      PP13041  14.205  11.824   1.373 -0.0383  0.0134  0.2463
 2938PP      PP13042   4.843   3.863  13.171 -0.3495 -0.0409 -0.0750
 2939PP      PP13043   5.753  11.262   2.739 -0.0573  0.0383  0.4226
 2940PP      PP13044   1.750  10.403  10.551 -0.0021  0.0480 -0.0861
 2941PP      PP13045  14.523  11.886   9.414  0.1686 -0.0017  0.1938
 2942PP      PP13046   7.448  10.957   9.097  0.1132 -0.4880  0.1536
 2943PP      PP13047   8.225   6.378  12.864  0.0586 -0.0677  0.2880
 2944PP      PP13048   5.840  11.394   3.392  0.0848 -0.2321  0.0309
 2945PP      PP13049  10.435   9.332   2.475  0.1984 -0.0557 -0.0205
 2946PP      PP13050  10.717   9.784  12.649 -0.0352  0.1261  0.1411
 2947PP      PP13051  11.496   7.881  11.138  0.0802 -0.0300  0.4593
 2948PP      PP13052   3.538   6.143  11.651  0.1403  0.2535  0.1216
 2949PP      PP13053   6.766   6.851   3.840 -0.1851 -0.0262 -0.0939
 2950PP      PP13054   7.390   0.942  12.763  0.3067  0.0397 -0.0974
 2951PP      PP13055   0.769   2.526   3.421  0.0535  0.0888  0.1472
 2952PP      PP13056  14.922  11.745   2.699 -0.1353 -0.1369 -0.2327
 2953PP      PP13057  13.910  15.309  13.277 -0.0317 -0.0297 -0.2285
 2954PP      PP13058   2.716  10.203   0.773  0.0323  0.0092  0.0409
 2955PP      PP13059   3.426   8.918   4.226 -0.0845 -0.4499  0.3156
 2956PP      PP13060   5.200   5.852   3.488  0.0163  0.1010 -0.1687
 2957PP      PP13061  14.501   8.064   9.753 -0.0427 -0.1437  0.1483
 2958PP      PP13062   4.402  12.039  13.415 -0.1675  0.0445  0.3476
 2959PP      PP13063  10.482   4.223   3.304 -0.2348  0.3539 -0.0989
 2960PP      PP13064   1.498   0.744  12.480  0.1158 -0.0704 -0.0060
 2961PP      PP13065  15.690   0.498   8.925  0.1994 -0.1523  0.1333
 2962PP      PP13066  12.723   6.706   0.092 -0.0254  0.0568  0.0063
 2963PP      PP13067   7.351   2.606  10.471 -0.0918 -0.0016 -0.0912
 2964PP      PP13068   3.037   1.178   1.883  0.2367  0.0536 -0.2982
 2965PP      PP13069   5.933   5.180  11.102  0.2640  0.0175 -0.1344
 2966PP      PP13070   8.106   1.111   9.098 -0.2530  0.0189 -0.1096
 2967PP      PP13071   0.969   5.586   8.320 -0.2247  0.1671  0.0394
 2968PP      PP13072  10.680  10.469  11.570 -0.2597 -0.1097 -0.0941
 2969PP      PP13073  10.081  12.700   4.239  0.2225 -0.0947  0.0168
 2970PP      PP13074  11.917  11.582  10.688 -0.2469 -0.1231 -0.0700
 2971PP      PP13075   5.524   0.894   2.785 -0.0535 -0.2810 -0.2492
 2972PP      PP13076  15.074   4.587   3.080  0.2175 -0.0613 -0.2522
 2973PP      PP13077   1.295   0.153   1.821  0.2992 -0.1555 -0.2489
 2974PP      PP13078   7.645   3.311  10.558  0.2764 -0.0349 -0.1044
 2975PP      PP13079  14.426  11.547  11.440 -0.1044 -0.2349  0.2931
 2976PP      PP13080  13.138   5.797   2.950  0.0084  0.2024 -0.1240
 2977PP      PP13081  11.116   4.856   1.441  0.1456  0.1908 -0.0501
 2978PP      PP13082  11.014  15.524   9.792  0.2431 -0.1164 -0.2156
 2979PP      PP13083   6.854  14.548  10.061  0.0543  0.0276 -0.0308
 2980PP      PP13084  14.804   7.194  10.019  0.1201 -0.0758 -0.2694
 2981PP      PP13085  12.643  14.918   2.942  0.0546 -0.1225 -0.2965
 2982PP      PP13086  12.999   8.882   1.109 -0.1761 -0.0148  0.0210
 2983PP      PP13087   1.031   1.362   0.821 -0.1862  0.0912 -0.0056
 2984PP      PP13088   0.560   2.495  10.792 -0.0296  0.0552  0.0851
 2985PP      PP13089   8.033   3.649   3.598 -0.0675  0.1406  0.1612
 2986PP      PP13090   3.672   0.188  10.687 -0.0319 -0.0750  0.1433
 2987PP      PP13091   9.931   4.792   9.375  0.2038 -0.3018 -0.0102
 2988PP      PP13092  14.060   7.570   9.836  0.4011  0.0744  0.0509
 2989PP      PP13093   6.147   3.259  10.620 -0.2561 -0.1044  0.0240
 2990PP      PP13094   9.722   2.155   5.200 -0.0568  0.0633 -0.0236
 2991PP      PP13095   5.584   2.360  12.568  0.1538  0.0174 -0.2431
 2992PP      PP13096   8.140   2.771   9.924 -0.4099 -0.1005 -0.1533
 2993PP      PP13097   8.072   1.102   1.844 -0.3818  0.0297 -0.5086
 2994PP      PP13098   1.917  15.535   2.888  0.0176  0.2113  0.0403
 2995PP      PP13099   3.240   2.270   0.708 -0.3352 -0.0592  0.0672
 2996PP      PP13100   5.988  10.908  12.471 -0.2110 -0.1496  0.2636
 2997PP      PP13101   1.291   2.114   9.093  0.2285 -0.0919  0.0379
 2998PP      PP13102  15.633   3.062   3.374  0.0345 -0.2528 -0.0729
 2999PP      PP13103   7.793   6.892   9.816 -0.3714 -0.0963  0.0363
 3000PP      PP13104  13.578  13.372  10.715  0.0153  0.1381 -0.0477
 3001PP      PP13105  10.613  14.548   0.482 -0.1750 -0.0182 -0.3023
 3002PP      PP13106  13.757   5.400  12.286  0.1863 -0.2357 -0.0213
 3003PP      PP13107   9.497   3.928  10.851 -0.2612 -0.0183 -0.0080
 3004PP      PP13108  11.228   7.248   1.633  0.1615  0.2619 -0.2901
 3005PP      PP13109  15.276   1.583   2.543  0.2718 -0.3676  0.1679
 3006PP      PP13110   7.248  12.833   2.871 -0.0196 -0.2709  0.0785
 3007PP      PP13111   7.805   1.122   1.345  0.2837 -0.1979 -0.1887
 3008PP      PP13112   2.905   8.369   2.515  0.0727  0.1799  0.1977
 3009PP      PP13113   5.321   6.165  13.263 -0.0368 -0.0391 -0.0698
 3010PP      PP13114  10.718   8.168  11.013  0.3353  0.3045 -0.2989
 3011PP      PP13115   7.183   0.199  10.731 -0.0296 -0.1501  0.3144
 3012PP      PP13116  13.056   6.116   8.913 -0.1817 -0.0806 -0.1697
 3013PP      PP13117   3.360  15.097   0.358  0.1812  0.3812 -0.0270
 3014PP      PP13118   4.835   4.542   2.468  0.1498 -0.3881 -0.2027
 3015PP      PP13119  13.696   5.265   0.256 -0.2246 -0.0821 -0.1195
 3016PP      PP13120  12.089   9.535  13.394 -0.0362 -0.0038  0.0820
 3017PP      PP13121  10.133   6.379   2.481  0.2470  0.1739  0.0154
 3018PP      PP13122  12.325  15.523  10.369 -0.1812 -0.0895 -0.2044
 3019PP      PP13123   4.655   7.399  11.440 -0.1229  0.1154 -0.0837
 3020PP      PP13124  15.538   1.674  12.535  0.3945  0.1162 -0.3021
 3021PP      PP13125   0.969   2.874   2.508  0.2101  0.0639 -0.2718
 3022PP      PP13126   8.914  11.393   0.287 -0.0666  0.1558 -0.0970
 3023PP      PP13127   7.751  15.399  10.689 -0.1571 -0.1555  0.1030
 3024PP      PP13128   3.140   1.949   3.980  0.0849 -0.1988 -0.1600
 3025PP      PP13129   1.013  10.460   0.141  0.0171  0.2026 -0.2051
 3026PP      PP13130   3.080  15.757   3.999 -0.0439  0.1647  0.3343
 3027PP      PP13131   7.336  15.806  11.888  0.4330 -0.1851 -0.0203
 3028PP      PP13132   5.301  11.544   9.703  0.1003  0.3956  0.1361
 3029PP      PP13133   5.619  13.686   9.123 -0.1326  0.1279  0.1494
 3030PP      PP13134  14.875   3.430   4.039  0.1452  0.0670 -0.1998
 3031PP      PP13135  10.655  12.167  12.312  0.1720  0.1479 -0.1587
 3032PP      PP13136   7.223  15.270   9.598  0.2116 -0.0345 -0.1006
 3033PP      PP13137   3.030  13.872   3.217  0.1163 -0.1107  0.0838
 3034PP      PP13138   1.572  11.933   2.833 -0.2858 -0.1742 -0.2892
 3035PP      PP13139   9.006   7.305   3.039 -0.1221  0.1310  0.1550
 3036PP      PP13140   8.403   5.218   3.469  0.1381 -0.1802  0.0986
 3037PP      PP13141  12.474   1.565   0.983  0.0252 -0.1738 -0.0945
 3038PP      PP13142   5.263   8.138   0.105 -0.1924  0.1038 -0.1696
 3039PP      PP13143   4.484  12.374   3.777  0.0596  0.0750  0.1911
 3040PP      PP13144  11.390   5.572  12.271 -0.0271  0.0037 -0.0414
 3041PP      PP13145  14.986  14.806   1.176  0.1803  0.1236  0.0551
 3042PP      PP13146   6.387  11.681   2.809  0.1678  0.2331  0.0936
 3043PP      PP13147   4.604  14.041   2.544  0.0366  0.0398 -0.2744
 3044PP      PP13148   0.337  10.437  11.298 -0.0074  0.0236  0.0007
 3045PP      PP13149  12.430   1.491  13.517  0.0923 -0.0129 -0.4112
 3046PP      PP13150   0.877  11.606  11.470 -0.1838 -0.0312 -0.1547
 3047PP      PP13151   8.567  13.531  10.739  0.0164  0.1304  0.3480
 3048PP      PP13152  13.511   5.212   3.198  0.1752 -0.1231  0.4104
 3049PP      PP13153  11.430   7.254   8.952  0.1807  0.0283 -0.0489
 3050PP      PP13154   2.155   8.793   1.948 -0.0593  0.0140  0.2341
 3051PP      PP13155   6.333   9.052   1.142 -0.0824  0.0386 -0.0233
 3052PP      PP13156   6.991  12.060  13.183 -0.1361 -0.0580  0.0421
 3053PP      PP13157   8.263   4.830   0.009  0.2263  0.0388 -0.2149
 3054PP      PP13158  11.086   1.038   3.539  0.0231 -0.0709 -0.0690
 3055PP      PP13159   4.680   7.267   0.454 -0.0849 -0.2630 -0.0420
 3056PP      PP13160   4.036  14.499   2.348  0.0856 -0.1063 -0.0130
 3057PP      PP13161   4.761   4.406   1.398  0.0301 -0.2541  0.0023
 3058PP      PP13162   0.298  15.814   2.400  0.0264 -0.1233 -0.3413
 3059PP      PP13163   7.673  12.317   2.967  0.0704  0.2774  0.2399
 3060PP      PP13164   1.004  12.208  11.067  0.2089  0.2295  0.0414
 3061PP      PP13165  12.303   5.475  12.826  0.3231 -0.0799 -0.0223
 3062PP      PP13166  15.759  14.900   8.819  0.0586 -0.0625 -0.0236
 3063PP      PP13167   1.755   0.507   9.558 -0.0496  0.1054 -0.0318
 3064PP      PP13168   9.770  12.813   3.115 -0.1465 -0.0610 -0.1913
 3065PP      PP13169  12.742  15.345  10.586  0.0245  0.1997 -0.2808
 3066PP      PP13170   8.964   5.841   0.713 -0.1425  0.0120  0.1640
 3067PP      PP13171  11.192  13.273   9.109 -0.1329 -0.0894 -0.0523
 3068PP      PP13172   1.576   8.901   8.951 -0.1298 -0.0137  0.2677
 3069PP      PP13173  12.832  15.066   2.012 -0.1003  0.1883  0.1198
 3070PP      PP13174  10.709  15.113   2.426  0.1243 -0.2170  0.1350
 3071PP      PP13175   2.615   0.363   1.928  0.2124 -0.0802 -0.4478
 3072PP      PP13176   0.708   3.125   9.756  0.0907 -0.1162 -0.0865
 3073PP      PP13177  14.326   6.319   2.981  0.2067 -0.0202  0.0787
 3074PP      PP13178  12.299   4.497  12.409  0.1866  0.0021  0.2300
 3075PP      PP13179   5.012  11.643   9.271 -0.0709  0.0083 -0.4380
 3076PP      PP13180   7.567  12.101   2.366 -0.0143 -0.1947  0.0937
 3077PP      PP13181  11.804   2.636  10.454  0.0998  0.4529  0.1002
 3078PP      PP13182   2.299  10.797  12.975 -0.0794 -0.1220 -0.0539
 3079PP      PP13183   3.209  13.404   3.292 -0.0861  0.1420 -0.0773
 3080PP      PP13184   0.166  12.091  10.220 -0.0046 -0.2431 -0.3136
 3081PP      PP13185   0.263   5.967   4.351 -0.0941  0.0071 -0.1665
 3082PP      PP13186   5.582   9.756  13.103  0.2796 -0.2670  0.0038
 3083PP      PP13187   2.006   0.447  10.702  0.1530  0.2556  0.0371
 3084PP      PP13188   7.238  10.660  10.729 -0.2793  0.1572  0.0754
 3085PP      PP13189   4.221   0.575   5.012  0.3622 -0.2211 -0.2179
 3086PP      PP13190   7.556  11.125  10.723 -0.4316 -0.1122  0.1396
 3087PP      PP13191  10.969   8.577   1.281  0.1501 -0.0681  0.1926
 3088PP      PP13192   8.223  15.416   0.875  0.0720  0.0679  0.0936
 3089PP      PP13193  14.063   4.848   9.017 -0.0241  0.1568  0.3319
 3090PP      PP13194   7.451  11.873   9.658 -0.0872 -0.2248 -0.0927
 3091PP      PP13195   5.748  11.899   1.207  0.3803  0.0700  0.2249
 3092PP      PP13196   0.567  12.799  12.143 -0.1739 -0.0349 -0.2318
 3093PP      PP13197   1.900   9.546  12.388  0.1829  0.2247 -0.2064
 3094PP      PP13198  13.995  13.150   3.260 -0.0155  0.0145  0.3747
 3095PP      PP13199   6.317   3.818   9.706  0.4287 -0.0193 -0.3054
 3096PP      PP13200  10.054   3.622  12.868  0.1486  0.2249 -0.1465
 3097PP      PP13201   0.533   0.385   2.471 -0.2365  0.2908  0.0690
 3098PP      PP13202   3.270  12.016  11.216  0.2017  0.1221 -0.1295
 3099PP      PP13203   3.641  13.693  12.169 -0.1761  0.4960  0.0011
 3100PP      PP13204   6.500   7.837   3.977 -0.0812 -0.0119 -0.0736
 3101PP      PP13205  12.103   7.263   0.474  0.3926  0.2791 -0.2913
 3102PP      PP13206   2.048   0.095  11.502  0.2548 -0.0603 -0.1655
 3103PP      PP13207  11.026   0.207   2.304 -0.1579  0.0727  0.3044
 3104PP      PP13208   8.636   1.481  10.157 -0.0100  0.0601  0.1493
 3105PP      PP13209  13.755   6.412   3.653  0.4126 -0.0108  0.1735
 3106PP      PP13210  15.790  12.017   0.413 -0.3186  0.1011  0.3688
 3107PP      PP13211   6.459  14.218   1.837 -0.0534 -0.0225  0.3400
 3108PP      PP13212   6.240  11.476   9.163 -0.0740  0.0015  0.3713
 3109PP      PP13213   4.918  10.448   0.960 -0.2668  0.1509  0.3644
 3110PP      PP13214   2.172  14.719   1.125  0.0061  0.0846  0.3187
 3111PP      PP13215   9.643  10.112   4.544  0.3056 -0.0682 -0.0986
 3112PP      PP13216  15.786   7.045   2.252  0.1260  0.1781  0.0132
 3113PP      PP13217  12.500   4.375  11.131  0.1436  0.1580  0.2640
 3114PP      PP13218  11.031  10.473   3.370 -0.0341  0.2423  0.1939
 3115PP      PP13219   8.906   7.732  11.265 -0.3878  0.0637  0.2346
 3116PP      PP13220  12.274  11.571  11.502 -0.1601 -0.0765  0.0018
 3117PP      PP13221   0.257   2.551   2.014  0.0016 -0.0250  0.2446
 3118PP      PP13222  11.282   1.320  12.027  0.0598  0.0145  0.0015
 3119PP      PP13223   5.031   3.235   3.854 -0.1211 -0.1501 -0.0985
 3120PP      PP13224   4.340  13.061   3.746 -0.2122 -0.0776  0.1190
 3121PP      PP13225   3.152  13.274   1.308 -0.0052  0.0692 -0.3693
 3122PP      PP13226   1.895   7.163   2.483  0.1356 -0.4372  0.0501
 3123PP      PP13227   3.990   4.922   1.058 -0.1034 -0.0787 -0.3423
 3124PP      PP13228   4.561   3.520   1.702  0.1455  0.1277  0.1280
 3125PP      PP13229  12.591   4.325   3.200  0.0315 -0.0568  0.0340
 3126PP      PP13230  13.249   5.156  13.397  0.1843 -0.1992 -0.2111
 3127PP      PP13231  10.117  14.697  13.413 -0.2656 -0.3459  0.3348
 3128PP      PP13232   0.444  12.347   0.964  0.0820 -0.2311  0.0572
 3129PP      PP13233  12.174  10.861   2.117 -0.1852 -0.1238 -0.0391
 3130PP      PP13234  12.551   7.517   1.237  0.0174 -0.1670 -0.1353
 3131PP      PP13235   6.410   5.409   3.575  0.2755 -0.1033  0.3195
 3132PP      PP13236   6.764   7.034   0.232  0.3568  0.0160  0.0385
 3133PP      PP13237  13.700   7.256  11.025 -0.1372 -0.1437 -0.3489
 3134PP      PP13238   9.455   1.744   3.775  0.1920 -0.0918 -0.0460
 3135PP      PP13239  10.804   4.571   3.999 -0.0233  0.2360  0.1934
 3136PP      PP13240   3.145   1.689   2.093  0.0664  0.0001 -0.0235
 3137PP      PP13241  11.090  11.682  11.469 -0.0799 -0.2270  0.1513
 3138PP      PP13242   9.116   2.899   4.826  0.1197 -0.1157  0.2599
 3139PP      PP13243   9.178  14.245   4.184 -0.0507 -0.0208 -0.0680
 3140PP      PP13244  13.660  14.417   4.400  0.2822 -0.2453  0.0126
 3141PP      PP13245  11.759   1.839  13.008  0.2834  0.0772 -0.0475
 3142PP      PP13246  12.173   7.929  12.367  0.1974  0.2490  0.1344
 3143PP      PP13247   6.116  13.251  12.981 -0.2467  0.0687 -0.1725
 3144PP      PP13248   5.306   8.367   3.739 -0.0596  0.2085 -0.1045
 3145PP      PP13249   2.106  15.706   4.626 -0.1125  0.0198  0.2383
 3146PP      PP13250  10.266   6.087   8.974 -0.2564  0.0192 -0.1630
 3147PP      PP13251   4.606   3.601   9.644 -0.2928  0.0279  0.0642
 3148PP      PP13252   5.060  14.479  12.042  0.1093  0.1111 -0.1474
 3149PP      PP13253  15.476  13.206   4.400  0.1924 -0.0401  0.2416
 3150PP      PP13254   8.540  14.619   1.519  0.0924 -0.1004 -0.1003
 3151PP      PP13255   9.622  15.851  10.311  0.2809 -0.1802 -0.2421
 3152PP      PP13256  15.854   8.554  11.813  0.0926 -0.1225  0.1637
 3153PP      PP13257   4.105   9.220  10.780 -0.1530  0.1592  0.3166
 3154PP      PP13258   7.368   0.383  12.779 -0.0733 -0.2062  0.2119
 3155PP      PP13259   9.270   8.942   9.263 -0.0921 -0.2742  0.0921
 3156PP      PP13260   8.820   7.440   3.703  0.0775  0.0712  0.0720
 3157PP      PP13261  10.952   8.676  11.201 -0.1338 -0.1708  0.2982
 3158PP      PP13262   7.843   1.193   0.680 -0.0998 -0.0626 -0.0575
 3159PP      PP13263  13.983  14.060  11.486 -0.0516 -0.0984  0.2678
 3160PP      PP13264   3.318  10.189  12.460  0.1646 -0.2211  0.2147
 3161PP      PP13265   0.485   6.703   0.373 -0.1021  0.0992 -0.0162
 3162PP      PP13266   6.458   1.751   4.020  0.4243 -0.1084  0.1737
 3163PP      PP13267   4.280  13.042  11.000 -0.0271  0.3439  0.0916
 3164PP      PP13268   1.012  14.881   1.156  0.0555  0.1988 -0.0372
 3165PP      PP13269   0.386   9.173   9.798 -0.0176  0.2170  0.2517
 3166PP      PP13270   1.925  10.187   0.090  0.0283  0.1893 -0.0549
 3167PP      PP13271   3.825  10.908   9.542 -0.2580 -0.0692  0.2695
 3168PP      PP13272   8.041  13.055   3.452  0.0453  0.1942 -0.0667
 3169PP      PP13273  12.626  10.657  11.296 -0.0533 -0.0638  0.0302
 3170PP      PP13274  11.485   8.335  12.179  0.0685 -0.1002 -0.2326
 3171PP      PP13275   1.647   3.241  12.579 -0.0213  0.1545  0.2511
 3172PP      PP13276   8.980   6.632   1.325 -0.2097 -0.1677  0.0189
 3173PP      PP13277   8.108   8.483   3.542 -0.4387 -0.1222 -0.0542
 3174PP      PP13278  12.109   0.745   9.615 -0.0109 -0.0118 -0.0519
 3175PP      PP13279   3.655   5.297   0.189  0.1119 -0.0232  0.1085
 3176PP      PP13280  14.649   7.515  11.886  0.1615 -0.0794 -0.2395
 3177PP      PP13281   4.868  10.919  13.397 -0.1179 -0.0977 -0.0845
 3178PP      PP13282   5.256  12.653  12.976  0.0208  0.4391  0.2613
 3179PP      PP13283   4.471  15.552   9.042  0.0789 -0.4148 -0.0040
 3180PP      PP13284   0.241   7.537  10.466  0.0099  0.0125  0.0181
 3181PP      PP13285  12.882   0.572   1.107  0.0727 -0.1661  0.1168
 3182PP      PP13286  13.819   4.628   3.901 -0.0825  0.1946  0.0972
 3183PP      PP13287   1.986   4.022  10.961 -0.0993  0.0817  0.3088
 3184PP      PP13288  11.384  14.159   1.548 -0.2001  0.0055  0.1133
 3185PP      PP13289   2.767  13.856   2.160 -0.1523 -0.2691  0.1576
 3186PP      PP13290  14.902  11.679  11.425  0.1715  0.2620 -0.1966
 3187PP      PP13291  14.397  14.405   9.807  0.0171  0.2270 -0.0803
 3188PP      PP13292   8.467  14.905   3.745  0.3838  0.0412 -0.0856
 3189PP      PP13293  15.064   1.042   1.608  0.2203  0.1512  0.2659
 3190PP      PP13294   2.996   8.847   2.016  0.0883  0.1666  0.0219
 3191PP      PP13295   2.227  12.703   2.777 -0.1132 -0.1726 -0.3153
 3192PP      PP13296   5.447  14.672   9.308 -0.2638 -0.0789 -0.0619
 3193PP      PP13297   1.292   9.388  10.679  0.0430 -0.0193  0.1232
 3194PP      PP13298  11.736   0.702   0.575 -0.1622 -0.2664  0.0335
 3195PP      PP13299  14.277   8.064   3.290  0.1363  0.0398 -0.0689
 3196PP      PP13300   1.061   3.067  11.801  0.0928  0.0234 -0.2177
 3197PP      PP13301   9.035   3.547  12.483  0.0560 -0.1299  0.0622
 3198PP      PP13302   2.238  15.235   4.723  0.2378  0.2067 -0.1746
 3199PP      PP13303  14.351   1.075   4.838 -0.0235 -0.3981  0.4497
 3200PP      PP13304   5.837   5.503  12.535 -0.0098 -0.0302 -0.4138
 3201PP      PP13305   9.823   6.870  13.424  0.1396  0.0874  0.1152
 3202PP      PP13306   6.119  13.886  11.880  0.1633  0.1407  0.0727
 3203PP      PP13307  15.257   7.218  10.313 -0.1449 -0.0143  0.1328
 3204PP      PP13308  13.637   7.670   2.705 -0.2689 -0.1304  0.0479
 3205PP      PP13309   8.509  13.964  12.666 -0.0476 -0.2151 -0.0825
 3206PP      PP13310   8.696  13.811   1.840 -0.1195  0.0304  0.1086
 3207PP      PP13311   7.173   6.106   2.863 -0.1432 -0.1766  0.2557
 3208PP      PP13312   4.421  10.980  12.353  0.0693  0.1886  0.1810
 3209PP      PP13313   2.913  12.722   0.073 -0.0697  0.0937  0.3540
 3210PP      PP13314  10.916   4.246   1.388  0.3480 -0.1740 -0.0109
 3211PP      PP13315  10.442   3.173   3.821  0.1050  0.3668 -0.3228
 3212PP      PP13316   2.865   2.224   1.923 -0.2118  0.2384  0.0070
 3213PP      PP13317   1.106   9.237  11.779  0.2469  0.0113 -0.0071
 3214PP      PP13318   7.574   0.231   0.641  0.1253 -0.3072  0.1291
 3215PP      PP13319   9.369   2.189  11.518 -0.2759 -0.0369  0.2848
 3216PP      PP13320  10.008  13.252  10.994 -0.0117  0.1589  0.0375
 3217PP      PP13321   9.184  12.390   1.982 -0.1706 -0.1390  0.0931
 3218PP      PP13322  13.531  14.018   2.621  0.3104 -0.3123 -0.3184
 3219PP      PP13323   1.893   9.524   8.567 -0.2291 -0.4868  0.0380
 3220PP      PP13324  10.161  11.177   1.527 -0.0456  0.1654  0.1541
 3221PP      PP13325  12.327   8.855   2.079 -0.3037 -0.0555 -0.0465
 3222PP      PP13326   1.235   9.785   1.790 -0.0387  0.0105  0.1758
 3223PP      PP13327   3.552   1.116  11.862 -0.3981  0.0239 -0.0456
 3224PP      PP13328   1.363   0.426  13.253 -0.2441  0.0616 -0.0070
 3225PP      PP13329   5.264  10.760  13.090  0.0723  0.3146 -0.1228
 3226PP      PP13330  11.464   6.083  10.333 -0.0254  0.1195 -0.0525
 3227PP      PP13331   9.801   8.740   0.135 -0.1586  0.0308  0.4602
 3228PP      PP13332  12.452  11.295   8.838  0.0277 -0.1534 -0.1866
 3229PP      PP13333  15.163  10.609   3.222  0.0455  0.1656  0.3230
 3230PP      PP13334   6.447   9.976  11.569  0.1510  0.0282  0.0921
 3231PP      PP13335   7.090   4.772   3.839  0.0823 -0.0711 -0.0242
 3232PP      PP13336  15.580   1.912   1.039  0.0518 -0.1000  0.0974
 3233PP      PP13337  14.415   7.062   3.325  0.0014  0.0635 -0.1233
 3234PP      PP13338  11.664  12.027  13.286 -0.1504 -0.1655  0.0619
 3235PP      PP13339  11.824  12.065  10.646  0.2442  0.2234 -0.2146
 3236PP      PP13340   5.718   9.664  10.177 -0.1099  0.3847  0.0294
 3237PP      PP13341  14.509   0.211   1.472 -0.3213  0.0148  0.2926
 3238PP      PP13342  12.695   0.892  11.530  0.0633  0.3081 -0.0686
 3239PP      PP13343   4.206   6.398  12.325 -0.3832 -0.1867 -0.2239
 3240PP      PP13344  10.109  11.596   9.621  0.3622 -0.1877  0.0027
 3241PP      PP13345   6.274   4.193   1.825  0.3084  0.0546  0.1739
 3242PP      PP13346   5.105  14.339   4.160  0.1431  0.2522 -0.0194
 3243PP      PP13347   8.092   7.170   2.981 -0.2613 -0.0079 -0.0774
 3244PP      PP13348  13.748   0.122   1.593  0.1253 -0.3591  0.2781
 3245PP      PP13349   2.687   2.747  12.747  0.0417 -0.2985  0.1107
 3246PP      PP13350   4.477  12.676  11.905  0.0970 -0.0007  0.1800
 3247PP      PP13351   5.676   2.749   2.011  0.1346  0.3126  0.1228
 3248PP      PP13352   2.160   1.105  10.796  0.1540 -0.1540  0.1176
 3249PP      PP13353   4.796  15.190   9.205 -0.1300 -0.3144 -0.2161
 3250PP      PP13354   7.614   2.583   2.676  0.0983 -0.2723 -0.1681
 3251PP      PP13355  13.964  14.060   9.749  0.0879 -0.1801  0.3663
 3252PP      PP13356  10.613   4.311  10.491 -0.0614 -0.1292  0.1308
 3253PP      PP13357   4.844   2.254   3.702  0.1198 -0.0925 -0.0295
 3254PP      PP13358   1.044  12.102   3.744  0.0149  0.0627  0.0364
 3255PP      PP13359   0.195   9.999   2.518 -0.0314  0.0064  0.3659
 3256PP      PP13360   2.047  10.406  10.988 -0.3030  0.1549  0.3263
 3257PP      PP13361   2.774   9.968   2.587 -0.1016  0.1110 -0.1261
 3258PP      PP13362   3.220   1.017   2.918  0.0811 -0.0087  0.1418
 3259PP      PP13363   5.387   1.840   2.155  0.0216  0.0269  0.4283
 3260PP      PP13364   8.500   8.074   7.885 -0.1827  0.0295 -0.0876
 3261PP      PP13365   3.684  13.922   0.914 -0.0767  0.0161 -0.2697
 3262PP      PP13366   8.652  14.139   0.871 -0.2158 -0.4031 -0.1578
 3263PP      PP13367   3.812   4.828  10.493 -0.3225 -0.0700  0.1999
 3264PP      PP13368  15.732   6.932  10.058  0.2959  0.0848  0.1176
 3265PP      PP13369  11.403  15.696   2.234  0.0602 -0.1647 -0.2664
 3266PP      PP13370  12.082   0.017   2.416  0.0246 -0.1368  0.0010
 3267PP      PP13371   0.902   0.847   2.549  0.0104  0.2998 -0.0821
 3268PP      PP13372   0.170  14.892  10.308 -0.2404 -0.0391  0.0475
 3269PP      PP13373   5.126  10.785   0.689 -0.0639 -0.0401 -0.1790
 3270PP      PP13374   6.093  13.929   8.943 -0.3944 -0.3154 -0.3427
 3271PP      PP13375  13.667   0.713   2.331  0.1858  0.3059  0.1838
 3272PP      PP13376  11.599   8.026   2.198  0.1294  0.0357  0.2118
 3273PP      PP13377  14.842  11.461   9.896 -0.1778 -0.1811  0.1816
 3274PP      PP13378   9.984  11.871   3.816  0.3021 -0.1215 -0.0335
 3275PP      PP13379   6.122   7.403  10.290  0.0686 -0.1731  0.1930
 3276PP      PP13380   4.969  10.839   1.299  0.1841  0.1573 -0.1492
 3277PP      PP13381  10.260   9.885   1.936 -0.3666 -0.0856 -0.2572
 3278PP      PP13382   0.689   3.759  12.457 -0.1546  0.0789  0.0199
 3279PP      PP13383   8.455   5.249  12.620  0.1789 -0.0031  0.1507
 3280PP      PP13384  15.849   9.460   0.161  0.0815 -0.1683  0.0123
 3281PP      PP13385   2.047   6.562   2.471 -0.1885  0.0012  0.1240
 3282PP      PP13386  14.900   9.187  11.097 -0.0742 -0.3011  0.0585
 3283PP      PP13387   7.514   4.604  11.806  0.0452 -0.0938  0.1614
 3284PP      PP13388  11.215   7.293   3.652 -0.2026 -0.2994 -0.4829
 3285PP      PP13389   0.276  14.074  13.299 -0.4094 -0.2000  0.1168
 3286PP      PP13390  12.543   7.098   8.245 -0.0116 -0.1460  0.2804
 3287PP      PP13391   3.787  13.549   8.902 -0.0874  0.1330  0.1221
 3288PP      PP13392   5.583   9.547  10.759 -0.0699  0.1337 -0.0122
 3289PP      PP13393   3.709  14.582   0.008  0.0643 -0.0281  0.3655
 3290PP      PP13394   9.745   5.067   9.863 -0.0783 -0.0925 -0.0754
 3291PP      PP13395   6.615   0.238   0.478 -0.3144 -0.0266  0.1953
 3292PP      PP13396  11.469  11.246   0.849 -0.0733 -0.0882  0.3065
 3293PP      PP13397  10.480   9.750   3.237 -0.2170  0.1998  0.0117
 3294PP      PP13398  13.927   8.100   0.781  0.0590  0.0733 -0.1155
 3295PP      PP13399   4.195   5.360   2.194  0.1739 -0.0948 -0.0126
 3296PP      PP13400   1.363  10.114   7.979 -0.0491  0.0316 -0.2737
 3297PP      PP13401   7.360   2.310   4.479 -0.0700 -0.1129 -0.0788
 3298PP      PP13402  12.184   0.264   3.768  0.1019  0.0338  0.0994
 3299PP      PP13403   1.329   0.567   9.250 -0.3119  0.0930  0.0022
 3300PP      PP13404  11.622  13.417  11.485 -0.0195 -0.2109 -0.0806
 3301PP      PP13405   1.757  10.594   9.739 -0.0217  0.2444 -0.2795
 3302PP      PP13406   0.405   8.120  10.562 -0.2887 -0.0363  0.2417
 3303PP      PP13407  11.371  15.227   3.197 -0.1673  0.2177 -0.0681
 3304PP      PP13408   4.353   6.115   0.963  0.1607 -0.0877  0.3654
 3305PP      PP13409  10.734   0.243   3.894 -0.0560  0.3848 -0.0477
 3306PP      PP13410   5.015  14.885   2.977  0.0966  0.1119 -0.0998
 3307PP      PP13411   6.451   8.371  10.496  0.0692 -0.3365  0.0969
 3308PP      PP13412  13.266   1.389   9.882  0.0564  0.1184  0.0445
 3309PP      PP13413   0.429   2.001   0.542  0.1840 -0.0330 -0.0618
 3310PP      PP13414   3.234  13.934   2.487 -0.4148 -0.0578  0.2142
 3311PP      PP13415   6.933   3.327   2.729 -0.0524 -0.0460  0.0329
 3312PP      PP13416   2.062   0.328   4.440  0.0365  0.0389 -0.0180
 3313PP      PP13417   4.994   5.157  13.269 -0.3355  0.1297 -0.2757
 3314PP      PP13418  14.941   4.306  12.853 -0.1147  0.1047  0.0310
 3315PP      PP13419   9.892   8.777   2.028  0.1878  0.1614 -0.1431
 3316PP      PP13420   9.115   3.181   1.611 -0.1335 -0.0669  0.0070
 3317PP      PP13421   4.331  13.367  13.181  0.1347  0.2563  0.0741
 3318PP      PP13422   8.572   3.565  10.227  0.1409  0.0818  0.0231
 3319PP      PP13423   5.025   4.348  12.820 -0.1998  0.3252 -0.1816
 3320PP      PP13424   5.763  14.895  10.397 -0.3824 -0.1033  0.0560
 3321PP      PP13425   6.438  14.228  10.239 -0.0503 -0.0539 -0.2176
 3322PP      PP13426   3.833  14.228   3.564  0.0594 -0.0928 -0.0617
 3323PP      PP13427  15.591  14.163  12.272  0.1071  0.1142 -0.2918
 3324PP      PP13428  10.381   5.139   2.977  0.0487 -0.0732 -0.0137
 3325PP      PP13429   5.812   1.628  11.327  0.3142 -0.1980  0.1520
 3326PP      PP13430  10.069  10.218   1.364  0.0320  0.2620  0.4052
 3327PP      PP13431  12.083   8.551   9.252 -0.3761 -0.1035  0.0130
 3328PP      PP13432  14.996   1.521  10.296  0.1659 -0.0437 -0.4588
 3329PP      PP13433  10.422   1.736   0.647  0.1720  0.1957  0.0340
 3330PP      PP13434   4.063  11.652   8.933  0.0527  0.0131  0.1091
 3331PP      PP13435   0.096  11.541   2.532 -0.0235  0.1373  0.0331
 3332PP      PP13436  12.670  14.015   3.010  0.1150  0.0446 -0.0713
 3333PP      PP13437  11.264  12.622   0.231  0.1508 -0.1654 -0.2470
 3334PP      PP13438  10.018   8.645   1.424  0.1465 -0.1673  0.0933
 3335PP      PP13439  10.789   3.119   3.076  0.0042 -0.3575  0.3446
 3336PP      PP13440   1.229   0.323   3.292  0.0674  0.1802  0.1942
 3337PP      PP13441  11.885   4.454   4.013  0.0411  0.1032  0.0849
 3338PP      PP13442  12.736   0.669  12.840  0.0599 -0.0657  0.0304
 3339PP      PP13443   3.264   1.352  13.374  0.2602 -0.0334  0.1924
 3340PP      PP13444   6.246  10.951   3.472  0.1398  0.0074  0.1626
 3341PP      PP13445   0.605   2.769   9.426 -0.0371  0.0531 -0.0866
 3342PP      PP13446   2.173   4.611  11.787  0.0743 -0.0007  0.1211
 3343PP      PP13447   2.381  15.577   2.741  0.0833  0.1688  0.1156
 3344PP      PP13448   9.599   8.842  11.948 -0.0171 -0.0874  0.0415
 3345PP      PP13449  10.942  12.201  10.162  0.2486 -0.0347  0.0257
 3346PP      PP13450   1.789   1.822  12.136  0.1745  0.0748  0.0025
 3347PP      PP13451  14.722  10.327   9.290 -0.1336 -0.0257  0.3380
 3348PP      PP13452   2.884   0.628   2.997 -0.0584 -0.1351 -0.2022
 3349PP      PP13453   9.757  14.947   0.240 -0.2213 -0.1548  0.1274
 3350PP      PP13454   3.280   5.637   9.209 -0.1438  0.1360  0.1008
 3351PP      PP13455   2.424   6.570   3.947  0.0687  0.1385  0.0910
 3352PP      PP13456   4.258   4.115   4.551  0.1145 -0.3169 -0.0900
 3353PP      PP13457  14.788   2.732   9.641  0.1123 -0.2017  0.1660
 3354PP      PP13458  10.341   3.898  13.207 -0.1153  0.0900 -0.1340
 3355PP      PP13459   4.419   9.525   3.029 -0.2026  0.1920  0.0689
 3356PP      PP13460   6.484   4.553  11.725 -0.1381  0.3563 -0.3318
 3357PP      PP13461  13.743   8.780   2.361  0.1076 -0.0687  0.0296
 3358PP      PP13462  12.695   7.881   0.712  0.0840  0.0013 -0.1232
 3359PP      PP13463   0.018   1.371  11.205  0.0897  0.3586 -0.0992
 3360PP      PP13464  11.542   6.243  12.608  0.1211  0.0459  0.0204
 3361PP      PP13465   4.216   7.156   0.275 -0.0603 -0.2159 -0.2856
 3362PP      PP13466   1.349   2.815   0.791 -0.0009 -0.0961 -0.5395
 3363PP      PP13467  13.421  13.035  11.079  0.2564 -0.0906  0.2092
 3364PP      PP13468   9.310  10.464  11.121  0.0339 -0.0100 -0.0570
 3365PP      PP13469   1.459  10.998   9.568  0.1817 -0.1372 -0.0829
 3366PP      PP13470  10.840   1.240   5.053  0.2739 -0.3097 -0.0934
 3367PP      PP13471  13.190  13.819   4.768  0.0085  0.2272  0.2405
 3368PP      PP13472   0.858   8.682   8.820  0.1002 -0.0342  0.2212
 3369PP      PP13473   4.439   7.186   2.026 -0.1842 -0.0391 -0.1208
 3370PP      PP13474   7.872  11.323   1.895  0.3186 -0.3903  0.1092
 3371PP      PP13475   6.056  10.558   9.298  0.0731 -0.2969  0.0240
 3372PP      PP13476  14.391  12.324  10.236  0.0026  0.0356 -0.0789
 3373PP      PP13477   4.945  15.053   3.884  0.2573  0.2435  0.1219
 3374PP      PP13478  14.326  12.768  10.132 -0.0369 -0.2679 -0.1776
 3375PP      PP13479   2.914   0.891   1.466  0.0020 -0.3203 -0.1857
 3376PP      PP13480  10.991  14.225   3.378  0.2117 -0.0775 -0.2434
 3377PP      PP13481  10.071  13.743  11.826  0.0523 -0.1964 -0.0124
 3378PP      PP13482   8.427   6.536  10.756 -0.0447  0.1503 -0.2594
 3379PP      PP13483   2.968   5.050   1.253 -0.0085 -0.0067  0.1172
 3380PP      PP13484   3.401  10.300   1.272  0.1347  0.1792 -0.4068
 3381PP      PP13485  12.395   7.826   3.390 -0.0320  0.0424  0.4353
 3382PP      PP13486   2.329   5.167  10.301  0.2626 -0.0348 -0.0522
 3383PP      PP13487  13.626   6.707   1.209 -0.1692  0.1319 -0.0987
 3384PP      PP13488  12.048   5.821  13.076  0.1527 -0.1728 -0.1093
 3385PP      PP13489   8.311   7.610  10.887 -0.0344  0.0067  0.0657
 3386PP      PP13490  11.870   5.443   8.907  0.2543 -0.2594 -0.2610
 3387PP      PP13491   8.059   7.032  11.729 -0.0656 -0.0000  0.3685
 3388PP      PP13492  14.332  12.397   9.741 -0.1009  0.0116  0.1695
 3389PP      PP13493   9.215  15.384   3.249  0.5555  0.1607 -0.0301
 3390PP      PP13494   0.988   0.605  12.190  0.1739 -0.0325 -0.0225
 3391PP      PP13495   2.834  11.160   0.259  0.2993 -0.0192  0.0281
 3392PP      PP13496   0.196  13.585   1.751  0.0133 -0.2668 -0.0980
 3393PP      PP13497   8.847   9.010  11.205  0.1143  0.3611  0.2229
 3394PP      PP13498  13.084  13.775   9.914  0.2007 -0.1872 -0.3587
 3395PP      PP13499   5.744   2.920  13.251 -0.2149 -0.0569 -0.0363
 3396PP      PP13500  13.858  15.812   2.909  0.2990  0.1211  0.2142
 3397PP      PP13501   0.164   8.712   8.705 -0.0462  0.1584 -0.0054
 3398PP      PP13502  15.054   4.060   1.888 -0.4453  0.3496  0.2931
 3399PP      PP13503   3.799  14.720   1.780 -0.2435 -0.1061 -0.0874
 3400PP      PP13504   3.408   1.338  12.379 -0.1248 -0.2283  0.0082
 3401PP      PP13505   6.672   6.409   9.502 -0.1760  0.2195  0.3697
 3402PP      PP13506   3.638  12.243   1.659  0.0267 -0.1548 -0.1803
 3403PP      PP13507   2.184   0.077  10.399  0.0526 -0.0178  0.0622
 3404PP      PP13508   5.828  11.409  11.633  0.0473  0.0010  0.2643
 3405PP      PP13509   3.935  15.053   1.132 -0.4244  0.2636  0.1515
 3406PP      PP13510  10.018   5.577   2.005  0.0716  0.1960  0.1416
 3407PP      PP13511   6.989   2.507   2.555  0.3036 -0.1475 -0.1740
 3408PP      PP13512   2.210   7.142   8.942  0.0339  0.2764  0.2867
 3409PP      PP13513  15.277  12.648   2.381 -0.0027 -0.2341  0.0104
 3410PP      PP13514   8.086  14.338  11.034  0.1863 -0.1453  0.1433
 3411PP      PP13515   9.081   8.001  13.019  0.2749  0.3967 -0.0404
 3412PP      PP13516   4.997   8.438  10.488 -0.0349 -0.0821  0.0357
 3413PP      PP13517   7.389  13.165   2.209  0.0916  0.3572 -0.2751
 3414PP      PP13518  15.579  12.352  11.097  0.0302 -0.0771 -0.0107
 3415PP      PP13519  12.054   4.108   1.373  0.3928 -0.0790 -0.2571
 3416PP      PP13520   6.833   4.655   1.159  0.1665 -0.0117  0.1098
 3417PP      PP13521  13.924   8.803   9.055  0.3681  0.0106 -0.0738
 3418PP      PP13522   9.504   7.695   2.383 -0.1205  0.1194  0.0371
 3419PP      PP13523   2.910   0.683   0.169  0.1032 -0.2780 -0.2957
 3420PP      PP13524   8.733   8.453   1.431  0.3620  0.2733 -0.2210
 3421PP      PP13525   9.677  10.829   2.248 -0.2420  0.2219 -0.1300
 3422PP      PP13526   2.376  11.322   1.796 -0.0674 -0.0678  0.1170
 3423PP      PP13527   9.555   6.061   9.231  0.0152 -0.1340 -0.2462
 3424PP      PP13528   3.548  11.954  12.921  0.2715  0.0245  0.0245
 3425PP      PP13529   4.741  15.533  11.021  0.1598 -0.1701  0.0683
 3426PP      PP13530  13.514  15.765  13.308 -0.1275 -0.0977  0.1755
 3427PP      PP13531   9.191   5.025   0.454 -0.0846  0.0910  0.0355
 3428PP      PP13532  11.445  14.162   3.045  0.2260  0.1305 -0.4220
 3429PP      PP13533  11.773  12.367   8.831 -0.2091 -0.0515  0.1403
 3430PP      PP13534  11.325  14.903  10.809 -0.0177  0.2083  0.0492
 3431PP      PP13535   9.047   0.107   2.368  0.2576 -0.1195  0.0290
 3432PP      PP13536   8.684   5.911   4.087  0.2043  0.3181 -0.4497
 3433PP      PP13537   4.457   6.825   2.849 -0.1752  0.0777  0.1890
 3434PP      PP13538   2.393   6.376   0.612 -0.0352  0.1061  0.0822
 3435PP      PP13539   4.523   1.380  12.179 -0.3616  0.0537 -0.2386
 3436PP      PP13540   2.584   0.972   9.550  0.0387 -0.1710  0.0097
 3437PP      PP13541  12.128   4.857   4.145 -0.2082 -0.1482  0.1870
 3438PP      PP13542   0.791   5.963   2.472 -0.2661 -0.3175  0.2293
 3439PP      PP13543   7.493  10.739   4.224 -0.0465 -0.4354  0.2189
 3440PP      PP13544   2.423   2.588   4.421  0.0450 -0.1669  0.1584
 3441PP      PP13545   1.293   1.365   2.480 -0.0045  0.0197  0.3297
 3442PP      PP13546   8.799  11.363  10.510 -0.2039  0.0999 -0.2167
 3443PP      PP13547   9.291   8.146  12.567 -0.1152  0.0542  0.0669
 3444PP      PP13548   0.681  15.387   3.093 -0.0536  0.0839 -0.0464
 3445PP      PP13549   9.294  10.889  13.081  0.1725 -0.0168  0.1557
 3446PP      PP13550  15.032   7.662   0.944 -0.0505  0.1667 -0.0071
 3447PP      PP13551   3.350  15.801  13.132 -0.2458 -0.0444 -0.0683
 3448PP      PP13552  13.470  13.544   9.729  0.2803  0.1889 -0.0591
 3449PP      PP13553  14.621   8.337  10.220  0.0534 -0.0333  0.1119
 3450PP      PP13554   3.312  14.851  13.403  0.0615  0.1745  0.1913
 3451PP      PP13555   7.192  11.189  12.498 -0.0640  0.0923 -0.1151
 3452PP      PP13556  12.202   7.247   1.493  0.0883 -0.0884 -0.1739
 3453PP      PP13557   4.325   5.374  11.961 -0.1370 -0.1871 -0.0118
 3454PP      PP13558   9.455   0.385   3.398  0.3765 -0.0782  0.0768
 3455PP      PP13559  14.721   9.855   2.879  0.2111 -0.1626 -0.0191
 3456PP      PP13560   2.456   9.562   2.769  0.1400  0.0170 -0.0217
 3457PP      PP13561  11.199   8.730   2.839  0.1832  0.0926 -0.0176
 3458PP      PP13562  14.001   4.274   9.018 -0.1311 -0.0750  0.2193
 3459PP      PP13563   8.187  11.041  12.790  0.1256  0.0383  0.2358
 3460PP      PP13564  15.254   5.077   3.180 -0.0218  0.0484 -0.2962
 3461PP      PP13565   9.733   4.137  12.060  0.4449 -0.2885 -0.0795
 3462PP      PP13566   1.524   8.154  13.323 -0.4693  0.1282  0.0676
 3463PP      PP13567   7.947  11.703   9.422  0.0269 -0.0222  0.0445
 3464PP      PP13568  14.230  12.939   1.683  0.0646 -0.4106 -0.0264
 3465PP      PP13569  10.698   5.653  12.769 -0.0737  0.0025 -0.2207
 3466PP      PP13570   8.964  14.518   9.921 -0.2643  0.0672  0.1156
 3467PP      PP13571   8.037   6.750  13.251 -0.0028 -0.1106 -0.1788
 3468PP      PP13572   6.648   3.953  13.492 -0.0251  0.1616 -0.0263
 3469PP      PP13573   8.311   4.482  13.096 -0.1946  0.2245  0.2901
 3470PP      PP13574  11.348   8.696  13.033 -0.2350 -0.2273 -0.2783
 3471PP      PP13575   7.461   2.933   0.477  0.1168 -0.0383  0.0280
 3472PP      PP13576   6.952   0.224   3.325 -0.2234  0.0017 -0.1955
 3473PP      PP13577   6.028   6.985   9.908  0.2611 -0.3257 -0.0505
 3474PP      PP13578  15.404   9.991  11.173 -0.2531 -0.0692 -0.1358
 3475PP      PP13579   8.822  15.548   1.741 -0.0887 -0.2216 -0.1570
 3476PP      PP13580  10.282   4.581   3.015 -0.0412 -0.2636 -0.1177
 3477PP      PP13581   1.006  13.079  12.353  0.2305  0.1036  0.0845
 3478PP      PP13582  15.032  14.799  10.091  0.0907 -0.0815  0.1486
 3479PP      PP13583  11.298   0.276  10.757 -0.2399  0.0281 -0.0844
 3480PP      PP13584   4.419   6.073  11.220 -0.0028 -0.0678 -0.1097
 3481PP      PP13585  13.112  12.491   0.874  0.1684 -0.1756 -0.0701
 3482PP      PP13586   8.497  13.069   3.107  0.0131 -0.1858  0.3705
 3483PP      PP13587  11.201   8.164   8.473  0.4627  0.1510 -0.0644
 3484PP      PP13588  10.971  13.318  11.679 -0.0718  0.2352 -0.0445
 3485PP      PP13589   1.997   2.818   9.254  0.0681 -0.0931  0.1998
 3486PP      PP13590   5.644   1.947   3.362 -0.0001  0.1956  0.2490
 3487PP      PP13591  14.217   1.469   1.415 -0.1476 -0.0450 -0.2016
 3488PP      PP13592   5.008   2.089   0.563 -0.2900 -0.0043  0.0523
 3489PP      PP13593  10.074  12.603   2.827 -0.0810  0.1439  0.1539
 3490PP      PP13594   7.734   9.725   9.838  0.0543 -0.3379 -0.3992
 3491PP      PP13595   6.229   5.931   8.850 -0.2259  0.1308 -0.0154
 3492PP      PP13596   1.186   6.721   0.587 -0.0074 -0.0953  0.0259
 3493PP      PP13597   6.931   2.744   1.350  0.3698  0.2457 -0.0998
 3494PP      PP13598   7.992   6.708   2.753 -0.2115 -0.1307  0.1936
 3495PP      PP13599   3.039   6.425   3.138  0.2721  0.3845  0.2111
 3496PP      PP13600  10.406  12.090   8.700  0.1424 -0.1391 -0.0969
 3497PP      PP13601  14.624   3.224   1.556  0.2609  0.3719  0.0055
 3498PP      PP13602   4.666  12.405   4.268  0.1342  0.0670 -0.0117
 3499PP      PP13603  14.683  12.305  13.432 -0.2404 -0.1652 -0.1460
 3500PP      PP13604   8.841  14.034   4.511  0.0639  0.0098 -0.2002
 3501PP      PP13605  11.373  13.876  10.245 -0.1036  0.0071 -0.3931
 3502PP      PP13606   4.238   1.034  10.488  0.1112 -0.1480  0.1281
 3503PP      PP13607   5.804   0.268  11.886  0.0831  0.0294 -0.2348
 3504PP      PP13608  13.355  12.572   4.493 -0.0233  0.1750 -0.0443
 3505PP      PP13609   8.505   3.710  10.730  0.0297  0.0138 -0.0029
 3506PP      PP13610   3.575   9.803   9.822  0.0332 -0.0770  0.2611
 3507PP      PP13611  13.656  12.617   4.051 -0.0664 -0.1675 -0.1477
 3508PP      PP13612  13.622   1.706   9.820  0.0594  0.0143 -0.1475
 3509PP      PP13613   3.664  11.574   8.623  0.3386 -0.0756 -0.0212
 3510PP      PP13614   0.413  10.848   1.506 -0.2844  0.1745 -0.1397
 3511PP      PP13615  11.273   7.463   2.927  0.1148 -0.2029  0.0959
 3512PP      PP13616   1.668   6.285  10.929 -0.1189 -0.1264  0.0319
 3513PP      PP13617  15.162   0.696   8.902  0.1176 -0.0965 -0.0222
 3514PP      PP13618   7.212   5.548   0.490  0.0385 -0.0214  0.1609
 3515PP      PP13619  10.347   5.794   9.666 -0.0401  0.2652 -0.2667
 3516PP      PP13620   9.565   5.871  12.142  0.0986 -0.4597 -0.1840
 3517PP      PP13621  14.042   3.398   2.767 -0.1426 -0.1592 -0.2613
 3518PP      PP13622   3.881   3.774  11.828  0.0613 -0.0654  0.3535
 3519PP      PP13623  12.650   2.605   9.656  0.0714 -0.1751 -0.0817
 3520PP      PP13624   8.364   2.706  13.041  0.2925  0.1284 -0.0036
 3521PP      PP13625   2.478  11.525   2.677 -0.5652 -0.0085 -0.1881
 3522PP      PP13626  14.069  14.592   9.457  0.3923 -0.0101  0.2061
 3523PP      PP13627   1.549   3.186   1.207 -0.0705 -0.2219 -0.2047
 3524PP      PP13628  12.768  10.131  11.031 -0.3021  0.2672  0.2208
 3525PP      PP13629  11.441   1.689  12.592  0.2301 -0.0277  0.2113
 3526PP      PP13630   3.057   3.615   9.959 -0.1780 -0.1212  0.0156
 3527PP      PP13631   0.439   0.575  10.961  0.1144 -0.1575 -0.0236
 3528PP      PP13632   5.702   9.212  11.148 -0.0706  0.1918 -0.0092
 3529PP      PP13633   8.080  12.842   9.607  0.1409 -0.1584  0.0651
 3530PP      PP13634   8.470   3.143  10.709 -0.0192  0.2905  0.0554
 3531PP      PP13635   0.459   7.984   8.795  0.1551  0.2630  0.0495
 3532PP      PP13636  15.528   8.063   9.900  0.1135 -0.3394  0.3004
 3533PP      PP13637  12.903   5.754  12.037 -0.1409 -0.0246  0.2554
 3534PP      PP13638   5.063   8.492  13.393 -0.2807  0.1739  0.0004
 3535PP      PP13639  11.591  13.707   3.218 -0.0098  0.1236 -0.1012
 3536PP      PP13640  10.404  14.971   0.797  0.2633 -0.4887 -0.3055
 3537PP      PP13641   1.792  10.805   1.610 -0.2197  0.0784  0.0040
 3538PP      PP13642   8.966  13.843   1.199  0.4375 -0.1082  0.2135
 3539PP      PP13643  15.072   0.038  12.453  0.0239  0.0331 -0.2829
 3540PP      PP13644   9.982   0.454   1.068 -0.1206  0.1899 -0.0699
 3541PP      PP13645   5.166   4.249   0.021  0.1170  0.0708 -0.2331
 3542PP      PP13646   3.226   2.065  12.260  0.2103 -0.0266 -0.1464
 3543PP      PP13647  14.437   6.161  12.122  0.0914 -0.1756  0.1028
 3544PP      PP13648   3.000  10.156  12.854  0.0063 -0.1014  0.0884
 3545PP      PP13649  14.674   8.973  13.376 -0.0120  0.2915  0.2384
 3546PP      PP13650  12.460   3.774  13.042 -0.1356 -0.3282 -0.2445
 3547PP      PP13651   4.374  13.845  11.243  0.0547 -0.2978 -0.0386
 3548PP      PP13652  11.133   9.281  11.706  0.1352 -0.1187  0.0940
 3549PP      PP13653   7.844   2.058   3.608  0.0335 -0.1700  0.1153
 3550PP      PP13654  14.306  13.298   3.805 -0.0650  0.0159 -0.1261
 3551PP      PP13655   6.647   1.446  10.610 -0.1134 -0.0350  0.3051
 3552PP      PP13656   2.447  11.454   0.887 -0.1510  0.2637  0.1792
 3553PP      PP13657   8.215   2.045   2.796 -0.0275  0.0474  0.0703
 3554PP      PP13658   1.205   4.007   9.198  0.3331 -0.0464  0.1202
 3555PP      PP13659   3.491   8.194  12.078  0.3233 -0.0917 -0.0459
 3556PP      PP13660  14.967  14.385   1.493  0.2180  0.1138  0.2773
 3557PP      PP13661  10.662   2.209  12.647 -0.1014 -0.2692 -0.1270
 3558PP      PP13662  12.195   6.536  11.094  0.0076 -0.0620  0.2546
 3559PP      PP13663   4.016   8.120   1.572 -0.1395  0.2248 -0.1503
 3560PP      PP13664   3.026   9.466  10.848 -0.2674 -0.0841  0.0477
 3561PP      PP13665   7.773  14.498   2.887  0.0242  0.0209  0.0209
 3562PP      PP13666  10.562   1.948   2.403  0.0843 -0.1134  0.0902
 3563PP      PP13667   3.461  13.248  13.012 -0.2955 -0.0911 -0.1888
 3564PP      PP13668   2.593  10.315   3.516 -0.2287 -0.0493  0.1854
 3565PP      PP13669   5.154   0.594   9.829  0.1535  0.0717 -0.3313
 3566PP      PP13670   4.053  14.520   0.473 -0.0881 -0.0189  0.2132
 3567PP      PP13671   8.917  10.874   0.976  0.2505  0.0436 -0.1414
 3568PP      PP13672   3.896  13.645   3.701  0.1068 -0.0995 -0.0429
 3569PP      PP13673  12.789  10.999   9.230 -0.1717  0.0055 -0.0875
 3570PP      PP13674   4.497   6.782   3.420 -0.0159 -0.0079  0.0265
 3571PP      PP13675  12.056  10.593   9.993 -0.2228  0.2994 -0.0874
 3572PP      PP13676   9.588   5.579   2.700 -0.1152  0.0223 -0.1915
 3573PP      PP13677  13.469   2.600   4.385  0.4326 -0.3558  0.1081
 3574PP      PP13678   5.769  13.702   1.507 -0.1133  0.0066  0.0190
 3575PP      PP13679   0.624  11.167   9.019  0.2453 -0.0314  0.3102
 3576PP      PP13680   2.536  12.364   9.702  0.1447 -0.2365  0.0950
 3577PP      PP13681   9.918  14.560  11.791 -0.1265 -0.2114 -0.0963
 3578PP      PP13682   6.997  15.340   2.138 -0.0383 -0.1659  0.2859
 3579PP      PP13683  10.223   2.883   4.906 -0.1621  0.0341 -0.0873
 3580PP      PP13684   7.997   1.170   0.084  0.2754  0.2265  0.0839
 3581PP      PP13685   5.222   7.264   3.242 -0.0031  0.0473 -0.0349
 3582PP      PP13686   5.507  14.421   1.893  0.1673  0.0754  0.1305
 3583PP      PP13687  14.693   1.393   2.087 -0.1593 -0.0664  0.0173
 3584PP      PP13688  11.100   3.869  12.414 -0.0094  0.1286  0.0431
 3585PP      PP13689  15.454   4.304   2.056 -0.2160  0.1314 -0.0093
 3586PP      PP13690   3.593   9.344  10.756 -0.0414  0.0791  0.0785
 3587PP      PP13691   1.642  14.933   9.214 -0.0553  0.0801 -0.0912
 3588PP      PP13692   5.702  15.007  12.659 -0.0681  0.0585  0.2243
 3589PP      PP13693   1.634  13.088   0.492 -0.1631 -0.1146  0.1804
 3590PP      PP13694   0.495   4.628   0.867 -0.0052 -0.0262  0.0449
 3591PP      PP13695  12.248   3.519  10.680 -0.0903 -0.2155  0.1736
 3592PP      PP13696  10.253  14.819   9.978 -0.3630 -0.0393  0.2750
 3593PP      PP13697   5.526   0.058   4.589  0.1738 -0.0086  0.1429
 3594PP      PP13698  11.366  14.177  10.694  0.0445 -0.0109 -0.1011
 3595PP      PP13699  15.692  15.317   5.196 -0.0921 -0.4571 -0.1226
 3596PP      PP13700  14.869   4.660  10.953  0.0704  0.1162  0.0132
 3597PP      PP13701   3.802  15.019   4.002 -0.0320  0.3664 -0.2018
 3598PP      PP13702   3.473   5.265   4.005 -0.0665 -0.2353  0.1895
 3599PP      PP13703   5.796   0.507   0.209  0.2579 -0.0441  0.3100
 3600PP      PP13704   4.286   3.835   0.444 -0.3930 -0.0827 -0.0509
 3601PP      PP13705  10.481  11.938   0.596  0.4377 -0.0168  0.0765
 3602PP      PP13706   7.480   2.049   4.090  0.0487 -0.4461  0.0600
 3603PP      PP13707   8.270   6.776   3.292 -0.2448 -0.1304  0.1752
 3604PP      PP13708  11.281   9.348  12.218  0.2511  0.0567 -0.1246
 3605PP      PP13709   3.782   2.372   1.763  0.1050 -0.1679  0.4190
 3606PP      PP13710  13.788   6.228   0.977  0.2975 -0.2186  0.2026
 3607PP      PP13711  10.698   8.637   2.168 -0.2861  0.1221  0.2358
 3608PP      PP13712   0.593   7.329   1.760 -0.1524  0.3000  0.1528
 3609PP      PP13713   5.553   2.028  10.798 -0.2428 -0.0236 -0.0945
 3610PP      PP13714   6.956  14.344   3.485  0.0786 -0.0796  0.1979
 3611PP      PP13715   6.336   2.049   2.287  0.2723 -0.1646  0.0874
 3612PP      PP13716   1.649   8.816   1.912  0.1115  0.1708  0.1921
 3613PP      PP13717   3.797   8.653   2.485  0.1678  0.1460  0.0286
 3614PP      PP13718   9.017  12.918  10.035  0.1526  0.4116  0.3776
 3615PP      PP13719  14.277   9.300  13.159 -0.0609  0.1622 -0.2515
 3616PP      PP13720   3.420  11.282   9.381 -0.1608  0.3937  0.2783
 3617PP      PP13721   1.575   0.302   2.803 -0.0891 -0.1355  0.0885
 3618PP      PP13722   0.781  11.658   3.103  0.3238 -0.1064  0.2059
 3619PP      PP13723   8.069   0.678  13.435  0.0026 -0.0230  0.1096
 3620PP      PP13724  14.120   0.786  12.611  0.4013 -0.0086  0.0857
 3621PP      PP13725  10.107  10.667  10.230  0.1722 -0.0955  0.1951
 3622PP      PP13726   9.494   1.391   1.054  0.0776  0.2772 -0.0150
 3623PP      PP13727   3.194  15.180   2.916 -0.1730 -0.6412 -0.0238
 3624PP      PP13728  15.666   8.472   3.709 -0.1236 -0.1167  0.3747
 3625PP      PP13729   8.693  14.410   2.489 -0.1256  0.1172 -0.2633
 3626PP      PP13730  14.817  13.991   8.505 -0.0053 -0.0085  0.3062
 3627PP      PP13731  14.614  14.702   2.018 -0.1879  0.0634  0.1869
 3628PP      PP13732  11.982  13.390   1.858 -0.3182  0.2401  0.2092
 3629PP      PP13733   6.953  12.599   2.420 -0.1741  0.2596 -0.1299
 3630PP      PP13734   7.251   2.986  11.901 -0.0573 -0.0836 -0.0299
 3631PP      PP13735  11.684  14.286   4.009  0.0638  0.1361 -0.0989
 3632PP      PP13736   7.929   4.467  11.650 -0.2737 -0.3099  0.0151
 3633PP      PP13737  10.125   6.877   5.089 -0.1965 -0.3514  0.0179
 3634PP      PP13738   4.937   3.739   3.579 -0.1375 -0.2023  0.0344
 3635PP      PP13739   4.410   1.643  11.761  0.3641 -0.1960 -0.1245
 3636PP      PP13740  13.199   4.594  13.479 -0.2912  0.2528  0.0531
 3637PP      PP13741  12.923   9.726   9.249 -0.1662  0.0179 -0.1736
 3638PP      PP13742   8.480   0.684  12.922 -0.0465 -0.0926  0.0947
 3639PP      PP13743   9.384  11.182  11.795 -0.1014  0.1944  0.2288
 3640PP      PP13744  13.267   7.598  10.080 -0.2444  0.4515  0.1331
 3641PP      PP13745   7.968   7.575   0.235  0.2387  0.1490  0.1487
 3642PP      PP13746  15.739  10.773  11.380 -0.1792 -0.0608  0.0773
 3643PP      PP13747   5.010   7.365   8.792  0.2427  0.1980  0.4888
 3644PP      PP13748   0.220   0.789  11.974  0.1279 -0.2351 -0.0761
 3645PP      PP13749  10.624   3.289   1.297  0.0482 -0.1089 -0.2448
 3646PP      PP13750  14.580   1.134   0.684 -0.0812 -0.0702  0.2360
 3647PP      PP13751   8.052  11.566  12.704  0.3373 -0.1545  0.0539
 3648PP      PP13752  15.540  13.216  10.667 -0.0055 -0.2223 -0.0596
 3649PP      PP13753  14.280  11.255   2.374  0.1497  0.3326 -0.2163
 3650PP      PP13754   4.726   9.829  10.472  0.0430 -0.1971 -0.0991
 3651PP      PP13755  10.732   2.544   3.921 -0.1568 -0.1016  0.0666
 3652PP      PP13756   2.437   3.856   1.949 -0.2847  0.1488 -0.2624
 3653PP      PP13757   7.845   0.353   4.864  0.0532 -0.0333  0.1461
 3654PP      PP13758  13.384   7.323  11.443  0.0161 -0.0635 -0.3670
 3655PP      PP13759   3.905   8.296   2.843  0.1393  0.3024 -0.0927
 3656PP      PP13760  10.885   6.270   9.692 -0.4369 -0.3145 -0.1996
 3657PP      PP13761   4.561  12.092   3.380  0.1722 -0.1847 -0.0001
 3658PP      PP13762   9.440  11.914  12.817 -0.0902 -0.0961 -0.0622
 3659PP      PP13763   7.754  13.193   9.139 -0.0945  0.1554 -0.3156
 3660PP      PP13764  11.294   9.528  13.366 -0.0684  0.0087  0.0390
 3661PP      PP13765  14.043   6.022  10.629 -0.1309  0.2921 -0.0485
 3662PP      PP13766   9.191  14.769   0.858 -0.1574 -0.3213 -0.1960
 3663PP      PP13767   0.200  12.870   9.665  0.1133  0.1192 -0.0891
 3664PP      PP13768   7.370  14.136   1.550 -0.0282 -0.1949 -0.0836
 3665PP      PP13769   1.694   5.116  11.517 -0.1372 -0.2725 -0.0409
 3666PP      PP13770   9.880   9.406  12.252 -0.1872  0.0417 -0.2470
 3667PP      PP13771   6.669  14.947   2.276 -0.1271 -0.3940  0.0722
 3668PP      PP13772   6.073   7.262  11.803  0.0031  0.1435  0.2040
 3669PP      PP13773  10.880   7.832   9.631 -0.1192  0.0881 -0.2916
 3670PP      PP13774   7.672  14.956   2.002  0.1990  0.0453  0.1347
 3671PP      PP13775   1.042   9.932  13.529 -0.2779  0.2170  0.2812
 3672PP      PP13776   8.105  11.312   2.728  0.0665 -0.1781  0.0847
 3673PP      PP13777   1.544  11.063   8.296 -0.0337  0.1693  0.2015
 3674PP      PP13778  15.397  11.920   8.806 -0.0067  0.0886 -0.0441
 3675PP      PP13779   7.430  13.674   2.244  0.0308 -0.2012  0.2282
 3676PP      PP13780   2.836   2.872  11.077  0.0652  0.3384 -0.0082
 3677PP      PP13781   1.630  10.354   8.886  0.2640 -0.0811 -0.1719
 3678PP      PP13782   8.949  10.192   9.033 -0.1157 -0.0963 -0.0327
 3679PP      PP13783   2.562   2.262   2.605  0.1684  0.1918  0.1318
 3680PP      PP13784   8.345   5.046  10.964 -0.0700  0.1037 -0.1427
 3681PP      PP13785   6.148   0.602   3.653 -0.1135 -0.0558 -0.0915
 3682PP      PP13786   5.029  14.813  13.096 -0.1142  0.2308 -0.1281
 3683PP      PP13787  11.350   1.847  11.918 -0.0080  0.2021 -0.3395
 3684PP      PP13788  11.485  12.461  10.811 -0.0362  0.0241 -0.1554
 3685PP      PP13789   9.779   6.695  12.591 -0.0058 -0.1257  0.0088
 3686PP      PP13790  11.534   1.373   0.941  0.3091  0.5247 -0.3091
 3687PP      PP13791  11.915   2.309  11.910 -0.2281 -0.4752 -0.0259
 3688PP      PP13792   4.942   9.396   2.800 -0.3341 -0.0277 -0.1685
 3689PP      PP13793   1.521   7.031   0.669 -0.3247  0.0929 -0.1855
 3690PP      PP13794   6.908  10.669   0.414 -0.0706 -0.0677  0.2387
 3691PP      PP13795   6.231  11.154   2.743 -0.1897 -0.0608  0.2531
 3692PP      PP13796  14.614   0.678  11.365 -0.0386  0.0996  0.0407
 3693PP      PP13797  13.508  10.716   0.655  0.3234 -0.0710  0.1132
 3694PP      PP13798   5.644   5.252   9.467 -0.1594  0.0580 -0.0088
 3695PP      PP13799  11.653   0.809   4.825 -0.1718  0.3197  0.0732
 3696PP      PP13800   0.527   1.203  13.313 -0.2335  0.0637  0.2570
 3697PP      PP13801   3.088   7.030  10.769 -0.1904  0.0703  0.3250
 3698PP      PP13802   8.258  14.339   1.090 -0.2394  0.1182  0.2029
 3699PP      PP13803   3.907   4.940   9.005  0.1366 -0.1809  0.0713
 3700PP      PP13804   1.423   0.440   0.671  0.0506  0.2870  0.2976
 3701PP      PP13805  10.956  13.130   3.634 -0.3156 -0.0263  0.3476
 3702PP      PP13806  11.270   9.470   9.705  0.0932 -0.1674  0.2370
 3703PP      PP13807   7.758  14.787   0.010 -0.0615  0.1388  0.0906
 3704PP      PP13808   0.680   2.319   1.801 -0.0218 -0.0941 -0.0968
 3705PP      PP13809  12.686  15.510   2.101 -0.0811  0.0880  0.0295
 3706PP      PP13810  12.408   2.371  13.159 -0.1399 -0.1681  0.3275
 3707PP      PP13811   6.143   3.753  12.703 -0.0711 -0.2157  0.3720
 3708PP      PP13812  15.028  14.790  11.805 -0.0795  0.3358  0.2271
 3709PP      PP13813   5.982   6.759   1.842 -0.0954 -0.0283 -0.0167
 3710PP      PP13814  10.538   0.441  12.814  0.1428 -0.2216  0.0885
 3711PP      PP13815  15.262   4.301   0.475  0.1209  0.4594 -0.1473
 3712PP      PP13816  14.015   4.321   1.902 -0.1455  0.0534  0.1805
 3713PP      PP13817  12.238   3.336   1.712 -0.0198 -0.0943 -0.1230
 3714PP      PP13818  14.922   1.467   3.568 -0.1085 -0.0915  0.0271
 3715PP      PP13819   6.329   1.400  11.620  0.0192  0.3222  0.1191
 3716PP      PP13820  12.519   0.773   1.504  0.1855 -0.0390 -0.0391
 3717PP      PP13821   2.220   5.948  12.590  0.0881 -0.0529  0.1174
 3718PP      PP13822   6.976  15.066  10.489  0.3138  0.0692 -0.0273
 3719PP      PP13823   5.296   3.265  10.096 -0.2057 -0.1996  0.0460
 3720PP      PP13824   9.688   7.019   1.746  0.0752  0.1119  0.4560
 3721PP      PP13825   5.103   8.182   2.324  0.0881  0.1184 -0.1449
 3722PP      PP13826   9.563   8.286   3.307 -0.0423  0.0194 -0.2827
 3723PP      PP13827   0.030   0.649   4.112  0.2104 -0.2197 -0.1355
 3724PP      PP13828   5.204   5.019  10.277 -0.0734  0.1802  0.0873
 3725PP      PP13829   7.428  14.390  11.484  0.2553 -0.0138  0.1349
 3726PP      PP13830  11.596   7.399   9.906 -0.2135 -0.0081 -0.1047
 3727PP      PP13831   0.088  12.034  12.696  0.2137  0.3981 -0.2467
 3728PP      PP13832  11.267   1.089   4.892  0.2876 -0.1420  0.4066
 3729PP      PP13833   4.769   7.942   2.716  0.0576 -0.0516  0.0453
 3730PP      PP13834   5.857  12.368   4.331 -0.1398 -0.0117  0.2353
 3731PP      PP13835   4.247  15.713   4.495 -0.2071 -0.3366 -0.3035
 3732PP      PP13836   3.547   2.230  11.908  0.1209  0.2169 -0.1034
 3733PP      PP13837  11.131   5.265  10.640  0.1690 -0.0354 -0.1311
 3734PP      PP13838   0.574   9.066   1.413 -0.3886  0.2077  0.1232
 3735PP      PP13839   7.670   8.576   2.241 -0.0788 -0.3823 -0.0206
 3736PP      PP13840  10.423  13.543   0.321 -0.0960  0.3938 -0.4789
 3737PP      PP13841  10.177   2.383  12.579  0.2805  0.2378 -0.0554
 3738PP      PP13842   5.917   7.145   2.171 -0.0428  0.0523  0.1931
 3739PP      PP13843   9.542   2.765   2.231 -0.1310 -0.3215 -0.4250
 3740PP      PP13844   5.930  10.676   8.782  0.1946  0.0536 -0.1669
 3741PP      PP13845   9.590   5.822  10.387  0.0057 -0.0622  0.1568
 3742PP      PP13846  14.366   2.853   0.945  0.1063 -0.2221  0.0920
 3743PP      PP13847  10.788  15.064  12.979  0.2008  0.0697  0.0125
 3744PP      PP13848  11.534  12.444  11.767  0.1330 -0.0722 -0.1858
 3745PP      PP13849   3.976  11.114  11.094 -0.1317  0.0283  0.0340
 3746PP      PP13850  14.351  15.348  11.307 -0.1102  0.0732  0.0921
 3747PP      PP13851  14.784   2.659   1.298  0.2123 -0.2078  0.3073
 3748PP      PP13852   3.828   6.157   0.214 -0.0765  0.2803  0.0244
 3749PP      PP13853   3.112  15.368   3.438 -0.0082  0.1046 -0.2200
 3750PP      PP13854   0.797  12.187   9.381 -0.0420  0.0337 -0.0133
 3751PP      PP13855  15.603  13.183   1.135  0.0572  0.0219  0.0050
 3752PP      PP13856   8.289  10.401   2.938  0.1414 -0.1190  0.1610
 3753PP      PP13857  11.121  13.453  12.479  0.0860 -0.1357  0.1801
 3754PP      PP13858   9.390  13.043   2.949  0.1016  0.0349 -0.0636
 3755PP      PP13859   0.541   1.996   1.374  0.1844  0.2865  0.0586
 3756PP      PP13860   6.129  11.987   3.942 -0.0302  0.1611  0.1356
 3757PP      PP13861  13.725   7.624  12.829  0.2189 -0.0161 -0.1244
 3758PP      PP13862   2.026   2.681   4.167  0.1420 -0.0280 -0.3351
 3759PP      PP13863  11.191   9.006   1.509  0.3008 -0.2180  0.2658
 3760PP      PP13864   2.913   0.546   0.901  0.1036 -0.1435 -0.1882
 3761PP      PP13865   9.731   4.504  10.861 -0.0022 -0.0690  0.1605
 3762PP      PP13866   6.754  12.385   3.433  0.1792 -0.0293  0.0740
 3763PP      PP13867  10.801   1.640   9.343 -0.2377 -0.1247 -0.3624
 3764PP      PP13868   2.066   7.643   8.940 -0.1063  0.2005 -0.2726
 3765PP      PP13869  11.515  10.371  10.951 -0.2832 -0.0037 -0.0144
 3766PP      PP13870   3.741   5.512  10.618  0.0755 -0.2107 -0.1895
 3767PP      PP13871   2.907  14.826  11.185 -0.0394 -0.0938  0.0953
 3768PP      PP13872   5.561  14.851  13.127  0.1681  0.0538  0.0027
 3769PP      PP13873  14.107  15.593   0.484  0.0085 -0.0582 -0.0916
 3770PP      PP13874   5.064   0.580   2.562 -0.2592  0.1522 -0.0701
 3771PP      PP13875  11.735   3.933   2.590  0.0398 -0.0362 -0.1087
 3772PP      PP13876   4.177   5.269  11.419  0.0187  0.3577  0.2352
 3773PP      PP13877  12.171  13.674  10.906 -0.2661 -0.1888 -0.0350
 3774PP      PP13878  13.345   3.944  10.503  0.1444  0.0280 -0.7703
 3775PP      PP13879  10.351   0.404   3.601 -0.1843  0.2460  0.0197
 3776PP      PP13880   2.141  11.400   2.212 -0.1218 -0.1880 -0.1238
 3777PP      PP13881   9.826   0.090   3.028 -0.0589  0.2260 -0.1221
 3778PP      PP13882   6.629   6.893   1.572  0.0252 -0.0504 -0.2181
 3779PP      PP13883  14.826  10.564   0.626  0.0643  0.2531 -0.3652
 3780PP      PP13884  14.170   4.344   0.112 -0.3526  0.0410 -0.0044
 3781PP      PP13885   4.138  13.508  10.917  0.0318 -0.2274  0.0193
 3782PP      PP13886  10.330   6.438   4.465  0.0679  0.2089 -0.2664
 3783PP      PP13887   9.542  13.279   3.839 -0.1689  0.0002  0.0100
 3784PP      PP13888  10.766   8.432   8.399 -0.1485  0.1717 -0.2207
 3785PP      PP13889   0.329   9.247  11.852  0.1023 -0.0175  0.0817
 3786PP      PP13890   3.542   3.217  11.673 -0.1317  0.1073 -0.3254
 3787PP      PP13891   1.195  12.071   2.448 -0.0909  0.1824 -0.3336
 3788PP      PP13892   4.452  13.230  10.477  0.0796  0.0341 -0.0218
 3789PP      PP13893  13.578   5.562   1.672  0.1477 -0.0539 -0.0829
 3790PP      PP13894   3.525  14.373  11.556  0.0111 -0.0925  0.0950
 3791PP      PP13895  13.212   7.994   2.747  0.2694 -0.1336  0.1560
 3792PP      PP13896   2.781   6.513  12.214 -0.0078  0.0712  0.2822
 3793PP      PP13897  15.572   0.912   2.326  0.0054  0.0246  0.1036
 3794PP      PP13898  11.922  11.510   4.566  0.3868 -0.1477 -0.0406
 3795PP      PP13899   5.259   5.638   2.475 -0.3499 -0.1575  0.3024
 3796PP      PP13900  13.675  11.530   9.238  0.1687 -0.3140  0.2972
 3797PP      PP13901   3.381  14.980   9.389  0.2696 -0.0639  0.0499
 3798PP      PP13902   2.966  14.026   0.340 -0.1724  0.1941  0.0849
 3799PP      PP13903   9.401   2.120   4.212  0.1832 -0.0768 -0.2947
 3800PP      PP13904   9.604  10.518   3.148 -0.4699  0.0598  0.4174
 3801PP      PP13905   7.944  14.630   4.596  0.0723  0.1119  0.2023
 3802PP      PP13906   5.726   6.287   0.484 -0.0077  0.2800  0.0322
 3803PP      PP13907   6.352  10.121  12.447 -0.0815 -0.1378  0.0947
 3804PP      PP13908  11.706   9.984   3.961 -0.1943 -0.2288  0.1803
 3805PP      PP13909   8.758   8.330   8.584 -0.0150 -0.0575 -0.3936
 3806PP      PP13910   7.662   0.741  12.361  0.1266  0.0996  0.0757
 3807PP      PP13911   8.553   5.843   2.274  0.1706 -0.0160 -0.2065
 3808PP      PP13912  14.698   6.410   9.434 -0.1659 -0.2732 -0.0517
 3809PP      PP13913  15.133   6.388   3.441 -0.2576 -0.1390 -0.0554
 3810PP      PP13914   7.618  12.145  11.693  0.1542 -0.1692 -0.0012
 3811PP      PP13915  15.727  15.317  10.369  0.0899  0.1896  0.0542
 3812PP      PP13916   6.082   7.899   0.111 -0.3276 -0.0733 -0.2765
 3813PP      PP13917  15.262   4.402   4.330  0.0632  0.1408  0.2590
 3814PP      PP13918  14.653   3.106  13.117 -0.0616 -0.0131  0.0220
 3815PP      PP13919   4.250   8.233  11.113 -0.5011  0.1235 -0.2256
 3816PP      PP13920  12.081   3.956   0.701 -0.0972  0.1055  0.1541
 3817PP      PP13921  10.017   8.152   1.697 -0.0560  0.0875 -0.3320
 3818PP      PP13922  11.961   8.336   2.264  0.0521 -0.1509 -0.1899
 3819PP      PP13923   7.398   3.547   2.698 -0.0752  0.1579 -0.1392
 3820PP      PP13924  11.422   5.458   3.441 -0.1259  0.1994  0.4251
 3821PP      PP13925   1.425   1.427   4.741 -0.1909  0.4942 -0.2960
 3822PP      PP13926  14.077   0.389  10.237 -0.1494  0.0862  0.1791
 3823PP      PP13927  11.078   6.494  11.898 -0.1517  0.2260 -0.1359
 3824PP      PP13928   4.207   4.649  10.891 -0.0307  0.1181  0.3180
 3825PP      PP13929   7.623   7.683  11.650  0.2107  0.0987 -0.0411
 3826PP      PP13930   5.982   8.000   9.630  0.0502  0.1945  0.0122
 3827PP      PP13931  15.021  15.684   3.780  0.1022  0.2337 -0.0556
 3828PP      PP13932  14.937  13.677  11.482  0.2550 -0.1401 -0.0779
 3829PP      PP13933   7.047   9.052   3.033  0.2145  0.0014  0.2153
 3830PP      PP13934  15.634   8.580   1.035  0.0838 -0.0404 -0.2101
 3831PP      PP13935  12.593   7.006   1.194  0.0305  0.0308 -0.0130
 3832PP      PP13936  11.828   3.667  12.736 -0.1486  0.1103 -0.1415
 3833PP      PP13937   5.135   7.380   3.737  0.1783  0.1906  0.2999
 3834PP      PP13938  13.448  13.979   9.550 -0.1868  0.0198  0.0022
 3835PP      PP13939   8.349  10.088   0.847 -0.0712  0.0640  0.1315
 3836PP      PP13940   2.127  14.255   3.367 -0.1703 -0.0855  0.1235
 3837PP      PP13941   9.799   0.385   9.850 -0.0871 -0.1393  0.0017
 3838PP      PP13942   8.374   1.454   0.412  0.2897 -0.0053  0.1664
 3839PP      PP13943   7.583   7.019   2.743 -0.0704 -0.1522 -0.1113
 3840PP      PP13944   3.964  14.546  13.068 -0.0708 -0.1793  0.1025
 3841PP      PP13945   9.814   0.698  10.836  0.1052  0.0810  0.4252
 3842PP      PP13946  10.079  12.374  11.446 -0.1480 -0.1248  0.0806
 3843PP      PP13947   4.734  15.487   0.663 -0.1536  0.2127  0.2257
 3844PP      PP13948   1.056   9.860   8.681 -0.0191  0.0022 -0.1212
 3845PP      PP13949  11.866  10.845  13.376  0.0860 -0.1674  0.3781
 3846PP      PP13950  10.324   0.387   3.000 -0.0825  0.0363 -0.0153
 3847PP      PP13951  14.577   0.118   0.928 -0.2079 -0.2293 -0.0304
 3848PP      PP13952   5.509   7.296   2.828  0.1306  0.0859 -0.0022
 3849PP      PP13953   4.748  13.731   0.321  0.0928 -0.2252  0.0075
 3850PP      PP13954  15.442   4.714   9.003 -0.1446 -0.2974 -0.1410
 3851PP      PP13955   7.586   3.136  12.719 -0.0637  0.2895 -0.0804
 3852PP      PP13956   6.406  10.018   0.874 -0.2464 -0.1753  0.4307
 3853PP      PP13957   2.615   9.038  12.529  0.2396 -0.2616  0.0979
 3854PP      PP13958  11.863  14.405   2.794  0.3577 -0.1304 -0.3780
 3855PP      PP13959  15.371   3.154   8.872  0.0840  0.4194 -0.1828
 3856PP      PP13960   2.613   1.492   2.841  0.1974  0.2832  0.2155
 3857PP      PP13961   2.665  12.421   3.017 -0.0604 -0.1656  0.1095
 3858PP      PP13962  12.439   5.339   3.179  0.3748  0.1374  0.1457
 3859PP      PP13963  10.359  15.832  13.274  0.1884  0.2541 -0.0120
 3860PP      PP13964  15.297  14.163  12.697  0.1622  0.1409 -0.4074
 3861PP      PP13965   7.812   3.942   4.223 -0.0207 -0.0422 -0.0145
 3862PP      PP13966  10.850   9.667   8.976  0.1387 -0.1479  0.3526
 3863PP      PP13967   4.950   8.527   9.517  0.1033 -0.1499 -0.1233
 3864PP      PP13968  14.565  14.678   1.439 -0.0413 -0.1074 -0.0028
 3865PP      PP13969   3.317  14.552   0.293 -0.0476 -0.1122 -0.0558
 3866PP      PP13970   7.169   0.327   1.163  0.1493  0.1002  0.3041
 3867PP      PP13971   2.969   9.499   9.437  0.0742 -0.1809  0.0047
 3868PP      PP13972   5.619  10.143   9.041 -0.1054  0.2315 -0.1228
 3869PP      PP13973  15.637   0.380   2.015 -0.2473  0.0920 -0.0081
 3870PP      PP13974   9.996   2.698   2.544  0.0593  0.2326 -0.0583
 3871PP      PP13975  10.383   2.620   1.774  0.1137  0.2977  0.1909
 3872PP      PP13976   5.763   2.055   0.983 -0.0371 -0.6757 -0.0298
 3873PP      PP13977   4.451   7.735   2.315  0.2273  0.0658 -0.2654
 3874PP      PP13978   3.533   7.615   0.944 -0.0513  0.2256 -0.2550
 3875PP      PP13979   6.072   0.525  13.201  0.3887  0.1646 -0.1925
 3876PP      PP13980   3.246   2.420   0.235  0.1241  0.2965 -0.1524
 3877PP      PP13981   1.025   2.169  11.111  0.0188  0.0166 -0.2672
 3878PP      PP13982   1.668   3.241   0.693  0.0866 -0.1909 -0.3135
 3879PP      PP13983  11.286   9.906   0.129 -0.0855  0.2832  0.0345
 3880PP      PP13984   4.958  12.530   9.689  0.2322  0.0206 -0.1788
 3881PP      PP13985  12.211   8.856   0.491  0.0386  0.2107  0.1904
 3882PP      PP13986  11.985   9.521   4.309  0.0883  0.0318 -0.3410
 3883PP      PP13987  10.507   7.606   0.420  0.0415  0.2053 -0.1826
 3884PP      PP13988   3.992  13.524   2.777  0.1333 -0.0640  0.2115
 3885PP      PP13989   0.126   7.850   2.357 -0.2345 -0.0347  0.0697
 3886PP      PP13990   9.874  11.391  12.006  0.0041 -0.1581 -0.1066
 3887PP      PP13991   7.245   3.817   2.135 -0.1820 -0.1662  0.2312
 3888PP      PP13992  10.352   9.679   8.588 -0.0909 -0.3523 -0.2908
 3889PP      PP13993   4.187   5.374   3.614  0.5528 -0.0385  0.0094
 3890PP      PP13994   8.078  11.163   3.731 -0.0313 -0.2015  0.1709
 3891PP      PP13995   8.364  13.980   4.875  0.2322  0.0074 -0.2175
 3892PP      PP13996  14.587   8.508  13.029 -0.2500 -0.1591 -0.1149
 3893PP      PP13997   7.726   9.175   0.118 -0.0124  0.5668 -0.0369
 3894PP      PP13998  14.653   9.055  12.904 -0.1977  0.0001 -0.2346
 3895PP      PP13999  10.942  10.865   9.729 -0.2964  0.2984  0.0415
 3896PP      PP14000  12.758   2.394   4.418  0.3188  0.1820  0.0691
 3897PP      PP14001  11.409  13.897   4.258  0.3512 -0.1358 -0.0396
 3898PP      PP14002   7.458  12.633   4.926  0.1893  0.2134 -0.0933
 3899PP      PP14003   6.822   9.764   0.548  0.3423 -0.1143  0.4000
 3900PP      PP14004  12.061   6.688   1.031  0.0396 -0.0962 -0.1299
 3901PP      PP14005  11.248   6.091  12.100  0.1734  0.1803 -0.1587
 3902PP      PP14006   2.265   4.979  11.401  0.1024  0.0579  0.0051
 3903PP      PP14007   6.234   3.965   0.278  0.0205 -0.0856 -0.4681
 3904PP      PP14008  12.591   6.266  10.861  0.2586 -0.0570 -0.0199
 3905PP      PP14009   5.241   9.753   9.391 -0.0359 -0.1303  0.0938
 3906PP      PP14010   1.227  12.919  13.258 -0.1404 -0.2075 -0.1533
 3907PP      PP14011   7.566   5.972   3.823 -0.2100 -0.1558  0.2153
 3908PP      PP14012   9.152   9.952   2.812  0.0454 -0.3417  0.0334
 3909PP      PP14013   8.831   2.111   2.583  0.1075 -0.2646 -0.2022
 3910PP      PP14014   0.357  12.366   2.703 -0.1604  0.2556 -0.1001
 3911PP      PP14015   6.237   5.400   0.775 -0.0207 -0.0588 -0.0565
 3912PP      PP14016   8.623   0.044   0.090  0.2412 -0.2468  0.0718
 3913PP      PP14017   2.142   6.250  10.748  0.1263  0.0055 -0.1876
 3914PP      PP14018  10.471   1.416   4.332  0.1298  0.0744  0.0640
 3915PP      PP14019   1.719   3.565  11.107 -0.1684  0.0684  0.1192
 3916PP      PP14020   5.870   6.550  13.152  0.1081  0.2617 -0.0956
 3917PP      PP14021   2.181  11.621  10.627 -0.1568  0.0324  0.1085
 3918PP      PP14022   4.456   5.864   2.234 -0.1272 -0.0527  0.1651
 3919PP      PP14023   8.798   1.722   0.452  0.0248  0.1604  0.0839
 3920PP      PP14024   2.709  14.359   8.855  0.2188 -0.2528  0.1993
 3921PP      PP14025  11.380  15.831  12.587 -0.1374  0.0863 -0.1330
 3922PP      PP14026   4.306  15.347  11.970  0.2277  0.0777  0.1618
 3923PP      PP14027  15.448  13.043   0.221  0.0486  0.2906  0.0639
 3924PP      PP14028   7.417   7.875   0.472 -0.2343  0.1023 -0.0951
 3925PP      PP14029  13.697   1.021  11.842  0.1758  0.0509  0.0493
 3926PP      PP14030   1.833  15.001   0.356  0.1767  0.2827 -0.0807
 3927PP      PP14031   6.214   4.504   2.332 -0.1067 -0.2128 -0.0821
 3928PP      PP14032   2.140   1.608  10.650  0.1817  0.0752 -0.1502
 3929PP      PP14033   9.208  15.142   0.045 -0.3012 -0.1216 -0.0959
 3930PP      PP14034  10.723   7.627   1.930  0.3061  0.5122  0.0159
 3931PP      PP14035   0.365  14.422  10.441  0.0915 -0.0755 -0.4128
 3932PP      PP14036   9.829  10.159   1.849 -0.0828  0.3091 -0.3520
 3933PP      PP14037   7.516  10.238   4.336  0.0300 -0.2548  0.0514
 3934PP      PP14038   5.460  11.724   2.241  0.0359  0.2127 -0.0110
 3935PP      PP14039  10.804  13.500  12.125 -0.0811  0.3613  0.0071
 3936PP      PP14040  15.131   9.089  12.723 -0.1160  0.2093  0.1580
 3937PP      PP14041  10.554  10.475   2.304  0.1637 -0.0666  0.0359
 3938PP      PP14042   9.553   4.095   0.042 -0.0255 -0.0051 -0.0409
 3939PP      PP14043   6.343   4.186  10.610  0.2133  0.2797  0.0673
 3940PP      PP14044   5.541   7.266   1.843 -0.2272  0.3987  0.1630
 3941PP      PP14045   6.431  11.704   0.155  0.0228 -0.2279 -0.1968
 3942PP      PP14046   5.886   3.508  10.972 -0.0115  0.0571  0.0074
 3943PP      PP14047  15.376  15.353   4.154  0.2034 -0.0034  0.1908
 3944PP      PP14048   7.236  11.858   0.641 -0.2248  0.2360 -0.0316
 3945PP      PP14049   3.377  12.975  10.932 -0.3484 -0.5299  0.1950
 3946PP      PP14050  13.711  14.518  11.682  0.0593 -0.0405  0.0130
 3947PP      PP14051  10.677   4.292   4.455 -0.0523  0.3433  0.1669
 3948PP      PP14052   7.182   2.424   2.042  0.0430 -0.1187 -0.1781
 3949PP      PP14053  14.517  13.344  11.526  0.0092 -0.0632 -0.1834
 3950PP      PP14054  10.829   0.180  13.217 -0.1805  0.0167  0.1650
 3951PP      PP14055  14.732  10.990  12.731 -0.3317 -0.2461 -0.0592
 3952PP      PP14056   5.966  11.085   1.365 -0.2731 -0.2331 -0.0857
 3953PP      PP14057   1.396   9.198  12.829  0.0735 -0.4365 -0.3008
 3954PP      PP14058   1.811  13.039  12.047 -0.0579  0.0919  0.3341
 3955PP      PP14059  14.689   3.876   1.632 -0.0386 -0.0257  0.1455
 3956PP      PP14060  13.013   4.774  12.070  0.0689  0.2351 -0.0237
 3957PP      PP14061   0.434  14.821   9.638  0.3055  0.0087 -0.1514
 3958PP      PP14062  12.327  12.243   4.206  0.0169  0.2583  0.0160
 3959PP      PP14063   4.409  11.387  11.475  0.1416  0.0023  0.0275
 3960PP      PP14064   3.505  12.151   3.161 -0.0955  0.0643 -0.1554
 3961PP      PP14065  14.240   5.167  12.121  0.0614 -0.3001 -0.1747
 3962PP      PP14066   7.928  15.531   4.338  0.1551  0.0705  0.2615
 3963PP      PP14067  14.084   2.411  10.569 -0.1018 -0.2016 -0.1357
 3964PP      PP14068  10.859   8.986   0.967  0.0754  0.0156 -0.1737
 3965PP      PP14069  10.262  11.480  12.710 -0.2586 -0.0819 -0.0577
 3966PP      PP14070   7.768  10.388   9.151  0.1911 -0.3933 -0.0109
 3967PP      PP14071   7.893   8.983   3.514  0.3733 -0.0842  0.0764
 3968PP      PP14072   2.028   5.306   2.783 -0.2412  0.1636 -0.0822
 3969PP      PP14073  10.055   8.247   9.475 -0.1461  0.1087  0.1114
 3970PP      PP14074  13.698   2.798   3.397  0.4301 -0.0041 -0.3324
 3971PP      PP14075   7.008  11.089  10.560 -0.1201 -0.0488  0.1168
 3972PP      PP14076  15.042   2.380  11.816  0.1153 -0.2390 -0.1440
 3973PP      PP14077   6.640  14.211   0.387 -0.1989  0.2324  0.1148
 3974PP      PP14078   7.279   8.891   0.852 -0.4686 -0.2289 -0.0690
 3975PP      PP14079   8.790   3.034  10.170 -0.1016  0.0151  0.2428
 3976PP      PP14080  10.159  12.790   1.864 -0.2287  0.0363 -0.0090
 3977PP      PP14081  11.988   7.020   2.599 -0.2601  0.0599  0.0323
 3978PP      PP14082  11.603   2.134  12.286  0.1569  0.2978 -0.2139
 3979PP      PP14083   1.634   4.809  13.474  0.1100  0.0257 -0.1212
 3980PP      PP14084   2.883  11.859  11.688  0.2003  0.2023 -0.0066
 3981PP      PP14085  15.253   5.970   0.897  0.0820  0.0653 -0.0973
 3982PP      PP14086   3.164   7.268  10.315  0.0258 -0.4534  0.1100
 3983PP      PP14087  10.222   6.722  12.189  0.2421  0.1990 -0.1320
 3984PP      PP14088  10.619   5.626   1.257 -0.1541  0.1279 -0.1328
 3985PP      PP14089  14.541   4.044  11.572  0.0441  0.0609 -0.0404
 3986PP      PP14090   7.143   2.381  11.668 -0.2221  0.1456  0.1300
 3987PP      PP14091   3.567   6.872   3.048  0.0109  0.0466  0.0275
 3988PP      PP14092   2.256   0.759  10.395  0.0822 -0.1263 -0.0577
 3989PP      PP14093   3.986   9.962   2.361  0.0951  0.1744 -0.1096
 3990PP      PP14094   5.993   7.460   2.519 -0.0523  0.1311 -0.0400
 3991PP      PP14095  10.655   5.158   2.474  0.0257  0.1835 -0.1174
 3992PP      PP14096   0.471   7.680  11.295  0.1360 -0.1146  0.1873
 3993PP      PP14097   0.532  15.621  12.434  0.0965  0.0900 -0.1077
 3994PP      PP14098  13.902   1.858   1.224 -0.0286 -0.0112 -0.1349
 3995PP      PP14099   1.734  14.589  10.242  0.0104  0.0625 -0.1366
 3996PP      PP14100  14.828   2.184  11.388  0.4450 -0.0400  0.0340
 3997PP      PP14101  12.345   6.860   3.029  0.3148  0.1574 -0.3451
 3998PP      PP14102   2.345   9.537  10.513  0.0021  0.2970  0.0082
 3999PP      PP14103   4.401   6.347   3.638  0.1702  0.0639 -0.0863
 4000PP      PP14104  12.971  12.127   0.619  0.1231  0.1434  0.0432
 4001PP      PP14105  12.572   2.206   0.123 -0.2042 -0.0338 -0.0529
 4002PP      PP14106   1.620   8.614   9.899 -0.1992  0.0462  0.0544
 4003PP      PP14107  11.631  14.338   9.904  0.1001 -0.0468  0.1303
 4004PP      PP14108   3.383   1.127   2.482 -0.0254  0.0805  0.0987
 4005PP      PP14109  15.547   5.941   2.619 -0.0880  0.1793  0.1626
 4006PP      PP14110   4.698   7.788   3.176  0.1208  0.4001 -0.3291
 4007PP      PP14111   6.406  10.554  10.663  0.0701  0.0645 -0.0180
 4008PP      PP14112  15.667  11.483   3.029 -0.0169  0.1465  0.1893
 4009PP      PP14113   9.050   9.340  13.264  0.0539 -0.2677 -0.0155
 4010PP      PP14114   3.100   2.329   2.730 -0.0629 -0.0596  0.2010
 4011PP      PP14115   4.747   2.393   4.498 -0.1514  0.1776 -0.1031
 4012PP      PP14116   4.852   1.753   1.243  0.0186 -0.1919  0.1352
 4013PP      PP14117  13.726   3.564   0.760  0.2247 -0.1377  0.0658
 4014PP      PP14118   3.185  10.676  12.602  0.0732  0.0108  0.0728
 4015PP      PP14119  11.021   0.280   1.056 -0.0843 -0.0674 -0.0090
 4016PP      PP14120  11.155  12.976   2.224 -0.0456  0.1766 -0.0812
 4017PP      PP14121  10.753  12.412   4.835  0.0989  0.1945  0.0747
 4018PP      PP14122   9.556   7.328   8.439  0.0248 -0.1972  0.0627
 4019PP      PP14123   7.447   5.865   8.879 -0.1567 -0.0015 -0.2321
 4020PP      PP14124   1.189  15.057   3.838  0.0623  0.1320 -0.0038
 4021PP      PP14125   3.901  15.506   8.801  0.3419  0.2648 -0.2516
 4022PP      PP14126   0.824  11.223  12.966 -0.1259  0.0217  0.1862
 4023PP      PP14127   6.483   9.971   3.979  0.0455  0.1643  0.0993
 4024PP      PP14128  14.698   4.389   3.369 -0.0821  0.1710 -0.1669
 4025PP      PP14129   5.975  12.867  10.458 -0.0307 -0.0050 -0.0760
 4026PP      PP14130   9.690   6.967   8.799 -0.2615 -0.0312  0.1843
 4027PP      PP14131   1.355   0.800   9.683 -0.2831 -0.1915  0.1450
 4028PP      PP14132  13.833   3.529  11.713 -0.0592 -0.0011  0.0542
 4029PP      PP14133   7.629  11.217  12.211 -0.1198  0.3563  0.2145
 4030PP      PP14134   8.434   3.770   9.619  0.0822  0.0744 -0.0376
 4031PP      PP14135   0.603   7.743   9.738  0.1182 -0.0974 -0.1510
 4032PP      PP14136  15.637   6.873  12.757 -0.0867 -0.0033  0.0540
 4033PP      PP14137   0.032   2.016   0.164 -0.0437  0.0411  0.0551
 4034PP      PP14138   8.230   7.171  10.020  0.1526  0.1313  0.2994
 4035PP      PP14139   8.868  15.675  11.686 -0.1002  0.1048 -0.0372
 4036PP      PP14140   1.106  11.719   0.831  0.0146 -0.0017 -0.3053
 4037PP      PP14141   2.734   0.706   3.717 -0.0136 -0.1015  0.0188
 4038PP      PP14142   6.337  12.361   4.764 -0.1077  0.2009  0.1279
 4039PP      PP14143  11.897   8.030  13.324  0.1439 -0.0849  0.1556
 4040PP      PP14144  12.645  11.694  10.018 -0.2248  0.2119 -0.0121
 4041PP      PP14145   1.393   7.949   1.867  0.1075 -0.2244  0.1257
 4042PP      PP14146  14.134  13.033  12.650 -0.0154 -0.0892 -0.1857
 4043PP      PP14147   3.406  11.865   3.681  0.1609 -0.2559  0.3021
 4044PP      PP14148   0.998  14.301  12.969 -0.2722  0.0838  0.1520
 4045PP      PP14149   0.729   0.490  13.069  0.3319 -0.0137 -0.2280
 4046PP      PP14150   2.620  15.841  12.632  0.1809 -0.1619 -0.0207
 4047PP      PP14151   1.360   5.907  10.856 -0.2292 -0.1448  0.2710
 4048PP      PP14152   9.856   2.482  13.084  0.0648 -0.1109 -0.0982
 4049PP      PP14153  14.293   1.008  12.201  0.6579  0.1858  0.0772
 4050PP      PP14154  12.921   7.763   3.576  0.1915  0.1333  0.0487
 4051PP      PP14155   7.958   5.347   0.727 -0.1067  0.2731  0.0371
 4052PP      PP14156  12.552   0.973   3.036  0.0406  0.0269  0.2640
 4053PP      PP14157  14.878  14.096   3.122 -0.1525  0.2216  0.1336
 4054PP      PP14158   0.215   9.201  10.912 -0.1108  0.1629 -0.2032
 4055PP      PP14159  10.888   0.113  12.696  0.0968 -0.1635 -0.2622
 4056PP      PP14160   2.836  12.298   0.385 -0.0850 -0.0224  0.2010
 4057PP      PP14161   2.134   6.546   9.810  0.0278  0.1376 -0.0601
 4058PP      PP14162  15.130  15.375  12.558  0.0493 -0.3382  0.1358
 4059PP      PP14163  15.431   2.958   2.809  0.2861  0.1982  0.1368
 4060PP      PP14164   3.157   9.138  12.916 -0.3400  0.0986  0.1382
 4061PP      PP14165  15.295   3.711  10.540 -0.1469  0.1351 -0.0044
 4062PP      PP14166   1.747  10.289   0.720  0.1229  0.1293 -0.2393
 4063PP      PP14167   7.461   4.387   2.216  0.4132  0.1776 -0.0166
 4064PP      PP14168   0.700   8.263  10.111 -0.0461  0.1951  0.1043
 4065PP      PP14169  15.272   7.299   1.207 -0.2448 -0.1327 -0.3125
 4066PP      PP14170   4.990   5.819   2.112  0.2527  0.2010 -0.0759
 4067PP      PP14171   4.144  13.493   0.805 -0.0309 -0.1002  0.0008
 4068PP      PP14172   2.929  12.710   9.200  0.4084 -0.0403 -0.0085
 4069PP      PP14173   0.376   5.849   0.838 -0.0162 -0.1980 -0.1591
 4070PP      PP14174  15.291   7.982   4.331  0.3202  0.1702  0.1616
 4071PP      PP14175  10.688  15.289  12.551 -0.1302  0.0523  0.1525
 4072PP      PP14176   7.587   5.791   1.742 -0.0407 -0.0282  0.0852
 4073PP      PP14177  10.455  12.757  11.520  0.1187  0.2927  0.2130
 4074PP      PP14178  15.842  14.300  11.283  0.1502  0.4727  0.0988
 4075PP      PP14179   9.550  12.465  13.175  0.0563 -0.0221  0.0448
 4076PP      PP14180  13.980  12.700   9.314  0.0136  0.1436  0.1165
 4077PP      PP14181  13.735  12.279   9.258 -0.0254  0.0796 -0.2717
 4078PP      PP14182  12.968  10.302   3.362  0.0872 -0.0192 -0.1288
 4079PP      PP14183  13.131   8.538   0.751 -0.0929 -0.1694  0.0553
 4080PP      PP14184   0.170   8.744  12.257 -0.0108 -0.1230 -0.2481
 4081PP      PP14185   5.297  13.472   1.619  0.0138  0.1904 -0.2421
 4082PP      PP14186   8.398   5.611   0.677  0.0419  0.2529 -0.3368
 4083PP      PP14187   2.789  15.824   3.615  0.0512 -0.3841  0.1024
 4084PP      PP14188   3.488   9.529   3.503 -0.2616 -0.1162  0.0491
 4085PP      PP14189  15.371   3.115   9.506 -0.0303  0.0243 -0.0738
 4086PP      PP14190   1.957  11.563   3.213  0.1064 -0.0336  0.3980
 4087PP      PP14191   0.708   3.218   1.720  0.0856  0.1274 -0.2817
 4088PP      PP14192  11.655   9.611  10.477 -0.1362 -0.0468 -0.2193
 4089PP      PP14193   3.922   0.464  12.359 -0.0137  0.1124  0.1674
 4090PP      PP14194  11.537   9.693  12.015 -0.0686  0.0606 -0.0492
 4091PP      PP14195   7.194  12.532   3.666 -0.6542  0.1712 -0.1374
 4092PP      PP14196  13.896   4.585  11.849  0.3539  0.0114 -0.1811
 4093PP      PP14197   7.728   0.147  10.991  0.1082 -0.1144  0.3263
 4094PP      PP14198  14.859  12.300   9.435 -0.3170  0.2021  0.1023
 4095PP      PP14199  11.504  13.402   8.612  0.3152  0.0634 -0.2872
 4096PP      PP14200   1.123  13.211   8.741  0.3422  0.1037  0.2660
 4097PP      PP14201   4.484   7.301  10.831  0.2747 -0.1013  0.2510
 4098PP      PP14202   8.931   9.264   9.871 -0.2586 -0.1644 -0.0460
 4099PP      PP14203  10.367   3.074  12.924  0.2106  0.0060  0.3635
 4100PP      PP14204   0.767  15.131  12.469 -0.0763  0.0817  0.4050
 4101PP      PP14205   8.551   4.437   9.343 -0.1596  0.1478  0.1022
 4102PP      PP14206   8.992  14.226   2.000  0.0012 -0.2214 -0.0342
 4103PP      PP14207   5.905   4.157  12.892 -0.0502 -0.2370  0.0217
 4104PP      PP14208   6.052   0.145  11.480  0.1981 -0.2266  0.2196
 4105PP      PP14209  12.532   0.565  10.319  0.4662  0.3076 -0.1181
 4106PP      PP14210   5.677  12.823   4.423  0.0313 -0.0938  0.1853
 4107PP      PP14211  14.221   8.771  12.150  0.2001 -0.4539 -0.1561
 4108PP      PP14212  14.160   5.477   4.034 -0.1017  0.2889  0.0151
 4109PP      PP14213   6.948   3.900   3.525  0.0035 -0.0168  0.1336
 4110PP      PP14214   7.479  14.875   0.653  0.4617  0.1233  0.0066
 4111PP      PP14215   5.806  13.157   4.115  0.5256 -0.1851  0.0210
 4112PP      PP14216   8.391  14.998   9.603 -0.1770  0.2131  0.0925
 4113PP      PP14217  13.631  11.982   4.417 -0.1799 -0.0406 -0.1160
 4114PP      PP14218   1.864   8.499   8.807 -0.0884 -0.1737 -0.3880
 4115PP      PP14219  13.441   8.390  11.812 -0.2802  0.1839  0.1285
 4116PP      PP14220  15.057   3.212  13.528  0.3565 -0.0881 -0.0794
 4117PP      PP14221   7.358  10.390   3.417 -0.0905 -0.0306 -0.2398
 4118PP      PP14222   3.029   1.542   2.569 -0.3316 -0.0355 -0.0661
 4119PP      PP14223   1.141   3.330   3.535 -0.2365 -0.0518  0.2161
 4120PP      PP14224  11.706   3.668   9.460  0.0271 -0.2374 -0.1566
 4121PP      PP14225   7.118   3.517  12.683  0.1181 -0.0075  0.0525
 4122PP      PP14226   3.678   8.189  13.088 -0.1560  0.0385 -0.0105
 4123PP      PP14227  11.730   8.851  12.660 -0.4117  0.3148  0.2814
 4124PP      PP14228  11.486   4.738   2.256 -0.0695  0.2333 -0.1683
 4125PP      PP14229   2.692   2.493   9.390  0.0385 -0.1743 -0.2301
 4126PP      PP14230  10.447  13.519   3.656 -0.2465  0.1463 -0.3757
 4127PP      PP14231   3.656   8.898  11.036 -0.1816 -0.0766  0.0089
 4128PP      PP14232   9.054   8.636   0.195 -0.0176  0.0400 -0.1778
 4129PP      PP14233   1.234  11.648  12.943  0.0978  0.3325  0.3881
 4130PP      PP14234  15.734  12.775  10.819 -0.1231  0.1068  0.2776
 4131PP      PP14235   7.537   7.099   1.520  0.3537 -0.2327  0.0638
 4132PP      PP14236  12.044  14.999   3.014 -0.0695 -0.2741 -0.0994
 4133PP      PP14237   2.943  12.735   1.208  0.3284  0.0920  0.0314
 4134PP      PP14238   0.240   6.671  10.541  0.1908 -0.0476  0.1015
 4135PP      PP14239   4.151   2.730   4.121 -0.0252  0.1037  0.0723
 4136PP      PP14240  15.465  10.771   1.489  0.2078 -0.0340  0.1098
 4137PP      PP14241   7.480   6.634   0.062 -0.0936 -0.0385 -0.1991
 4138PP      PP14242   9.612   0.101  13.107 -0.0607 -0.1239  0.2275
 4139PP      PP14243  13.547   3.149  11.471  0.2084 -0.0983 -0.2362
 4140PP      PP14244   6.887  15.569   4.122  0.1203 -0.1564  0.0189
 4141PP      PP14245  13.837   7.559   3.986  0.2048  0.0336  0.0201
 4142PP      PP14246  14.641   7.479   9.132 -0.0129 -0.2184  0.3105
 4143PP      PP14247   8.764   2.799  10.797  0.1645  0.2666  0.2017
 4144PP      PP14248  15.405  12.833   2.927  0.1298 -0.3222 -0.3895
 4145PP      PP14249   6.541   2.258   4.872 -0.0545 -0.0065  0.0917
 4146PP      PP14250  13.566  12.200  11.396  0.0244 -0.1463  0.2836
 4147PP      PP14251   4.490   0.036  11.879 -0.0754  0.1479  0.1786
 4148PP      PP14252   3.873   5.018  11.046 -0.5945  0.0289 -0.0438
 4149PP      PP14253   9.548   4.709   2.745 -0.1127  0.1750 -0.1915
 4150PP      PP14254  12.652   4.295  13.085 -0.1206  0.1437  0.0033
 4151PP      PP14255   7.156  15.747   1.448 -0.2102 -0.0402  0.1333
 4152PP      PP14256   1.524  15.747  12.070 -0.3513 -0.1057 -0.1083
 4153PP      PP14257  13.816  13.337   0.003 -0.1553  0.3499  0.2140
 4154PP      PP14258  14.587  10.752   3.166 -0.0552 -0.2489  0.0147
 4155PP      PP14259  15.736   2.105  12.677 -0.1740 -0.1406  0.0472
 4156PP      PP14260  14.731  15.475   3.169  0.0183  0.1467  0.2228
 4157PP      PP14261   2.172   4.444   1.505 -0.0933  0.3181  0.1137
 4158PP      PP14262  12.162   7.663  12.925  0.1731 -0.2859 -0.1487
 4159PP      PP14263  11.065   8.511  10.717 -0.1779 -0.0867 -0.0558
 4160PP      PP14264   3.663   1.124  10.441  0.1408 -0.4285 -0.1701
 4161PP      PP14265   3.249   3.742   1.593  0.0342  0.2913  0.0424
 4162PP      PP14266   9.409   3.833   0.426  0.1174 -0.0339 -0.4088
 4163PP      PP14267  12.874   8.336   2.694 -0.1737  0.0467  0.3147
 4164PP      PP14268  10.598   2.182   0.450  0.3580  0.0464  0.1606
 4165PP      PP14269  12.900  11.601  11.675 -0.1597  0.3469  0.0898
 4166PP      PP14270   0.485   2.590  13.328 -0.1081  0.0633  0.2814
 4167PP      PP14271  12.978  12.823   3.366 -0.0846 -0.0680  0.2625
 4168PP      PP14272  13.343   6.157   2.722  0.3153 -0.1372  0.0761
 4169PP      PP14273  10.829  11.193   8.970  0.4198 -0.3934 -0.1516
 4170PP      PP14274   2.828   3.987   1.467 -0.1697 -0.0190 -0.1260
 4171PP      PP14275   6.546   3.759   2.801  0.2591 -0.0824 -0.1953
 4172PP      PP14276   7.109   9.648   9.126  0.0357  0.1836  0.3517
 4173PP      PP14277   5.489  12.083   4.582  0.2616 -0.1273 -0.1409
 4174PP      PP14278   3.808   9.068   3.816 -0.1103  0.1056 -0.1331
 4175PP      PP14279  14.558  15.438  12.080  0.0174 -0.0037 -0.1381
 4176PP      PP14280  14.746   4.980  10.131  0.0100  0.0125  0.0263
 4177PP      PP14281   0.024   1.058   2.725 -0.0902 -0.1227 -0.0483
 4178PP      PP14282  10.443   2.455   4.551 -0.0034 -0.2902  0.0264
 4179PP      PP14283   8.021  15.131   2.394 -0.0366  0.1463  0.0917
 4180PP      PP14284   2.562  10.386   9.500  0.1068 -0.1368  0.0676
 4181PP      PP14285  12.262   6.687   0.203 -0.1361 -0.0981 -0.3373
 4182PP      PP14286  13.617   3.593  12.458 -0.3058 -0.2253 -0.0245
 4183PP      PP14287   5.813  14.145   4.640 -0.0050 -0.0816 -0.1038
 4184PP      PP14288   1.963  12.582   1.404  0.0362  0.3564 -0.1988
 4185PP      PP14289   4.918   5.930   3.901 -0.0248 -0.0033  0.4545
 4186PP      PP14290   1.721  11.786   2.210 -0.1799  0.2778  0.1119
 4187PP      PP14291   7.176  10.017   2.576  0.3370  0.3021 -0.1696
 4188PP      PP14292  15.211   7.147   9.710 -0.0129  0.1952 -0.0883
 4189PP      PP14293  11.243   4.200   9.381  0.3011 -0.2159 -0.0575
 4190PP      PP14294   9.496   0.946   9.720 -0.0453 -0.0386 -0.0993
 4191PP      PP14295  14.731   7.513  12.402  0.1280  0.2000  0.1027
 4192PP      PP14296   0.955  12.633   1.018  0.3005  0.2010  0.0345
 4193PP      PP14297  10.668   9.075   1.443 -0.1045 -0.3155 -0.1456
 4194PP      PP14298  15.609   1.043  12.190 -0.1735 -0.3200  0.1174
 4195PP      PP14299  13.373   9.960   9.279  0.1582  0.0606  0.2377
 4196PP      PP14300  13.255  14.337   2.949 -0.0261 -0.0813  0.2314
 4197PP      PP14301   6.017   0.710   1.989 -0.0990  0.0679 -0.2090
 4198PP      PP14302   7.212   8.361  10.290  0.0436  0.0159 -0.1137
 4199PP      PP14303   3.336  14.489   1.690  0.3065 -0.0286  0.1507
 4200PP      PP14304   0.391   1.902   9.442  0.1783  0.1792  0.0761
 4201PP      PP14305   5.270  14.349  13.470  0.0127 -0.0827 -0.2593
 4202PP      PP14306   5.699  14.126   0.444  0.1698 -0.0228  0.0038
 4203PP      PP14307  10.925  15.746   5.327 -0.0933 -0.0586  0.0123
 4204PP      PP14308   4.430   7.920   0.875  0.0686  0.2377  0.0012
 4205PP      PP14309  15.752   9.578  11.628 -0.1203  0.1710  0.3023
 4206PP      PP14310   1.601   0.536   4.493  0.2455 -0.0646  0.0668
 4207PP      PP14311   4.986   0.386   3.986  0.0357  0.1924  0.3450
 4208PP      PP14312   8.056   0.435  11.911 -0.2854  0.1614 -0.2103
 4209PP      PP14313   2.215   3.437  12.818  0.2351 -0.3626  0.1543
 4210PP      PP14314  15.809   1.956  12.173 -0.2819  0.0317  0.1706
 4211PP      PP14315  10.453   3.843   1.479  0.0392 -0.2560  0.1403
 4212PP      PP14316  10.135  12.971  11.869  0.2257  0.0845 -0.4159
 4213PP      PP14317   1.579   0.697   3.181 -0.2853 -0.2910 -0.3120
 4214PP      PP14318   7.490  13.434  11.817 -0.0245  0.1457 -0.0232
 4215PP      PP14319  12.904   1.428  13.511  0.1274 -0.1174  0.3142
 4216PP      PP14320   6.899   2.130  12.384 -0.1387  0.1695  0.0340
 4217PP      PP14321   3.801   5.232   2.913  0.0162  0.0068  0.2133
 4218PP      PP14322  15.645   4.382  11.617  0.0240 -0.2034  0.1365
 4219PP      PP14323   0.117   4.277  10.326  0.2629  0.1549 -0.4721
 4220PP      PP14324   9.483   5.300  12.671  0.0756 -0.0941  0.0912
 4221PP      PP14325  14.019   4.381   2.710  0.3058  0.0780 -0.0954
 4222PP      PP14326   3.126   0.109   1.020  0.1258  0.0292  0.2579
 4223PP      PP14327   0.761   2.004  11.572 -0.3698 -0.0383  0.2061
 4224PP      PP14328  12.274   7.287   8.762 -0.1306  0.1933  0.3045
 4225PP      PP14329  14.046   2.550   1.995  0.0105  0.1049  0.2739
 4226PP      PP14330   2.931   4.316  10.591  0.0382 -0.0558  0.0076
 4227PP      PP14331   3.443   3.358   1.308  0.0860 -0.0721  0.0058
 4228PP      PP14332   1.169  14.670  12.222 -0.2259  0.2947  0.2864
 4229PP      PP14333  10.574   2.723   1.325 -0.0800  0.2055  0.1065
 4230PP      PP14334   9.973   8.853  12.698  0.2009  0.0288 -0.0550
 4231PP      PP14335  11.824  14.270  10.881 -0.1618 -0.3003  0.2239
 4232PP      PP14336  12.753  11.928  12.703  0.0320  0.1922  0.0277
 4233PP      PP14337   2.410  14.925  12.773 -0.0698  0.1755  0.3637
 4234PP      PP14338  13.088   0.560   4.101  0.1440 -0.2762  0.0152
 4235PP      PP14339   6.703   4.598   2.465  0.0085  0.1057  0.1650
 4236PP      PP14340   9.096   9.582   8.968  0.2533 -0.1485  0.0031
 4237PP      PP14341   4.906   5.253   8.763 -0.0538 -0.1424 -0.0605
 4238PP      PP14342   1.341  11.179   8.711  0.2062 -0.0582  0.4000
 4239PP      PP14343  13.570   8.307   3.835  0.2096 -0.3092  0.2135
 4240PP      PP14344  13.257  13.018  10.497  0.3767 -0.2132 -0.0258
 4241PP      PP14345  11.376   5.153   1.056 -0.3895 -0.5302 -0.2990
 4242PP      PP14346   2.777   7.008   4.008  0.1288 -0.1127  0.2296
 4243PP      PP14347  11.667   1.672  10.541 -0.1253  0.1102 -0.1504
 4244PP      PP14348  13.589   5.140   2.699  0.3904 -0.3342 -0.1716
 4245PP      PP14349  10.027  13.814   1.332 -0.4078  0.0951  0.0735
 4246PP      PP14350  15.126  12.128   0.059  0.2491  0.2671 -0.1574
 4247PP      PP14351   3.437  15.605   2.980  0.0484 -0.1593 -0.0326
 4248PP      PP14352   1.401  15.231   3.023  0.1501  0.1497 -0.0120
 4249PP      PP14353  15.762   5.448   8.937 -0.1684 -0.2349  0.1166
 4250PP      PP14354   5.483   0.156  10.808 -0.0234  0.2988 -0.2201
 4251PP      PP14355   6.285   8.714  12.641 -0.3635  0.2376 -0.1379
 4252PP      PP14356   9.790  13.735  13.483 -0.2187 -0.1244 -0.1249
 4253PP      PP14357   9.648  13.596   2.438 -0.0561  0.1653  0.0062
 4254PP      PP14358  13.165   9.550  10.382  0.1930  0.1128  0.0137
 4255PP      PP14359  11.431  14.278   2.076  0.1077 -0.1099 -0.2220
 4256PP      PP14360   7.750   4.072  11.253  0.2828 -0.0571  0.1459
 4257PP      PP14361   3.681  10.299   2.848  0.2503 -0.0873  0.1691
 4258PP      PP14362  12.199   8.282   4.211 -0.1629  0.1718 -0.1598
 4259PP      PP14363   7.835   9.008   1.156  0.1974 -0.1828  0.1535
 4260PP      PP14364   5.797   9.944  12.495 -0.0851  0.0367  0.1422
 4261PP      PP14365  11.746  14.637  11.846 -0.4304 -0.0061 -0.1566
 4262PP      PP14366   0.148  11.387   0.067  0.0405  0.0634  0.0005
 4263PP      PP14367   9.419   0.451  11.042  0.0240  0.4868 -0.0679
 4264PP      PP14368   2.006   9.962  10.416 -0.0148 -0.0705 -0.0569
 4265PP      PP14369  12.267  12.014  11.805  0.0943  0.1403 -0.2015
 4266PP      PP14370   4.516   0.700   3.994  0.2785  0.2394 -0.2427
 4267PP      PP14371  11.304  12.090   1.177 -0.1386  0.4810  0.0454
 4268PP      PP14372   0.465  11.870   4.385 -0.0741 -0.1609 -0.0986
 4269PP      PP14373   2.536  15.858   2.393 -0.1937 -0.0562  0.0859
 4270PP      PP14374   5.814   9.796   4.726  0.3701 -0.1763  0.3127
 4271PP      PP14375   7.402  12.328  13.194 -0.0864 -0.1494  0.2196
 4272PP      PP14376   9.420   9.273   2.176 -0.0940  0.1826  0.2461
 4273PP      PP14377   0.998  10.346   1.919 -0.0905  0.2465  0.7661
 4274PP      PP14378   0.435   7.380   9.469 -0.2245  0.7583 -0.0745
 4275PP      PP14379   1.347  12.410   2.775  0.2567  0.0934  0.0848
 4276PP      PP14380   4.618  15.137   8.633  0.1366  0.0330 -0.2964
 4277PP      PP14381   5.819  10.341   2.367 -0.1423  0.0679  0.2778
 4278PP      PP14382   3.765  10.382   8.911  0.0836  0.0619  0.2124
 4279PP      PP14383   6.547   8.393  11.825 -0.2124  0.0776  0.1329
 4280PP      PP14384   5.571   8.552  10.588 -0.0260 -0.0815  0.1427
 4281PP      PP14385   4.702   1.092   3.667 -0.1023 -0.4411 -0.2128
 4282PP      PP14386   0.440   0.497  12.614  0.4034  0.1276 -0.2598
 4283PP      PP14387  13.106   9.209   3.541  0.0011 -0.1760 -0.4714
 4284PP      PP14388   0.577  14.236   0.126 -0.2072  0.0845 -0.0954
 4285PP      PP14389  11.306   9.492   0.360  0.0121  0.2656  0.2484
 4286PP      PP14390  10.225   4.137  12.120  0.2823  0.1011 -0.0210
 4287PP      PP14391   3.413   3.727   2.641  0.2972  0.0309  0.4829
 4288PP      PP14392   0.634   0.077   4.873 -0.2020 -0.0423 -0.0841
 4289PP      PP14393   2.856   4.806   3.198  0.4522  0.0663  0.0803
 4290PP      PP14394  15.381   1.909   1.492 -0.0697 -0.1875  0.0051
 4291PP      PP14395   8.643  10.243  10.014  0.2945 -0.1240 -0.1868
 4292PP      PP14396   7.693   9.114  11.755 -0.5676 -0.2227  0.1865
 4293PP      PP14397   4.822   2.695   0.781  0.1490 -0.0400 -0.1423
 4294PP      PP14398   3.803   9.877  10.685 -0.0040 -0.2318  0.2151
 4295PP      PP14399   3.327   1.090  10.085  0.3144  0.2292  0.1021
 4296PP      PP14400  14.269   8.702  12.716  0.2490  0.2034 -0.0804
 4297PP      PP14401   7.509  15.662  13.356 -0.0183 -0.1892  0.1115
 4298PP      PP14402   6.231   1.884   0.866  0.2400 -0.4037 -0.0474
 4299PP      PP14403   7.751   0.266  12.255  0.1667 -0.1254  0.2168
 4300PP      PP14404   3.462   9.666  10.404 -0.0115  0.2263  0.3318
 4301PP      PP14405   9.544  11.007   1.456  0.1368  0.0028  0.1414
 4302PP      PP14406   6.784  15.087   9.417  0.0334  0.0868  0.0967
 4303PP      PP14407   8.910   2.599   1.382 -0.2713 -0.0629 -0.1784
 4304PP      PP14408   8.143   6.442   9.209 -0.0624  0.0134 -0.2853
 4305PP      PP14409   9.943   8.712  11.586  0.0438  0.4320  0.0084
 4306PP      PP14410   2.758   3.297   9.517 -0.3193 -0.0375 -0.2241
 4307PP      PP14411   2.962  12.676   4.009 -0.2157 -0.0589 -0.0943
 4308PP      PP14412   0.246   3.636   9.265  0.3650  0.0662 -0.0577
 4309PP      PP14413  12.384  10.841  13.441  0.1356  0.0075  0.0427
 4310PP      PP14414   9.865   6.283  12.235  0.2446  0.1053  0.4221
 4311PP      PP14415   6.079   9.711   8.725 -0.1817  0.0789 -0.2173
 4312PP      PP14416  14.144  14.125   2.490  0.1693 -0.1560 -0.0067
 4313PP      PP14417  12.895  15.151  11.949 -0.0558 -0.0850 -0.1660
 4314PP      PP14418  15.264   0.499   3.725 -0.1121 -0.4329  0.0924
 4315PP      PP14419   7.475   8.894  11.154 -0.0380 -0.0350  0.1755
 4316PP      PP14420  14.249  14.549  12.330  0.0379  0.3316  0.1087
 4317PP      PP14421  12.492   2.091  10.479  0.4188  0.1794  0.1191
 4318PP      PP14422  14.307   7.981   2.027 -0.0568  0.3641 -0.0384
 4319PP      PP14423  13.505  11.865  10.046 -0.1142  0.0718 -0.1721
 4320PP      PP14424  12.501   8.415   3.112  0.0050 -0.2894 -0.3012
 4321PP      PP14425   4.895  13.193   1.722 -0.3586 -0.0695 -0.2162
 4322PP      PP14426  11.601  10.387  11.471  0.0278 -0.1630  0.1894
 4323PP      PP14427   3.524  14.074  10.352  0.0375 -0.1999  0.1714
 4324PP      PP14428   1.335   4.715   1.053  0.0732 -0.0902 -0.2034
 4325PP      PP14429   6.281   4.468  10.231 -0.3062 -0.1760 -0.1373
 4326PP      PP14430  15.213   2.476   1.537  0.1526  0.1363  0.0448
 4327PP      PP14431   4.942  12.188   4.647  0.0239 -0.0457 -0.2080
 4328PP      PP14432  12.568   2.445   4.902 -0.1631 -0.1641  0.0321
 4329PP      PP14433  12.721  13.392  10.636 -0.0521  0.2052  0.0030
 4330PP      PP14434  12.073   1.195   0.926  0.0153 -0.1549  0.0499
 4331PP      PP14435   3.553  14.740  12.907 -0.1873  0.3059 -0.1140
 4332PP      PP14436  14.823  13.062   3.859 -0.0823  0.0678 -0.2104
 4333PP      PP14437  12.758  10.300  10.579 -0.0627  0.1221 -0.1256
 4334PP      PP14438  12.873   1.868  12.741  0.0420 -0.0733 -0.1535
 4335PP      PP14439   6.586   0.697  13.320 -0.3078 -0.1444  0.1747
 4336PP      PP14440   8.670   0.323  12.465  0.1418 -0.0263 -0.0222
 4337PP      PP14441   2.402   3.798   1.125  0.2826 -0.5119  0.0064
 4338PP      PP14442   1.310   5.285  13.520  0.3816  0.1131 -0.1098
 4339PP      PP14443  12.508  14.092   1.822 -0.1364 -0.2718  0.3935
 4340PP      PP14444   6.235   9.662  12.657  0.1106 -0.0040 -0.0219
 4341PP      PP14445   7.122  15.104   3.977 -0.0297 -0.1252  0.0642
 4342PP      PP14446  11.650  10.405   4.388  0.0989  0.1274  0.2433
 4343PP      PP14447  11.047   0.630  10.159  0.0251  0.1760 -0.2068
 4344PP      PP14448   6.144   9.676   0.578  0.3681 -0.2993 -0.0796
 4345PP      PP14449  10.369  12.882  10.243 -0.3730  0.2061  0.2668
 4346PP      PP14450  13.270   5.000   2.264  0.1314  0.0852 -0.1573
 4347PP      PP14451   4.559   5.467  13.349  0.0455 -0.1510  0.0114
 4348PP      PP14452   0.140   4.005   0.293 -0.0502  0.0053  0.3775
 4349PP      PP14453   7.985   8.950  12.766  0.4196 -0.3227 -0.1978
 4350PP      PP14454   0.533  14.361   4.033  0.2772 -0.2812  0.2834
 4351PP      PP14455   9.283   6.302  10.496 -0.1291  0.1445 -0.3680
 4352PP      PP14456   6.896   8.578  10.619 -0.1296 -0.2413 -0.2195
 4353PP      PP14457   3.008   2.787   9.038 -0.2003  0.0184 -0.2020
 4354PP      PP14458   0.630   1.184  10.064  0.1028 -0.0981 -0.0358
 4355PP      PP14459   6.834   0.151  11.843  0.0047 -0.1677 -0.1137
 4356PP      PP14460   4.625   3.970   1.248 -0.1054  0.0349  0.2988
 4357PP      PP14461   7.506  14.828   4.382  0.1351  0.2148  0.0496
 4358PP      PP14462   9.412   4.422   0.625  0.1862 -0.2852 -0.0786
 4359PP      PP14463  11.746   6.507   8.785  0.0564  0.0189 -0.0576
 4360PP      PP14464  14.723   2.931   3.265 -0.0862 -0.2268 -0.2156
 4361PP      PP14465   6.595  11.801  12.873 -0.1621  0.2000  0.0498
 4362PP      PP14466  15.399  13.528   7.963 -0.0767 -0.2323 -0.1168
 4363PP      PP14467   2.174  14.208   4.278  0.3908  0.1200 -0.2107
 4364PP      PP14468   7.982   3.567   0.101 -0.2234 -0.2034 -0.1891
 4365PP      PP14469   7.757  12.885  10.095 -0.0412 -0.0980  0.2261
 4366PP      PP14470   3.840  12.181  10.797 -0.0819 -0.0791 -0.0298
 4367PP      PP14471   0.332   5.858   0.371 -0.0055  0.1115  0.1881
 4368PP      PP14472   2.502   1.717   0.086  0.1436 -0.2246 -0.1088
 4369PP      PP14473  14.993   1.652   8.794  0.2029  0.1093  0.2477
 4370PP      PP14474   7.536   9.261  12.601 -0.2969  0.1074 -0.1680
 4371PP      PP14475   5.788   3.490   9.719 -0.1652 -0.2543 -0.0149
 4372PP      PP14476   0.444  13.709  11.723 -0.2455  0.1114 -0.1667
 4373PP      PP14477  14.302   0.307   0.515 -0.1003 -0.0432 -0.2043
 4374PP      PP14478   5.689   9.238  11.708  0.2894 -0.0334 -0.1288
 4375PP      PP14479   8.873   9.202   0.151 -0.1693  0.0520  0.2532
 4376PP      PP14480  15.018   1.611   3.074  0.2515  0.3054 -0.4520
 4377PP      PP14481   7.820   7.017   2.292 -0.2136 -0.2501 -0.0626
 4378PP      PP14482   9.590  13.496   4.473 -0.2553  0.1546  0.1839
 4379PP      PP14483   8.739  12.362  13.421 -0.2406  0.0362  0.2431
 4380PP      PP14484   8.837   3.794   3.568  0.3910  0.2401 -0.1794
 4381PP      PP14485  13.821   8.951   3.299 -0.0628  0.0231 -0.0036
 4382PP      PP14486   5.868  11.564  13.423  0.1051  0.2604  0.4325
 4383PP      PP14487  11.008   1.747   0.245  0.1294 -0.0401 -0.0432
 4384PP      PP14488  10.263   2.322   4.104  0.2530  0.0004 -0.3676
 4385PP      PP14489   9.132   1.207   4.443 -0.2580  0.1499 -0.0182
 4386PP      PP14490   2.005   4.471   8.909 -0.0349  0.2991 -0.2266
 4387PP      PP14491   0.639   0.264   9.700 -0.2304  0.3441  0.1550
 4388PP      PP14492   1.401  10.302  13.387 -0.4573 -0.3428 -0.2970
 4389PP      PP14493  14.234   3.261   9.938  0.0525 -0.0567  0.1828
 4390PP      PP14494   6.200   8.305  13.222  0.0280 -0.3008 -0.0833
 4391PP      PP14495   2.171   1.846  12.589  0.0709 -0.3187 -0.3839
 4392PP      PP14496   0.614   4.226   8.417 -0.0808 -0.0593 -0.1474
 4393PP      PP14497   6.820  12.883   8.840  0.0386  0.0051 -0.1177
 4394PP      PP14498  15.501   6.610   2.690 -0.0438 -0.3849 -0.0888
 4395PP      PP14499   0.874   1.674   1.219 -0.1128  0.0348  0.1328
 4396PP      PP14500   2.474  12.065  10.515  0.0617 -0.2263  0.0394
 4397PP      PP14501  14.657   9.026   1.018  0.0034 -0.1038 -0.0181
 4398PP      PP14502   1.249  15.686   0.646 -0.0783  0.0083 -0.1634
 4399PP      PP14503   5.244  14.214   3.544  0.1452  0.0100 -0.2776
 4400PP      PP14504   7.237  13.818  11.347  0.4189 -0.3152  0.1724
 4401PP      PP14505   8.089  12.519   1.112 -0.2422 -0.0198  0.4281
 4402PP      PP14506   4.043   1.259   4.415 -0.0909  0.2752  0.3379
 4403PP      PP14507   4.479  14.945  13.131 -0.2086  0.0403 -0.2366
 4404PP      PP14508  14.380   6.595   8.987 -0.3577 -0.1767 -0.1880
 4405PP      PP14509   9.967  10.774  12.893  0.0748  0.2808 -0.1704
 4406PP      PP14510  14.095   6.505   1.314 -0.1315 -0.1351  0.0133
 4407PP      PP14511   4.250   9.301   9.949 -0.1814 -0.0826 -0.2790
 4408PP      PP14512  11.588   1.119   2.016  0.0031 -0.0415 -0.1806
 4409PP      PP14513   1.210  12.377  12.145  0.2414  0.2397  0.0153
 4410PP      PP14514  15.293   7.562   8.353 -0.2072 -0.2616 -0.2543
 4411PP      PP14515  11.424  10.090  13.202 -0.4606 -0.1647 -0.4500
 4412PP      PP14516   6.348  14.278  12.177 -0.0323 -0.0680  0.0767
 4413PP      PP14517   8.830   2.280  10.569  0.4064 -0.1864  0.1793
 4414PP      PP14518   8.700   0.335   4.453  0.0437  0.0158  0.0894
 4415PP      PP14519   4.963  14.344  12.532 -0.0011  0.0515 -0.0939
 4416PP      PP14520   1.295  11.309  11.529 -0.0950  0.0987 -0.0432
 4417PP      PP14521  11.320   6.810   8.823  0.1358  0.1966  0.3723
 4418PP      PP14522  10.555   5.813   0.675  0.0636  0.1030 -0.1201
 4419PP      PP14523   4.329   0.017   0.043 -0.1198  0.1475 -0.1362
 4420PP      PP14524   1.249   3.473   9.948 -0.1406 -0.2353  0.1114
 4421PP      PP14525   4.673  11.541   3.356  0.2524  0.0674  0.0532
 4422PP      PP14526   2.372  12.307   8.597 -0.1014 -0.0330  0.2991
 4423PP      PP14527  12.489  11.200   1.636  0.1928 -0.4545  0.1290
 4424PP      PP14528   6.844   3.948  11.031 -0.0663  0.0604  0.1095
 4425PP      PP14529  11.051  14.729   9.952  0.3725 -0.3980  0.1081
 4426PP      PP14530   5.067   6.797   9.873 -0.3167 -0.0064  0.0535
 4427PP      PP14531   7.037   1.028   5.085 -0.3478 -0.0689  0.0939
 4428PP      PP14532  10.214  15.228   0.327  0.0882  0.3418  0.4039
 4429PP      PP14533  14.784  10.155  11.952  0.1868  0.1583 -0.2347
 4430PP      PP14534  11.391   2.155  12.898 -0.0341 -0.1445 -0.1282
 4431PP      PP14535  13.668   2.048   9.471  0.0955  0.1018  0.0205
 4432PP      PP14536   3.624   8.240   0.350  0.0901 -0.3601 -0.0955
 4433PP      PP14537   4.601   7.982  12.365 -0.1494 -0.2407  0.0250
 4434PP      PP14538  15.513   5.266   4.228  0.3116 -0.1298 -0.0951
 4435PP      PP14539  13.914   4.201   3.229  0.1675  0.2557  0.1628
 4436PP      PP14540  14.280   2.666   3.377  0.1380  0.0839  0.1376
 4437PP      PP14541   9.581   8.369   1.895 -0.3310  0.0776  0.0509
 4438PP      PP14542  10.601  14.898   0.030 -0.3548  0.0966  0.3406
 4439PP      PP14543   8.406   3.926  12.162 -0.0853  0.3675 -0.0383
 4440PP      PP14544   3.142   8.831  13.331  0.0506 -0.1483 -0.1242
 4441PP      PP14545   0.194  14.571  10.918 -0.1257  0.0784 -0.1633
 4442PP      PP14546   5.897   3.520   8.879  0.0429  0.1995  0.1829
 4443PP      PP14547  12.105  15.366  12.592  0.0832  0.5110  0.1050
 4444PP      PP14548   9.075  10.968   9.610 -0.1808  0.1189  0.2940
 4445PP      PP14549  15.115  11.694   1.442 -0.1811  0.0516 -0.1846
 4446PP      PP14550   9.808  14.603  13.020 -0.1160  0.0004 -0.1777
 4447PP      PP14551   4.324   5.215   1.307  0.0714 -0.1544 -0.1321
 4448PP      PP14552   4.273   5.821   1.360 -0.2206 -0.1785  0.1622
 4449PP      PP14553   0.596  11.417   9.627 -0.2743  0.1276  0.0267
 4450PP      PP14554   8.130  13.413   0.690  0.3033 -0.0747 -0.3921
 4451PP      PP14555   2.568  15.751   4.380 -0.1927 -0.2648 -0.0587
 4452PP      PP14556  10.512   2.891   4.301 -0.1754  0.2421  0.1964
 4453PP      PP14557  15.860   3.258  12.516 -0.1265 -0.3564 -0.2548
 4454PP      PP14558  13.968   3.455   9.524 -0.0054 -0.1409  0.2291
 4455PP      PP14559  15.298  12.209   2.683  0.3930  0.1077 -0.1183
 4456PP      PP14560  12.418   2.549  12.284 -0.2970 -0.1426  0.2240
 4457PP      PP14561   3.392   1.565   2.922 -0.1597 -0.0189  0.0829
 4458PP      PP14562   2.764   8.228   4.190 -0.0705  0.0408  0.0007
 4459PP      PP14563   8.013   8.717   0.324  0.0834 -0.1499  0.2341
 4460PP      PP14564   8.350   2.917   9.438 -0.0962  0.0205 -0.0420
 4461PP      PP14565   6.289   8.722   3.080 -0.0131 -0.0151 -0.0715
 4462PP      PP14566  10.942   7.320  12.999  0.3197  0.1883 -0.2012
 4463PP      PP14567  15.796   3.831  10.583  0.1415  0.0531 -0.0642
 4464PP      PP14568   6.343   2.715  12.290 -0.0599  0.0230 -0.0119
 4465PP      PP14569   0.499   0.184   3.062  0.0739  0.0037  0.1481
 4466PP      PP14570   1.654   7.927  12.436  0.0652 -0.2087 -0.0227
 4467PP      PP14571   2.754  13.660   4.085 -0.3441  0.1918 -0.0439
 4468PP      PP14572   2.464  12.795   9.499 -0.0057  0.2622 -0.4167
 4469PP      PP14573   1.271  11.841   8.611 -0.1220 -0.0365  0.0042
 4470PP      PP14574   1.202  13.328   9.408  0.2862  0.1396  0.2368
 4471PP      PP14575   5.780   6.955   1.428  0.0935  0.0630 -0.0149
 4472PP      PP14576   2.874   6.365  11.731  0.0656  0.1435  0.1042
 4473PP      PP14577   8.765   1.028   3.167  0.0659  0.0081 -0.0424
 4474PP      PP14578   9.067  10.545   0.495  0.1611 -0.1732 -0.2294
 4475PP      PP14579   6.163   7.717  11.632  0.1767  0.1452  0.1776
 4476PP      PP14580   6.581  15.079  10.882  0.0454 -0.0277  0.1811
 4477PP      PP14581   8.902   1.362  11.813  0.2587  0.0661 -0.0457
 4478PP      PP14582   6.744   9.725  12.771  0.1855 -0.1127  0.3347
 4479PP      PP14583  12.979  10.254   2.077 -0.0713  0.0184 -0.0850
 4480PP      PP14584   1.015  13.546  13.304 -0.0608  0.0592 -0.0680
 4481PP      PP14585   8.363  10.714  12.295 -0.1477 -0.3016  0.0685
 4482PP      PP14586   5.018   7.169  10.165  0.1564  0.0569  0.0977
 4483PP      PP14587   7.284   2.017   0.691 -0.1941 -0.0063 -0.1246
 4484PP      PP14588  12.208   1.319   2.911 -0.1924  0.0523  0.0658
 4485PP      PP14589   2.574   6.817   9.781 -0.1765  0.4669 -0.3122
 4486PP      PP14590   0.431   5.478   1.181  0.0079 -0.3330 -0.4412
 4487PP      PP14591   3.517  12.752   4.008 -0.1302  0.0265 -0.1507
 4488PP      PP14592  10.536  10.697   4.282 -0.0105  0.0470  0.1050
 4489PP      PP14593   1.331  12.293   0.300  0.3556 -0.1182  0.4574
 4490PP      PP14594  11.639  13.959   4.746 -0.1604 -0.1302  0.2577
 4491PP      PP14595   9.080   2.645   0.340 -0.2635  0.2294 -0.2501
 4492PP      PP14596  12.485  13.343   1.137 -0.0020  0.1988 -0.0451
 4493PP      PP14597  13.300   6.601   9.792  0.2820 -0.1103  0.1865
 4494PP      PP14598  12.499  12.048  10.859  0.0635 -0.0884  0.1471
 4495PP      PP14599  12.733   3.024   2.779 -0.1125 -0.1949 -0.1954
 4496PP      PP14600   9.915   7.809  11.405 -0.2009 -0.1399 -0.0201
 4497PP      PP14601   4.038   7.991   2.112 -0.1505  0.2934 -0.2789
 4498PP      PP14602  10.113  14.311   0.665 -0.1576  0.1214 -0.1750
 4499PP      PP14603   3.724   3.156  12.879 -0.0758 -0.0953  0.3478
 4500PP      PP14604  13.577   0.652   4.221  0.0416  0.2184 -0.2336
 4501PP      PP14605  11.992   2.138   3.307 -0.2167  0.1187  0.1180
 4502PP      PP14606   6.733  10.694   1.960 -0.2587 -0.2297  0.2491
 4503PP      PP14607   7.210  10.183  12.702 -0.0158 -0.2554 -0.0462
 4504PP      PP14608  12.895   9.737  11.321  0.2335  0.0521 -0.3214
 4505PP      PP14609   4.829   5.986   0.711 -0.2933  0.0422 -0.1509
 4506PP      PP14610   8.054  11.966  11.479  0.1989 -0.0166 -0.1817
 4507PP      PP14611   2.023   6.460  13.393  0.2288 -0.2516  0.0918
 4508PP      PP14612   5.925   5.161   0.059  0.3105 -0.1112 -0.0892
 4509PP      PP14613   7.492  14.660  10.940 -0.0727  0.1117  0.3637
 4510PP      PP14614   6.833  15.298   1.592 -0.3201 -0.2559 -0.0056
 4511PP      PP14615   8.458   3.630  13.119 -0.4492 -0.2845 -0.1061
 4512PP      PP14616   5.897   4.368  10.522  0.2107  0.1697 -0.3094
 4513PP      PP14617   8.651  11.621  12.127  0.1321 -0.3168  0.1299
 4514PP      PP14618   9.546  15.469  12.715  0.1979 -0.0265  0.1306
 4515PP      PP14619  11.934   8.275   2.992 -0.1645 -0.0337  0.1197
 4516PP      PP14620   1.229  11.706  11.149  0.3690 -0.4470  0.0054
 4517PP      PP14621  12.892   4.168  11.033 -0.0581 -0.0963 -0.0044
 4518PP      PP14622   0.722   2.732  10.310  0.2045 -0.2082  0.0392
 4519PP      PP14623  14.545   2.197   2.238 -0.0877 -0.1537  0.0258
 4520PP      PP14624   1.011   0.828  13.266  0.0906 -0.0246  0.1671
 4521PP      PP14625   2.410   0.716  10.988 -0.0108 -0.0523 -0.1267
 4522PP      PP14626  10.120   0.776   3.829  0.0277  0.2688  0.0013
 4523PP      PP14627  13.290   0.515  12.300 -0.0966 -0.1155 -0.1154
 4524PP      PP14628   7.838  13.596   9.460 -0.2437 -0.0240  0.0873
 4525PP      PP14629   7.278   7.038   0.300 -0.2082 -0.1135  0.0045
 4526PP      PP14630   6.640   8.724   9.593  0.3358 -0.0087 -0.0469
 4527PP      PP14631   8.125  10.803   9.128 -0.0711 -0.0680 -0.2391
 4528PP      PP14632   6.442  15.525   2.623  0.1259  0.1551  0.1269
 4529PP      PP14633   2.423   4.324  12.107 -0.1063  0.0810  0.2554
 4530PP      PP14634   3.302  14.794   3.399 -0.1860 -0.0810  0.0873
 4531PP      PP14635   8.734   2.541  10.098 -0.0494 -0.2101 -0.0488
 4532PP      PP14636   4.867   6.313   9.897  0.0313 -0.1611 -0.0224
 4533PP      PP14637  12.402  13.432  13.255 -0.0802 -0.0345  0.2047
 4534PP      PP14638  15.147  11.543   0.030 -0.0002 -0.2247 -0.2154
 4535PP      PP14639   2.001   1.779   3.341  0.0173  0.2222  0.0377
 4536PP      PP14640   0.174   2.212   9.855  0.3501 -0.1308  0.0296
 4537PP      PP14641  14.765  11.177   1.919 -0.1951  0.1323 -0.0012
 4538PP      PP14642   8.790   7.837   1.316 -0.0885 -0.1984 -0.0641
 4539PP      PP14643   1.137  15.165   1.993 -0.2251  0.2389 -0.1176
 4540PP      PP14644   1.017  12.977   3.209 -0.0959  0.0832 -0.0231
 4541PP      PP14645  14.779   0.090   2.358 -0.1947 -0.1978  0.1359
 4542PP      PP14646   5.910  15.400   3.007 -0.0574 -0.0775 -0.0438
 4543PP      PP14647   6.772  11.544   9.142  0.0186 -0.1561  0.1639
 4544PP      PP14648   5.232   2.335  10.489  0.2021 -0.1220  0.0543
 4545PP      PP14649  13.446   2.476   9.931 -0.1931 -0.1121  0.2291
 4546PP      PP14650   6.414   0.214   0.024  0.1369 -0.2478 -0.1290
 4547PP      PP14651  12.034   1.944   4.731 -0.1207 -0.0607 -0.3285
 4548PP      PP14652  10.605   2.721  10.953  0.0969 -0.1818 -0.1603
 4549PP      PP14653  13.348  15.655  11.405 -0.2261  0.0310  0.3477
 4550PP      PP14654   1.787   7.045  11.173 -0.0382 -0.2592 -0.3741
 4551PP      PP14655   2.268  10.376   2.756 -0.3727 -0.2603  0.2576
 4552PP      PP14656  12.070   9.697  12.653  0.2012 -0.0024  0.0346
 4553PP      PP14657   2.036  12.403   9.466 -0.0589 -0.2212  0.1586
 4554PP      PP14658   1.045  14.449   0.223  0.1786 -0.0633  0.1221
 4555PP      PP14659  15.065  14.468   2.106  0.4764 -0.0549  0.1819
 4556PP      PP14660   4.680  14.651   8.926  0.2681  0.0575  0.1881
 4557PP      PP14661  10.542   1.211  12.181  0.0532  0.2319 -0.2191
 4558PP      PP14662   0.426  13.073  11.734  0.3256  0.1358 -0.4074
 4559PP      PP14663   5.221  11.849  10.429  0.1848  0.1912  0.0114
 4560PP      PP14664   3.782   5.028   9.608  0.0817 -0.1171 -0.3437
 4561PP      PP14665  11.976  13.615  12.555 -0.0935  0.0344 -0.0174
 4562PP      PP14666   3.242  10.469   4.544  0.1210  0.5436 -0.3402
 4563PP      PP14667   7.041   8.570  11.998 -0.1724  0.1360  0.1794
 4564PP      PP14668  11.217  12.244  13.393 -0.1684  0.2817 -0.1288
 4565PP      PP14669   7.250   6.098   0.753  0.1045  0.1646  0.0909
 4566PP      PP14670   7.421   8.385  12.254  0.1953 -0.0033  0.2921
 4567PP      PP14671  14.209  11.676  12.234 -0.2364  0.1477  0.0309
 4568PP      PP14672   5.505   4.496  12.988 -0.1120 -0.0125 -0.0878
 4569PP      PP14673   6.302   0.160  11.923  0.1852  0.0784 -0.1110
 4570PP      PP14674   7.227   0.946  12.074  0.0102  0.1729  0.0129
 4571PP      PP14675   3.145  12.819  10.298 -0.2142 -0.3638 -0.0247
 4572PP      PP14676   6.789  15.217  12.876 -0.1006 -0.1708  0.3340
 4573PP      PP14677   3.343  10.813   9.670  0.0910 -0.4681  0.2064
 4574PP      PP14678  14.083  14.784   3.879 -0.0090  0.0312  0.1943
 4575PP      PP14679  14.714  12.148  11.627 -0.1144  0.1894 -0.1686
 4576PP      PP14680  10.263  10.387  12.781  0.2061 -0.1923 -0.1247
 4577PP      PP14681   4.370   0.440  12.098  0.1829  0.0985  0.2678
 4578PP      PP14682   1.120  13.504   1.528 -0.0991 -0.0031 -0.4050
 4579PP      PP14683  12.724   2.970  12.582 -0.3716  0.4458 -0.0319
 4580PP      PP14684   8.195  14.273  10.219 -0.1241  0.2381 -0.0791
 4581PP      PP14685   0.590   9.914   2.788 -0.0141 -0.1349  0.2244
 4582PP      PP14686   9.997   2.018  10.386  0.0675  0.2384  0.0746
 4583PP      PP14687   7.355   1.158   2.636 -0.0315 -0.0773  0.1622
 4584PP      PP14688   8.198   5.780   3.303  0.2268  0.1088 -0.1235
 4585PP      PP14689   3.955   5.631   9.607  0.3524 -0.0506  0.2107
 4586PP      PP14690   6.735  11.441   2.512 -0.0903  0.0279  0.4132
 4587PP      PP14691   6.027  12.017  10.242 -0.2509  0.0897  0.2490
 4588PP      PP14692   6.599  14.720   1.788  0.2949  0.0270 -0.0974
 4589PP      PP14693   4.541  12.685   9.975 -0.0273  0.0391  0.1363
 4590PP      PP14694  15.690   0.888  11.049  0.4865  0.2052 -0.0316
 4591PP      PP14695  14.538   0.124   9.937 -0.0281 -0.1694 -0.2237
 4592PP      PP14696   4.402   2.139   2.347  0.0421 -0.0648 -0.1480
 4593PP      PP14697  10.279   3.620   0.426 -0.1566 -0.0818 -0.2090
 4594PP      PP14698   6.414  11.862   9.610 -0.0342 -0.3968 -0.0176
 4595PP      PP14699   6.325   1.834  10.604 -0.1286 -0.1339  0.1424
 4596PP      PP14700  15.649  10.893   8.610 -0.1073  0.2180  0.0513
 4597PP      PP14701   5.059   0.409   8.932 -0.1311  0.1267  0.2416
 4598PP      PP14702  10.964  15.852   4.811  0.0363 -0.1598  0.5616
 4599PP      PP14703   1.551  13.265   2.744  0.0398  0.0820 -0.2456
 4600PP      PP14704   2.476   3.568  11.080  0.1089 -0.0336  0.0056
 4601PP      PP14705   5.416   5.453   2.956  0.0489  0.1356 -0.3850
 4602PP      PP14706   5.397   0.495   3.636  0.0945 -0.2403  0.2083
 4603PP      PP14707   7.645  10.979   0.372  0.0121  0.0040  0.1520
 4604PP      PP14708  13.927  12.485   3.223  0.0497 -0.0014 -0.2658
 4605PP      PP14709  11.181  12.654   3.642  0.1713  0.1616 -0.1716
 4606PP      PP14710  15.395  13.041  11.868 -0.0518  0.2970 -0.0763
 4607PP      PP14711   6.418   0.682   4.189 -0.2973 -0.0485  0.2150
 4608PP      PP14712  12.447   2.113  12.716 -0.0917  0.1180  0.1611
 4609PP      PP14713   7.485  15.442   2.226  0.3471  0.1309 -0.0071
 4610PP      PP14714   2.499   6.975   8.568 -0.1863 -0.0129  0.1729
 4611PP      PP14715  15.412  13.774  10.709 -0.1480  0.2435 -0.0997
 4612PP      PP14716  11.787   3.509  11.572 -0.0615  0.1475  0.1202
 4613PP      PP14717   3.537   2.279  12.506  0.0499  0.2559  0.1664
 4614PP      PP14718  11.844   6.189   3.401 -0.4924 -0.1383  0.1957
 4615PP      PP14719   9.710   7.779   0.899 -0.0284  0.2471  0.2448
 4616PP      PP14720  13.049  13.131  11.493 -0.1635  0.2732 -0.3446
 4617PP      PP14721   4.792  13.193   3.355  0.2832  0.1539 -0.1671
 4618PP      PP14722   0.609   5.986  12.065 -0.1036 -0.5367  0.3449
 4619PP      PP14723   6.937   5.161   2.430  0.0721 -0.1584  0.0485
 4620PP      PP14724  10.465   8.183   0.469  0.0044  0.2272 -0.0312
 4621PP      PP14725   4.777   8.603   1.717  0.1429 -0.1258  0.2347
 4622PP      PP14726   2.468  15.650  12.080  0.0025  0.0442  0.2426
 4623PP      PP14727   7.648  10.648   9.863  0.3098  0.0372 -0.0536
 4624PP      PP14728   4.781  14.694   4.277  0.0834  0.2325  0.3831
 4625PP      PP14729  13.840   3.348   1.733  0.0894  0.0962  0.0575
 4626PP      PP14730   1.411  10.229   0.358  0.2001 -0.0157 -0.1555
 4627PP      PP14731   1.491   6.848  12.187  0.2792  0.1167  0.0938
 4628PP      PP14732   8.798  15.260   1.015  0.1365  0.2626 -0.0973
 4629PP      PP14733   5.354  11.805   0.846 -0.0672 -0.2944 -0.1029
 4630PP      PP14734  12.252   6.612  10.590  0.1092 -0.1864 -0.1641
 4631PP      PP14735   8.762  15.682   9.782 -0.3131 -0.2702  0.0118
 4632PP      PP14736  11.883  13.808   2.843 -0.0293 -0.0608 -0.1936
 4633PP      PP14737   3.838  11.494   2.925  0.2107 -0.1940  0.0384
 4634PP      PP14738   4.167  14.261  11.970  0.2084  0.1383  0.3538
 4635PP      PP14739   9.151   3.844   9.760  0.0632 -0.2923 -0.0361
 4636PP      PP14740   9.423  15.641   4.083  0.0870 -0.0800 -0.1894
 4637PP      PP14741   2.042   9.904   2.872 -0.0037  0.0086  0.0499
 4638PP      PP14742   0.711  15.131   2.188  0.0618  0.0717 -0.0363
 4639PP      PP14743  15.012   1.152   9.491  0.0416 -0.0714  0.0474
 4640PP      PP14744  12.144  14.835   2.579  0.1441 -0.0744  0.2347
 4641PP      PP14745  14.234  10.140   3.287 -0.1533 -0.0750 -0.0725
 4642PP      PP14746   5.508  11.347   0.548  0.1358 -0.0816  0.0528
 4643PP      PP14747  12.794   1.466   1.288 -0.0679 -0.1144  0.0833
 4644PP      PP14748   4.313   2.154  10.160 -0.0393  0.1995 -0.0948
 4645PP      PP14749   2.920   4.376   3.310 -0.0636  0.2903 -0.1794
 4646PP      PP14750  15.663   3.824   9.520  0.0982 -0.0950 -0.1404
 4647PP      PP14751   7.104   8.532   2.761 -0.0848 -0.3006  0.0424
 4648PP      PP14752   6.065   0.076   0.423 -0.1221 -0.2170 -0.0548
 4649PP      PP14753   4.618  10.566   9.040  0.1780  0.0553 -0.1070
 4650PP      PP14754  12.445  14.339  13.002 -0.1393  0.0775  0.0050
 4651PP      PP14755  14.332   7.844   0.970  0.0188  0.4107 -0.1768
 4652PP      PP14756   0.838   6.083   2.955  0.1545  0.5556  0.0446
 4653PP      PP14757   5.541   5.885   1.412 -0.0444  0.0140 -0.2238
 4654PP      PP14758   8.011  12.797  13.260 -0.1043  0.1091 -0.0063
 4655PP      PP14759  14.534   8.264   2.492 -0.1772 -0.1405  0.0161
 4656PP      PP14760   5.963   1.043   2.431 -0.2627 -0.2709  0.2490
 4657PP      PP14761   6.946   7.515   8.289  0.2253  0.0978 -0.0847
 4658PP      PP14762  12.891  15.448   1.643 -0.3410 -0.1047 -0.2847
 4659PP      PP14763   9.513   3.095   4.516 -0.0963  0.0630 -0.0561
 4660PP      PP14764   1.840   9.014   2.319 -0.1828  0.4006 -0.1699
 4661PP      PP14765   3.746  10.787   0.400 -0.3787  0.2293 -0.1462
 4662PP      PP14766   6.409  10.963   9.177  0.0206  0.0230  0.4503
 4663PP      PP14767   3.097  12.319   2.283 -0.1597 -0.1068  0.3682
 4664PP      PP14768   9.935   6.333  11.259  0.1263 -0.2170  0.1916
 4665PP      PP14769   1.449  15.576   2.105  0.3538 -0.0384 -0.0832
 4666PP      PP14770   8.963  12.972   4.983  0.1944 -0.1890  0.0300
 4667PP      PP14771   6.632   5.825  12.759  0.0236  0.0620  0.2938
 4668PP      PP14772   4.894  15.339  12.726  0.2042 -0.0942  0.2024
 4669PP      PP14773   2.266   8.233  13.047  0.2228  0.3710 -0.0075
 4670PP      PP14774   2.345  12.596  12.622 -0.1629  0.0700 -0.0285
 4671PP      PP14775   2.028  15.052   3.054 -0.0510  0.1581  0.2636
 4672PP      PP14776  13.698  10.080   9.593 -0.2031 -0.1364  0.0767
 4673PP      PP14777   5.225   4.485   9.391  0.3243  0.0424  0.2701
 4674PP      PP14778  12.157  13.433   3.785  0.1311 -0.0996  0.1572
 4675PP      PP14779   0.986   8.132   0.456 -0.1810  0.0080  0.0714
 4676PP      PP14780   1.559   8.085   3.285  0.0546  0.1183 -0.0081
 4677PP      PP14781  12.543  15.411   9.287  0.2675  0.0111 -0.1732
 4678PP      PP14782   9.275   6.772   9.756 -0.0981  0.1300 -0.3298
 4679PP      PP14783  10.958  12.254   3.788  0.0031 -0.1769 -0.1464
 4680PP      PP14784  10.662   4.429  10.025  0.2976  0.0086 -0.0227
 4681PP      PP14785   8.133   9.703  10.153 -0.2705  0.1241  0.2445
 4682PP      PP14786  13.408   3.621   1.608  0.2034  0.2507 -0.2512
 4683PP      PP14787  10.190   7.462  13.000 -0.1438 -0.4252 -0.0179
 4684PP      PP14788  14.775  10.087   0.876 -0.1749 -0.0194 -0.0030
 4685PP      PP14789  11.912   7.011  13.512  0.0232 -0.0506  0.0428
 4686PP      PP14790   4.775   1.389   1.672  0.1767 -0.3751  0.0886
 4687PP      PP14791  10.395  13.833  12.194 -0.3119 -0.1420 -0.0717
 4688PP      PP14792   4.818   1.634   0.730 -0.1709  0.2581  0.2509
 4689PP      PP14793   7.852  15.570   0.405  0.0847  0.1989 -0.1689
 4690PP      PP14794   5.307  14.535   1.446 -0.3005  0.1107 -0.0272
 4691PP      PP14795   9.800   4.275   4.688 -0.2732  0.1811  0.0913
 4692PP      PP14796  10.231   5.670   9.195 -0.0550  0.1092 -0.0589
 4693PP      PP14797   0.029   8.675   8.255 -0.1186 -0.0077 -0.1489
 4694PP      PP14798  10.002  12.771   1.055  0.1257  0.0906 -0.0823
 4695PP      PP14799   4.869   9.781  12.299 -0.4031 -0.2471 -0.1155
 4696PP      PP14800   3.510   1.390   1.817 -0.1014 -0.0871  0.1733
 4697PP      PP14801   7.519   6.795   1.975  0.0103  0.3194 -0.0682
 4698PP      PP14802   2.318   6.837  12.698 -0.1373 -0.0321  0.1339
 4699PP      PP14803   7.471   1.620   1.890  0.1860 -0.0426 -0.0917
 4700PP      PP14804   5.134  12.621  12.331 -0.0352  0.1526  0.1985
 4701PP      PP14805  14.137   0.453  12.144 -0.4094 -0.0192 -0.2176
 4702PP      PP14806  13.959  13.948   3.456 -0.1016  0.2770  0.1581
 4703PP      PP14807   7.711  13.010   2.663 -0.0585  0.6539  0.1905
 4704PP      PP14808   3.419   7.988   9.920 -0.1801 -0.0942 -0.0624
 4705PP      PP14809   5.864   0.114   3.033 -0.1537 -0.1199  0.1632
 4706PP      PP14810   9.525  15.514  13.334  0.1754 -0.3561 -0.2818
 4707PP      PP14811  13.889   6.011   1.442  0.1119  0.1551 -0.2189
 4708PP      PP14812  11.289  15.347   0.786 -0.3815 -0.3483 -0.1289
 4709PP      PP14813   0.549   3.438   3.559 -0.1813  0.0880  0.0096
 4710PP      PP14814   7.014  10.674   3.144  0.0427  0.0108 -0.0245
 4711PP      PP14815  14.348   3.761   3.870 -0.3381  0.3876  0.0114
 4712PP      PP14816   5.238   6.397  12.419 -0.0938  0.1536  0.0204
 4713PP      PP14817   2.970   7.363  11.960 -0.0190 -0.2141  0.2121
 4714PP      PP14818  10.857   8.773   9.265  0.1422 -0.1513  0.0617
 4715PP      PP14819   0.325  15.449   1.022  0.1009  0.0316 -0.1793
 4716PP      PP14820   3.099   7.148   9.349 -0.0228 -0.1915  0.0515
 4717PP      PP14821  13.114   6.370   0.194  0.0521 -0.2127  0.1169
 4718PP      PP14822   3.400  12.486   4.356  0.3200  0.1039  0.0746
 4719PP      PP14823   6.392  10.259  11.128 -0.3701 -0.0632  0.0688
 4720PP      PP14824  13.033  14.869   4.711 -0.0916  0.3447  0.1006
 4721PP      PP14825   0.846   9.828   9.146  0.2119 -0.0932  0.0545
 4722PP      PP14826   3.491   8.698  13.021 -0.1980 -0.0931  0.1847
 4723PP      PP14827  13.212   1.113  11.348  0.0256  0.3952 -0.0517
 4724PP      PP14828   9.373   3.373   0.046 -0.1270  0.0187  0.0730
 4725PP      PP14829  10.536   1.734   1.970  0.0371  0.0837 -0.1845
 4726PP      PP14830   4.537  13.388   2.122  0.1101  0.0388  0.0465
 4727PP      PP14831  15.400  10.136   0.071 -0.3388  0.1223  0.0191
 4728PP      PP14832  15.470   0.488  11.443  0.2770  0.1725 -0.1138
 4729PP      PP14833   7.139   1.867   4.445  0.0814  0.2372 -0.0798
 4730PP      PP14834   7.271   6.692  11.993  0.1227 -0.1584  0.0064
 4731PP      PP14835   0.380   4.529   1.676 -0.1183  0.0162 -0.1830
 4732PP      PP14836  13.375  11.977   4.866  0.0959 -0.0416  0.0983
 4733PP      PP14837  14.598   1.853  10.632  0.1575  0.0933  0.1447
 4734PP      PP14838   7.903  11.740  11.020  0.2655  0.0266 -0.1345
 4735PP      PP14839  15.004   6.281   8.653  0.0000 -0.1206  0.0775
 4736PP      PP14840   8.392  12.054   0.188  0.2595 -0.1624  0.0094
 4737PP      PP14841   7.093  10.526   2.602  0.1176 -0.1905  0.2701
 4738PP      PP14842  10.512   8.716   1.151 -0.2664 -0.0552  0.0959
 4739PP      PP14843   4.548   0.293   4.722 -0.5172  0.0979 -0.1777
 4740PP      PP14844  11.751   2.922   4.229 -0.0784  0.0863 -0.2511
 4741PP      PP14845  10.609   7.979   0.048  0.3820 -0.0538  0.2296
 4742PP      PP14846  13.803  14.393  10.810  0.0441 -0.1139  0.4343
 4743PP      PP14847   4.480   2.749  11.252  0.0614 -0.3087 -0.0657
 4744PP      PP14848   3.882   1.931   2.032  0.1372 -0.0220  0.2905
 4745PP      PP14849   6.732   5.062   3.951 -0.0777 -0.1124  0.0476
 4746PP      PP14850   1.266   1.010  10.739 -0.4052  0.2066 -0.0442
 4747PP      PP14851   6.975   9.416  10.155 -0.0197  0.2035  0.2158
 4748PP      PP14852   5.952   8.564   3.412 -0.2593  0.1526  0.0199
 4749PP      PP14853   2.517  10.750  10.844  0.3728  0.0717  0.1800
 4750PP      PP14854  10.138   3.336   0.002  0.1012 -0.0221 -0.0701
 4751PP      PP14855   8.136  14.199   4.381  0.3348  0.0656 -0.2080
 4752PP      PP14856  15.846   9.527  12.091 -0.0093 -0.0774 -0.1315
 4753PP      PP14857   0.161   7.497   3.331 -0.2970  0.0846 -0.1102
 4754PP      PP14858  12.391   3.863  11.004 -0.1840 -0.1975 -0.1623
 4755PP      PP14859  14.893  12.867  12.718  0.2167 -0.1168  0.0633
 4756PP      PP14860   8.459  14.366   3.690  0.1798  0.5028  0.2622
 4757PP      PP14861   7.862  11.284   9.127  0.1439  0.1970  0.1697
 4758PP      PP14862  10.869  15.138  10.717 -0.0398  0.3099 -0.2423
 4759PP      PP14863  15.697   4.855   2.366 -0.1918 -0.1325 -0.2401
 4760PP      PP14864  12.713   2.431   2.717 -0.2880 -0.0026 -0.0776
 4761PP      PP14865  14.798   6.596  10.218  0.0591  0.0704  0.2025
 4762PP      PP14866   9.500   4.799   1.848  0.3323  0.1197 -0.2300
 4763PP      PP14867  15.514   1.711   3.189  0.0182  0.0732 -0.0789
 4764PP      PP14868   0.757   9.850   1.984  0.0134 -0.1672  0.1005
 4765PP      PP14869   8.047  13.427  10.780  0.0011 -0.0088 -0.1040
 4766PP      PP14870  11.963   8.502   8.532 -0.1176  0.1975 -0.0337
 4767PP      PP14871   4.874   3.460   0.375 -0.1461 -0.2316  0.2173
 4768PP      PP14872  10.264  14.228   1.485 -0.3687 -0.1373 -0.1183
 4769PP      PP14873  15.366   2.177  11.344  0.2474 -0.2292 -0.1046
 4770PP      PP14874   9.929   8.375   3.890  0.0440 -0.1160  0.0592
 4771PP      PP14875   4.458  10.109  13.021  0.0768  0.3587  0.3236
 4772PP      PP14876  12.201  13.908  12.989  0.0119  0.1996 -0.3023
 4773PP      PP14877   1.777   1.233   9.695 -0.2545 -0.1259  0.0329
 4774PP      PP14878  15.103   9.786   9.260  0.0708  0.2433 -0.0124
 4775PP      PP14879  13.141   1.719  11.228 -0.1864 -0.0186 -0.0084
 4776PP      PP14880  11.360   6.553  11.451 -0.0008 -0.0263 -0.1003
 4777PP      PP14881  15.240   2.003  12.785  0.2198  0.3760 -0.0770
 4778PP      PP14882   4.219   3.644   1.269 -0.0198  0.1860 -0.1043
 4779PP      PP14883   6.452  13.144   0.013 -0.3106 -0.1095 -0.1563
 4780PP      PP14884  14.081   1.689   0.265  0.0177  0.1739  0.2016
 4781PP      PP14885  11.120  11.958  12.385 -0.0365 -0.0755 -0.0950
 4782PP      PP14886   6.286   5.868   0.853 -0.1324 -0.2634 -0.0807
 4783PP      PP14887   6.775   2.418  11.202 -0.0837 -0.1809 -0.4741
 4784PP      PP14888   3.278   6.063   2.808  0.1987  0.1802 -0.1503
 4785PP      PP14889   7.167   3.012  10.539  0.0853  0.4249 -0.2521
 4786PP      PP14890   8.943  14.703   0.344 -0.0922 -0.2242  0.0270
 4787PP      PP14891  14.595   9.080  11.466  0.2594 -0.0051 -0.1001
 4788PP      PP14892   1.163   8.837  11.427  0.0409  0.0818  0.0301
 4789PP      PP14893   4.585   0.885   4.867  0.2838 -0.1333  0.0261
 4790PP      PP14894  14.656  15.185   1.281  0.0039 -0.1989 -0.1245
 4791PP      PP14895   7.290   5.887  11.399  0.3269  0.3015  0.0215
 4792PP      PP14896  14.956  14.373   9.832  0.1192 -0.0623 -0.3304
 4793PP      PP14897   9.915  14.063   1.806 -0.1017  0.3067  0.0676
 4794PP      PP14898  11.969  13.665   9.486  0.0861  0.2912  0.3728
 4795PP      PP14899   4.950   0.997  10.293 -0.1865 -0.1543 -0.2516
 4796PP      PP14900  15.848  14.409  13.098  0.1403 -0.0855  0.1177
 4797PP      PP14901   0.422  14.305   3.430 -0.4048  0.2571 -0.0059
 4798PP      PP14902   9.006   6.724   0.150  0.1380 -0.0271 -0.1940
 4799PP      PP14903   7.426   0.743   1.334  0.1141 -0.1688  0.2675
 4800PP      PP14904  10.608  13.994   3.789  0.0392 -0.0482 -0.1931
 4801PP      PP14905   1.049  15.637  12.284  0.0824 -0.0059  0.0113
 4802PP      PP14906   8.771   5.749   1.429  0.1092  0.1201  0.0782
 4803PP      PP14907   5.613   0.191   8.960  0.1164 -0.2004 -0.0834
 4804PP      PP14908   0.274  10.918  11.128 -0.2122 -0.0582 -0.1485
 4805PP      PP14909   8.612   6.336   1.415 -0.1508 -0.0037  0.2059
 4806PP      PP14910   2.758  12.225   3.979  0.0673 -0.0838  0.3028
 4807PP      PP14911   5.033   2.983  10.980 -0.1968  0.1667 -0.3086
 4808PP      PP14912   6.221  11.658  13.165  0.2139 -0.3104 -0.0435
 4809PP      PP14913  15.364   8.488   0.149  0.0455  0.0296 -0.0783
 4810PP      PP14914   2.868  14.503   0.563 -0.1867  0.1011 -0.0849
 4811PP      PP14915   6.477   2.585   2.585  0.1939 -0.1907 -0.1915
 4812PP      PP14916   3.074  13.791  10.184 -0.0582 -0.0674 -0.1573
 4813PP      PP14917  15.398  12.608  12.812  0.2367  0.3009 -0.0690
 4814PP      PP14918   2.523   9.571   9.906  0.2137 -0.2748  0.1266
 4815PP      PP14919   5.323   1.807  11.455 -0.0010  0.1267  0.1988
 4816PP      PP14920   7.440   4.997  10.914 -0.0167  0.3371  0.5157
 4817PP      PP14921  14.647   0.923   4.438  0.3032 -0.0702  0.2517
 4818PP      PP14922   6.312   3.180   3.622  0.0895 -0.0385  0.0537
 4819PP      PP14923   5.396  15.382   3.617 -0.2039 -0.1024  0.2263
 4820PP      PP14924  12.291   5.104  10.325  0.0411 -0.1011  0.0455
 4821PP      PP14925   5.433   7.357  12.397  0.0171  0.2033 -0.0284
 4822PP      PP14926   6.790  10.906  12.560 -0.0712  0.0118  0.1111
 4823PP      PP14927  12.821   0.731  12.304  0.1857 -0.1012 -0.4414
 4824PP      PP14928   8.518  12.765  13.264 -0.1522 -0.0183  0.0863
 4825PP      PP14929   5.510   0.232   2.660  0.0334  0.1653 -0.4058
 4826PP      PP14930  10.560   0.680   5.223 -0.2236  0.0097 -0.0259
 4827PP      PP14931   2.472   8.238  11.889  0.1711  0.0197  0.0107
 4828PP      PP14932  10.209  15.645   4.258 -0.1429  0.0431 -0.3348
 4829PP      PP14933  14.122  15.290   1.304  0.0441  0.0654  0.2299
 4830PP      PP14934  10.205   2.617   0.485 -0.1868 -0.0589 -0.1415
 4831PP      PP14935   6.017  10.734   4.496  0.3018  0.0200  0.0514
 4832PP      PP14936   7.234   1.898  13.457  0.1559 -0.0441  0.3308
 4833PP      PP14937   1.380  13.936   1.749 -0.0150 -0.1255 -0.2016
 4834PP      PP14938  13.620   1.135   4.185  0.2993 -0.2271 -0.1971
 4835PP      PP14939  11.600  14.693   0.274 -0.2495  0.0395 -0.3571
 4836PP      PP14940   8.308   7.995   4.539  0.0939 -0.1220  0.1340
 4837PP      PP14941   0.632  12.991   2.789 -0.4123  0.0888 -0.0851
 4838PP      PP14942   1.269  11.467   9.580  0.0952  0.0587 -0.3837
 4839PP      PP14943   1.947   4.761   2.661 -0.0319 -0.1640  0.2559
 4840PP      PP14944  13.573   7.983  13.146 -0.1304 -0.0005  0.0212
 4841PP      PP14945  14.060   6.382   9.386  0.1091 -0.0786 -0.0741
 4842PP      PP14946   1.096   7.560   8.900  0.0176  0.0414 -0.0999
 4843PP      PP14947   2.696   1.911   1.570  0.2201  0.0771  0.0118
 4844PP      PP14948   9.504  14.463  10.857  0.1069 -0.0440  0.1565
 4845PP      PP14949   0.813  10.260  13.188 -0.0206 -0.0274 -0.1724
 4846PP      PP14950  11.187   1.324  12.834  0.1241 -0.0261  0.3055
 4847PP      PP14951  12.089   3.107  11.561 -0.0604  0.1388 -0.1328
 4848PP      PP14952   8.026  14.018   9.757  0.2368  0.1719 -0.2058
 4849PP      PP14953  11.310  15.447   1.325 -0.1445 -0.4776 -0.3950
 4850PP      PP14954   1.136   3.235  13.412 -0.0172  0.0345 -0.3167
 4851PP      PP14955   2.797  13.984   3.690  0.0659 -0.0125  0.0242
 4852PP      PP14956   5.947   3.014  11.023  0.2788 -0.1462  0.2821
 4853PP      PP14957  15.844   5.497  10.732  0.1323 -0.1094 -0.1738
 4854PP      PP14958   1.275   7.004   2.318  0.0268  0.1705 -0.2384
 4855PP      PP14959   5.867  12.894   9.446 -0.0286 -0.0281 -0.1530
 4856PP      PP14960  13.256   3.085   4.357  0.1168  0.1299  0.0331
 4857PP      PP14961   6.450   4.433  13.330  0.2513 -0.0394 -0.0395
 4858PP      PP14962   1.059   5.454   2.397  0.1159  0.1598  0.3237
 4859PP      PP14963   9.168  11.516   0.797  0.1590 -0.1301 -0.0466
 4860PP      PP14964  12.561   8.939  10.928 -0.1046  0.2581 -0.2041
 4861PP      PP14965   9.650   2.288  12.676 -0.0326  0.0993  0.0698
 4862PP      PP14966   1.688   7.666   2.448  0.3246 -0.2093  0.0534
 4863PP      PP14967   3.107   7.857   1.094 -0.1787  0.1164  0.1404
 4864PP      PP14968  10.162  10.121  10.357  0.1566  0.0811 -0.2208
 4865PP      PP14969   0.035   7.748   9.676  0.1374  0.4406 -0.2478
 4866PP      PP14970   4.114   2.245   0.922 -0.0656  0.1713  0.0311
 4867PP      PP14971  11.097   5.691  11.789  0.1426 -0.1068  0.0575
 4868PP      PP14972   6.974   1.073  12.474  0.3017 -0.2366 -0.1376
 4869PP      PP14973  15.398  10.072  10.650  0.3322 -0.1347 -0.0281
 4870PP      PP14974   6.092  13.404  10.488  0.0515 -0.2232 -0.4092
 4871PP      PP14975   4.123  14.556   8.847 -0.1189  0.2927  0.0994
 4872PP      PP14976   0.621  13.744   0.015 -0.1165  0.0396  0.1777
 4873PP      PP14977   2.671   2.862   1.900 -0.1440  0.0388  0.1932
 4874PP      PP14978   2.691   1.951  12.484  0.1166 -0.0326  0.3172
 4875PP      PP14979   4.401  10.767   2.204 -0.1524  0.1312  0.0858
 4876PP      PP14980   1.585  14.741   1.030  0.3188 -0.2072 -0.0729
 4877PP      PP14981   5.535   4.684   9.068  0.3102  0.0430  0.0174
 4878PP      PP14982   8.416   2.113  13.162 -0.1293  0.0223  0.0061
 4879PP      PP14983   6.239   7.728   1.532 -0.1951  0.1371  0.2483
 4880PP      PP14984  15.769  15.598   0.121 -0.3099 -0.1266 -0.4581
 4881PP      PP14985   8.450   4.456  12.035  0.3578 -0.0193 -0.1697
 4882PP      PP14986  11.678  15.353   9.509 -0.0463 -0.0383  0.0894
 4883PP      PP14987   1.159  11.353  13.353  0.2088 -0.0279  0.0920
 4884PP      PP14988   0.865  12.940  11.326 -0.0469  0.2019  0.0223
 4885PP      PP14989  12.302  11.524   1.311  0.0940  0.1184 -0.1174
 4886PP      PP14990   7.766  14.098   2.613 -0.0837 -0.1658 -0.1847
 4887PP      PP14991  12.833  10.022   2.996 -0.0340  0.2554  0.2646
 4888PP      PP14992   4.446  12.953   3.008 -0.2289  0.2722 -0.1916
 4889PP      PP14993  10.962   1.508  10.012 -0.0483 -0.1071 -0.0740
 4890PP      PP14994   5.268  13.922   0.217 -0.0074  0.0038  0.0583
 4891PP      PP14995  11.351  13.607   1.754 -0.1188 -0.0910 -0.1360
 4892PP      PP14996   2.795   4.745   3.741 -0.1789  0.2346 -0.2929
 4893PP      PP14997   9.585   4.201   3.646 -0.0072 -0.1239  0.1438
 4894PP      PP14998  14.699  12.976   1.521 -0.2252  0.2085 -0.1932
 4895PP      PP14999   3.778  14.401  10.065 -0.3863  0.2551 -0.0556
 4896PP      PP15000  13.842  14.082   0.521 -0.0563 -0.1974 -0.1729
 4897PP      PP15001   0.360  14.069   1.320  0.0443  0.0646  0.1791
 4898PP      PP15002  11.073   5.818   0.753 -0.2527  0.0388 -0.1057
 4899PP      PP15003   0.356  15.462  10.498 -0.0278  0.0850  0.0189
 4900PP      PP15004  10.595   3.799  12.101 -0.0878  0.0720  0.0912
 4901PP      PP15005   6.241  13.309   3.193  0.2508  0.0750 -0.4232
 4902PP      PP15006  14.856   8.375  11.963  0.0029  0.2492  0.0344
 4903PP      PP15007   3.123  14.375  10.078 -0.1585  0.0469 -0.3862
 4904PP      PP15008  11.668  10.958  10.159 -0.0797  0.1528 -0.0114
 4905PP      PP15009  11.163   2.339  11.708 -0.3942 -0.1427 -0.1419
 4906PP      PP15010  14.589   4.277  10.781  0.0107  0.1913  0.1666
 4907PP      PP15011  14.668  11.920   1.034  0.1287 -0.0626 -0.0534
 4908PP      PP15012   4.283   8.092  10.598 -0.1015 -0.2958 -0.1510
 4909PP      PP15013  15.033   7.175   4.009 -0.0999 -0.1731  0.2309
 4910PP      PP15014   8.362   3.475  11.376  0.1139  0.1520 -0.1292
 4911PP      PP15015   1.761   9.491  10.434  0.1917 -0.0163 -0.1470
 4912PP      PP15016   1.337   4.418  12.964  0.0325 -0.3103 -0.0177
 4913PP      PP15017   6.520   9.219   0.708 -0.0735  0.1974  0.2544
 4914PP      PP15018  12.780  11.451   2.689 -0.1191 -0.1514  0.2450
 4915PP      PP15019   8.036  11.724  10.405  0.0621  0.0892  0.1543
 4916PP      PP15020   7.023   6.688   2.019  0.0771  0.0460  0.0762
 4917PP      PP15021  14.093   3.441  12.286  0.0618  0.0942 -0.3173
 4918PP      PP15022   5.016   6.753  11.913 -0.0816 -0.1675  0.2731
 4919PP      PP15023   1.926   7.885  13.300 -0.3620  0.0489 -0.2399
 4920PP      PP15024  10.007   9.404  12.992  0.0942 -0.1690 -0.0575
 4921PP      PP15025   0.166  15.492   9.992 -0.4062  0.0595  0.0795
 4922PP      PP15026   5.794   0.549   3.308 -0.0263  0.2290 -0.0949
 4923PP      PP15027   2.681  11.044  11.410 -0.3270 -0.1372 -0.0612
 4924PP      PP15028   4.782  11.430   0.022  0.4488  0.1066 -0.1240
 4925PP      PP15029  12.780  11.743   3.536  0.0089  0.0986  0.0726
 4926PP      PP15030   6.603   1.297   1.575  0.1651 -0.0904 -0.1985
 4927PP      PP15031  11.654   0.038   4.088  0.0522 -0.1844 -0.0448
 4928PP      PP15032   5.269   9.967  10.928 -0.1207  0.2723  0.3621
 4929PP      PP15033   4.669   7.328   3.594  0.0408  0.2175 -0.2696
 4930PP      PP15034  11.088   8.418   4.440 -0.2022 -0.1119 -0.1738
 4931PP      PP15035  12.040  14.424  12.174 -0.0719  0.1005  0.0609
 4932PP      PP15036   8.532  13.112   4.496 -0.0016 -0.1842  0.0935
 4933PP      PP15037   7.359  10.436   9.396  0.0530  0.1606 -0.0484
 4934PP      PP15038   7.208   2.916   2.763  0.1079  0.2257 -0.2605
 4935PP      PP15039   8.620  14.602  12.385  0.0781 -0.3924  0.0319
 4936PP      PP15040   4.556  11.671   8.638 -0.4003  0.2421  0.1307
 4937PP      PP15041   0.716   6.733   9.887 -0.0877  0.0180 -0.1133
 4938PP      PP15042   3.575  10.660   3.152 -0.2226 -0.1397 -0.1100
 4939PP      PP15043  10.334   8.264   8.144 -0.0766  0.1148  0.2439
 4940PP      PP15044   5.399   9.261  10.320 -0.1329 -0.0314 -0.2564
 4941PP      PP15045   1.682   0.088   4.823 -0.2165  0.1008 -0.1667
 4942PP      PP15046   0.180   5.510   4.079  0.0408  0.1838  0.1409
 4943PP      PP15047   8.099  11.437   0.999 -0.0605  0.0807 -0.0840
 4944PP      PP15048  13.196  10.339  10.887 -0.3258  0.2138  0.0669
 4945PP      PP15049  11.911   4.677  11.049  0.1225 -0.0524 -0.0921
 4946PP      PP15050   8.799   6.182   2.661  0.3273  0.2056 -0.4341
 4947PP      PP15051   4.894  11.323   2.902  0.0422  0.1754 -0.0812
 4948PP      PP15052   0.923  13.892   0.501  0.4227 -0.0641 -0.0227
 4949PP      PP15053  15.240   7.273  12.645 -0.0389 -0.0193 -0.3379
 4950PP      PP15054   7.189  14.770  13.161 -0.0888  0.0733  0.1118
 4951PP      PP15055   7.044   6.240  10.374  0.0634  0.0522 -0.0857
 4952PP      PP15056   4.147   1.348  13.428  0.0865 -0.0498  0.2111
 4953PP      PP15057   6.594   6.409  10.335 -0.1046  0.1927  0.2152
 4954PP      PP15058   7.768   0.641   2.089  0.3831 -0.1100  0.2994
 4955PP      PP15059   4.855  13.008   2.323 -0.1270 -0.3628  0.0338
 4956PP      PP15060   3.318   3.361  12.552 -0.1702  0.1054 -0.1252
 4957PP      PP15061   0.854   1.701   9.827 -0.0232  0.0748 -0.0702
 4958PP      PP15062   9.356  12.065   9.968  0.0532  0.0775  0.0545
 4959PP      PP15063  10.573  10.462   0.782  0.2256  0.0052 -0.0274
 4960PP      PP15064   8.102   1.902  10.762 -0.2000 -0.2323 -0.3987
 4961PP      PP15065   6.104   1.055  10.723 -0.2658  0.0940 -0.2843
 4962PP      PP15066   0.761  15.182   1.709  0.0681  0.0376 -0.1188
 4963PP      PP15067  15.505   2.449   9.175 -0.2010  0.0330 -0.1459
 4964PP      PP15068   0.518   0.717  13.523 -0.1741  0.0542 -0.0023
 4965PP      PP15069   8.883  14.919  13.242 -0.0249  0.3199  0.1790
 4966PP      PP15070   4.785   7.733   0.581  0.0562 -0.1758 -0.0767
 4967PP      PP15071   6.191  13.495  12.218  0.1069 -0.0590 -0.0784
 4968PP      PP15072   2.472   7.785  13.153 -0.0269 -0.0711  0.2714
 4969PP      PP15073   9.257   0.588   1.642 -0.1702  0.1755  0.1157
 4970PP      PP15074   2.239   1.503   0.959 -0.0670  0.1730 -0.1209
 4971PP      PP15075  12.871   6.826   0.584 -0.1513  0.0528  0.1980
 4972PP      PP15076   5.638   0.027  13.498 -0.2898 -0.0255 -0.1295
 4973PP      PP15077   8.620   8.629   0.673 -0.0291 -0.0453 -0.4010
 4974PP      PP15078   7.919  12.870   4.672 -0.1558  0.0047  0.3121
 4975PP      PP15079  11.603   3.592   1.203 -0.0068 -0.1951 -0.0655
 4976PP      PP15080   8.336   2.707   0.659 -0.1141  0.0181  0.0740
 4977PP      PP15081   8.756  15.432   0.096  0.3481  0.4133  0.0904
 4978PP      PP15082  12.269   3.068   3.653  0.1479 -0.2482 -0.0843
 4979PP      PP15083   2.836   4.588  13.348  0.3416  0.1311  0.0202
 4980PP      PP15084  12.609   5.873  13.166 -0.0316  0.1480 -0.2517
 4981PP      PP15085   5.742   1.429   4.644 -0.0426  0.0120 -0.0961
 4982PP      PP15086  12.194   8.723  12.759  0.1854 -0.1748  0.0881
 4983PP      PP15087  14.353  15.379   0.065  0.1954 -0.1495 -0.1011
 4984PP      PP15088   6.988  15.655   2.486  0.1918 -0.0435 -0.2432
 4985PP      PP15089   3.297   3.900  10.454  0.0349 -0.0370  0.0250
 4986PP      PP15090   0.748  14.251   9.293 -0.2909  0.1208  0.0604
 4987PP      PP15091   8.356   5.958   9.221  0.2375  0.2328 -0.0624
 4988PP      PP15092   7.399  12.123  12.735  0.2807  0.2335 -0.1799
 4989PP      PP15093   1.831   1.788   9.702 -0.1776 -0.3335  0.0168
 4990PP      PP15094   6.657   4.455   4.019  0.2082  0.0889 -0.0041
 4991PP      PP15095   8.541  13.032   2.245 -0.1150 -0.0025  0.1647
 4992PP      PP15096   4.538  11.739   0.333  0.3391  0.0152  0.0181
 4993PP      PP15097  15.072  10.457  10.344 -0.1273  0.1539 -0.0188
 4994PP      PP15098  14.019   3.377   4.005 -0.2490  0.1598  0.0727
 4995PP      PP15099   8.081   3.884   8.709 -0.0153 -0.0243  0.2484
 4996PP      PP15100   2.370   5.884  11.595 -0.1412  0.2586 -0.2508
 4997PP      PP15101   3.721  14.034   8.662 -0.1100 -0.0869  0.3276
 4998PP      PP15102   6.446   4.570   0.787 -0.1537 -0.1125 -0.0617
 4999PP      PP15103  10.306  15.470  10.202  0.0288 -0.0835 -0.0480
 5000PP      PP15104   0.757  11.320   0.694 -0.0997  0.2943  0.0571
 5001PP      PP15105   8.135  11.013   0.403  0.1967 -0.1728 -0.3309
 5002PP      PP15106   4.366   5.726  11.601 -0.0106 -0.2154  0.0405
 5003PP      PP15107   4.608   5.144  12.478  0.1647  0.0072  0.2560
 5004PP      PP15108   6.682  13.675   1.919 -0.1318  0.1124  0.0787
 5005PP      PP15109   3.487   7.216   1.635  0.3472  0.0667  0.3605
 5006PP      PP15110   6.313   2.603   1.394  0.3404  0.1105  0.2187
 5007PP      PP15111   1.245  14.835   8.854 -0.4042  0.1760 -0.2423
 5008PP      PP15112   5.475   6.447  10.654 -0.0074 -0.0515  0.0402
 5009PP      PP15113  14.794   8.134   3.969 -0.1837  0.1125  0.0438
 5010PP      PP15114  12.470  12.197  12.379  0.0670 -0.0022 -0.0077
 5011PP      PP15115   5.277   2.875   1.628  0.0267 -0.1612  0.2172
 5012PP      PP15116   7.639   1.537   4.253 -0.0298 -0.1830 -0.0659
 5013PP      PP15117   0.239  10.073   3.820 -0.0296  0.1043 -0.0561
 5014PP      PP15118   6.596   4.016  12.001 -0.1607  0.1026  0.2053
 5015PP      PP15119  14.028   5.945   8.481  0.1608  0.2253  0.0339
 5016PP      PP15120   5.282   5.942  10.876 -0.2559  0.0996  0.1048
 5017PP      PP15121   1.506   4.572   8.822 -0.1936  0.1664  0.1140
 5018PP      PP15122   4.326   1.917   3.594  0.1271 -0.3427 -0.0203
 5019PP      PP15123   9.139   1.441   1.412  0.0342 -0.1631 -0.0323
 5020PP      PP15124   3.694   6.010  10.776  0.0890 -0.3556  0.2780
 5021PP      PP15125   8.446   7.592  11.346  0.0868  0.0395  0.0329
 5022PP      PP15126  10.368   0.411   9.698  0.0226 -0.0338 -0.2604
 5023PP      PP15127   0.031  13.522  11.916 -0.0021 -0.1672 -0.2181
 5024PP      PP15128   0.176  14.598   1.489  0.1763  0.0852 -0.0557
 5025PP      PP15129   8.314  13.762  10.223  0.0321  0.3540  0.1415
 5026PP      PP15130  14.524  10.469  12.595 -0.0377 -0.0122 -0.2433
 5027PP      PP15131   1.186  11.277   9.131  0.3239  0.1179 -0.2892
 5028PP      PP15132  10.471  13.367  11.755  0.3767  0.2326 -0.0252
 5029PP      PP15133   8.970  14.363   1.392 -0.0152 -0.0288  0.0227
 5030PP      PP15134  10.934   1.531   1.761 -0.2412 -0.0130  0.2104
 5031PP      PP15135   6.631  13.171  13.076  0.0106 -0.2752 -0.0131
 5032PP      PP15136   2.816   6.854  13.080  0.1576  0.2487  0.0389
 5033PP      PP15137   5.394  14.837  12.140  0.0520 -0.1261  0.1331
 5034PP      PP15138  11.867   4.816   0.254  0.3260 -0.0631  0.1353
 5035PP      PP15139  12.761   5.260   8.853  0.0306  0.0088  0.0382
 5036PP      PP15140  14.574   2.348   0.871  0.0654  0.0636 -0.2355
 5037PP      PP15141   9.805  11.764   0.966  0.0067  0.0029  0.0265
 5038PP      PP15142  13.493   2.603   2.874 -0.2489 -0.0648  0.1075
 5039PP      PP15143   2.921  14.817   9.039  0.1631  0.1633 -0.1658
 5040PP      PP15144   9.183   1.703  10.165  0.1133  0.2393  0.4554
 5041PP      PP15145   7.956   8.216   3.936 -0.1551 -0.1769 -0.0524
 5042PP      PP15146  13.211  10.481   1.665  0.0633  0.1998 -0.0191
 5043PP      PP15147   8.555   3.367   9.392 -0.0077  0.1615  0.2343
 5044PP      PP15148   7.730   5.299   1.695  0.0839  0.0795 -0.2633
 5045PP      PP15149   5.574   9.782  11.257  0.2505 -0.0174  0.0472
 5046PP      PP15150  13.834   2.890   1.603 -0.1904  0.3277  0.1059
 5047PP      PP15151   8.905  12.046   9.676 -0.0615 -0.3705 -0.1555
 5048PP      PP15152   4.249   8.354  12.557 -0.0861 -0.0633  0.0358
 5049PP      PP15153  15.320   0.357   0.271  0.1524  0.1787  0.2563
 5050PP      PP15154   7.941  11.972   1.116  0.0500 -0.1626  0.3051
 5051PP      PP15155  14.204  14.523   0.659 -0.2434  0.0370 -0.1513
 5052PP      PP15156   2.598   5.992   2.198  0.3028 -0.0853  0.2779
 5053PP      PP15157  10.405   2.091  11.124 -0.2262 -0.1376 -0.0403
 5054PP      PP15158  15.222   8.406   0.654 -0.1253  0.1292  0.0868
 5055PP      PP15159  12.650  13.905   1.270 -0.3769  0.0771  0.4842
 5056PP      PP15160   5.971   5.562   9.172 -0.0153 -0.0978 -0.1428
 5057PP      PP15161   6.217  15.418   0.241  0.3933  0.1409 -0.2341
 5058PP      PP15162  14.925  11.583   0.470  0.2185 -0.0113 -0.1194
 5059PP      PP15163   7.825  14.202   4.737  0.1550  0.5168  0.0565
 5060PP      PP15164   5.214   8.427   0.549  0.0559 -0.2012 -0.1545
 5061PP      PP15165   1.053   7.916   2.861 -0.1768 -0.0637  0.2457
 5062PP      PP15166   0.660  14.524  13.276  0.2166 -0.0401  0.0603
 5063PP      PP15167   3.769   6.407   8.729  0.3590  0.1050  0.1911
 5064PP      PP15168   3.305  13.766   8.753 -0.1181 -0.2782  0.0206
 5065PP      PP15169   3.126  13.457  11.115 -0.2204 -0.2404  0.1113
 5066PP      PP15170   8.014  12.911  10.558 -0.0818 -0.0691 -0.2986
 5067PP      PP15171   8.024  10.355   4.257 -0.2100  0.1299  0.3926
 5068PP      PP15172   4.042   3.313   9.940  0.2966  0.2043  0.2143
 5069PP      PP15173   9.832  11.934  10.463  0.1262  0.0246 -0.0791
 5070PP      PP15174  13.120   0.537   2.592  0.0245 -0.0727 -0.1760
 5071PP      PP15175   6.292   0.052  10.983  0.1210 -0.3276 -0.2329
 5072PP      PP15176  14.387  12.138   3.319  0.0941 -0.1283  0.0151
 5073PP      PP15177   9.968   7.911   2.434  0.1806 -0.1709 -0.1824
 5074PP      PP15178   0.640   5.876   9.278  0.0708  0.2475  0.1553
 5075PP      PP15179  14.573   7.089   8.122  0.2214 -0.0430  0.1103
 5076PP      PP15180   0.586  12.317  13.439 -0.2825 -0.0580  0.3153
 5077PP      PP15181   5.880   2.638  12.206 -0.0451 -0.0303 -0.0458
 5078PP      PP15182  15.033  13.414   0.376  0.1727 -0.1886  0.1070
 5079PP      PP15183   2.604  13.130   0.423 -0.0698 -0.1092  0.0718
 5080PP      PP15184   6.315   0.406   1.437  0.0165  0.0861  0.1471
 5081PP      PP15185   4.726   9.998   0.881 -0.0775 -0.1769  0.1442
 5082PP      PP15186   3.725  12.569   2.941 -0.2300 -0.1628  0.1942
 5083PP      PP15187   4.929   1.240   9.247  0.1282 -0.2393  0.0217
 5084PP      PP15188  13.610   8.155  11.337  0.0635  0.0685 -0.0357
 5085PP      PP15189   7.332   3.904   3.819 -0.3475 -0.0524 -0.0739
 5086PP      PP15190   7.824   4.939   2.748 -0.0491 -0.1173 -0.1132
 5087PP      PP15191   1.944   4.755  13.113  0.1560 -0.0623 -0.0194
 5088PP      PP15192   4.204  15.531   0.716  0.1383 -0.1331  0.2165
 5089PP      PP15193   5.728   8.197   0.518 -0.3032 -0.1000 -0.1281
 5090PP      PP15194   6.663   9.763   9.866 -0.0862  0.0677 -0.0232
 5091PP      PP15195   4.497  14.726  11.683 -0.0832 -0.4122  0.0021
 5092PP      PP15196   7.837   9.875  10.576 -0.0465 -0.2210 -0.3173
 5093PP      PP15197  14.286  12.838  10.667  0.3566 -0.0087  0.0837
 5094PP      PP15198   1.709   4.674   1.365 -0.2268  0.2247  0.2182
 5095PP      PP15199   5.738  10.204   4.323 -0.1952  0.3096  0.0312
 5096PP      PP15200   0.787   8.999   1.986 -0.1182 -0.0190 -0.1598
 5097PP      PP15201   3.846  14.711  11.331 -0.2329 -0.3710 -0.1637
 5098PP      PP15202   9.889   3.954   3.064  0.1822 -0.1564 -0.1422
 5099PP      PP15203   4.884   0.253   1.938 -0.2694  0.0807 -0.0849
 5100PP      PP15204  15.109  12.363  12.044  0.1199 -0.1769  0.0590
 5101PP      PP15205  11.629  13.027   2.123 -0.2129  0.2997  0.0702
 5102PP      PP15206   4.510   8.803  10.582 -0.1362 -0.1769 -0.1351
 5103PP      PP15207  12.811   6.100   2.636 -0.0678  0.0251  0.1662
 5104PP      PP15208  13.166  14.446   0.122 -0.0190 -0.0727 -0.0943
 5105PP      PP15209   1.970   9.700  10.840 -0.0941 -0.1497  0.2058
 5106PP      PP15210   4.386  14.841   1.107 -0.0435  0.1145 -0.2103
 5107PP      PP15211   0.571   8.887   3.893 -0.0187 -0.2409 -0.1336
 5108PP      PP15212  11.966   8.852   1.756 -0.2886  0.0355  0.0081
 5109PP      PP15213   6.812   4.477  11.275  0.1800  0.1390 -0.1317
 5110PP      PP15214  10.758   7.005  12.320  0.1457 -0.0630 -0.1039
 5111PP      PP15215   1.010   5.141   2.793 -0.1623  0.0187  0.2933
 5112PP      PP15216  13.814   3.784   9.123  0.0504 -0.0133 -0.2483
 5113PP      PP15217  12.404  14.450   9.600 -0.2321  0.1027 -0.2957
 5114PP      PP15218  11.868  11.299   1.761 -0.2738  0.0018  0.0313
 5115PP      PP15219   4.107  14.345  10.506  0.3170  0.0601 -0.0628
 5116PP      PP15220   0.530   1.390   0.685  0.0229  0.1271 -0.0899
 5117PP      PP15221  13.826   5.126   4.173  0.0281  0.0607  0.0496
 5118PP      PP15222  11.565  10.405   9.960 -0.1150 -0.0814 -0.2348
 5119PP      PP15223  13.602   2.253   3.190 -0.1173 -0.3383 -0.3423
 5120PP      PP15224  13.091   6.464   2.344 -0.0769  0.0026  0.1744
 5121PP      PP15225  10.888  13.700   4.164 -0.0339 -0.0319  0.1034
 5122PP      PP15226  12.186  14.356   4.004  0.0799 -0.2028 -0.1382
 5123PP      PP15227  13.656   6.335   2.305  0.1303  0.1784  0.0878
 5124PP      PP15228   7.938   1.891  12.361 -0.1453  0.0224  0.2133
 5125PP      PP15229   8.918   2.248  12.263  0.1674  0.4359 -0.2911
 5126PP      PP15230   5.696   4.219  13.443  0.0923  0.1065 -0.0362
 5127PP      PP15231   0.612   8.373   0.011  0.2559  0.0911  0.1029
 5128PP      PP15232  14.906   8.851  11.877  0.1381 -0.1022  0.5274
 5129PP      PP15233  13.669   4.373  10.415  0.1566 -0.2460 -0.1876
 5130PP      PP15234   2.223   6.349  12.898  0.1019  0.1924  0.2924
 5131PP      PP15235  15.514  12.272   0.856 -0.0681 -0.0096 -0.1483
 5132PP      PP15236   3.692   6.177  12.258 -0.1182  0.2623  0.0213
 5133PP      PP15237  12.577  10.333   0.877  0.0206 -0.4212 -0.1717
 5134PP      PP15238   8.525   1.422   5.299 -0.4870 -0.0922 -0.1757
 5135PP      PP15239   2.801   9.681   3.513  0.0197  0.3568  0.0699
 5136PP      PP15240  14.133  15.347   3.114  0.0516 -0.2387 -0.1992
 5137PP      PP15241   6.228   2.225  13.435  0.1724  0.3007 -0.1586
 5138PP      PP15242   4.998   3.401  11.848  0.1184  0.1941  0.3889
 5139PP      PP15243   4.702  13.525  10.799  0.0534  0.0496  0.1808
 5140PP      PP15244   7.796  11.357   0.619  0.0097  0.0018  0.1371
 5141PP      PP15245   9.390   4.500   2.198 -0.2204 -0.2847  0.0298
 5142PP      PP15246   1.815   3.105  13.055 -0.0670  0.2543  0.0060
 5143PP      PP15247   8.594   1.447  13.366  0.1105  0.1297 -0.0388
 5144PP      PP15248   0.047   4.506   2.074  0.3558  0.1595  0.0084
 5145PP      PP15249  12.134  14.883   1.406 -0.0940 -0.2366  0.3263
 5146PP      PP15250   4.423   3.208   8.898 -0.1297 -0.0766 -0.0755
 5147PP      PP15251   2.017  12.369  11.860 -0.1402 -0.0850  0.1410
 5148PP      PP15252   8.556   9.137  10.771  0.1677 -0.0139 -0.2157
 5149PP      PP15253  14.691   8.694   7.989 -0.0328  0.0914 -0.0817
 5150PP      PP15254   4.804   9.178  12.221  0.0072  0.0612  0.2626
 5151PP      PP15255   5.794   8.689   1.857 -0.1357 -0.0982 -0.0031
 5152PP      PP15256  11.925   9.597   0.977  0.1328 -0.1463 -0.0863
 5153PP      PP15257  13.469   9.886  12.189  0.1504  0.2477 -0.0954
 5154PP      PP15258  14.113  12.665   1.158  0.3113 -0.0614 -0.1098
 5155PP      PP15259   3.981   7.912  12.643  0.1721  0.1605  0.4408
 5156PP      PP15260   5.685   5.592   9.951 -0.0188  0.1993  0.0958
 5157PP      PP15261   3.256   9.256  11.997  0.0019  0.4276 -0.1399
 5158PP      PP15262  11.779   5.184   2.384  0.0705  0.0571  0.4792
 5159PP      PP15263   9.303  14.928   9.709  0.0159 -0.1470  0.1129
 5160PP      PP15264   4.641   1.235   1.156 -0.2461  0.3647 -0.1943
 5161PP      PP15265  13.422  10.911   0.007 -0.2135 -0.2638  0.1921
 5162PP      PP15266  14.112  15.276   2.608 -0.1938 -0.1552  0.1068
 5163PP      PP15267   2.792  15.861   9.547 -0.0776  0.0492 -0.2925
 5164PP      PP15268   4.719  13.833   4.017 -0.4082  0.1280  0.3188
 5165PP      PP15269   5.294  12.300   0.738 -0.1274 -0.1387 -0.0964
 5166PP      PP15270   7.076   2.798   0.123 -0.3014 -0.0588  0.1680
 5167PP      PP15271   1.525  12.591  10.879 -0.1681  0.0866 -0.4641
 5168PP      PP15272   5.411  12.726  10.485  0.2762 -0.0029 -0.1609
 5169PP      PP15273   3.422  14.613  12.294  0.1756 -0.4041  0.3410
 5170PP      PP15274  15.103   7.521  12.028  0.1309 -0.1334  0.0053
 5171PP      PP15275   5.415   1.934   9.159 -0.1378  0.1626  0.1533
 5172PP      PP15276   9.558   6.667  13.009 -0.3486 -0.2174 -0.0101
 5173PP      PP15277   0.252   7.912  10.072 -0.0508  0.3122 -0.1439
 5174PP      PP15278  12.962   1.051   1.160 -0.0213  0.1146 -0.0313
 5175PP      PP15279   3.095   5.831  10.131  0.0699 -0.0367  0.1182
 5176PP      PP15280   6.105   7.795   3.619  0.0247  0.1744  0.2515
 5177PP      PP15281  12.350   0.707  12.436  0.0268  0.0445 -0.1824
 5178PP      PP15282   6.975  15.082   0.433 -0.2585 -0.1110  0.1072
 5179PP      PP15283  12.990   7.385   8.351 -0.1054 -0.4982  0.1808
 5180PP      PP15284   9.703   6.055  10.842 -0.0315 -0.1638  0.0074
 5181PP      PP15285   2.423  14.379   2.007  0.0417 -0.2757  0.4035
 5182PP      PP15286   5.799   1.484  12.474 -0.0890 -0.1353  0.2706
 5183PP      PP15287   0.355   0.959  10.419 -0.1679 -0.0925 -0.2187
 5184PP      PP15288  15.798   8.457   9.112  0.0044  0.1829  0.0142
 5185PP      PP15289   5.843   4.540  12.603  0.1441 -0.1537 -0.3650
 5186PP      PP15290   2.193  13.443   8.852 -0.3043 -0.0101 -0.4085
 5187PP      PP15291  13.305   7.478   9.244  0.0323 -0.0365  0.1429
 5188PP      PP15292   0.137   5.657  11.499  0.1611  0.1571  0.1357
 5189PP      PP15293   9.080  13.550   1.606 -0.4333 -0.1437 -0.3182
 5190PP      PP15294  10.271   7.487   2.504  0.0219  0.0823 -0.0075
 5191PP      PP15295   8.298   4.728  11.379 -0.0765 -0.0910  0.0501
 5192PP      PP15296   6.993   1.968  12.870 -0.2249  0.0278 -0.1077
 5193PP      PP15297   2.119   1.974   3.740 -0.2866  0.1810 -0.1762
 5194PP      PP15298  10.822   1.244   3.162  0.0863  0.0387 -0.1652
 5195PP      PP15299   4.814   2.437  11.578 -0.0981 -0.0913 -0.0858
 5196PP      PP15300  14.091   9.106   4.176  0.1771 -0.0597  0.2299
 5197PP      PP15301   2.567   8.155   9.638  0.1172  0.1705  0.1377
 5198PP      PP15302   6.691   7.653  10.281 -0.1395 -0.0141 -0.3265
 5199PP      PP15303   0.090   8.916  13.501  0.0772 -0.1550 -0.0586
 5200PP      PP15304   3.347   7.769   3.801 -0.0000 -0.2909 -0.1269
 5201PP      PP15305   9.258  13.937  12.815  0.0569  0.0150  0.1447
 5202PP      PP15306   9.209   7.300  10.041  0.3699 -0.0421  0.0164
 5203PP      PP15307   2.257  13.655   4.449 -0.0710  0.2628 -0.0522
 5204PP      PP15308   5.731  13.509  11.913  0.3564  0.0319  0.0692
 5205PP      PP15309   5.004   7.022   0.015  0.2075 -0.1039  0.4715
 5206PP      PP15310   4.800   9.042   9.553 -0.1065 -0.2560 -0.2444
 5207PP      PP15311   5.949   0.726   1.283  0.1501 -0.0121 -0.0435
 5208PP      PP15312   3.631  12.640   0.070 -0.0157 -0.0871 -0.2303
 5209PP      PP15313   2.154   1.101   0.556  0.0170  0.0452 -0.1428
 5210PP      PP15314   7.956  14.032   3.185  0.1051  0.0870  0.0461
 5211PP      PP15315   4.515  14.804  10.384  0.0633 -0.1710 -0.2483
 5212PP      PP15316   9.213   7.261  12.011 -0.0573  0.0020  0.0687
 5213PP      PP15317   1.881   4.556  10.176  0.2624  0.3692 -0.0144
 5214PP      PP15318  14.763   0.604   0.902  0.1743 -0.2013 -0.0706
 5215PP      PP15319   2.018  10.966   2.033  0.1474 -0.1036  0.2841
 5216PP      PP15320   4.022  12.442   0.567 -0.5725  0.0028 -0.4158
 5217PP      PP15321   1.815   8.809   0.412  0.2676  0.0094  0.1435
 5218PP      PP15322   8.864   2.190  11.616  0.0193  0.1125 -0.0376
 5219PP      PP15323  13.144   7.418  11.003 -0.2930 -0.2544 -0.2120
 5220PP      PP15324   0.628   4.079  11.941 -0.1971 -0.0898 -0.0784
 5221PP      PP15325  12.348  10.374   1.936  0.0261  0.1488  0.4067
 5222PP      PP15326   1.273   2.043   1.195  0.1085 -0.1161  0.0289
 5223PP      PP15327   7.094   7.714   0.910  0.0432 -0.2602  0.1029
 5224PP      PP15328   0.458  11.599   2.105 -0.2047  0.1574 -0.1856
 5225PP      PP15329  11.128  12.442   2.675  0.0190 -0.2645 -0.1209
 5226PP      PP15330   9.479   1.627   4.307 -0.0059  0.1578  0.2076
 5227PP      PP15331   7.387  14.611   1.752  0.0977 -0.0296  0.4405
 5228PP      PP15332   0.744  13.027   2.299 -0.1464 -0.0402  0.2229
 5229PP      PP15333   5.584  12.888   3.127  0.0100 -0.1896 -0.1685
 5230PP      PP15334   1.323   3.722  12.630 -0.4296  0.0705 -0.1351
 5231PP      PP15335   2.339   2.555   9.030 -0.3793  0.0370  0.4350
 5232PP      PP15336  15.664  13.500   8.993  0.1051  0.0521  0.0980
 5233PP      PP15337  13.625  13.911   1.245 -0.0940  0.0921  0.2515
 5234PP      PP15338   7.849   2.923   0.818 -0.0676 -0.1111  0.1368
 5235PP      PP15339  12.242   5.375   9.415  0.0661 -0.2579  0.3870
 5236PP      PP15340   0.745   7.362   2.257 -0.1479  0.2256  0.0987
 5237PP      PP15341  10.160   2.031   2.079 -0.3411  0.3999 -0.0552
 5238PP      PP15342   0.492   4.939   0.279  0.0834 -0.1473  0.2400
 5239PP      PP15343   5.181   2.984  13.160  0.0750  0.0527 -0.0650
 5240PP      PP15344  10.672  13.732   9.623  0.0354 -0.1415 -0.0641
 5241PP      PP15345   9.307  11.844   1.186 -0.3799 -0.0276  0.1343
 5242PP      PP15346  11.197   8.117   9.229 -0.1925 -0.0686  0.0714
 5243PP      PP15347   4.808  11.203   3.799 -0.1883  0.0760  0.1750
 5244PP      PP15348   5.282  14.841   4.185  0.2511  0.2112  0.1610
 5245PP      PP15349   9.505   9.393  13.086  0.0081 -0.2584  0.2050
 5246PP      PP15350   4.412  11.196   2.994 -0.3739  0.5211 -0.0649
 5247PP      PP15351   3.123   8.628   0.646 -0.0674 -0.1094 -0.0323
 5248PP      PP15352   3.643  13.075   3.627  0.0964 -0.0489  0.0045
 5249PP      PP15353   9.098  15.729  13.402  0.1529  0.0662  0.1623
 5250PP      PP15354  10.907   2.098  13.144  0.1733 -0.1945 -0.0397
 5251PP      PP15355   2.331   7.538   3.305 -0.1441 -0.1244  0.1338
 5252PP      PP15356   5.515   6.775  12.262 -0.1427 -0.0685 -0.0405
 5253PP      PP15357   6.344   4.795   2.745  0.1129 -0.0987  0.1271
 5254PP      PP15358   6.242   5.902  10.691  0.0077  0.1167  0.0934
 5255PP      PP15359   4.062  12.472  11.443 -0.1203  0.2964 -0.0771
 5256PP      PP15360   4.213   3.670  12.484  0.1549  0.1275 -0.0442
 5257PP      PP15361   6.681   6.697   4.475 -0.2001  0.0775 -0.0885
 5258PP      PP15362  11.151  14.340   8.536  0.0449  0.3516 -0.2967
 5259PP      PP15363   1.528  12.264   3.195 -0.0837 -0.1514 -0.0428
 5260PP      PP15364   4.950   1.415  11.123 -0.3433  0.2275 -0.0015
 5261PP      PP15365  12.992  13.009   0.034 -0.4730 -0.3586 -0.0386
 5262PP      PP15366   9.117   1.652   4.727  0.1209 -0.0122  0.0617
 5263PP      PP15367  12.088   3.920  13.408 -0.2800  0.0208 -0.2203
 5264PP      PP15368   9.362  14.280   1.060 -0.1088  0.0043 -0.0118
 5265PP      PP15369  13.434   8.189   9.276 -0.0082  0.0313  0.3179
 5266PP      PP15370  15.641   4.395  10.690  0.0433  0.1646  0.0307
 5267PP      PP15371   3.754  15.302   0.721 -0.1105  0.2298  0.3117
 5268PP      PP15372  15.856  11.150   1.486 -0.1875 -0.1556  0.1934
 5269PP      PP15373  11.368   9.960  11.598  0.4052  0.1226  0.3099
 5270PP      PP15374   6.698  13.886  11.943 -0.1371 -0.0624  0.2286
 5271PP      PP15375   0.958  14.607   9.773  0.3418 -0.1324 -0.1319
 5272PP      PP15376  12.134   1.828   2.099 -0.1878 -0.5159 -0.0420
 5273PP      PP15377  13.202  14.074   9.001  0.5004 -0.1273 -0.1077
 5274PP      PP15378   4.661   8.790   3.007  0.0648  0.0988  0.1774
 5275PP      PP15379   0.732   4.198   1.754 -0.1544  0.0924  0.2193
 5276PP      PP15380   5.988  11.596   2.447  0.3193 -0.0127  0.0840
 5277PP      PP15381   2.925   9.603   3.007  0.2912 -0.1641 -0.1259
 5278PP      PP15382  11.672  13.448   1.035  0.0936  0.1132 -0.3387
 5279PP      PP15383  12.003   5.596  11.551 -0.0863  0.3846 -0.1109
 5280PP      PP15384   8.137  10.427  12.647 -0.0178  0.0222 -0.1426
 5281PP      PP15385   6.875   3.990   9.588 -0.0432  0.1271 -0.0272
 5282PP      PP15386  13.006   2.755   4.041 -0.1358 -0.1422  0.3254
 5283PP      PP15387  14.965   5.164  13.293 -0.0698  0.0946  0.0819
 5284PP      PP15388  14.484  12.064   4.247  0.0118  0.2673  0.0177
 5285PP      PP15389   9.883   7.917   9.841  0.0352 -0.1681  0.3309
 5286PP      PP15390   3.698  11.077   8.976  0.2194 -0.2813 -0.0451
 5287PP      PP15391   7.496   2.761  12.375  0.0086  0.1362  0.0378
 5288PP      PP15392   7.601   1.586   1.423  0.3527  0.1586 -0.0685
 5289PP      PP15393  11.369   5.461   2.861  0.4205  0.1531 -0.1615
 5290PP      PP15394   7.859  14.455   1.879  0.0553  0.1451 -0.4304
 5291PP      PP15395  10.827   3.101  13.133  0.1480  0.0667  0.4372
 5292PP      PP15396   8.554   4.869  11.840 -0.1582  0.0079  0.1337
 5293PP      PP15397   3.250  11.800   1.508  0.2461  0.1438  0.0198
 5294PP      PP15398  12.308  14.960  11.095  0.0130 -0.2573  0.0324
 5295PP      PP15399   2.400   9.736   0.608 -0.2000  0.0210 -0.2968
 5296PP      PP15400   7.088  14.380   0.573 -0.0417 -0.0661  0.2056
 5297PP      PP15401   7.668  14.843   3.269  0.3152 -0.0036  0.2094
 5298PP      PP15402  13.399   3.604  11.483  0.1042  0.0294  0.3124
 5299PP      PP15403   7.553   6.293   3.440 -0.1020 -0.1604 -0.0019
 5300PP      PP15404  12.602  14.662   2.339 -0.1691  0.0732  0.0595
 5301PP      PP15405   0.738  12.801  13.492  0.0298 -0.1261 -0.2431
 5302PP      PP15406  11.562  15.382  11.623 -0.0670 -0.1702  0.1040
 5303PP      PP15407  14.157   6.542   7.819 -0.1245 -0.0338  0.2006
 5304PP      PP15408   6.621  10.343   9.942  0.2204 -0.1375 -0.3577
 5305PP      PP15409  15.237   6.270   2.451 -0.2149  0.1025 -0.2252
 5306PP      PP15410  15.461  14.737   2.323  0.1138  0.0949 -0.0055
 5307PP      PP15411  10.230   1.603   2.660 -0.3125 -0.1386  0.1569
 5308PP      PP15412  10.160  13.236   9.443  0.0151  0.1219  0.0202
 5309PP      PP15413   4.327   7.093   9.867  0.2391 -0.3389  0.2805
 5310PP      PP15414   2.985   1.187   4.581  0.2211  0.3429 -0.0649
 5311PP      PP15415  12.159  14.552  10.480  0.1959  0.0556 -0.1037
 5312PP      PP15416   6.401   0.839   1.750 -0.3405  0.3256 -0.0912
 5313PP      PP15417  13.234   9.031  12.609  0.0450 -0.1150  0.0903
 5314PP      PP15418  10.570   8.268   9.291 -0.4481  0.1967  0.0745
 5315PP      PP15419   1.294   1.307   9.695 -0.0177 -0.0367  0.0372
 5316PP      PP15420  10.716   3.709  11.219 -0.2025  0.1943  0.0129
 5317PP      PP15421   1.505   4.817   3.251  0.3328 -0.1703 -0.0242
 5318PP      PP15422  15.583  12.328   9.586  0.2835  0.0382 -0.2084
 5319PP      PP15423   6.617   5.279   8.452 -0.0193  0.2917  0.0482
 5320PP      PP15424   9.139   0.611   3.114  0.2013 -0.1083 -0.2680
 5321PP      PP15425  11.198   1.997   9.925  0.6370  0.5107 -0.0291
 5322PP      PP15426  15.100   8.883   9.149  0.0722 -0.0976  0.2629
 5323PP      PP15427   2.908  11.822   2.125 -0.1473  0.0799 -0.0867
 5324PP      PP15428  12.482   6.742   3.542  0.1355 -0.2530  0.2037
 5325PP      PP15429  15.784   9.392  10.179  0.0328  0.1786 -0.0236
 5326PP      PP15430  13.981   8.811  11.739 -0.1736 -0.0818  0.1107
 5327PP      PP15431  13.741   1.364  13.160 -0.0261  0.1819 -0.1628
 5328PP      PP15432   9.509   6.419  11.639 -0.3544  0.3550  0.2055
 5329PP      PP15433   5.293  14.920   1.130 -0.0706  0.0765 -0.0919
 5330PP      PP15434  15.138   8.284   7.984  0.0245  0.0341  0.2220
 5331PP      PP15435  11.553   4.437  10.261  0.0847  0.1034 -0.3080
 5332PP      PP15436  15.007   6.454   2.907 -0.1089 -0.2578  0.0911
 5333PP      PP15437   6.246  11.025  12.887  0.3619 -0.4621 -0.0904
 5334PP      PP15438   6.807   9.992   1.119  0.2537  0.2127  0.0951
 5335PP      PP15439   1.630  12.801   2.624  0.2863 -0.2046  0.1812
 5336PP      PP15440   5.363   7.755  12.042  0.1532  0.1142  0.3951
 5337PP      PP15441   1.527   4.734   9.867  0.0268  0.2858 -0.0804
 5338PP      PP15442  10.981  15.577  12.265  0.1061  0.1404  0.1494
 5339PP      PP15443   9.987  13.725   2.865 -0.0899 -0.0280  0.1581
 5340PP      PP15444   7.789   4.547   3.081  0.1866  0.2975  0.0191
 5341PP      PP15445   3.116  14.965   1.550  0.0784  0.1597 -0.0581
 5342PP      PP15446  12.549   4.498   3.712 -0.0714 -0.1096 -0.1044
 5343PP      PP15447  13.703  14.640   0.410 -0.2730  0.0870  0.2893
 5344PP      PP15448   2.068   7.905   2.943 -0.1260 -0.3541 -0.1783
 5345PP      PP15449  11.796   1.207  11.343  0.0779 -0.3307  0.3749
 5346PP      PP15450   6.849   5.469   3.277  0.0047 -0.0202  0.1449
 5347PP      PP15451   0.838   5.092  11.649  0.3862  0.0025  0.2280
 5348PP      PP15452  15.046  15.551  12.126  0.1784 -0.0890  0.0191
 5349PP      PP15453   7.055  15.229  13.297 -0.0790  0.1734  0.0170
 5350PP      PP15454   4.736   5.869   1.689  0.3067  0.1552  0.2440
 5351PP      PP15455  14.424  13.198   0.793 -0.0915  0.0688 -0.2144
 5352PP      PP15456  12.098  13.545   0.290  0.0568  0.2981  0.4943
 5353PP      PP15457   1.650   8.493  12.429 -0.0687 -0.1110  0.3692
 5354PP      PP15458  13.284   7.967  10.433  0.0096 -0.1059  0.1822
 5355PP      PP15459   8.607   7.483   9.206 -0.2728 -0.0431  0.0672
 5356PP      PP15460   7.106   3.812   0.022  0.4372  0.1045 -0.2242
 5357PP      PP15461   1.147   5.378   3.274 -0.1592 -0.0195  0.1720
 5358PP      PP15462   1.558  10.099  10.913  0.3543  0.0876 -0.5210
 5359PP      PP15463   9.217  12.651   1.438 -0.1480  0.0656 -0.2659
 5360PP      PP15464   1.179   8.988   8.610  0.0652  0.0988 -0.1780
 5361PP      PP15465  10.222   4.199   1.715 -0.3432  0.1131  0.2053
 5362PP      PP15466   8.196  15.052  10.260  0.1845 -0.1231  0.0456
 5363PP      PP15467   3.524   6.367  11.171  0.1145  0.0023 -0.0161
 5364PP      PP15468   0.342  10.750   8.930 -0.0055  0.1055  0.2263
 5365PP      PP15469   1.890   2.740   0.827 -0.3134 -0.0555 -0.0064
 5366PP      PP15470  10.882  10.769   3.965  0.0364  0.4016 -0.3198
 5367PP      PP15471   3.967   9.655   0.613  0.3718 -0.2199  0.0737
 5368PP      PP15472  13.823   4.740   2.394  0.0079  0.1949  0.4104
 5369PP      PP15473   7.123   8.065   1.305 -0.0273  0.1044  0.0875
 5370PP      PP15474   2.486   6.936   9.277  0.0048 -0.2456  0.3231
 5371PP      PP15475   0.570  12.973   0.923 -0.1214 -0.1888 -0.0354
 5372PP      PP15476   4.301  15.193   2.959 -0.1290 -0.2508 -0.0275
 5373PP      PP15477  10.383   1.218  11.633 -0.0164 -0.0170  0.1519
 5374PP      PP15478   0.203  11.812   1.594 -0.1013  0.0658 -0.3605
 5375PP      PP15479   2.232   1.774   1.999 -0.0786 -0.0684 -0.1941
 5376PP      PP15480   2.352  13.764   1.387  0.1530 -0.0482 -0.0667
 5377PP      PP15481   8.721  14.681   1.047 -0.0709  0.2376 -0.0812
 5378PP      PP15482   1.594   7.685   2.957 -0.2188 -0.1815 -0.1445
 5379PP      PP15483   2.096  11.925   8.944  0.1938 -0.0446 -0.1318
 5380PP      PP15484  13.244   1.582   1.853 -0.2087 -0.0244 -0.0217
 5381PP      PP15485   0.230   6.112   8.371 -0.2874 -0.1063  0.2487
 5382PP      PP15486   5.157   7.898  10.647 -0.1102  0.0781 -0.3885
 5383PP      PP15487   2.657   9.546  12.669  0.4089  0.1195 -0.0211
 5384PP      PP15488  15.214   5.544  13.512 -0.0076 -0.1394  0.0156
 5385PP      PP15489  10.713  13.789  11.704  0.0959 -0.0204 -0.2087
 5386PP      PP15490   9.753   5.704   1.618 -0.1577 -0.1076  0.4230
 5387PP      PP15491   8.259  14.444   3.227  0.2116 -0.3937 -0.2481
 5388PP      PP15492  14.937  10.686   8.940 -0.2588  0.3211 -0.4692
 5389PP      PP15493   8.775  15.615   0.669 -0.0763 -0.1376 -0.2417
 5390PP      PP15494  10.765  15.017   4.630  0.3675 -0.0598  0.1203
 5391PP      PP15495   6.667  14.160   4.363  0.1892  0.0708 -0.4206
 5392PP      PP15496   7.195   1.468   4.081 -0.1030  0.3166  0.1914
 5393PP      PP15497   1.058   5.757   1.957 -0.0054 -0.2232 -0.3701
 5394PP      PP15498  15.505   8.733  10.490  0.0410 -0.1444 -0.2277
 5395PP      PP15499  11.186  10.850   0.139 -0.4896  0.1977 -0.2593
 5396PP      PP15500  14.609  11.876   2.336  0.5924 -0.0545  0.2676
 5397PP      PP15501  10.664   2.133   5.393  0.0165 -0.1949 -0.1734
 5398PP      PP15502   4.157  14.037  10.100  0.1043 -0.1454  0.2474
 5399PP      PP15503  14.313   5.666   8.787 -0.1579  0.1473  0.0818
 5400PP      PP15504   7.116  11.943   9.029  0.0023  0.0607  0.1348
 5401PP      PP15505   1.238   0.056  10.899 -0.0986  0.2581 -0.1388
 5402PP      PP15506   2.958   8.202   9.878 -0.2746  0.2019  0.0732
 5403PP      PP15507   2.190  10.489   1.865  0.0674  0.2059 -0.4011
 5404PP      PP15508   8.165   8.377   2.377  0.0978 -0.0748  0.0295
 5405PP      PP15509   9.320   3.943  11.762 -0.2830 -0.1244  0.1381
 5406PP      PP15510   5.508   0.718   4.368  0.0239 -0.1856 -0.1348
 5407PP      PP15511   8.022   2.392  12.198  0.1663  0.1219 -0.3980
 5408PP      PP15512   9.685   1.822  10.039  0.1467 -0.1965 -0.1476
 5409PP      PP15513  15.095   8.476   2.891  0.0416  0.1474 -0.0896
 5410PP      PP15514   4.651   4.487   9.213 -0.3112  0.1549  0.3340
 5411PP      PP15515   5.742  10.961  11.417 -0.1374 -0.2545  0.1008
 5412PP      PP15516  11.689  13.869  11.718 -0.3227 -0.1619  0.2901
 5413PP      PP15517  10.795   8.481   2.968  0.2209 -0.0789  0.3081
 5414PP      PP15518   0.636  11.527  13.351  0.1111 -0.1729  0.0969
 5415PP      PP15519   1.420   2.315   0.398  0.0618  0.0111 -0.0842
 5416PP      PP15520   6.579  10.392   2.383  0.2569  0.1069  0.0165
 5417PP      PP15521   7.933   3.433  13.131 -0.1674  0.0774 -0.2995
 5418PP      PP15522   9.658   2.606  11.445  0.0594 -0.2865 -0.4773
 5419PP      PP15523   1.790  12.142  12.246  0.0759 -0.0816  0.2578
 5420PP      PP15524  12.048   6.528  11.591  0.0132  0.0414  0.2052
 5421PP      PP15525  13.007   3.582   9.108 -0.0912  0.1441  0.0252
 5422PP      PP15526  10.050   6.958   9.133 -0.0223  0.2179  0.0052
 5423PP      PP15527  13.883  10.961   1.486  0.0253  0.0209  0.1240
 5424PP      PP15528   7.168   9.718  13.003  0.1192  0.3406  0.3914
 5425PP      PP15529   8.606   9.751   9.945 -0.0000 -0.0649 -0.1000
 5426PP      PP15530  13.266   9.403   0.170  0.1502  0.1659  0.2383
 5427PP      PP15531  12.287  11.781  10.473  0.1651  0.0297 -0.0513
 5428PP      PP15532   6.574   7.398   2.574 -0.4048 -0.1186 -0.0200
 5429PP      PP15533   3.259   7.655   1.550 -0.2715  0.1310 -0.0951
 5430PP      PP15534   7.358   4.073  11.607 -0.2994  0.1283  0.2466
 5431PP      PP15535  15.747   4.463   0.363 -0.0834 -0.0312 -0.1653
 5432PP      PP15536   8.547  11.469  10.987  0.2140  0.0486 -0.1921
 5433PP      PP15537  13.833  12.586   4.533 -0.2868  0.0336 -0.1483
 5434PP      PP15538   4.849   6.949  10.578  0.1617  0.1055 -0.3167
 5435PP      PP15539   7.075   4.726   2.180 -0.0926  0.3202  0.4357
 5436PP      PP15540  13.556   7.504   9.660 -0.2204 -0.2357 -0.2952
 5437PP      PP15541   7.860  14.807  12.984  0.0041  0.1622  0.4160
 5438PP      PP15542  13.429   3.502  12.017 -0.1372 -0.1097 -0.5014
 5439PP      PP15543   5.856   1.811   2.803  0.0353 -0.2388  0.1915
 5440PP      PP15544   7.661   5.936   3.054  0.0628  0.0688  0.0264
 5441PP      PP15545  15.378  11.056   9.613 -0.1942  0.0431  0.0039
 5442PP      PP15546   1.501   5.858  12.025  0.0499  0.0949 -0.0177
 5443PP      PP15547   6.468  11.181   1.426  0.2016  0.1082  0.0915
 5444PP      PP15548   6.857   1.826  11.040 -0.3781 -0.2228  0.1403
 5445PP      PP15549   6.752   9.051  12.218  0.4246  0.0408 -0.0682
 5446PP      PP15550  12.833  12.706   2.150 -0.3810  0.1025 -0.0410
 5447PP      PP15551   8.062   6.218  11.073  0.0398 -0.2666 -0.1613
 5448PP      PP15552   6.058  12.365  12.515 -0.0450 -0.0263 -0.0269
 5449PP      PP15553   2.305   1.191   2.277  0.0512  0.1810  0.2941
 5450PP      PP15554  14.495   1.644   3.138  0.0172  0.1969 -0.1860
 5451PP      PP15555  13.895   2.267  12.339  0.0531  0.1625 -0.0918
 5452PP      PP15556   3.972   8.934   2.876 -0.3221  0.0517 -0.0883
 5453PP      PP15557   8.504   1.468  12.236  0.4891 -0.0747 -0.2582
 5454PP      PP15558  12.806   1.078   2.112  0.1173 -0.3669 -0.0745
 5455PP      PP15559  14.149  15.461  12.546 -0.0023  0.0679  0.0964
 5456PP      PP15560  10.840   0.291  10.506 -0.2142 -0.1477 -0.0359
 5457PP      PP15561  11.612  15.770  10.740  0.1421 -0.0301 -0.2138
 5458PP      PP15562  13.327  15.250  10.532 -0.4993 -0.0491 -0.3977
 5459PP      PP15563  11.514   8.177   0.117 -0.1219  0.0126  0.2173
 5460PP      PP15564   5.666  10.495  11.981  0.0507  0.0444  0.3250
 5461PP      PP15565   3.463  13.137  11.924  0.1183 -0.0060  0.0297
 5462PP      PP15566  15.319   3.552   9.728 -0.2201  0.0008 -0.3291
 5463PP      PP15567   3.957   1.494  10.262 -0.1651  0.0275 -0.0500
 5464PP      PP15568   3.288   8.500  10.391 -0.0506  0.0753 -0.1994
 5465PP      PP15569  13.335  11.330  10.868 -0.1313 -0.1084  0.1157
 5466PP      PP15570  15.863   9.684   9.764  0.1130 -0.0656 -0.1482
 5467PP      PP15571  15.670  15.657  12.324 -0.0220  0.2746 -0.0601
 5468PP      PP15572   5.100  10.297   4.523  0.1532  0.0864  0.3273
 5469PP      PP15573  11.191  14.610   4.779 -0.1562  0.3053  0.0798
 5470PP      PP15574   3.996   2.762   9.944  0.0925  0.2586 -0.5673
 5471PP      PP15575   6.897   2.483   3.709  0.0094 -0.1370  0.0697
 5472PP      PP15576   2.864   0.364  11.465  0.1338 -0.0715  0.1987
 5473PP      PP15577   7.745  12.416   0.779 -0.0547  0.3929  0.1030
 5474PP      PP15578   0.557   9.819  11.127  0.0082  0.1841  0.3366
 5475PP      PP15579  14.991  13.455   1.834  0.1754  0.1635 -0.2682
 5476PP      PP15580  15.095  12.661  11.113  0.5961  0.0444 -0.1794
 5477PP      PP15581  13.379  14.329   0.992  0.1264  0.1316 -0.0384
 5478PP      PP15582   4.785  15.388   3.060  0.0090  0.0457  0.0191
 5479PP      PP15583   9.128   7.064   2.022  0.0066 -0.0978 -0.0322
 5480PP      PP15584  11.312  10.304   8.915  0.1147  0.0338  0.1141
 5481PP      PP15585   2.938  14.649   9.703 -0.1037  0.1465 -0.1725
 5482PP      PP15586  15.297   1.422   2.050 -0.0248  0.2032 -0.0628
 5483PP      PP15587  10.132   1.030  10.691  0.0677  0.0453 -0.0961
 5484PP      PP15588   3.458   4.217   2.619  0.2059 -0.2875  0.2018
 5485PP      PP15589  14.828   9.973  10.602  0.1682  0.1020 -0.1211
 5486PP      PP15590  11.435   0.834  13.079 -0.2972 -0.1704  0.3366
 5487PP      PP15591   7.614   7.679   8.684  0.1140 -0.0124 -0.0176
 5488PP      PP15592   2.919  12.776   0.600 -0.0001  0.3542  0.1223
 5489PP      PP15593   2.023   6.058  11.324 -0.0750 -0.0160 -0.0315
 5490PP      PP15594  12.278  14.507   1.623  0.0639  0.0734 -0.0825
 5491PP      PP15595   1.360   5.775   1.353  0.0452 -0.0095  0.5955
 5492PP      PP15596  11.615  11.779   0.906  0.2642  0.0382 -0.0288
 5493PP      PP15597  11.217  15.308   2.675 -0.1824  0.2538  0.1687
 5494PP      PP15598   3.381   7.494  11.124 -0.4197  0.1447 -0.1828
 5495PP      PP15599   6.346  10.693   1.626  0.0945 -0.1122  0.0450
 5496PP      PP15600  12.989   8.626  12.513 -0.1122 -0.0597  0.3260
 5497PP      PP15601   2.301   2.735  11.275 -0.2297 -0.2402 -0.4848
 5498PP      PP15602   0.866  13.721  12.178 -0.2059 -0.1249  0.0138
 5499PP      PP15603  10.370  15.735   3.797 -0.0763 -0.3185 -0.0164
 5500PP      PP15604   3.342   7.262   0.634  0.1611  0.2493  0.0634
 5501PP      PP15605   4.526  14.297  10.314 -0.2224  0.5923 -0.1340
 5502PP      PP15606   4.221   7.960   9.492 -0.2396  0.0119 -0.0760
 5503PP      PP15607   7.663  10.180   9.692  0.0938  0.2297  0.0983
 5504PP      PP15608   1.018  10.889  11.829 -0.3652 -0.2690 -0.0513
 5505PP      PP15609   7.220   2.905   9.388  0.1041 -0.1100 -0.2426
 5506PP      PP15610   5.408   6.564   0.148  0.1172  0.2777 -0.0308
 5507PP      PP15611   3.860  14.755   3.542  0.1359 -0.3157  0.0823
 5508PP      PP15612   6.400   2.327   3.503 -0.0005 -0.0869  0.2747
 5509PP      PP15613   1.240   7.800   0.738  0.0668 -0.3060 -0.1235
 5510PP      PP15614  15.674   5.869   2.072 -0.0307 -0.0313  0.1791
 5511PP      PP15615   1.845   3.690   4.105  0.0266 -0.0749  0.2190
 5512PP      PP15616   7.302  14.734  10.404 -0.0282 -0.1769 -0.0009
 5513PP      PP15617   5.580   0.108   1.197 -0.2527 -0.3096  0.2003
 5514PP      PP15618  12.720   0.223   1.584  0.0827  0.0383  0.3699
 5515PP      PP15619  12.954   7.688   1.710 -0.0736 -0.0698 -0.0928
 5516PP      PP15620   2.842  13.026  10.967 -0.0835 -0.1047 -0.0258
 5517PP      PP15621   9.940  15.760   4.916  0.1395  0.0499 -0.0606
 5518PP      PP15622  15.119   6.064   9.307  0.0374  0.1623  0.3422
 5519PP      PP15623  12.991   1.200   1.613  0.2158  0.3110  0.1784
 5520PP      PP15624  15.097   3.102   3.580 -0.2311  0.0774 -0.2415
 5521PP      PP15625  10.646  13.839   3.285  0.2293  0.2036 -0.3172
 5522PP      PP15626   7.482  12.826   0.820 -0.0833  0.1307  0.0631
 5523PP      PP15627   7.177   2.440  12.691  0.0844  0.1907 -0.1556
 5524PP      PP15628   7.647  13.428  13.276  0.1467 -0.0772  0.1592
 5525PP      PP15629  11.273  15.392  10.722  0.1895  0.0345  0.2562
 5526PP      PP15630   2.567  10.864   9.367  0.3219  0.1696 -0.0464
 5527PP      PP15631   2.488   6.524  10.230  0.1225 -0.1156 -0.2307
 5528PP      PP15632   8.704   8.128   0.875 -0.0199  0.2629  0.0740
 5529PP      PP15633   0.163  12.086   8.270  0.1180  0.2879  0.2217
 5530PP      PP15634  12.135   1.642  10.738 -0.0597  0.2511 -0.2613
 5531PP      PP15635  12.042  10.209   1.007  0.2823 -0.0761  0.2641
 5532PP      PP15636  14.197   0.033   9.169  0.2907 -0.1427 -0.0395
 5533PP      PP15637  11.368   6.230   0.869 -0.3350  0.0639 -0.1240
 5534PP      PP15638  14.659  14.467  12.040 -0.0782 -0.1348  0.0918
 5535PP      PP15639  10.588   9.971   1.473 -0.1898 -0.2773 -0.2340
 5536PP      PP15640   8.194   1.275   1.062 -0.2236 -0.1042 -0.0198
 5537PP      PP15641   3.871   1.073   2.272  0.0788 -0.0142  0.0119
 5538PP      PP15642   2.199   6.704  11.014 -0.1998  0.2343 -0.1706
 5539PP      PP15643  11.128   6.703   4.282 -0.1332 -0.1289 -0.2242
 5540PP      PP15644   3.957   2.118   3.921 -0.1007 -0.0731 -0.0511
 5541PP      PP15645   9.772   9.038  10.281 -0.1993 -0.1489  0.2819
 5542PP      PP15646  15.474  12.624   1.386 -0.1181  0.2303 -0.0151
 5543PP      PP15647   0.913  15.513  10.223  0.3704 -0.2126  0.1450
 5544PP      PP15648  12.295  14.365   0.067  0.2715  0.0486  0.0200
 5545PP      PP15649  13.214  11.067   0.845  0.1936  0.1104 -0.0293
 5546PP      PP15650  10.401   5.696   3.076  0.0566 -0.1668  0.0145
 5547PP      PP15651   7.681   4.901  13.110  0.0431  0.1969 -0.0779
 5548PP      PP15652  12.751   7.523  13.026 -0.1468 -0.3484  0.1284
 5549PP      PP15653   2.868   0.324   1.468 -0.1929  0.4507 -0.3695
 5550PP      PP15654  15.799   8.037  11.962 -0.1062  0.0192  0.0206
 5551PP      PP15655   2.968   3.844   9.462 -0.2062 -0.1443  0.0281
 5552PP      PP15656   7.970  10.893  11.974  0.3717  0.2287  0.3093
 5553PP      PP15657  14.435   3.696   2.652  0.3105  0.0456 -0.0152
 5554PP      PP15658  13.153   1.869  10.718  0.3214 -0.0694 -0.0392
 5555PP      PP15659   3.892   4.352   4.336 -0.1430  0.0304 -0.1328
 5556PP      PP15660   2.340   5.765   1.780  0.1864  0.1679  0.2502
 5557PP      PP15661   0.884   6.010  11.126  0.3260  0.3052 -0.1793
 5558PP      PP15662   0.990  11.724   9.238  0.3086  0.3634 -0.0491
 5559PP      PP15663   6.862  13.610  12.613 -0.2434  0.0053  0.0387
 5560PP      PP15664   0.272  15.299   1.781 -0.0914  0.1655  0.1731
 5561PP      PP15665   6.195   2.250   9.529 -0.0545  0.0584 -0.0600
 5562PP      PP15666  14.759   2.575  12.296 -0.0177 -0.2054 -0.2994
 5563PP      PP15667   1.135   9.589   3.852  0.4719 -0.0643 -0.0598
 5564PP      PP15668  15.861  12.276   1.343 -0.1907 -0.1877 -0.3055
 5565PP      PP15669   2.484   4.694   0.476 -0.0270 -0.0361 -0.1051
 5566PP      PP15670   8.100   3.515   9.068 -0.1187  0.0815 -0.2318
 5567PP      PP15671   6.525   3.622  10.797  0.2408 -0.1782 -0.0596
 5568PP      PP15672   4.625   0.493   9.633  0.0428  0.0539  0.0174
 5569PP      PP15673  15.588  11.930   9.254 -0.3049 -0.1769  0.0329
 5570PP      PP15674   1.349  15.744   2.630 -0.0647 -0.0155 -0.0873
 5571PP      PP15675   9.093  12.984  12.024  0.1235  0.3848  0.2302
 5572PP      PP15676   9.455   6.185  12.545 -0.2432  0.0054  0.0331
 5573PP      PP15677   1.378   3.531   9.059 -0.2069 -0.1591  0.0436
 5574PP      PP15678  14.658   9.558   0.972 -0.0702  0.0116 -0.4394
 5575PP      PP15679   1.951  14.197   3.833 -0.4066  0.0413 -0.0800
 5576PP      PP15680   3.842   3.634   1.591 -0.1852  0.2309 -0.0921
 5577PP      PP15681   5.537  10.975   1.087  0.0079 -0.1870  0.1974
 5578PP      PP15682  11.976   1.415   0.186 -0.3672  0.0680  0.3702
 5579PP      PP15683   0.894   5.156  10.917 -0.0791 -0.1012 -0.1052
 5580PP      PP15684  12.570   0.737   9.354  0.1563  0.0217  0.0624
 5581PP      PP15685  14.797  15.661   1.286 -0.1413  0.0360 -0.2299
 5582PP      PP15686  13.103   6.623   8.390  0.0734 -0.0097  0.0009
 5583PP      PP15687   3.347   7.411  11.695 -0.2521  0.0530  0.2156
 5584PP      PP15688   1.132   1.290   4.315 -0.0008 -0.0740  0.0407
 5585PP      PP15689   2.469  13.611  12.640  0.1955  0.1036  0.0520
 5586PP      PP15690   3.368   5.416  12.426 -0.0809 -0.3052  0.0426
 5587PP      PP15691   1.072   3.412  12.908  0.4833  0.0740 -0.0700
 5588PP      PP15692   1.638  12.821   0.947 -0.1355  0.1620 -0.0888
 5589PP      PP15693   3.198   9.970   3.327 -0.0065 -0.4927  0.0560
 5590PP      PP15694   5.966   2.234   0.316  0.3102 -0.4358  0.3427
 5591PP      PP15695   4.882   3.315  13.343  0.0823 -0.3485  0.0935
 5592PP      PP15696  15.664   8.215   0.570  0.4712 -0.1424  0.0590
 5593PP      PP15697   0.980   6.485  12.223  0.1779 -0.2212 -0.2308
 5594PP      PP15698   1.391  12.995  10.546 -0.1747 -0.0049 -0.1458
 5595PP      PP15699   0.672   6.440  10.446  0.4888 -0.3078 -0.0430
 5596PP      PP15700   5.079   9.230  13.068  0.0185  0.2072 -0.4857
 5597PP      PP15701  15.116   4.727   0.727 -0.0416 -0.1224 -0.0850
 5598PP      PP15702  10.256   1.250   0.348 -0.0161  0.1963  0.2099
 5599PP      PP15703  13.762  11.377   2.531 -0.1225 -0.2288  0.0626
 5600PP      PP15704  12.142   8.401   0.063  0.0557  0.1508 -0.0841
 5601PP      PP15705   1.798   0.087   9.790  0.0106 -0.1243  0.0150
 5602PP      PP15706   1.045   9.608   2.603  0.1632 -0.1581  0.2770
 5603PP      PP15707   5.352   5.208   0.051 -0.2458  0.2217 -0.2633
 5604PP      PP15708   8.535  12.711   1.794  0.1170  0.2113  0.0947
 5605PP      PP15709   7.863   2.867   4.020  0.2780 -0.0550 -0.0763
 5606PP      PP15710  11.102   3.178   4.001 -0.0295 -0.0760  0.1185
 5607PP      PP15711   9.015   3.474  10.441  0.1635 -0.0506  0.0972
 5608PP      PP15712   9.359   7.085   0.984 -0.2818  0.1601 -0.0729
 5609PP      PP15713   4.319   7.055   9.318  0.1010  0.0517  0.3210
 5610PP      PP15714  10.649  12.127   1.278 -0.1432  0.2977  0.0665
 5611PP      PP15715  11.640  14.918   9.264 -0.1726 -0.1414 -0.0505
 5612PP      PP15716   6.029   1.764   0.410  0.1751 -0.3598 -0.1090
 5613PP      PP15717  12.888  14.213  13.299 -0.3973  0.1853 -0.3151
 5614PP      PP15718   3.990   5.640   2.586 -0.0558 -0.0630 -0.4092
 5615PP      PP15719  11.091   8.312  11.803  0.1787  0.1286 -0.1046
 5616PP      PP15720  15.271  10.599  11.438  0.0504  0.2037  0.0176
 5617PP      PP15721  12.045  12.416   1.492  0.1921 -0.1698 -0.1521
 5618PP      PP15722   3.078  13.243  10.565 -0.0974 -0.0146  0.0763
 5619PP      PP15723   9.777   9.224   0.309 -0.1389  0.0734 -0.2351
 5620PP      PP15724   3.542   8.910   9.522 -0.1380  0.1327  0.0278
 5621PP      PP15725   9.573  15.044   2.254 -0.0240 -0.3440  0.1839
 5622PP      PP15726   9.967  13.727  10.771  0.0699 -0.1508  0.3724
 5623PP      PP15727  11.568   6.684   1.034 -0.0046 -0.0468  0.4376
 5624PP      PP15728   3.023   5.694   2.513 -0.3380  0.1187 -0.0625
 5625PP      PP15729   8.958   2.183   1.695 -0.1032 -0.0655  0.1552
 5626PP      PP15730   8.957   6.366   9.886 -0.1462  0.1057  0.0288
 5627PP      PP15731  11.985  13.579   8.837  0.0453  0.3073  0.1690
 5628PP      PP15732   9.498   9.516  11.866  0.1375  0.0083  0.2629
 5629PP      PP15733  15.753  15.053   2.121 -0.2605  0.1145 -0.2388
 5630PP      PP15734   9.387   1.768  12.694  0.0107 -0.1478 -0.1304
 5631PP      PP15735  14.804   8.501   0.413  0.2215  0.0092  0.4179
 5632PP      PP15736   1.025   8.755   9.925  0.3127  0.0187  0.0689
 5633PP      PP15737   4.535   1.486   9.039 -0.0881  0.2538  0.2514
 5634PP      PP15738  12.355  13.537  12.175  0.2418 -0.0338 -0.0369
 5635PP      PP15739   3.518  14.016   9.248  0.1973 -0.0982  0.1366
 5636PP      PP15740   5.835   3.139   0.242  0.0464 -0.0008 -0.3129
 5637PP      PP15741  12.111   9.174   3.630 -0.0748 -0.0012  0.0346
 5638PP      PP15742  13.664   5.185   8.809  0.3309 -0.0945  0.1474
 5639PP      PP15743  15.364   8.740   3.366 -0.0521  0.1151  0.0532
 5640PP      PP15744   2.913   5.245   9.883  0.1892 -0.0396  0.1086
 5641PP      PP15745  11.538   9.468  11.474  0.0984 -0.4709  0.2253
 5642PP      PP15746  15.097   4.555   3.592 -0.3031 -0.0272  0.0763
 5643PP      PP15747   4.301   3.229  13.111  0.2671 -0.0483 -0.0203
 5644PP      PP15748  10.677   2.426  13.501  0.0976  0.0129 -0.2274
 5645PP      PP15749  11.908   5.549   1.071  0.2059  0.2912  0.0382
 5646PP      PP15750   6.196   5.544  11.776  0.3004  0.2181 -0.1319
 5647PP      PP15751  15.584  13.498  12.308  0.0726 -0.1610 -0.0580
 5648PP      PP15752  10.766   2.708  11.566  0.1951  0.2090 -0.0598
 5649PP      PP15753  10.046   0.709  10.119 -0.0743  0.1240  0.0024
 5650PP      PP15754   9.883   3.463   4.815 -0.2212 -0.1274 -0.1146
 5651PP      PP15755   9.788   7.835   3.323 -0.2663 -0.0419  0.1340
 5652PP      PP15756   9.648   3.382  10.574 -0.0083 -0.0001  0.1908
 5653PP      PP15757  10.186   5.991  10.960 -0.1049 -0.1243  0.2896
 5654PP      PP15758  10.120  11.853   2.177  0.1969 -0.0546 -0.0390
 5655PP      PP15759   3.486   2.030  12.928 -0.3309  0.1320 -0.1434
 5656PP      PP15760  12.151  10.509  12.201 -0.4064 -0.0867  0.1783
 5657PP      PP15761   0.522  10.408   1.872 -0.0961 -0.2396 -0.0932
 5658PP      PP15762   3.240  10.340   2.995 -0.0485 -0.0988  0.2969
 5659PP      PP15763  12.484  15.400   9.867  0.0075 -0.1168 -0.1036
 5660PP      PP15764   4.980   3.109   3.398  0.0120 -0.1472 -0.0049
 5661PP      PP15765   3.401  13.709   1.385 -0.1316 -0.2897  0.0755
 5662PP      PP15766  15.515   4.018  12.623 -0.0473  0.0203  0.0522
 5663PP      PP15767  11.013  15.147   9.140 -0.1657  0.0467 -0.2151
 5664PP      PP15768  11.119   3.312   0.551  0.0347 -0.1500  0.0183
 5665PP      PP15769   6.562   6.020   1.351 -0.1774 -0.2401  0.4111
 5666PP      PP15770  10.601   3.512   2.814  0.3230  0.2151  0.0278
 5667PP      PP15771   8.635   6.964   9.165 -0.1945  0.0541  0.0055
 5668PP      PP15772   9.991   0.709   4.282  0.2952 -0.1398 -0.1363
 5669PP      PP15773  15.422  13.510  12.847 -0.1438  0.0654  0.2485
 5670PP      PP15774   9.882   2.484   3.000  0.1398  0.2288 -0.1821
 5671PP      PP15775   8.701   9.633   9.515 -0.0450  0.0585  0.1297
 5672PP      PP15776   7.804  13.612  12.805 -0.1333  0.2700  0.1623
 5673PP      PP15777  12.680   7.555  10.914 -0.1175  0.3078 -0.0666
 5674PP      PP15778   1.543   1.595   4.264 -0.0907 -0.0597  0.1521
 5675PP      PP15779   9.401   8.559  12.287  0.0976  0.1365  0.0393
 5676PP      PP15780  11.565   3.102  11.411  0.0250 -0.1930  0.2252
 5677PP      PP15781   4.225  13.567   9.174 -0.0977  0.0780  0.2407
 5678PP      PP15782   0.991   1.275  10.458 -0.0055  0.3069 -0.1484
 5679PP      PP15783   8.695   4.926  10.229 -0.1526  0.3388 -0.2475
 5680PP      PP15784   4.141   3.339   1.867 -0.1838 -0.0625  0.1165
 5681PP      PP15785   5.591  10.786   2.805  0.1309  0.4593  0.1172
 5682PP      PP15786   2.868   5.793   0.710 -0.2038  0.0522 -0.1168
 5683PP      PP15787   7.002   1.649   5.107  0.0114  0.1918 -0.2677
 5684PP      PP15788  14.516   5.009   2.349  0.0930 -0.1778 -0.1885
 5685PP      PP15789   2.001   6.075   4.360  0.0697 -0.2010  0.0308
 5686PP      PP15790  11.986   5.322  13.445 -0.2130  0.2531  0.4327
 5687PP      PP15791   4.246  11.713   3.108 -0.0650  0.0704  0.0008
 5688PP      PP15792  10.317  15.359   1.178 -0.1119 -0.0559  0.2021
 5689PP      PP15793   7.252   8.961  10.244 -0.0696 -0.1355  0.2255
 5690PP      PP15794   9.174  12.034   9.220  0.0806  0.1446 -0.2403
 5691PP      PP15795  10.454   4.703  13.343 -0.2948 -0.1899  0.1854
 5692PP      PP15796   1.373   3.896  10.177  0.5070 -0.0109  0.0937
 5693PP      PP15797   5.625   8.767   0.642 -0.1319  0.0146  0.1732
 5694PP      PP15798   6.128  12.850   3.815  0.0761  0.5288 -0.0112
 5695PP      PP15799   4.620   9.991   3.502 -0.4240 -0.0452  0.3616
 5696PP      PP15800   7.893   1.153  12.383  0.0256  0.2073  0.0223
 5697PP      PP15801   5.299   1.356  10.095  0.0109 -0.0149 -0.1885
 5698PP      PP15802   3.244  15.183  11.171 -0.0126 -0.4050  0.1513
 5699PP      PP15803  13.834   9.385   0.378  0.0215  0.1939 -0.3247
 5700PP      PP15804   4.205   4.389   2.277 -0.0193  0.1981  0.1679
 5701PP      PP15805   9.163   0.521   2.612 -0.1625 -0.1989 -0.0081
 5702PP      PP15806   9.141   1.463  13.033  0.1393 -0.0394  0.1524
 5703PP      PP15807   6.381   2.452   5.385 -0.0327  0.0472  0.5060
 5704PP      PP15808  14.663   0.703  13.061  0.0036  0.2018  0.1263
 5705PP      PP15809   6.793  14.377  10.596 -0.2278  0.4637  0.2495
 5706PP      PP15810   4.476   3.068   3.068 -0.2974  0.3427  0.0302
 5707PP      PP15811   0.014  12.695   1.666 -0.1819  0.0557 -0.3151
 5708PP      PP15812   4.433   2.749   2.638  0.4445  0.0745 -0.2062
 5709PP      PP15813  14.557  11.490   8.425 -0.1507 -0.4432 -0.2282
 5710PP      PP15814   4.995  11.146   0.356 -0.0662  0.1837 -0.3180
 5711PP      PP15815   2.143   1.620   0.411  0.2248  0.0719 -0.0965
 5712PP      PP15816  12.220  10.143   9.287  0.1534 -0.2410 -0.1205
 5713PP      PP15817   3.921  13.802  10.548 -0.1331 -0.1923  0.1871
 5714PP      PP15818   3.012  14.039   9.725 -0.0623 -0.0412 -0.1257
 5715PP      PP15819   4.566   2.160   2.811 -0.1916  0.0135 -0.2024
 5716PP      PP15820   6.833   4.620   3.023 -0.1701  0.1904 -0.0618
 5717PP      PP15821   3.202   1.498   9.380  0.0684 -0.2185 -0.0177
 5718PP      PP15822   8.858   9.722   0.236  0.0156  0.0188 -0.1247
 5719PP      PP15823  10.588   5.869   3.742  0.1641  0.1601  0.0784
 5720PP      PP15824  11.666   3.985   9.088  0.2216  0.0767 -0.1932
 5721PP      PP15825   9.271   3.285  10.984 -0.0667 -0.0088  0.1678
 5722PP      PP15826  14.582  14.603   2.617 -0.0010 -0.2342  0.0771
 5723PP      PP15827   9.668  11.020  13.332 -0.0565  0.0601 -0.0989
 5724PP      PP15828  14.015   8.062   0.077  0.0344 -0.1299  0.0243
 5725PP      PP15829  12.911   6.907  13.200 -0.0618  0.0917 -0.3374
 5726PP      PP15830   9.958   4.251   9.537 -0.2828 -0.0591 -0.0999
 5727PP      PP15831  14.838   2.417   3.206  0.2636 -0.0455 -0.2928
 5728PP      PP15832   2.211   1.496   4.240 -0.4014 -0.2248  0.0874
 5729PP      PP15833   0.028  14.520   3.209 -0.3082 -0.1288  0.0462
 5730PP      PP15834  10.652   8.317  10.511  0.0874 -0.1204 -0.2566
 5731PP      PP15835  14.683   3.702  12.325  0.0609  0.2119 -0.0869
 5732PP      PP15836   5.884   9.246   0.815 -0.0140  0.0348  0.1653
 5733PP      PP15837  12.270   4.930  12.892 -0.1628  0.1224  0.0209
 5734PP      PP15838  13.248   5.490   2.581  0.2099  0.2706 -0.0661
 5735PP      PP15839   1.972  12.085   1.427  0.0605  0.1215  0.0964
 5736PP      PP15840  10.999   7.230   9.363  0.2351 -0.2575 -0.0318
 5737PP      PP15841   5.330   9.726   2.828 -0.2129  0.0601  0.0710
 5738PP      PP15842   7.140   0.813  10.705 -0.1311  0.1106  0.0571
 5739PP      PP15843   1.278   5.446  12.905 -0.0495  0.1500 -0.1709
 5740PP      PP15844  11.455   0.953  12.514 -0.1769 -0.1269 -0.2042
 5741PP      PP15845   8.120   5.771   9.646 -0.2115  0.1390  0.1409
 5742PP      PP15846   6.021  12.022  13.519  0.0214 -0.1173 -0.1544
 5743PP      PP15847   4.057   1.113  11.262  0.1128  0.0641  0.1051
 5744PP      PP15848   8.326  10.979   1.012  0.0207  0.4839  0.1653
 5745PP      PP15849   4.227   0.739   4.547  0.2064  0.1659  0.0248
 5746PP      PP15850   6.989   0.139   3.853 -0.2925  0.0368 -0.2994
 5747PP      PP15851  10.084  15.328   9.673  0.0107 -0.1358  0.0859
 5748PP      PP15852   4.245  14.629   9.329 -0.1548 -0.0301 -0.0874
 5749PP      PP15853   0.722   0.938  11.807  0.0489 -0.0216  0.0095
 5750PP      PP15854  13.059  11.285   3.514 -0.1031  0.1039  0.3274
 5751PP      PP15855  11.850   9.560   2.260  0.1407 -0.0201 -0.0477
 5752PP      PP15856   9.564  13.149   0.586 -0.4030 -0.1149 -0.0536
 5753PP      PP15857   2.188   2.260   3.318  0.1531  0.2502 -0.1792
 5754PP      PP15858   1.076   7.669   9.844 -0.1522  0.1536  0.0596
 5755PP      PP15859   6.489  15.731  11.538  0.1618 -0.1901  0.3111
 5756PP      PP15860   1.728  14.884   3.843 -0.0176 -0.2321 -0.0495
 5757PP      PP15861   3.191   8.331  13.201  0.2099 -0.0464 -0.2543
 5758PP      PP15862  14.360  11.276  13.176  0.0022 -0.0254 -0.1562
 5759PP      PP15863  12.499   1.009   1.088 -0.0195  0.0183 -0.1817
 5760PP      PP15864   9.203   7.288   9.464 -0.3488  0.2307 -0.1666
 5761PP      PP15865   8.358   0.117  12.754  0.0692  0.3098 -0.1342
 5762PP      PP15866   6.954  13.460  11.644 -0.1789  0.0633 -0.2719
 5763PP      PP15867  13.969  13.560   1.295  0.1918 -0.0482 -0.1262
 5764PP      PP15868   5.139   8.568  11.419  0.1345 -0.0683  0.0547
 5765PP      PP15869  15.443  13.713   8.425  0.1460 -0.3528 -0.0510
 5766PP      PP15870  15.291   2.619   3.701 -0.0609 -0.0251  0.1044
 5767PP      PP15871  10.707   7.918  11.674 -0.1143  0.1320  0.2026
 5768PP      PP15872  11.903   7.589  11.730 -0.1276  0.1871  0.0631
 5769PP      PP15873   0.854   6.300  12.749 -0.3677  0.2271 -0.1299
 5770PP      PP15874   2.948   9.668   1.517 -0.1159  0.0080 -0.1272
 5771PP      PP15875  11.923   2.634   3.812  0.1960 -0.2259 -0.1377
 5772PP      PP15876  10.874   5.076   3.985 -0.1380  0.0722 -0.0682
 5773PP      PP15877  13.141   2.754  12.849 -0.1995  0.0886  0.0650
 5774PP      PP15878   1.197   7.786  12.074  0.0612  0.2680 -0.1333
 5775PP      PP15879  11.126  12.355   1.589 -0.0679  0.1241  0.3835
 5776PP      PP15880  11.904   1.885   4.218 -0.0298 -0.1795 -0.0111
 5777PP      PP15881   0.922   8.091  10.614  0.1034  0.1612  0.0658
 5778PP      PP15882  11.524  15.746   3.196 -0.1148 -0.0505  0.1349
 5779PP      PP15883  11.067  11.061  10.615 -0.2341 -0.0422 -0.3874
 5780PP      PP15884  12.160   4.500  13.209  0.0242  0.0364 -0.2153
 5781PP      PP15885   5.237   3.977   0.509  0.1687 -0.2132  0.1694
 5782PP      PP15886   5.754  13.629   4.247  0.0604 -0.2162  0.0113
 5783PP      PP15887   8.492   2.432   2.905 -0.1282 -0.0453  0.0536
 5784PP      PP15888   7.950  12.728   2.958 -0.1434  0.0250  0.1805
 5785PP      PP15889  13.462   2.173  13.236  0.1107  0.1726  0.1359
 5786PP      PP15890   2.586   9.808   1.081  0.0356 -0.3069 -0.1779
 5787PP      PP15891   7.863  14.032   3.694  0.1106  0.0398 -0.1727
 5788PP      PP15892   4.850   2.534   2.173 -0.1008 -0.0642  0.2296
 5789PP      PP15893  11.243  10.739   0.706  0.1640  0.1479  0.0755
 5790PP      PP15894  13.192   0.429   0.566  0.1890  0.0538  0.1788
 5791PP      PP15895  13.006  15.865   9.872  0.2125 -0.0055 -0.0919
 5792PP      PP15896   7.823  10.946   4.537  0.0778 -0.0660  0.0408
 5793PP      PP15897  12.034   0.987   2.516 -0.0368  0.0052 -0.0538
 5794PP      PP15898  15.561   1.241   3.340 -0.0597 -0.1449  0.0197
 5795PP      PP15899  15.321  14.406   0.399 -0.0722  0.1450 -0.0203
 5796PP      PP15900   4.439   8.169  11.931 -0.1749  0.0467  0.0319
 5797PP      PP15901   5.738   6.007  10.551  0.0525  0.0924  0.0166
 5798PP      PP15902   4.085   9.367  11.694 -0.2467  0.0358  0.2915
 5799PP      PP15903  10.593   9.083  13.512 -0.1340  0.2587  0.1434
 5800PP      PP15904   0.184   1.767  13.316 -0.0553  0.1892  0.4014
 5801PP      PP15905  10.766   9.854   3.621  0.0619  0.0075 -0.2243
 5802PP      PP15906  10.219  11.179   9.391  0.0956  0.0129 -0.3104
 5803PP      PP15907  15.628   1.987   2.677 -0.2326 -0.0263  0.1805
 5804PP      PP15908  13.870  13.204   0.441  0.1065 -0.2328  0.0315
 5805PP      PP15909  13.021  12.758   9.658  0.0200  0.0587  0.0895
 5806PP      PP15910  13.763   0.353   9.551  0.0004  0.0223  0.0825
 5807PP      PP15911   9.752  12.905  11.382 -0.0020 -0.0500 -0.2804
 5808PP      PP15912  15.082   0.656  13.272  0.0594 -0.0303  0.1891
 5809PP      PP15913   3.246   4.207   0.022  0.2146  0.0988  0.0795
 5810PP      PP15914   8.197  14.061   8.854  0.1049  0.0160 -0.1712
 5811PP      PP15915   4.630   3.004   9.331  0.2546 -0.0488  0.3441
 5812PP      PP15916   1.977   4.651  11.075  0.2039 -0.1452 -0.3034
 5813PP      PP15917   2.253   8.381  10.826 -0.0751 -0.0495  0.1360
 5814PP      PP15918   7.386  13.777  10.368  0.4192  0.2430  0.2245
 5815PP      PP15919   2.796   8.957   0.474  0.2078  0.0255 -0.2589
 5816PP      PP15920  11.435   7.283   4.144 -0.1190 -0.2707  0.3834
 5817PP      PP15921   9.086  10.425   3.288 -0.4199  0.0464  0.2988
 5818PP      PP15922   4.126   5.125   0.508 -0.1233  0.2964 -0.3000
 5819PP      PP15923   2.381   0.582   2.978 -0.0310 -0.0396 -0.1887
 5820PP      PP15924  15.605   0.742   2.960 -0.1057  0.5427 -0.1018
 5821PP      PP15925   9.541   3.562   5.253 -0.0205 -0.1310  0.1783
 5822PP      PP15926   9.964   5.388  12.997  0.1707  0.3147  0.2102
 5823PP      PP15927   9.635  13.546   3.160 -0.4011  0.3256 -0.1295
 5824PP      PP15928   2.141   3.199   3.156 -0.0256  0.1655 -0.1730
 5825PP      PP15929  13.574   9.337  10.041 -0.1885  0.0252  0.0774
 5826PP      PP15930  12.321   5.315  11.229 -0.1576 -0.2652 -0.0394
 5827PP      PP15931   8.372  12.181   1.283 -0.0417  0.1410  0.1340
 5828PP      PP15932  14.821  11.474   3.550 -0.2392  0.2459 -0.1277
 5829PP      PP15933  12.897   6.076   1.343  0.1584  0.4169  0.1861
 5830PP      PP15934   4.344   1.041  13.035  0.1422 -0.0571 -0.0059
 5831PP      PP15935   6.870   7.910   3.094  0.1590 -0.0137  0.1673
 5832PP      PP15936   5.840   5.978  11.814  0.4122 -0.1619 -0.1167
 5833PP      PP15937  12.648   9.287  11.439 -0.0187  0.2046  0.4216
 5834PP      PP15938   1.601   9.697   2.760  0.1540 -0.1638 -0.1133
 5835PP      PP15939   6.837   4.312  12.362  0.1650 -0.2732  0.0041
 5836PP      PP15940   0.324   9.103  10.449  0.0504  0.3955 -0.2625
 5837PP      PP15941   7.410   0.702   3.945 -0.0650  0.2143  0.1715
 5838PP      PP15942   2.413   5.353   9.050  0.2641  0.3614 -0.1393
 5839PP      PP15943  12.730  11.504  12.984  0.2625  0.1227  0.1477
 5840PP      PP15944  15.267   6.152   3.873  0.0130 -0.1421  0.0812
 5841PP      PP15945   8.673   1.029   1.838  0.4177  0.3580  0.0090
 5842PP      PP15946   1.945   1.055   0.997  0.2399  0.2961 -0.1576
 5843PP      PP15947  15.408  14.959   9.181 -0.1230  0.1927  0.0259
 5844PP      PP15948   8.403  12.541  10.857 -0.1227 -0.1409 -0.3750
 5845PP      PP15949  10.946   2.975   1.571 -0.0453  0.0680  0.2702
 5846PP      PP15950   2.500  14.777  12.096  0.2150  0.0401 -0.0184
 5847PP      PP15951   7.535   0.075   9.893  0.1981 -0.1566 -0.1205
 5848PP      PP15952   2.905   4.811   0.410 -0.2526 -0.1709  0.2480
 5849PP      PP15953  10.808   2.640  12.057  0.1164  0.1117  0.1499
 5850PP      PP15954  10.355  11.472  11.704  0.3682 -0.0404  0.1907
 5851PP      PP15955   7.173  12.408  11.119  0.3416  0.1637  0.3841
 5852PP      PP15956   5.954   0.790  10.233 -0.1788 -0.2554  0.0872
 5853PP      PP15957   0.611  12.513   8.989 -0.0251 -0.1741 -0.0139
 5854PP      PP15958   7.897   8.427   1.809  0.0991 -0.1093 -0.1900
 5855PP      PP15959   4.437   7.782  11.014  0.0712 -0.0692 -0.1112
 5856PP      PP15960   4.886   5.240   1.022  0.1446  0.3710 -0.0589
 5857PP      PP15961  10.038   6.757   3.551  0.1744 -0.0237 -0.0739
 5858PP      PP15962  14.502  13.867  11.347 -0.1585  0.3740  0.0593
 5859PP      PP15963   6.628  11.990   4.269 -0.1806 -0.6418  0.1071
 5860PP      PP15964   9.857   7.964   9.082  0.0457 -0.0761 -0.1579
 5861PP      PP15965  14.084  14.795  11.520  0.4560  0.0337  0.1893
 5862PP      PP15966  12.881   8.510   9.202 -0.2965  0.4459  0.1397
 5863PP      PP15967   6.369   5.379   0.243  0.1408 -0.0627 -0.1253
 5864PP      PP15968  13.930  13.451   1.765 -0.1574  0.0960  0.1449
 5865PP      PP15969  11.804   3.633   1.671 -0.2341 -0.0917 -0.2847
 5866PP      PP15970  14.617  14.535  10.758 -0.0768 -0.0795  0.1472
 5867PP      PP15971   2.844   8.115   1.545 -0.1407 -0.1175  0.1053
 5868PP      PP15972   6.728  10.936   0.986 -0.1245 -0.4037  0.5719
 5869PP      PP15973   8.647   3.048   4.577  0.1673 -0.0959  0.0423
 5870PP      PP15974  12.774  14.135   0.282 -0.0651 -0.0436 -0.0404
 5871PP      PP15975   4.655   7.399  12.551 -0.0304  0.0946  0.1573
 5872PP      PP15976   2.709   8.735  12.221 -0.2376 -0.0195  0.1300
 5873PP      PP15977   4.705   3.526   3.178  0.1928 -0.3120 -0.2558
 5874PP      PP15978   1.387   8.094   8.936  0.1003 -0.0647  0.1506
 5875PP      PP15979  10.110  12.846  12.723 -0.0372  0.2539  0.1904
 5876PP      PP15980   1.273  13.351  11.467 -0.1723 -0.1077  0.0422
 5877PP      PP15981   8.200   9.691   2.603 -0.4792  0.3113 -0.0975
 5878PP      PP15982  10.268   0.887   1.304  0.3902  0.0599  0.0388
 5879PP      PP15983   6.990  13.008  12.104  0.1462 -0.1212 -0.1390
 5880PP      PP15984   9.525  15.518  11.005  0.1952  0.1901 -0.4206
 5881PP      PP15985   4.662  12.921  12.320 -0.1380  0.1005  0.1252
 5882PP      PP15986   8.541  13.489   0.140  0.1903  0.0089  0.1092
 5883PP      PP15987  13.241   1.393   9.044  0.0072  0.2269 -0.1750
 5884PP      PP15988   2.886   4.329   2.617  0.2250  0.1209  0.2171
 5885PP      PP15989   4.558  15.363   4.334 -0.0929  0.0752  0.3578
 5886PP      PP15990   3.023   4.062  12.490 -0.1710 -0.5105  0.0070
 5887PP      PP15991  15.076   4.507  11.603 -0.3296  0.1098 -0.3216
 5888PP      PP15992  12.389  12.013   3.404 -0.0842  0.1974  0.1503
 5889PP      PP15993   7.474  14.439   0.975  0.1369 -0.1710  0.1744
 5890PP      PP15994   0.813   2.880   0.667  0.0343  0.0895 -0.0212
 5891PP      PP15995   5.722   3.622  13.089 -0.1222  0.1092 -0.2032
 5892PP      PP15996  14.051  13.899   2.959 -0.0519  0.1705 -0.0208
 5893PP      PP15997  11.828   6.250   4.096 -0.0362 -0.0159  0.0861
 5894PP      PP15998  13.432  14.780   3.119 -0.1449  0.1357  0.2820
 5895PP      PP15999   6.867   8.756   0.474  0.1275 -0.1578  0.2062
 5896PP      PP16000   6.559   8.056   8.972 -0.2072  0.0688 -0.2353
 5897PP      PP16001   2.968   2.632   9.811  0.0269 -0.0530  0.2771
 5898PP      PP16002   7.289   9.816  10.460 -0.2116 -0.2602 -0.0424
 5899PP      PP16003  13.941  12.714  11.832 -0.3246  0.1096 -0.0157
 5900PP      PP16004  14.544  15.112   2.322  0.0473 -0.0504  0.2080
 5901PP      PP16005  11.002   7.709  10.939 -0.0825 -0.1846  0.2990
 5902PP      PP16006  10.161   5.588   0.186 -0.2526 -0.1145  0.2691
 5903PP      PP16007   0.002   1.943   3.430 -0.1608 -0.1349 -0.0385
 5904PP      PP16008   5.150   5.628   0.405 -0.0332  0.0004  0.2125
 5905PP      PP16009  10.411  14.863  12.571 -0.0866  0.1321  0.0608
 5906PP      PP16010  10.960   1.053   2.626 -0.1181 -0.0533 -0.1756
 5907PP      PP16011   8.050   2.325   9.789 -0.0639  0.2986  0.2501
 5908PP      PP16012   5.086  15.236   0.260  0.4788  0.0892 -0.1282
 5909PP      PP16013   3.237  10.337   9.882 -0.2095  0.4170 -0.1951
 5910PP      PP16014   9.577  12.009  11.068  0.2868 -0.2691  0.1934
 5911PP      PP16015   0.892   9.142  12.989  0.2217  0.0360  0.1151
 5912PP      PP16016   9.511   2.486   4.781 -0.1246 -0.0970  0.0040
 5913PP      PP16017   4.361  13.217  11.775  0.1957 -0.0915  0.1366
 5914PP      PP16018   1.747   2.252  13.380  0.0366 -0.1118  0.0526
 5915PP      PP16019   7.903   5.381   9.991 -0.0111 -0.1678  0.0507
 5916PP      PP16020   3.106   7.086  11.348 -0.1367 -0.0154 -0.0402
 5917PP      PP16021  14.745   8.548   0.983 -0.2826  0.0848  0.0841
 5918PP      PP16022  15.633   5.679  12.284  0.1024  0.1319 -0.1252
 5919PP      PP16023   8.140  15.832  13.433  0.2381 -0.1591  0.0701
 5920PP      PP16024   4.714   5.344  11.490  0.1229  0.0090 -0.2692
 5921PP      PP16025   0.437   8.450   9.071  0.0549  0.0100 -0.0976
 5922PP      PP16026  15.022  10.730   1.864 -0.0161  0.2789 -0.1411
 5923PP      PP16027   8.490   0.668   0.980  0.0869  0.0247 -0.0765
 5924PP      PP16028  14.672   3.862   3.176 -0.2189 -0.1561 -0.0837
 5925PP      PP16029   6.269   6.351   0.990  0.0595  0.1319  0.3484
 5926PP      PP16030   5.878   3.028   3.348  0.2973 -0.1749  0.2516
 5927PP      PP16031   0.086   0.211   5.282 -0.1160 -0.0789  0.1418
 5928PP      PP16032  14.516   5.287  13.102 -0.1355  0.3061 -0.1973
 5929PP      PP16033  13.105   5.710  13.186  0.2657  0.2023  0.1018
 5930PP      PP16034  10.413  14.303  10.783 -0.5259  0.0938  0.0526
 5931PP      PP16035   7.968  10.874  10.920 -0.3623  0.2683  0.4276
 5932PP      PP16036   5.920  13.454   2.471  0.1142  0.1338  0.0023
 5933PP      PP16037   4.138   5.189   0.005 -0.1793  0.0178  0.0539
 5934PP      PP16038   9.668  15.476   0.286  0.2440  0.0353 -0.0424
 5935PP      PP16039  15.415   4.924  11.640 -0.2392 -0.2460  0.1141
 5936PP      PP16040   4.832   8.988   2.536  0.0408  0.2823 -0.1084
 5937PP      PP16041   4.162  13.086  12.282  0.0720 -0.1993  0.2843
 5938PP      PP16042   0.480   2.936   3.003  0.1594 -0.4352  0.0886
 5939PP      PP16043  13.579   4.022  12.758 -0.1866 -0.1513 -0.2411
 5940PP      PP16044  14.545   4.002   1.075 -0.0695 -0.0166  0.2695
 5941PP      PP16045   8.667  12.577  12.779  0.0361  0.0205  0.2174
 5942PP      PP16046  11.276  15.828   2.688  0.0740 -0.1373  0.1743
 5943PP      PP16047  15.631  14.224   0.853  0.2571  0.1092  0.0935
 5944PP      PP16048   5.538   6.924   9.068 -0.3057 -0.2744 -0.2414
 5945PP      PP16049   1.698   8.258   9.492  0.0225 -0.1137  0.1557
 5946PP      PP16050   0.839   2.454  11.542  0.0791  0.1190  0.0533
 5947PP      PP16051   0.308   8.195   0.564 -0.0124  0.2187  0.1374
 5948PP      PP16052   6.570   8.730   1.500  0.1115 -0.0919 -0.0356
 5949PP      PP16053   4.719  10.060   9.224 -0.0488  0.2629 -0.2258
 5950PP      PP16054   9.564   2.784   2.754 -0.1918  0.0379  0.0293
 5951PP      PP16055  13.352   6.046   1.539  0.0280  0.0431  0.2783
 5952PP      PP16056   9.869  13.126   2.101  0.2966 -0.3608 -0.0342
 5953PP      PP16057   5.403  14.323  11.213 -0.1600 -0.0080 -0.0343
 5954PP      PP16058  13.769   6.479   7.470 -0.0973 -0.0920  0.0136
 5955PP      PP16059   7.435   6.313  11.666  0.1245 -0.0786  0.2683
 5956PP      PP16060   6.075  10.378  11.521 -0.0250 -0.0943  0.0176
 5957PP      PP16061   7.828   0.130   4.224 -0.3714  0.0599  0.0001
 5958PP      PP16062   7.876   9.341   2.850 -0.0662 -0.1048 -0.0914
 5959PP      PP16063   7.974   2.356   4.528 -0.1511  0.3090  0.2024
 5960PP      PP16064   9.553   2.818  12.613  0.1515 -0.0616  0.0106
 5961PP      PP16065  14.235  12.894  11.452 -0.0560 -0.0657  0.0013
 5962PP      PP16066   3.547   7.456   9.245 -0.2674  0.1730  0.0744
 5963PP      PP16067  14.678  15.331  10.761 -0.0499 -0.0332  0.2889
 5964PP      PP16068   6.126   3.920  10.122 -0.1702 -0.1072 -0.0563
 5965PP      PP16069   2.291   2.131  12.153 -0.6223 -0.0710  0.0360
 5966PP      PP16070  15.732  15.835  13.210 -0.2427 -0.0388  0.1551
 5967PP      PP16071   7.665   1.700  11.629 -0.1992  0.4176  0.0432
 5968PP      PP16072  14.380  14.817   3.471  0.4274  0.2110  0.1144
 5969PP      PP16073   5.373  11.180  11.166 -0.2553 -0.0820  0.1434
 5970PP      PP16074   0.312   9.026   2.109  0.0586 -0.2461 -0.0342
 5971PP      PP16075  12.450   1.764   9.876 -0.0337  0.2521  0.1673
 5972PP      PP16076   9.447   3.775   2.817  0.1689  0.0170 -0.0046
 5973PP      PP16077  11.938   6.017   9.388 -0.4521  0.0674 -0.0144
 5974PP      PP16078   5.966   4.380   3.422  0.0537  0.0320  0.5212
 5975PP      PP16079  11.250  12.540   9.679  0.0528  0.0298  0.0828
 5976PP      PP16080  12.486   8.660   8.955 -0.0455 -0.1386 -0.0279
 5977PP      PP16081   2.010  10.924  10.804 -0.0597 -0.0158  0.1459
 5978PP      PP16082   9.547  15.166   1.139 -0.2046  0.2757 -0.1186
 5979PP      PP16083   1.645   2.885   1.921 -0.0039  0.0228 -0.2085
 5980PP      PP16084   4.822  15.664   4.022  0.1764 -0.0933  0.2124
 5981PP      PP16085   1.023  15.513   9.393 -0.3103  0.1770  0.2908
 5982PP      PP16086  14.535   6.779  10.662 -0.0628 -0.3322  0.0042
 5983PP      PP16087   2.205   2.805   3.524 -0.0603 -0.0093 -0.3068
 5984PP      PP16088  15.057   1.174   8.898  0.1058  0.0039 -0.0510
 5985PP      PP16089   1.889   1.103   2.501 -0.0335 -0.1254 -0.2853
 5986PP      PP16090  11.073  10.567  10.813 -0.0229  0.2788  0.0529
 5987PP      PP16091   3.494   4.945   1.992 -0.1722 -0.1702 -0.2258
 5988PP      PP16092   8.379   0.527   9.923  0.0730  0.2585  0.0443
 5989PP      PP16093  15.628   5.811   3.933 -0.1350 -0.1455 -0.1038
 5990PP      PP16094   8.007   6.076  10.061  0.0821 -0.0169 -0.2430
 5991PP      PP16095  14.077   9.673   1.300  0.0861  0.0341  0.1909
 5992PP      PP16096   0.921   8.620   9.342  0.1395 -0.0190  0.2974
 5993PP      PP16097   1.768  11.329  12.352  0.3957 -0.2797 -0.0467
 5994PP      PP16098  11.440  12.213   3.652  0.2769  0.2924 -0.2160
 5995PP      PP16099   2.593   1.044   0.885 -0.2265  0.0740 -0.0027
 5996PP      PP16100  15.261   3.928  11.926  0.1514  0.4170 -0.0378
 5997PP      PP16101  13.958  12.477  10.427 -0.1813 -0.0428 -0.0870
 5998PP      PP16102   1.620   2.728  12.411 -0.2514 -0.0084  0.0252
 5999PP      PP16103   2.126  11.117   3.315 -0.0959 -0.0070  0.0951
 6000PP      PP16104   0.965   7.781   1.168 -0.0311  0.0190 -0.1025
 6001PP      PP16105   6.466   8.116   9.484  0.2912 -0.1040 -0.1050
 6002PP      PP16106   6.692   8.174   1.007  0.0897  0.3046  0.0447
 6003PP      PP16107   0.517   3.099  11.712 -0.1011  0.1184  0.0328
 6004PP      PP16108   6.009   3.094  11.875 -0.0225 -0.1098 -0.1731
 6005PP      PP16109   8.030  12.370   3.394 -0.0724  0.1257 -0.4818
 6006PP      PP16110  11.426   5.199   3.895 -0.0436  0.1642 -0.1893
 6007PP      PP16111   0.097   4.059   1.634 -0.0027 -0.0489 -0.1865
 6008PP      PP16112  14.202  12.341   2.409 -0.3293  0.2657  0.2879
 6009PP      PP16113  15.849   6.378  11.142  0.0491 -0.0648  0.1073
 6010PP      PP16114   6.966  15.668  11.516 -0.0297  0.0396 -0.1943
 6011PP      PP16115  15.214   1.907  11.740 -0.0352 -0.0058 -0.1946
 6012PP      PP16116   9.948   3.932  12.468 -0.1136  0.0096 -0.1140
 6013PP      PP16117  13.610  14.825   9.585 -0.1581 -0.2476  0.0227
 6014PP      PP16118   0.673   5.666  11.556 -0.0330  0.0546  0.1639
 6015PP      PP16119  14.100   3.040   1.990  0.0661  0.0159 -0.2766
 6016PP      PP16120  10.188   8.820   3.633  0.4549 -0.3167  0.1876
 6017PP      PP16121  11.924   7.402  10.319 -0.0895  0.1649 -0.0579
 6018PP      PP16122  12.094  10.402  13.437 -0.1250  0.0170 -0.0890
 6019PP      PP16123  11.461  12.590  11.307  0.0163  0.1014  0.2983
 6020PP      PP16124  13.835  15.496   9.610  0.1483  0.1104 -0.0175
 6021PP      PP16125   3.182   6.424   9.770 -0.0305 -0.0687  0.1445
 6022PP      PP16126   8.768   0.990   1.244 -0.2317 -0.1345  0.0385
 6023PP      PP16127   4.095   7.630  11.457  0.3192 -0.0908 -0.0233
 6024PP      PP16128  12.702   4.265  12.111 -0.1352 -0.1367  0.2624
 6025PP      PP16129   5.008   6.701  13.015  0.3399  0.3474 -0.1217
 6026PP      PP16130  10.455   7.893   1.596 -0.0878  0.0695  0.1037
 6027PP      PP16131   9.945  13.352   1.101  0.3438  0.1226  0.0487
 6028PP      PP16132   9.079   2.733  10.432  0.1630 -0.1922  0.1446
 6029PP      PP16133   6.750   1.803   1.563  0.0793 -0.0821 -0.1253
 6030PP      PP16134  12.113   1.130  10.872 -0.0465 -0.3446 -0.2873
 6031PP      PP16135   3.374  10.625   3.869 -0.3096 -0.1514  0.1631
 6032PP      PP16136  14.372   0.499   2.622 -0.4181  0.3642  0.2253
 6033PP      PP16137   4.793   4.659   3.832  0.1123 -0.2288  0.2987
 6034PP      PP16138  11.987  11.071   9.756 -0.0079  0.0591 -0.2242
 6035PP      PP16139   6.945   8.247   9.462 -0.0515 -0.1864  0.2872
 6036PP      PP16140  12.626   4.095  12.661  0.2035  0.1478  0.2592
 6037PP      PP16141  11.057   7.704   8.482 -0.1453  0.1581  0.0886
 6038PP      PP16142   2.097   5.586   9.541 -0.3000 -0.0743 -0.0503
 6039PP      PP16143   3.531  12.195   0.897 -0.0146  0.0839  0.1640
 6040PP      PP16144  14.600   1.881  10.095  0.1045 -0.0075  0.1761
 6041PP      PP16145   6.389  12.433   1.637  0.2420 -0.2288  0.0476
 6042PP      PP16146  12.707   0.408   0.326  0.0856 -0.0721  0.2065
 6043PP      PP16147   7.102   3.456  10.312  0.0256 -0.0564  0.2772
 6044PP      PP16148   2.712   2.662  11.933  0.3383  0.4784  0.1299
 6045PP      PP16149   0.909   7.170   3.723  0.3288 -0.5749 -0.0820
 6046PP      PP16150  10.068   8.959  12.139  0.2441  0.3135 -0.2044
 6047PP      PP16151   0.546   9.834   8.728 -0.0110  0.3137 -0.4308
 6048PP      PP16152   5.785   2.695  11.339 -0.2483 -0.1311  0.1997
 6049PP      PP16153   1.690   5.730   2.719 -0.0635 -0.0516  0.2127
 6050PP      PP16154   0.204  11.770   9.654 -0.2045 -0.0614  0.0673
 6051PP      PP16155  12.350   5.007   2.798 -0.3233  0.2686 -0.4601
 6052PP      PP16156  10.373   9.898  12.989 -0.2065  0.0396 -0.0556
 6053PP      PP16157   7.532   8.523  12.699 -0.1087 -0.3161  0.0094
 6054PP      PP16158  13.272   7.843  11.424 -0.0070 -0.1795 -0.2045
 6055PP      PP16159   0.979  11.348   1.925 -0.1963 -0.2808  0.3006
 6056PP      PP16160   2.446   0.158   0.586  0.1923 -0.0710 -0.0685
 6057PP      PP16161   1.924   5.845   2.055 -0.1420 -0.0591 -0.0934
 6058PP      PP16162   9.116   5.057  11.725  0.3984  0.1573 -0.1953
 6059PP      PP16163   4.613  12.125   9.324 -0.3396  0.3364 -0.3315
 6060PP      PP16164   8.898   6.195   0.054  0.1768  0.0137  0.1017
 6061PP      PP16165   0.712   1.983   2.765  0.0055 -0.1875  0.0537
 6062PP      PP16166   2.393   7.596  12.523  0.0839  0.3138  0.0324
 6063PP      PP16167  11.186  13.861   9.822 -0.0140  0.4147  0.2654
 6064PP      PP16168   3.263  13.608   9.214  0.0117 -0.0909 -0.0973
 6065PP      PP16169   8.421  11.408   0.225  0.1512 -0.0762  0.2211
 6066PP      PP16170   7.488  15.394   9.106 -0.0328  0.0391  0.0778
 6067PP      PP16171   0.248  12.736   3.096  0.2950  0.0977  0.0497
 6068PP      PP16172   9.518  13.377   0.093 -0.2221  0.1535 -0.0529
 6069PP      PP16173  13.556  12.315   9.799 -0.0939 -0.0366  0.0651
 6070PP      PP16174  14.640   6.074  10.895  0.1767 -0.2307 -0.0158
 6071PP      PP16175   6.855   5.318  12.903 -0.1787 -0.1380  0.1923
 6072PP      PP16176   2.917   8.874  10.318 -0.1037  0.0018  0.0721
 6073PP      PP16177   6.721  14.293   0.891 -0.0119  0.0209  0.0645
 6074PP      PP16178   2.961   4.621   0.872 -0.0547 -0.0768  0.0722
 6075PP      PP16179   1.235   2.885   1.527 -0.0000  0.0568 -0.2822
 6076PP      PP16180   5.344  14.777  10.596  0.0514  0.0699 -0.0256
 6077PP      PP16181   1.083   0.182  11.393  0.0008  0.1308  0.4850
 6078PP      PP16182   4.494  14.361  11.259 -0.0249  0.3381 -0.0079
 6079PP      PP16183   0.286   5.753  12.435  0.2045  0.0641  0.1251
 6080PP      PP16184   0.837  10.729   2.518  0.1688 -0.1397  0.4568
 6081PP      PP16185  14.616   4.789   8.915 -0.1409  0.0014 -0.3028
 6082PP      PP16186   4.293  14.426   3.669 -0.1599  0.2374 -0.2583
 6083PP      PP16187   4.501   3.998   1.833 -0.0115 -0.0322  0.3426
 6084PP      PP16188   9.150   8.498   8.877 -0.1522 -0.1632 -0.1301
 6085PP      PP16189  11.365   8.928  11.117  0.2143 -0.2037  0.3380
 6086PP      PP16190   4.472  12.155   1.655  0.2970  0.1818  0.0003
 6087PP      PP16191   4.699  11.446  10.996 -0.0240 -0.2838 -0.0280
 6088PP      PP16192  11.877   0.463   3.321  0.1235  0.1174  0.0157
 6089PP      PP16193   6.033   7.718  10.859  0.3073  0.0123  0.2240
 6090PP      PP16194  11.830   3.251   3.820 -0.0145  0.0431 -0.0078
 6091PP      PP16195   8.207   2.641   1.897  0.1449  0.0331  0.0686
 6092PP      PP16196   2.119   5.837   3.022 -0.0148 -0.0097  0.0356
 6093PP      PP16197  13.809  15.317   4.733 -0.0182  0.2320 -0.0128
 6094PP      PP16198  14.840   6.458   2.208  0.2292  0.4969  0.2324
 6095PP      PP16199  10.905  10.807  11.242 -0.2978 -0.2326 -0.1669
 6096PP      PP16200   1.911  12.742  10.444 -0.5875 -0.0027  0.5160
 6097PP      PP16201   2.740   2.085  11.954  0.0257 -0.2322  0.0907
 6098PP      PP16202  13.923  14.272   3.852 -0.1261 -0.0876 -0.0482
 6099PP      PP16203  13.905  11.650  10.679  0.2361  0.1502  0.1779
 6100PP      PP16204   2.463  14.819   4.446 -0.1807 -0.1253  0.3410
 6101PP      PP16205  14.321   2.733  13.074 -0.0133 -0.3013 -0.1082
 6102PP      PP16206  13.113   1.016  13.285  0.1758 -0.0301 -0.2416
 6103PP      PP16207   9.234  12.735  12.601  0.0053  0.1153  0.1877
 6104PP      PP16208   0.100   6.115  13.207 -0.1292 -0.1546  0.1843
 6105PP      PP16209   7.298   1.808  11.973  0.1009  0.1069 -0.0067
 6106PP      PP16210  10.825   0.661  13.277 -0.3624  0.2176  0.0342
 6107PP      PP16211   0.105   8.232   2.672 -0.0192  0.0175 -0.2397
 6108PP      PP16212   0.364   0.341   0.284 -0.1567  0.2096 -0.1041
 6109PP      PP16213   5.891   8.062  11.262  0.0442  0.2186  0.1467
 6110PP      PP16214   7.819   8.607   8.754  0.0434 -0.0613  0.1003
 6111PP      PP16215   9.630   0.699   3.716  0.2002 -0.1301  0.2024
 6112PP      PP16216  15.263   2.770   0.970  0.0926  0.0318 -0.1466
 6113PP      PP16217   8.552   2.487   9.636 -0.1652 -0.3361  0.0950
 6114PP      PP16218   7.555   6.795  12.992  0.0570 -0.3856 -0.4715
 6115PP      PP16219   9.604   4.911  13.057  0.0372  0.1602  0.3198
 6116PP      PP16220  14.809  11.230  13.464 -0.2586 -0.0829  0.5337
 6117PP      PP16221   8.625   0.901   2.726  0.1384  0.0648 -0.1183
 6118PP      PP16222   5.037  13.036  12.652  0.1249  0.2353 -0.3828
 6119PP      PP16223   3.971   6.632  11.296  0.1105 -0.0940 -0.2072
 6120PP      PP16224  11.708   6.552   0.045  0.0579 -0.1909  0.3390
 6121PP      PP16225  11.655  12.847   0.177  0.2450  0.0293  0.1564
 6122PP      PP16226   2.999  14.962   0.738 -0.2157 -0.3015 -0.4807
 6123PP      PP16227   7.310  10.910   9.639 -0.2645  0.3323  0.1530
 6124PP      PP16228  14.332  10.697   0.373 -0.4406  0.1634 -0.1538
 6125PP      PP16229   3.006   8.898   2.565  0.1463  0.0386 -0.0652
 6126PP      PP16230   6.939  13.593  13.144  0.1700  0.0820  0.0527
 6127PP      PP16231   9.146   6.409   9.355 -0.1485  0.2757 -0.2542
 6128PP      PP16232  15.230   9.089  11.614 -0.1206 -0.0832  0.3105
 6129PP      PP16233   2.537   6.360  11.176  0.1241 -0.1581  0.0213
 6130PP      PP16234   3.248   8.504  11.108  0.1349 -0.0657 -0.0422
 6131PP      PP16235   4.928   0.869  11.464 -0.0300 -0.2508 -0.0922
 6132PP      PP16236   1.227   7.704  11.562  0.1754  0.0209  0.2953
 6133PP      PP16237   8.602   4.263   2.972  0.0961 -0.1592  0.1380
 6134PP      PP16238  10.723   1.804  10.345  0.2529  0.0672 -0.1461
 6135PP      PP16239  15.420  11.130   3.349 -0.4065  0.1230 -0.0617
 6136PP      PP16240   8.926   3.099   1.187  0.3759  0.1687  0.1586
 6137PP      PP16241   5.092   9.397   3.634 -0.2811 -0.1322 -0.3402
 6138PP      PP16242   7.559  10.754  13.417 -0.1381  0.4157  0.0794
 6139PP      PP16243  11.218  10.686  11.712  0.0682  0.3282 -0.1479
 6140PP      PP16244   9.917   5.064  13.446  0.2053 -0.0074 -0.0570
 6141PP      PP16245   8.680   2.186  12.711  0.0365 -0.1523 -0.0837
 6142PP      PP16246   9.087  13.663  10.484 -0.1129  0.1980  0.2766
 6143PP      PP16247   1.058   1.568   3.444 -0.3203  0.0928  0.0410
 6144PP      PP16248   0.648   0.702   2.147 -0.1181  0.2059  0.1019
 6145PP      PP16249   8.524  15.165   1.377 -0.1658 -0.0903 -0.1541
 6146PP      PP16250   6.620   2.446   2.163 -0.0641 -0.1579  0.2089
 6147PP      PP16251   2.518  14.548   3.630  0.1810 -0.1598  0.1442
 6148PP      PP16252   2.915   7.696   9.960 -0.1283  0.3307  0.2845
 6149PP      PP16253  15.776  13.839  11.508 -0.0620 -0.1290  0.0123
 6150PP      PP16254  10.453  10.039   9.574 -0.0610 -0.0036 -0.0216
 6151PP      PP16255  11.788  11.041   9.295 -0.1472 -0.0086 -0.2230
 6152PP      PP16256  10.113  13.809  12.866  0.2344 -0.0492 -0.0631
 6153PP      PP16257  12.559   1.967   4.688 -0.0608 -0.0348  0.0159
 6154PP      PP16258   9.094  11.313   2.795 -0.1030 -0.1643 -0.0016
 6155PP      PP16259   1.011  10.181   2.708 -0.0719 -0.1773  0.2726
 6156PP      PP16260  13.684   7.155   9.286  0.1774  0.2718  0.1988
 6157PP      PP16261   7.918   0.794   0.969 -0.2808  0.0352 -0.3185
 6158PP      PP16262   4.414   1.727  10.415 -0.5106  0.0273 -0.1499
 6159PP      PP16263   7.317  14.955   9.195  0.3784  0.4527  0.2487
 6160PP      PP16264   7.549  11.590  12.536  0.0585 -0.1163  0.0433
 6161PP      PP16265  10.401   4.983   1.507 -0.1420 -0.1151 -0.0705
 6162PP      PP16266   8.727   6.433   0.548 -0.0729 -0.2779  0.2172
 6163PP      PP16267  11.883  10.926   2.709 -0.2830  0.1457  0.2373
 6164PP      PP16268   1.697  12.435   2.293 -0.0675 -0.1977 -0.0971
 6165PP      PP16269   3.074  11.729   9.319  0.0200 -0.0467 -0.1852
 6166PP      PP16270   9.248  14.120  11.169  0.1159 -0.2457  0.1356
 6167PP      PP16271   8.182   6.258   3.180  0.0548 -0.0920 -0.1522
 6168PP      PP16272   6.995  15.803   4.676  0.0800  0.2498  0.2607
 6169PP      PP16273   0.858  14.145  12.474 -0.0141 -0.1638  0.1397
 6170PP      PP16274   9.527  12.246   8.369 -0.0826 -0.1954 -0.4091
 6171PP      PP16275   3.363   9.488   1.579 -0.2035  0.0804 -0.0352
 6172PP      PP16276   0.205  14.620  13.512  0.2112 -0.1238 -0.0632
 6173PP      PP16277   2.820  13.890   2.701  0.1051 -0.1247  0.1717
 6174PP      PP16278   0.128   8.360  11.220 -0.2288  0.1677  0.0954
 6175PP      PP16279   7.598   1.173   3.840 -0.3093 -0.0754  0.2529
 6176PP      PP16280   4.054   7.010   1.321 -0.2167  0.0982 -0.0553
 6177PP      PP16281  14.882   8.150  10.649 -0.1614 -0.4108 -0.1341
 6178PP      PP16282   1.365  13.673   4.230 -0.0935  0.1978  0.1655
 6179PP      PP16283  10.834  12.475  11.491  0.0619  0.2527  0.1352
 6180PP      PP16284   2.614   1.248   5.191  0.0044  0.1637  0.0421
 6181PP      PP16285  11.099  11.606   9.221 -0.2376 -0.2618  0.0916
 6182PP      PP16286  11.497   2.347   3.971 -0.2254  0.1250  0.1644
 6183PP      PP16287  12.436   5.529   0.980  0.3304 -0.0080 -0.0583
 6184PP      PP16288   4.540   0.642   1.426 -0.0216 -0.0034 -0.2427
 6185PP      PP16289   1.816   6.497  10.201  0.2815 -0.1029  0.0701
 6186PP      PP16290  15.677   7.460   1.995  0.2043  0.1563 -0.0841
 6187PP      PP16291  13.059   0.275   3.606  0.0748  0.0626  0.0300
 6188PP      PP16292   8.366   0.499   0.337 -0.1169 -0.1307 -0.1229
 6189PP      PP16293  11.404   9.704   4.975 -0.1113  0.5074  0.0229
 6190PP      PP16294   9.569   7.846   0.331 -0.1058 -0.3977 -0.1969
 6191PP      PP16295   0.405   5.617  10.029 -0.1448  0.1457 -0.3715
 6192PP      PP16296   9.033   8.875  10.287  0.1784 -0.0527 -0.0139
 6193PP      PP16297  14.354   8.424   9.427  0.0063 -0.1728  0.2474
 6194PP      PP16298   7.711  13.104  10.974 -0.1290  0.2167  0.3022
 6195PP      PP16299  12.732  11.296   0.577 -0.1080  0.0097 -0.1360
 6196PP      PP16300  12.661   3.443   0.192  0.1534  0.0372  0.3395
 6197PP      PP16301   0.593  10.411   2.832  0.2969  0.0789 -0.1124
 6198PP      PP16302  10.149  12.114   2.642  0.1487  0.1256 -0.0713
 6199PP      PP16303   8.563  14.033   2.218 -0.0912 -0.0521  0.0872
 6200PP      PP16304  12.918   6.291  13.220 -0.0285 -0.0329 -0.0756
 6201PP      PP16305  14.496   8.395  10.782  0.0971 -0.1178  0.0892
 6202PP      PP16306   2.672   7.564   3.740 -0.0404 -0.0820  0.0432
 6203PP      PP16307   9.850   9.662  11.167 -0.1402  0.1036  0.0124
 6204PP      PP16308  12.487   6.515  12.392  0.3104 -0.2926  0.0881
 6205PP      PP16309  13.566   7.364   0.363  0.3954 -0.0555 -0.1445
 6206PP      PP16310  14.251   7.619   8.859  0.1256  0.1461 -0.0206
 6207PP      PP16311   7.849  10.078  12.949  0.4281  0.0557 -0.1693
 6208PP      PP16312   4.273   0.907  12.023  0.0743 -0.0366  0.1555
 6209PP      PP16313   0.605  11.814  11.029  0.0654  0.0687  0.0931
 6210PP      PP16314   7.227  12.894  11.180 -0.1143 -0.0250  0.0829
 6211PP      PP16315   1.674   5.678   9.948  0.0071  0.2192  0.3559
 6212PP      PP16316   6.313   4.798   4.283 -0.2859  0.0010  0.2403
 6213PP      PP16317   1.946   6.974  13.004 -0.0899 -0.4670  0.2844
 6214PP      PP16318   8.140   4.823   0.586 -0.2725  0.1939 -0.2796
 6215PP      PP16319   2.811  14.537   1.651 -0.1819  0.0971 -0.0365
 6216PP      PP16320  14.717   4.607   2.745 -0.0391 -0.1883  0.1639
 6217PP      PP16321  10.921   7.072  10.049  0.1209  0.1928 -0.1454
 6218PP      PP16322   2.932   3.874   2.466 -0.0559 -0.0598 -0.2990
 6219PP      PP16323   6.993  13.009   0.780  0.2678  0.0068 -0.0822
 6220PP      PP16324   2.168   0.919   4.469  0.0249 -0.0949  0.2211
 6221PP      PP16325   8.871  11.770  11.286 -0.0618  0.2728  0.0583
 6222PP      PP16326   5.875  15.466   3.872  0.0317  0.3232 -0.3794
 6223PP      PP16327  14.968   8.691  10.673  0.0244  0.0359 -0.1580
 6224PP      PP16328   2.317   6.140   2.632 -0.4744 -0.1792 -0.0171
 6225PP      PP16329   7.950   0.234  10.124  0.3338  0.0013 -0.1386
 6226PP      PP16330  12.489   8.225   9.352 -0.1355 -0.1960 -0.0363
 6227PP      PP16331  15.577   7.105   0.775 -0.0900  0.0175 -0.1297
 6228PP      PP16332   2.003  10.014   9.760  0.0585 -0.0043 -0.3815
 6229PP      PP16333  14.840  15.852   1.856  0.2118  0.1439  0.3120
 6230PP      PP16334   3.179   4.994  12.729 -0.1061 -0.1779  0.2106
 6231PP      PP16335   9.267   5.637   1.629 -0.0702 -0.1276  0.0212
 6232PP      PP16336   2.445   8.317   1.752  0.0509 -0.0218 -0.2064
 6233PP      PP16337  14.561  10.402  13.441  0.3584 -0.3545 -0.2235
 6234PP      PP16338   5.579   3.755  12.642  0.2821  0.1520  0.0708
 6235PP      PP16339   9.527  10.774   8.727 -0.2382  0.2758 -0.0028
 6236PP      PP16340  10.022   9.141  13.438  0.2247 -0.0914  0.0589
 6237PP      PP16341   3.861   2.438   9.558 -0.3770  0.2122 -0.2537
 6238PP      PP16342   5.147   4.620  11.118 -0.0568 -0.2800  0.2970
 6239PP      PP16343  11.192   4.031   9.847 -0.0114  0.2048 -0.1862
 6240PP      PP16344   1.241   4.294  11.401 -0.0866 -0.3258 -0.1366
 6241PP      PP16345  14.863   4.881  11.425  0.0243 -0.4854  0.0726
 6242PP      PP16346  15.172  10.171   3.591 -0.0515 -0.0240  0.4339
 6243PP      PP16347  11.879  10.982   0.733  0.1316 -0.3279 -0.1703
 6244PP      PP16348   0.229   9.525   2.837  0.0649  0.0354  0.1117
 6245PP      PP16349   1.092   6.276   8.966 -0.0297 -0.4644  0.1689
 6246PP      PP16350   3.410  12.819   1.485 -0.0759 -0.0638  0.0281
 6247PP      PP16351  14.626  14.911  10.391  0.0615  0.2725  0.1341
 6248PP      PP16352   3.411  13.775  13.007 -0.0904  0.0061 -0.1850
 6249PP      PP16353   7.358  10.290  10.415  0.0829 -0.0530 -0.0891
 6250PP      PP16354   8.042   3.559   1.553 -0.3121  0.0451  0.2711
 6251PP      PP16355  15.186   6.716  12.680 -0.0399 -0.0020 -0.2084
 6252PP      PP16356  11.742  13.097  12.238 -0.2002  0.0366  0.2825
 6253PP      PP16357   4.553   8.456  13.486 -0.0331  0.0190  0.1007
 6254PP      PP16358   8.509   6.849   2.176  0.3420  0.1670  0.0962
 6255PP      PP16359  12.891   9.457   1.726 -0.2921  0.0828 -0.0592
 6256PP      PP16360  14.100   0.025   9.681 -0.0862  0.2547  0.0320
 6257PP      PP16361   9.661  10.787   9.232  0.1573  0.2253 -0.0129
 6258PP      PP16362  14.937  12.914   3.322 -0.1444 -0.1777  0.0029
 6259PP      PP16363   0.906   9.282   1.194 -0.0612  0.1405  0.1089
 6260PP      PP16364   3.208  11.405   1.956  0.3655  0.0056 -0.3646
 6261PP      PP16365   9.617   0.495   2.843  0.3965 -0.2109  0.1676
 6262PP      PP16366   7.910   2.591  11.313  0.2099  0.1087  0.0211
 6263PP      PP16367   6.446  14.976   0.172  0.1473 -0.2899 -0.2129
 6264PP      PP16368  11.342   6.575   0.447  0.2065  0.1065  0.1904
 6265PP      PP16369  10.918   0.370   5.136 -0.1121  0.1798  0.1165
 6266PP      PP16370   1.649   5.788   3.474  0.0604 -0.4644 -0.0474
 6267PP      PP16371   3.809   6.467  10.722  0.3799 -0.1771  0.2571
 6268PP      PP16372  10.577   2.240  11.635  0.0315  0.0360  0.0087
 6269PP      PP16373   1.864  15.383   4.110 -0.4073 -0.4888  0.1269
 6270PP      PP16374   3.579  14.685   2.348 -0.0059 -0.0516 -0.2257
 6271PP      PP16375   1.310   3.790   1.067  0.3291  0.5065 -0.1210
 6272PP      PP16376   5.707   9.898   2.524  0.2928  0.0203  0.3348
 6273PP      PP16377  13.885   4.865  10.255  0.2683  0.2649  0.0610
 6274PP      PP16378   7.805   7.394  10.824  0.1032  0.0215 -0.0579
 6275PP      PP16379   1.773   7.286   9.260  0.0577 -0.0592 -0.1255
 6276PP      PP16380  10.453   6.544   9.127  0.0135 -0.1185 -0.1205
 6277PP      PP16381   0.541  13.621  10.901  0.1265  0.1231 -0.1244
 6278PP      PP16382   2.535   2.932   9.208  0.2077 -0.1085  0.1563
 6279PP      PP16383   3.905   7.623   4.451  0.0027  0.0337 -0.0754
 6280PP      PP16384   8.459  15.620  13.168 -0.1028 -0.0311  0.2562
 6281PP      PP16385   8.498   3.523  12.554 -0.3804  0.0221 -0.3061
 6282PP      PP16386   9.658   0.067   0.085  0.2937 -0.2750  0.1554
 6283PP      PP16387   4.713  11.122   4.659 -0.2780 -0.2117 -0.4597
 6284PP      PP16388  15.203   2.022   2.918 -0.0572 -0.2627  0.0965
 6285PP      PP16389   7.115  11.785  12.277  0.0286  0.1009 -0.0672
 6286PP      PP16390   2.786   1.048  10.887 -0.4013 -0.2061 -0.0093
 6287PP      PP16391  15.166   9.721   3.089  0.2292 -0.0947 -0.0322
 6288PP      PP16392   8.373  14.041  11.529  0.1415  0.0742  0.1816
 6289PP      PP16393   2.310  15.197  12.115  0.1845  0.1910  0.2554
 6290PP      PP16394   1.729  13.485  12.285 -0.0752  0.0921 -0.1014
 6291PP      PP16395   0.839   5.680   1.508 -0.2760  0.0450 -0.0197
 6292PP      PP16396   0.871  14.255   2.128 -0.1195 -0.0632  0.5030
 6293PP      PP16397  11.815   9.983   0.019 -0.0064  0.2654  0.2397
 6294PP      PP16398   7.829   8.051   3.428 -0.1094 -0.2970 -0.0742
 6295PP      PP16399   2.399   2.470   2.174 -0.2855  0.2837  0.2460
 6296PP      PP16400   6.154  15.032   1.987 -0.0692 -0.1891  0.1946
 6297PP      PP16401   0.296   4.048  10.824  0.0124 -0.1668 -0.1937
 6298PP      PP16402  12.849   4.622  10.779 -0.0727 -0.3009  0.0720
 6299PP      PP16403  13.097   7.972  10.935  0.1008  0.0375 -0.0123
 6300PP      PP16404   1.739   7.403  13.150  0.0657  0.1132  0.1014
 6301PP      PP16405   3.549  11.016  11.800  0.1068 -0.2628  0.0058
 6302PP      PP16406  12.254   2.189   2.862  0.1696 -0.0258 -0.0016
 6303PP      PP16407   5.404  10.295   3.667 -0.2589  0.2339  0.0447
 6304PP      PP16408  14.881  14.256  11.169  0.0055 -0.0951 -0.0887
 6305PP      PP16409  14.626   7.879   3.606 -0.2834 -0.0735  0.1853
 6306PP      PP16410  11.273   1.625   3.053  0.1613 -0.0778 -0.2067
 6307PP      PP16411   9.137   9.381   9.425  0.0405 -0.2641 -0.0277
 6308PP      PP16412   8.148  10.844   1.959 -0.3093 -0.0217  0.2834
 6309PP      PP16413   5.030  13.747  12.231 -0.0739 -0.0318 -0.1511
 6310PP      PP16414   6.981   7.208   8.729  0.0670  0.0447 -0.2251
 6311PP      PP16415  11.039   8.881   8.528 -0.5018  0.1505 -0.3409
 6312PP      PP16416  13.761  10.110  13.189 -0.0675  0.1594 -0.1733
 6313PP      PP16417  12.105  11.228   0.179 -0.0294 -0.1764 -0.1174
 6314PP      PP16418   6.267   6.152   3.157 -0.0203  0.1516  0.2387
 6315PP      PP16419   9.829  12.549  11.864 -0.0398 -0.1875  0.0153
 6316PP      PP16420   5.426  10.503   9.765 -0.0033  0.0435 -0.3077
 6317PP      PP16421   4.765   6.937  11.525 -0.1216  0.2716  0.3441
 6318PP      PP16422   5.515  13.195   9.265  0.0338  0.5002  0.0883
 6319PP      PP16423  15.602   8.170   8.021  0.1393 -0.0463  0.1719
 6320PP      PP16424   1.899   6.607   4.283 -0.2095 -0.0685  0.4182
 6321PP      PP16425  13.393  15.160  13.242  0.0717 -0.0302  0.1756
 6322PP      PP16426   3.502   4.624  11.885 -0.0120  0.0620  0.0444
 6323PP      PP16427   1.065   4.775  10.083 -0.3046 -0.0511  0.2577
 6324PP      PP16428   0.506   7.782   1.970 -0.0471  0.0677 -0.1080
 6325PP      PP16429  12.092   5.696   9.771  0.3036  0.2023 -0.1929
 6326PP      PP16430   4.555   1.071   0.650 -0.1017 -0.2589 -0.1753
 6327PP      PP16431   6.314   3.311   9.670  0.2728 -0.0749 -0.0126
 6328PP      PP16432   4.080   8.583  10.678 -0.0968 -0.1348  0.1402
 6329PP      PP16433  10.893  13.735   2.665  0.4550  0.2364  0.2153
 6330PP      PP16434  15.174   9.651  10.788  0.0558  0.4013 -0.3785
 6331PP      PP16435   6.018  13.337   9.259 -0.1654  0.1300 -0.1726
 6332PP      PP16436  10.050   5.290   9.513 -0.0708  0.4226  0.2364
 6333PP      PP16437   7.954   7.431  12.072 -0.0046  0.0884 -0.0925
 6334PP      PP16438  13.593   0.298   2.566  0.1837  0.2618 -0.0189
 6335PP      PP16439  14.459   1.489  12.317 -0.2854  0.2590 -0.2488
 6336PP      PP16440   8.197  11.825  13.184  0.2404  0.3340 -0.4629
 6337PP      PP16441   3.457  14.006   0.033 -0.0291  0.2791 -0.2684
 6338PP      PP16442   3.480  14.758   2.849 -0.1812  0.1302 -0.2669
 6339PP      PP16443   5.345  12.882   9.716 -0.2875  0.0157  0.0398
 6340PP      PP16444   9.184   3.497  11.948  0.3312 -0.2104  0.1725
 6341PP      PP16445  13.937   3.109   0.758 -0.1475  0.0949 -0.2334
 6342PP      PP16446  12.019   1.327  13.222  0.0671  0.1780  0.0477
 6343PP      PP16447  10.825   0.543  10.956 -0.0370  0.2243 -0.3728
 6344PP      PP16448   3.253   3.418   9.523 -0.1711  0.2723 -0.0576
 6345PP      PP16449   8.989  12.021  12.079 -0.0548 -0.3607 -0.0604
 6346PP      PP16450   7.064   1.313  10.865  0.2033 -0.1596  0.1854
 6347PP      PP16451   9.189   8.685   9.663  0.1809  0.1459  0.0647
 6348PP      PP16452   8.772   4.100   1.972  0.0771  0.2138  0.0213
 6349PP      PP16453   4.704   6.456   3.053 -0.1935 -0.0666  0.2849
 6350PP      PP16454   3.938   0.108  12.698 -0.2412 -0.1626  0.0126
 6351PP      PP16455  12.470   0.203   4.637  0.1358  0.0036  0.0094
 6352PP      PP16456   2.921   6.670   9.339 -0.0159 -0.0467  0.1788
 6353PP      PP16457  12.946   5.799  10.988  0.0116 -0.0250 -0.0539
 6354PP      PP16458   2.795   1.605   4.146  0.1081 -0.0207  0.3404
 6355PP      PP16459  11.014   6.328   3.633  0.1021  0.0688 -0.2977
 6356PP      PP16460   2.670   7.655   0.247  0.0041 -0.0147  0.3057
 6357PP      PP16461   8.548   2.072  11.124  0.1257  0.2196  0.0106
 6358PP      PP16462   0.228  11.382   9.283  0.1807 -0.0086  0.4118
 6359PP      PP16463   0.206   0.076  10.790 -0.0374 -0.2958 -0.0687
 6360PP      PP16464  11.864   9.384   4.786  0.1290 -0.2476  0.0993
 6361PP      PP16465   4.159   8.417  10.213  0.0986 -0.3179 -0.0970
 6362PP      PP16466   1.916  10.037  12.331  0.2619 -0.1411 -0.2578
 6363PP      PP16467  10.588  14.068   4.310  0.3062 -0.1019  0.1619
 6364PP      PP16468   7.182   5.555   1.043 -0.4191  0.0068  0.1197
 6365PP      PP16469  12.765   5.193   1.093 -0.1276 -0.1230 -0.2039
 6366PP      PP16470  11.038   2.173   3.748 -0.0175 -0.1813  0.0451
 6367PP      PP16471  15.378  11.395  10.078  0.3952 -0.4508 -0.1263
 6368PP      PP16472  14.441  11.144   2.846  0.0703 -0.0945  0.0919
 6369PP      PP16473  14.703  11.631   4.577 -0.3800 -0.2571  0.1231
 6370PP      PP16474  11.934   3.893   4.047 -0.1317 -0.0524 -0.0251
 6371PP      PP16475  14.220   5.146   1.184 -0.2787 -0.0980  0.0472
 6372PP      PP16476  12.090   4.125  12.875 -0.1994 -0.1058 -0.2745
 6373PP      PP16477  10.827  11.640   3.942  0.0459  0.3460 -0.1409
 6374PP      PP16478  11.678   8.714   1.396 -0.0027  0.4364 -0.2113
 6375PP      PP16479  10.245   8.024  11.854 -0.1912 -0.1532 -0.0079
 6376PP      PP16480   5.641   5.607  11.524 -0.0619  0.1168  0.0676
 6377PP      PP16481   1.676   0.844  12.013 -0.0828 -0.0371  0.1460
 6378PP      PP16482  10.090  10.016  13.351 -0.1390 -0.1987  0.2011
 6379PP      PP16483   6.199   3.334   1.070  0.1360  0.1408 -0.0987
 6380PP      PP16484   3.171  13.700   3.741 -0.0088  0.0903  0.2054
 6381PP      PP16485  12.753  15.179   0.651 -0.2890  0.0272 -0.0365
 6382PP      PP16486   1.591   8.878   0.855  0.2280 -0.1820  0.3065
 6383PP      PP16487   0.565  13.450   2.618  0.1364 -0.0964  0.3670
 6384PP      PP16488   7.633  12.600   9.717 -0.1553 -0.1741  0.0916
 6385PP      PP16489  11.287   8.094   4.115  0.1911  0.1855 -0.3241
 6386PP      PP16490  12.383  12.061  13.012 -0.1322  0.5162 -0.2021
 6387PP      PP16491   6.496   7.015   9.566 -0.2661 -0.1050  0.1909
 6388PP      PP16492   8.953  15.572  10.774  0.0385  0.1227  0.1602
 6389PP      PP16493   5.330   4.748  12.621 -0.2273  0.0979  0.0650
 6390PP      PP16494  11.980   8.681  10.382  0.1843 -0.2896 -0.1706
 6391PP      PP16495   2.446   8.706  11.777 -0.1361 -0.3325  0.0420
 6392PP      PP16496  13.972   2.507   4.088 -0.0294  0.0381 -0.0518
 6393PP      PP16497   5.632   8.164   8.923  0.0439  0.0521  0.3290
 6394PP      PP16498   7.171  13.191   4.401 -0.0743 -0.1991 -0.0435
 6395PP      PP16499  14.848  14.980   3.343 -0.0847 -0.1379  0.3061
 6396PP      PP16500  14.439   4.433   9.310 -0.0243 -0.0360 -0.0945
 6397PP      PP16501  13.718   0.392  12.465 -0.0482 -0.0017 -0.2232
 6398PP      PP16502   3.959  13.640   4.390 -0.0039 -0.1298 -0.3220
 6399PP      PP16503  14.774   0.134   3.395  0.0582  0.1002 -0.1414
 6400PP      PP16504  13.316  12.892   3.781  0.2271 -0.0784  0.1887
 6401PP      PP16505   3.398  13.480   2.303 -0.2917  0.0941  0.2381
 6402PP      PP16506  10.481  11.937  13.041 -0.3256 -0.0868  0.0442
 6403PP      PP16507   1.799  12.554   3.585  0.1740  0.0894 -0.2708
 6404PP      PP16508  11.461   4.524  12.448  0.0794  0.0101 -0.1997
 6405PP      PP16509   7.872  13.921  10.618  0.1484  0.1354  0.0517
 6406PP      PP16510   9.399  10.548   0.068  0.3229 -0.0606  0.5564
 6407PP      PP16511   8.651   9.829   1.479  0.0373  0.2261  0.1736
 6408PP      PP16512   8.955  12.542  10.713  0.0702  0.0083  0.2028
 6409PP      PP16513   7.646   1.586   0.882 -0.2519 -0.0109  0.3332
 6410PP      PP16514  14.336  14.186   9.265  0.0715  0.1790 -0.0508
 6411PP      PP16515  15.691  14.866   2.899  0.0735  0.2705  0.1162
 6412PP      PP16516   1.428   1.146  10.173 -0.0948  0.1716  0.2063
 6413PP      PP16517   2.169   8.263   0.780  0.1484  0.0058 -0.0816
 6414PP      PP16518   5.970   3.431   3.887 -0.0745  0.1077 -0.0343
 6415PP      PP16519   6.629  14.654  12.261 -0.0402 -0.2183  0.3381
 6416PP      PP16520   2.316   6.388  12.359 -0.2244 -0.1738  0.3715
 6417PP      PP16521  13.380  14.392   9.892 -0.0210 -0.0449  0.2379
 6418PP      PP16522   3.130   0.973   5.158 -0.0608  0.0677 -0.1824
 6419PP      PP16523  10.411   7.785  11.300  0.1549  0.0047  0.1356
 6420PP      PP16524   7.606   0.216   1.523 -0.0951 -0.3046  0.0248
 6421PP      PP16525   6.051   0.863   0.621 -0.1399 -0.0981 -0.0599
 6422PP      PP16526  10.026   8.646  13.257 -0.0530  0.2689 -0.3531
 6423PP      PP16527   4.158   7.502  13.097  0.2202 -0.0067  0.2458
 6424PP      PP16528   0.426   6.875   8.825 -0.1623 -0.0985 -0.1102
 6425PP      PP16529   9.472  12.571  10.049 -0.3206 -0.1204 -0.1964
 6426PP      PP16530  14.725   1.354   1.511 -0.1831  0.0242 -0.0503
 6427PP      PP16531  12.237  12.593  10.184 -0.1486  0.1473  0.0339
 6428PP      PP16532   6.605  10.023   3.406  0.2135  0.1578  0.1365
 6429PP      PP16533   7.078  11.510  10.998 -0.0419  0.0884  0.0667
 6430PP      PP16534   7.956   0.918   2.573 -0.0426  0.2528  0.2384
 6431PP      PP16535   6.726   0.160   4.263 -0.0419  0.0664  0.0862
 6432PP      PP16536   8.613   6.989  11.163  0.0388 -0.0389  0.0150
 6433PP      PP16537   8.113  13.299   4.512  0.0074  0.2028 -0.2598
 6434PP      PP16538  15.859   4.651   0.868  0.4340 -0.2208  0.1324
 6435PP      PP16539   2.568  10.095  12.527  0.0710 -0.4288  0.0710
 6436PP      PP16540   4.221  12.882   0.068 -0.0983  0.1254 -0.0100
 6437PP      PP16541  15.285   1.234  10.730  0.0206  0.2790  0.2263
 6438PP      PP16542   4.024   0.886   4.008 -0.3426 -0.0307 -0.1180
 6439PP      PP16543  10.569   3.879   4.780  0.0143 -0.3554  0.0457
 6440PP      PP16544  12.536  12.764   9.773 -0.0670  0.3917  0.1764
 6441PP      PP16545  12.515   9.989   3.558 -0.0700 -0.2740  0.1366
 6442PP      PP16546   9.681   3.558   0.911 -0.1435 -0.1229  0.1945
 6443PP      PP16547   8.380  13.499   4.912  0.1172  0.1284  0.0941
 6444PP      PP16548   2.693   5.246  12.451 -0.0944 -0.0024  0.0289
 6445PP      PP16549  14.057  15.561   4.339 -0.0577 -0.2324  0.1233
 6446PP      PP16550  10.110   9.583   2.739 -0.2664 -0.1828  0.2008
 6447PP      PP16551   6.784  14.740   4.315 -0.1371 -0.3112 -0.1062
 6448PP      PP16552   5.332  14.495   3.116 -0.1086 -0.0107  0.0715
 6449PP      PP16553   3.398  15.199  13.049 -0.0821 -0.0364  0.0430
 6450PP      PP16554   0.009   1.161   3.794 -0.3118 -0.0310  0.2932
 6451PP      PP16555   3.052   4.176  10.090 -0.2908  0.1185  0.3299
 6452PP      PP16556  13.349   4.768  10.582  0.2986  0.2745  0.3557
 6453PP      PP16557  12.984   1.159   4.022 -0.0419  0.3109 -0.2517
 6454PP      PP16558   0.345  13.908  11.293  0.0364 -0.0525  0.0827
 6455PP      PP16559   7.799  15.573   1.883  0.0860 -0.1976  0.3011
 6456PP      PP16560   7.888   3.917   3.009 -0.1072  0.2762 -0.1330
 6457PP      PP16561   5.074   3.841   8.766 -0.0833 -0.0028 -0.2364
 6458PP      PP16562  10.750   4.946   0.728 -0.0699  0.1957  0.1853
 6459PP      PP16563   3.579   5.219  10.138  0.1846 -0.1805  0.1738
 6460PP      PP16564  10.197   3.852   4.498  0.0479 -0.3308 -0.0288
 6461PP      PP16565   5.731  10.240   2.931  0.2294 -0.1014  0.0623
 6462PP      PP16566   2.919   3.773  10.810 -0.0101 -0.3020  0.0236
 6463PP      PP16567   1.453  12.184  11.266  0.1653  0.0549 -0.1039
 6464PP      PP16568   5.755   3.094   2.464 -0.0304 -0.1275 -0.1057
 6465PP      PP16569  11.897   7.665   2.028 -0.1222  0.1635 -0.0082
 6466PP      PP16570  14.846   6.606   0.184 -0.0247  0.0002  0.0918
 6467PP      PP16571   6.756   3.141  10.888 -0.1585 -0.3553 -0.1025
 6468PP      PP16572   9.666   6.423   3.779 -0.3400  0.1017 -0.1283
 6469PP      PP16573  12.380   9.043  10.348 -0.0489 -0.2054  0.0417
 6470PP      PP16574   1.004   4.963   9.483 -0.1927  0.1632  0.0235
 6471PP      PP16575  13.584   4.918  13.111  0.0129 -0.0802 -0.0131
 6472PP      PP16576   9.898  13.114  13.311 -0.1259 -0.0717  0.1439
 6473PP      PP16577   1.546  11.424   0.584  0.0485  0.1925  0.1796
 6474PP      PP16578  14.909  11.859   8.619  0.0305  0.0408 -0.1139
 6475PP      PP16579   6.267  13.641  11.007  0.2911 -0.2900  0.1233
 6476PP      PP16580  14.885  10.618  11.764 -0.1186 -0.0058  0.1896
 6477PP      PP16581   2.131   9.922   1.431 -0.1110 -0.0879  0.1963
 6478PP      PP16582  15.625  15.207  12.673 -0.2373 -0.2891 -0.2272
 6479PP      PP16583   6.844   0.277   1.565  0.4136 -0.0381  0.0265
 6480PP      PP16584  14.790   8.406   8.854  0.0104 -0.1038  0.0418
 6481PP      PP16585   3.442   5.059   1.469  0.2205 -0.4759  0.0058
 6482PP      PP16586  12.854  11.057   9.820  0.2644  0.2274  0.2421
 6483PP      PP16587   8.666   3.133   3.423  0.2484 -0.2946 -0.0452
 6484PP      PP16588   2.290  13.786   3.971 -0.4581 -0.2039  0.0503
 6485PP      PP16589   0.446   1.893  12.013  0.1422  0.0146 -0.0458
 6486PP      PP16590  11.827   5.754   3.701  0.0581  0.2433 -0.0744
 6487PP      PP16591   4.146   5.695  11.032  0.1665  0.0272 -0.0788
 6488PP      PP16592   3.452   0.451   3.311  0.2754 -0.0112  0.0182
 6489PP      PP16593  15.483   0.956  13.101 -0.1240  0.2303  0.0326
 6490PP      PP16594  11.846  14.805  10.815  0.2947  0.0212  0.0337
 6491PP      PP16595   9.009  13.907   3.190  0.0034 -0.0279  0.2678
 6492PP      PP16596  15.031   3.859  11.043  0.0179  0.2173 -0.1194
 6493PP      PP16597   6.943  13.233   1.982 -0.0683  0.0594  0.2885
 6494PP      PP16598  10.462  14.021   0.359  0.2677 -0.0031 -0.1487
 6495PP      PP16599  11.291  14.893   1.023  0.2668  0.2185 -0.3132
 6496PP      PP16600   8.693   9.394   3.864 -0.3176  0.0649 -0.0949
 6497PP      PP16601  12.175   2.722  12.761  0.1783  0.0243 -0.0816
 6498PP      PP16602  15.182  11.014  13.121 -0.2320  0.1271  0.1042
 6499PP      PP16603   2.382   8.365   1.232 -0.0466 -0.0085 -0.0397
 6500PP      PP16604   6.603   5.416   2.737  0.0135  0.1020  0.0459
 6501PP      PP16605   2.365  10.109   8.161  0.0397 -0.2278 -0.0691
 6502PP      PP16606   3.141  15.309   9.093  0.1044  0.1480  0.0955
 6503PP      PP16607   8.193   2.346   0.041  0.0260 -0.0299 -0.2148
 6504PP      PP16608  12.996   8.547   9.691  0.0142  0.0025 -0.0270
 6505PP      PP16609   8.654   8.218   2.860  0.0312 -0.4536 -0.1757
 6506PP      PP16610   5.813  12.405   3.811 -0.0434  0.1945 -0.1944
 6507PP      PP16611   2.563   3.209   0.863 -0.0212 -0.0419 -0.1580
 6508PP      PP16612  13.813  11.954   1.697  0.0934 -0.2960  0.1228
 6509PP      PP16613   3.832   9.396   9.692 -0.5627  0.3538  0.0658
 6510PP      PP16614  12.635  14.311  11.994 -0.0502 -0.1105 -0.0645
 6511PP      PP16615   4.754   5.782   9.730  0.3380  0.1335 -0.0129
 6512PP      PP16616   6.985  11.998  10.769  0.0358  0.0212  0.0388
 6513PP      PP16617   6.596  11.538   1.119 -0.0952 -0.2016  0.0950
 6514PP      PP16618   6.951   9.446   3.324 -0.0882 -0.2392  0.2780
 6515PP      PP16619   3.200   4.734   4.049  0.1441 -0.1316  0.1664
 6516PP      PP16620  14.504  14.129   2.790  0.0536  0.1826  0.0656
 6517PP      PP16621   7.921  13.773   4.205 -0.0478 -0.2688  0.1816
 6518PP      PP16622   2.393  11.826   2.152 -0.1924 -0.1959 -0.2670
 6519PP      PP16623   2.943  13.323  12.991 -0.1425 -0.2857  0.2278
 6520PP      PP16624   3.951   5.888  10.363 -0.0143  0.0041  0.2359
 6521PP      PP16625   4.143   4.292  13.224  0.3522  0.4980 -0.1235
 6522PP      PP16626  12.515   8.309  12.534 -0.0581  0.2165 -0.2323
 6523PP      PP16627   1.865   4.364  12.093  0.3414 -0.6211  0.0781
 6524PP      PP16628   8.186  13.829   2.671  0.1562 -0.0544  0.2060
 6525PP      PP16629  13.953   1.746   3.039 -0.1533  0.4075 -0.2079
 6526PP      PP16630   8.317  15.854   0.554  0.0942 -0.1982  0.0865
 6527PP      PP16631   2.396   4.664   0.956 -0.2751 -0.0107  0.2907
 6528PP      PP16632  13.395   6.469  13.140  0.0683 -0.0930  0.2597
 6529PP      PP16633   9.910   7.253  12.373  0.0831 -0.1325  0.2508
 6530PP      PP16634  12.241   2.693   5.151 -0.2865 -0.3343 -0.1224
 6531PP      PP16635   1.380   7.646  13.426 -0.1336 -0.1293  0.0456
 6532PP      PP16636  11.785   0.036   3.586  0.0626  0.0954  0.0435
 6533PP      PP16637  14.208  13.012   4.496 -0.0716  0.1733 -0.1551
 6534PP      PP16638  11.417   5.356  11.027  0.3325 -0.0972  0.0065
 6535PP      PP16639  15.165   1.067   3.705 -0.2223  0.2101  0.0344
 6536PP      PP16640   1.503   2.788   2.798  0.0996  0.4144  0.3936
 6537PP      PP16641   2.776   6.158  10.784  0.0453 -0.1724  0.1874
 6538PP      PP16642  13.588   7.562  13.374 -0.0003 -0.0850 -0.1797
 6539PP      PP16643  13.459  12.676   9.467  0.2172  0.3427  0.3344
 6540PP      PP16644   9.666   6.205  13.348  0.0256 -0.0733  0.0518
 6541PP      PP16645  11.426   9.867  11.000 -0.3064  0.3529  0.1575
 6542PP      PP16646   9.040   3.146   4.257 -0.2160  0.1753  0.2769
 6543PP      PP16647  11.834  10.974   3.627 -0.2654 -0.1236  0.2667
 6544PP      PP16648  10.101   1.263   4.010  0.0335  0.0532 -0.1299
 6545PP      PP16649  10.739  12.965   5.226  0.0678 -0.1081  0.0667
 6546PP      PP16650   7.001  10.472  12.312 -0.1513  0.0858  0.2263
 6547PP      PP16651  11.483  11.765  10.958  0.1356 -0.1582  0.0617
 6548PP      PP16652   5.215  11.226   4.854 -0.0494  0.2425 -0.1869
 6549PP      PP16653  11.755   5.926   1.633 -0.0881  0.0646  0.1189
 6550PP      PP16654   3.112  11.865  13.094 -0.2265  0.0399 -0.1404
 6551PP      PP16655   9.097  14.926  11.805  0.0867  0.1100 -0.1218
 6552PP      PP16656  12.504   5.845  10.600 -0.1923 -0.0224 -0.0631
 6553PP      PP16657   2.315   7.993   0.077 -0.1375 -0.0497  0.1336
 6554PP      PP16658  10.644  15.115   9.629  0.1729  0.1843 -0.1186
 6555PP      PP16659   7.647   3.995   1.899  0.1789  0.0664 -0.2346
 6556PP      PP16660   1.014   8.139  13.462  0.0023 -0.0957 -0.0487
 6557PP      PP16661   3.972   9.876   1.827 -0.2798 -0.0752  0.1264
 6558PP      PP16662   0.366   4.688   8.663 -0.0798  0.1227 -0.2839
 6559PP      PP16663   5.386   0.139   9.853  0.0756  0.2735 -0.2573
 6560PP      PP16664  13.724   7.715  10.198 -0.1891 -0.0508 -0.0804
 6561PP      PP16665   8.125   3.227  10.361 -0.0783 -0.2434 -0.2153
 6562PP      PP16666  15.265   1.993  12.215 -0.0064 -0.0673  0.1082
 6563PP      PP16667   8.497   8.448   1.887 -0.0571 -0.0748 -0.3129
 6564PP      PP16668  13.956   6.976   3.620 -0.0505  0.0001  0.1980
 6565PP      PP16669   0.995  14.056  13.431  0.2562 -0.1143 -0.3005
 6566PP      PP16670   5.986   4.663  13.064  0.2775  0.4715 -0.0342
 6567PP      PP16671  10.897   4.709   0.058 -0.1077  0.0877  0.0369
 6568PP      PP16672  13.186   4.768  11.112  0.3986  0.2975  0.0817
 6569PP      PP16673  13.624   6.493   1.735 -0.0721 -0.0868  0.2132
 6570PP      PP16674   7.720   8.069  12.445 -0.1067 -0.1454 -0.0870
 6571PP      PP16675  15.797  15.391  11.362 -0.2140 -0.0695 -0.1207
 6572PP      PP16676  15.784   1.782   9.912 -0.0851 -0.0579 -0.0252
 6573PP      PP16677   7.010   0.236   2.170 -0.2804 -0.0466 -0.2648
 6574PP      PP16678   3.606   8.370  12.561 -0.3616 -0.2759  0.0709
 6575PP      PP16679  11.017   1.104   2.037  0.1836 -0.1151 -0.3832
 6576PP      PP16680   1.768   0.009   1.884 -0.0791  0.2613 -0.1564
 6577PP      PP16681  13.112   3.045   1.021  0.2241  0.0923 -0.1832
 6578PP      PP16682   5.821  12.101   1.982 -0.1487  0.0308 -0.2071
 6579PP      PP16683  11.794   6.993   1.523 -0.0992  0.0827  0.0552
 6580PP      PP16684   1.960  15.140   9.979  0.3387  0.1418  0.0564
 6581PP      PP16685  14.358  11.971  13.073  0.0232 -0.0122  0.1092
 6582PP      PP16686  14.993  12.789   9.323 -0.4771 -0.1242 -0.3289
 6583PP      PP16687   1.655  10.981  11.423  0.1240 -0.1620 -0.1246
 6584PP      PP16688   5.665  10.159  10.002 -0.4712  0.1198 -0.3033
 6585PP      PP16689  12.136   5.479   1.530  0.0996 -0.0636 -0.0525
 6586PP      PP16690   7.961   0.802   4.703  0.0262  0.0467  0.0163
 6587PP      PP16691   5.646  11.387   9.282 -0.1057 -0.2178 -0.2814
 6588PP      PP16692   1.677   5.141   1.714  0.2323  0.2121  0.0811
 6589PP      PP16693  14.346   0.023   3.024  0.1064 -0.0095 -0.0378
 6590PP      PP16694   6.702  13.744   0.119 -0.1264  0.1094 -0.0922
 6591PP      PP16695   4.526   9.304  13.136 -0.1426  0.2143  0.1852
 6592PP      PP16696   4.684   1.754  12.616 -0.0816  0.0719 -0.0522
 6593PP      PP16697   2.019   9.381   3.028 -0.0406  0.1387 -0.1877
 6594PP      PP16698  15.653   9.189  11.291  0.1587 -0.2661  0.1654
 6595PP      PP16699   2.712   0.523   9.568 -0.2995 -0.2288 -0.0962
 6596PP      PP16700  11.053   8.841  13.523  0.1610  0.0673 -0.0897
 6597PP      PP16701   3.596   9.472  13.108 -0.1679 -0.2931  0.0786
 6598PP      PP16702  11.310  11.629  13.045 -0.0909 -0.0145 -0.0536
 6599PP      PP16703   1.676  12.127   8.737  0.5106  0.1882  0.1410
 6600PP      PP16704   8.107   9.040   8.732  0.3035  0.1240 -0.0438
 6601PP      PP16705   3.955   1.534   0.998  0.0590 -0.1400  0.0134
 6602PP      PP16706   5.613  10.853   0.514  0.0521 -0.2574 -0.1900
 6603PP      PP16707   7.856  10.986  10.238 -0.3112  0.0314  0.1627
 6604PP      PP16708   9.525  14.661   1.307 -0.0345  0.2108 -0.1049
 6605PP      PP16709   2.946   0.584  10.964 -0.1492  0.0390 -0.1289
 6606PP      PP16710  14.201   7.230   3.986 -0.0221  0.0714 -0.3499
 6607PP      PP16711   9.103   4.168   3.778  0.0460 -0.1055  0.1195
 6608PP      PP16712   2.628   2.802   8.691  0.4937 -0.0281  0.4132
 6609PP      PP16713  14.537   7.480   0.165 -0.0349 -0.1382  0.1964
 6610PP      PP16714   4.178   5.869   0.010 -0.0196  0.2432  0.3156
 6611PP      PP16715  13.397  14.998  12.018 -0.0114  0.1227 -0.0935
 6612PP      PP16716  10.097   5.689   1.212 -0.1554  0.2798  0.1969
 6613PP      PP16717  14.429  10.541  11.515 -0.0986 -0.1588  0.2467
 6614PP      PP16718   5.903   9.587  12.212 -0.1117  0.0636  0.2992
 6615PP      PP16719   1.628  11.338   3.479  0.0528 -0.1114  0.0052
 6616PP      PP16720   1.302   1.444  12.789 -0.0695 -0.0641 -0.2590
 6617PP      PP16721   4.194   9.632  12.259 -0.1160 -0.1400 -0.0311
 6618PP      PP16722  12.381  11.867   9.428 -0.2292  0.2746 -0.0499
 6619PP      PP16723   1.599  14.597   4.716 -0.1370  0.4964 -0.0930
 6620PP      PP16724  13.039   7.923   8.134 -0.1120  0.3083 -0.0216
 6621PP      PP16725   6.010   9.504  13.109  0.1030  0.0759  0.2348
 6622PP      PP16726   3.344  10.110   9.433 -0.3060  0.1535  0.3905
 6623PP      PP16727   4.448  13.042  12.799 -0.0995 -0.0082 -0.1403
 6624PP      PP16728  10.554  14.451   3.958  0.1279  0.1495  0.1765
 6625PP      PP16729   7.253  13.437   3.478  0.1138  0.1504  0.1353
 6626PP      PP16730   5.011   6.915  12.381  0.0133 -0.0941  0.1806
 6627PP      PP16731  10.675   5.260  10.871  0.1101  0.0634  0.0593
 6628PP      PP16732   9.942   1.599   0.792 -0.1079 -0.1548 -0.0518
 6629PP      PP16733   3.057   2.939  12.467 -0.1281  0.0834  0.0503
 6630PP      PP16734   3.318   4.746   9.201  0.2259 -0.1679  0.0256
 6631PP      PP16735   5.172   3.734   3.016  0.1166 -0.1457 -0.0591
 6632PP      PP16736  11.219   1.044   0.630  0.1354 -0.2388  0.0177
 6633PP      PP16737   8.702  15.660  12.686 -0.0200 -0.0531 -0.1749
 6634PP      PP16738   1.165   9.355   9.031  0.0874  0.1279  0.1354
 6635PP      PP16739   3.110   5.171   8.661 -0.2453  0.0021 -0.2018
 6636PP      PP16740  15.291   8.386  12.848  0.1433  0.0784 -0.0296
 6637PP      PP16741  15.821   0.642   0.202 -0.0081 -0.1972 -0.1064
 6638PP      PP16742   6.724  12.703   4.359 -0.2204 -0.0540 -0.0191
 6639PP      PP16743  13.567   4.423   1.020 -0.2357  0.2467 -0.1116
 6640PP      PP16744   9.070   4.778   9.925 -0.1283 -0.1472  0.0617
 6641PP      PP16745  10.854   3.867  10.633 -0.0022  0.2254  0.0174
 6642PP      PP16746   9.863  13.709   0.502  0.0362  0.1452 -0.3376
 6643PP      PP16747   0.954   1.104   3.508  0.1953 -0.1099 -0.0393
 6644PP      PP16748   6.863   6.386   1.130  0.3372  0.0952 -0.0389
 6645PP      PP16749  12.750   9.913  10.292 -0.1355  0.3956  0.0464
 6646PP      PP16750   3.794  13.951   2.969 -0.0562  0.1940  0.2188
 6647PP      PP16751   0.428   2.110  11.114 -0.0138 -0.5402 -0.0732
 6648PP      PP16752   3.418  10.661  13.453 -0.1076  0.2492 -0.0334
 6649PP      PP16753   8.725   1.231   2.270 -0.2023 -0.1392 -0.3375
 6650PP      PP16754  10.529   9.688   0.559 -0.2083  0.0026  0.0226
 6651PP      PP16755   9.475  14.156  12.266 -0.0352  0.3694  0.1132
 6652PP      PP16756   1.289  15.374  12.583 -0.1795 -0.0576 -0.2941
 6653PP      PP16757  10.558   1.530   5.572  0.4155  0.0782  0.0758
 6654PP      PP16758   8.953   2.937  13.156  0.1172  0.1675 -0.0058
 6655PP      PP16759   6.403   3.495  13.183 -0.1734  0.0346 -0.0879
 6656PP      PP16760   6.702  12.552   9.228 -0.0422  0.1789  0.0681
 6657PP      PP16761  10.042  15.694   0.918  0.0725 -0.2184 -0.4003
 6658PP      PP16762   9.010  11.792  12.947 -0.0630 -0.1077  0.3234
 6659PP      PP16763  11.882   0.902   4.373  0.1320 -0.3530  0.2628
 6660PP      PP16764   2.856   4.858   9.541  0.0433 -0.2384 -0.2077
 6661PP      PP16765  15.282   6.399  11.620  0.3587 -0.0690  0.0267
 6662PP      PP16766   5.321  15.423   4.072 -0.0563  0.2466 -0.1391
 6663PP      PP16767  14.381   3.266  11.776 -0.1614  0.6154  0.1141
 6664PP      PP16768   6.323  13.082   9.560 -0.1569  0.1037 -0.2931
 6665PP      PP16769  10.495   1.117   2.820  0.1402 -0.0915  0.0034
 6666PP      PP16770  11.132   6.241  10.762  0.0622 -0.2342 -0.0956
 6667PP      PP16771  10.463   0.132  10.099 -0.1326  0.3163 -0.1044
 6668PP      PP16772   4.258  10.587   4.220  0.1419  0.2399 -0.1369
 6669PP      PP16773   7.905   2.433   0.924 -0.2251 -0.0628  0.1301
 6670PP      PP16774  12.664   8.127   1.614 -0.0774  0.0507 -0.0597
 6671PP      PP16775   2.025  15.051  10.998 -0.0807 -0.1339 -0.0514
 6672PP      PP16776  10.112   2.641   3.513 -0.2323  0.0051  0.4477
 6673PP      PP16777   5.889  10.432  12.425  0.1227  0.1149 -0.1176
 6674PP      PP16778   3.686  10.715  11.359  0.1753  0.4969 -0.0542
 6675PP      PP16779   9.940   3.766   0.080  0.0079 -0.2375 -0.1500
 6676PP      PP16780  12.546  10.595   4.849  0.5771 -0.0963  0.0327
 6677PP      PP16781  13.054  12.085  11.279  0.3805 -0.1501 -0.0777
 6678PP      PP16782  13.300   1.238   0.850  0.0632  0.0413  0.0100
 6679PP      PP16783   4.163   9.267  12.608  0.2054 -0.0395 -0.0892
 6680PP      PP16784   6.797  12.160  12.186  0.0766  0.1941 -0.3106
 6681PP      PP16785   3.413   3.658  11.044 -0.1013  0.4717  0.0951
 6682PP      PP16786   5.768   7.061  11.421 -0.3248  0.2709  0.1167
 6683PP      PP16787   5.284   1.057  12.849 -0.0368  0.2388 -0.1206
 6684PP      PP16788  15.302   7.265   2.274  0.1758  0.0652  0.1041
 6685PP      PP16789   8.560   6.059  10.864 -0.1109  0.0865  0.1869
 6686PP      PP16790   7.122  11.090   2.615  0.0460 -0.3829  0.1131
 6687PP      PP16791   4.453   3.955   2.378 -0.1489 -0.2048 -0.0473
 6688PP      PP16792  13.892   0.413   0.851  0.3900 -0.0083  0.0797
 6689PP      PP16793  13.555   3.187   2.611  0.2279 -0.6437 -0.3636
 6690PP      PP16794   7.066   6.379  11.116  0.1021 -0.0880  0.0948
 6691PP      PP16795  10.291  14.620  11.218 -0.3330  0.3037 -0.4824
 6692PP      PP16796  14.095   8.196  13.094 -0.1653 -0.0026  0.1586
 6693PP      PP16797   6.654  13.409   0.930  0.0348 -0.2672  0.0460
 6694PP      PP16798  11.547  10.463   0.047  0.4038  0.0415 -0.0001
 6695PP      PP16799   1.216  15.268   1.008 -0.2240 -0.3001  0.2684
 6696PP      PP16800   0.123  10.059  12.242  0.1669  0.0364  0.1903
 6697PP      PP16801   4.738   6.908   8.980 -0.2055 -0.3232  0.2187
 6698PP      PP16802   9.646   9.645  12.655 -0.1433  0.0124  0.2740
 6699PP      PP16803   3.998   1.478   1.887  0.0873  0.0802  0.2615
 6700PP      PP16804  13.490  11.794   2.219 -0.1644  0.2413  0.0788
 6701PP      PP16805   8.830   1.879  13.103 -0.3708  0.0043 -0.1978
 6702PP      PP16806  11.727  13.319   2.920  0.1514  0.0530 -0.0164
 6703PP      PP16807   6.907   4.315   9.014  0.1852  0.1865  0.3650
 6704PP      PP16808  13.680  12.562   1.008 -0.0302 -0.3382  0.0066
 6705PP      PP16809   8.839   9.428   1.156 -0.2723  0.1463  0.1383
 6706PP      PP16810   4.847  11.873  10.833  0.2866 -0.1619 -0.0321
 6707PP      PP16811   4.310  15.817  12.330 -0.1346  0.0434  0.0628
 6708PP      PP16812   4.860   1.996   1.910 -0.1534  0.4043  0.1027
 6709PP      PP16813   8.359   8.115   8.419  0.1077 -0.3126  0.2724
 6710PP      PP16814  15.797   2.898   9.008 -0.0813 -0.1843  0.0881
 6711PP      PP16815   1.236  15.258   1.529 -0.1577  0.0910  0.2405
 6712PP      PP16816   5.706  11.807  11.287 -0.0092 -0.0980 -0.0108
 6713PP      PP16817   0.743   0.246   2.009 -0.0317  0.0467 -0.2117
 6714PP      PP16818   9.851  12.564   8.583 -0.0795  0.1439 -0.1969
 6715PP      PP16819   2.900  12.775   9.823 -0.1733  0.1272 -0.0118
 6716PP      PP16820   8.948  14.873  10.333 -0.1981  0.2139 -0.1383
 6717PP      PP16821  14.571  13.742   3.721 -0.0801 -0.0145 -0.0412
 6718PP      PP16822  14.347   5.458  11.423 -0.2362 -0.0984  0.1939
 6719PP      PP16823  10.299   0.071  11.508  0.1802  0.1945 -0.0867
 6720PP      PP16824   0.996   9.669  12.047  0.1499 -0.2648  0.0581
 6721PP      PP16825   0.656   2.354   9.135  0.0056  0.1262 -0.1251
 6722PP      PP16826  15.322  12.031   1.699 -0.0175  0.0088  0.0990
 6723PP      PP16827   0.118  12.479  10.519  0.1249 -0.0946  0.3117
 6724PP      PP16828   7.305   1.758  11.160 -0.2767  0.0641  0.0558
 6725PP      PP16829  10.040   5.309   1.490 -0.3302 -0.3393 -0.0641
 6726PP      PP16830  14.012  10.554  10.424 -0.0374  0.1406  0.0168
 6727PP      PP16831   8.016   1.782   4.039 -0.0876 -0.3002 -0.3198
 6728PP      PP16832   5.634   9.124   4.638 -0.0447  0.3412 -0.1522
 6729PP      PP16833   1.566   6.157  13.504  0.0614 -0.2271 -0.2991
 6730PP      PP16834   9.662   1.069  10.382  0.1751  0.3225  0.0721
 6731PP      PP16835   5.378   5.543  12.381 -0.0491 -0.3526 -0.0296
 6732PP      PP16836  14.067   4.814  12.880 -0.0755 -0.0837 -0.0919
 6733PP      PP16837   4.593   0.255   3.668  0.0753 -0.1106  0.1633
 6734PP      PP16838  15.513  13.506   9.580 -0.0541  0.1916 -0.0731
 6735PP      PP16839   0.225  13.141  10.810 -0.0220  0.0863 -0.1642
 6736PP      PP16840   5.250  14.808  12.648 -0.0548 -0.0474  0.2339
 6737PP      PP16841  15.354   0.115   9.564  0.1478  0.1165  0.1151
 6738PP      PP16842   1.450   1.782   1.641  0.0851 -0.1438  0.1781
 6739PP      PP16843  12.885   2.961   0.173 -0.2526 -0.1024  0.1355
 6740PP      PP16844  15.275   6.901  11.500 -0.3980  0.0805  0.2492
 6741PP      PP16845   7.154  14.796   2.212  0.3063  0.1496  0.0698
 6742PP      PP16846   0.929  13.964   1.416  0.2535  0.1534 -0.1886
 6743PP      PP16847   5.440   3.938   1.862 -0.3273 -0.0755  0.1909
 6744PP      PP16848  14.046  12.266   4.199  0.0638  0.0078  0.0418
 6745PP      PP16849  11.064  10.192   2.654 -0.0122 -0.3839 -0.0986
 6746PP      PP16850   8.957  13.292  11.645  0.0161 -0.2222  0.2823
 6747PP      PP16851   8.733   9.122  12.885 -0.1372  0.0477 -0.4070
 6748PP      PP16852   4.609   3.689  12.753  0.0489  0.0558 -0.0810
 6749PP      PP16853  12.200  11.561   3.585 -0.1308 -0.1017  0.1499
 6750PP      PP16854  12.671  13.458   9.232  0.0894 -0.1043 -0.0419
 6751PP      PP16855  14.263   6.761   8.440  0.1045 -0.1350 -0.1709
 6752PP      PP16856  10.718  11.491  13.062 -0.0405 -0.3278  0.2024
 6753PP      PP16857   1.442  13.778  13.341  0.1444 -0.1506  0.2418
 6754PP      PP16858   6.873   9.662   3.829 -0.2427  0.0427  0.0921
 6755PP      PP16859   2.993   0.225   2.291 -0.0520 -0.1466 -0.1402
 6756PP      PP16860  12.887  14.195  12.790 -0.2067 -0.2573 -0.1817
 6757PP      PP16861  11.715   4.549   9.286  0.2826 -0.0137  0.1927
 6758PP      PP16862  13.370   4.084  12.339 -0.2779 -0.1729 -0.2638
 6759PP      PP16863   5.987   6.901  10.371  0.1696  0.2349 -0.4650
 6760PP      PP16864   1.525  10.157   2.522  0.1695 -0.1259 -0.3409
 6761PP      PP16865   4.001  13.266   8.467 -0.0469 -0.1462 -0.2252
 6762PP      PP16866   5.365   6.970  10.544 -0.1532 -0.2284  0.1999
 6763PP      PP16867   1.662  14.682  12.871  0.1225  0.1645  0.4600
 6764PP      PP16868   2.430   7.900  10.238  0.0037 -0.2862 -0.0837
 6765PP      PP16869   2.473   4.565  12.975 -0.0094 -0.1089 -0.0858
 6766PP      PP16870   4.065   0.213   3.425 -0.2301 -0.1442 -0.1382
 6767PP      PP16871  14.048  14.009   1.540 -0.1049  0.1514 -0.2961
 6768PP      PP16872   5.584   5.580  10.910 -0.5106  0.2460 -0.0270
 6769PP      PP16873  10.656   6.697  12.814 -0.1369 -0.4308  0.0497
 6770PP      PP16874   6.002   5.430  10.639 -0.1201  0.0168 -0.2374
 6771PP      PP16875  11.598  12.604   2.488  0.0143 -0.1544  0.1807
 6772PP      PP16876  10.126   7.570   3.878  0.1873  0.0808  0.1038
 6773PP      PP16877  15.172   7.054  13.117 -0.1675 -0.2763 -0.0172
 6774PP      PP16878   6.104  10.168  12.020  0.1454 -0.2699 -0.2261
 6775PP      PP16879   4.528   3.647  10.552  0.0428  0.0605 -0.0711
 6776PP      PP16880   5.052   2.844   9.983 -0.0662  0.2514  0.0627
 6777PP      PP16881   7.646  11.156  12.874  0.0117  0.1080  0.1512
 6778PP      PP16882   7.521   3.632  13.399  0.0892  0.2872  0.2196
 6779PP      PP16883  13.203  12.558  11.174  0.1067  0.0734  0.5434
 6780PP      PP16884   9.604   2.688  11.930  0.1436  0.0521  0.1120
 6781PP      PP16885   9.402  11.711  13.270  0.1349  0.0709 -0.0441
 6782PP      PP16886  15.744   4.949  10.838  0.0972  0.6852 -0.2142
 6783PP      PP16887  15.106   3.820  12.837  0.1774 -0.0018 -0.1650
 6784PP      PP16888  10.969  10.090  10.824  0.2273  0.0406  0.1855
 6785PP      PP16889   5.272   4.884   1.608  0.0436 -0.0150  0.0364
 6786PP      PP16890   0.644   9.798   3.533 -0.1689 -0.2021 -0.2056
 6787PP      PP16891  14.284   3.773   9.970  0.1012 -0.0054  0.0989
 6788PP      PP16892   3.239  10.061   3.805 -0.1369  0.2064  0.4268
 6789PP      PP16893  12.857  15.451   2.849  0.0865 -0.0261 -0.0103
 6790PP      PP16894   5.436  12.152   2.970 -0.0959  0.0766 -0.0832
 6791PP      PP16895   0.732   6.508   1.281 -0.1960 -0.0197  0.0578
 6792PP      PP16896   8.137  15.018  11.589 -0.1542  0.3561 -0.3685
 6793PP      PP16897   5.723   5.990  12.852  0.2342 -0.0815 -0.0306
 6794PP      PP16898   0.324  12.701  13.254  0.1905  0.0268  0.0566
 6795PP      PP16899   7.472   3.737   1.442 -0.0479 -0.0128  0.1388
 6796PP      PP16900   1.692   7.904  11.443  0.0017 -0.6487  0.0261
 6797PP      PP16901   6.072   5.159  13.128 -0.2035  0.1267 -0.1102
 6798PP      PP16902  13.433  15.412   0.113 -0.0711  0.0430 -0.0735
 6799PP      PP16903   5.262   1.291  10.622 -0.0246  0.1529  0.3975
 6800PP      PP16904  10.113   2.281   4.878  0.2135  0.0894 -0.3269
 6801PP      PP16905   5.343  12.202   2.223  0.2894 -0.1529 -0.3451
 6802PP      PP16906   3.271  11.406   0.249 -0.1518 -0.1951  0.0624
 6803PP      PP16907  13.914  14.214  12.484 -0.1852  0.2561 -0.1099
 6804PP      PP16908   4.721  13.033  13.339 -0.0380  0.2902  0.1824
 6805PP      PP16909   8.015  10.846   2.885 -0.0946  0.2785  0.1273
 6806PP      PP16910  12.637   6.795   4.509 -0.2965  0.1712 -0.0312
 6807PP      PP16911   4.493   5.560   0.503  0.3217 -0.2415  0.1912
 6808PP      PP16912  11.773  13.861   9.986 -0.0682 -0.1953 -0.0506
 6809PP      PP16913   2.641   6.385  13.216 -0.0467  0.1416 -0.0781
 6810PP      PP16914   0.340   6.495   4.302 -0.1113  0.1621  0.2507
 6811PP      PP16915  11.551  10.168  12.077 -0.0148 -0.0858  0.3568
 6812PP      PP16916   3.366  14.636  11.091 -0.1654 -0.0241 -0.0562
 6813PP      PP16917   8.508   3.167  13.314 -0.0878  0.1430 -0.4191
 6814PP      PP16918   0.856   5.642  12.549  0.1650 -0.1870 -0.0919
 6815PP      PP16919   0.511  15.186  10.033 -0.0625 -0.0163 -0.2729
 6816PP      PP16920   2.776   7.893   1.980 -0.1086 -0.0416  0.0183
 6817PP      PP16921   2.935  14.464   4.497  0.0363  0.0182  0.2895
 6818PP      PP16922  11.239   0.545   2.678  0.0716 -0.0847  0.4019
 6819PP      PP16923  12.657   8.710  11.379  0.3878 -0.1206  0.1175
 6820PP      PP16924  13.144   9.982   1.627 -0.1817 -0.0802  0.1578
 6821PP      PP16925  13.721  15.707  11.967 -0.0828 -0.1726 -0.1170
 6822PP      PP16926   7.665   0.591   4.374 -0.2665 -0.0895 -0.0738
 6823PP      PP16927   0.652  14.890   0.826 -0.2581  0.0740  0.2611
 6824PP      PP16928   6.584   9.993   4.525  0.1182  0.0530  0.0349
 6825PP      PP16929  15.685  11.166  12.270 -0.1798 -0.1202  0.2624
 6826PP      PP16930   3.811  10.402   9.463 -0.0475 -0.0911  0.0744
 6827PP      PP16931  14.891   3.499  11.917 -0.1990 -0.0504 -0.0300
 6828PP      PP16932   3.452   8.097   3.297 -0.2021 -0.2417 -0.1742
 6829PP      PP16933   5.699   8.285   9.929 -0.1274  0.2236 -0.4643
 6830PP      PP16934   1.294   8.854   9.517  0.0642 -0.2150 -0.2057
 6831PP      PP16935   9.412  10.096  11.982  0.1940  0.3624  0.1188
 6832PP      PP16936  13.073   8.172   0.457 -0.1237  0.0483  0.2010
 6833PP      PP16937  13.631   7.346   3.489  0.3941 -0.1573 -0.1082
 6834PP      PP16938  13.584   4.588   1.933  0.0805 -0.1179 -0.1337
 6835PP      PP16939  11.580   3.580   2.130  0.0806  0.3607 -0.1871
 6836PP      PP16940   7.522   2.639  10.938  0.0902  0.1972  0.3930
 6837PP      PP16941   0.752   5.111   9.870 -0.1083 -0.2144  0.4086
 6838PP      PP16942  15.006  13.024  13.519 -0.2276  0.3679  0.2313
 6839PP      PP16943  12.206   8.740   2.661  0.0857  0.0546 -0.0560
 6840PP      PP16944   2.817  10.691   0.032 -0.1390 -0.0395  0.1312
 6841PP      PP16945  10.369   5.563  13.177  0.3430  0.1328 -0.3789
 6842PP      PP16946  12.658   3.330  12.149  0.1489 -0.3557 -0.1100
 6843PP      PP16947  11.499   9.318  12.683 -0.2068 -0.5082  0.1284
 6844PP      PP16948   0.160   6.632   2.537 -0.0842 -0.1080  0.0570
 6845PP      PP16949   2.617   8.795   2.288  0.0482  0.0559 -0.3854
 6846PP      PP16950   4.096   6.540  10.373 -0.1784 -0.0882  0.1281
 6847PP      PP16951   0.217  13.383   0.291 -0.1637 -0.3200 -0.1616
 6848PP      PP16952  14.044   6.433  11.486 -0.2088 -0.6145  0.2992
 6849PP      PP16953   1.863   5.944  10.471  0.3892  0.0222 -0.0481
 6850PP      PP16954   1.376  10.129   3.057 -0.0677 -0.0152 -0.0443
 6851PP      PP16955   5.809   3.296  11.424  0.3566  0.0039 -0.1140
 6852PP      PP16956   1.089  10.441  10.271  0.0361 -0.1803 -0.2647
 6853PP      PP16957   6.971   0.095  12.787 -0.0936 -0.0600 -0.0070
 6854PP      PP16958   4.165  11.250  12.873  0.3983  0.1147  0.0982
 6855PP      PP16959  15.334  13.072   1.553 -0.1116  0.1757 -0.2087
 6856PP      PP16960   0.248   2.389   1.508  0.2937 -0.1370  0.0983
 6857PP      PP16961   6.957   4.324  11.797 -0.1043 -0.0864  0.0492
 6858PP      PP16962   0.588   3.006   3.996  0.1024  0.2035  0.3024
 6859PP      PP16963  15.437   0.019   3.607  0.2367 -0.1594 -0.0102
 6860PP      PP16964   5.408   6.044  11.437 -0.0536 -0.2530 -0.1716
 6861PP      PP16965   3.411   1.473   4.214 -0.2476  0.3699 -0.0271
 6862PP      PP16966   2.801  12.054   1.679 -0.1214  0.0465  0.1612
 6863PP      PP16967   8.416   5.166   1.588  0.0885  0.2333  0.0944
 6864PP      PP16968  15.497   0.548   9.380 -0.1996  0.1005  0.2662
 6865PP      PP16969   1.430  12.801  12.274 -0.0677  0.0207  0.3677
 6866PP      PP16970   3.725   6.072   1.281 -0.1376 -0.0310 -0.1803
 6867PP      PP16971  12.066  15.456   0.061 -0.0205 -0.1517 -0.2878
 6868PP      PP16972  11.691   9.999   3.076 -0.2022  0.4524 -0.0920
 6869PP      PP16973   0.653  15.530   9.757  0.1403  0.3211  0.0479
 6870PP      PP16974   7.355   1.242   1.124 -0.0691  0.2072 -0.3217
 6871PP      PP16975  13.652  11.451   3.538 -0.1536 -0.3435 -0.0358
 6872PP      PP16976   1.598  13.173   9.806  0.3358 -0.0191  0.1276
 6873PP      PP16977   8.452   0.321  13.267  0.0266 -0.1157 -0.1176
 6874PP      PP16978  14.730  14.370  10.330 -0.1333 -0.0312 -0.2889
 6875PP      PP16979   2.887  13.933  10.969 -0.0126 -0.2921  0.0568
 6876PP      PP16980   9.968  13.698   8.929  0.1202 -0.0092 -0.0172
 6877PP      PP16981   2.561   6.468   3.407  0.0866  0.0353 -0.0146
 6878PP      PP16982  13.754   0.678  12.989  0.1069  0.1455 -0.0780
 6879PP      PP16983   3.930   6.761   0.223  0.1324  0.2300 -0.3034
 6880PP      PP16984   5.472  11.423   1.316 -0.2372 -0.1769  0.0213
 6881PP      PP16985  12.316  11.618   3.049 -0.1763  0.1230 -0.3207
 6882PP      PP16986  15.669   2.217   1.813 -0.0600  0.2110  0.1434
 6883PP      PP16987   4.775  11.543  10.479  0.0121 -0.3513 -0.1770
 6884PP      PP16988  15.355   0.148  11.780  0.0135 -0.2170 -0.0809
 6885PP      PP16989   6.879  12.358   4.045 -0.2181 -0.0480 -0.1663
 6886PP      PP16990  14.276  15.461   2.082  0.2222 -0.0975 -0.0954
 6887PP      PP16991  12.573   6.598   8.373 -0.0720  0.1105 -0.2448
 6888PP      PP16992   6.982  10.098   2.101 -0.0072 -0.1586 -0.0564
 6889PP      PP16993  14.339   1.181   1.787  0.0520 -0.2909 -0.1115
 6890PP      PP16994  12.359  14.845  12.945  0.3386 -0.0954 -0.1761
 6891PP      PP16995   3.368   3.728   9.129  0.0858  0.0787 -0.1653
 6892PP      PP16996   5.353   8.981  13.451 -0.1698  0.1373  0.0239
 6893PP      PP16997  10.777  14.262  11.361  0.0127  0.1477  0.1301
 6894PP      PP16998   0.991  11.590  10.216  0.2501 -0.1118 -0.0642
 6895PP      PP16999   4.654  11.328   1.351 -0.4305 -0.0264  0.0653
 6896PP      PP17000  11.531   8.680   0.031  0.3432 -0.1316  0.1335
 6897PP      PP17001  12.149   7.139  12.686 -0.1181 -0.4830 -0.0796
 6898PP      PP17002   5.670  10.971   3.666 -0.2187  0.2769 -0.0064
 6899PP      PP17003   1.648  15.267  12.226 -0.1366  0.3555  0.1916
 6900PP      PP17004   6.061  12.355  13.115 -0.0084 -0.0826 -0.1261
 6901PP      PP17005  14.209   2.112   3.276 -0.1504 -0.1479  0.0430
 6902PP      PP17006  13.294   6.154   3.800 -0.3623 -0.0352 -0.1946
 6903PP      PP17007  10.709   9.637   1.951 -0.0215  0.0523 -0.2158
 6904PP      PP17008   9.588   6.024   1.259 -0.1393 -0.2011  0.1895
 6905PP      PP17009  10.248   1.007   2.407  0.1330 -0.1267 -0.0120
 6906PP      PP17010   4.752  14.873  12.688 -0.0391 -0.0591  0.0068
 6907PP      PP17011   2.332   0.252   4.979 -0.0512  0.2315 -0.2267
 6908PP      PP17012   5.491   9.276   2.965 -0.3001 -0.1444 -0.0578
 6909PP      PP17013   3.203   1.523   5.105  0.1411 -0.0447 -0.0251
 6910PP      PP17014   9.845   5.745   9.583 -0.1481  0.1279  0.0672
 6911PP      PP17015  11.379   0.895   1.135 -0.2317 -0.0847 -0.0851
 6912PP      PP17016  13.661  15.269  12.289 -0.1906 -0.3497  0.1270
 6913PP      PP17017  15.711   3.547  10.164 -0.2365  0.1467  0.2836
 6914PP      PP17018   3.866   7.361   0.626  0.2313  0.0080  0.0484
 6915PP      PP17019   9.727   0.901   1.334 -0.0678 -0.1002 -0.1526
 6916PP      PP17020  15.849   4.774  10.403  0.1072 -0.1343  0.2316
 6917PP      PP17021  11.830   8.605   9.658  0.2070  0.0462  0.0737
 6918PP      PP17022   3.265  13.067   0.124  0.1169  0.2435  0.1725
 6919PP      PP17023   8.918   0.390   1.965  0.1457  0.1842  0.0983
 6920PP      PP17024  14.934   8.858   2.367 -0.0340 -0.0277 -0.2524
 6921PP      PP17025   9.019   2.672  11.405  0.0892 -0.5329  0.1296
 6922PP      PP17026  14.733   2.038  12.386  0.0179 -0.1580 -0.0835
 6923PP      PP17027  15.020   9.297   2.190 -0.1778 -0.2025  0.1590
 6924PP      PP17028   6.274  10.333   3.074  0.1759  0.3854  0.1876
 6925PP      PP17029  10.226   8.270  11.382  0.0525 -0.0703  0.1764
 6926PP      PP17030   7.395  14.979  12.743  0.1231 -0.0761 -0.1563
 6927PP      PP17031   6.390  12.314   0.146  0.0970  0.1057  0.1282
 6928PP      PP17032   4.314   1.254   2.165 -0.2438 -0.0391 -0.1705
 6929PP      PP17033   3.254   5.451   1.735  0.2259  0.0563 -0.0966
 6930PP      PP17034   0.229   7.373   9.925 -0.1772  0.0647 -0.1788
 6931PP      PP17035   3.706  10.139  10.153  0.0010  0.2577  0.0866
 6932PP      PP17036   7.765  11.390   9.823  0.1261 -0.0586  0.1656
 6933PP      PP17037   6.703   7.295  12.508 -0.0360 -0.1712  0.0824
 6934PP      PP17038   4.037   7.431  10.523  0.0337  0.4154 -0.0696
 6935PP      PP17039   3.091   8.659   4.425  0.2934 -0.0196  0.1099
 6936PP      PP17040  14.758   4.209  10.104 -0.0965 -0.1254  0.1108
 6937PP      PP17041  15.680   9.071   8.599 -0.3572  0.0141 -0.1297
 6938PP      PP17042  10.526   9.987   2.371 -0.0480  0.2070  0.0124
 6939PP      PP17043   3.916   1.932   2.920  0.3277  0.0789  0.2261
 6940PP      PP17044   4.810   9.546  12.776 -0.0762  0.0476 -0.1106
 6941PP      PP17045   6.383   1.671   1.864  0.2536  0.1914 -0.1949
 6942PP      PP17046   1.922   4.333  13.440 -0.1218 -0.1576 -0.1429
 6943PP      PP17047  14.667  13.417   4.216 -0.0207  0.1062 -0.1589
 6944PP      PP17048   2.478  10.719   1.586 -0.0254 -0.1176 -0.1138
 6945PP      PP17049   9.586   3.628   1.851 -0.2337 -0.1153 -0.2391
 6946PP      PP17050   6.284   1.301  12.621 -0.2374  0.0280 -0.0910
 6947PP      PP17051  14.238  11.605   2.752 -0.0439  0.1421 -0.1382
 6948PP      PP17052  10.519  12.005   4.639  0.0964  0.2133 -0.2712
 6949PP      PP17053  12.702   6.334   0.534  0.0236  0.2469  0.0520
 6950PP      PP17054  10.608   5.180   3.495  0.1141 -0.2815  0.0224
 6951PP      PP17055   4.612   8.885   0.342  0.0486  0.0198 -0.3714
 6952PP      PP17056  14.582  15.549   2.670  0.0970  0.2269 -0.2674
 6953PP      PP17057  12.119   9.667  12.076  0.2574 -0.1309 -0.1522
 6954PP      PP17058  13.090   9.961   2.521  0.1274  0.1138 -0.0336
 6955PP      PP17059  11.061   4.173  13.341  0.0334 -0.3925  0.0939
 6956PP      PP17060   7.942   3.930  13.265 -0.0820  0.2766 -0.0261
 6957PP      PP17061  12.865  15.548   1.114 -0.1315 -0.0358 -0.2766
 6958PP      PP17062   1.770   6.782  10.694  0.1637 -0.2088 -0.2200
 6959PP      PP17063  14.651  11.170   8.858  0.1705 -0.0166  0.2485
 6960PP      PP17064  15.112   7.579   8.817 -0.1847 -0.0356 -0.2264
 6961PP      PP17065   6.830  10.040  13.171  0.2007 -0.1147 -0.0064
 6962PP      PP17066  15.224  11.311  12.019 -0.0256  0.2489  0.0795
 6963PP      PP17067   3.774  14.469   9.517  0.0239  0.1945  0.0575
 6964PP      PP17068   0.676   5.542   0.479 -0.0118 -0.1675  0.2194
 6965PP      PP17069  11.200   1.450   3.789 -0.0412 -0.2045  0.0060
 6966PP      PP17070  15.108  11.004   8.504 -0.2409  0.0258 -0.0199
 6967PP      PP17071   6.742   8.418  11.046 -0.3143  0.2029  0.0346
 6968PP      PP17072   3.136   7.329   3.695 -0.0267 -0.1099 -0.0132
 6969PP      PP17073   2.180  12.625   2.222  0.1369 -0.1705 -0.2268
 6970PP      PP17074   9.788   6.167   8.692 -0.1887  0.0945 -0.1091
 6971PP      PP17075   1.156   0.115  10.420  0.4081 -0.3162 -0.0167
 6972PP      PP17076  15.116  15.518  10.818 -0.1518 -0.1060 -0.0915
 6973PP      PP17077   3.279   2.355   4.206  0.2199  0.2489  0.0999
 6974PP      PP17078   7.175   9.361  10.615 -0.0399 -0.0936 -0.3245
 6975PP      PP17079  12.247  10.533  11.603  0.1909  0.0041 -0.1641
 6976PP      PP17080   0.254   6.258  11.838  0.2222  0.1508  0.2359
 6977PP      PP17081   9.153   8.501   1.846 -0.0890  0.2299 -0.3133
 6978PP      PP17082  11.795   3.081   2.919 -0.1653 -0.0221 -0.2333
 6979PP      PP17083   4.785   9.639   9.690  0.1116 -0.0520  0.1762
 6980PP      PP17084  11.608   5.628  13.267  0.1737 -0.0979 -0.3078
 6981PP      PP17085   9.787   3.734   3.613  0.1815  0.0572 -0.0236
 6982PP      PP17086  10.724   6.243   0.887  0.0186 -0.2684  0.1506
 6983PP      PP17087  10.178   3.186  10.979 -0.3029 -0.0411  0.1320
 6984PP      PP17088  13.868   0.505   1.318 -0.0665 -0.0763 -0.1223
 6985PP      PP17089   3.130  12.857  12.693 -0.1055 -0.2093  0.0311
 6986PP      PP17090   8.657   2.463   2.105 -0.3197 -0.2752 -0.1044
 6987PP      PP17091  10.656   0.572   2.603 -0.2467 -0.0993 -0.0463
 6988PP      PP17092   2.840  12.800   2.167 -0.0759  0.0436  0.0239
 6989PP      PP17093   1.852  11.996   4.151  0.0658 -0.1029 -0.1808
 6990PP      PP17094   1.374   4.309   3.686 -0.0817 -0.4484 -0.0137
 6991PP      PP17095  12.567  12.959  11.450  0.0075 -0.1571  0.2823
 6992PP      PP17096   4.836  10.554   2.822  0.2829 -0.1786  0.0873
 6993PP      PP17097  10.764   6.412   4.085 -0.0697 -0.2086  0.2018
 6994PP      PP17098  10.459   9.028   4.013 -0.0887 -0.3417 -0.1481
 6995PP      PP17099  15.500  11.110   1.929 -0.0312 -0.0371 -0.0113
 6996PP      PP17100  12.717   6.709   1.805 -0.0273  0.2762 -0.1942
 6997PP      PP17101  12.724   4.882  12.595  0.1030  0.0650  0.3524
 6998PP      PP17102   0.775   3.835   2.660  0.1905  0.0130 -0.0046
 6999PP      PP17103  11.600   5.615   9.660  0.3250  0.1251 -0.1121
 7000PP      PP17104  12.515  13.091   0.190  0.0272 -0.2243 -0.1091
 7001PP      PP17105  10.665  11.149   2.188  0.2253 -0.3523 -0.2733
 7002PP      PP17106  10.226   1.307   3.174  0.2133 -0.3552  0.2563
 7003PP      PP17107   8.086   3.012   1.623 -0.0596 -0.1383 -0.1404
 7004PP      PP17108   2.498   0.729   0.465  0.0529 -0.0291 -0.2070
 7005PP      PP17109  10.441   6.833  10.011  0.0801  0.3230 -0.0050
 7006PP      PP17110  11.775  12.632   0.619  0.0254 -0.0693  0.1107
 7007PP      PP17111  15.699  10.069  11.738 -0.1815 -0.0742  0.2625
 7008PP      PP17112   5.902   1.283   1.899  0.0913  0.0134  0.0616
 7009PP      PP17113   8.061   0.730   5.219 -0.0821  0.1215  0.1865
 7010PP      PP17114   1.138  14.866   2.361 -0.1524  0.2481  0.0632
 7011PP      PP17115   3.322   6.464  12.134  0.0581 -0.2685 -0.0301
 7012PP      PP17116   3.726   8.454  11.251 -0.1354  0.0482 -0.3257
 7013PP      PP17117   5.606  10.760  10.890  0.2646  0.1333 -0.3013
 7014PP      PP17118   5.123   9.907  11.907 -0.1246  0.1207  0.1151
 7015PP      PP17119   3.180  10.416   0.809  0.1517 -0.0301 -0.1412
 7016PP      PP17120   3.163   0.992   0.997  0.2828 -0.0115 -0.4921
 7017PP      PP17121  13.420  14.420   3.455 -0.0297  0.2659 -0.1643
 7018PP      PP17122   6.425  10.076  10.544 -0.0023  0.1942  0.1211
 7019PP      PP17123  14.455  13.497   1.666  0.0078  0.4283  0.1478
 7020PP      PP17124  15.003  12.396  10.225 -0.3087  0.0293  0.1854
 7021PP      PP17125  12.555   7.120   0.257  0.2230  0.0483 -0.0401
 7022PP      PP17126   7.575   3.572  10.943  0.2510  0.2282  0.1619
 7023PP      PP17127  11.784   9.316   1.799 -0.1676  0.1390 -0.2159
 7024PP      PP17128   1.257  10.221   1.459  0.0512  0.0305 -0.0816
 7025PP      PP17129  15.522  12.216   4.548 -0.0558 -0.1192 -0.0927
 7026PP      PP17130   0.469   6.347   1.794 -0.1714 -0.1426  0.1318
 7027PP      PP17131  11.290   2.706  11.250  0.3111  0.2968  0.1921
 7028PP      PP17132  10.452  13.213  11.296 -0.0564 -0.4383  0.0692
 7029PP      PP17133  15.274  13.934   9.764  0.0408  0.1392  0.0240
 7030PP      PP17134  13.521   7.562  10.636  0.0671 -0.1561  0.2766
 7031PP      PP17135  11.728   9.014   0.328  0.1306  0.2322 -0.3573
 7032PP      PP17136   1.409   4.515  10.286 -0.0147  0.1683  0.0993
 7033PP      PP17137   0.037  13.578  11.133  0.1970 -0.0087 -0.0621
 7034PP      PP17138   0.020  14.989   9.875 -0.0969  0.0362  0.4132
 7035PP      PP17139   7.206   0.387   9.660 -0.3320 -0.0726  0.0421
 7036PP      PP17140   2.525   4.189   3.007 -0.1267 -0.1205  0.2361
 7037PP      PP17141   5.102  10.255  10.270 -0.0420  0.0915  0.0382
 7038PP      PP17142   1.402   6.196   2.757  0.0493  0.3764  0.1981
 7039PP      PP17143  12.993  12.250  10.716  0.0457  0.0396  0.1479
 7040PP      PP17144   6.887  14.691   2.655  0.0707  0.2467  0.0201
 7041PP      PP17145   6.401   5.516  10.365  0.1487  0.0638 -0.0335
 7042PP      PP17146   6.893  11.269   2.094 -0.0218  0.0298  0.1261
 7043PP      PP17147   7.405  13.845  13.266 -0.2141  0.4289 -0.1944
 7044PP      PP17148   9.428   1.443   2.777 -0.1562  0.3463  0.1852
 7045PP      PP17149   3.036  10.996   9.213 -0.1279  0.0156 -0.2291
 7046PP      PP17150   8.334  13.429   3.420  0.1397 -0.2163 -0.0974
 7047PP      PP17151  12.055   6.159   1.968 -0.0653  0.3532  0.4021
 7048PP      PP17152   2.454   5.235   9.600  0.0777 -0.1527 -0.1205
 7049PP      PP17153  10.988  10.290  10.257 -0.3492 -0.1712  0.2708
 7050PP      PP17154   1.454   6.710   8.508  0.2715 -0.4798 -0.0290
 7051PP      PP17155  13.561   4.208   4.156 -0.2120  0.1800 -0.0688
 7052PP      PP17156  14.455   4.064   8.881 -0.3626  0.2202  0.2105
 7053PP      PP17157  10.324  10.886   0.859 -0.0646  0.0011  0.0643
 7054PP      PP17158  15.214   4.623  13.148  0.0979  0.0907  0.3117
 7055PP      PP17159   4.367   9.768   0.364 -0.0999  0.1181  0.1483
 7056PP      PP17160   6.354   9.019  11.302 -0.1444  0.0264 -0.0718
 7057PP      PP17161  15.556   0.999   8.776  0.1069 -0.1989 -0.2643
 7058PP      PP17162  10.642   5.959   2.662  0.2663 -0.1280 -0.0456
 7059PP      PP17163  14.621   1.820   3.883 -0.1743 -0.0443 -0.1861
 7060PP      PP17164   8.479  13.523   2.216  0.0052  0.3394 -0.1092
 7061PP      PP17165  15.757  12.097   2.658 -0.1386  0.2722  0.3510
 7062PP      PP17166   1.773   9.562  12.846 -0.0547 -0.1354  0.1647
 7063PP      PP17167  13.255  13.436   1.801 -0.4384 -0.2222 -0.3587
 7064PP      PP17168  15.471  12.137  12.932 -0.0997  0.1853  0.0347
 7065PP      PP17169   4.256  14.296   9.732 -0.2148 -0.0541 -0.1179
 7066PP      PP17170  12.429  11.625   0.256  0.1934  0.2748 -0.1150
 7067PP      PP17171   7.811   9.340   3.883 -0.0300  0.2055 -0.1085
 7068PP      PP17172   1.684  15.322   1.193  0.0501  0.1130 -0.0736
 7069PP      PP17173  14.962  11.811   4.030 -0.2442 -0.0040 -0.4061
 7070PP      PP17174  10.249  12.320   0.213  0.1905  0.1126 -0.3330
 7071PP      PP17175   8.107  13.900  13.088  0.1133 -0.1803  0.1824
 7072PP      PP17176  11.193   5.908   9.556  0.2251 -0.0121  0.0531
 7073PP      PP17177   4.435  14.194   3.090 -0.1518 -0.1058  0.1224
 7074PP      PP17178  10.124   7.747  10.913  0.1871 -0.4446 -0.1581
 7075PP      PP17179  11.020   2.858   0.158 -0.3120 -0.3411  0.0411
 7076PP      PP17180  13.800   6.479   9.876  0.1460 -0.2421 -0.3408
 7077PP      PP17181  15.784   1.812   2.251 -0.2013 -0.4445  0.0527
 7078PP      PP17182   8.020   0.027  10.581  0.0611  0.1123  0.3190
 7079PP      PP17183  15.821   1.299  10.599 -0.0743  0.0393  0.1237
 7080PP      PP17184   5.673   4.629  11.701 -0.3291  0.0484  0.2126
 7081PP      PP17185   7.626   1.499   2.799 -0.0699  0.2923  0.2069
 7082PP      PP17186   2.251   4.440   3.753  0.3315 -0.3423 -0.1549
 7083PP      PP17187   6.309  11.199  11.763 -0.0980  0.0307 -0.3045
 7084PP      PP17188   9.034   4.148  11.282 -0.0688  0.1420  0.0405
 7085PP      PP17189   0.287   6.497   3.521 -0.0384 -0.2235  0.3311
 7086PP      PP17190   5.754  13.562  10.151  0.1452  0.0010  0.0778
 7087PP      PP17191   7.008  15.177   2.626 -0.0225  0.0487 -0.1766
 7088PP      PP17192   5.971   6.426   8.673  0.0999 -0.0420 -0.1782
 7089PP      PP17193  13.436   3.165   0.586  0.0364 -0.2459 -0.0978
 7090PP      PP17194   7.186  13.908   3.183 -0.1363 -0.0788  0.2656
 7091PP      PP17195  11.969   9.230  12.920 -0.1362 -0.0440  0.0106
 7092PP      PP17196  14.530  12.468   1.847  0.0666 -0.1918  0.1919
 7093PP      PP17197   4.984   8.126   1.756  0.0339 -0.2506 -0.2895
 7094PP      PP17198  14.223   4.983   3.818  0.0540  0.0815 -0.1215
 7095PP      PP17199  12.081  10.893   4.964  0.1951  0.2201 -0.0750
 7096PP      PP17200  11.662  11.508   8.622  0.1387 -0.1840 -0.0407
 7097PP      PP17201  12.420  13.485  12.686  0.0772 -0.0758 -0.2913
 7098PP      PP17202  10.238   0.891   4.705  0.2472 -0.1267  0.4031
 7099PP      PP17203  14.220  12.057   1.917  0.0104 -0.3024 -0.0459
 7100PP      PP17204   5.368   2.796  10.386  0.2780  0.3965 -0.0047
 7101PP      PP17205  10.084   0.235  12.958  0.0540 -0.1643  0.2915
 7102PP      PP17206   1.879   1.784  10.239 -0.0042 -0.0792  0.1984
 7103PP      PP17207  11.554  11.765   1.964 -0.0848 -0.0860 -0.0364
 7104PP      PP17208  15.303  13.573  11.118 -0.0071  0.1669 -0.2294
 7105PP      PP17209   9.522   5.579   2.196  0.1829 -0.0208  0.0856
 7106PP      PP17210   6.076  12.696  11.762 -0.0967  0.0056 -0.1481
 7107PP      PP17211  11.976  11.818   5.043  0.0143  0.1423 -0.0291
 7108PP      PP17212   9.989  10.345   9.833 -0.1821  0.2294  0.2114
 7109PP      PP17213   4.457  14.260   0.952 -0.2639 -0.0491  0.0747
 7110PP      PP17214  14.768   5.851   8.665  0.0467  0.0935  0.2318
 7111PP      PP17215   9.892   6.246   4.278  0.0944 -0.0681  0.0593
 7112PP      PP17216  15.326   5.210  12.091 -0.2101  0.0450 -0.0969
 7113PP      PP17217   0.533  12.785  10.618 -0.3046 -0.2641 -0.0452
 7114PP      PP17218   7.528  13.965   9.727 -0.1087  0.1541  0.1054
 7115PP      PP17219  15.757  13.336  10.254 -0.0137  0.0038  0.2352
 7116PP      PP17220   0.594  11.590   0.309 -0.0131  0.0420  0.2697
 7117PP      PP17221   1.001   6.932   2.889  0.1431 -0.0319 -0.2841
 7118PP      PP17222   6.188  13.736   2.144  0.1031 -0.0567  0.0422
 7119PP      PP17223   7.643   4.891  12.580 -0.0013  0.0967 -0.0890
 7120PP      PP17224  13.102  11.496  10.009 -0.3739  0.1762  0.3146
 7121PP      PP17225   2.644  10.561   2.520  0.0385 -0.1860 -0.1368
 7122PP      PP17226   3.718   3.929   3.899 -0.2985 -0.0222 -0.2034
 7123PP      PP17227  13.943  11.340  10.271  0.0481 -0.2171 -0.1707
 7124PP      PP17228   3.506   6.844  11.013  0.1962  0.0433  0.1764
 7125PP      PP17229   3.187   5.519   1.262 -0.4132  0.1525  0.1792
 7126PP      PP17230   3.975   8.262   3.395  0.0186 -0.3333  0.1124
 7127PP      PP17231  13.921  10.176   1.019 -0.1779  0.0848 -0.0052
 7128PP      PP17232  15.325  12.621   4.400 -0.1531 -0.1072 -0.0245
 7129PP      PP17233   7.598   8.088  12.960 -0.2768 -0.2220 -0.1204
 7130PP      PP17234   5.675   1.477   3.763 -0.0903 -0.0397  0.0118
 7131PP      PP17235   9.630   9.240   3.870 -0.1565 -0.0031 -0.1802
 7132PP      PP17236   2.238   8.862   0.554 -0.0885  0.0266 -0.1231
 7133PP      PP17237  12.043  11.250  10.308 -0.1900  0.0045  0.0362
 7134PP      PP17238  12.259  10.850  10.416 -0.0052  0.1501  0.1258
 7135PP      PP17239  12.567  13.830  11.215 -0.2911 -0.1041 -0.3797
 7136PP      PP17240   2.397   1.873  10.303  0.0629  0.0105 -0.2969
 7137PP      PP17241   7.620   3.159   9.965  0.2411  0.3572 -0.2072
 7138PP      PP17242  10.002  14.891   1.254 -0.0296 -0.2006 -0.1653
 7139PP      PP17243   1.498   5.471   8.928  0.1318  0.1683  0.1694
 7140PP      PP17244   9.067  11.291  13.290 -0.0993  0.2308  0.2719
 7141PP      PP17245  10.400   8.749   3.091  0.0441 -0.0022  0.3876
 7142PP      PP17246   8.818  10.267  11.127 -0.1246 -0.1244  0.1736
 7143PP      PP17247   6.682  15.643  13.102  0.1460  0.2597  0.1499
 7144PP      PP17248  12.977  10.881   1.350 -0.3796 -0.0570 -0.2755
 7145PP      PP17249  14.800   9.302   3.142  0.1483  0.0631  0.0313
 7146PP      PP17250  13.051  10.814  11.028 -0.1092 -0.0552  0.3236
 7147PP      PP17251   5.600   9.085   4.095  0.0265  0.1633  0.2391
 7148PP      PP17252  15.303  11.691  13.094 -0.1707 -0.0468 -0.0061
 7149PP      PP17253   0.592   7.768   0.452 -0.0385  0.1301  0.0512
 7150PP      PP17254   3.146   2.845  10.243  0.0526  0.0462 -0.1038
 7151PP      PP17255   6.896   8.201   0.532 -0.1542  0.0333  0.0342
 7152PP      PP17256  12.332  14.990  13.440 -0.0723 -0.3331  0.0013
 7153PP      PP17257  10.665   9.427  11.596  0.1364  0.2273 -0.4146
 7154PP      PP17258   1.375  10.602  11.678  0.0153  0.1463 -0.0474
 7155PP      PP17259   0.018   4.360  11.123  0.2293 -0.2923 -0.0434
 7156PP      PP17260  15.269   6.684  10.042  0.1690  0.3291  0.3731
 7157PP      PP17261  14.720   7.941  12.159  0.1725  0.3040  0.1550
 7158PP      PP17262  13.208   6.106   9.945  0.1958  0.2741 -0.1276
 7159PP      PP17263  15.739   3.328   9.754 -0.1778 -0.3731  0.1618
 7160PP      PP17264   3.716  11.811  11.276  0.0057  0.2689  0.1653
 7161PP      PP17265   4.547  10.196   1.308 -0.2830  0.0012 -0.1449
 7162PP      PP17266   4.885   2.648   9.558 -0.2780  0.1379 -0.2021
 7163PP      PP17267  15.254   4.966   2.496 -0.0117  0.0165  0.1399
 7164PP      PP17268   0.643   2.257   9.710 -0.2336 -0.0628 -0.0351
 7165PP      PP17269   5.101   5.336   3.368 -0.1540  0.2763 -0.1571
 7166PP      PP17270  15.756   3.181   0.916 -0.0609 -0.0293  0.2040
 7167PP      PP17271   0.842   7.506   0.738  0.2403  0.2241 -0.1680
 7168PP      PP17272   6.746   4.084   3.137 -0.2386 -0.0814 -0.3085
 7169PP      PP17273   5.957   6.363  10.898 -0.2064 -0.0599 -0.0019
 7170PP      PP17274  14.654  13.379  13.478 -0.2357 -0.2098 -0.1901
 7171PP      PP17275  11.592   2.487   9.778  0.0526 -0.1828  0.0230
 7172PP      PP17276   4.162   1.962  10.828  0.2237 -0.0472  0.1452
 7173PP      PP17277  10.082   3.086   0.482 -0.0546 -0.1882 -0.0906
 7174PP      PP17278   6.219   6.180  12.998  0.0051 -0.0256 -0.3266
 7175PP      PP17279   0.343   4.127  13.069 -0.0838 -0.0479 -0.3963
 7176PP      PP17280   0.629  11.265   3.392 -0.2704  0.0774 -0.2013
 7177PP      PP17281  13.342  11.918  12.216 -0.1814  0.0264 -0.2352
 7178PP      PP17282   0.973   4.743  11.205 -0.0641 -0.0888 -0.0003
 7179PP      PP17283  13.158   5.548   1.417 -0.2694 -0.0170  0.3587
 7180PP      PP17284  13.542   3.658   0.316  0.1533  0.1522 -0.3026
 7181PP      PP17285  10.400  11.474   3.515  0.0844 -0.0707 -0.3714
 7182PP      PP17286   7.438   7.752  10.862  0.1490 -0.3072  0.2190
 7183PP      PP17287  15.694   6.460  10.250  0.0048 -0.2429 -0.1531
 7184PP      PP17288   2.289  13.911   1.953 -0.1125 -0.0144  0.0807
 7185PP      PP17289   8.688  10.794  13.135  0.2311 -0.4220 -0.2807
 7186PP      PP17290  13.508   1.276   9.450 -0.2653  0.1793 -0.1893
 7187PP      PP17291   6.817   3.918   0.398  0.3048 -0.0279  0.0775
 7188PP      PP17292   9.674  12.597   1.439 -0.3951 -0.1291  0.3228
 7189PP      PP17293   6.629   1.355   9.176 -0.1653  0.2073  0.0611
 7190PP      PP17294   0.546  11.789   1.268 -0.0577 -0.1709 -0.2167
 7191PP      PP17295   5.835   1.865   9.502  0.0703  0.2031 -0.0320
 7192PP      PP17296   3.346   5.299   2.688 -0.0512 -0.1949  0.1440
 7193PP      PP17297   2.672   9.265   2.341  0.2137 -0.3580 -0.0510
 7194PP      PP17298   7.568  13.078  12.683  0.0106 -0.1356 -0.4152
 7195PP      PP17299   1.915   8.496  13.321  0.0037 -0.0834 -0.0972
 7196PP      PP17300  13.832  14.822   3.454 -0.1028 -0.0059  0.4292
 7197PP      PP17301   9.920  15.184   0.762  0.2000 -0.0225 -0.4869
 7198PP      PP17302   1.932   5.001   3.210 -0.0037 -0.2524 -0.0463
 7199PP      PP17303  15.319   3.177   0.678 -0.1182 -0.1103  0.1241
 7200PP      PP17304   1.394   9.141  10.219  0.0258 -0.1313  0.0892
 7201PP      PP17305  12.551   7.435  12.597 -0.1644  0.2169 -0.0372
 7202PP      PP17306   9.528   9.037  12.392  0.0978 -0.1917 -0.0651
 7203PP      PP17307  15.838   3.835  13.197  0.2899 -0.2179 -0.0707
 7204PP      PP17308  13.868  15.717   3.844 -0.0642  0.2284 -0.1562
 7205PP      PP17309  10.369  12.255  10.301  0.3237  0.1538  0.0465
 7206PP      PP17310  10.911  15.605   2.420 -0.2853  0.0550 -0.0191
 7207PP      PP17311   9.141  11.525  12.393  0.2200  0.0159 -0.1782
 7208PP      PP17312   1.610  10.952   1.155  0.1877 -0.1161  0.0542
 7209PP      PP17313   6.138  13.788   3.832 -0.0747  0.3195  0.1611
 7210PP      PP17314   5.793  14.078  11.048  0.1558  0.1753 -0.1653
 7211PP      PP17315  15.411   6.082  13.253 -0.0988  0.0753  0.2996
 7212PP      PP17316   7.490  13.079  12.159 -0.1230  0.1009 -0.0817
 7213PP      PP17317   5.315   9.087  10.857  0.0561 -0.1052  0.3278
 7214PP      PP17318   4.625   6.726  10.098  0.3476  0.0987  0.0034
 7215PP      PP17319  10.128  12.211   4.161  0.3283 -0.0195  0.0614
 7216PP      PP17320  14.667   1.274   4.028 -0.2209 -0.0727 -0.0125
 7217PP      PP17321   7.107  11.697  12.762 -0.2688  0.1083  0.3732
 7218PP      PP17322  13.151   5.238   9.349 -0.2518  0.0686 -0.0139
 7219PP      PP17323   2.404   1.076  12.339  0.1606 -0.2307  0.2454
 7220PP      PP17324   8.440   4.356   8.853 -0.0079 -0.0731 -0.1258
 7221PP      PP17325   1.757   2.086   1.367 -0.0740  0.1424  0.2127
 7222PP      PP17326  15.567   8.324   3.126  0.0348  0.1700  0.0272
 7223PP      PP17327  15.511   7.043  10.991  0.1721 -0.1857 -0.0410
 7224PP      PP17328  13.230  11.463  11.347  0.1489 -0.0833 -0.1055
 7225PP      PP17329   3.334  12.480  12.433  0.2525 -0.1098 -0.1546
 7226PP      PP17330  11.151  14.702   3.267 -0.0144  0.0065  0.1005
 7227PP      PP17331   4.878  13.445   1.224 -0.0337  0.1354  0.1256
 7228PP      PP17332   6.546   9.474  11.508 -0.0133  0.2358 -0.2624
 7229PP      PP17333  13.549  13.405   0.979  0.1025 -0.0992  0.3030
 7230PP      PP17334   7.074   6.976  12.432 -0.0577  0.0226 -0.0058
 7231PP      PP17335  10.596  11.624   9.015  0.2161  0.4274 -0.1047
 7232PP      PP17336  13.229   2.250  12.780 -0.2486  0.0629  0.3295
 7233PP      PP17337   0.437  14.266   1.787 -0.1183 -0.1317  0.0922
 7234PP      PP17338  12.491  13.962   4.054 -0.0684 -0.2959 -0.1434
 7235PP      PP17339   6.357  14.237  13.242  0.1486  0.2218 -0.0112
 7236PP      PP17340   4.778   4.030   3.174 -0.1078 -0.0585 -0.4790
 7237PP      PP17341  14.869   5.829   1.965  0.1099 -0.0826 -0.1020
 7238PP      PP17342  15.190  12.613   3.612 -0.2218  0.0677 -0.2610
 7239PP      PP17343  15.302   5.734  12.689 -0.0580  0.0621 -0.1664
 7240PP      PP17344  12.612   7.949  12.849  0.0936  0.2481  0.3161
 7241PP      PP17345   9.910  10.087  12.781  0.0407 -0.0201 -0.0073
 7242PP      PP17346  15.304   8.297  10.310  0.2231  0.1041 -0.0068
 7243PP      PP17347  14.505  13.491  12.616  0.0627  0.2434  0.0064
 7244PP      PP17348   2.960  13.466   2.911 -0.1290 -0.1556  0.1738
 7245PP      PP17349  15.468   4.181   4.694  0.1697  0.0941  0.0240
 7246PP      PP17350   9.272   2.695   0.871  0.0178  0.5050  0.0397
 7247PP      PP17351   5.233   9.461  13.504 -0.0112  0.1218  0.0950
 7248PP      PP17352   0.054  13.026   0.593 -0.2681 -0.0977 -0.0505
 7249PP      PP17353   7.318  12.431   4.456 -0.0073 -0.1248 -0.1369
 7250PP      PP17354   2.794  11.821   2.984  0.0118 -0.0847 -0.1848
 7251PP      PP17355   1.036   5.417   8.764 -0.1361  0.0948 -0.0663
 7252PP      PP17356   4.993  15.305   2.017 -0.1241  0.2022 -0.3435
 7253PP      PP17357   5.681   5.461   2.153  0.3431  0.1856  0.0831
 7254PP      PP17358   2.192  10.668   2.361  0.3763 -0.1755  0.2341
 7255PP      PP17359   6.078   9.901  11.258  0.1156 -0.0413  0.1426
 7256PP      PP17360  13.278   9.423   9.398  0.1214  0.3401 -0.2032
 7257PP      PP17361   4.533  12.776  10.577  0.1348 -0.0183 -0.0168
 7258PP      PP17362  12.017   0.648  10.124 -0.1615  0.1321 -0.1216
 7259PP      PP17363  15.008   5.262   1.059  0.0428 -0.3806 -0.1434
 7260PP      PP17364   4.509   1.996   4.665  0.0049  0.1371 -0.5397
 7261PP      PP17365   5.693   4.991   1.814  0.0020 -0.0481  0.1422
 7262PP      PP17366  12.040   3.859  11.852  0.2321  0.1335  0.2617
 7263PP      PP17367  11.670   4.304   2.861  0.0159  0.5488  0.0479
 7264PP      PP17368  13.637  10.248  10.644 -0.0267 -0.0013 -0.3471
 7265PP      PP17369   1.844   0.755   0.526  0.1854 -0.1539  0.1306
 7266PP      PP17370  13.199   5.427   2.051  0.1584 -0.1585 -0.0604
 7267PP      PP17371  15.441   7.490   4.076 -0.1366  0.0363 -0.0352
 7268PP      PP17372   7.750   8.423   4.335  0.1189  0.1092 -0.1100
 7269PP      PP17373   5.837   8.310   2.258 -0.2524  0.1119  0.3262
 7270PP      PP17374   0.448  15.168   0.470  0.2740 -0.0093 -0.2004
 7271PP      PP17375   3.552   7.524   3.345  0.1507  0.0149 -0.1649
 7272PP      PP17376  15.258   9.361   0.304 -0.3287 -0.1815 -0.1913
 7273PP      PP17377  10.282   3.465  12.394  0.3117  0.1029  0.6759
 7274PP      PP17378  13.745   8.137   2.812  0.2158  0.1685 -0.0452
 7275PP      PP17379   0.838   2.055  12.632  0.0269 -0.0036 -0.2745
 7276PP      PP17380   8.135   5.260  11.384 -0.0679 -0.1899 -0.0435
 7277PP      PP17381  10.994   7.029   1.145  0.2783 -0.1736  0.0943
 7278PP      PP17382   8.930   0.291  12.039 -0.1367  0.0510 -0.0481
 7279PP      PP17383   5.027   0.105   4.417 -0.0390  0.0258  0.0010
 7280PP      PP17384  12.261   2.730   1.278 -0.0975  0.0890 -0.1752
 7281PP      PP17385   8.536   4.434   0.240 -0.1901 -0.1595  0.0185
 7282PP      PP17386   9.513   3.498   9.599  0.0868  0.0914 -0.1853
 7283PP      PP17387  14.914   1.104   1.076  0.3447  0.1259  0.1134
 7284PP      PP17388   8.621  11.312   2.688 -0.2653  0.1764 -0.3076
 7285PP      PP17389   7.223   3.171   1.423 -0.0684  0.0859 -0.0632
 7286PP      PP17390   0.405   4.553   4.162 -0.1113 -0.1632  0.2036
 7287PP      PP17391   5.101  14.111  11.553 -0.1167 -0.0721  0.1112
 7288PP      PP17392  14.993   5.773   1.315 -0.1921 -0.4275  0.0808
 7289PP      PP17393   8.979   5.981  12.825  0.0588 -0.1231  0.2421
 7290PP      PP17394   1.810   0.514  11.651  0.4414  0.0032 -0.0014
 7291PP      PP17395   4.807  13.460  12.677  0.0323 -0.0677  0.1233
 7292PP      PP17396   6.882   7.052  11.957  0.1063 -0.0082  0.4718
 7293PP      PP17397   6.803   2.156  13.303 -0.1368 -0.0828 -0.0810
 7294PP      PP17398  13.723  11.606   4.705  0.2487  0.3799 -0.1356
 7295PP      PP17399   1.917  11.969  11.464  0.2104 -0.0660 -0.1561
 7296PP      PP17400   5.051  12.198   2.646  0.0171 -0.0883  0.1886
 7297PP      PP17401  10.022   4.759   1.232  0.0462  0.0719  0.1588
 7298PP      PP17402   1.736   5.438   2.308 -0.4685  0.1546 -0.1147
 7299PP      PP17403  11.525   8.844   3.791 -0.0198 -0.0973 -0.0031
 7300PP      PP17404   7.788   6.604   1.460 -0.0786  0.0706  0.1140
 7301PP      PP17405   6.032  11.711  10.868 -0.1366 -0.2315 -0.1349
 7302PP      PP17406   6.151   1.679  12.094 -0.1158 -0.1074  0.1502
 7303PP      PP17407   0.462   3.740   2.034 -0.2464 -0.2357  0.0762
 7304PP      PP17408  11.416   5.044   9.825  0.3059  0.0799 -0.1948
 7305PP      PP17409  12.786   5.351  12.976  0.0286  0.2798 -0.2443
 7306PP      PP17410   5.068   7.509   2.804 -0.0625  0.0610 -0.0048
 7307PP      PP17411  12.276   7.236   2.005  0.0271  0.0782 -0.6163
 7308PP      PP17412  11.578  14.999   3.611 -0.0194 -0.0884 -0.1534
 7309PP      PP17413   5.534   4.101   3.832  0.2405  0.1037  0.1146
 7310PP      PP17414   7.189  10.576  13.064  0.2712 -0.3519  0.0640
 7311PP      PP17415  12.619  14.085   9.892 -0.0910  0.2376  0.0329
 7312PP      PP17416   4.537   9.770  11.870  0.2381  0.1805  0.3266
 7313PP      PP17417   5.788   0.609  10.792  0.0142  0.0375  0.1101
 7314PP      PP17418   6.486   1.263   9.754 -0.1385 -0.1478  0.0994
 7315PP      PP17419  12.576  11.085   4.887 -0.2539 -0.1608  0.0546
 7316PP      PP17420   5.076   9.050   3.211  0.2458 -0.1622 -0.0620
 7317PP      PP17421   2.935   3.248   3.502 -0.3935  0.0382  0.0164
 7318PP      PP17422  12.921  14.167   4.319 -0.1257  0.0237  0.1792
 7319PP      PP17423  15.584   9.704   1.446  0.3124 -0.0264  0.0789
 7320PP      PP17424   4.299  11.375   0.998  0.2956  0.2457 -0.1558
 7321PP      PP17425   6.652  13.853   3.396 -0.0438  0.1927 -0.0740
 7322PP      PP17426   9.651   5.321   3.177  0.0194 -0.0072  0.3352
 7323PP      PP17427  11.226   9.669  12.853  0.1140  0.4123  0.0614
 7324PP      PP17428   0.280  10.246   8.808  0.0489 -0.0462  0.1731
 7325PP      PP17429   2.019   1.725  13.087 -0.0717 -0.2173 -0.0006
 7326PP      PP17430   7.326   5.805  10.310 -0.0545  0.2873  0.0092
 7327PP      PP17431   9.831   2.462  10.629 -0.0889  0.0634 -0.1809
 7328PP      PP17432   0.517   8.831   3.333  0.4579  0.1249 -0.2830
 7329PP      PP17433   9.379   8.696   2.212  0.0945 -0.2222  0.0769
 7330PP      PP17434   6.391   4.485   3.219 -0.0723 -0.3688 -0.1907
 7331PP      PP17435   4.433  14.285   0.257 -0.0589  0.2190  0.2101
 7332PP      PP17436  14.148  10.170  11.368  0.3438  0.1594 -0.1364
 7333PP      PP17437   9.041  10.287   9.635 -0.2086  0.0250  0.0351
 7334PP      PP17438   3.606   1.623   2.317  0.2245  0.1529  0.1054
 7335PP      PP17439   9.406  11.226   8.920  0.3458  0.0091 -0.1949
 7336PP      PP17440   8.906   3.558   0.359  0.1665 -0.1158  0.2955
 7337PP      PP17441  14.240   1.527   9.903 -0.3341 -0.0819 -0.1391
 7338PP      PP17442  15.663   7.137   3.271 -0.1700 -0.2736  0.0640
 7339PP      PP17443   2.333   6.985   2.570  0.1971 -0.1678 -0.2411
 7340PP      PP17444   1.860  14.885   1.485  0.0518 -0.2130  0.1353
 7341PP      PP17445   2.460  15.309   2.155 -0.1449  0.1623  0.0975
 7342PP      PP17446   1.617  14.783  12.378 -0.2329  0.0290 -0.0752
 7343PP      PP17447   8.687  15.739   4.468 -0.1349 -0.1347 -0.1004
 7344PP      PP17448   1.649   0.001   0.406  0.1000  0.4674 -0.0487
 7345PP      PP17449  13.420   5.803  10.336 -0.2655 -0.1403  0.1951
 7346PP      PP17450  12.103   6.118   8.890  0.0131  0.1613 -0.0865
 7347PP      PP17451  13.458  11.541  10.396 -0.1572  0.0667  0.2206
 7348PP      PP17452  10.202  12.825  11.154  0.0152 -0.0261  0.0651
 7349PP      PP17453   1.405   6.757  10.317 -0.1762 -0.0161  0.0700
 7350PP      PP17454   8.410  13.040   1.046 -0.0316  0.0853  0.0130
 7351PP      PP17455   1.343   5.822   0.239  0.3481  0.2866 -0.1499
 7352PP      PP17456   4.089   5.263  10.221  0.2091  0.1615  0.3618
 7353PP      PP17457  10.743   8.573   9.704 -0.1076  0.0766  0.1607
 7354PP      PP17458  12.348   0.430   3.043  0.6999 -0.1620 -0.0129
 7355PP      PP17459   0.054  10.899   0.014  0.0650  0.0175  0.2060
 7356PP      PP17460   3.209  15.451  10.465 -0.1609  0.1776  0.1107
 7357PP      PP17461  12.812   8.024   2.153  0.0248  0.1437  0.0312
 7358PP      PP17462  11.580   7.693  13.090 -0.0027  0.1630 -0.0563
 7359PP      PP17463   5.298  12.734  11.852 -0.1367  0.1106  0.2031
 7360PP      PP17464  10.975   6.021   2.157  0.0886 -0.1474 -0.0719
 7361PP      PP17465   7.970   9.429   2.257 -0.2666  0.0467  0.1563
 7362PP      PP17466  13.907   3.385   2.290  0.0413 -0.0754 -0.1688
 7363PP      PP17467  15.062   0.967  11.973 -0.0961  0.2289  0.1545
 7364PP      PP17468   8.794  13.741  11.390  0.2915 -0.1069  0.2032
 7365PP      PP17469   4.610   9.058  12.643  0.1783 -0.1806 -0.2416
 7366PP      PP17470   2.865  10.701  11.708  0.2140 -0.1120  0.2958
 7367PP      PP17471   1.547   1.284  12.250 -0.0765  0.1271 -0.0893
 7368PP      PP17472   9.930   2.713   4.520  0.1657 -0.0157  0.1228
 7369PP      PP17473  11.822   3.199   1.874 -0.0846  0.1980 -0.1479
 7370PP      PP17474  12.291  12.709   4.303  0.2771 -0.0997 -0.3300
 7371PP      PP17475  14.697   0.684  10.774  0.1346 -0.1511 -0.0615
 7372PP      PP17476   0.892  10.969   0.109 -0.0248  0.1165  0.1841
 7373PP      PP17477   6.834  13.084   2.469  0.0479 -0.2318  0.3399
 7374PP      PP17478   2.942  15.104  10.655 -0.1747  0.1809 -0.2478
 7375PP      PP17479   9.399  10.665  12.123  0.0427 -0.1690  0.1740
 7376PP      PP17480   3.911   7.464  11.026  0.0710  0.1593  0.2353
 7377PP      PP17481  14.802   1.325  11.358  0.1248 -0.0745 -0.3231
 7378PP      PP17482   3.950  14.261  10.985 -0.6063 -0.0393  0.1500
 7379PP      PP17483   2.476  11.162   1.332 -0.0337 -0.1222  0.0600
 7380PP      PP17484   4.829   1.440  11.804  0.0321  0.0641  0.1893
 7381PP      PP17485   3.447   9.823   0.603  0.2989  0.0022  0.0402
 7382PP      PP17486   3.953   8.139  13.526  0.0091 -0.0084 -0.2684
 7383PP      PP17487   8.086   5.111  12.370  0.1689  0.2091  0.0014
 7384PP      PP17488   1.242  14.806  13.142  0.0175  0.2921 -0.4433
 7385PP      PP17489  13.282   9.789   9.743  0.1515 -0.0116  0.0854
 7386PP      PP17490  14.753   7.011  13.416  0.1146  0.0546 -0.2312
 7387PP      PP17491  12.926   1.139  10.462 -0.0736 -0.2024 -0.0096
 7388PP      PP17492   3.797  10.291  11.009  0.0807  0.2401 -0.6084
 7389PP      PP17493   5.573   9.148   0.325  0.1761 -0.0627  0.0454
 7390PP      PP17494  11.011   7.987   1.642 -0.0377 -0.1533  0.3390
 7391PP      PP17495   2.949   3.339  10.975  0.0415  0.3176 -0.2417
 7392PP      PP17496  14.487   7.856  13.241  0.0509  0.0813 -0.2964
 7393PP      PP17497   2.752   6.059  12.507  0.0227  0.2341  0.3281
 7394PP      PP17498  15.058  15.779   0.238  0.0488  0.2297 -0.0321
 7395PP      PP17499   2.165   2.434   9.524  0.0679 -0.0414  0.2153
 7396PP      PP17500   5.997   5.811   0.445 -0.2614 -0.2901 -0.0902
 7397PP      PP17501   8.794   7.251   2.340 -0.1274 -0.1523 -0.4168
 7398PP      PP17502   0.566   3.757   0.382 -0.3460  0.0128  0.0175
 7399PP      PP17503  13.991   8.140  12.478 -0.0874  0.1371 -0.0161
 7400PP      PP17504  10.033  12.306   1.801 -0.0218  0.4368 -0.1760
 7401PP      PP17505   4.387   3.332   2.672  0.1498  0.1303  0.1721
 7402PP      PP17506  15.078   8.264  11.491 -0.3799 -0.0862 -0.2081
 7403PP      PP17507   8.922  10.503  12.175 -0.2895 -0.2448  0.0897
 7404PP      PP17508  15.823  14.330   0.430  0.2646  0.3219  0.2278
 7405PP      PP17509   0.625  13.381   9.132  0.2423 -0.0782 -0.0349
 7406PP      PP17510  10.918  12.874  13.414  0.1922  0.0180  0.1519
 7407PP      PP17511  11.131   3.158   9.859  0.2004  0.0043  0.0522
 7408PP      PP17512   3.945   6.471  13.329 -0.0538 -0.1377 -0.5117
 7409PP      PP17513  13.230   9.663   2.157  0.1963  0.0674  0.1531
 7410PP      PP17514  11.360  12.702   3.065 -0.1328 -0.1399 -0.1595
 7411PP      PP17515   4.384   1.508  11.301 -0.1369 -0.3206 -0.0124
 7412PP      PP17516   5.408   1.587  10.970  0.0617 -0.2304 -0.1592
 7413PP      PP17517  14.023   1.271  12.661  0.0376 -0.1277  0.1336
 7414PP      PP17518   4.788   0.923  11.977  0.1751 -0.0049  0.0636
 7415PP      PP17519  10.337  12.033  10.766 -0.1061  0.0728 -0.2277
 7416PP      PP17520  11.209  13.626   2.215 -0.3891  0.2141 -0.0441
 7417PP      PP17521  11.852   8.966  11.431 -0.4514 -0.1129  0.1915
 7418PP      PP17522  10.099   0.775   0.218  0.1614 -0.0456  0.0871
 7419PP      PP17523   4.145   0.357  10.402 -0.0862 -0.0787 -0.4492
 7420PP      PP17524  13.787   7.874   3.431  0.0050 -0.3181  0.2602
 7421PP      PP17525   8.824   0.304  12.928  0.2040 -0.1607 -0.0615
 7422PP      PP17526   3.699   7.908  11.131 -0.1023  0.2226 -0.3243
 7423PP      PP17527   1.359   0.756   1.468  0.0123 -0.0439  0.1813
 7424PP      PP17528  13.769   0.412  11.206  0.1306 -0.0607  0.4887
 7425PP      PP17529   0.750   1.257   9.552  0.2416  0.1268  0.2651
 7426PP      PP17530   1.429  12.955   9.105 -0.4457 -0.1186 -0.0948
 7427PP      PP17531   5.141  10.846   2.536 -0.2978 -0.0510 -0.0197
 7428PP      PP17532  12.535   9.721  12.584 -0.2325  0.2125  0.0458
 7429PP      PP17533   6.597   9.551   9.252 -0.0565  0.0749 -0.1273
 7430PP      PP17534  13.352  13.410   4.547  0.2306 -0.0476  0.2661
 7431PP      PP17535  14.147  11.893   3.853  0.0788 -0.2118 -0.4764
 7432PP      PP17536   1.980   6.290   3.843 -0.0801  0.0387  0.1626
 7433PP      PP17537   2.809   6.128   2.617 -0.0437  0.0859 -0.1662
 7434PP      PP17538   7.012   1.100  10.308  0.3183  0.0534  0.0231
 7435PP      PP17539   3.780   1.157   1.398 -0.0942 -0.0255 -0.0010
 7436PP      PP17540  11.560  11.920   8.865  0.0566  0.1793  0.2006
 7437PP      PP17541   0.765   8.634   8.053  0.0644  0.0479 -0.0881
 7438PP      PP17542   2.651   0.855  11.900 -0.0867  0.0515  0.0199
 7439PP      PP17543   6.126   1.067   4.510  0.0439 -0.1110 -0.2002
 7440PP      PP17544   2.211   7.938   4.310 -0.0682  0.1227  0.0843
 7441PP      PP17545  10.627  10.763  13.396  0.0216  0.0676 -0.0789
 7442PP      PP17546   2.937  12.143   9.640 -0.0388 -0.0230 -0.0773
 7443PP      PP17547   9.523   6.017  11.287  0.0775 -0.1554  0.2743
 7444PP      PP17548   2.726   7.006   1.662  0.0981 -0.2589 -0.1421
 7445PP      PP17549  12.373   6.540   1.360  0.0333 -0.3108  0.0031
 7446PP      PP17550   3.084  11.286  13.330 -0.0839  0.1559 -0.2619
 7447PP      PP17551   6.101   0.001   9.047 -0.0822 -0.0207 -0.4990
 7448PP      PP17552  15.619   6.599  12.056 -0.2916  0.0959  0.1779
 7449PP      PP17553   2.298   1.848   4.582 -0.1470 -0.1137 -0.1375
 7450PP      PP17554   5.629   5.553   3.459  0.0533 -0.1258  0.3176
 7451PP      PP17555  15.303  11.088   0.163 -0.0945  0.3952 -0.0920
 7452PP      PP17556   7.942   7.170   4.149 -0.3497  0.0782 -0.0071
 7453PP      PP17557   4.339   3.655  10.057  0.0540  0.3115  0.0750
 7454PP      PP17558   9.279   9.940   2.341  0.1751 -0.1668  0.1962
 7455PP      PP17559   1.040   9.616  10.249 -0.0493 -0.0078 -0.1253
 7456PP      PP17560   1.043  12.122  12.870  0.0382  0.0855 -0.2370
 7457PP      PP17561   7.653  11.447  10.328 -0.1650  0.1419  0.0936
 7458PP      PP17562   7.346   9.958   3.936 -0.1772 -0.3488  0.0270
 7459PP      PP17563  14.061  13.751   3.895  0.1857  0.2726 -0.0844
 7460PP      PP17564   8.743   9.582  12.141  0.0391  0.2452  0.0756
 7461PP      PP17565  15.016   2.495   0.667 -0.3246 -0.0814  0.5418
 7462PP      PP17566   1.393  13.926   1.255  0.2361 -0.0459  0.0789
 7463PP      PP17567  12.618   2.663  10.827 -0.0712  0.0571 -0.2940
 7464PP      PP17568  15.273   8.898  10.957  0.0692 -0.1065 -0.1674
 7465PP      PP17569  11.277   0.421  13.354  0.0585 -0.1775  0.3461
 7466PP      PP17570  12.619   3.754   2.068 -0.1666  0.0815  0.4711
 7467PP      PP17571  11.216   6.387   2.339 -0.1653 -0.0904 -0.1074
 7468PP      PP17572  11.240  11.119   9.323 -0.0000  0.0649 -0.2778
 7469PP      PP17573  15.021   1.562   9.265 -0.2987 -0.1252  0.3086
 7470PP      PP17574   6.294  12.262   2.327 -0.0721  0.1053  0.1100
 7471PP      PP17575   2.522   4.676   2.769  0.1852 -0.0456  0.3130
 7472PP      PP17576   2.628  10.721   1.047 -0.1977  0.2790 -0.0780
 7473PP      PP17577   3.728   3.430   4.054  0.0867  0.2789 -0.4738
 7474PP      PP17578   1.198   1.689   2.957 -0.1970  0.2257 -0.1494
 7475PP      PP17579   8.578  13.235   0.570  0.1101  0.0574 -0.0952
 7476PP      PP17580   9.989   1.677   9.654 -0.0772 -0.0218 -0.0572
 7477PP      PP17581   0.986  14.781   9.277  0.0711  0.0599 -0.0442
 7478PP      PP17582   0.270   8.773   1.706 -0.0829 -0.0121  0.0524
 7479PP      PP17583   1.089   9.278   9.792 -0.1302 -0.0408  0.3259
 7480PP      PP17584  10.511  15.370   3.445 -0.1387  0.0496 -0.2471
 7481PP      PP17585   3.697  14.872  10.293 -0.0397 -0.3386  0.1950
 7482PP      PP17586  14.538  11.215   9.578  0.2321 -0.0597  0.1598
 7483PP      PP17587  11.349   3.639   4.724 -0.0988 -0.0398 -0.2711
 7484PP      PP17588   2.702   4.214   3.872  0.1541 -0.1855  0.1262
 7485PP      PP17589   8.107   4.925   3.787  0.3060  0.0616  0.1025
 7486PP      PP17590  14.446   3.179   4.099  0.4373  0.1009 -0.0702
 7487PP      PP17591   8.153  10.534   1.603  0.2639  0.1037  0.0265
 7488PP      PP17592  10.700   4.328  13.110 -0.2406 -0.0192  0.2236
 7489PP      PP17593   2.345   8.071  11.317  0.0315  0.1297 -0.1083
 7490PP      PP17594  15.817   4.888  11.939 -0.2541  0.0509  0.0489
 7491PP      PP17595  13.392   6.814   0.377 -0.0748  0.6174  0.3486
 7492PP      PP17596  13.500   4.649  12.100  0.0571  0.3479  0.1364
 7493PP      PP17597  15.559   7.636  11.781  0.2120 -0.1145 -0.3048
 7494PP      PP17598   4.116  11.138   2.459 -0.2594 -0.0451 -0.2317
 7495PP      PP17599  15.017   1.745   1.168 -0.1027  0.2271 -0.0288
 7496PP      PP17600   5.907  14.574   9.610  0.3877  0.0892  0.0621
 7497PP      PP17601   7.242  10.944   0.699  0.1214 -0.3063 -0.0443
 7498PP      PP17602  10.282  13.716  11.387  0.2352  0.1735 -0.0450
 7499PP      PP17603  15.630   7.995   3.905 -0.2083 -0.2951  0.0674
 7500PP      PP17604   5.074   8.896   3.946 -0.1847  0.1424 -0.0862
 7501PP      PP17605   3.049  14.076   4.109 -0.1491  0.1790 -0.0693
 7502PP      PP17606   7.852   3.363   3.981 -0.1015 -0.0442  0.0541
 7503PP      PP17607  14.566  12.111   4.759  0.1475  0.2487 -0.0384
 7504PP      PP17608   4.770   7.134   9.628  0.0291  0.1902 -0.2626
 7505PP      PP17609  11.273   8.442   9.634  0.2431  0.1461  0.1400
 7506PP      PP17610   1.952  14.037   2.286 -0.0161  0.1750  0.0328
 7507PP      PP17611  11.992  11.851   2.807  0.1064  0.1273  0.0307
 7508PP      PP17612   5.465   5.950   1.951 -0.2997  0.2667  0.1283
 7509PP      PP17613   9.522   8.963   2.597  0.1570  0.1059 -0.1852
 7510PP      PP17614   1.703   7.556  10.772  0.0357 -0.1531  0.0030
 7511PP      PP17615   8.557  14.106   9.878 -0.0393  0.1247  0.5694
 7512PP      PP17616   2.000   7.228   3.556 -0.0571  0.0010  0.2518
 7513PP      PP17617   8.404  12.403  11.312 -0.1899 -0.0350 -0.2518
 7514PP      PP17618  15.631   1.815  13.056  0.2046 -0.2675 -0.0627
 7515PP      PP17619  15.562   5.536   3.060  0.1880  0.1887  0.1590
 7516PP      PP17620  14.477   0.197  10.612  0.0994 -0.1030 -0.0221
 7517PP      PP17621   5.058   1.884  10.805  0.4469 -0.1381  0.1580
 7518PP      PP17622   0.265   1.217   8.256 -0.1338  0.0663 -0.1949
 7519PP      PP17623  13.222   2.098   9.711 -0.0632 -0.3766  0.0074
 7520PP      PP17624  12.919   0.819  11.048 -0.0127 -0.2356 -0.1584
 7521PP      PP17625   3.581   9.457   0.258  0.0806  0.1996  0.0067
 7522PP      PP17626   9.427   9.686   1.814 -0.0080  0.0493 -0.0183
 7523PP      PP17627   5.398   7.234  10.997  0.0343  0.2171  0.3152
 7524PP      PP17628   0.708   8.981  12.096 -0.0546 -0.1731  0.0959
 7525PP      PP17629   3.974  11.716   2.455 -0.0423  0.0358 -0.1606
 7526PP      PP17630  11.114  10.249   3.857 -0.1461  0.1681  0.2701
 7527PP      PP17631   1.232   5.144  11.346  0.1354 -0.0789 -0.1693
 7528PP      PP17632  11.028   5.514   3.807 -0.0758 -0.0421 -0.1249
 7529PP      PP17633   7.857   5.313  10.989  0.1531  0.1071  0.0332
 7530PP      PP17634  11.379   4.894  10.292 -0.0420 -0.1797  0.0829
 7531PP      PP17635   7.325   9.058   0.382  0.0594  0.1344 -0.0932
 7532PP      PP17636   1.897   1.062   4.044 -0.1268  0.1385 -0.2320
 7533PP      PP17637  11.340  10.797   3.519  0.0201 -0.0428 -0.0412
 7534PP      PP17638   1.309  10.888   0.391 -0.2344 -0.1121 -0.1691
 7535PP      PP17639   4.884  13.847  11.260 -0.0789  0.3721 -0.0294
 7536PP      PP17640  11.807   3.645   2.948 -0.1753  0.2875  0.1595
 7537PP      PP17641   2.820   8.358   2.027 -0.0636 -0.0253  0.0276
 7538PP      PP17642  15.658  12.112  13.410  0.0931 -0.0695 -0.0324
 7539PP      PP17643  13.530   7.279   2.344  0.0471  0.2970  0.0716
 7540PP      PP17644  15.411   8.501   2.044  0.1404  0.3260  0.1995
 7541PP      PP17645   8.607  11.934   1.681  0.1491 -0.1965 -0.0596
 7542PP      PP17646  10.671  14.482   4.602  0.0836 -0.2047 -0.2748
 7543PP      PP17647   0.558   5.428   2.150  0.1770 -0.2489 -0.0010
 7544PP      PP17648  10.041   9.024   2.838 -0.2051 -0.0380  0.1546
 7545PP      PP17649  14.372   6.080   9.596  0.0847  0.1194 -0.0040
 7546PP      PP17650   2.299   2.399   3.818  0.2540 -0.3810  0.2111
 7547PP      PP17651   3.565   1.278  11.374  0.0043 -0.1131  0.0716
 7548PP      PP17652  12.666   5.401   2.754 -0.0795 -0.0333 -0.0131
 7549PP      PP17653  12.349   1.788   1.475  0.1838 -0.0109  0.2805
 7550PP      PP17654  10.290   8.256   1.220 -0.0854 -0.0421 -0.0369
 7551PP      PP17655  11.690  10.556   0.589 -0.1263  0.5101 -0.1921
 7552PP      PP17656   0.014   7.867   1.794 -0.3712 -0.0899  0.0884
 7553PP      PP17657   7.181   8.188  10.788  0.3041 -0.2678 -0.2506
 7554PP      PP17658  14.959   7.546   3.268 -0.0708  0.4068 -0.1108
 7555PP      PP17659   3.485   9.867  12.811  0.0195  0.0365  0.0071
 7556PP      PP17660  14.540  14.240   1.764 -0.3089 -0.0022 -0.0165
 7557PP      PP17661  14.699   0.259  12.173  0.0221 -0.1027  0.1839
 7558PP      PP17662   4.068  14.774   9.882 -0.1220  0.2695 -0.1125
 7559PP      PP17663  12.535   6.694  11.871  0.3107  0.0467  0.1926
 7560PP      PP17664   2.467  12.379   1.371  0.0037 -0.0066 -0.1222
 7561PP      PP17665  13.670  15.843  10.348 -0.0492  0.0019  0.0604
 7562PP      PP17666  15.847   4.138   0.741 -0.0064  0.1885 -0.0176
 7563PP      PP17667  10.594   6.513  13.357 -0.1618  0.1842  0.1291
 7564PP      PP17668  12.227   5.210  11.835  0.1760 -0.0381  0.2447
 7565PP      PP17669  15.664  11.787   1.318  0.0374 -0.1317  0.0647
 7566PP      PP17670  10.034  13.226   2.966 -0.3981  0.0644 -0.0925
 7567PP      PP17671   1.272   3.383  10.941 -0.0171  0.0303 -0.0186
 7568PP      PP17672   8.810  14.670   3.450  0.2284  0.0128  0.0211
 7569PP      PP17673   4.226   9.751  10.385 -0.2707  0.1347  0.0785
 7570PP      PP17674  14.681  11.752   0.042  0.2507 -0.0523 -0.0609
 7571PP      PP17675  15.523  13.675   3.519  0.0326  0.0520  0.0596
 7572PP      PP17676  15.830  15.590   3.900  0.1389  0.2525 -0.0990
 7573PP      PP17677   6.783   3.540   1.380 -0.0900 -0.0214 -0.2163
 7574PP      PP17678  13.462  12.613  12.089  0.2321 -0.4544 -0.0797
 7575PP      PP17679   0.082   2.769  11.644 -0.0115 -0.2273 -0.2196
 7576PP      PP17680  12.377  11.620  10.962 -0.0591  0.2464 -0.2268
 7577PP      PP17681   9.777   7.295   4.102  0.0792  0.0709 -0.2726
 7578PP      PP17682   1.111   1.355   1.617  0.2451  0.1366  0.1860
 7579PP      PP17683  10.793   4.175   9.558 -0.0766  0.2753  0.0529
 7580PP      PP17684   2.890   9.200   9.851 -0.0827  0.1950  0.0194
 7581PP      PP17685   9.561  12.973  11.836 -0.0297  0.4245 -0.0735
 7582PP      PP17686   7.061   8.788   9.322  0.2005  0.1186  0.1085
 7583PP      PP17687   1.500   6.288  10.485  0.1912  0.2178  0.1203
 7584PP      PP17688  12.332   3.405   4.937  0.2535 -0.1524  0.0642
 7585PP      PP17689   6.978   5.759  13.227 -0.0403 -0.0984 -0.1262
 7586PP      PP17690   1.937  15.339   2.185  0.1027  0.0165  0.1489
 7587PP      PP17691   3.661   2.235   9.963  0.0373 -0.3331 -0.0192
 7588PP      PP17692   0.577   6.393   8.893  0.0903  0.0977  0.2934
 7589PP      PP17693  13.347  14.469   9.322  0.3987 -0.0833 -0.2151
 7590PP      PP17694   9.276   0.819   4.030 -0.0627 -0.2241  0.0533
 7591PP      PP17695   7.657   2.353  10.104 -0.1117 -0.3635  0.0262
 7592PP      PP17696   2.582   7.295   0.641  0.1257  0.2659 -0.1252
 7593PP      PP17697   4.548   5.624   1.015 -0.4995  0.2236 -0.2948
 7594PP      PP17698   5.166  14.566   8.896  0.0232  0.0934  0.0906
 7595PP      PP17699   7.587  13.130   3.605 -0.0912  0.0713 -0.2032
 7596PP      PP17700   3.996   8.068   1.076  0.3693  0.0812 -0.1270
 7597PP      PP17701  10.321  12.678  13.177  0.1487 -0.1157  0.0390
 7598PP      PP17702  12.515   6.829  11.411 -0.4052  0.1370  0.4232
 7599PP      PP17703   1.527   3.119   3.234  0.3783  0.1067  0.0777
 7600PP      PP17704  14.516   9.186   2.376  0.3221 -0.2095  0.1033
 7601PP      PP17705  15.360   9.419  11.937 -0.1846 -0.0478 -0.0496
 7602PP      PP17706   6.359  12.856  12.760  0.3088  0.0766 -0.0032
 7603PP      PP17707  11.113   0.807   0.208  0.1817  0.0428  0.2731
 7604PP      PP17708   0.237   4.673  11.595  0.0397  0.3740 -0.2948
 7605PP      PP17709   1.765  15.833  12.492  0.2198  0.0926 -0.0035
 7606PP      PP17710   1.874   2.020  11.252 -0.0255  0.0405 -0.0350
 7607PP      PP17711   7.828   7.947   0.794 -0.3468 -0.0710 -0.0496
 7608PP      PP17712   6.058  15.813   2.539  0.2833 -0.0927 -0.1493
 7609PP      PP17713  14.350  14.543  12.846  0.0268 -0.3763 -0.0631
 7610PP      PP17714   9.446   2.378   1.649  0.1669  0.1204 -0.0978
 7611PP      PP17715   0.951   7.329   1.376  0.3386  0.0381 -0.0932
 7612PP      PP17716   6.454  14.491  11.593 -0.0400  0.0924 -0.1785
 7613PP      PP17717  12.109   6.208   0.090 -0.0073  0.0065  0.2879
 7614PP      PP17718   9.843   4.144   1.119  0.0281 -0.0579  0.0388
 7615PP      PP17719   8.783   6.053   9.435 -0.3000 -0.3195 -0.0470
 7616PP      PP17720   8.363  12.451   4.280 -0.2175  0.0984 -0.2017
 7617PP      PP17721  13.034  15.663  13.349 -0.0608 -0.1531  0.1479
 7618PP      PP17722   1.021   9.396   3.381  0.1206  0.0192  0.0854
 7619PP      PP17723   5.337  12.485   3.796 -0.1969 -0.0022  0.0866
 7620PP      PP17724   1.635  12.301   9.781  0.0430 -0.2019  0.1489
 7621PP      PP17725   4.184   1.303   3.068  0.0438 -0.2452  0.1341
 7622PP      PP17726  12.282   8.397   0.753 -0.0351 -0.2217 -0.1166
 7623PP      PP17727  13.339   6.506   0.846  0.1905 -0.0827 -0.2639
 7624PP      PP17728   4.358  11.960   0.716 -0.2039 -0.2248  0.1318
 7625PP      PP17729   0.558   5.627  11.038 -0.1941  0.0292 -0.1070
 7626PP      PP17730   7.521  11.619  10.750  0.2005 -0.4644 -0.3009
 7627PP      PP17731  13.909   9.442  10.552 -0.2772  0.0055  0.2195
 7628PP      PP17732   4.306  10.009   3.900  0.0433  0.0414 -0.3247
 7629PP      PP17733   5.687  13.182   1.406 -0.1175  0.1057 -0.0755
 7630PP      PP17734   9.044   2.315  11.104  0.2263  0.2056  0.0830
 7631PP      PP17735   9.123   7.569   8.246 -0.1223 -0.2661 -0.1889
 7632PP      PP17736  13.997  10.378   2.205  0.0538 -0.0848  0.2723
 7633PP      PP17737   1.430   9.168   3.632  0.0218 -0.0443 -0.2168
 7634PP      PP17738   7.580  11.802   1.982  0.0013  0.3115 -0.1054
 7635PP      PP17739  14.923  14.914  10.924 -0.2328  0.3014 -0.1970
 7636PP      PP17740  10.986   3.636   4.410 -0.4665  0.4994 -0.1321
 7637PP      PP17741   4.741  13.277  11.373  0.0626  0.0068  0.1686
 7638PP      PP17742   2.116   0.493   9.978 -0.2154 -0.0996  0.2797
 7639PP      PP17743  11.641   7.521   2.521  0.0621 -0.1859  0.0762
 7640PP      PP17744   8.489   4.610  10.643  0.0704 -0.0891  0.0775
 7641PP      PP17745   7.094   4.797   1.592 -0.2482 -0.1226 -0.1110
 7642PP      PP17746   4.774   5.480  12.083 -0.1115  0.1143  0.2625
 7643PP      PP17747  13.734   2.360  10.905  0.0815  0.3201 -0.3951
 7644PP      PP17748   9.603  14.682   4.917 -0.3523 -0.1742  0.2787
 7645PP      PP17749   7.638   8.634  10.065  0.0294  0.3549  0.0633
 7646PP      PP17750   1.214   7.658  10.689  0.0832  0.0238 -0.1419
 7647PP      PP17751   5.153   0.935  12.389  0.1612 -0.3761  0.0734
 7648PP      PP17752   1.205   6.234  13.196 -0.2280  0.1055 -0.1579
 7649PP      PP17753   9.373  11.382  12.804 -0.1096  0.1950 -0.0183
 7650PP      PP17754   6.812   2.145   3.320  0.2282  0.3020 -0.0833
 7651PP      PP17755  14.137   5.724  13.107  0.2713 -0.3625  0.2080
 7652PP      PP17756  14.543  12.775  13.367 -0.1799  0.1035 -0.1495
 7653PP      PP17757   9.443   3.637   2.306  0.1785  0.0946 -0.0134
 7654PP      PP17758   5.433   6.548   0.815  0.2523  0.0590  0.0232
 7655PP      PP17759   4.957   4.628  12.352 -0.0212 -0.1494  0.2981
 7656PP      PP17760  13.359  12.420  10.378 -0.0532  0.3440 -0.0056
 7657PP      PP17761  13.687   7.072  13.466  0.1819  0.0484 -0.0910
 7658PP      PP17762   1.302   2.046  11.949  0.2458 -0.0766 -0.0430
 7659PP      PP17763   3.576   5.119  11.434  0.1275 -0.1004  0.0975
 7660PP      PP17764  15.331   2.639   2.010  0.0788  0.0587 -0.2264
 7661PP      PP17765   7.297   2.097   3.496  0.2998  0.3460  0.0090
 7662PP      PP17766   0.098   1.464   3.061 -0.0845  0.2673 -0.1963
 7663PP      PP17767  15.313   7.716  13.022  0.0060  0.1276 -0.2479
 7664PP      PP17768  11.697   5.320  11.947 -0.0454 -0.1997 -0.2104
 7665PP      PP17769   7.744   9.605   9.140 -0.5691  0.2587 -0.1125
 7666PP      PP17770   6.016   1.004   3.967  0.0626  0.2188 -0.0090
 7667PP      PP17771   1.130   8.354   3.170  0.3543  0.1875 -0.1050
 7668PP      PP17772   8.868   7.245   1.138  0.2440 -0.3119  0.0575
 7669PP      PP17773  14.555  11.539   4.118 -0.0724 -0.0870  0.0368
 7670PP      PP17774  12.014   1.771   2.824  0.2256 -0.0145  0.2430
 7671PP      PP17775   9.468   7.978   8.290  0.3630  0.2772 -0.1721
 7672PP      PP17776  14.870  12.095   3.189  0.1998 -0.0061  0.0671
 7673PP      PP17777   0.528  14.662   9.129 -0.1005 -0.0750  0.2653
 7674PP      PP17778   2.048  13.115   2.655  0.1322 -0.1352  0.0636
 7675PP      PP17779  13.030  12.422   4.863  0.0633 -0.1844 -0.0288
 7676PP      PP17780  11.523  11.615   2.426 -0.0893 -0.2716 -0.1294
 7677PP      PP17781   4.051   9.183  13.125  0.0288 -0.2413  0.3058
 7678PP      PP17782   5.078   0.726   2.067  0.0669  0.1571 -0.0933
 7679PP      PP17783   4.723   8.888   3.589  0.2746  0.0612  0.0811
 7680PP      PP17784   7.592   3.116   3.025 -0.2568  0.3265 -0.1629
 7681PP      PP17785   1.105   0.742   4.398 -0.2918 -0.0326 -0.1093
 7682PP      PP17786   3.507   1.269   3.389 -0.0229 -0.1637 -0.1034
 7683PP      PP17787   5.770   4.808  10.269  0.0779 -0.1904 -0.1466
 7684PP      PP17788  14.965   8.070  13.103  0.2697  0.1729  0.0336
 7685PP      PP17789  11.536   3.702   0.652 -0.1176  0.0571 -0.0983
 7686PP      PP17790   6.510   9.285  10.019  0.2598 -0.1160 -0.1698
 7687PP      PP17791   5.041   8.570   3.291  0.1159  0.2228 -0.0520
 7688PP      PP17792   1.382  14.858   0.160 -0.2638 -0.1497  0.2704
 7689PP      PP17793   8.716   9.137   0.654  0.0704  0.2934 -0.0597
 7690PP      PP17794   9.568  11.643   4.046 -0.1692  0.1073 -0.1935
 7691PP      PP17795   0.941  11.914   0.384 -0.0471 -0.2534  0.2455
 7692PP      PP17796   0.725   0.873  11.329 -0.0510  0.0841 -0.2066
 7693PP      PP17797   6.943  15.343  11.038  0.1878  0.0054  0.0930
 7694PP      PP17798  14.318  12.963   9.674 -0.0285  0.0374 -0.1643
 7695PP      PP17799   7.257   4.292   3.143  0.0331  0.0494  0.1742
 7696PP      PP17800  14.464   8.960   3.797 -0.4215  0.1009 -0.0453
 7697PP      PP17801  14.282  13.570   3.311  0.0972 -0.1503  0.2380
 7698PP      PP17802   1.244   7.070  10.021 -0.1186 -0.1173 -0.4010
 7699PP      PP17803   5.091   7.163  13.087 -0.1540  0.0534  0.0564
 7700PP      PP17804   4.522  15.358   3.857  0.0271  0.1457  0.2228
 7701PP      PP17805  10.420  10.544   1.284  0.1757 -0.0234  0.2005
 7702PP      PP17806   1.929  11.829   0.977 -0.0984  0.0200  0.2677
 7703PP      PP17807  14.680   5.812  11.397 -0.0503  0.1029  0.1181
 7704PP      PP17808   3.528   5.167   9.112 -0.0327 -0.1136  0.0166
 7705PP      PP17809   0.432   2.696  11.971 -0.1162  0.0275 -0.0112
 7706PP      PP17810   0.429   3.390   8.754  0.1098  0.0215  0.1201
 7707PP      PP17811  14.035  11.585   9.801  0.4166 -0.0309  0.2261
 7708PP      PP17812   7.908  15.105   1.561 -0.0378  0.1363  0.0934
 7709PP      PP17813  15.834   6.344   2.898  0.0064  0.2518  0.1040
 7710PP      PP17814   6.022   1.480   4.125 -0.0623  0.1238  0.2570
 7711PP      PP17815   1.796  13.707  12.715  0.1256  0.0191  0.2216
 7712PP      PP17816   5.553   5.061   3.354  0.2888 -0.1266  0.1064
 7713PP      PP17817  11.725   1.447  12.221  0.1230 -0.1345 -0.0994
 7714PP      PP17818   4.636  11.088  10.477 -0.0345  0.1694  0.1288
 7715PP      PP17819   0.453   6.167   3.226 -0.0095 -0.0423  0.1608
 7716PP      PP17820  13.424   4.519   9.602  0.2058  0.4070  0.2000
 7717PP      PP17821   4.206   6.128  10.766 -0.1241  0.1890  0.3583
 7718PP      PP17822   5.385  10.262  13.118  0.1157  0.1830  0.2069
 7719PP      PP17823   8.670  15.144  12.229 -0.2072  0.0276 -0.0221
 7720PP      PP17824  14.169   6.316   8.201 -0.0012 -0.1287  0.5042
 7721PP      PP17825  14.444   9.892  13.461  0.1062  0.2959  0.0377
 7722PP      PP17826   4.449  14.302  12.743 -0.1838  0.0572 -0.1701
 7723PP      PP17827   9.490   9.962   4.065  0.0291  0.1663 -0.0484
 7724PP      PP17828  15.362  15.666  10.226  0.0302 -0.0110 -0.1126
 7725PP      PP17829  12.327  14.338   2.536  0.3195  0.2567 -0.1222
 7726PP      PP17830   8.389   0.967   4.043  0.0364  0.0363  0.0607
 7727PP      PP17831   0.604   9.497  10.720 -0.0466  0.3156  0.2316
 7728PP      PP17832   5.158   4.708   3.475  0.0353  0.0458 -0.0567
 7729PP      PP17833  11.219  15.603   4.176  0.0426  0.0511 -0.0837
 7730PP      PP17834   9.198   7.797   3.230  0.2135  0.0692  0.0851
 7731PP      PP17835  13.769   9.164  11.464 -0.2587  0.0678  0.2647
 7732PP      PP17836   1.962  11.055  12.740  0.2232 -0.0186 -0.0910
 7733PP      PP17837   5.323   0.281   9.351  0.2569  0.1254 -0.0526
 7734PP      PP17838   0.594  12.102   3.948 -0.0732  0.0731 -0.0275
 7735PP      PP17839  15.727  12.746   9.010  0.1548 -0.0226  0.2820
 7736PP      PP17840   4.229  10.196  10.674 -0.0096 -0.4506  0.1924
 7737PP      PP17841  11.529   6.701   2.708 -0.1087 -0.3580 -0.0699
 7738PP      PP17842   3.365   6.447   1.402 -0.0276 -0.1210  0.0672
 7739PP      PP17843   2.534   4.878   1.959  0.1653 -0.0982  0.1958
 7740PP      PP17844   5.908  10.374  10.900  0.2294 -0.2394  0.1785
 7741PP      PP17845   1.462  11.716   9.064  0.2915 -0.2970  0.0212
 7742PP      PP17846   1.925   2.209   1.852 -0.3391 -0.1286  0.1845
 7743PP      PP17847  10.615   6.393   2.344  0.0180  0.0815 -0.2585
 7744PP      PP17848   5.334   0.511   3.062  0.3059  0.0943 -0.1239
 7745PP      PP17849   9.486   5.609   9.876  0.1251 -0.1509  0.2895
 7746PP      PP17850   7.410   3.270  12.317  0.3436 -0.0252  0.1883
 7747PP      PP17851  10.425  11.145   9.903 -0.1885  0.1433 -0.2184
 7748PP      PP17852   6.047  10.110   1.600 -0.1086 -0.1922 -0.1490
 7749PP      PP17853  10.386   3.169   1.727  0.3935  0.0106 -0.3893
 7750PP      PP17854   5.608   9.686   8.851  0.4161  0.2006  0.2515
 7751PP      PP17855   6.938  14.808   1.476 -0.3188  0.1304  0.1811
 7752PP      PP17856  15.473   4.242   3.666 -0.0902  0.1520 -0.2392
 7753PP      PP17857  14.894  15.815   9.079 -0.1967 -0.0839  0.1089
 7754PP      PP17858   8.968   1.607  10.693  0.5341 -0.2554  0.2165
 7755PP      PP17859   4.840   8.597   2.223  0.0130  0.2224 -0.0947
 7756PP      PP17860  12.561   0.896  10.711 -0.0002 -0.1659 -0.0088
 7757PP      PP17861   9.576  11.464   2.908 -0.1956  0.0897  0.2215
 7758PP      PP17862   4.848   3.176   9.724  0.0204 -0.1260 -0.0611
 7759PP      PP17863  10.894  14.665   0.875  0.3645 -0.0081 -0.2831
 7760PP      PP17864  15.843   4.513   3.883  0.3024 -0.3034  0.2761
 7761PP      PP17865   7.233   7.079  10.815 -0.0748 -0.1003 -0.0841
 7762PP      PP17866   3.068  12.020   3.318  0.3121  0.0587  0.0549
 7763PP      PP17867   1.679   3.387   3.701  0.0857 -0.3557 -0.1164
 7764PP      PP17868   3.028   6.999   9.805  0.0786  0.0673  0.0541
 7765PP      PP17869  11.423  11.309   1.779  0.0440  0.0270 -0.2124
 7766PP      PP17870  11.238  13.985  11.347 -0.1761 -0.0736  0.2133
 7767PP      PP17871   8.841  15.087   9.798 -0.3455 -0.0230 -0.2009
 7768PP      PP17872  14.341   6.560   0.366 -0.0106  0.2819  0.0608
 7769PP      PP17873  14.679   2.395  13.292  0.1755 -0.1918  0.0888
 7770PP      PP17874  10.843  12.022   8.935  0.0207 -0.2310 -0.2386
 7771PP      PP17875   8.138   0.446   3.506 -0.0643  0.2467 -0.0665
 7772PP      PP17876   1.814  11.815  11.013  0.0668  0.0281  0.1225
 7773PP      PP17877   6.742  11.391  13.478  0.0630 -0.0740 -0.1329
 7774PP      PP17878   6.249   2.939   2.289  0.1218 -0.2420  0.1719
 7775PP      PP17879   7.369   2.243   0.240 -0.2870 -0.0088  0.3362
 7776PP      PP17880  13.815   3.228   0.256 -0.2582  0.3887  0.3926
 7777PP      PP17881  12.420  15.775   2.997  0.2009 -0.3117 -0.4965
 7778PP      PP17882   1.367  12.414   0.822  0.0442 -0.3197 -0.0542
 7779PP      PP17883  10.463  10.638   9.841 -0.0447  0.3455  0.0141
 7780PP      PP17884  14.779   8.941   9.559 -0.1691 -0.0882  0.2022
 7781PP      PP17885   3.433   5.754   0.462 -0.0190 -0.1895  0.1063
 7782PP      PP17886   6.922   4.220   2.205 -0.0698  0.2243 -0.0150
 7783PP      PP17887  12.980   5.886   4.031 -0.5553 -0.1083 -0.3979
 7784PP      PP17888  10.907   5.196  13.467  0.3288 -0.2125 -0.0884
 7785PP      PP17889   0.729   8.517   1.721 -0.2736 -0.1696  0.0484
 7786PP      PP17890   7.542   3.419  11.890  0.0933  0.1544 -0.2906
 7787PP      PP17891   7.473   5.295   3.156  0.2023  0.1086  0.3580
 7788PP      PP17892   0.235   3.074  11.304 -0.0582 -0.2734 -0.0953
 7789PP      PP17893   1.776   4.928   2.147  0.2522 -0.0523 -0.0051
 7790PP      PP17894   7.589  11.032   2.803 -0.0558  0.2669 -0.0690
 7791PP      PP17895  10.405   1.034  12.968  0.0859  0.1819  0.2080
 7792PP      PP17896   8.824  13.763   0.555 -0.3301 -0.0364 -0.3467
 7793PP      PP17897   5.325  13.949  10.145  0.1695  0.1837 -0.4544
 7794PP      PP17898   2.146   5.452   3.323 -0.0501 -0.0480  0.4448
 7795PP      PP17899   6.426   7.022  10.539  0.2176  0.1385  0.0727
 7796PP      PP17900   6.117   7.623  13.117  0.0160 -0.1115  0.2921
 7797PP      PP17901  15.383  11.699   4.477 -0.2122  0.2236  0.0605
 7798PP      PP17902  12.668   0.676   5.365  0.0343 -0.3138 -0.3626
 7799PP      PP17903   7.766   2.838   2.121  0.2613  0.0699  0.0501
 7800PP      PP17904   6.724   2.969   0.440 -0.1275  0.1602  0.2066
 7801PP      PP17905   9.860   1.382  11.376 -0.0537  0.0040  0.2541
 7802PP      PP17906  11.536   0.361   0.273 -0.1062 -0.1063 -0.3703
 7803PP      PP17907  13.785   6.124  12.963 -0.1502  0.1189 -0.0737
 7804PP      PP17908   7.071   7.284  12.997 -0.0144  0.3584  0.0157
 7805PP      PP17909  12.676   5.071   2.387 -0.2221 -0.0523  0.0440
 7806PP      PP17910  15.861  11.634   4.221 -0.3414 -0.0668 -0.1851
 7807PP      PP17911  11.812  12.667  10.458 -0.1895  0.2384 -0.1671
 7808PP      PP17912  14.213   4.199  11.953  0.1118 -0.2736 -0.1788
 7809PP      PP17913  10.371  13.083   0.070 -0.0355  0.1568  0.1516
 7810PP      PP17914  12.881   9.664   3.390  0.0091  0.0218 -0.2834
 7811PP      PP17915   5.442  10.675   2.162  0.2819 -0.0880  0.1404
 7812PP      PP17916  15.581  14.591   3.590  0.1312  0.1437  0.0665
 7813PP      PP17917  12.720   3.631  10.685  0.0106  0.0849 -0.0333
 7814PP      PP17918   1.485  14.441   9.145  0.1088  0.1029  0.1192
 7815PP      PP17919   5.546   9.437   9.667  0.1187 -0.5470  0.0957
 7816PP      PP17920   6.988   5.139   1.303  0.2987 -0.0667 -0.2799
 7817PP      PP17921  14.086   5.855   0.905 -0.1532 -0.0122  0.2064
 7818PP      PP17922  11.813   4.836   2.753  0.4824 -0.1342  0.1133
 7819PP      PP17923  12.214   7.081  11.773  0.0843 -0.3322 -0.2796
 7820PP      PP17924   9.824  12.133   9.922 -0.0158 -0.1780 -0.0669
 7821PP      PP17925   8.448   2.446  11.391  0.1588 -0.0758  0.0743
 7822PP      PP17926   9.374   2.869   9.448 -0.2475  0.3431 -0.1071
 7823PP      PP17927   8.904   3.741  12.880  0.0758  0.0127 -0.0521
 7824PP      PP17928   1.466  15.711   1.493  0.1958  0.2555 -0.1512
 7825PP      PP17929   8.013   1.563  12.000 -0.3240 -0.0335 -0.1004
 7826PP      PP17930  13.266  11.331   0.289 -0.3309  0.1562 -0.2759
 7827PP      PP17931  10.631   7.451   3.674 -0.0661  0.3047 -0.0233
 7828PP      PP17932  14.211  11.293   9.061  0.0259  0.1575 -0.0885
 7829PP      PP17933   1.108   5.997  12.264 -0.0549  0.2513 -0.0870
 7830PP      PP17934   1.132  13.383   2.562 -0.0958  0.0444  0.2179
 7831PP      PP17935   2.304   1.140  11.285 -0.1711 -0.1273 -0.0689
 7832PP      PP17936  13.061  14.893  10.701  0.1079  0.1680 -0.0385
 7833PP      PP17937   1.342   9.955   0.768  0.0354  0.0232 -0.0823
 7834PP      PP17938  13.098  13.233  10.060  0.2079 -0.0894 -0.0795
 7835PP      PP17939  12.470  12.121   0.429 -0.1786 -0.0031  0.3849
 7836PP      PP17940   4.623   2.259  11.091 -0.0729 -0.0701 -0.1755
 7837PP      PP17941  13.906   9.662   4.052 -0.0415  0.0218 -0.2216
 7838PP      PP17942  13.464  10.076  11.721 -0.1388 -0.1834 -0.2079
 7839PP      PP17943   3.584   6.791  10.445 -0.1536 -0.0995  0.0698
 7840PP      PP17944  13.498   8.835   1.143 -0.0433  0.2189  0.2459
 7841PP      PP17945  13.561   2.705  12.590 -0.6706 -0.0269 -0.1190
 7842PP      PP17946  13.151  15.804  10.486  0.2427  0.1394  0.2049
 7843PP      PP17947  12.051  13.867  12.050  0.0950  0.3540  0.0303
 7844PP      PP17948   1.810   8.402   1.056  0.1763  0.1338  0.2177
 7845PP      PP17949   0.730  13.175  10.888 -0.1817  0.0028 -0.2521
 7846PP      PP17950   2.571   8.178   9.053  0.0244  0.1060 -0.1059
 7847PP      PP17951   7.911  15.781  11.850  0.2450 -0.1192 -0.2089
 7848PP      PP17952  14.792   6.021   3.119 -0.0728 -0.2721  0.1483
 7849PP      PP17953  14.463  12.115   2.776  0.0506 -0.1965  0.1264
 7850PP      PP17954  12.785   9.014   1.902 -0.0078  0.1392  0.2291
 7851PP      PP17955  15.162   8.674  12.310 -0.0957  0.3600 -0.3140
 7852PP      PP17956   6.291   7.730   2.920 -0.0378  0.2756 -0.0977
 7853PP      PP17957   6.614   5.582   2.094 -0.2194 -0.1275 -0.2268
 7854PP      PP17958  12.836  11.252  10.879  0.0673  0.1805  0.0991
 7855PP      PP17959   4.161  14.955   0.649 -0.2413  0.0861 -0.1474
 7856PP      PP17960   0.593  10.287  10.872 -0.0230  0.3070  0.1960
 7857PP      PP17961   0.409   0.849   9.653 -0.1909  0.2743 -0.0460
 7858PP      PP17962   8.261   2.998   3.708  0.1255 -0.0519  0.0521
 7859PP      PP17963   9.556   7.836  12.841  0.0656 -0.1043  0.1204
 7860PP      PP17964   3.464   3.199  13.473 -0.1970  0.0105  0.1105
 7861PP      PP17965  12.122   9.236   2.955 -0.2814 -0.1007 -0.0536
 7862PP      PP17966   8.729  11.733   2.393  0.0901  0.1206 -0.1149
 7863PP      PP17967   7.041  14.918   3.467  0.2092 -0.4354 -0.2362
 7864PP      PP17968   8.678   6.944  10.670  0.1093  0.1070  0.0907
 7865PP      PP17969  11.323   6.767   9.352  0.0737 -0.1942 -0.1396
 7866PP      PP17970  13.353  15.449  11.832 -0.0832  0.0819  0.0389
 7867PP      PP17971   8.905   4.325   0.535  0.1570 -0.0506 -0.1014
 7868PP      PP17972  11.934  10.017  13.022  0.1240  0.1212  0.0500
 7869PP      PP17973  13.853   5.073  11.746  0.1025 -0.2303  0.0878
 7870PP      PP17974   8.778   0.761  10.785  0.0688 -0.0904  0.1960
 7871PP      PP17975  11.124   4.337  12.833 -0.0170 -0.1505  0.0279
 7872PP      PP17976  12.066   4.397   4.486  0.2181 -0.1893  0.0067
 7873PP      PP17977   6.522   0.261   9.092  0.0165  0.1766 -0.0189
 7874PP      PP17978  12.022   4.503   0.777 -0.0684 -0.1682  0.0106
 7875PP      PP17979  14.864  11.486  13.011 -0.0355 -0.2267 -0.1609
 7876PP      PP17980   0.641   2.498   1.164  0.0796 -0.1273  0.1418
 7877PP      PP17981  10.103  13.670   3.345  0.2941  0.0353  0.2261
 7878PP      PP17982  10.756   8.148  13.026  0.0677 -0.2316 -0.0404
 7879PP      PP17983  12.495  10.160  12.000 -0.0191  0.4052 -0.1046
 7880PP      PP17984  11.863   7.919   9.200  0.1912  0.1347 -0.2805
 7881PP      PP17985  11.023   8.170   0.362  0.1092  0.1231  0.1018
 7882PP      PP17986  14.253  10.387   9.950 -0.4920  0.0982 -0.1842
 7883PP      PP17987   4.131   8.909  10.265  0.0825 -0.0267  0.1081
 7884PP      PP17988  14.145   1.922   0.762 -0.1891  0.2977  0.0049
 7885PP      PP17989   2.332  10.348  10.552  0.1156 -0.3403 -0.2143
 7886PP      PP17990  13.360   8.997   0.639 -0.0593  0.4174  0.0788
 7887PP      PP17991   8.301   2.125  11.766 -0.2394  0.1364  0.1447
 7888PP      PP17992   4.508  12.410   0.806 -0.0706  0.0165  0.1712
 7889PP      PP17993  13.391   7.762   3.722 -0.2490 -0.2581 -0.1096
 7890PP      PP17994   4.301  10.836   4.743  0.3428  0.1216 -0.0740
 7891PP      PP17995   3.092   0.068   0.029 -0.0523 -0.0041 -0.2211
 7892PP      PP17996   2.104  12.368  10.079 -0.0704  0.0964  0.0068
 7893PP      PP17997   3.175   7.474   2.027 -0.1851 -0.0108 -0.5064
 7894PP      PP17998   0.038   0.266   2.826 -0.2577  0.0427 -0.0419
 7895PP      PP17999  14.038   5.411   0.758 -0.0198 -0.2253  0.2337
 7896PP      PP18000   1.671   7.495   0.921 -0.2626  0.0215 -0.1003
 7897PP      PP18001   7.570  15.179  13.203  0.0015  0.1054 -0.3919
 7898PP      PP18002   3.807   1.042  13.187 -0.0741 -0.1715 -0.1893
 7899PP      PP18003   6.651   7.874   2.516  0.0198 -0.1100  0.1234
 7900PP      PP18004   3.401  12.172  13.504 -0.1357 -0.3236 -0.0151
 7901PP      PP18005   6.109   6.082   9.539 -0.0106  0.0970  0.2700
 7902PP      PP18006  11.897  10.029  10.842  0.0394  0.3273  0.3098
 7903PP      PP18007  15.738   2.854   3.814 -0.2036  0.0042 -0.0924
 7904PP      PP18008  12.054  11.569  11.978 -0.0316 -0.1541 -0.0808
 7905PP      PP18009   7.614  11.365  11.176  0.0261 -0.1751 -0.0157
 7906PP      PP18010  11.192   3.360  13.493 -0.0116 -0.2525 -0.0534
 7907PP      PP18011   1.101  12.083   3.026 -0.0530  0.2371  0.1932
 7908PP      PP18012   2.567   6.596   2.885 -0.0534 -0.1561  0.1147
 7909PP      PP18013   8.733   5.541   3.721 -0.1075  0.0037  0.1261
 7910PP      PP18014   9.979   9.356   8.601 -0.0541  0.0902  0.3363
 7911PP      PP18015   4.104   4.906   4.199  0.2941  0.2706  0.4370
 7912PP      PP18016  11.917   2.312   2.496 -0.2509 -0.1123  0.1130
 7913PP      PP18017   2.431   9.741   2.308  0.0091  0.1064  0.0824
 7914PP      PP18018   3.055   1.899   1.100 -0.0918  0.0877 -0.0579
 7915PP      PP18019  10.627  14.427   2.599  0.0879  0.3704  0.4010
 7916PP      PP18020   7.334  10.574   8.843  0.1934 -0.2884 -0.1559
 7917PP      PP18021  14.307   4.777   1.771 -0.1650  0.2213 -0.0324
 7918PP      PP18022   9.585   2.362  10.222  0.0293  0.0197  0.4119
 7919PP      PP18023   1.685   2.920  10.169  0.1062 -0.0186  0.1762
 7920PP      PP18024   3.934   7.513   0.069  0.2391 -0.1030 -0.1029
 7921PP      PP18025   4.517   0.260   3.157  0.0146 -0.0139  0.0198
 7922PP      PP18026   7.144  13.155   3.880 -0.3143  0.0855  0.1266
 7923PP      PP18027  13.245   5.212  10.469 -0.1529  0.0192  0.0480
 7924PP      PP18028  15.559   1.508   8.885 -0.0073  0.0673 -0.1780
 7925PP      PP18029   4.036  10.368   1.251 -0.2490 -0.1639 -0.0970
 7926PP      PP18030   5.749  14.310  10.421 -0.1793  0.3379 -0.0441
 7927PP      PP18031  10.062   4.185   0.279 -0.2651 -0.2397  0.0666
 7928PP      PP18032  12.930   4.693  10.216  0.2774 -0.1537 -0.3026
 7929PP      PP18033  14.951  11.000   3.510  0.2104  0.2125 -0.0366
 7930PP      PP18034  12.231   4.694  10.008 -0.0578  0.0897 -0.1537
 7931PP      PP18035  12.238  10.586  12.987 -0.1008  0.2777 -0.1889
 7932PP      PP18036  12.457  14.308   3.429  0.0734 -0.1896  0.1798
 7933PP      PP18037   0.940  13.084  10.418 -0.0124  0.0261  0.0829
 7934PP      PP18038  10.026  12.244   3.399 -0.0012 -0.0548 -0.1143
 7935PP      PP18039   9.490  12.631  10.611 -0.2772 -0.1251 -0.0344
 7936PP      PP18040  15.168  11.801  10.419 -0.0864  0.1210 -0.0654
 7937PP      PP18041  12.814  14.227   3.739 -0.5392  0.1180 -0.0226
 7938PP      PP18042   3.508  13.050   9.336 -0.1631  0.3017 -0.3821
 7939PP      PP18043  14.242   2.564  12.601  0.4432 -0.0837  0.3126
 7940PP      PP18044   5.028  14.361   2.232  0.0942 -0.2599 -0.0817
 7941PP      PP18045   1.480  14.925   3.411 -0.2748  0.0978  0.0080
 7942PP      PP18046   6.229   1.696   1.397 -0.2524 -0.1140 -0.1462
 7943PP      PP18047  14.321   4.333   1.483 -0.1966  0.1238  0.0031
 7944PP      PP18048  10.993   3.455   0.992 -0.3010  0.2196 -0.0433
 7945PP      PP18049   2.676   0.866   4.386 -0.4869  0.0592  0.2390
 7946PP      PP18050  12.729   7.787   2.591 -0.0817 -0.3308  0.2089
 7947PP      PP18051  13.050   8.278  11.402 -0.0382  0.1723 -0.5018
 7948PP      PP18052  11.437   7.353  13.413  0.2741  0.1219 -0.5624
 7949PP      PP18053   7.312   0.276   4.229 -0.0096  0.0659 -0.1086
 7950PP      PP18054  15.051  10.340  10.972  0.0008  0.0348  0.1767
 7951PP      PP18055   4.260   2.699  13.374  0.2062 -0.0122 -0.2748
 7952PP      PP18056   2.969  14.481   3.880  0.1102  0.1588  0.0042
 7953PP      PP18057  10.661   3.367  10.887 -0.3590  0.1472  0.0138
 7954PP      PP18058  14.303   3.867  10.533 -0.4083  0.3683 -0.1746
 7955PP      PP18059   8.046  10.479  10.099 -0.0598 -0.2900 -0.0056
 7956PP      PP18060   7.191   4.169   1.267 -0.3409  0.1625 -0.0372
 7957PP      PP18061   7.825   2.239  11.737  0.1045 -0.0726  0.1691
 7958PP      PP18062  12.377   2.700  11.742 -0.2056 -0.1303  0.1513
 7959PP      PP18063   4.618   5.459  10.973 -0.0482 -0.2754 -0.0809
 7960PP      PP18064  13.100   0.678  10.584 -0.0476 -0.2179 -0.1976
 7961PP      PP18065  13.816   9.201   1.415  0.1007  0.1246 -0.1160
 7962PP      PP18066   6.423   6.358  12.588 -0.0411 -0.0622 -0.0791
 7963PP      PP18067   6.490   6.685   2.926  0.1019 -0.0513  0.0132
 7964PP      PP18068   0.517   7.826   0.947 -0.1161 -0.1098  0.0743
 7965PP      PP18069   9.908  11.128   8.934  0.2896 -0.2763  0.1366
 7966PP      PP18070   6.463   3.993   2.278 -0.3881  0.1311  0.0176
 7967PP      PP18071   8.191   3.894  11.162  0.0080  0.2978  0.2460
 7968PP      PP18072   8.236   9.487   3.778 -0.0691  0.1229  0.5470
 7969PP      PP18073   6.836   8.062   8.413 -0.0923  0.3284  0.0872
 7970PP      PP18074   6.490  12.342  12.860 -0.3345  0.2895  0.1631
 7971PP      PP18075  15.759   3.547   0.071 -0.1521  0.1604  0.2961
 7972PP      PP18076  15.211   6.683   8.165 -0.4507 -0.0158  0.0499
 7973PP      PP18077   4.008  13.847   9.587  0.0262 -0.1626  0.0302
 7974PP      PP18078   8.683   1.251  12.873  0.2112  0.0076 -0.1579
 7975PP      PP18079   3.549   0.304   0.677  0.0447 -0.0963 -0.1341
 7976PP      PP18080  15.491   7.952   0.974 -0.1103 -0.0545  0.0728
 7977PP      PP18081   8.200   3.679   0.528 -0.0793 -0.0915 -0.1861
 7978PP      PP18082   9.540  11.784   0.566 -0.0782  0.2331 -0.0892
 7979PP      PP18083   4.062   2.410   2.881  0.1015 -0.1395  0.1373
 7980PP      PP18084   5.434   7.271   4.097 -0.3549 -0.2430 -0.3329
 7981PP      PP18085   4.706  13.851   8.889 -0.1997 -0.1560  0.1326
 7982PP      PP18086   0.933   6.684   1.727 -0.2355 -0.0861  0.0585
 7983PP      PP18087   1.906   5.770  12.917  0.1625 -0.0050  0.2742
 7984PP      PP18088   3.289   8.339   4.012 -0.1229  0.0362  0.2039
 7985PP      PP18089   5.600  15.609   2.549 -0.0108  0.2035 -0.0533
 7986PP      PP18090  11.423  15.559   3.650 -0.4936 -0.4041 -0.2368
 7987PP      PP18091   7.519   6.030   0.346 -0.0934 -0.4383 -0.1777
 7988PP      PP18092   0.522   4.660   9.747 -0.1834 -0.1719 -0.1435
 7989PP      PP18093   6.819   2.953  11.341 -0.1410 -0.0283 -0.0606
 7990PP      PP18094  13.811   3.812  11.255 -0.3591  0.2322  0.0100
 7991PP      PP18095  10.700   2.922  10.029 -0.0750  0.1243  0.0155
 7992PP      PP18096   9.894   1.234   2.737  0.0891 -0.2060  0.0928
 7993PP      PP18097   6.259   0.909   3.220 -0.0945  0.1180  0.1167
 7994PP      PP18098  12.471  12.044   2.839 -0.4196 -0.0517  0.1724
 7995PP      PP18099  11.409   0.528   3.432  0.0396  0.4670 -0.0466
 7996PP      PP18100  13.370   0.633   9.655 -0.1305  0.2780 -0.1089
 7997PP      PP18101  11.443   4.206   2.278  0.2768 -0.0522 -0.0451
 7998PP      PP18102  15.069  14.868   0.114 -0.3366  0.2302 -0.4629
 7999PP      PP18103   2.931   9.454  11.396 -0.0627  0.0787  0.0388
 8000PP      PP18104   7.000   0.391   0.702  0.0820 -0.0816  0.0042
 8001PP      PP18105   3.302   2.930  10.799  0.0817 -0.0919 -0.2469
 8002PP      PP18106  14.779   3.647  11.450 -0.1487 -0.1445  0.0763
 8003PP      PP18107   7.357   1.231   3.277 -0.0978 -0.0052 -0.0576
 8004PP      PP18108   6.697   2.544   0.802  0.2255 -0.1000 -0.1595
 8005PP      PP18109   6.421  11.800   2.243 -0.1202 -0.1400 -0.3636
 8006PP      PP18110   6.339  12.722   8.663  0.0857  0.0527  0.2521
 8007PP      PP18111   5.055   0.014   0.995 -0.0564  0.3073  0.0951
 8008PP      PP18112  10.717  11.262  10.316 -0.3552 -0.0135 -0.1556
 8009PP      PP18113  12.084   6.721   1.801  0.0257  0.1756  0.0160
 8010PP      PP18114   0.448   8.744   0.317  0.2196 -0.1918  0.0124
 8011PP      PP18115   4.524   4.664  12.533 -0.2488 -0.0893  0.4989
 8012PP      PP18116  11.717  10.988  11.545 -0.0652  0.0546  0.0426
 8013PP      PP18117   0.313   6.166  12.708  0.3382 -0.3345  0.1621
 8014PP      PP18118   5.045   9.075  11.307 -0.2157  0.1670  0.0105
 8015PP      PP18119  12.021   7.568  13.523 -0.2269  0.3377  0.1503
 8016PP      PP18120   6.561   9.147   3.066  0.2158 -0.0194  0.1807
 8017PP      PP18121  12.931   0.693   9.070 -0.1262  0.0091 -0.0168
 8018PP      PP18122   6.273  15.443  11.223 -0.1364 -0.2440 -0.2826
 8019PP      PP18123   9.156  15.585   0.377 -0.1713  0.3069  0.1081
 8020PP      PP18124  12.456   1.407  10.423  0.1659  0.1575 -0.2473
 8021PP      PP18125   9.232   6.841  10.239  0.0835 -0.0282  0.0122
 8022PP      PP18126   6.322  11.906   3.219  0.1940 -0.2112  0.0828
 8023PP      PP18127   3.319  12.913   0.972  0.1286  0.1253  0.4670
 8024PP      PP18128   5.558   4.095   2.713  0.1335 -0.2818  0.2978
 8025PP      PP18129   5.659   8.780   2.332  0.1372 -0.1338 -0.2000
 8026PP      PP18130  15.222   1.320  12.252  0.1088 -0.1991  0.2554
 8027PP      PP18131   9.219   6.603   3.648  0.1253  0.3464  0.2136
 8028PP      PP18132   1.523  12.754   0.141  0.0784  0.0186  0.2566
 8029PP      PP18133  10.203  14.842   9.431  0.0548  0.1279  0.3158
 8030PP      PP18134   4.985   4.169  10.763  0.3195  0.5829 -0.0464
 8031PP      PP18135   5.878  10.975   3.146 -0.3066 -0.1556 -0.1798
 8032PP      PP18136   6.466   7.173  11.354  0.3113  0.3641  0.1661
 8033PP      PP18137   6.218  10.117   2.629 -0.0166 -0.1473 -0.1795
 8034PP      PP18138   2.130   2.484   2.738 -0.0374 -0.0689  0.0339
 8035PP      PP18139   5.101   2.899   4.377 -0.2091 -0.0276  0.0475
 8036PP      PP18140   2.154  13.009   3.665  0.0543  0.0836  0.0570
 8037PP      PP18141  10.380   6.009  13.033 -0.1426  0.0842 -0.1150
 8038PP      PP18142   3.422  13.936   4.806  0.3028  0.0921  0.0031
 8039PP      PP18143   2.354  15.351  12.988 -0.2887  0.1010 -0.3048
 8040PP      PP18144   1.003   8.554  11.872 -0.1360 -0.1793  0.0433
 8041PP      PP18145   0.021   7.168   9.084 -0.0517  0.2272  0.1983
 8042PP      PP18146   4.186  10.252  11.495  0.0115 -0.0256  0.0336
 8043PP      PP18147   3.516  10.707   1.523  0.0663 -0.1208 -0.0228
 8044PP      PP18148   6.486   6.595   1.901 -0.0241  0.0899 -0.0786
 8045PP      PP18149   1.187   0.968  11.317  0.0397 -0.1775  0.1525
 8046PP      PP18150  11.831   2.723   1.708  0.1755  0.0944  0.0713
 8047PP      PP18151   4.530   3.474   2.215 -0.1757  0.1731 -0.0222
 8048PP      PP18152   6.847   3.240   3.678  0.2222  0.0883 -0.2837
 8049PP      PP18153   0.459  13.260  13.376 -0.2322 -0.0498  0.0655
 8050PP      PP18154   4.021  11.527  10.247  0.1327  0.2212  0.2527
 8051PP      PP18155   8.720   1.593   1.238 -0.1270  0.0944  0.0184
 8052PP      PP18156   7.618   6.893  10.582 -0.2085  0.0446  0.1762
 8053PP      PP18157   8.550   5.605  11.588  0.0099  0.2786 -0.0657
 8054PP      PP18158   1.539   3.373  10.339 -0.1638 -0.2173  0.3020
 8055PP      PP18159  13.457  10.981  11.220  0.3091  0.2040  0.1789
 8056PP      PP18160   5.485  11.382   1.838  0.1332 -0.3138  0.0842
 8057PP      PP18161  15.327   1.901   2.086 -0.0823 -0.3006 -0.0885
 8058PP      PP18162   6.310   3.233   3.144 -0.3157 -0.2868 -0.4250
 8059PP      PP18163  13.610  15.442   3.402 -0.1001  0.1276 -0.3863
 8060PP      PP18164   3.155  11.955  12.642  0.1853  0.3587  0.1441
 8061PP      PP18165   0.192  11.491   1.092  0.2291  0.0240  0.3331
 8062PP      PP18166  13.475   1.597  11.571 -0.3453  0.1722  0.0272
 8063PP      PP18167   0.844   4.546   1.369  0.1241 -0.1588  0.0736
 8064PP      PP18168   4.462  11.533   2.626  0.1250 -0.1064 -0.1227
 8065PP      PP18169   3.161   1.899  11.727 -0.0466  0.1400  0.0508
 8066PP      PP18170  12.127   8.383   1.334 -0.1814  0.1465 -0.4770
 8067PP      PP18171   7.293   0.865   9.393 -0.0198 -0.0556  0.1041
 8068PP      PP18172   3.468   1.384   0.938  0.0783 -0.1305  0.2702
 8069PP      PP18173   4.496   1.730   9.930 -0.0382  0.0108  0.0121
 8070PP      PP18174  10.948   6.176   0.409  0.0809  0.2802 -0.2949
 8071PP      PP18175  10.979   4.769  13.115  0.0057  0.0409  0.2792
 8072PP      PP18176  13.937   2.830  13.472  0.0628  0.0405 -0.0529
 8073PP      PP18177   9.503  14.074   9.372 -0.1391  0.0235  0.3510
 8074PP      PP18178   1.060   3.162   3.069 -0.1181  0.2561  0.2506
 8075PP      PP18179  10.934  14.218   2.908  0.2635  0.1973  0.0412
 8076PP      PP18180  14.090   2.156   0.001 -0.2965  0.3528 -0.0089
 8077PP      PP18181  11.054  14.207   1.114  0.1198  0.3004  0.2646
 8078PP      PP18182   5.716   2.632   0.564  0.1018  0.5060  0.1108
 8079PP      PP18183  11.303  11.779   3.824 -0.0232  0.2396 -0.2331
 8080PP      PP18184   7.209  10.610   1.710 -0.0221 -0.0766 -0.0396
 8081PP      PP18185   3.374  15.479   9.891 -0.0082 -0.3084 -0.0803
 8082PP      PP18186  13.205   9.734  13.278  0.1249 -0.2891 -0.0728
 8083PP      PP18187   7.397   4.607   0.474 -0.0038  0.0191 -0.3460
 8084PP      PP18188   0.063   5.970   9.817  0.0154 -0.0697  0.1188
 8085PP      PP18189  12.621   7.367   0.782  0.1764  0.1019 -0.0256
 8086PP      PP18190  15.861   2.780  10.787  0.1070  0.0185 -0.1765
 8087PP      PP18191   3.835   2.881  10.830  0.0751 -0.1071 -0.0831
 8088PP      PP18192  15.442   0.567   9.891  0.0777 -0.0632 -0.0857
 8089PP      PP18193   7.101   0.639  13.211  0.1832 -0.2621  0.1598
 8090PP      PP18194  13.914   9.755   3.509 -0.0120  0.2000  0.0845
 8091PP      PP18195   1.289  10.641   0.856 -0.0383 -0.4127 -0.1989
 8092PP      PP18196   8.014   2.727   2.860 -0.1953  0.0500 -0.3819
 8093PP      PP18197  12.041  12.008   3.878 -0.0614  0.0415 -0.0233
 8094PP      PP18198  12.335   1.326   0.499  0.4120  0.0216  0.0363
 8095PP      PP18199  12.916   5.605  10.488 -0.1076  0.1625 -0.0055
 8096PP      PP18200   6.676  12.248   2.028  0.0488  0.2697 -0.0290
 8097PP      PP18201   3.757   3.144   3.266 -0.0130 -0.1311  0.2730
 8098PP      PP18202  14.176  11.695   3.390 -0.0713  0.1944 -0.2809
 8099PP      PP18203   0.704   7.285   9.987 -0.4443 -0.1506  0.0203
 8100PP      PP18204   6.265   5.834  12.443 -0.0555  0.3065  0.1440
 8101PP      PP18205   9.496   1.914   0.893 -0.1539 -0.1353  0.1047
 8102PP      PP18206  11.332  13.065   1.120 -0.2583 -0.0871 -0.1310
 8103PP      PP18207   1.630   1.068  11.081  0.2024  0.0369 -0.1262
 8104PP      PP18208   1.204   8.515   1.981 -0.0730  0.1973 -0.1742
 8105PP      PP18209  10.046   2.812  12.384  0.0322  0.0612 -0.2535
 8106PP      PP18210  13.824  12.026  12.901  0.1354  0.0367  0.1874
 8107PP      PP18211   9.790   1.977  13.047  0.4283  0.0982 -0.1670
 8108PP      PP18212   2.441   3.242   2.647  0.0785 -0.0533 -0.0230
 8109PP      PP18213   1.563   0.005  11.607  0.1154 -0.1040  0.0485
 8110PP      PP18214   9.129   5.066   3.893 -0.2844 -0.0150  0.1820
 8111PP      PP18215  11.051   4.767   3.597 -0.2271 -0.1069 -0.2380
 8112PP      PP18216  10.494   4.837   9.554  0.1224 -0.1378 -0.0172
 8113PP      PP18217   5.238   5.598  11.229  0.0862  0.2258  0.3593
 8114PP      PP18218   0.289   0.736   1.172  0.0694  0.2111 -0.1684
 8115PP      PP18219   3.774   2.171   2.509  0.2320 -0.0862  0.2623
 8116PP      PP18220   4.345  10.627   2.872  0.1341 -0.1885  0.3086
 8117PP      PP18221  10.589  10.870  10.770  0.0930  0.0342  0.2209
 8118PP      PP18222   6.968   4.150   2.697 -0.0343 -0.3605  0.5783
 8119PP      PP18223   0.213   9.944  11.420  0.2180  0.0285 -0.2486
 8120PP      PP18224  13.636   8.370   8.808 -0.0666 -0.0925 -0.1379
 8121PP      PP18225   5.037  12.541   1.130  0.1195  0.0224  0.0061
 8122PP      PP18226  10.290   4.828   2.586 -0.0210 -0.3607 -0.2167
 8123PP      PP18227  12.197   3.636   1.279 -0.0572  0.1074  0.3461
 8124PP      PP18228   2.402   0.104  13.326  0.3157  0.0871 -0.2031
 8125PP      PP18229   2.960   0.261  12.407  0.0473 -0.0614  0.1103
 8126PP      PP18230  13.463  12.147  13.286  0.1374 -0.1033  0.2765
 8127PP      PP18231   7.431   4.001   2.692  0.1561 -0.2314 -0.2705
 8128PP      PP18232  13.081   9.671  11.784  0.0247  0.3088 -0.0302
 8129PP      PP18233   1.975  13.753   0.995 -0.0380  0.1033  0.3104
 8130PP      PP18234   6.799  10.718  11.060 -0.0212 -0.2350  0.1337
 8131PP      PP18235   8.477   4.656   3.361 -0.0389 -0.0929 -0.0910
 8132PP      PP18236   6.983  11.114   9.269 -0.1206 -0.0151 -0.1832
 8133PP      PP18237   2.921  14.015   9.185  0.1320  0.1959  0.0255
 8134PP      PP18238   1.990   7.303   1.206  0.1232 -0.3711 -0.0379
 8135PP      PP18239   3.211  11.438   3.912 -0.0915  0.2475  0.1311
 8136PP      PP18240   7.037   9.739   0.037 -0.0715  0.3008  0.0559
 8137PP      PP18241  11.688  12.916  11.696  0.0022 -0.2925  0.2034
 8138PP      PP18242   6.441   4.006   4.292  0.2170  0.1181  0.1330
 8139PP      PP18243   7.065   7.818  11.668 -0.1267 -0.0718 -0.1309
 8140PP      PP18244   1.003  11.830  10.722 -0.0604 -0.4406 -0.0894
 8141PP      PP18245  13.224   2.332  10.848  0.0430 -0.2210 -0.1679
 8142PP      PP18246  14.383   4.326   0.608  0.1628 -0.2065  0.1057
 8143PP      PP18247   4.038   0.575  13.005  0.0053  0.1456  0.2209
 8144PP      PP18248  10.642  13.896   1.600 -0.0845 -0.1062 -0.2725
 8145PP      PP18249   2.762   4.071  12.972  0.1145 -0.0403 -0.0263
 8146PP      PP18250  13.265   2.428   1.002 -0.3315  0.0007 -0.0441
 8147PP      PP18251  12.787  14.598   4.099 -0.1660 -0.2276  0.1648
 8148PP      PP18252   1.599   7.421   4.085  0.3324  0.1443  0.2141
 8149PP      PP18253  15.059   5.517   3.099 -0.3263 -0.2162  0.1595
 8150PP      PP18254   3.288   9.843   2.713  0.1743  0.1179  0.2465
 8151PP      PP18255  11.992  13.864   4.114 -0.0298  0.0821  0.3931
 8152PP      PP18256   5.224   4.543   0.712 -0.2432  0.1897 -0.0815
 8153PP      PP18257   9.588  13.929   4.146  0.2033  0.0833  0.1119
 8154PP      PP18258   5.018  14.472   9.367  0.1971 -0.0352 -0.0639
 8155PP      PP18259   9.103  10.875   3.025  0.0842  0.0483 -0.0616
 8156PP      PP18260   9.349   5.851  13.290  0.1261 -0.2477  0.3317
 8157PP      PP18261  15.112  12.284   8.507 -0.0157  0.0789 -0.0470
 8158PP      PP18262   3.193  15.399   0.817  0.1292  0.0165 -0.1544
 8159PP      PP18263   2.209  15.433   0.476  0.0476  0.0288  0.1574
 8160PP      PP18264   6.475  13.300  12.602 -0.0512  0.2047  0.0256
 8161PP      PP18265  10.095   7.720   2.928 -0.0331  0.1890  0.1290
 8162PP      PP18266  11.307   1.040   3.082  0.2607  0.1694  0.0908
 8163PP      PP18267   9.633   7.723  12.334 -0.1171  0.0637 -0.1025
 8164PP      PP18268  13.929  10.795   0.086 -0.1173 -0.1434  0.2559
 8165PP      PP18269  15.706   2.597   9.909  0.2574 -0.0702 -0.0894
 8166PP      PP18270   4.811   0.807  12.991  0.1328 -0.1648  0.1297
 8167PP      PP18271   9.194   9.259   4.170 -0.1868 -0.2260  0.0216
 8168PP      PP18272  15.394   3.943   8.609  0.2064  0.0196  0.3532
 8169PP      PP18273   8.319   3.081  12.286 -0.1749 -0.0828 -0.0732
 8170PP      PP18274  10.165   7.268  11.296 -0.2915 -0.1871 -0.0207
 8171PP      PP18275   0.267   9.432  11.339 -0.2546  0.1889 -0.2706
 8172PP      PP18276   5.427   3.754   3.439 -0.0939 -0.0720 -0.0998
 8173PP      PP18277   4.573   6.225  11.825  0.0631 -0.1644  0.2562
 8174PP      PP18278   2.571   7.143  12.301 -0.1017 -0.0916  0.1633
 8175PP      PP18279   4.429  13.138   9.408 -0.0337  0.4384  0.0511
 8176PP      PP18280   5.457  10.405   0.541  0.2567  0.2173 -0.2495
 8177PP      PP18281   9.103   7.483  13.152  0.4915 -0.0502  0.1542
 8178PP      PP18282   9.824   4.045   2.173 -0.1079 -0.1181 -0.0863
 8179PP      PP18283   5.002   5.716  11.660 -0.0967 -0.0425  0.3518
 8180PP      PP18284   2.415  13.712   0.468 -0.1165 -0.0440  0.1398
 8181PP      PP18285   3.520   7.690   0.389 -0.1673  0.0168  0.0897
 8182PP      PP18286  13.469  13.106   2.425 -0.2526  0.3844  0.2335
 8183PP      PP18287   6.843   1.216   2.408  0.0044  0.0257 -0.2297
 8184PP      PP18288   8.432  14.747   4.312  0.0244  0.0807 -0.0716
 8185PP      PP18289   9.327   2.261  10.694  0.0247 -0.2755  0.2615
 8186PP      PP18290  13.598   2.999  10.322  0.1656 -0.1596 -0.4800
 8187PP      PP18291   1.087   7.143   1.856 -0.0500 -0.0641 -0.1623
 8188PP      PP18292   7.388  15.554   2.722 -0.1320 -0.4085 -0.0429
 8189PP      PP18293  14.465   7.600   3.118  0.1476 -0.0286  0.0690
 8190PP      PP18294   5.932  11.587   9.758 -0.0656 -0.1067 -0.1826
 8191PP      PP18295   4.526   3.240  10.911 -0.3586  0.2300  0.1081
 8192PP      PP18296  13.582   3.244  13.307  0.0621 -0.1387 -0.2141
 8193PP      PP18297   7.427   7.978   3.719  0.0840  0.1222 -0.3158
 8194PP      PP18298   2.298  11.288  11.039 -0.1701 -0.0956  0.0120
 8195PP      PP18299  12.694  12.581   0.577 -0.0868  0.0630  0.1988
 8196PP      PP18300   1.843  11.225  10.471 -0.0994 -0.1453  0.1440
 8197PP      PP18301   6.471  15.355   2.109 -0.0610  0.0622 -0.5063
 8198PP      PP18302   5.815   9.018  10.552 -0.1218  0.2177  0.2289
 8199PP      PP18303  13.622   0.786   0.577  0.2005 -0.1803 -0.0875
 8200PP      PP18304  13.735   3.808   1.960 -0.5418  0.0379 -0.3165
 8201PP      PP18305   0.592   0.675   4.095  0.1813  0.0154 -0.1033
 8202PP      PP18306   2.589   8.017   3.325 -0.0843  0.1065  0.0753
 8203PP      PP18307  11.096   8.355  13.382 -0.1460 -0.0974 -0.2110
 8204PP      PP18308   0.231   0.421  13.203  0.3537  0.1874  0.0822
 8205PP      PP18309   1.225   1.883   2.528 -0.0154  0.2132 -0.0247
 8206PP      PP18310   8.675   8.238   0.385 -0.5790 -0.1269  0.0268
 8207PP      PP18311   7.110  11.549  10.448  0.1164 -0.1592 -0.0338
 8208PP      PP18312   4.541  15.663   1.171  0.3262  0.1618 -0.1533
 8209PP      PP18313   5.703  11.283  13.030 -0.4355 -0.2426 -0.1607
 8210PP      PP18314   0.381   3.683  11.706  0.0910 -0.0148 -0.0162
 8211PP      PP18315  14.797   3.178   2.039 -0.1489  0.1515  0.1316
 8212PP      PP18316   9.226   1.222  12.602 -0.5451  0.2346  0.1181
 8213PP      PP18317   4.316  11.691  12.958 -0.1707  0.1301 -0.1167
 8214PP      PP18318  15.396   5.371   9.228  0.0863  0.3006  0.3660
 8215PP      PP18319   7.621   2.683   0.071 -0.1131 -0.1835 -0.0481
 8216PP      PP18320   0.826   2.987   3.579  0.2380  0.1346 -0.2309
 8217PP      PP18321   1.366   6.658  11.014 -0.0047 -0.1081 -0.3994
 8218PP      PP18322   9.625   9.296   0.772 -0.4177  0.1559  0.0706
 8219PP      PP18323   4.285   3.141  11.505  0.3259 -0.2087  0.2780
 8220PP      PP18324   9.603   0.967  13.046  0.1197 -0.1473 -0.1868
 8221PP      PP18325   6.444  13.768   0.600 -0.0496  0.1923  0.0111
 8222PP      PP18326   8.725   6.454   3.628  0.1879  0.0430  0.2447
 8223PP      PP18327   9.253  15.022   4.912 -0.0227 -0.0867 -0.0780
 8224PP      PP18328   3.497   6.011   8.904 -0.0481  0.0494 -0.1735
 8225PP      PP18329  10.494   3.449   4.331  0.2233 -0.1193  0.2297
 8226PP      PP18330   9.046   6.797   0.768  0.0509 -0.0926  0.4260
 8227PP      PP18331  14.019   1.117   3.716 -0.2458 -0.0194 -0.0434
 8228PP      PP18332   8.037   9.328  10.429  0.1381  0.2710 -0.2871
 8229PP      PP18333   9.199  10.913   2.493 -0.0164 -0.3019 -0.0015
 8230PP      PP18334   3.511   9.403   8.756 -0.0390 -0.0003  0.1119
 8231PP      PP18335  11.776  12.274  10.194  0.1172 -0.2296 -0.0619
 8232PP      PP18336  14.495   6.332  11.289  0.0161 -0.0489 -0.1130
 8233PP      PP18337   3.428   9.858  11.123 -0.3409  0.0053 -0.1131
 8234PP      PP18338   2.530  13.111   2.541 -0.1043  0.0704 -0.2478
 8235PP      PP18339   4.800  14.614   0.032  0.1261 -0.1787 -0.1534
 8236PP      PP18340  15.529   8.024   2.702  0.1327 -0.0864 -0.1348
 8237PP      PP18341   6.493   8.067  11.407  0.2048 -0.0481 -0.1637
 8238PP      PP18342  11.241  11.863   2.767 -0.1067  0.0295 -0.1242
 8239PP      PP18343  13.015   5.055   2.789 -0.0603 -0.0030 -0.1203
 8240PP      PP18344   6.994   5.885   9.964 -0.0125 -0.1109 -0.2166
 8241PP      PP18345   1.190  14.403   1.204 -0.0863 -0.0248 -0.5268
 8242PP      PP18346  14.260   6.596   3.574  0.3049 -0.1627 -0.0213
 8243PP      PP18347   8.417   6.077   1.825  0.1020  0.1825 -0.3275
 8244PP      PP18348  13.867   4.151   3.806  0.5175  0.0154  0.0540
 8245PP      PP18349   8.091  15.019  12.191 -0.2832 -0.2899 -0.0501
 8246PP      PP18350   0.830   4.517  11.681  0.3301  0.3706  0.2611
 8247PP      PP18351   5.211   5.292  11.857 -0.1833 -0.0310 -0.1126
 8248PP      PP18352  14.915  15.783  11.658  0.2331  0.2574 -0.3044
 8249PP      PP18353   5.504   4.981  10.687 -0.3028 -0.1681  0.1940
 8250PP      PP18354  10.585  10.915   0.378 -0.0272  0.0976 -0.1147
 8251PP      PP18355   4.029   8.578  13.309 -0.0830 -0.3123  0.0187
 8252PP      PP18356   2.803   2.466  11.528 -0.3374  0.1807 -0.2005
 8253PP      PP18357   5.028   3.923   1.598 -0.0301  0.0370  0.2723
 8254PP      PP18358   9.149  11.010  12.545  0.3201  0.0322  0.1863
 8255PP      PP18359  12.210  14.098  10.261  0.0786  0.3910 -0.1016
 8256PP      PP18360  12.251  15.028   3.648 -0.1605  0.0767  0.0701
 8257PP      PP18361   4.432   4.876  11.638 -0.0413 -0.0286 -0.0317
 8258PP      PP18362   7.016  15.439   3.517 -0.2280  0.2307 -0.2072
 8259PP      PP18363  14.335   1.629  12.841 -0.2015  0.1606  0.1864
 8260PP      PP18364  14.070  10.849   3.021  0.0215  0.1626 -0.1277
 8261PP      PP18365   1.286   8.458  10.252 -0.0525 -0.2083 -0.1099
 8262PP      PP18366   9.956  15.756  11.163  0.2069  0.2744 -0.0089
 8263PP      PP18367  12.709  11.497   4.092 -0.0311  0.2800 -0.1108
 8264PP      PP18368  13.933  13.510   4.331 -0.0364  0.0670 -0.0082
 8265PP      PP18369   1.658  13.807  10.860  0.2583 -0.1327 -0.3518
 8266PP      PP18370   8.851   8.732  13.219 -0.2569  0.2429 -0.2461
 8267PP      PP18371   6.421   8.721  12.143  0.2439 -0.3932 -0.1448
 8268PP      PP18372   1.706  10.421   1.214 -0.1530 -0.0681 -0.2078
 8269PP      PP18373  14.898   5.623   0.665  0.1471  0.0178  0.0175
 8270PP      PP18374   9.262   0.127  10.669  0.1491 -0.0104  0.1074
 8271PP      PP18375   1.937   7.049   4.021 -0.2221 -0.1024 -0.2982
 8272PP      PP18376   3.314  15.061  12.513  0.0109 -0.1446 -0.2528
 8273PP      PP18377  13.528  12.318   1.459 -0.0082  0.0023 -0.1558
 8274PP      PP18378  10.123   6.170   0.928  0.1286  0.1138 -0.0632
 8275PP      PP18379   4.987   7.227   1.861 -0.1430 -0.1444  0.0239
 8276PP      PP18380  12.265  11.905   4.639  0.0943  0.4559 -0.0661
 8277PP      PP18381  11.283   7.046  12.022 -0.1659  0.3486  0.4359
 8278PP      PP18382   6.598  10.195   0.429  0.1754  0.2029 -0.1183
 8279PP      PP18383   9.271  15.213   1.801 -0.0191  0.1049  0.0905
 8280PP      PP18384  13.166   0.772  11.918  0.0232  0.3595 -0.3185
 8281PP      PP18385   0.742   0.908  10.728 -0.0998 -0.1441 -0.0081
 8282PP      PP18386  14.436  14.108   3.288 -0.1153 -0.0908  0.0689
 8283PP      PP18387  14.541   2.239  11.908 -0.0263  0.0462  0.3460
 8284PP      PP18388   8.801  10.091  11.953  0.2381 -0.0322 -0.0702
 8285PP      PP18389  15.615   4.253  12.140  0.0428 -0.2543  0.0088
 8286PP      PP18390  11.564   7.438   3.388 -0.1917  0.1664  0.2423
 8287PP      PP18391  13.876  10.593  13.160  0.2765  0.0442  0.0019
 8288PP      PP18392   1.237   4.365  13.462 -0.0722  0.2229 -0.0916
 8289PP      PP18393   8.411  12.446  12.365  0.2245  0.2715  0.3345
 8290PP      PP18394   1.593   0.004   0.990  0.3151 -0.1501 -0.1829
 8291PP      PP18395  13.382  13.515   2.800 -0.2415 -0.3698 -0.3144
 8292PP      PP18396   3.965  15.147  10.642 -0.2567 -0.0733  0.0201
 8293PP      PP18397   1.572  11.377   2.752  0.2179  0.0650  0.0650
 8294PP      PP18398  11.468   2.930   0.476 -0.2120 -0.1397 -0.0835
 8295PP      PP18399   8.606  13.434   2.701 -0.0282  0.0178  0.0612
 8296PP      PP18400   9.949   0.821   9.635  0.1205  0.0198  0.1232
 8297PP      PP18401   6.868  13.712   2.830  0.0663 -0.1023  0.0765
 8298PP      PP18402   6.644  15.666   9.280  0.1518 -0.1266  0.2121
 8299PP      PP18403   8.971  15.433   4.248 -0.1726 -0.1063  0.0058
 8300PP      PP18404  13.692  14.344   2.236  0.1538  0.3227  0.2736
 8301PP      PP18405  10.678  15.705  11.797 -0.2089 -0.0807 -0.1064
 8302PP      PP18406   4.357  14.782   3.961  0.1375 -0.2260 -0.1601
 8303PP      PP18407   1.675   3.285   0.024 -0.1503  0.2264  0.2781
 8304PP      PP18408   4.434   2.714   1.965  0.1655  0.2237 -0.0131
 8305PP      PP18409   6.807   3.051  12.295  0.0619 -0.2891  0.2513
 8306PP      PP18410  13.666   0.801   2.838  0.1213 -0.1980 -0.0426
 8307PP      PP18411   9.261  10.554   9.220 -0.2524  0.2312  0.0176
 8308PP      PP18412   4.830   0.196   2.780  0.0316  0.1895  0.3499
 8309PP      PP18413   8.845  13.733   9.943  0.2117  0.1227  0.3581
 8310PP      PP18414  10.859  11.870  13.357 -0.3366  0.0262 -0.1331
 8311PP      PP18415  12.391   9.083  13.144  0.1278  0.1482  0.0376
 8312PP      PP18416   9.820   3.490  10.037 -0.0294 -0.1104  0.0867
 8313PP      PP18417   5.106   5.674  13.375 -0.2596  0.3703  0.0109
 8314PP      PP18418   8.788   0.815   0.590 -0.2158 -0.1031  0.0853
 8315PP      PP18419   0.945  12.861   3.715  0.1113 -0.1763 -0.0662
 8316PP      PP18420   5.961   4.144  11.765 -0.0100 -0.3810 -0.0069
 8317PP      PP18421  12.382  11.187   9.977  0.0866 -0.1397 -0.2064
 8318PP      PP18422  11.750   4.500  11.582 -0.1192  0.3041  0.3564
 8319PP      PP18423  10.874   5.135   9.370  0.1703 -0.1284  0.1411
 8320PP      PP18424   9.846  15.487   3.765  0.0706  0.3651  0.1092
 8321PP      PP18425  15.807  11.657  13.198 -0.1637 -0.1878 -0.0983
 8322PP      PP18426   3.775   9.953   0.157 -0.0434  0.0141  0.0788
 8323PP      PP18427   6.070   0.950   0.060  0.0173 -0.1063 -0.0446
 8324PP      PP18428   1.057   2.410   1.442 -0.1609  0.0153  0.1864
 8325PP      PP18429   6.905  13.522  10.284  0.2289  0.2071  0.0416
 8326PP      PP18430   1.412   6.665   1.730 -0.0721 -0.1686 -0.1130
 8327PP      PP18431  12.691   7.473   2.182 -0.2484 -0.0252  0.0220
 8328PP      PP18432   1.077   0.606  12.755  0.1028 -0.3398  0.0819
 8329PP      PP18433   4.307  11.450  10.606 -0.0860  0.1146  0.0451
 8330PP      PP18434   0.885   7.156   9.582 -0.0032  0.2675 -0.1370
 8331PP      PP18435   4.947   9.901   1.855 -0.0005  0.1259 -0.4637
 8332PP      PP18436  12.152   2.174  10.085  0.2379  0.0121  0.0403
 8333PP      PP18437  12.947  15.764   9.336 -0.2061 -0.2450 -0.1436
 8334PP      PP18438  10.821  14.910   8.651  0.1604  0.3187 -0.3012
 8335PP      PP18439  13.818   4.114   1.414 -0.0170  0.4032 -0.0689
 8336PP      PP18440  12.522   6.564   9.438  0.0621  0.1706 -0.0799
 8337PP      PP18441   9.526  10.333   0.532 -0.2178 -0.3478 -0.2700
 8338PP      PP18442   2.184   2.982  11.782 -0.0017  0.0311 -0.2183
 8339PP      PP18443   1.512   1.406  10.610  0.2012  0.0994  0.1297
 8340PP      PP18444   2.165  13.995  11.802  0.1339  0.2248  0.1027
 8341PP      PP18445   2.705   5.052   0.750  0.0662 -0.0740 -0.3353
 8342PP      PP18446   2.076   8.137   9.118 -0.0091  0.1841  0.1578
 8343PP      PP18447  12.024  12.548  12.183 -0.1114 -0.2173 -0.2964
 8344PP      PP18448   7.756  14.008   0.049 -0.3125  0.0101  0.2050
 8345PP      PP18449   7.467  15.224  10.325 -0.0752 -0.0636  0.1780
 8346PP      PP18450   0.988   9.067   0.775 -0.1384 -0.6055 -0.1007
 8347PP      PP18451  11.316   6.980   0.732 -0.1522 -0.0189 -0.1901
 8348PP      PP18452   2.580   5.418  11.167 -0.1639  0.3507 -0.2014
 8349PP      PP18453   9.258   1.802   1.938  0.1271 -0.0998 -0.0640
 8350PP      PP18454   1.597   5.542  11.313  0.4698  0.2887  0.0755
 8351PP      PP18455   9.690  11.574  10.840  0.0572 -0.0150  0.1428
 8352PP      PP18456   1.662  13.843   3.518 -0.4427 -0.0989  0.0718
 8353PP      PP18457   5.179   0.850  13.357  0.0193 -0.2790 -0.3964
 8354PP      PP18458   5.868  14.364  12.256  0.0797  0.0406  0.0472
 8355PP      PP18459  13.864  11.452   1.513  0.3054  0.1358  0.0486
 8356PP      PP18460   2.819   5.408   0.348 -0.0718  0.0257  0.0217
 8357PP      PP18461   3.162   7.539   2.833 -0.1468  0.1451  0.0729
 8358PP      PP18462   7.345  11.881  10.156 -0.3390  0.0034 -0.0851
 8359PP      PP18463   9.385   3.798   1.461 -0.0781 -0.3316  0.0353
 8360PP      PP18464  11.896   9.281  12.390  0.0278 -0.0810  0.1699
 8361PP      PP18465   4.854  14.093  13.505  0.1542  0.0791  0.0893
 8362PP      PP18466  15.418   9.971  12.170 -0.2831 -0.1461  0.1775
 8363PP      PP18467   5.586  14.287   2.339  0.1379 -0.4096  0.0032
 8364PP      PP18468   7.070   8.203   8.944 -0.0940  0.2239 -0.0398
 8365PP      PP18469   3.389   2.005  10.433  0.2103 -0.5402 -0.0157
 8366PP      PP18470   0.535  15.653   2.005  0.1413 -0.1707 -0.0708
 8367PP      PP18471   2.587   3.280  12.051 -0.1687 -0.1770 -0.0849
 8368PP      PP18472  15.505  11.846   9.898 -0.2173  0.0135  0.1134
 8369PP      PP18473   0.394   1.349   4.886 -0.0722  0.0170  0.0686
 8370PP      PP18474   7.566   1.077   1.794 -0.1476  0.0787  0.2840
 8371PP      PP18475   4.868   2.605  10.711  0.1374 -0.0321  0.0551
 8372PP      PP18476   5.743  10.802  12.954 -0.1593 -0.2079 -0.3177
 8373PP      PP18477   2.396  10.274   8.890 -0.2251 -0.1145 -0.0035
 8374PP      PP18478   4.401  13.378   0.248  0.4640  0.0087 -0.2526
 8375PP      PP18479   1.464   2.749   9.753 -0.0845  0.0206  0.2037
 8376PP      PP18480   4.907  11.727   2.533 -0.0549  0.1341  0.0007
 8377PP      PP18481  14.772  12.511   4.018  0.1901  0.0661 -0.0083
 8378PP      PP18482   3.950   0.654   3.164  0.0180 -0.1122 -0.0242
 8379PP      PP18483   8.395   7.986   1.561 -0.1701 -0.0829 -0.3599
 8380PP      PP18484  14.430   2.972   2.852  0.2323  0.1810  0.0361
 8381PP      PP18485   0.327   2.309  12.399 -0.1389  0.2789  0.0506
 8382PP      PP18486   3.968   9.461   9.127 -0.0385  0.0316  0.1107
 8383PP      PP18487  13.522   8.765   4.207  0.1945  0.0334  0.1181
 8384PP      PP18488   8.256   5.371   8.978  0.0027 -0.0415 -0.0372
 8385PP      PP18489   5.223  13.739   4.336 -0.1397  0.2012 -0.0078
 8386PP      PP18490   1.067  12.871   2.645 -0.2687  0.0887 -0.2023
 8387PP      PP18491  12.859   7.563   3.075 -0.2598  0.0719 -0.0091
 8388PP      PP18492   5.445  14.218  12.397 -0.1841 -0.0799 -0.2954
 8389PP      PP18493   2.960   1.754   0.343 -0.3587 -0.2356 -0.0516
 8390PP      PP18494   8.274   2.726   2.419  0.1214 -0.0443  0.0730
 8391PP      PP18495   6.864   5.400   0.058  0.0978  0.0552  0.0587
 8392PP      PP18496   9.818   8.509  11.085 -0.3067 -0.1290  0.4112
 8393PP      PP18497   8.172  12.003   4.330  0.2129  0.1554  0.0715
 8394PP      PP18498   4.029  11.661   0.344 -0.1044 -0.1894  0.4063
 8395PP      PP18499   0.261   8.088  12.432  0.1364 -0.1103  0.0015
 8396PP      PP18500   0.577  10.157  12.107  0.1737 -0.0113  0.3850
 8397PP      PP18501   9.150  14.655   1.723 -0.0331 -0.2751 -0.1773
 8398PP      PP18502  10.177   2.342   0.009  0.1404  0.0473 -0.0816
 8399PP      PP18503   9.876   9.703   1.535 -0.2189 -0.2443  0.1611
 8400PP      PP18504   5.584  15.504  10.755 -0.0215  0.0203  0.1420
 8401PP      PP18505   7.553   6.423   2.918  0.0086  0.2055  0.1625
 8402PP      PP18506  14.375  13.231   1.291  0.3843  0.2041  0.2945
 8403PP      PP18507   9.369  13.935   4.653 -0.0369 -0.1539 -0.3605
 8404PP      PP18508  10.953  14.801   2.839 -0.2610 -0.1318 -0.2080
 8405PP      PP18509   3.104   9.375   2.599  0.1349 -0.2000  0.3967
 8406PP      PP18510  13.108   2.517   2.403 -0.3910 -0.0039 -0.2820
 8407PP      PP18511   9.773   1.865  11.826  0.0504 -0.3948  0.0726
 8408PP      PP18512   1.882  14.185   4.716 -0.0520 -0.0096  0.0301
 8409PP      PP18513   5.778   1.286   0.355 -0.1523 -0.1246  0.0329
 8410PP      PP18514  10.233   6.842  10.494  0.2703  0.0405  0.2796
 8411PP      PP18515  13.888  11.121  10.736  0.0919  0.2935 -0.0288
 8412PP      PP18516  12.407   2.090  11.747  0.4175 -0.1172  0.2118
 8413PP      PP18517  14.021   0.967   2.574  0.0831 -0.2280  0.1167
 8414PP      PP18518  10.686   8.892   2.602  0.1171  0.1736  0.1208
 8415PP      PP18519  13.986  12.273  13.291  0.0095 -0.4234  0.1264
 8416PP      PP18520   0.787   4.202   9.028 -0.3375 -0.3031  0.1781
 8417PP      PP18521  12.025  14.904  12.357 -0.1292  0.0289  0.2283
 8418PP      PP18522  12.248  11.439   0.726 -0.1015 -0.1031  0.1857
 8419PP      PP18523  10.280   1.878   5.237  0.3230 -0.0729 -0.1109
 8420PP      PP18524   7.083  11.559   1.561 -0.2969  0.0051 -0.1116
 8421PP      PP18525   3.062   3.631  12.818  0.2874 -0.0726 -0.2275
 8422PP      PP18526   9.779  13.133   9.131 -0.0665 -0.2558  0.3185
 8423PP      PP18527  11.098   8.437  10.156  0.0055  0.0139  0.2175
 8424PP      PP18528  11.309  14.388  11.125  0.2548 -0.2393 -0.1589
 8425PP      PP18529   7.180  11.399  11.980  0.0351 -0.1121  0.0130
 8426PP      PP18530  13.122   0.655   0.120  0.0534 -0.0246 -0.0311
 8427PP      PP18531  14.950  10.218   0.336  0.1800  0.1724  0.0033
 8428PP      PP18532   2.340   0.144   9.712  0.1251 -0.3944  0.3285
 8429PP      PP18533  11.788  12.300   1.099  0.4115 -0.1598 -0.0179
 8430PP      PP18534  11.405   5.034   1.844  0.1329  0.1675 -0.2477
 8431PP      PP18535   1.824   3.591   8.899  0.2933  0.2350 -0.3797
 8432PP      PP18536  13.039   8.044  13.107  0.1569 -0.0235  0.3090
 8433PP      PP18537   0.485  14.352  11.399  0.1411  0.1509 -0.1480
 8434PP      PP18538   3.091  10.737   2.683  0.0798 -0.3423  0.3308
 8435PP      PP18539   4.060  11.866   3.755 -0.0788 -0.2112  0.0651
 8436PP      PP18540   2.718  13.751  11.838 -0.0108  0.1377 -0.1831
 8437PP      PP18541  10.204   9.076   8.934 -0.0736  0.3655 -0.2041
 8438PP      PP18542   2.465   6.203   1.114  0.1441  0.0646 -0.3179
 8439PP      PP18543   2.897   3.000   4.022  0.2597 -0.0843  0.1712
 8440PP      PP18544  13.480   7.517   0.994  0.0779  0.1118  0.3028
 8441PP      PP18545   6.509   4.966  10.346  0.0385 -0.0436 -0.3626
 8442PP      PP18546  14.879  10.251   1.797 -0.0591 -0.3434 -0.2218
 8443PP      PP18547   6.150  10.842   0.253  0.3491 -0.1293  0.1214
 8444PP      PP18548  11.465  14.525   4.392  0.0128  0.2573 -0.0392
 8445PP      PP18549   9.227   3.697   3.838  0.0397  0.1448  0.1306
 8446PP      PP18550  14.308  13.032  11.934  0.0827  0.3186 -0.1830
 8447PP      PP18551  12.830  13.415   1.540  0.0759  0.0259 -0.1224
 8448PP      PP18552   8.824  11.097   3.422 -0.1597  0.0625 -0.3574
 8449PP      PP18553   8.595   3.371   0.921  0.1524  0.1802 -0.1488
 8450PP      PP18554  15.647   8.848   2.922 -0.0623  0.1391  0.0664
 8451PP      PP18555   4.221   5.150  10.734  0.1104  0.0274  0.0665
 8452PP      PP18556  14.957   5.357   2.264  0.2502  0.2238 -0.0285
 8453PP      PP18557   5.412   6.332   8.784  0.1043  0.1863 -0.0253
 8454PP      PP18558   4.649   1.686   2.409  0.2993 -0.3640 -0.1510
 8455PP      PP18559  12.332   4.972  10.865 -0.1215 -0.1373  0.2532
 8456PP      PP18560  14.562  13.265   2.197 -0.1313 -0.1676 -0.2307
 8457PP      PP18561  11.934   3.510   0.868 -0.2258  0.0697 -0.0399
 8458PP      PP18562   4.647   2.701  12.597  0.0547 -0.3359  0.0183
 8459PP      PP18563  14.789   5.810   9.683  0.2521  0.0572  0.1467
 8460PP      PP18564   5.144  15.274  10.838  0.2641 -0.1909 -0.1324
 8461PP      PP18565   9.786   0.369  11.313  0.0744  0.1036  0.1433
 8462PP      PP18566   1.869  10.800   0.754  0.0089 -0.1686  0.2408
 8463PP      PP18567  10.851   8.485   0.791 -0.0144  0.2089  0.0349
 8464PP      PP18568   0.974   6.698  13.118 -0.1175 -0.0018  0.1804
 8465PP      PP18569   6.900  10.912   9.966  0.2477 -0.8561  0.1223
 8466PP      PP18570  13.366   0.824   9.224  0.0093  0.0771 -0.0536
 8467PP      PP18571   6.911   0.599   3.926  0.0339  0.0994 -0.0800
 8468PP      PP18572  15.147  13.500   3.856  0.5194 -0.2259  0.0819
 8469PP      PP18573   1.612  14.350   1.501  0.1774 -0.3851 -0.1203
 8470PP      PP18574   7.182   6.638   9.482 -0.1411 -0.1017 -0.0084
 8471PP      PP18575   6.434  12.051  13.303 -0.2518  0.4787  0.2196
 8472PP      PP18576   9.723   3.423   0.437 -0.1784  0.0353 -0.0060
 8473PP      PP18577   3.561   2.799   1.537 -0.1159 -0.1623 -0.3478
 8474PP      PP18578   5.955  15.665  11.796 -0.2923 -0.1188  0.1547
 8475PP      PP18579   0.334  12.811   2.449 -0.1342  0.1147 -0.1007
 8476PP      PP18580   2.859  12.249  11.951  0.1833 -0.1655  0.0222
 8477PP      PP18581  11.616  13.955   1.093 -0.0075 -0.4548 -0.0846
 8478PP      PP18582  14.277   0.014   2.441 -0.1773  0.0458 -0.0254
 8479PP      PP18583   7.196   4.095   0.758 -0.1273 -0.2618 -0.4108
 8480PP      PP18584  15.095   3.481   8.308  0.2001 -0.0991 -0.0510
 8481PP      PP18585   8.032  12.194  12.059 -0.0306 -0.4032 -0.0550
 8482PP      PP18586   6.867  15.488  12.000  0.1391  0.1684 -0.0064
 8483PP      PP18587  11.410   4.519  13.460  0.1574 -0.2138 -0.3270
 8484PP      PP18588   5.238  12.551   1.607  0.1998 -0.4480 -0.1948
 8485PP      PP18589  10.598  11.323   4.699 -0.1602  0.1113  0.0865
 8486PP      PP18590   0.061   8.363   9.636  0.0500 -0.2178 -0.1312
 8487PP      PP18591  14.764   8.516   3.662 -0.0483 -0.2599 -0.3367
 8488PP      PP18592  12.606  12.322   4.586 -0.1649  0.2191  0.2089
 8489PP      PP18593  13.536   9.408   3.465  0.1705  0.1060  0.1483
 8490PP      PP18594  13.425   8.949  10.737 -0.3105  0.1562  0.1637
 8491PP      PP18595   5.279   8.511   2.001 -0.4872  0.1957  0.1943
 8492PP      PP18596   8.792   1.820  12.023 -0.1527  0.0906 -0.6068
 8493PP      PP18597  11.437  11.147   8.924 -0.0384 -0.1310  0.3728
 8494PP      PP18598   0.775  11.623   4.730 -0.0318  0.2096  0.1581
 8495PP      PP18599  14.847  15.201   0.431 -0.0419 -0.1450 -0.0948
 8496PP      PP18600   4.801  14.781   1.416 -0.1356 -0.0052  0.0061
 8497PP      PP18601  11.022   1.215  13.284  0.1145 -0.1398 -0.1155
 8498PP      PP18602   5.442  13.259   2.563  0.0210 -0.1428 -0.2574
 8499PP      PP18603   6.959   1.066   2.932  0.0462  0.1425 -0.0632
 8500PP      PP18604   2.345  13.849   9.210  0.1669  0.0529 -0.1507
 8501PP      PP18605  15.360   3.545  11.580 -0.0825  0.0594  0.0476
 8502PP      PP18606   5.827   1.469  10.810  0.1051 -0.1281  0.0835
 8503PP      PP18607   5.581   8.902  12.725  0.0553  0.0311 -0.1007
 8504PP      PP18608  12.711   5.793   3.554 -0.0393  0.0946  0.0918
 8505PP      PP18609   8.052  14.948   0.426 -0.1900  0.2470  0.0161
 8506PP      PP18610   7.625  12.211   9.296  0.1507  0.0313 -0.0923
 8507PP      PP18611  15.864  15.864   0.861 -0.2920 -0.2283  0.1019
 8508PP      PP18612   0.604   7.693  10.774  0.0018 -0.0281  0.0498
 8509PP      PP18613  14.773  13.718   0.698  0.0528 -0.0706 -0.0792
 8510PP      PP18614   0.258   2.526   3.791 -0.1013 -0.0658 -0.3447
 8511PP      PP18615   9.316   3.166  10.060  0.3170 -0.1090  0.2400
 8512PP      PP18616   0.914   8.732   1.256  0.2979 -0.1397  0.4793
 8513PP      PP18617   6.164  15.024   0.628 -0.1829 -0.1141 -0.0110
 8514PP      PP18618  10.137   0.551  11.670  0.2008 -0.0975  0.0745
 8515PP      PP18619  14.849   2.778   2.822  0.2640 -0.0016 -0.0573
 8516PP      PP18620  14.160   3.217   4.517  0.0111 -0.3992  0.4966
 8517PP      PP18621   9.721   1.985   1.748 -0.0377 -0.0689  0.1744
 8518PP      PP18622   8.503   3.353   2.972  0.1408  0.1882  0.1847
 8519PP      PP18623  15.378   6.080   3.070  0.0402 -0.1676  0.1388
 8520PP      PP18624  14.404   8.699   9.894 -0.0204 -0.0577 -0.1204
 8521PP      PP18625  13.508  15.794  10.861  0.0508  0.0576  0.0083
 8522PP      PP18626   6.864   4.024   3.974  0.0090  0.3082 -0.1739
 8523PP      PP18627   1.537   2.448   8.690  0.2432  0.0635 -0.0945
 8524PP      PP18628   7.986   7.971  11.565 -0.1889 -0.2001  0.0145
 8525PP      PP18629   8.473   5.685  12.900  0.0164  0.1372 -0.0343
 8526PP      PP18630  12.260  15.161   4.589  0.3778  0.0969  0.1159
 8527PP      PP18631  11.151   2.293  12.415 -0.1154 -0.3623 -0.1475
 8528PP      PP18632   0.456   5.115   9.495 -0.1646 -0.1698  0.0015
 8529PP      PP18633   1.169   3.739   3.176 -0.3114  0.3831  0.0877
 8530PP      PP18634  15.392   6.699   1.607  0.2965  0.1495 -0.3026
 8531PP      PP18635   1.857   6.975  13.500  0.1235 -0.0723  0.0766
 8532PP      PP18636   2.925  14.657  13.016  0.0028  0.0292 -0.0055
 8533PP      PP18637   7.829   9.555   0.413  0.3541  0.1832  0.0649
 8534PP      PP18638   1.446   6.747   8.996 -0.3021  0.1634  0.0011
 8535PP      PP18639   6.692  10.883   2.518  0.0380 -0.0592  0.0029
 8536PP      PP18640   7.179   4.366   1.814  0.0048 -0.0901  0.0394
 8537PP      PP18641   1.429   5.463   3.838 -0.2508 -0.2331  0.0837
 8538PP      PP18642  15.622  14.702   0.142  0.1520 -0.1220  0.0892
 8539PP      PP18643  12.238  15.415   2.744  0.2239 -0.4688 -0.0967
 8540PP      PP18644  15.846   5.741   0.005 -0.2332 -0.2294 -0.0572
 8541PP      PP18645   6.687   1.711   2.387  0.0441  0.2090 -0.1564
 8542PP      PP18646   4.035  13.987   9.073 -0.0150 -0.0444  0.3625
 8543PP      PP18647  14.506   9.222   9.864  0.1320  0.0789 -0.0962
 8544PP      PP18648   2.955   8.489  11.641  0.0999  0.1601  0.0218
 8545PP      PP18649   6.181  11.794  11.322 -0.4033  0.0321 -0.4346
 8546PP      PP18650   8.229  13.715  12.047 -0.2022  0.0262 -0.0977
 8547PP      PP18651   5.303   3.424   8.871 -0.0340  0.0811  0.2048
 8548PP      PP18652  14.113   1.489  11.183 -0.4106 -0.0655  0.0758
 8549PP      PP18653   4.879  15.583   1.528  0.2892  0.2171  0.1357
 8550PP      PP18654   7.255   5.481   1.567 -0.0993  0.2418 -0.0453
 8551PP      PP18655  14.929  10.452   3.918  0.1658  0.0285 -0.2284
 8552PP      PP18656   4.874  13.889  10.456 -0.0748  0.2700 -0.3331
 8553PP      PP18657   0.849   1.701   0.344 -0.2550  0.1460  0.1178
 8554PP      PP18658  10.098   6.070   0.462 -0.1393  0.2236  0.4565
 8555PP      PP18659   2.625  13.896  10.484  0.0023 -0.0237 -0.0405
 8556PP      PP18660   3.209   9.468  12.577 -0.0334 -0.0386  0.0483
 8557PP      PP18661   1.521  12.498  10.216 -0.1097 -0.1183  0.0327
 8558PP      PP18662   6.531   0.176   4.844  0.0071  0.0116 -0.0567
 8559PP      PP18663   8.205  12.583  12.867  0.1156 -0.0053  0.1616
 8560PP      PP18664   1.920   3.244   2.263 -0.2526 -0.2196 -0.1463
 8561PP      PP18665   9.984   3.983  11.639 -0.0965 -0.1091 -0.0691
 8562PP      PP18666  15.000   4.498   9.307  0.2215  0.0499 -0.2327
 8563PP      PP18667   9.343  13.128   2.439  0.1986  0.0054 -0.0974
 8564PP      PP18668   6.810   3.108   9.640  0.0205 -0.0044  0.0375
 8565PP      PP18669   8.019   7.428  11.312 -0.0577 -0.0875  0.0395
 8566PP      PP18670   8.377  14.093   9.368  0.2866 -0.0126 -0.1745
 8567PP      PP18671  10.156  11.693  11.199  0.0621  0.0059  0.1570
 8568PP      PP18672   0.188   4.009  12.229 -0.1804  0.2489 -0.1056
 8569PP      PP18673   9.483   3.804   4.777 -0.1511  0.1719  0.1833
 8570PP      PP18674   6.126   4.764   1.846 -0.2851 -0.0526  0.1160
 8571PP      PP18675   9.245   4.779  11.357  0.0761 -0.1046  0.3036
 8572PP      PP18676  13.245  14.694   4.276  0.1056 -0.0490  0.2729
 8573PP      PP18677  13.583   1.287   2.361 -0.1790  0.2308 -0.1851
 8574PP      PP18678   6.049  11.388   0.374 -0.1383  0.0103  0.2189
 8575PP      PP18679  15.673   9.740   3.035  0.1050 -0.0961  0.0851
 8576PP      PP18680   0.745   9.212   0.384  0.0124  0.0962 -0.0271
 8577PP      PP18681  11.565   0.261   2.379  0.4159 -0.1430 -0.2200
 8578PP      PP18682   5.620   0.448  10.281  0.1667  0.1373  0.2544
 8579PP      PP18683   9.223   5.972  11.763 -0.2143 -0.0377  0.0335
 8580PP      PP18684   7.542  14.552   9.002 -0.0312 -0.1279  0.3464
 8581PP      PP18685   4.983  13.107   2.798 -0.1631 -0.0340 -0.0362
 8582PP      PP18686   9.761  15.024   8.712 -0.1099 -0.0979  0.0542
 8583PP      PP18687  11.645   1.715   0.002 -0.4802  0.2243 -0.1529
 8584PP      PP18688  14.319   8.355   1.181  0.0874  0.1029  0.2989
 8585PP      PP18689  12.198   3.181   4.124 -0.0954 -0.1665 -0.0631
 8586PP      PP18690  12.689  13.804  13.090  0.0699  0.1439 -0.2726
 8587PP      PP18691   3.720   4.387   0.038  0.1617  0.0435  0.0556
 8588PP      PP18692   1.782  13.954   4.310  0.0139  0.1424  0.0645
 8589PP      PP18693   4.673  10.209  11.627 -0.2984  0.0378 -0.4510
 8590PP      PP18694   4.047   0.973   1.786  0.1145 -0.4458  0.3321
 8591PP      PP18695   4.199   9.465   2.206 -0.1903  0.0650  0.3124
 8592PP      PP18696   7.463  14.303   3.167 -0.0580 -0.0985  0.2106
 8593PP      PP18697  10.417  12.921   9.723 -0.5572  0.1859  0.1434
 8594PP      PP18698   2.885   8.121   3.707  0.0838  0.2909 -0.0965
 8595PP      PP18699   2.197   5.661  12.145 -0.0696 -0.1197  0.4756
 8596PP      PP18700   5.281   9.962   0.431  0.0391 -0.0724 -0.1419
 8597PP      PP18701  12.099   6.113  10.825  0.0419  0.0086  0.2356
 8598PP      PP18702  13.151  11.243   2.983  0.1434  0.2344 -0.2259
 8599PP      PP18703   0.881   5.111  12.934  0.0127  0.2181  0.0531
 8600PP      PP18704  13.255   4.713  11.611 -0.3050 -0.2242 -0.0324
 8601PP      PP18705  11.789  10.977  12.400  0.1751  0.3162  0.1507
 8602PP      PP18706  12.708   9.423  10.947  0.0391  0.2755 -0.0243
 8603PP      PP18707  11.842   4.461  12.159  0.0280  0.1410 -0.2111
 8604PP      PP18708   7.085  12.820   4.722 -0.0236  0.0671 -0.0271
 8605PP      PP18709   5.533  12.546   2.765  0.2097 -0.1816 -0.2112
 8606PP      PP18710   3.145   4.037   2.950 -0.0866 -0.1096  0.4039
 8607PP      PP18711  12.198  14.046   1.480 -0.0254  0.2069  0.0579
 8608PP      PP18712   6.525   4.879  13.064 -0.1586 -0.1804  0.1469
 8609PP      PP18713  10.008   2.715  10.147 -0.2004  0.2321 -0.1182
 8610PP      PP18714  14.740  14.674  12.490 -0.2455  0.1871 -0.0736
 8611PP      PP18715  14.444  15.042  12.376  0.1829  0.1404 -0.1522
 8612PP      PP18716  15.319  10.509   9.880  0.1556 -0.0157 -0.0052
 8613PP      PP18717   0.726  15.697  11.382 -0.0951  0.3917 -0.1370
 8614PP      PP18718  15.363   0.297   0.763 -0.3988 -0.0503  0.1637
 8615PP      PP18719  14.982   5.829   2.439 -0.0325 -0.0077  0.1243
 8616PP      PP18720  13.778  13.858   0.115 -0.2211  0.0868 -0.1337
 8617PP      PP18721   6.101   8.200   9.072  0.0915  0.0670  0.0994
 8618PP      PP18722   2.238   9.079  12.199  0.1126 -0.2649  0.3518
 8619PP      PP18723   0.054   3.771  11.333  0.2036 -0.1124  0.1438
 8620PP      PP18724   1.623  15.365   0.634  0.0616 -0.0304 -0.1461
 8621PP      PP18725  13.695  15.497   1.103  0.1665  0.1830 -0.1917
 8622PP      PP18726   7.463  12.643   2.369  0.1445 -0.1777  0.0866
 8623PP      PP18727   7.103  12.505  11.816 -0.0341 -0.1393  0.0925
 8624PP      PP18728   7.991   8.475  12.923 -0.1695 -0.3221  0.1196
 8625PP      PP18729  10.298  15.250   3.882 -0.1051  0.0556  0.1201
 8626PP      PP18730  10.940   6.892  13.327 -0.2550 -0.0197 -0.1420
 8627PP      PP18731   5.608   7.677  13.143  0.2783 -0.0212  0.2084
 8628PP      PP18732   9.469   8.885   1.761 -0.1587 -0.0182  0.1261
 8629PP      PP18733   6.660   3.544   3.301 -0.0453  0.4314 -0.0400
 8630PP      PP18734   8.035   9.551  12.600  0.2141 -0.0020  0.1284
 8631PP      PP18735   2.728  14.204  13.007  0.1089  0.2079 -0.0284
 8632PP      PP18736  12.786  13.494   0.148 -0.1119  0.2303  0.4319
 8633PP      PP18737   2.012   9.044   1.043  0.0477  0.1809  0.1053
 8634PP      PP18738   8.587  11.729   1.069 -0.0460  0.0360  0.0198
 8635PP      PP18739   9.358   1.593  11.593  0.1455  0.0647 -0.2352
 8636PP      PP18740   7.228   8.007  12.582 -0.0024  0.2118 -0.0204
 8637PP      PP18741  11.981   6.146   2.518  0.2216 -0.2829 -0.1440
 8638PP      PP18742   0.977   5.970  10.452  0.2405 -0.3199 -0.0740
 8639PP      PP18743   5.523   2.319   2.840 -0.2862  0.0298 -0.3282
 8640PP      PP18744   7.730   7.629   3.597  0.0169  0.1726  0.2643
 8641PP      PP18745  12.771   2.171  10.956  0.1697  0.0140 -0.0801
 8642PP      PP18746   3.319   3.564   3.153 -0.3233  0.1624 -0.2185
 8643PP      PP18747  15.222   5.581   9.639 -0.0097  0.2271  0.0747
 8644PP      PP18748   2.488  11.707  11.338 -0.2853  0.0050 -0.1322
 8645PP      PP18749   8.491   1.587   2.668 -0.1193 -0.0183  0.0813
 8646PP      PP18750  15.293   0.597  10.835  0.3070 -0.0196  0.0707
 8647PP      PP18751   2.402   1.533   3.705 -0.2044  0.0974 -0.2094
 8648PP      PP18752  13.343  15.282   9.400  0.0340  0.1148 -0.2050
 8649PP      PP18753  15.648   7.449   1.502  0.0123 -0.0118  0.1478
 8650PP      PP18754  10.189  13.421   9.973 -0.2198 -0.0988 -0.2124
 8651PP      PP18755   8.934   7.030  12.328 -0.0959  0.1631 -0.2456
 8652PP      PP18756   5.893  15.056   4.493 -0.1086 -0.1331  0.1870
 8653PP      PP18757   6.618   1.225  13.498 -0.0543 -0.1096 -0.0582
 8654PP      PP18758   6.790  10.283   9.019  0.1203  0.1183  0.1107
 8655PP      PP18759  14.909   3.152  11.469 -0.2110  0.3277  0.2313
 8656PP      PP18760  12.138   2.756   2.149  0.4467  0.0884 -0.4617
 8657PP      PP18761   1.729   8.353   2.073 -0.3355 -0.3037 -0.1982
 8658PP      PP18762   6.560   6.652  12.129 -0.2140  0.0228 -0.0672
 8659PP      PP18763   0.929   5.528   0.923  0.0881 -0.0102  0.1401
 8660PP      PP18764   9.048   4.428   9.525  0.0990  0.1574  0.0746
 8661PP      PP18765   0.428   2.873   2.457  0.0176 -0.2377  0.2578
 8662PP      PP18766  15.262  14.384   4.082 -0.2789  0.0308 -0.0531
 8663PP      PP18767  13.713   6.046  10.964  0.0716  0.0957  0.0986
 8664PP      PP18768  13.890  11.520   1.997 -0.2274  0.1138  0.0534
 8665PP      PP18769   5.215  15.772  13.060  0.0024  0.2248 -0.2201
 8666PP      PP18770  13.998   3.845   4.296 -0.0982  0.5554  0.1278
 8667PP      PP18771   3.972   3.099  11.955 -0.0795  0.0980 -0.1474
 8668PP      PP18772   3.098  11.864  10.152 -0.4922  0.1213  0.2841
 8669PP      PP18773   3.623   3.587   8.735 -0.1019 -0.0405 -0.0729
 8670PP      PP18774   5.312   3.931  11.744  0.3421  0.3310 -0.2488
 8671PP      PP18775   5.795  12.604  10.836  0.2342  0.0790  0.0601
 8672PP      PP18776   3.696  14.169  12.867  0.0408  0.0961 -0.1738
 8673PP      PP18777   5.434   2.679  10.867 -0.1825 -0.3202  0.0795
 8674PP      PP18778   2.616  10.591   0.485 -0.0588  0.1503 -0.0901
 8675PP      PP18779  14.368   4.515   9.809  0.0489 -0.0599 -0.1476
 8676PP      PP18780   3.155  13.291   8.450 -0.0744 -0.1618  0.0926
 8677PP      PP18781  11.462  13.081   3.771  0.2808 -0.0892  0.4800
 8678PP      PP18782   0.569   1.355  12.042 -0.3559 -0.2469  0.4171
 8679PP      PP18783  11.305   7.205   8.416  0.1775 -0.1196 -0.1272
 8680PP      PP18784  15.023   0.363   9.886 -0.0227  0.1386 -0.2078
 8681PP      PP18785   4.246   8.576   3.781 -0.0152  0.0450 -0.2344
 8682PP      PP18786   6.198  12.189  12.038  0.0452 -0.0247 -0.0399
 8683PP      PP18787   1.803   5.797  11.672  0.1193 -0.1893 -0.2029
 8684PP      PP18788   4.491   9.293  10.444  0.2735  0.2851 -0.1127
 8685PP      PP18789   0.491   7.058   2.578  0.1038 -0.0012  0.0882
 8686PP      PP18790  13.819   0.949   9.313  0.0482  0.0183 -0.1146
 8687PP      PP18791   2.713  15.378   3.892 -0.0160  0.0103  0.1323
 8688PP      PP18792  14.011  13.774  10.946 -0.0765 -0.1570  0.2451
 8689PP      PP18793   5.692   0.871  11.857  0.1971 -0.0235  0.4508
 8690PP      PP18794   6.717   1.136   0.677  0.0201  0.0679  0.0995
 8691PP      PP18795   2.912   8.992  11.769  0.3004 -0.0950  0.0210
 8692PP      PP18796   2.978  12.744   3.421  0.0908 -0.0171  0.0694
 8693PP      PP18797   8.184   7.153   8.208 -0.1891 -0.1556 -0.3056
 8694PP      PP18798   0.836  13.340  11.747  0.0045  0.2760  0.0215
 8695PP      PP18799   1.907  14.951  11.913 -0.0959 -0.2600 -0.1221
 8696PP      PP18800   5.917  11.340   5.099 -0.3150 -0.0246  0.0457
 8697PP      PP18801  10.574  15.388  13.435 -0.1717 -0.1759 -0.0474
 8698PP      PP18802   8.062   1.593   1.840 -0.0288 -0.0469 -0.1384
 8699PP      PP18803  10.555  14.239   1.990  0.0829 -0.2586 -0.0491
 8700PP      PP18804   8.378  15.354   9.950  0.1369 -0.0533  0.0587
 8701PP      PP18805   0.206   3.435  12.145 -0.3548 -0.1109  0.2159
 8702PP      PP18806   5.420   7.876  12.626 -0.2185  0.0837 -0.2135
 8703PP      PP18807   1.071   2.857   4.271  0.1429  0.0904 -0.0063
 8704PP      PP18808   1.536   9.286   9.596 -0.4050 -0.0862 -0.0338
 8705PP      PP18809  15.538   5.605  13.133  0.0199  0.0985 -0.0800
 8706PP      PP18810  13.592   5.532  13.136  0.1558  0.1079 -0.3303
 8707PP      PP18811   6.456   0.793  12.396  0.0385  0.2433  0.3204
 8708PP      PP18812  11.585   9.808   4.463 -0.0911  0.4874  0.0971
 8709PP      PP18813   5.744  10.994  12.039 -0.0393  0.1140 -0.0870
 8710PP      PP18814  10.328   5.833   1.647  0.0337 -0.1197  0.2336
 8711PP      PP18815  13.594   9.865  10.123  0.3372  0.1307  0.1001
 8712PP      PP18816   9.753   6.435   2.781 -0.1191 -0.1281  0.0303
 8713PP      PP18817  14.803   6.736   8.463 -0.0674 -0.2509 -0.0834
 8714PP      PP18818  13.784   2.005   0.430 -0.2263 -0.2087 -0.2822
 8715PP      PP18819   7.285   9.246  12.051  0.1209 -0.0958  0.1096
 8716PP      PP18820  12.268  14.677   4.804 -0.2886 -0.1006 -0.0924
 8717PP      PP18821   3.784  15.567   4.749  0.0631  0.0260 -0.1728
 8718PP      PP18822  10.183   1.873   3.224  0.2273  0.1149 -0.0891
 8719PP      PP18823  15.662  15.524  10.840 -0.1459  0.0304 -0.4316
 8720PP      PP18824   2.754   7.601   1.384  0.2863 -0.0086  0.1844
 8721PP      PP18825  15.847   3.335  11.642  0.3230 -0.0955 -0.0521
 8722PP      PP18826   1.458   2.161  10.283 -0.2688  0.2280  0.2817
 8723PP      PP18827  14.505   1.133  12.743  0.1441 -0.3396  0.0662
 8724PP      PP18828   3.649  10.618  12.385 -0.0328 -0.0357 -0.0313
 8725PP      PP18829  11.946   7.964   2.606 -0.2720 -0.2655 -0.0285
 8726PP      PP18830  10.154   7.410   1.640 -0.1893 -0.1647  0.0445
 8727PP      PP18831   2.528  15.149   3.086 -0.0655  0.0509 -0.0808
 8728PP      PP18832  10.466  11.655   4.307  0.0472 -0.0135 -0.0923
 8729PP      PP18833   2.267  11.567   8.607  0.3811 -0.1275 -0.1634
 8730PP      PP18834   6.772   5.882   2.483  0.2200 -0.0862 -0.2149
 8731PP      PP18835   1.890   2.665   3.168 -0.1177 -0.0089  0.1714
 8732PP      PP18836  14.047  13.371  10.496  0.1190  0.1111 -0.3759
 8733PP      PP18837   9.410   6.500   8.919 -0.1270  0.1750  0.1549
 8734PP      PP18838  14.480  10.721   9.556  0.0459 -0.3802  0.1546
 8735PP      PP18839  10.141   3.555   3.308 -0.0093 -0.0873 -0.1262
 8736PP      PP18840  14.440  13.226  13.050 -0.1559  0.2303 -0.1146
 8737PP      PP18841   3.707   0.896   0.937  0.0515  0.0731  0.0318
 8738PP      PP18842   8.521   0.153   2.330 -0.0343  0.1661 -0.2363
 8739PP      PP18843  11.229   2.543   1.802 -0.1464 -0.0829 -0.2536
 8740PP      PP18844  15.718  13.200   1.842  0.0507  0.0507 -0.0156
 8741PP      PP18845   9.654  15.598  12.119 -0.0980 -0.0375  0.0484
 8742PP      PP18846   4.320   8.493   1.969  0.1421 -0.0690 -0.5715
 8743PP      PP18847   2.365   4.669  10.098  0.3851 -0.0524  0.1094
 8744PP      PP18848   3.024   0.694   2.464 -0.3170 -0.1942  0.2132
 8745PP      PP18849  11.279   3.012   3.050  0.3459  0.0504 -0.0416
 8746PP      PP18850  15.584  11.562  10.631 -0.1249  0.2240  0.0777
 8747PP      PP18851   3.486  12.508   2.026 -0.0181 -0.1445  0.0144
 8748PP      PP18852   7.734   1.037   2.997  0.2975  0.0122 -0.0968
 8749PP      PP18853  11.927  10.702  11.034  0.3906  0.3248 -0.2960
 8750PP      PP18854   7.999   8.800  11.508 -0.0557 -0.1646 -0.6331
 8751PP      PP18855   9.904  10.537  12.411  0.1220 -0.1079 -0.1392
 8752PP      PP18856   3.019   0.636   1.858 -0.0530  0.2895  0.1370
 8753PP      PP18857   6.095   8.668   2.503  0.0844 -0.0425  0.0592
 8754PP      PP18858  12.844  10.317   1.311 -0.3971  0.1440 -0.2000
 8755PP      PP18859  15.461  12.006   3.115  0.0260 -0.0762 -0.2190
 8756PP      PP18860  15.046   4.708   1.294  0.0899  0.0016  0.4886
 8757PP      PP18861   2.599   2.148   1.127 -0.1109 -0.1954 -0.1465
 8758PP      PP18862  12.232   7.578  11.326  0.3298  0.1392 -0.0777
 8759PP      PP18863   0.249   0.300   2.004  0.1767 -0.0982  0.2702
 8760PP      PP18864   8.551  11.393   1.457  0.0972  0.1146  0.0998
 8761PP      PP18865   6.117   2.040   3.165  0.0353  0.0868  0.1937
 8762PP      PP18866   4.719   2.774  13.156 -0.0604  0.1095 -0.0226
 8763PP      PP18867   5.998   0.604  12.256 -0.2475 -0.4356  0.0857
 8764PP      PP18868  15.856   2.740   3.100 -0.2290  0.0506 -0.0923
 8765PP      PP18869   7.869   4.133  10.215  0.1418 -0.0092  0.0290
 8766PP      PP18870   9.702   8.205  11.631  0.4690 -0.0095 -0.1465
 8767PP      PP18871   2.065  15.733  10.906 -0.1154  0.0166  0.0929
 8768PP      PP18872   0.070  13.554  13.302 -0.0559 -0.0254  0.5002
 8769PP      PP18873   7.983   5.939  13.035  0.1782  0.1110 -0.1251
 8770PP      PP18874   6.036   2.139   1.421 -0.0565  0.0514 -0.2438
 8771PP      PP18875  11.127  14.225  13.009 -0.1420  0.0961  0.1197
 8772PP      PP18876  12.141   8.554  12.196 -0.2654 -0.1538 -0.1139
 8773PP      PP18877   2.260   9.073   9.712  0.1055  0.0762 -0.4832
 8774PP      PP18878  11.480  13.004   2.665  0.1295  0.1527  0.1299
 8775PP      PP18879  15.603  14.688  11.103  0.1964 -0.4941 -0.1427
 8776PP      PP18880  15.573   4.070   4.191 -0.1385  0.0412  0.1914
 8777PP      PP18881   2.329  14.896  10.323  0.0545  0.2933  0.0678
 8778PP      PP18882   9.299   5.342  10.507 -0.1838 -0.1695 -0.0909
 8779PP      PP18883  11.295   2.196   2.126 -0.0981  0.1285 -0.0361
 8780PP      PP18884  10.479   6.171   1.275 -0.1164 -0.2511  0.0354
 8781PP      PP18885   8.061   8.925   2.439  0.0009  0.0399  0.2555
 8782PP      PP18886   0.943  15.080  10.488  0.0108 -0.2294 -0.0743
 8783PP      PP18887   5.464  14.530   3.824  0.1559 -0.3027 -0.2569
 8784PP      PP18888  15.733   5.352  11.263  0.1792 -0.0698 -0.1754
 8785PP      PP18889   3.880   5.833   2.023 -0.0531  0.3145 -0.3434
 8786PP      PP18890   4.514   9.067   2.040 -0.1352 -0.2569  0.2395
 8787PP      PP18891  13.983   8.490   0.378 -0.1811  0.0712 -0.2086
 8788PP      PP18892   8.597  14.643   2.027 -0.1511  0.1109  0.0009
 8789PP      PP18893  13.306   3.948   1.243  0.2392  0.1809  0.1521
 8790PP      PP18894   6.466   2.486  11.700 -0.1549 -0.0959 -0.0445
 8791PP      PP18895   0.973   4.229  10.127 -0.1022 -0.0298  0.2157
 8792PP      PP18896   2.433  14.659   2.970 -0.1781  0.3371 -0.0361
 8793PP      PP18897   4.054  12.606   3.872 -0.1933  0.0796 -0.0776
 8794PP      PP18898   6.382   4.268  11.092  0.0847 -0.1060 -0.0931
 8795PP      PP18899  14.373   9.088   3.286 -0.3069  0.0687 -0.1474
 8796PP      PP18900   9.227  13.856   9.008 -0.0264  0.0828  0.3110
 8797PP      PP18901   7.249   1.359  11.687  0.1339 -0.2352 -0.1118
 8798PP      PP18902   9.661   0.515   0.277 -0.0370 -0.1700  0.0736
 8799PP      PP18903   8.857   9.840  11.358 -0.2342  0.1241  0.3797
 8800PP      PP18904   5.302   3.746  13.503  0.3303 -0.0947 -0.3003
 8801PP      PP18905   7.083  13.014   1.530  0.0497 -0.2085 -0.0170
 8802PP      PP18906   1.761  14.094   3.008 -0.2425 -0.0237 -0.0581
 8803PP      PP18907   5.653   3.204   9.202  0.2019 -0.3760  0.1683
 8804PP      PP18908   3.355  12.986   2.139  0.2715  0.0612  0.0300
 8805PP      PP18909   1.051   2.980   9.283  0.1091 -0.2373 -0.1314
 8806PP      PP18910   4.271  12.413   9.575  0.4078 -0.3532  0.2983
 8807PP      PP18911   7.284   7.033  13.348  0.2849  0.0555  0.1228
 8808PP      PP18912  11.686   9.113   9.761 -0.1452  0.0164  0.4153
 8809PP      PP18913  11.109  13.812   9.292  0.0593 -0.1039 -0.1582
 8810PP      PP18914  15.457   3.018  11.667 -0.0259 -0.0210  0.1165
 8811PP      PP18915  11.746   7.150   2.050  0.0754  0.2038  0.0444
 8812PP      PP18916   7.464   1.278   9.793 -0.0713 -0.0031  0.0628
 8813PP      PP18917   6.742  15.025   9.941 -0.0829  0.3193  0.0734
 8814PP      PP18918  14.840   1.492  12.640 -0.1936 -0.0792  0.0210
 8815PP      PP18919  10.255  11.913  12.258  0.2702  0.1350  0.1493
 8816PP      PP18920   1.049  13.068   1.885 -0.2464  0.0967  0.3739
 8817PP      PP18921   3.396   3.952   9.773  0.0555  0.1889  0.0931
 8818PP      PP18922  14.473  13.684  10.425 -0.1776  0.1438 -0.0626
 8819PP      PP18923  15.036   9.309   9.773 -0.1169 -0.0495 -0.0282
 8820PP      PP18924   4.569   0.628   8.599  0.0186  0.2472 -0.0668
 8821PP      PP18925   4.777  15.664   4.688 -0.1205  0.0747 -0.0607
 8822PP      PP18926  12.563   9.708  11.747  0.4320 -0.0552 -0.2981
 8823PP      PP18927   4.992   3.468  10.920  0.0838  0.0528  0.5052
 8824PP      PP18928   2.839  15.265  12.155  0.1730 -0.0568 -0.2277
 8825PP      PP18929  12.894   0.654   1.838  0.5140 -0.1001 -0.2452
 8826PP      PP18930   3.596   9.006  13.389  0.0712 -0.0090 -0.0480
 8827PP      PP18931  14.814   6.749   9.729 -0.0824  0.0606 -0.3385
 8828PP      PP18932  14.825   3.018  12.587  0.0525 -0.0197  0.2927
 8829PP      PP18933  13.731   1.861  12.099  0.0681  0.0721 -0.1128
 8830PP      PP18934   2.267   8.572   9.912  0.2793 -0.0863  0.0868
 8831PP      PP18935   1.961  14.395  11.530  0.0099  0.2011 -0.0490
 8832PP      PP18936   3.207   0.893  10.633  0.1271  0.2320  0.3783
 8833PP      PP18937   1.124   1.617   2.053 -0.0467  0.4033 -0.1505
 8834PP      PP18938  11.199   2.902  11.763 -0.0211  0.3618 -0.2844
 8835PP      PP18939   2.003  11.607   2.664  0.1792  0.2626  0.0713
 8836PP      PP18940   3.447   7.002   8.991 -0.0958  0.0759 -0.1381
 8837PP      PP18941  10.818   2.020  12.127  0.1423 -0.0517 -0.0012
 8838PP      PP18942   7.866  11.928   2.702  0.0449 -0.0993 -0.1504
 8839PP      PP18943   8.191   3.838  11.698  0.0728 -0.2798 -0.0790
 8840PP      PP18944   1.394  13.848   9.331  0.0136 -0.1377 -0.2028
 8841PP      PP18945   5.659   5.020  12.895 -0.0800 -0.1951 -0.1186
 8842PP      PP18946   3.116   8.965  12.437 -0.1542  0.0281  0.2165
 8843PP      PP18947   3.355  14.260   3.121  0.0714 -0.3980  0.0313
 8844PP      PP18948  11.278   9.609   2.805 -0.1378  0.2889  0.1193
 8845PP      PP18949  13.600   1.472  10.844  0.0826  0.0822  0.4210
 8846PP      PP18950   8.510   4.515   0.778  0.2161  0.1766  0.0281
 8847PP      PP18951  13.042  13.910   2.662  0.0804 -0.4285  0.1623
 8848PP      PP18952   3.107   1.878   3.444 -0.1855 -0.2553 -0.2594
 8849PP      PP18953   0.258   6.153   3.900 -0.1904 -0.0376  0.2111
 8850PP      PP18954   9.218   9.133  11.516 -0.3145 -0.1873 -0.0966
 8851PP      PP18955  14.955  12.866   5.176 -0.2108  0.0011  0.0602
 8852PP      PP18956  10.625   7.549   8.732 -0.1463  0.2883  0.1332
 8853PP      PP18957   5.984   1.134  11.278  0.0892 -0.2253  0.1102
 8854PP      PP18958  13.445  14.872  12.565 -0.1598  0.1051 -0.1388
 8855PP      PP18959   2.882  10.658   9.874 -0.1377  0.0812  0.2013
 8856PP      PP18960  11.441  13.052  10.014 -0.0460  0.0108  0.3527
 8857PP      PP18961   1.821  13.588   3.030 -0.1050 -0.1712  0.0444
 8858PP      PP18962   7.897   8.301   9.771 -0.2392 -0.0143  0.2959
 8859PP      PP18963  11.122   2.192   0.053  0.3107  0.1251 -0.0890
 8860PP      PP18964   9.919  15.349   2.546 -0.1408  0.2346 -0.0076
 8861PP      PP18965   7.251   2.244  10.802  0.1742 -0.1786 -0.1043
 8862PP      PP18966   9.661  14.574   9.400  0.2526 -0.0154  0.2359
 8863PP      PP18967   4.090   8.700   9.754  0.0269 -0.0052  0.4136
 8864PP      PP18968  14.527   5.461   2.090  0.0615  0.0100  0.1735
 8865PP      PP18969   2.201   9.787  12.694 -0.2693  0.3219  0.0293
 8866PP      PP18970   8.799   5.738  11.983 -0.0875  0.1794  0.1254
 8867PP      PP18971  12.154   0.160  10.401 -0.1293  0.0931  0.1088
 8868PP      PP18972   0.213  12.277   3.607 -0.0052 -0.4309  0.0868
 8869PP      PP18973  10.922  14.654  11.064  0.0979  0.1662 -0.0410
 8870PP      PP18974  11.513  13.944   8.980 -0.1201 -0.1308 -0.0729
 8871PP      PP18975   1.408   1.248   3.304  0.0211  0.2454 -0.0526
 8872PP      PP18976  10.152   9.789  11.919 -0.0260 -0.1067  0.3770
 8873PP      PP18977   4.279   7.549   3.935  0.0695  0.2803  0.0399
 8874PP      PP18978  15.053   1.666   9.777 -0.0473 -0.0537  0.1164
 8875PP      PP18979   7.561   8.372   2.662 -0.3725 -0.4373  0.0833
 8876PP      PP18980   2.401  11.277  12.898  0.0108  0.2073  0.0942
 8877PP      PP18981   0.650  11.783  12.926 -0.1450 -0.2330  0.0773
 8878PP      PP18982  11.691   0.349  10.385 -0.0939  0.2606  0.0487
 8879PP      PP18983  13.654   5.416   2.238  0.0546 -0.1819  0.0110
 8880PP      PP18984   2.388  12.644  12.004 -0.0864 -0.0126  0.1234
 8881PP      PP18985   7.190   6.758   8.636  0.0631 -0.3818  0.0053
 8882PP      PP18986   0.731   1.937  10.761 -0.1989  0.1675  0.0425
 8883PP      PP18987   6.292   0.366  10.633  0.2283  0.0205  0.0928
 8884PP      PP18988   3.423   0.113  12.679 -0.2915 -0.0098  0.2120
 8885PP      PP18989  11.528   4.279   4.380  0.1345  0.0162 -0.2772
 8886PP      PP18990   9.580   8.445   9.200 -0.0991 -0.2383 -0.4431
 8887PP      PP18991  11.200  12.865  11.654 -0.2552 -0.1020 -0.0462
 8888PP      PP18992   4.449   5.020   3.907 -0.2674  0.2468 -0.0829
 8889PP      PP18993   2.242   5.898   0.704  0.1624  0.4066 -0.1455
 8890PP      PP18994   2.948   6.749   2.109 -0.0788  0.2560  0.1897
 8891PP      PP18995   9.546  12.406  11.501 -0.1297  0.2128 -0.1132
 8892PP      PP18996   8.315  13.193   1.845 -0.3736 -0.0196 -0.0942
 8893PP      PP18997   7.133  13.861   1.870 -0.0448  0.0568 -0.1586
 8894PP      PP18998  10.843  10.632   1.612  0.0373  0.1796  0.2993
 8895PP      PP18999   9.511   2.252   2.665 -0.3085  0.1479 -0.0564
 8896PP      PP19000   8.599  10.716   3.193  0.0905 -0.2902 -0.2438
 8897PP      PP19001   6.982   6.999   0.764 -0.0219  0.1260 -0.1935
 8898PP      PP19002  14.329  10.428   0.835 -0.0208  0.2992  0.1142
 8899PP      PP19003  13.284   1.806   2.847  0.0057  0.0845  0.0458
 8900PP      PP19004  12.327   4.124   3.951  0.0547  0.0448 -0.1875
 8901PP      PP19005  15.390   2.221   0.271  0.0847  0.0624  0.0348
 8902PP      PP19006   0.237   5.364   0.254  0.0712  0.0620 -0.0406
 8903PP      PP19007   6.384   3.309   2.623 -0.1643  0.1045  0.1181
 8904PP      PP19008   6.847   3.573   9.347  0.3023 -0.0163  0.1938
 8905PP      PP19009  14.991  13.376  12.451 -0.3930 -0.2615 -0.0774
 8906PP      PP19010   0.187   9.142   0.530  0.1081 -0.0405 -0.1325
 8907PP      PP19011   8.926   9.850   2.013 -0.0116  0.0147  0.2407
 8908PP      PP19012   9.440   4.873  10.844 -0.3037 -0.1572 -0.1382
 8909PP      PP19013   6.910   3.469  13.303 -0.1791  0.0112  0.1961
 8910PP      PP19014  14.678   6.255   3.570 -0.1115  0.1177  0.0587
 8911PP      PP19015   3.894  15.568  13.097  0.0710 -0.0738 -0.0523
 8912PP      PP19016  11.620  12.186   1.677 -0.3105  0.1169 -0.0372
 8913PP      PP19017   3.570   5.758   4.295  0.0159  0.3858  0.0225
 8914PP      PP19018   5.677   0.939   5.644 -0.1441 -0.0729 -0.4177
 8915PP      PP19019   6.867  14.173   9.704  0.4110  0.0262 -0.2381
 8916PP      PP19020   3.931   0.049   9.118  0.4256 -0.0686  0.1052
 8917PP      PP19021   4.151   9.850   9.903 -0.3367 -0.1336  0.3462
 8918PP      PP19022   1.279  13.460  12.525 -0.0325  0.0181 -0.0443
 8919PP      PP19023  13.070   6.900   1.014  0.0161 -0.0216  0.2421
 8920PP      PP19024  14.935  14.785  13.177 -0.0516 -0.1598 -0.3246
 8921PP      PP19025  14.914   8.733  11.330  0.1900  0.2866 -0.2356
 8922PP      PP19026  14.329   6.313  10.337 -0.0447 -0.0167 -0.4296
 8923PP      PP19027  12.068   1.735  11.955 -0.0930 -0.4360 -0.0829
 8924PP      PP19028  14.942   2.168   1.894  0.0201  0.0859 -0.3227
 8925PP      PP19029  10.462  14.384   9.589  0.1473 -0.2438 -0.2434
 8926PP      PP19030   4.327   6.744   1.737  0.0579 -0.2355 -0.2654
 8927PP      PP19031   7.378   2.781  11.442  0.1981 -0.0673 -0.0428
 8928PP      PP19032  15.243  10.901  12.544  0.1106  0.3225  0.3664
 8929PP      PP19033  13.816   1.376   1.187  0.1953 -0.1419  0.1775
 8930PP      PP19034   4.555  14.777   9.870 -0.0449  0.1260 -0.2491
 8931PP      PP19035   8.544   6.553   2.774 -0.2106  0.0917  0.1025
 8932PP      PP19036   8.938   9.817  13.224 -0.3576 -0.3372 -0.0843
 8933PP      PP19037  13.111   2.244  11.390  0.4466 -0.0718  0.0192
 8934PP      PP19038   1.039   1.035   1.994  0.0468  0.2946  0.1866
 8935PP      PP19039   0.283  14.339   4.538  0.1470 -0.3277  0.1786
 8936PP      PP19040   1.674   4.395   1.749  0.1732 -0.2766 -0.1017
 8937PP      PP19041   5.193   1.204   0.215 -0.1226  0.1220  0.1239
 8938PP      PP19042   0.904   8.084   1.993  0.2977 -0.0923  0.1840
 8939PP      PP19043   2.380   3.126   4.408  0.5173  0.0155  0.0499
 8940PP      PP19044  11.982   6.738   3.616 -0.5352 -0.0949  0.2658
 8941PP      PP19045  15.675  12.554   3.743  0.4589  0.1521  0.1997
 8942PP      PP19046   5.867   4.223   9.796 -0.0906 -0.1127  0.1399
 8943PP      PP19047   4.590  12.351  12.323 -0.3113 -0.2296 -0.2746
 8944PP      PP19048   3.859   4.452   2.793  0.5682 -0.0870 -0.2585
 8945PP      PP19049   7.013  14.585   3.906  0.0756 -0.0984  0.2189
 8946PP      PP19050  12.731  12.571   0.078 -0.1623 -0.1780  0.0040
 8947PP      PP19051   9.280  14.474  13.013 -0.0753 -0.1915  0.1060
 8948PP      PP19052   7.358  15.304   4.360  0.0144 -0.0060 -0.2093
 8949PP      PP19053   1.897   6.103   1.593  0.2970 -0.0256 -0.2027
 8950PP      PP19054   6.049   3.148  10.030 -0.0423 -0.0102  0.1047
 8951PP      PP19055  15.398  14.025   1.259  0.1942  0.2437  0.0301
 8952PP      PP19056  11.095  10.654   9.249  0.1852  0.0979 -0.3497
 8953PP      PP19057  13.436   9.589   0.620  0.1296  0.1906  0.0877
 8954PP      PP19058   6.760   4.966  12.535  0.0739  0.0828 -0.2047
 8955PP      PP19059  14.841   0.007   2.909  0.2869  0.1850  0.0140
 8956PP      PP19060  14.262   8.651  11.276 -0.1852 -0.1558 -0.0389
 8957PP      PP19061   6.376  15.701   0.779  0.3064  0.0343 -0.3259
 8958PP      PP19062   6.771   9.648  10.560 -0.3821  0.2388  0.1190
 8959PP      PP19063  15.144  11.461   8.938  0.2652 -0.0569 -0.1654
 8960PP      PP19064   5.057   4.823   8.965  0.1006 -0.2492 -0.1111
 8961PP      PP19065  13.605   4.763   0.095  0.0456  0.1070  0.2175
 8962PP      PP19066   3.332   6.079  13.459  0.2345  0.2520  0.0201
 8963PP      PP19067   0.927   1.019   1.265  0.3809 -0.0829  0.2563
 8964PP      PP19068   2.292   0.191  12.396  0.0428  0.1162  0.0909
 8965PP      PP19069   8.764   3.371  11.124 -0.0191  0.1167 -0.1118
 8966PP      PP19070   3.073   2.457  10.535 -0.0071  0.0524 -0.0071
 8967PP      PP19071   6.722   9.111  10.570  0.0107 -0.0999  0.2329
 8968PP      PP19072  12.980   5.398   3.178  0.2457 -0.0037  0.0799
 8969PP      PP19073   3.178   0.373   9.667 -0.1208  0.0644  0.1598
 8970PP      PP19074  10.263  15.090   4.550  0.1856 -0.1362 -0.2507
 8971PP      PP19075  14.271   5.944  11.632  0.0467  0.2217  0.0798
 8972PP      PP19076  14.058   3.053  10.872  0.0176  0.2417 -0.0140
 8973PP      PP19077   6.637  12.723   0.205 -0.0715  0.0700  0.2114
 8974PP      PP19078   4.565  14.385   1.575  0.0412  0.2762 -0.2716
 8975PP      PP19079   3.515  11.665  13.385  0.1652 -0.4181 -0.1558
 8976PP      PP19080   2.720  12.406   0.898 -0.0623  0.1632 -0.2549
 8977PP      PP19081   2.790   6.507   1.312  0.0773 -0.0591 -0.0109
 8978PP      PP19082   8.437   9.745   9.086 -0.0038  0.2228  0.2287
 8979PP      PP19083  12.587   7.023  12.255  0.1593 -0.0755  0.1140
 8980PP      PP19084   1.488   9.599   9.958 -0.0249  0.0352 -0.0264
 8981PP      PP19085   3.731   2.297  11.420  0.2172  0.2720 -0.1823
 8982PP      PP19086   6.203   8.379  10.066  0.2524  0.3108  0.0681
 8983PP      PP19087   1.937   7.966   8.616  0.0310 -0.3810  0.2212
 8984PP      PP19088  15.455   4.509  10.231 -0.2880 -0.1182  0.2489
 8985PP      PP19089   4.590   8.967  10.025  0.0293 -0.2130  0.1952
 8986PP      PP19090   0.734  12.155   2.102  0.4256  0.1942 -0.1983
 8987PP      PP19091  15.472   2.533  11.647  0.0914  0.1338 -0.1034
 8988PP      PP19092   0.396   4.256   1.250  0.0562  0.1184 -0.3296
 8989PP      PP19093   4.457   1.213  10.045  0.0885 -0.2576  0.1968
 8990PP      PP19094   7.199  12.765   4.147  0.3121 -0.3117 -0.4222
 8991PP      PP19095   2.225   5.460  12.576 -0.0710 -0.1361  0.3276
 8992PP      PP19096   5.448   0.687   9.084 -0.1777  0.1897  0.2809
 8993PP      PP19097   1.666  11.225   9.114 -0.2331  0.2501 -0.0580
 8994PP      PP19098   2.213   5.098  13.411  0.2443  0.1008  0.0298
 8995PP      PP19099  13.527  10.420  10.163 -0.0327 -0.0828  0.1435
 8996PP      PP19100  10.320  10.376   0.197 -0.1437  0.0086  0.2858
 8997PP      PP19101   8.628   7.183   9.620 -0.0213  0.1416  0.1785
 8998PP      PP19102  13.863  12.847   3.629 -0.0561 -0.0857 -0.0192
 8999PP      PP19103  10.418  10.917  11.319 -0.2696 -0.0758 -0.0462
 9000PP      PP19104   2.232  14.340   1.479  0.1964  0.2334  0.3566
 9001PP      PP19105  12.953   6.689  12.188  0.2219 -0.0731 -0.2299
 9002PP      PP19106   0.220   0.859  11.408 -0.1141 -0.1704  0.0631
 9003PP      PP19107  10.962   4.188   3.674  0.0247 -0.2712  0.0321
 9004PP      PP19108  13.642   9.633   8.721  0.1746  0.1074  0.2828
 9005PP      PP19109  10.002   9.251   1.290  0.3142  0.1569  0.1526
 9006PP      PP19110   3.063   1.620   1.568 -0.1201 -0.2011 -0.1428
 9007PP      PP19111   1.044   2.217   3.114  0.0382 -0.0095  0.1826
 9008PP      PP19112   2.207  14.894   2.034 -0.1649  0.0307  0.1289
 9009PP      PP19113   0.843  15.549   8.883  0.2044  0.0689 -0.1596
 9010PP      PP19114  13.349  12.742   2.831  0.3077 -0.0346  0.0587
 9011PP      PP19115   9.403   0.485  12.860  0.1491 -0.2878  0.1710
 9012PP      PP19116   7.847   1.324   3.397 -0.2121  0.2874 -0.5406
 9013PP      PP19117   4.195   0.649  11.241  0.3409  0.0027  0.1358
 9014PP      PP19118  12.437   1.667   2.633  0.0182  0.1109 -0.2205
 9015PP      PP19119   1.429   6.096   1.835  0.0375 -0.3774 -0.2230
 9016PP      PP19120   0.217   6.773   3.092  0.0880 -0.2459  0.0929
 9017PP      PP19121   5.517  15.706  12.092 -0.0633  0.0927  0.1816
 9018PP      PP19122  11.239   3.103  10.405  0.3059 -0.0972  0.1508
 9019PP      PP19123  14.073  11.352   3.917  0.2379  0.2363  0.0921
 9020PP      PP19124   5.569   5.153   8.804 -0.2392  0.0030 -0.1176
 9021PP      PP19125  14.179  13.181   9.229 -0.1012  0.4346  0.1966
 9022PP      PP19126   1.723   6.211  12.974 -0.0717  0.1851 -0.0686
 9023PP      PP19127   9.977   4.666   0.267 -0.2431 -0.1820 -0.0791
 9024PP      PP19128   8.080   3.446  10.925  0.1420  0.3525  0.0445
 9025PP      PP19129  11.051   5.302   0.589  0.1847  0.0691 -0.2071
 9026PP      PP19130   6.762   3.603   9.919  0.0895  0.1870 -0.1997
 9027PP      PP19131   2.401  15.535   9.263 -0.3152 -0.0721 -0.1126
 9028PP      PP19132   4.831   6.369   1.022  0.2437  0.1452 -0.1451
 9029PP      PP19133   9.764   8.403  12.783  0.0672 -0.0010  0.0777
 9030PP      PP19134   2.254   7.246   0.234  0.0133 -0.0096 -0.3469
 9031PP      PP19135   7.075   5.631   2.801  0.3346 -0.0424 -0.1210
 9032PP      PP19136   8.202   7.541   9.613 -0.4233 -0.1573  0.0232
 9033PP      PP19137  10.930  12.933   9.952 -0.1697 -0.0652  0.2448
 9034PP      PP19138   1.918  12.062   3.320  0.1485  0.0149 -0.2890
 9035PP      PP19139  10.431   2.358  12.111  0.4842 -0.2414  0.0207
 9036PP      PP19140   4.759   3.300  11.410 -0.0047  0.0282  0.2570
 9037PP      PP19141   0.586  11.274   1.167 -0.1567 -0.0345 -0.4316
 9038PP      PP19142   2.561   9.413  11.038 -0.2510  0.3461  0.0669
 9039PP      PP19143  15.124   5.128   3.715 -0.2885  0.1728  0.1910
 9040PP      PP19144   5.373   2.490  12.093  0.0428  0.2600  0.1433
 9041PP      PP19145   9.635   8.830   8.872 -0.1630  0.1435 -0.4204
 9042PP      PP19146   5.188   9.476  11.088 -0.1512  0.0054 -0.1349
 9043PP      PP19147   9.237   1.085   3.479  0.1418  0.1546 -0.0237
 9044PP      PP19148   5.763   5.493  12.060  0.3700  0.0050 -0.2126
 9045PP      PP19149   7.741   3.470   2.290 -0.2466  0.0678  0.0940
 9046PP      PP19150   0.761  15.357   1.232 -0.3686  0.0466  0.4378
 9047PP      PP19151   5.473  10.923   1.556  0.4011 -0.0721 -0.2875
 9048PP      PP19152   2.406   4.228   0.688  0.0458  0.0574 -0.0722
 9049PP      PP19153   7.685  10.377   3.828 -0.2047  0.1718  0.0402
 9050PP      PP19154   2.260   5.272   1.512  0.2244  0.1823  0.1989
 9051PP      PP19155  15.027  11.904   9.119 -0.1241  0.0207 -0.1165
 9052PP      PP19156   6.735   5.682  11.466 -0.1447  0.1894 -0.1465
 9053PP      PP19157  15.837   6.195  12.240  0.0049  0.2356  0.0115
 9054PP      PP19158  12.621  15.592  13.017  0.0901 -0.3166  0.0267
 9055PP      PP19159  11.229  13.421   4.030 -0.0291 -0.1186 -0.1292
 9056PP      PP19160   1.325   2.433  13.205 -0.1277 -0.0942  0.0555
 9057PP      PP19161  12.905  12.991  10.966  0.0547 -0.1211 -0.0508
 9058PP      PP19162   6.206   7.396   3.935 -0.0698 -0.1119  0.0558
 9059PP      PP19163   5.906  15.330  12.180  0.2056  0.0148 -0.0413
 9060PP      PP19164  13.209   1.044   2.836 -0.0021  0.0024  0.3634
 9061PP      PP19165  14.382  11.324  10.049  0.2235  0.0257 -0.2248
 9062PP      PP19166   7.293   0.449  11.859  0.0963 -0.3493  0.1437
 9063PP      PP19167  14.142   1.431   0.739  0.2773 -0.2633 -0.1057
 9064PP      PP19168   3.107   6.731  10.330 -0.2759 -0.2322  0.3174
 9065PP      PP19169  14.932   5.517  11.052  0.2787  0.1305  0.1045
 9066PP      PP19170   6.112   1.423  10.432  0.0540 -0.1537  0.0121
 9067PP      PP19171   4.035   0.308   9.755  0.3646 -0.0697 -0.1677
 9068PP      PP19172   5.863   6.195  11.362 -0.1046 -0.0033  0.2055
 9069PP      PP19173   7.166   1.778  10.628  0.0388  0.2617  0.2991
 9070PP      PP19174  11.581   9.086  13.257 -0.1593 -0.1546  0.0452
 9071PP      PP19175  11.392   8.573   0.636  0.1899  0.1132 -0.3082
 9072PP      PP19176   8.158   9.887   1.709 -0.1019  0.1143 -0.0217
 9073PP      PP19177   3.651   7.459   4.003  0.0920  0.0726  0.0692
 9074PP      PP19178   1.552  11.657  10.641 -0.1613  0.1482  0.0630
 9075PP      PP19179   3.022   1.448   3.253 -0.2228 -0.0694  0.0949
 9076PP      PP19180   1.973   2.887   9.756 -0.2295 -0.0254  0.5687
 9077PP      PP19181   7.293   5.454   9.244 -0.0652  0.1650  0.2827
 9078PP      PP19182  14.656  12.002   1.587  0.1170  0.1021 -0.2613
 9079PP      PP19183  11.048  12.682   4.553  0.1027 -0.0803  0.1026
 9080PP      PP19184   4.635  12.671   3.411 -0.1313 -0.0602  0.0644
 9081PP      PP19185   1.150  15.143  12.101  0.0221  0.3134 -0.2636
 9082PP      PP19186   6.642   7.982   1.927  0.1100  0.0625 -0.0671
 9083PP      PP19187  11.587   2.888  10.094  0.0534  0.1842 -0.0941
 9084PP      PP19188   0.219   4.967   3.784  0.0744 -0.0967 -0.2010
 9085PP      PP19189   2.165   7.824  10.710 -0.0306  0.4339 -0.4078
 9086PP      PP19190   0.181  15.392   9.446 -0.2708 -0.0045  0.1634
 9087PP      PP19191  14.347   4.683  13.311 -0.2569 -0.3330 -0.1286
 9088PP      PP19192   9.043   9.043   1.998 -0.1962 -0.0043  0.0527
 9089PP      PP19193  15.818   1.189   4.546 -0.4100  0.0419  0.2932
 9090PP      PP19194   7.582  15.072  12.240 -0.1495  0.2139 -0.2713
 9091PP      PP19195   1.333  13.990   2.258 -0.1531  0.0562  0.1645
 9092PP      PP19196  11.470  12.263  12.872  0.2077  0.0424 -0.1706
 9093PP      PP19197  11.662  10.419   2.828  0.2620  0.1275 -0.1713
 9094PP      PP19198   4.988  11.897   3.048 -0.2560  0.2613  0.1023
 9095PP      PP19199   5.608   2.342   4.688  0.4538  0.0223 -0.0429
 9096PP      PP19200   0.960   0.541  11.021 -0.0284  0.1396 -0.1702
 9097PP      PP19201   0.489   6.761  13.342  0.4209  0.2687  0.1916
 9098PP      PP19202   6.456   2.227   0.448 -0.2110 -0.1340 -0.3047
 9099PP      PP19203  13.627   6.617   9.374  0.3241  0.1493 -0.0641
 9100PP      PP19204  14.901   7.001   1.223  0.0333  0.1241  0.2135
 9101PP      PP19205   1.249   4.143  10.577 -0.0502 -0.2444 -0.0879
 9102PP      PP19206   1.083   4.129  12.587  0.0297 -0.2680 -0.4345
 9103PP      PP19207   2.943  11.383   1.116 -0.1001  0.0891 -0.2899
 9104PP      PP19208   9.556   8.377   0.261  0.0678  0.1142  0.0982
 9105PP      PP19209   7.645  10.261   8.600 -0.4764  0.1194 -0.0138
 9106PP      PP19210  11.057   2.152   5.029 -0.0030  0.5906  0.3126
 9107PP      PP19211   4.300   6.137  13.162 -0.4370  0.1969 -0.2188
 9108PP      PP19212  14.189   5.490  13.526  0.1041 -0.2386 -0.3505
 9109PP      PP19213  14.473   5.813   1.681 -0.1761  0.0388 -0.2711
 9110PP      PP19214   6.612   7.223   3.599 -0.1516 -0.3222 -0.1934
 9111PP      PP19215  10.051   6.524  11.774  0.1095 -0.1037 -0.2565
 9112PP      PP19216  10.172   3.700   1.869 -0.2300 -0.0341 -0.0610
 9113PP      PP19217   6.308   6.948   4.067 -0.1121  0.2107  0.0812
 9114PP      PP19218  10.212  14.462  10.365 -0.2668 -0.0380 -0.0299
 9115PP      PP19219   1.720   2.340   3.584  0.4041  0.0704  0.0599
 9116PP      PP19220  11.491   1.635   1.953  0.2508  0.0815 -0.3145
 9117PP      PP19221  14.458   2.098   0.375 -0.2655 -0.0103  0.3665
 9118PP      PP19222   9.954   0.415   4.708 -0.1524  0.0485  0.3320
 9119PP      PP19223   3.082   4.677  10.898 -0.1879 -0.1316  0.2979
 9120PP      PP19224   6.797  13.631   3.888  0.0925 -0.1029  0.1176
 9121PP      PP19225  14.277   7.661  12.362  0.2604 -0.2021 -0.2271
 9122PP      PP19226   2.834  15.567   9.955  0.4340  0.2323  0.2833
 9123PP      PP19227   8.545  10.143   9.409 -0.1005  0.0509  0.2652
 9124PP      PP19228   1.779   5.746   0.559 -0.1832  0.5055 -0.0495
 9125PP      PP19229  11.794   6.636  10.622 -0.1622 -0.3558 -0.1948
 9126PP      PP19230   7.666  14.466   9.733 -0.1447  0.0760  0.0918
 9127PP      PP19231  11.922  12.803   2.884 -0.0180 -0.0933 -0.1367
 9128PP      PP19232  12.476   8.724   1.505  0.3326  0.2674 -0.1945
 9129PP      PP19233   9.684   7.646  10.231 -0.4288 -0.0700 -0.1261
 9130PP      PP19234   9.491   7.731   9.378 -0.0214  0.2876  0.1277
 9131PP      PP19235   6.904   1.959   0.356 -0.2184  0.1295 -0.1076
 9132PP      PP19236   2.951   8.884   1.103 -0.1552 -0.1081 -0.0197
 9133PP      PP19237   1.727   1.497   0.716  0.1775 -0.1336  0.3330
 9134PP      PP19238   7.495  10.025   0.227 -0.1618  0.0255  0.0730
 9135PP      PP19239   0.593   7.761   3.071  0.0655 -0.1091 -0.2190
 9136PP      PP19240   3.587   8.419   9.262  0.0958 -0.1152  0.0038
 9137PP      PP19241   9.802   4.799  11.270 -0.0270 -0.0063  0.1925
 9138PP      PP19242   4.359   3.567   0.018 -0.5416  0.3955 -0.0042
 9139PP      PP19243  14.106   3.752  12.723 -0.1651  0.2031  0.5279
 9140PP      PP19244  13.812   8.445   3.398 -0.0833 -0.0960 -0.2435
 9141PP      PP19245   3.740  14.144   0.415 -0.1180  0.1979 -0.4157
 9142PP      PP19246   7.904   7.537   2.681  0.4637  0.2873 -0.0956
 9143PP      PP19247   2.567   7.325  11.689  0.1275 -0.0524  0.0086
 9144PP      PP19248   6.308   5.365  11.345  0.0907  0.0046 -0.0928
 9145PP      PP19249   6.892   9.970   1.599  0.1205 -0.3978  0.3460
 9146PP      PP19250   0.420   4.271   2.834 -0.2696  0.0506 -0.4938
 9147PP      PP19251   4.842  12.567   2.927  0.0281  0.2090 -0.0003
 9148PP      PP19252  10.330   2.480   2.279  0.0407 -0.1545  0.1286
 9149PP      PP19253   7.944   1.776   2.250 -0.1882  0.0978  0.1746
 9150PP      PP19254   4.663  12.909   1.187 -0.0231 -0.0784  0.0878
 9151PP      PP19255  15.425   8.598   2.557  0.0219 -0.1044 -0.2941
 9152PP      PP19256   4.074  10.728   1.664  0.2559 -0.0724  0.0237
 9153PP      PP19257   3.182  11.593  12.011  0.0042 -0.1417  0.0875
 9154PP      PP19258  10.974   1.628   0.735  0.2716 -0.1837  0.0535
 9155PP      PP19259  10.665   4.331   2.665 -0.1164 -0.1017  0.2863
 9156PP      PP19260  12.631   3.318  11.650 -0.6045 -0.2277  0.0874
 9157PP      PP19261   5.249  14.008   1.999 -0.0260 -0.0817  0.0416
 9158PP      PP19262  10.870   9.354  10.311  0.0835 -0.1233  0.0590
 9159PP      PP19263  12.122   3.738   2.068  0.0334 -0.0840 -0.2167
 9160PP      PP19264   5.576   7.772   9.299 -0.0011  0.0131  0.0893
 9161PP      PP19265   9.997   5.619  12.565  0.1956  0.1867  0.0677
 9162PP      PP19266  12.623   2.039   1.078  0.1737 -0.0489 -0.0078
 9163PP      PP19267   9.157   7.103   3.467  0.1406 -0.0325  0.3205
 9164PP      PP19268  12.715   9.499   2.964 -0.1492 -0.1128  0.0228
 9165PP      PP19269   8.345   6.557   0.270 -0.1822  0.0401  0.0391
 9166PP      PP19270   6.691  12.754   2.034  0.1627 -0.1795 -0.0231
 9167PP      PP19271  14.812   1.922   3.450  0.0016  0.3148 -0.3362
 9168PP      PP19272   2.583  14.407   4.086 -0.1124 -0.0532 -0.2612
 9169PP      PP19273  12.084  13.321   8.462 -0.1968 -0.1192  0.2576
 9170PP      PP19274   2.418  14.085  10.960  0.1724 -0.1633 -0.0469
 9171PP      PP19275   1.858  15.617  13.197 -0.3730 -0.0536 -0.0143
 9172PP      PP19276   2.149   4.140   9.899 -0.0562  0.0883 -0.0381
 9173PP      PP19277  13.327   2.265   0.499 -0.0502 -0.3347  0.0351
 9174PP      PP19278   3.226   8.102   1.884  0.2427 -0.0451  0.0482
 9175PP      PP19279   6.210   6.356   2.651  0.1137  0.0190  0.0790
 9176PP      PP19280   8.434   6.021   0.248  0.1010 -0.3419 -0.0614
 9177PP      PP19281   1.106  14.390  10.621 -0.2320 -0.0253  0.1677
 9178PP      PP19282   8.751   5.350   3.097  0.0711  0.0403  0.4491
 9179PP      PP19283  10.996  10.354   0.028 -0.0210 -0.0257  0.1299
 9180PP      PP19284   3.277   4.940   9.790 -0.0043 -0.2073  0.0603
 9181PP      PP19285   5.737  12.925   5.209  0.0029 -0.0098 -0.1726
 9182PP      PP19286  14.680  11.493   1.507 -0.1968 -0.2383  0.2283
 9183PP      PP19287   8.341   8.448   9.509 -0.1612  0.1775  0.0545
 9184PP      PP19288   0.218   0.100  12.310  0.2588  0.3964  0.1257
 9185PP      PP19289  12.817   4.112   2.359  0.0911  0.0601 -0.2835
 9186PP      PP19290   3.374  11.436  12.898  0.3204  0.1217  0.0993
 9187PP      PP19291  15.257   5.109  11.112 -0.1575 -0.3325  0.2111
 9188PP      PP19292  10.435   5.338   1.947  0.0613  0.0851  0.0899
 9189PP      PP19293  13.264   2.742  11.726  0.1192  0.1489  0.0533
 9190PP      PP19294   8.260   9.688  12.165  0.0497 -0.0068  0.0469
 9191PP      PP19295  11.427   6.928   9.856  0.3409  0.0388  0.0246
 9192PP      PP19296  10.887   9.222   3.980  0.0205 -0.0348 -0.4164
 9193PP      PP19297   9.959   6.699   4.075 -0.2068 -0.0367  0.0979
 9194PP      PP19298   3.741  15.194  11.166  0.0110  0.1868  0.1074
 9195PP      PP19299   4.492   6.774   1.230 -0.0454 -0.2657  0.0677
 9196PP      PP19300   4.746   4.800   2.914 -0.0362  0.2315 -0.0818
 9197PP      PP19301   1.278  15.054  11.206 -0.3989 -0.0234  0.2920
 9198PP      PP19302   0.826   6.283   3.559 -0.2225  0.1350 -0.0294
 9199PP      PP19303   0.330  11.130  12.496  0.1717  0.3988  0.0336
 9200PP      PP19304   4.592   7.163  13.058 -0.3597  0.2635  0.0723
 9201PP      PP19305  15.169  14.291   3.478 -0.1578 -0.2689 -0.1772
 9202PP      PP19306  14.203   0.605   1.741  0.1387  0.2726 -0.0270
 9203PP      PP19307  15.026   5.155   0.337  0.1868  0.2156  0.3196
 9204PP      PP19308   7.468   9.697   1.324  0.3557  0.3123  0.0569
 9205PP      PP19309  11.303   6.040  13.072 -0.1656 -0.0103 -0.2102
 9206PP      PP19310   2.697   4.992   8.841 -0.0954 -0.1408 -0.1400
 9207PP      PP19311   8.773  11.115   9.965  0.2545 -0.1732 -0.3657
 9208PP      PP19312   6.477   1.884  12.542 -0.1313  0.0411 -0.0473
 9209PP      PP19313   9.920   7.267  10.434 -0.1305 -0.0997  0.1941
 9210PP      PP19314   7.660   5.537   1.269 -0.0585 -0.0506  0.1428
 9211PP      PP19315   6.532   1.691   0.515  0.0040 -0.0384 -0.0684
 9212PP      PP19316  13.799   4.699   3.086  0.1769  0.1134  0.3710
 9213PP      PP19317   9.031  10.327   1.005  0.0243 -0.0325 -0.0172
 9214PP      PP19318   9.366   7.529   3.674 -0.1551 -0.3407 -0.1666
 9215PP      PP19319   7.080  14.968  11.357 -0.1751 -0.1974 -0.2093
 9216PP      PP19320   4.054  15.614  11.614  0.2748  0.0852  0.5554
 9217PP      PP19321   4.487   2.249  10.606  0.2251 -0.1887 -0.2054
 9218PP      PP19322  13.783  11.111   0.524  0.2224 -0.0432  0.0966
 9219PP      PP19323   8.786   8.905   3.943  0.1726  0.1749  0.2444
 9220PP      PP19324  10.860   2.327  11.205  0.1646 -0.0777  0.3979
 9221PP      PP19325   3.304  11.308   2.711  0.0991  0.1523 -0.0629
 9222PP      PP19326  11.372  14.441   2.583  0.0512 -0.1010 -0.2304
 9223PP      PP19327   0.577   7.038  11.313  0.3417 -0.2520  0.0437
 9224PP      PP19328  10.236   0.725   1.841  0.2451  0.2786 -0.1342
 9225PP      PP19329   7.830   4.550   4.240  0.0235  0.0266  0.0187
 9226PP      PP19330   9.553   9.755   9.635 -0.0153  0.1552  0.2536
 9227PP      PP19331   9.884  15.081  12.730  0.2364  0.0929  0.2023
 9228PP      PP19332   3.422  15.813   9.061 -0.0286 -0.0216 -0.0149
 9229PP      PP19333   9.038  13.436  12.145 -0.0280 -0.1883 -0.0033
 9230PP      PP19334   4.114   0.379   2.764  0.1362  0.2001  0.1577
 9231PP      PP19335   9.562  10.340   2.241  0.0678 -0.0561 -0.0275
 9232PP      PP19336   2.792   2.350   4.086 -0.1181 -0.3312 -0.1499
 9233PP      PP19337  12.939  14.610   3.198 -0.0444 -0.2744 -0.2682
 9234PP      PP19338  10.296   9.608   9.642  0.1067 -0.0744  0.2739
 9235PP      PP19339   8.625   4.909   0.469 -0.0043  0.1644 -0.1046
 9236PP      PP19340  10.770   2.230   2.102 -0.1170 -0.2824  0.4658
 9237PP      PP19341   4.391  15.682   3.422  0.0865  0.3320  0.0261
 9238PP      PP19342  11.895  13.750   8.299  0.0382 -0.2088 -0.1212
 9239PP      PP19343  10.408  12.592  10.640  0.2324 -0.1984 -0.0374
 9240PP      PP19344  12.269  13.228   2.814  0.2773  0.1425  0.0718
 9241PP      PP19345   7.270   6.142  13.374 -0.3327  0.3051 -0.0710
 9242PP      PP19346  15.479   3.394   2.381  0.3338 -0.1878  0.2194
 9243PP      PP19347   5.309   9.550   1.889  0.1683 -0.1388 -0.0509
 9244PP      PP19348   6.016   7.285   0.829 -0.0032  0.1287 -0.2614
 9245PP      PP19349   9.864   2.249   4.402 -0.0913 -0.1938 -0.0498
 9246PP      PP19350  10.821  14.221  11.939 -0.1703 -0.0004  0.1305
 9247PP      PP19351   7.901   0.302  12.878 -0.1375  0.3641  0.1489
 9248PP      PP19352  14.532   0.237   9.459 -0.2302  0.0349  0.3043
 9249PP      PP19353  14.869  15.491   2.181 -0.1354 -0.0945  0.3461
 9250PP      PP19354  11.017   7.674   3.962 -0.2910  0.0082  0.1123
 9251PP      PP19355   3.916   0.646  10.773 -0.1638 -0.0324 -0.1058
 9252PP      PP19356   4.165  12.440  10.404 -0.2552  0.0603  0.1894
 9253PP      PP19357   6.507   7.208  10.070  0.3083 -0.0207  0.3407
 9254PP      PP19358   3.549   0.426   9.042 -0.0757 -0.0205  0.2013
 9255PP      PP19359   3.904   0.181  11.964 -0.0703 -0.0295 -0.1434
 9256PP      PP19360   6.824   9.102   1.227  0.1246  0.0587  0.0501
 9257PP      PP19361   2.447   2.843  13.448 -0.0485  0.0996 -0.1107
 9258PP      PP19362   3.866   2.964  13.495 -0.0868  0.0636  0.1527
 9259PP      PP19363   7.113   4.570   8.640 -0.0570  0.1015  0.2886
 9260PP      PP19364  11.710   0.258   0.719 -0.2848 -0.2855 -0.0806
 9261PP      PP19365  11.427  13.009  10.630  0.1106  0.0621 -0.0012
 9262PP      PP19366   1.470   2.393   1.752 -0.2377 -0.3348  0.3100
 9263PP      PP19367   7.581  15.814   4.658 -0.0426  0.3525  0.0812
 9264PP      PP19368   9.875  10.547   0.187  0.1790  0.0317  0.0004
 9265PP      PP19369   0.259  11.930   9.201 -0.0002  0.0643 -0.4544
 9266PP      PP19370  12.474   7.591   0.293 -0.0523 -0.3695 -0.0417
 9267PP      PP19371   3.651  14.294   2.594  0.2479 -0.0797 -0.1253
 9268PP      PP19372   3.591   3.315  10.759  0.1191 -0.1274 -0.1659
 9269PP      PP19373   8.332   2.063   2.039  0.0821 -0.2019  0.2513
 9270PP      PP19374  10.689  12.396   3.389  0.1006 -0.0725 -0.0298
 9271PP      PP19375   4.699   9.241   4.136  0.1035 -0.1209 -0.1236
 9272PP      PP19376   9.962  15.646  12.934  0.0214 -0.0329 -0.1150
 9273PP      PP19377   3.488   3.831   0.806  0.3223 -0.0281 -0.1490
 9274PP      PP19378   9.504  14.017   0.602 -0.1929 -0.1731 -0.0381
 9275PP      PP19379   2.827  14.863   0.267 -0.0782 -0.2706  0.1966
 9276PP      PP19380  11.453   8.585   8.512 -0.0556 -0.1218  0.1712
 9277PP      PP19381   5.514  12.985  11.057  0.0675 -0.2800  0.0075
 9278PP      PP19382   7.457  11.414   9.435  0.1424  0.1706  0.0928
 9279PP      PP19383  12.665   7.201   1.690  0.0965  0.0046 -0.0886
 9280PP      PP19384   2.083   3.970   1.469 -0.1289  0.0666  0.0155
 9281PP      PP19385   0.296  10.446   9.841 -0.0673 -0.0574  0.2630
 9282PP      PP19386  10.879  11.394   2.615  0.3619 -0.0455  0.1820
 9283PP      PP19387   6.946   4.396   3.591 -0.3932  0.1876 -0.1045
 9284PP      PP19388  15.864  11.556  10.163  0.0206  0.1864  0.0278
 9285PP      PP19389   6.564   1.768  13.492  0.1671  0.1902  0.1329
 9286PP      PP19390  15.455   9.268   1.280 -0.4474  0.2463 -0.1204
 9287PP      PP19391  15.793   6.500   9.729  0.3950 -0.0564  0.0225
 9288PP      PP19392   3.115   6.929   1.317  0.0293  0.2874 -0.2134
 9289PP      PP19393  12.231  13.522   9.927  0.2261 -0.2654  0.3969
 9290PP      PP19394   9.706  12.070   0.118  0.1744  0.2483  0.0140
 9291PP      PP19395   7.855  10.134  11.430 -0.1707  0.1550  0.1191
 9292PP      PP19396  14.082   4.843   0.262  0.0331 -0.1503 -0.1163
 9293PP      PP19397  14.520   6.136   0.202  0.1970 -0.0301 -0.1694
 9294PP      PP19398   2.997   6.765   4.382  0.1546 -0.3205  0.0368
 9295PP      PP19399   4.614   8.950  11.818 -0.2521 -0.1301  0.0988
 9296PP      PP19400  13.320  13.155   9.451  0.0429  0.0025  0.2175
 9297PP      PP19401   0.347  15.673   0.332  0.0158 -0.1248  0.1616
 9298PP      PP19402   4.916   3.642  10.129 -0.0742 -0.0036 -0.0060
 9299PP      PP19403   1.572  10.540   8.116  0.3111 -0.4036  0.1171
 9300PP      PP19404   2.186  13.393  13.092 -0.1466  0.1755 -0.2067
 9301PP      PP19405   0.412   2.950  10.881 -0.0895  0.1061 -0.1066
 9302PP      PP19406   2.226  13.747  10.097  0.1479  0.2351 -0.1567
 9303PP      PP19407   0.106  11.496  11.936 -0.0197  0.3344 -0.0740
 9304PP      PP19408   0.153   2.591   9.477  0.0233  0.0612  0.0135
 9305PP      PP19409  14.855  14.111   9.462 -0.1707 -0.1862 -0.1997
 9306PP      PP19410  11.328   7.539   0.319 -0.1464  0.0865  0.0677
 9307PP      PP19411   3.578   7.867   2.872 -0.1447 -0.3952  0.1813
 9308PP      PP19412  12.752   7.772  11.325 -0.0014  0.0283  0.1210
 9309PP      PP19413  10.352   0.843   0.733  0.0096  0.1861 -0.0323
 9310PP      PP19414  14.189  14.869   0.293  0.1189  0.0525  0.1963
 9311PP      PP19415  12.112   5.869   0.576 -0.2656  0.1056  0.2306
 9312PP      PP19416  12.024   9.480   9.588 -0.2075 -0.2078 -0.2233
 9313PP      PP19417   8.301   2.801   1.195 -0.0255  0.2040  0.0977
 9314PP      PP19418   5.443   0.548   1.487 -0.1763 -0.3612 -0.1920
 9315PP      PP19419   5.189   2.697  12.526  0.1506  0.1548 -0.1563
 9316PP      PP19420  14.903   1.637  12.031  0.0042  0.2149  0.1208
 9317PP      PP19421   2.286   8.921   3.660  0.1091 -0.3261 -0.0963
 9318PP      PP19422   2.546   4.222  12.578  0.3263  0.0863 -0.4495
 9319PP      PP19423  10.893   1.326  10.679 -0.0149  0.0493  0.3283
 9320PP      PP19424   8.291   0.821   1.500  0.0123  0.0237 -0.1347
 9321PP      PP19425   3.136  10.136   1.712 -0.0315  0.0152 -0.1167
 9322PP      PP19426   7.997   2.363  10.475  0.0441 -0.0205  0.2127
 9323PP      PP19427   3.642  15.652  11.324  0.5353 -0.0109 -0.1204
 9324PP      PP19428  14.073   5.387   8.404 -0.1278 -0.2421 -0.1040
 9325PP      PP19429   3.994   7.115   1.854 -0.0293  0.3120 -0.0706
 9326PP      PP19430   9.388  15.037   0.462  0.1387 -0.0207  0.1113
 9327PP      PP19431  15.840   5.690   8.274  0.1163 -0.0026  0.1444
 9328PP      PP19432  14.740   5.109   9.283  0.1919  0.2598 -0.1437
 9329PP      PP19433   7.107  11.129  13.010  0.0110 -0.1086  0.0517
 9330PP      PP19434  13.730   8.530  13.426 -0.1978  0.0705 -0.0878
 9331PP      PP19435  14.138  14.656  13.308  0.4216 -0.1114 -0.1157
 9332PP      PP19436   6.077   9.709   1.087  0.2690  0.0419 -0.1949
 9333PP      PP19437   6.598  12.336   8.790  0.0722  0.2944  0.2507
 9334PP      PP19438   7.182  12.250   9.859  0.1222 -0.0418  0.0039
 9335PP      PP19439   9.694   6.520   0.934 -0.0127  0.0638  0.0858
 9336PP      PP19440  11.641   2.092   0.333  0.0359 -0.2392 -0.2952
 9337PP      PP19441   1.208  13.056   0.822 -0.2496 -0.1210 -0.4020
 9338PP      PP19442   6.797   6.809   3.300 -0.3548 -0.0811 -0.4708
 9339PP      PP19443   4.927   6.400   8.839  0.0375  0.0415  0.0660
 9340PP      PP19444  15.298   0.510   2.393 -0.3339  0.1725 -0.1734
 9341PP      PP19445  13.395   4.190   1.795 -0.0069 -0.1404  0.0523
 9342PP      PP19446  15.333   7.931   1.483 -0.2981  0.0709 -0.2961
 9343PP      PP19447   0.559   4.407  11.218 -0.2798  0.0444  0.0802
 9344PP      PP19448  12.678  12.264   0.979  0.0304  0.1687 -0.0593
 9345PP      PP19449   9.023  13.745   4.029  0.0261 -0.1428 -0.4807
 9346PP      PP19450   6.806   5.821  10.511 -0.2100  0.0143 -0.0383
 9347PP      PP19451   8.821   1.226   0.353 -0.1168  0.1970 -0.1469
 9348PP      PP19452  14.623  10.721  10.810  0.0611 -0.1189  0.4519
 9349PP      PP19453   3.242  12.617  11.964  0.1874  0.0844  0.1002
 9350PP      PP19454   8.602   5.114  11.449  0.0889 -0.2537  0.0846
 9351PP      PP19455   9.149   9.224  12.129 -0.4862 -0.0650 -0.1236
 9352PP      PP19456  12.136   2.177   1.269 -0.0989 -0.4359 -0.2542
 9353PP      PP19457  13.976  14.991  12.511 -0.1497 -0.0341  0.1865
 9354PP      PP19458   8.465   8.763  12.513  0.0971  0.2388  0.2474
 9355PP      PP19459   9.716   9.015  11.304  0.1747 -0.0610  0.1218
 9356PP      PP19460   4.679   1.727   9.436 -0.1203 -0.0681 -0.1060
 9357PP      PP19461   9.836   8.844   9.449 -0.1192  0.1437  0.2785
 9358PP      PP19462   2.188  15.389  10.489  0.0292 -0.1349 -0.1674
 9359PP      PP19463   4.242  11.175   9.752 -0.0783  0.0703 -0.2601
 9360PP      PP19464  11.904   0.106   2.938  0.0099 -0.1517  0.1898
 9361PP      PP19465   5.842  15.397  13.324 -0.2686 -0.2404 -0.0208
 9362PP      PP19466  11.190  11.129  10.065 -0.2691  0.0509 -0.0898
 9363PP      PP19467   9.587   8.127  12.136 -0.1194  0.1682  0.1964
 9364PP      PP19468  11.045  14.185   4.072 -0.1850 -0.0261 -0.0251
 9365PP      PP19469   8.205  11.718   0.564 -0.1176 -0.1186  0.0949
 9366PP      PP19470   4.485  10.309   2.507 -0.2860  0.0136 -0.3489
 9367PP      PP19471   1.845  12.623   0.531 -0.0027 -0.2615 -0.2868
 9368PP      PP19472  13.797   4.943   9.740 -0.0714 -0.0513  0.0718
 9369PP      PP19473   1.395  10.616   3.004  0.1550 -0.2439 -0.1486
 9370PP      PP19474  15.818   4.009   1.198  0.1944  0.0828 -0.1044
 9371PP      PP19475   5.212  12.689   2.126  0.1027 -0.1774  0.1141
 9372PP      PP19476  10.610  13.596  12.607  0.0048  0.4223 -0.1850
 9373PP      PP19477   3.042   8.016   2.912  0.0400 -0.0534  0.2072
 9374PP      PP19478   1.586   7.889   9.841 -0.2277 -0.0096  0.1972
 9375PP      PP19479  10.390   7.047   2.739 -0.1579 -0.1779  0.0224
 9376PP      PP19480   2.983   3.538   0.961  0.1558 -0.2720 -0.0150
 9377PP      PP19481   5.077   5.910   8.689  0.0911  0.1163 -0.0548
 9378PP      PP19482   3.733   1.564  13.140 -0.1861  0.2175 -0.1748
 9379PP      PP19483   6.436  11.475   4.235 -0.0503 -0.1966 -0.1619
 9380PP      PP19484   0.372  12.262   1.652 -0.3343 -0.0888 -0.0004
 9381PP      PP19485   7.033   2.067   2.657 -0.0387 -0.4750 -0.1369
 9382PP      PP19486  15.311   1.444  12.978 -0.0062  0.2218 -0.0854
 9383PP      PP19487   6.496   0.269  13.035 -0.2665 -0.2073  0.0203
 9384PP      PP19488   4.634  11.211  13.096 -0.1031  0.0453  0.0617
 9385PP      PP19489   2.633  11.602  10.841  0.1560 -0.5129  0.2943
 9386PP      PP19490  14.391  10.246   1.756  0.3527  0.0240  0.0401
 9387PP      PP19491   1.260  10.976   2.036  0.2023  0.1476 -0.0099
 9388PP      PP19492   8.709  13.988   2.769  0.0058 -0.1854 -0.0767
 9389PP      PP19493   1.856   1.551  11.468 -0.2928  0.0273 -0.0693
 9390PP      PP19494   4.873   5.252   0.221  0.1182  0.0907  0.1869
 9391PP      PP19495   9.688   9.405   2.893  0.1128  0.3691  0.3677
 9392PP      PP19496  10.590   0.160   0.670  0.0554  0.1857  0.3098
 9393PP      PP19497   7.426  15.768   1.036  0.0866 -0.2790 -0.0024
 9394PP      PP19498   0.078   8.337  10.115  0.2362 -0.2482 -0.0159
 9395PP      PP19499   4.853   6.355  11.121  0.3695 -0.1355  0.0792
 9396PP      PP19500   3.164  10.968   3.085  0.1183  0.1291  0.1469
 9397PP      PP19501   4.362  13.510   4.050 -0.1391 -0.4100 -0.2291
 9398PP      PP19502   0.690   3.824   3.140 -0.2371  0.1797  0.2251
 9399PP      PP19503  11.504   2.956  10.827  0.0883 -0.1065 -0.0000
 9400PP      PP19504   0.087   6.105   9.351  0.0863  0.0449 -0.0053
 9401PP      PP19505   3.243  14.297   8.909  0.0701  0.2610 -0.0789
 9402PP      PP19506  10.699  15.450   4.889 -0.0159  0.2355 -0.3481
 9403PP      PP19507  14.043   9.613  12.339 -0.0354  0.0787  0.2409
 9404PP      PP19508   8.098   4.409   9.740 -0.0384 -0.0604 -0.2464
 9405PP      PP19509  15.853  15.314   0.579 -0.1761  0.0458 -0.1607
 9406PP      PP19510   4.068   3.858  10.409  0.0292 -0.1935 -0.1959
 9407PP      PP19511   1.575   3.691   9.510 -0.0089 -0.1462  0.0731
 9408PP      PP19512  15.641  15.617  11.852 -0.1669 -0.0538  0.1709
 9409PP      PP19513   5.459  11.166   8.813  0.1488 -0.4787  0.2101
 9410PP      PP19514  14.464   7.988   1.469  0.1582  0.2109 -0.1332
 9411PP      PP19515   1.994   9.512   2.505  0.0360 -0.1595  0.1815
 9412PP      PP19516   2.834   9.391   1.089  0.0411 -0.2952  0.1223
 9413PP      PP19517   5.505   0.835   1.890  0.1822 -0.0680  0.0883
 9414PP      PP19518   4.682   3.750   0.777  0.0343 -0.1380 -0.4110
 9415PP      PP19519   2.473   4.834   9.234 -0.2323  0.1662 -0.3891
 9416PP      PP19520   7.916  10.765   3.991  0.2849 -0.0538  0.0755
 9417PP      PP19521  11.748   4.966   0.772  0.0354  0.3556  0.0710
 9418PP      PP19522   5.864  14.673  11.407  0.1318 -0.2938  0.0855
 9419PP      PP19523   2.541  14.636   2.412 -0.0138 -0.0412 -0.0750
 9420PP      PP19524   1.165  15.624  11.693  0.0169  0.1290 -0.0331
 9421PP      PP19525   9.565  14.697  12.087 -0.2551 -0.0697  0.2017
 9422PP      PP19526   1.537   4.246   1.046  0.3734 -0.0078  0.0258
 9423PP      PP19527   2.594   2.252   9.800 -0.0508  0.0758  0.1285
 9424PP      PP19528   0.088  11.254   9.772  0.0307  0.1470 -0.2982
 9425PP      PP19529   0.111  14.316   8.961 -0.2652 -0.0134 -0.2173
 9426PP      PP19530   8.490   4.989   9.373 -0.3075 -0.0526  0.0827
 9427PP      PP19531   7.965  13.637   1.150  0.0378 -0.1936  0.1886
 9428PP      PP19532   6.085   8.498  11.359 -0.0243  0.1108  0.1032
 9429PP      PP19533   9.195   8.104  11.449  0.1024  0.2165  0.0222
 9430PP      PP19534   1.577   1.979   2.135 -0.0110 -0.1950 -0.0138
 9431PP      PP19535   7.500  15.279   0.212 -0.0283  0.1342  0.2552
 9432PP      PP19536   4.351   5.039   3.142  0.1528 -0.1074  0.2156
 9433PP      PP19537  14.287  15.185   4.106  0.2556 -0.1102 -0.0210
 9434PP      PP19538   4.964   2.967   0.178 -0.2095  0.0699 -0.0163
 9435PP      PP19539   6.832   9.953  12.265 -0.1113 -0.2457  0.3694
 9436PP      PP19540  13.651  10.588   1.967  0.3908 -0.3120  0.1598
 9437PP      PP19541  12.926  14.743  12.249 -0.0708 -0.2512  0.0131
 9438PP      PP19542  12.696  14.730   0.381 -0.2696 -0.1852 -0.2291
 9439PP      PP19543   7.434   6.321   1.632  0.1685  0.0344 -0.2989
 9440PP      PP19544   2.449   9.384   3.740 -0.2721 -0.1298  0.2088
 9441PP      PP19545  12.329   5.688   8.950 -0.0590  0.1858  0.2009
 9442PP      PP19546   6.469  15.269  12.470  0.2091 -0.1317  0.2306
 9443PP      PP19547   3.315   6.443   8.634  0.0436  0.1418  0.2983
 9444PP      PP19548  14.081  14.432   3.415 -0.1491  0.1211  0.2955
 9445PP      PP19549   1.863   7.773   9.409 -0.2718  0.1706 -0.3612
 9446PP      PP19550  12.649   8.259   8.627  0.1555 -0.0551  0.0483
 9447PP      PP19551  13.957  10.872  11.366  0.1543 -0.1189 -0.1027
 9448PP      PP19552   2.621  13.071  12.607  0.0704 -0.2501 -0.0154
 9449PP      PP19553   7.879  15.287   3.259 -0.0534 -0.0885 -0.0954
 9450PP      PP19554   0.922  15.160   4.377  0.0852 -0.0925  0.3032
 9451PP      PP19555   1.495   6.629  13.302  0.0869 -0.0819  0.0144
 9452PP      PP19556  12.253  13.948   0.509 -0.0635 -0.4788  0.2550
 9453PP      PP19557  11.641   7.166   9.440 -0.1251  0.2064 -0.1145
 9454PP      PP19558  12.638   5.015   9.341 -0.0783 -0.0872  0.2146
 9455PP      PP19559   6.971   9.406  12.458 -0.0018  0.0541  0.0857
 9456PP      PP19560   7.368   9.089   1.346  0.2855 -0.2562 -0.2080
 9457PP      PP19561   3.458  11.188  11.182 -0.0237  0.1367 -0.0457
 9458PP      PP19562   7.069   7.258   3.775 -0.1640 -0.1026  0.3468
 9459PP      PP19563  11.078   5.104   3.216 -0.1871 -0.2744  0.1082
 9460PP      PP19564   5.222   1.829  13.306  0.0230 -0.0327  0.1817
 9461PP      PP19565   8.946   9.458   1.693 -0.1822  0.2467 -0.1959
 9462PP      PP19566  12.741   2.854   2.296  0.0600 -0.2052  0.0036
 9463PP      PP19567   8.703   5.220  10.701 -0.3914  0.0192 -0.0892
 9464PP      PP19568   9.721   5.227   1.924 -0.0432 -0.3662 -0.0169
 9465PP      PP19569   3.067  15.372   2.182  0.0899  0.2210 -0.2299
 9466PP      PP19570  13.022   0.002   1.870  0.0722  0.2374  0.4281
 9467PP      PP19571   0.930  13.264   9.924 -0.0145 -0.2208 -0.2471
 9468PP      PP19572  12.223   2.113  12.220  0.0693  0.3541 -0.1644
 9469PP      PP19573  12.338   3.705  11.488 -0.0693 -0.2157  0.1914
 9470PP      PP19574  13.836  14.526   9.881  0.0970 -0.1695 -0.2225
 9471PP      PP19575   5.750   7.445   1.270 -0.0408  0.0057 -0.0091
 9472PP      PP19576   7.954   7.122   3.577  0.2058  0.1793 -0.0142
 9473PP      PP19577  13.929  14.899   4.365  0.2270 -0.1523  0.0381
 9474PP      PP19578   9.383   2.924  13.423 -0.2218  0.1694  0.0512
 9475PP      PP19579   4.349   0.559   1.937  0.0089 -0.0132 -0.0070
 9476PP      PP19580   3.215   4.282   1.174 -0.1625  0.0059  0.1259
 9477PP      PP19581  15.809  12.178   1.792  0.0349  0.2018 -0.3287
 9478PP      PP19582   5.464   1.418   2.761 -0.1674 -0.2077  0.0604
 9479PP      PP19583  14.785   4.484   1.677  0.2576 -0.1711 -0.1719
 9480PP      PP19584  10.384  11.377   0.175 -0.3388  0.0254 -0.2746
 9481PP      PP19585   5.153   9.984  13.478  0.0941 -0.1170 -0.0863
 9482PP      PP19586   7.474  12.517   1.568 -0.2587 -0.3183 -0.0191
 9483PP      PP19587  13.535   4.873   9.290  0.4700 -0.0032  0.1949
 9484PP      PP19588   1.201   3.290   0.819 -0.1476  0.2257 -0.3986
 9485PP      PP19589   2.195   7.419  13.277 -0.0109  0.0998 -0.1659
 9486PP      PP19590  12.202   3.626   0.291 -0.0686 -0.2487  0.2180
 9487PP      PP19591   5.697   7.067   3.214  0.0501 -0.0109  0.1422
 9488PP      PP19592   2.093   4.986   0.690  0.0986  0.1542 -0.1312
 9489PP      PP19593  10.459  13.408   4.181  0.2035  0.0118 -0.0618
 9490PP      PP19594   8.119  13.255  13.150  0.2017 -0.0915 -0.1781
 9491PP      PP19595   7.610  14.372   4.298  0.2384  0.3101 -0.0538
 9492PP      PP19596   9.587  11.205  12.361 -0.1632 -0.0520 -0.0957
 9493PP      PP19597  14.046  15.367  11.759  0.0013  0.1650 -0.1006
 9494PP      PP19598   8.631   1.233  10.674  0.1541 -0.0717  0.0545
 9495PP      PP19599   7.370   9.592  11.669  0.1393  0.0649  0.0059
 9496PP      PP19600   9.570   7.408   3.064  0.1315 -0.2001  0.2873
 9497PP      PP19601   1.654   1.876   0.287 -0.3279  0.3106  0.1997
 9498PP      PP19602  11.520   9.215   2.523 -0.0040 -0.0534  0.0470
 9499PP      PP19603   7.351  14.305   4.940  0.1401  0.0444  0.4659
 9500PP      PP19604   9.025   6.253   3.995  0.0601  0.0823 -0.0271
 9501PP      PP19605   4.192   3.270   4.212  0.2496 -0.0420  0.1561
 9502PP      PP19606   1.252   1.784  10.787  0.3832 -0.0647 -0.0578
 9503PP      PP19607   7.106   0.217  12.305  0.2110  0.1133  0.0218
 9504PP      PP19608   5.779   6.883   4.140 -0.0264 -0.2920  0.0815
 9505PP      PP19609   3.139  14.348  12.728 -0.1738  0.0625  0.0155
 9506PP      PP19610  11.241  12.010   4.268  0.2774 -0.0908 -0.1935
 9507PP      PP19611   1.237  12.568   2.295 -0.0816  0.2062 -0.1199
 9508PP      PP19612  14.097   2.448   0.485  0.2863 -0.1313 -0.2590
 9509PP      PP19613  11.672   9.609  13.058 -0.1758 -0.0996 -0.0551
 9510PP      PP19614  15.749   5.858  12.775  0.1851 -0.0267  0.0446
 9511PP      PP19615   4.249  10.725   0.205 -0.1183  0.0764  0.5143
 9512PP      PP19616   0.311   6.292   0.589 -0.3588  0.0895  0.0826
 9513PP      PP19617   0.575   9.433   9.071  0.0868  0.1142 -0.2110
 9514PP      PP19618   2.920  10.046  11.424 -0.0234 -0.0032 -0.2035
 9515PP      PP19619   0.328   9.986   9.267 -0.1506  0.0386  0.4451
 9516PP      PP19620  14.275  11.195   1.736  0.1352 -0.0956 -0.2446
 9517PP      PP19621   1.676  14.436   0.289  0.4074  0.0746  0.1049
 9518PP      PP19622   7.550   5.137   9.707 -0.1983  0.0632 -0.1685
 9519PP      PP19623   2.774   7.959  11.622 -0.0036 -0.1332 -0.5365
 9520PP      PP19624  13.041   7.369   2.639 -0.1511 -0.2509  0.0081
 9521PP      PP19625  10.459   7.389  10.899 -0.0135  0.1845 -0.0505
 9522PP      PP19626  12.447   7.802  13.277 -0.0852 -0.3188 -0.0579
 9523PP      PP19627   9.288   6.032   9.682  0.0389  0.3434 -0.3143
 9524PP      PP19628   1.955   7.856   1.121 -0.0120 -0.1091  0.1208
 9525PP      PP19629   0.687   7.730  10.253  0.0693 -0.1650  0.0581
 9526PP      PP19630  13.885  11.054  13.113 -0.0831  0.0606 -0.0519
 9527PP      PP19631   4.897  10.132   9.742 -0.1479 -0.0531 -0.1013
 9528PP      PP19632   6.079   9.046   2.164  0.0400  0.1553 -0.0012
 9529PP      PP19633   2.701  15.325   0.504  0.1696  0.0583 -0.0007
 9530PP      PP19634   7.454   8.606   0.416 -0.0231  0.2426  0.5867
 9531PP      PP19635   8.838  13.365   1.036 -0.4900 -0.0189  0.1203
 9532PP      PP19636   0.778   9.036  10.787 -0.1810 -0.2630  0.1257
 9533PP      PP19637   1.992  13.454   0.512  0.2015  0.0592 -0.0915
 9534PP      PP19638   4.628  10.132   4.263 -0.0727  0.1545 -0.2418
 9535PP      PP19639   5.966  11.114   9.494 -0.0738  0.1099 -0.2707
 9536PP      PP19640   5.403   3.791   1.281 -0.2807  0.0059  0.3045
 9537PP      PP19641   3.873   7.286  11.946  0.2874  0.0838  0.1543
 9538PP      PP19642   9.425   8.813   8.428  0.0336  0.3819  0.2479
 9539PP      PP19643  13.621  13.491   5.469  0.0392  0.0820  0.4486
 9540PP      PP19644   8.981   8.329   3.376  0.0012 -0.1787  0.2604
 9541PP      PP19645  12.267  15.125  10.610 -0.0867  0.2146  0.1207
 9542PP      PP19646   6.409  11.047  12.235 -0.2237  0.0923  0.0491
 9543PP      PP19647  15.847  13.693   3.890 -0.1590 -0.3258 -0.2539
 9544PP      PP19648   4.717   9.432   2.321  0.0591 -0.0196  0.2887
 9545PP      PP19649   1.825   7.955   0.623  0.1003 -0.1190  0.0113
 9546PP      PP19650   7.950   6.034   2.192 -0.0155 -0.1839  0.1443
 9547PP      PP19651  12.323   3.475  12.466 -0.1343 -0.1108  0.1493
 9548PP      PP19652   7.599   5.696   0.792 -0.0139  0.4084  0.1963
 9549PP      PP19653  14.528   0.424   4.229 -0.2309  0.0116 -0.0806
 9550PP      PP19654   8.369   6.248   9.675 -0.0501 -0.2383  0.1039
 9551PP      PP19655   6.554  11.057   4.500  0.1513  0.1728 -0.3154
 9552PP      PP19656   8.444   3.244   1.355  0.0869  0.1149  0.2919
 9553PP      PP19657  15.068  11.282   1.127 -0.1610  0.2063  0.1440
 9554PP      PP19658   6.607   4.879   1.564 -0.3712  0.1268  0.1972
 9555PP      PP19659   4.809   4.617   8.488  0.2798 -0.0887  0.0058
 9556PP      PP19660   1.285  15.319   0.255 -0.2567  0.1025 -0.2137
 9557PP      PP19661   5.064   3.874  12.611  0.1807  0.0113 -0.0022
 9558PP      PP19662   5.712  13.810  10.590 -0.1404 -0.0588 -0.4344
 9559PP      PP19663  12.113  15.006   9.554 -0.4242 -0.1673 -0.0900
 9560PP      PP19664   0.477  11.024   0.385 -0.2732  0.1844  0.1945
 9561PP      PP19665   3.312  11.593   9.756 -0.0370 -0.1036  0.1172
 9562PP      PP19666   4.770   0.909   9.801  0.0244 -0.2635 -0.0326
 9563PP      PP19667   2.119   3.631   3.511  0.0495 -0.1632 -0.2290
 9564PP      PP19668   3.594   2.097   0.335  0.0438 -0.2857  0.1780
 9565PP      PP19669   2.425   2.007   4.111  0.0716  0.0143  0.1690
 9566PP      PP19670   8.960   6.623   8.747 -0.1841  0.0780 -0.1526
 9567PP      PP19671   6.655  15.217  11.443 -0.2321 -0.1616 -0.1086
 9568PP      PP19672  11.330   5.933   3.690 -0.0873 -0.0823 -0.1137
 9569PP      PP19673   6.874   5.185   1.821 -0.0674  0.1705  0.0560
 9570PP      PP19674  13.471   2.669   3.877  0.1731 -0.1387  0.0820
 9571PP      PP19675  10.252  13.765   9.325  0.0603 -0.2629  0.1209
 9572PP      PP19676  11.589  11.100   1.312 -0.2190 -0.0498  0.0511
 9573PP      PP19677  11.444   2.503   0.209  0.2084 -0.1402  0.0956
 9574PP      PP19678   6.676   0.644   3.051 -0.0950 -0.0827  0.2141
 9575PP      PP19679   3.664  14.210  12.067 -0.1372  0.4300 -0.0416
 9576PP      PP19680   8.728   4.132   9.839 -0.1679  0.0122 -0.1771
 9577PP      PP19681   3.831  13.866  11.735  0.1933  0.1518 -0.0161
 9578PP      PP19682   8.313   0.528   1.882  0.1339  0.0321 -0.1440
 9579PP      PP19683  10.715   0.835   4.810  0.2268  0.1167 -0.1687
 9580PP      PP19684  15.449   0.612  12.031 -0.1329  0.3749 -0.2568
 9581PP      PP19685  11.788   5.257   9.446  0.0929 -0.0682 -0.1664
 9582PP      PP19686  10.403   6.596   1.461  0.1809  0.0421 -0.1038
 9583PP      PP19687   8.498  15.737   2.788  0.0760 -0.0517 -0.0717
 9584PP      PP19688   2.608  13.776   8.794 -0.1628 -0.1665 -0.0728
 9585PP      PP19689   8.729   7.644   0.818 -0.0149 -0.1590 -0.1424
 9586PP      PP19690  10.868   6.991   2.847 -0.3741  0.2347 -0.0566
 9587PP      PP19691   1.211   8.792  12.564  0.2352  0.0399 -0.0282
 9588PP      PP19692   0.644   8.791  11.662  0.2406 -0.1410 -0.0219
 9589PP      PP19693   8.312  13.529   9.770 -0.0975  0.1694 -0.1346
 9590PP      PP19694   1.747   0.287  10.350 -0.2950  0.1525  0.0999
 9591PP      PP19695  14.772  10.798  13.197  0.0630  0.0969 -0.1606
 9592PP      PP19696   8.820  13.635  12.887 -0.1199  0.1307 -0.0330
 9593PP      PP19697  12.810   3.743   1.105 -0.0679 -0.0101 -0.0143
 9594PP      PP19698  13.611  10.718  10.809 -0.0396 -0.0177  0.0928
 9595PP      PP19699   2.032   8.751   1.451  0.0042  0.0568 -0.2748
 9596PP      PP19700  13.920   8.658   3.882  0.0243  0.1755  0.0958
 9597PP      PP19701   9.424  10.296   9.978 -0.1278 -0.1047 -0.0281
 9598PP      PP19702   4.556   2.101   4.143 -0.2204 -0.0514  0.2830
 9599PP      PP19703   0.351   8.105  11.612  0.3889  0.0621 -0.0812
 9600PP      PP19704   0.334   3.356   0.283  0.2128  0.1328 -0.0072
 9601PP      PP19705  13.995   0.426   2.892  0.1026 -0.0918  0.2445
 9602PP      PP19706   2.725   9.736   0.068  0.0119 -0.1239  0.0034
 9603PP      PP19707   1.896   2.447  10.993 -0.0156 -0.0621 -0.1617
 9604PP      PP19708   4.341   7.624   2.865 -0.3127  0.0443  0.1791
 9605PP      PP19709  12.015  15.284  10.044 -0.0687 -0.1647  0.0071
 9606PP      PP19710   7.615   7.403   0.589 -0.2561  0.0654  0.1724
 9607PP      PP19711  13.323  15.202   0.858 -0.0366 -0.4173 -0.0258
 9608PP      PP19712   7.399   4.689   9.511 -0.2503  0.1740 -0.0315
 9609PP      PP19713  10.874   0.555  12.481 -0.0242 -0.1756 -0.0890
 9610PP      PP19714   1.392  11.733   3.310 -0.1097  0.1093  0.1516
 9611PP      PP19715  15.156   7.612   1.901 -0.1653 -0.0052 -0.0318
 9612PP      PP19716   1.421  15.270  10.302  0.0520  0.2907  0.1822
 9613PP      PP19717   0.997   5.062   0.305  0.0836 -0.0345 -0.0151
 9614PP      PP19718   9.192  13.137   9.300  0.1585 -0.1528  0.1443
 9615PP      PP19719  13.251   3.488   3.398  0.1309  0.0430  0.0400
 9616PP      PP19720   2.877   6.972   0.856 -0.4215  0.1387 -0.2159
 9617PP      PP19721   5.429  11.959   9.334 -0.0246  0.3121  0.1246
 9618PP      PP19722  13.732   2.281   0.858 -0.4869  0.0289 -0.0857
 9619PP      PP19723  12.330  12.553   3.806  0.0214 -0.0656  0.3177
 9620PP      PP19724   9.484   0.890   2.563  0.1131  0.1438  0.3160
 9621PP      PP19725   8.508   6.083  12.484  0.1686 -0.0733  0.0061
 9622PP      PP19726   4.556   1.204   2.661  0.0396 -0.2598  0.0277
 9623PP      PP19727   4.718   6.469   1.537  0.1530 -0.0876 -0.0205
 9624PP      PP19728   2.259  15.791   1.921 -0.1080 -0.0162 -0.1136
 9625PP      PP19729   1.622   7.403  12.165 -0.2955  0.0244 -0.1753
 9626PP      PP19730   3.365   6.557   3.574  0.1792 -0.1774  0.2303
 9627PP      PP19731   0.281  10.645   2.263 -0.0474  0.3151  0.0525
 9628PP      PP19732   8.658   1.699  11.499 -0.1846 -0.3844 -0.3879
 9629PP      PP19733  10.522   9.200   8.557 -0.3252  0.0920 -0.2866
 9630PP      PP19734   1.180   8.188   3.623 -0.1608 -0.0073  0.2191
 9631PP      PP19735   1.850   6.135   2.441  0.2652 -0.1647  0.0670
 9632PP      PP19736   9.420  11.363   2.396 -0.1365 -0.1056 -0.1692
 9633PP      PP19737   5.220   8.007   2.863 -0.1250 -0.0965  0.0303
 9634PP      PP19738  15.335   3.677   9.177 -0.0267 -0.0946 -0.1074
 9635PP      PP19739   8.463   3.358   1.852 -0.1043 -0.1442 -0.3685
 9636PP      PP19740   6.988   0.752   3.408 -0.1532  0.1376 -0.0296
 9637PP      PP19741  14.389  12.857   4.054  0.3117 -0.2466 -0.0875
 9638PP      PP19742  11.457  14.102   0.312  0.1064 -0.1266  0.1204
 9639PP      PP19743   8.239   0.064   4.651  0.1084 -0.0285  0.0232
 9640PP      PP19744   6.387  10.576   8.896 -0.0450  0.0034  0.1974
 9641PP      PP19745   7.884  14.272   9.297  0.0271  0.3039 -0.0532
 9642PP      PP19746  15.248  13.020  13.101 -0.1571 -0.1816  0.1988
 9643PP      PP19747   7.963   1.517   9.892 -0.1139  0.2390  0.3150
 9644PP      PP19748  10.037   0.731  12.854  0.2407  0.1466 -0.3092
 9645PP      PP19749   3.819  15.829   2.576 -0.0082 -0.1662  0.1232
 9646PP      PP19750  15.467   7.839   2.198 -0.0456 -0.0509  0.0031
 9647PP      PP19751  15.036  11.547   8.223  0.1699  0.1669  0.2604
 9648PP      PP19752  10.224  10.532  13.253  0.1992  0.0320 -0.0692
 9649PP      PP19753  10.054   5.827  10.525 -0.0637  0.0560  0.1503
 9650PP      PP19754  13.081   4.489  12.991 -0.3384  0.0189  0.0830
 9651PP      PP19755   3.374   8.789  11.501 -0.1599 -0.0431 -0.2317
 9652PP      PP19756   2.587   3.791   0.612  0.1055 -0.1419  0.1689
 9653PP      PP19757   3.572   3.314   1.859 -0.0950 -0.0533  0.0232
 9654PP      PP19758   5.698  12.307   1.533  0.3004 -0.0760  0.1590
 9655PP      PP19759   3.648   6.298   3.044 -0.0793 -0.2680  0.0042
 9656PP      PP19760   1.867   4.108   3.524  0.2519 -0.0281  0.2252
 9657PP      PP19761   9.485   4.232   3.152  0.2184  0.3118  0.0582
 9658PP      PP19762   9.836  10.906  11.968  0.2650 -0.2536 -0.0059
 9659PP      PP19763   7.783   5.500  12.148 -0.0271 -0.1661 -0.0058
 9660PP      PP19764   6.780   2.114  10.517  0.3139 -0.0141 -0.1805
 9661PP      PP19765   4.841  15.207   1.200 -0.0482 -0.1820  0.1402
 9662PP      PP19766   7.811  14.560   1.337 -0.0135  0.0023 -0.0425
 9663PP      PP19767   4.778  10.598   9.518 -0.0125  0.0914  0.1288
 9664PP      PP19768  15.854  12.414  13.001 -0.2556 -0.0422  0.0188
 9665PP      PP19769   5.146   2.716   3.891 -0.3474 -0.0366  0.1111
 9666PP      PP19770  14.684  13.898   0.199  0.0915 -0.1743 -0.0444
 9667PP      PP19771  15.265   6.161   1.789 -0.0532 -0.0909 -0.2075
 9668PP      PP19772   6.462   0.763   0.306  0.2778  0.1169 -0.2927
 9669PP      PP19773  11.357   9.312  10.210 -0.0666  0.0400  0.1334
 9670PP      PP19774  13.866   1.681   2.482  0.2031 -0.0422 -0.1294
 9671PP      PP19775   8.197   1.047   9.890  0.4521 -0.0646  0.0807
 9672PP      PP19776   3.632   9.883   1.448 -0.3002 -0.2756 -0.0039
 9673PP      PP19777   7.991   7.752  10.518 -0.2330  0.0394 -0.1981
 9674PP      PP19778  13.337  10.265  12.990  0.0691 -0.4181 -0.0672
 9675PP      PP19779   9.785   1.815   2.786 -0.1571 -0.0293 -0.4230
 9676PP      PP19780  13.277  13.776  12.522 -0.0171  0.1338 -0.1961
 9677PP      PP19781   1.539   1.797  13.309 -0.0448 -0.0578 -0.0962
 9678PP      PP19782   2.135  14.045  10.530 -0.1011  0.0201  0.0298
 9679PP      PP19783   1.776   8.261  12.923 -0.0847  0.1416  0.2071
 9680PP      PP19784   4.816   1.963  13.035 -0.2194  0.0543  0.2368
 9681PP      PP19785   3.753   9.950   3.849 -0.1298 -0.5382  0.0412
 9682PP      PP19786   2.306   1.708  11.117  0.1805  0.1677  0.2341
 9683PP      PP19787   4.661   9.025   0.870 -0.1746  0.0357 -0.2032
 9684PP      PP19788  11.520  13.141   1.636  0.0057 -0.0199  0.2882
 9685PP      PP19789   9.146   1.764   2.454  0.2040 -0.1722  0.0267
 9686PP      PP19790   6.888  11.895   0.152  0.0466  0.3107 -0.1634
 9687PP      PP19791   3.214   6.012  10.675  0.1799 -0.0523 -0.1792
 9688PP      PP19792   3.874   1.964  10.369 -0.0982  0.1024 -0.0328
 9689PP      PP19793  14.626   8.675   2.760 -0.2240 -0.1827  0.2092
 9690PP      PP19794   1.476  10.212  12.541 -0.1190 -0.1160  0.1068
 9691PP      PP19795  13.195   0.120   0.144 -0.0106 -0.1765 -0.0342
 9692PP      PP19796   2.372   7.019   3.067  0.2277  0.0763  0.1024
 9693PP      PP19797  15.295   8.434   1.545 -0.0342 -0.0997 -0.3575
 9694PP      PP19798  11.470   8.936   1.899 -0.1318 -0.1347 -0.2396
 9695PP      PP19799   6.731   8.294   3.528  0.1535  0.0536 -0.3405
 9696PP      PP19800  11.429   3.754  12.007  0.1006  0.0493 -0.2235
 9697PP      PP19801  15.794   1.314   2.205  0.0480 -0.0586 -0.1032
 9698PP      PP19802  13.014  13.275  12.239 -0.0319  0.1101  0.0618
 9699PP      PP19803  14.065   3.557  10.900  0.2019 -0.1161 -0.1771
 9700PP      PP19804   0.913   5.992   0.521 -0.0015 -0.2417  0.1723
 9701PP      PP19805   4.428   4.127  12.449 -0.0600  0.0074  0.1769
 9702PP      PP19806   2.074   2.962  12.640  0.0224 -0.0585  0.0075
 9703PP      PP19807   9.460   6.843   0.511  0.2367 -0.1878 -0.0107
 9704PP      PP19808  11.162  15.353  12.757  0.2775  0.2309  0.2453
 9705PP      PP19809  15.837   6.607   0.883  0.1071  0.1446  0.3554
 9706PP      PP19810   8.469   5.451   1.189  0.1034 -0.0934 -0.1307
 9707PP      PP19811   9.186   0.810   0.276 -0.0644 -0.2461  0.1219
 9708PP      PP19812  14.546  15.431  13.065 -0.1560 -0.0529  0.1556
 9709PP      PP19813  13.793  14.449   3.007 -0.0473  0.0335  0.0995
 9710PP      PP19814   8.818  14.583   3.958  0.0110  0.0708  0.3268
 9711PP      PP19815   4.597   0.978   1.785 -0.1989 -0.0861 -0.0645
 9712PP      PP19816   5.384   2.367   2.389 -0.2013 -0.1681  0.2335
 9713PP      PP19817  12.443   2.727   4.122 -0.2102 -0.0951  0.3214
 9714PP      PP19818   1.184  15.511  11.132 -0.0784 -0.0740 -0.0209
 9715PP      PP19819  10.316   4.293   1.167 -0.0208 -0.0122 -0.2386
 9716PP      PP19820   6.299  11.700  11.878 -0.1867 -0.0816  0.0349
 9717PP      PP19821   9.340   5.014  12.220 -0.0722  0.2677  0.1159
 9718PP      PP19822   2.276   5.815   8.861  0.0992  0.3214 -0.1217
 9719PP      PP19823   7.779  13.497   2.566  0.1217 -0.0487  0.2054
 9720PP      PP19824  11.420   2.164  11.328 -0.0968 -0.0723 -0.0591
 9721PP      PP19825   0.461   4.684  13.381 -0.3036  0.2118 -0.1639
 9722PP      PP19826  12.203   7.555   2.557 -0.1528  0.1332 -0.0668
 9723PP      PP19827   6.508   4.699  12.189  0.2057  0.1917 -0.0938
 9724PP      PP19828   6.842  14.043  13.317  0.0577  0.0443  0.2547
 9725PP      PP19829  11.958  12.173  12.792 -0.2449  0.0577  0.0254
 9726PP      PP19830  13.376  11.798  11.736 -0.1208 -0.1457 -0.0575
 9727PP      PP19831  13.442   0.936   1.487 -0.0617 -0.2153  0.0688
 9728PP      PP19832  14.995  13.956  10.172 -0.1202  0.2815 -0.2325
 9729PP      PP19833  15.244   5.513   2.646  0.0053 -0.0953  0.1470
 9730PP      PP19834   6.259  13.893   8.471 -0.0081  0.2815  0.0995
 9731PP      PP19835   8.166   8.013   2.016  0.0528 -0.0625 -0.1567
 9732PP      PP19836  13.353   9.169   2.268 -0.0883  0.0110 -0.0110
 9733PP      PP19837   5.984  13.090  11.402  0.1189 -0.2407 -0.3257
 9734PP      PP19838  14.440   3.523   1.937  0.0715 -0.2596  0.0031
 9735PP      PP19839  14.220   2.947  10.366  0.2405  0.0646  0.1651
 9736PP      PP19840   6.496   0.993  10.225 -0.0841  0.3418  0.2884
 9737PP      PP19841   0.411   9.974   9.918 -0.0741 -0.0296 -0.0118
 9738PP      PP19842  15.143   7.646   2.687 -0.2639  0.1897 -0.2344
 9739PP      PP19843   6.592   6.807  12.775  0.2860  0.2854  0.0215
 9740PP      PP19844   4.243  12.616  12.739  0.1733  0.0422  0.1523
 9741PP      PP19845   7.788  14.571   2.372 -0.2154  0.0328  0.2781
 9742PP      PP19846  14.668  11.399  12.377 -0.2495 -0.1420 -0.0313
 9743PP      PP19847  10.370   6.625   0.941 -0.1700  0.1503  0.0733
 9744PP      PP19848   3.279   6.712   0.932 -0.1332  0.1362 -0.0457
 9745PP      PP19849  12.923   9.166  13.433  0.1423 -0.1182 -0.1850
 9746PP      PP19850   7.435   9.967   1.823 -0.1982 -0.2041 -0.0333
 9747PP      PP19851   8.916   5.184   1.312 -0.1073 -0.3942  0.1330
 9748PP      PP19852   4.845   1.249  12.686 -0.0003  0.0389 -0.1773
 9749PP      PP19853  14.003   6.332  11.945 -0.1185 -0.0707  0.0114
 9750PP      PP19854  14.440  10.689   9.043  0.2037  0.1652  0.0989
 9751PP      PP19855   9.809   7.360   3.519  0.2339  0.2934 -0.1902
 9752PP      PP19856   0.267   9.681   0.636  0.0689 -0.1132 -0.2259
 9753PP      PP19857   7.500  14.993   2.574 -0.2082  0.4134  0.5156
 9754PP      PP19858   2.727   8.723   9.828  0.1325 -0.4723  0.1799
 9755PP      PP19859  12.102  14.109   3.132 -0.0015 -0.5378  0.0933
 9756PP      PP19860  11.468   5.494  10.135  0.1889  0.1137  0.2254
 9757PP      PP19861   5.246   6.844   4.157 -0.0563  0.1820 -0.2154
 9758PP      PP19862  15.034  13.361  11.843  0.0846 -0.0528 -0.1152
 9759PP      PP19863   6.482   4.243   2.760 -0.0515  0.0185  0.1786
 9760PP      PP19864  12.153  11.153  13.082  0.0667 -0.1732 -0.0878
 9761PP      PP19865   3.273   8.260   8.837  0.1814 -0.0201 -0.1203
 9762PP      PP19866   3.431   0.252  12.181 -0.1732  0.0306 -0.0734
 9763PP      PP19867   5.270   6.455   1.966 -0.1308  0.1654 -0.0399
 9764PP      PP19868   4.064   7.874   3.141  0.0428  0.2445  0.1703
 9765PP      PP19869   6.773  13.313  10.796 -0.0020  0.0528 -0.1130
 9766PP      PP19870   2.093  10.817   1.190  0.2730 -0.0724  0.1822
 9767PP      PP19871  13.642   8.513   0.770 -0.0002 -0.1290 -0.2267
 9768PP      PP19872   1.561  10.590  11.106 -0.1671  0.1772 -0.3865
 9769PP      PP19873   0.485  15.395   2.557  0.2349  0.0922  0.3106
 9770PP      PP19874   6.409   7.395  12.120  0.0169 -0.0685  0.0751
 9771PP      PP19875   0.073   5.510   0.725  0.1036  0.0958 -0.1747
 9772PP      PP19876  12.401   2.178   2.322 -0.2460 -0.0514  0.2775
 9773PP      PP19877  15.284   8.010  11.973  0.3134  0.0455 -0.3212
 9774PP      PP19878   6.038   0.274   0.950 -0.1529 -0.2172  0.0338
 9775PP      PP19879   2.864   5.306   2.811 -0.0337 -0.0273 -0.2727
 9776PP      PP19880  14.742  15.108  12.780  0.0647  0.1527 -0.0724
 9777PP      PP19881   2.176   4.401   9.349  0.1704  0.4339 -0.1302
 9778PP      PP19882   2.122   2.092   9.941  0.0259  0.0626  0.0744
 9779PP      PP19883  13.134   8.492  13.350  0.0264 -0.0890  0.0120
 9780PP      PP19884   1.425   9.491   8.653  0.1207  0.1202 -0.1077
 9781PP      PP19885   9.303  12.461  12.002 -0.1300  0.0236 -0.0146
 9782PP      PP19886   3.958   4.499  10.071 -0.1157  0.1080  0.0897
 9783PP      PP19887  15.375   3.437   1.123 -0.0741 -0.0714 -0.0031
 9784PP      PP19888   8.301   2.739  10.393 -0.2641  0.0262  0.0633
 9785PP      PP19889   5.986   0.011  12.317  0.2712  0.0736 -0.1052
 9786PP      PP19890  12.522   3.819  11.947 -0.1756 -0.0932  0.0485
 9787PP      PP19891   9.272  14.471  10.403 -0.0800  0.0052 -0.4137
 9788PP      PP19892  15.043   6.924  10.790  0.0791  0.0203  0.1521
 9789PP      PP19893   9.934   5.918  11.669 -0.0166  0.0721  0.2397
 9790PP      PP19894  10.229  11.857   0.011  0.0257  0.1284 -0.1912
 9791PP      PP19895  14.655  11.494  10.371  0.4255 -0.0501 -0.3709
 9792PP      PP19896   4.413   0.153   0.566 -0.0893  0.0721 -0.1938
 9793PP      PP19897  12.248   4.778  11.449 -0.3047  0.2063 -0.0726
 9794PP      PP19898  11.166   6.952  12.702  0.2847 -0.1935 -0.0225
 9795PP      PP19899   5.287   9.540  11.569 -0.0191  0.0172 -0.0330
 9796PP      PP19900   3.250  14.469   9.348 -0.2011  0.0848 -0.2096
 9797PP      PP19901  11.184  12.686   9.112 -0.1015  0.1181  0.3869
 9798PP      PP19902  10.655   1.400  11.206 -0.1162 -0.1172  0.1983
 9799PP      PP19903  13.922  15.503   1.750  0.0840  0.1347  0.0456
 9800PP      PP19904   6.361   1.639  11.045  0.0471 -0.0147 -0.2024
 9801PP      PP19905  15.659  14.561  10.508  0.4171  0.0523 -0.0141
 9802PP      PP19906   5.554  10.423  11.435 -0.2181 -0.1129  0.0044
 9803PP      PP19907   5.105   2.159   9.467  0.3457 -0.0000 -0.0534
 9804PP      PP19908  14.826   0.266   3.892  0.1695  0.0500  0.0088
 9805PP      PP19909   8.298   5.676  10.131 -0.1668 -0.0496 -0.0570
 9806PP      PP19910   8.397   0.019  10.059 -0.0408  0.1768 -0.0600
 9807PP      PP19911   3.868   9.397  10.239 -0.0023 -0.1552  0.0145
 9808PP      PP19912   0.558  11.677   8.974 -0.1239  0.2416  0.3237
 9809PP      PP19913  11.517   6.449   3.697  0.0481 -0.0398 -0.0646
 9810PP      PP19914  11.714  13.457   4.178 -0.0658  0.3109  0.2942
 9811PP      PP19915   0.631   4.184   0.059  0.0061  0.1413 -0.1490
 9812PP      PP19916   9.348   7.283   2.662 -0.1483  0.2575 -0.1330
 9813PP      PP19917   9.337   7.346   0.214 -0.0403 -0.0258  0.1231
 9814PP      PP19918   6.327  14.680  10.647  0.1791  0.1867 -0.1013
 9815PP      PP19919   2.467  10.001  10.208  0.0825  0.0977 -0.1797
 9816PP      PP19920  15.641   8.477  12.381 -0.0352 -0.0209 -0.0929
 9817PP      PP19921   3.671  14.751  11.887  0.1745 -0.2065 -0.2105
 9818PP      PP19922   3.592  12.752  11.589  0.0198  0.3337 -0.1977
 9819PP      PP19923   1.652   0.018   4.315  0.3007 -0.1569  0.0646
 9820PP      PP19924  10.043   1.617  13.283  0.0527  0.1699 -0.5005
 9821PP      PP19925  10.479   4.830   0.279 -0.4529  0.2087 -0.4371
 9822PP      PP19926   8.204   1.149   5.039 -0.2279  0.0769 -0.1941
 9823PP      PP19927  13.326   5.878   1.043  0.1682  0.4862  0.0603
 9824PP      PP19928   3.962  10.536  11.825 -0.2861  0.1971 -0.2260
 9825PP      PP19929   7.491   7.566   2.385 -0.1554 -0.0052 -0.1967
 9826PP      PP19930  11.045   7.610   9.097 -0.3958  0.1684 -0.0812
 9827PP      PP19931   4.869  12.499  11.711  0.4810 -0.0884  0.2021
 9828PP      PP19932  13.862   4.558  13.250  0.1148  0.0854  0.1802
 9829PP      PP19933  14.634   7.350   4.268  0.1871 -0.1774 -0.3728
 9830PP      PP19934   7.129   4.878   9.855  0.1146 -0.0103 -0.1510
 9831PP      PP19935   9.755  10.007   2.832 -0.0061  0.3138 -0.0283
 9832PP      PP19936   7.533   5.953   9.393  0.1419  0.2263  0.1390
 9833PP      PP19937  10.570   1.443   9.725  0.1034 -0.0516 -0.1610
 9834PP      PP19938   9.588   9.762   0.432 -0.3369  0.1162 -0.3987
 9835PP      PP19939   2.578   8.986  11.414 -0.0627 -0.0712  0.1916
 9836PP      PP19940  11.280   5.760  11.287  0.1997 -0.0849  0.1622
 9837PP      PP19941   5.732  13.476  11.038 -0.0815  0.1123  0.3997
 9838PP      PP19942  12.274  13.656  10.451 -0.3937  0.1075  0.0729
 9839PP      PP19943   7.529   2.855   1.184  0.3049 -0.2057 -0.0020
 9840PP      PP19944  14.122  10.470  10.897  0.1043 -0.2045  0.0934
 9841PP      PP19945  10.747   1.644  13.227  0.1711  0.1187  0.0061
 9842PP      PP19946   2.529   3.593   3.244 -0.3906 -0.2163  0.1342
 9843PP      PP19947  12.124  12.769   9.475 -0.0331  0.1539 -0.1703
 9844PP      PP19948  12.391   9.387   1.026 -0.1665  0.0922  0.0144
 9845PP      PP19949   7.197  12.371  10.438  0.1535  0.1509 -0.1083
 9846PP      PP19950   6.221   3.947   3.185  0.0692  0.1360  0.2488
 9847PP      PP19951   0.346   7.347   0.647 -0.1279 -0.1913  0.1733
 9848PP      PP19952  15.274   6.775   8.681  0.2419 -0.3051 -0.1229
 9849PP      PP19953   1.950   4.868   9.167  0.0108 -0.1394  0.0240
 9850PP      PP19954  15.465  11.845   3.949  0.0823  0.0902 -0.2572
 9851PP      PP19955  15.323  15.761   2.119 -0.0825  0.1285 -0.1710
 9852PP      PP19956  13.620  12.601   0.007 -0.0453  0.0603  0.2797
 9853PP      PP19957   3.127  10.366   2.368  0.0007  0.0507  0.2213
 9854PP      PP19958   9.902   5.138   2.732  0.1719 -0.2099 -0.3691
 9855PP      PP19959   1.863  13.266  10.717 -0.0570  0.1035 -0.0976
 9856PP      PP19960   9.252  11.911   3.258 -0.4197  0.0792  0.1888
 9857PP      PP19961   3.583  15.323  13.465 -0.0800  0.2141 -0.1124
 9858PP      PP19962   7.233   7.905   2.098 -0.0583 -0.0720 -0.2549
 9859PP      PP19963  11.465   1.681   0.576  0.2601 -0.1275  0.0100
 9860PP      PP19964   7.878  12.110  12.964  0.3501 -0.1152 -0.3785
 9861PP      PP19965  15.160   9.331   0.819  0.1964 -0.1204 -0.0683
 9862PP      PP19966  14.979   9.084   3.583 -0.1096  0.1124  0.3361
 9863PP      PP19967  11.196   1.968   1.640 -0.0194  0.1773 -0.2963
 9864PP      PP19968  15.190  15.708   5.049  0.0817  0.1745 -0.1821
 9865PP      PP19969   0.896   6.739   9.140  0.2698  0.2989 -0.1518
 9866PP      PP19970   3.559   0.975   4.299  0.0160 -0.2287  0.3504
 9867PP      PP19971   1.874  12.427   2.852  0.2558 -0.0601  0.0399
 9868PP      PP19972  11.442  15.439   9.021  0.1632  0.0542 -0.1029
 9869PP      PP19973   1.370   1.958  11.457  0.2014  0.1525 -0.0209
 9870PP      PP19974  11.297  11.068   4.484  0.1588 -0.0723 -0.1705
 9871PP      PP19975   6.165  12.760  13.417 -0.0102  0.0283  0.0688
 9872PP      PP19976  12.184   8.140   8.928 -0.1088 -0.0220  0.0380
 9873PP      PP19977  13.366   9.872   3.414  0.2183 -0.0477 -0.0374
 9874PP      PP19978  12.575  10.502   9.131 -0.0571  0.0183 -0.1563
 9875PP      PP19979  13.572  11.531   9.701  0.0189 -0.0210  0.1090
 9876PP      PP19980   7.727   3.868   0.448 -0.2162  0.4007  0.0740
 9877PP      PP19981  14.093   5.348   2.541 -0.1669 -0.0243 -0.2467
 9878PP      PP19982   1.817   4.519   3.080 -0.0036  0.2028  0.3257
 9879PP      PP19983  14.010  10.842   9.302  0.1426  0.0660  0.0502
 9880PP      PP19984   3.759  14.635  10.755  0.0783 -0.0915  0.0930
 9881PP      PP19985   1.250   5.964   3.280 -0.2057 -0.2579  0.3456
 9882PP      PP19986  14.685  11.950  10.516  0.1512  0.2516  0.2486
 9883PP      PP19987   0.132   7.113  12.049  0.1055 -0.2864  0.1320
 9884PP      PP19988   8.588   3.797   2.712 -0.0908 -0.0074 -0.0023
 9885PP      PP19989  12.773   5.454   9.587 -0.1748 -0.0308  0.4713
 9886PP      PP19990   0.783  10.153   3.177 -0.0680  0.0191  0.1810
 9887PP      PP19991   3.486  15.748   3.462  0.0748  0.1027  0.2140
 9888PP      PP19992   3.696   0.133   3.843  0.0009 -0.0737 -0.2490
 9889PP      PP19993  15.275  15.820   1.572  0.0267  0.0353  0.0561
 9890PP      PP19994  15.800  13.028  11.588 -0.1584  0.2993 -0.1129
 9891PP      PP19995   5.122   8.861   0.377 -0.1318  0.3012 -0.2969
 9892PP      PP19996  14.632   2.719  10.142 -0.1569 -0.2444  0.0846
 9893PP      PP19997  14.811   2.138   1.420  0.0228  0.0067  0.2053
 9894PP      PP19998  13.163  14.990   0.068  0.1964  0.1851  0.0560
 9895PP      PP19999   7.941  11.578   2.325 -0.1683 -0.1399  0.0181
 9896PP      PP20000  12.288   2.367   3.602 -0.2001 -0.0628  0.1430
 9897PP      PP20001  12.669  14.659  13.285 -0.0978 -0.2531  0.1627
 9898PP      PP20002  14.173  14.446   4.264 -0.1672  0.1229  0.1214
 9899PP      PP20003   2.942   2.733   4.421  0.0580  0.1145 -0.0128
 9900PP      PP20004   0.369  10.375   3.459 -0.0164 -0.1405 -0.0309
 9901PP      PP20005  13.806  10.308   3.268 -0.2650 -0.3239 -0.0941
 9902PP      PP20006  12.095   6.497  12.668 -0.3557  0.1766 -0.0518
 9903PP      PP20007  11.242   1.767  13.177  0.1515  0.1357 -0.1941
 9904PP      PP20008   0.874  10.611  11.336  0.1416 -0.2412 -0.3665
 9905PP      PP20009  10.213   6.680   9.560  0.0178  0.1868 -0.3027
 9906PP      PP20010   7.966   4.044   1.504 -0.0640 -0.2209  0.3373
 9907PP      PP20011  11.113   5.321   4.321 -0.3212  0.1267 -0.0121
 9908PP      PP20012   2.273  10.244  12.932 -0.0874  0.0236  0.0847
 9909PP      PP20013  12.115  14.554  12.645  0.2483  0.1613 -0.1066
 9910PP      PP20014   5.402   1.135   2.388  0.0681  0.0204  0.5677
 9911PP      PP20015  14.675   9.432   3.714 -0.2855 -0.1818 -0.0536
 9912PP      PP20016   2.313  12.186  12.226 -0.0371 -0.0242  0.0891
 9913PP      PP20017   2.133   5.533  11.274  0.0013  0.1034  0.0535
 9914PP      PP20018   8.153  14.842   1.961 -0.0385 -0.0534 -0.1500
 9915PP      PP20019  10.563   0.604  10.110 -0.0061 -0.2141  0.2746
 9916PP      PP20020   4.338  15.171  11.311  0.4038 -0.0476  0.3184
 9917PP      PP20021  14.284   8.389   1.733 -0.2030  0.1854 -0.0204
 9918PP      PP20022   6.965   5.904   0.250 -0.0017 -0.1369 -0.0766
 9919PP      PP20023   9.846  11.253  12.912  0.1147  0.3701  0.1549
 9920PP      PP20024  15.376   7.948  10.747  0.2585  0.0591  0.0985
 9921PP      PP20025   1.422  12.518   1.322 -0.1423 -0.1854  0.2238
 9922PP      PP20026  12.109   8.057  10.496  0.1670 -0.0479  0.1761
 9923PP      PP20027   3.367   8.398   2.795  0.4444  0.1156  0.0944
 9924PP      PP20028   0.972  11.477   8.744 -0.1514 -0.1103  0.2352
 9925PP      PP20029   0.316  10.993   2.655  0.1177  0.0669  0.0594
 9926PP      PP20030   9.233  11.413   3.259 -0.1867  0.1810 -0.0741
 9927PP      PP20031   5.728   1.854   4.350  0.0506  0.3578  0.0995
 9928PP      PP20032   8.539   7.700   2.151 -0.1015 -0.2003 -0.0028
 9929PP      PP20033  12.201   0.452   1.690 -0.0377  0.0205  0.0749
 9930PP      PP20034   9.944   5.090  10.852 -0.0654  0.1825  0.0685
 9931PP      PP20035   9.743  13.747  11.216 -0.1183 -0.2809  0.2700
 9932PP      PP20036   9.342   1.931  13.245  0.0117  0.1049  0.0090
 9933PP      PP20037   2.851  12.933   2.978 -0.0503 -0.2017 -0.0194
 9934PP      PP20038   9.949   6.118   9.944 -0.0954  0.4352  0.1240
 9935PP      PP20039  15.288  14.811   1.600  0.0193 -0.1617  0.0549
 9936PP      PP20040  10.795   7.987   8.808 -0.2251  0.1048  0.0087
 9937PP      PP20041   2.985   6.704   2.658 -0.1111 -0.0451 -0.0810
 9938PP      PP20042  10.593   4.946  12.314 -0.0508 -0.3729 -0.1777
 9939PP      PP20043  12.802   3.208   1.855 -0.2411 -0.0431  0.4206
 9940PP      PP20044   1.000  15.156  11.580 -0.2286  0.1182 -0.1364
 9941PP      PP20045   0.004   0.531   2.439 -0.1982 -0.2775  0.1772
 9942PP      PP20046  15.844  10.501  10.292  0.0564 -0.2639  0.1946
 9943PP      PP20047   6.541   0.178  12.370  0.0505  0.3100 -0.0090
 9944PP      PP20048  10.408  10.388   1.762  0.0034  0.2085  0.0735
 9945PP      PP20049  14.437  11.231   3.380 -0.0314  0.2132  0.0224
 9946PP      PP20050  13.244   9.127   2.995  0.1618  0.2445 -0.0202
 9947PP      PP20051   7.991   4.676   1.475  0.1094  0.1357 -0.2083
 9948PP      PP20052  10.661  14.081  12.909  0.1645  0.3016  0.1888
 9949PP      PP20053   4.850   1.170   2.207  0.0762  0.1650  0.0778
 9950PP      PP20054   3.740   1.729  11.372  0.2400 -0.1356 -0.0135
 9951PP      PP20055   7.865  14.256  11.556  0.2870  0.0342  0.2066
 9952PP      PP20056  12.423   0.955  13.260  0.2157  0.0001 -0.2872
 9953PP      PP20057   9.688   6.417   9.603  0.1333 -0.0428 -0.1794
 9954PP      PP20058   7.809   9.977   2.183 -0.4833 -0.2963 -0.3210
 9955PP      PP20059  14.350   9.013   1.447 -0.1292 -0.1174  0.0956
 9956PP      PP20060  14.768   6.723   3.424 -0.2376 -0.1214  0.2831
 9957PP      PP20061   3.987   4.872   2.023  0.2589 -0.2863  0.2051
 9958PP      PP20062   7.336  11.197   1.793 -0.2087 -0.0441 -0.1571
 9959PP      PP20063   4.375   9.966  12.527 -0.2948  0.2203 -0.2015
 9960PP      PP20064   8.887   9.311   3.358  0.0799  0.0884  0.0153
 9961PP      PP20065  13.251   4.232  11.873  0.2692 -0.1491 -0.1630
 9962PP      PP20066  11.766   6.267  13.102  0.2625  0.0504  0.2089
 9963PP      PP20067   0.538   3.318   2.621  0.0636 -0.2396  0.0339
 9964PP      PP20068   8.182   6.983   9.493 -0.1319  0.1221 -0.1299
 9965PP      PP20069   4.978   9.847   2.478  0.0444 -0.2187  0.0878
 9966PP      PP20070   9.919  14.892   3.032 -0.0584 -0.0787 -0.0151
 9967PP      PP20071   3.861  14.460   3.116 -0.3720 -0.0180  0.2140
 9968PP      PP20072  14.595   5.557   1.001  0.4567  0.0174  0.2285
 9969PP      PP20073   8.439   1.207  11.803  0.2698  0.3960 -0.2253
 9970PP      PP20074  10.214  12.055   9.228 -0.0485 -0.3032 -0.0975
 9971PP      PP20075   6.357  15.670   3.942  0.0497  0.1658  0.4506
 9972PP      PP20076   4.587   0.932   9.122 -0.2057 -0.0795 -0.1985
 9973PP      PP20077  15.131  11.927  12.288  0.0170  0.0598 -0.0981
 9974PP      PP20078   2.208  11.178  11.620  0.0385  0.0404 -0.2332
 9975PP      PP20079   0.953  12.353   9.845  0.0274 -0.3114 -0.0237
 9976PP      PP20080  15.544   1.059   1.748 -0.0129 -0.0580  0.1842
 9977PP      PP20081  14.865   3.718  10.026 -0.1082  0.0061  0.0922
 9978PP      PP20082  15.521   9.129  13.447  0.1619 -0.3776 -0.4445
 9979PP      PP20083  15.781   8.810   9.533 -0.0323 -0.0806 -0.1394
 9980PP      PP20084   1.007   7.658   1.762 -0.0994 -0.2052 -0.1417
 9981PP      PP20085  14.470   4.196   2.618  0.0132  0.0339 -0.0582
 9982PP      PP20086  10.072   2.896   2.020  0.2369 -0.1150  0.1329
 9983PP      PP20087   2.951  10.880  10.491 -0.0515 -0.2559 -0.0177
 9984PP      PP20088   6.589  14.168   3.840  0.0608  0.0343  0.0124
 9985PP      PP20089   9.777  14.826   9.792  0.0207 -0.4525 -0.0781
 9986PP      PP20090   5.678   1.152  10.394  0.0934  0.0356 -0.1092
 9987PP      PP20091   6.967  12.436   1.634 -0.1512  0.2036  0.0406
 9988PP      PP20092  12.862   5.665   9.118 -0.2885  0.4923  0.1884
 9989PP      PP20093   8.755   3.986  12.499  0.3761  0.0403 -0.2379
 9990PP      PP20094   0.356   8.473   3.653  0.3152  0.0254  0.0284
 9991PP      PP20095   5.994   4.063   2.222 -0.4059 -0.1868  0.1957
 9992PP      PP20096  13.259   3.539  12.901  0.0402 -0.1690  0.0787
 9993PP      PP20097  13.514  12.113   2.572 -0.2586 -0.0135  0.0350
 9994PP      PP20098   4.605   0.737  10.649  0.3509 -0.1260  0.1730
 9995PP      PP20099   9.558   6.024   0.721 -0.1627  0.0334  0.1278
 9996PP      PP20100   6.895   5.663   9.500 -0.0248  0.1603  0.1330
 9997PP      PP20101  11.100  14.277  10.171  0.0694  0.3022 -0.0815
 9998PP      PP20102   9.121   5.659   2.661 -0.3362 -0.0065 -0.1680
 9999PP      PP20103   7.714   8.600   3.780 -0.1337 -0.2344 -0.2502
10000PP      PP20104   9.371  13.120  10.303 -0.0457 -0.0047 -0.0604
10001PP      PP20105   9.652   2.056   3.454 -0.2831  0.0989  0.2733
10002PP      PP20106   4.386  13.995  10.769  0.1313 -0.0049 -0.1234
10003PP      PP20107   4.516  14.614   7.849 -0.1656  0.2899  0.1684
10004PP      PP20108   2.120  14.659   4.072 -0.2682 -0.1372  0.1880
10005PP      PP20109   0.130   6.651   9.222 -0.0953 -0.3346  0.0953
10006PP      PP20110   6.212  12.939   5.052 -0.1356 -0.1030  0.2332
10007PP      PP20111   8.159   5.196  11.860  0.0061  0.0003 -0.1996
10008PP      PP20112   7.278  13.944   2.650  0.2676 -0.3494 -0.0434
10009PP      PP20113   0.904   0.669   9.543  0.3169 -0.0545  0.0098
10010PP      PP20114   1.068   3.417  12.365  0.1122 -0.0741 -0.0116
10011PP      PP20115   9.424   9.377  10.255  0.1802 -0.0223  0.1463
10012PP      PP20116   9.168   9.121   0.913 -0.0296 -0.0639 -0.0359
10013PP      PP20117  14.036  12.053   9.603 -0.2836 -0.2079  0.2080
10014PP      PP20118  12.948  14.439   0.708  0.2478 -0.1740 -0.0991
10015PP      PP20119  13.614  14.884  10.681  0.0881 -0.1884 -0.2650
10016PP      PP20120  13.929  13.912   2.044  0.0012  0.3931 -0.2195
10017PP      PP20121  10.753  10.879   2.563 -0.4360  0.1131 -0.2187
10018PP      PP20122   1.180   7.672   2.215 -0.0798  0.1027 -0.0621
10019PP      PP20123   8.757   5.651  12.484  0.0950  0.0762 -0.4009
10020PP      PP20124  10.300   2.913   5.450 -0.3980  0.2344  0.0902
10021PP      PP20125   5.205   0.873   4.841 -0.1520  0.1104  0.0424
10022PP      PP20126   4.879   8.013  10.253 -0.1528 -0.0643 -0.0075
10023PP      PP20127  10.888  14.197   0.601 -0.1978  0.0467 -0.0698
10024PP      PP20128   6.131  13.628  12.692  0.0126 -0.2887 -0.2547
10025PP      PP20129   0.741   4.712   2.812  0.0072  0.0630  0.0389
10026PP      PP20130  13.070  14.814   1.046  0.0312  0.2944 -0.0259
10027PP      PP20131   6.182   0.594  11.102 -0.0981  0.2601  0.2327
10028PP      PP20132   0.370   4.406   0.450 -0.1070  0.1007  0.1612
10029PP      PP20133  13.145  11.370   9.395 -0.1143  0.1749  0.3073
10030PP      PP20134  10.370   6.235  11.426 -0.2947  0.0569 -0.2305
10031PP      PP20135   0.003   3.662   0.680  0.3189  0.1252 -0.1638
10032PP      PP20136  11.297  14.401  11.660  0.2213  0.0190  0.0785
10033PP      PP20137   6.526   6.864   0.998  0.2389  0.2184  0.0773
10034PP      PP20138  14.547  13.124   3.036  0.3790  0.0071  0.1114
10035PP      PP20139   2.388  13.472   0.913  0.2257  0.0129  0.1313
10036PP      PP20140   2.216   9.209  12.758 -0.1562 -0.0008 -0.1559
10037PP      PP20141   4.611  11.609   4.775 -0.0033  0.1007 -0.0344
10038PP      PP20142   6.835  11.996   3.001  0.0184 -0.1085 -0.1898
10039PP      PP20143   3.376   7.317  12.342 -0.2083 -0.1205 -0.0209
10040PP      PP20144  11.560   7.071  12.426  0.1783 -0.2037  0.2202
10041PP      PP20145  14.295   0.509   1.086 -0.0444 -0.0381 -0.3193
10042PP      PP20146   9.364   4.458  13.293 -0.0337 -0.1745  0.0916
10043PP      PP20147   5.627   9.977  10.551 -0.0518  0.1365  0.1293
10044PP      PP20148  15.419  10.341  12.575  0.0267  0.1863 -0.4027
10045PP      PP20149   7.837   9.116   8.221  0.0860 -0.1647 -0.2638
10046PP      PP20150   6.980   1.436   0.292  0.2185 -0.0124 -0.1625
10047PP      PP20151  10.532   7.181   9.137  0.1435  0.1560 -0.1199
10048PP      PP20152  10.895  11.246   4.290  0.2900 -0.1552 -0.0523
10049PP      PP20153   5.537   5.046   1.203  0.0752 -0.0790 -0.1194
10050PP      PP20154  11.943   4.268  10.772  0.1302  0.3560  0.3192
10051PP      PP20155  11.433   5.153   8.820  0.1120  0.1006 -0.0148
10052PP      PP20156  13.678   4.324   4.638  0.1568 -0.0819 -0.2636
10053PP      PP20157  11.358  13.273  12.010 -0.1812  0.0104  0.0782
10054PP      PP20158   5.188   4.426   1.791 -0.1200  0.0473  0.2185
10055PP      PP20159   4.211   7.497  12.335  0.2257  0.0554 -0.1288
10056PP      PP20160   6.584   1.778   4.858 -0.1074 -0.0289 -0.0762
10057PP      PP20161  14.079  11.792   9.136  0.0367  0.1804  0.0278
10058PP      PP20162   5.098  10.865   4.396 -0.1040  0.1245 -0.1301
10059PP      PP20163   1.669   0.606   1.074  0.0918 -0.1873  0.0467
10060PP      PP20164  15.124  12.119   3.572 -0.0561  0.3201  0.0897
10061PP      PP20165  15.264   1.432   8.470  0.2472 -0.0004  0.0719
10062PP      PP20166   9.790   2.915  11.025  0.0550  0.0483 -0.3534
10063PP      PP20167  15.030  10.695   9.501  0.2885  0.0470  0.0317
10064PP      PP20168   1.906   3.933   2.472 -0.2470 -0.2835 -0.0478
10065PP      PP20169   4.526  12.724  11.408 -0.0783 -0.2819 -0.0211
10066PP      PP20170   2.477  11.451   3.198 -0.1425 -0.0248 -0.1855
10067PP      PP20171   7.268  15.220   3.147  0.0045 -0.3351  0.2764
10068PP      PP20172   1.520  10.191  10.053  0.0145 -0.1433 -0.0486
10069PP      PP20173  14.270   9.164   0.137  0.0272 -0.0446 -0.0404
10070PP      PP20174  14.273   2.095  12.785 -0.0328 -0.1507 -0.0362
10071PP      PP20175   2.056   0.634   2.608  0.1335 -0.2309 -0.0326
10072PP      PP20176  11.765   7.666  10.796  0.2303  0.0476  0.1542
10073PP      PP20177  13.704   2.304   1.332  0.3841  0.1962 -0.0815
10074PP      PP20178   3.950  13.562   1.374 -0.1628  0.0230 -0.3042
10075PP      PP20179   1.530   1.037   8.966  0.1942  0.1615  0.0467
10076PP      PP20180  13.196  12.551   0.345 -0.0103 -0.0899  0.0675
10077PP      PP20181   8.531   1.455   3.241  0.1772  0.1912  0.3208
10078PP      PP20182   6.972   9.739  11.363  0.0905 -0.3431  0.0346
10079PP      PP20183   2.783   8.222  11.199 -0.2398  0.0504  0.4786
10080PP      PP20184   1.873   1.185   3.544 -0.1027  0.1871 -0.3833
10081PP      PP20185   5.024  11.649  12.094 -0.0132  0.1375  0.3765
10082PP      PP20186   7.614   2.650  11.853  0.5608  0.3986 -0.0319
10083PP      PP20187   4.008  12.138  12.795 -0.2853  0.0341  0.1218
10084PP      PP20188  14.380  11.689  10.862 -0.1830  0.0109 -0.1110
10085PP      PP20189  15.480   6.002   9.706 -0.0043  0.2926  0.1243
10086PP      PP20190   8.466  15.709  10.570  0.0353 -0.1279 -0.2249
10087PP      PP20191   4.434   9.646   4.207  0.0948  0.2783  0.1694
10088PP      PP20192   3.737   2.497   0.046  0.0696  0.0290 -0.4098
10089PP      PP20193  13.308   2.972   9.963 -0.0278 -0.2898 -0.2757
10090PP      PP20194  11.330   6.436   9.833  0.0284 -0.0783 -0.1028
10091PP      PP20195   9.178   8.039   1.023  0.2535 -0.1065 -0.1640
10092PP      PP20196   1.643   3.484   1.653 -0.1456 -0.3805 -0.0542
10093PP      PP20197   5.213   9.827   9.939 -0.0063 -0.1478  0.0146
10094PP      PP20198   0.433  13.909   3.825  0.1029 -0.0587 -0.1923
10095PP      PP20199   5.824   1.602   2.311  0.0851 -0.0268  0.3029
10096PP      PP20200   7.501   6.720  12.515  0.1209  0.2741  0.2436
10097PP      PP20201  11.849  15.678   5.249 -0.0773  0.0855 -0.0488
10098PP      PP20202   0.843   2.136  12.139 -0.0314  0.4784  0.0374
10099PP      PP20203   8.105   7.502   8.696  0.3245 -0.2018 -0.0839
10100PP      PP20204   8.137  10.376   2.140 -0.1465 -0.0285 -0.0582
10101PP      PP20205   4.757  12.579   2.013  0.0051 -0.0973  0.1780
10102PP      PP20206  11.908   6.772   9.637 -0.0139  0.0331  0.0209
10103PP      PP20207  13.231  14.365   4.678  0.0543 -0.0325 -0.3769
10104PP      PP20208   9.507  15.794   3.516 -0.1622  0.0838  0.0881
10105PP      PP20209  13.785   2.944   4.204  0.1462 -0.3206  0.0803
10106PP      PP20210  10.585   2.608  12.947  0.1972 -0.0649  0.1315
10107PP      PP20211   2.684   3.049  11.572 -0.3111  0.1958 -0.1231
10108PP      PP20212   8.781  14.501  13.438 -0.2167  0.2885 -0.1180
10109PP      PP20213  11.730   7.483  11.256 -0.1273  0.1255  0.2443
10110PP      PP20214   7.893   7.944  13.351 -0.0284  0.1902 -0.0476
10111PP      PP20215  15.638   7.887  12.602 -0.0210 -0.0529 -0.2297
10112PP      PP20216   5.160  15.307   2.682  0.3563 -0.1397 -0.1224
10113PP      PP20217   9.360   9.085   0.000  0.0192  0.0004  0.0332
10114PP      PP20218  10.784   8.784  12.846 -0.0622  0.1108 -0.1068
10115PP      PP20219   8.099  15.424   9.492 -0.0002  0.0334 -0.2350
10116PP      PP20220  12.749   6.187   2.129  0.0645 -0.2469 -0.1897
10117PP      PP20221  12.949   3.797  12.368 -0.0094  0.3308 -0.1677
10118PP      PP20222   7.253  12.423   0.511 -0.0448 -0.0841  0.2396
10119PP      PP20223  15.564   3.078  10.101 -0.3248 -0.1058 -0.1902
10120PP      PP20224  13.675   6.870  11.365  0.2831 -0.3266 -0.1652
10121PP      PP20225  14.009   2.099   1.698 -0.0602  0.1124  0.0801
10122PP      PP20226  14.516   4.146   2.068  0.0562  0.1271 -0.0788
10123PP      PP20227   7.479   4.509  12.873  0.0550  0.1609 -0.0767
10124PP      PP20228   7.213  11.907  11.778  0.1793 -0.0700 -0.1668
10125PP      PP20229  10.502   6.438   3.372  0.1410  0.1487  0.0657
10126PP      PP20230   5.629   1.015  12.298 -0.3214 -0.1441 -0.0047
10127PP      PP20231   0.978   5.497   9.593  0.3319  0.0855 -0.1042
10128PP      PP20232  13.126  15.107  11.520  0.1990 -0.0060  0.1341
10129PP      PP20233   6.937   8.656   8.807 -0.4030 -0.2993 -0.3003
10130PP      PP20234   8.314   3.990  12.818  0.2801 -0.0569 -0.2529
10131PP      PP20235   2.157   5.643  10.200  0.0722 -0.0883 -0.0513
10132PP      PP20236  10.484  15.541   0.725  0.0061  0.1272 -0.2686
10133PP      PP20237   5.674  14.549   0.021  0.0531 -0.0848 -0.2763
10134PP      PP20238  12.423  15.158  11.573 -0.1850  0.1789  0.1653
10135PP      PP20239   1.830   4.593   0.924 -0.1886 -0.0265 -0.3383
10136PP      PP20240   1.577   1.188   1.343  0.1110  0.1113 -0.0410
10137PP      PP20241   5.178   3.035   0.986  0.3242  0.3122  0.1892
10138PP      PP20242   9.587  12.988  12.901  0.0120 -0.4084  0.2010
10139PP      PP20243   6.936   7.647  10.792  0.0143 -0.2495  0.1975
10140PP      PP20244  12.280  10.904   9.123 -0.0429 -0.0862  0.2384
10141PP      PP20245   3.335   3.004   5.255 -0.3444  0.1439 -0.1890
10142PP      PP20246   2.359   3.643  10.098 -0.1020 -0.1410 -0.1492
10143PP      PP20247  12.121   7.373   4.628  0.0138  0.0531  0.0695
10144PP      PP20248   6.008  13.817  13.132 -0.0911 -0.2241 -0.2065
10145PP      PP20249   8.715   9.300   9.080  0.3653 -0.1240  0.3729
10146PP      PP20250  10.764  15.628  10.263  0.0862  0.1331 -0.0648
10147PP      PP20251   4.046  10.975   3.203  0.3699  0.2162  0.1361
10148PP      PP20252   6.796  12.017   9.355  0.3848 -0.2192 -0.0830
10149PP      PP20253   8.756   8.243   9.062  0.1315 -0.1005 -0.0381
10150PP      PP20254  15.593   8.935   9.056 -0.2297 -0.3431  0.1058
10151PP      PP20255   2.194   7.383  10.232  0.0682  0.3301 -0.1474
10152PP      PP20256   0.987   6.200   1.562 -0.2402  0.0587 -0.1148
10153PP      PP20257  13.943   8.531   9.783  0.0552  0.4619 -0.2314
10154PP      PP20258   5.810   2.095   2.396 -0.0604  0.1618 -0.1316
10155PP      PP20259  15.322  11.147   2.794 -0.0383  0.2286  0.0205
10156PP      PP20260   1.010   2.176  10.031  0.2440  0.1186  0.1872
10157PP      PP20261  10.863  12.743   0.716 -0.2827 -0.0724 -0.2524
10158PP      PP20262   9.308  13.512  10.034  0.2709 -0.1629  0.1002
10159PP      PP20263  15.434  13.231   2.555  0.0637  0.1722 -0.2275
10160PP      PP20264  11.923   0.782  12.223 -0.1698 -0.2700  0.0761
10161PP      PP20265   8.807  14.677   5.030 -0.1617 -0.0441  0.0868
10162PP      PP20266   7.780   4.835  11.228 -0.1358  0.0995  0.1994
10163PP      PP20267   5.573   8.072  10.882 -0.1041 -0.3242 -0.0191
10164PP      PP20268  12.175   8.254   3.480  0.1128  0.0820 -0.0280
10165PP      PP20269   3.365  13.481   0.925 -0.3016 -0.2360 -0.1549
10166PP      PP20270   3.756   2.606   4.417 -0.1707  0.1168 -0.1175
10167PP      PP20271  14.925   5.065  10.607 -0.0088 -0.1799 -0.0716
10168PP      PP20272   5.028   5.047   8.272  0.1180 -0.0599  0.0639
10169PP      PP20273  11.609   8.345   3.680 -0.2295 -0.0886  0.1759
10170PP      PP20274   8.458  14.691  10.034 -0.2869 -0.0410 -0.0503
10171PP      PP20275   2.387   0.159   1.122 -0.1289 -0.1419 -0.0533
10172PP      PP20276   3.696  11.871   1.300  0.1759  0.0199  0.1083
10173PP      PP20277  15.402   8.686   8.147 -0.2340  0.1293 -0.0137
10174PP      PP20278  15.289   7.345   9.253 -0.1247 -0.0867 -0.0608
10175PP      PP20279  12.081   6.704  13.095 -0.1930  0.0275 -0.1433
10176PP      PP20280  15.108  12.614   0.145 -0.0054  0.1958  0.0448
10177PP      PP20281  11.029   8.311   2.533 -0.0300 -0.0736 -0.3162
10178PP      PP20282  12.087  15.408  11.947  0.1859 -0.1678 -0.3910
10179PP      PP20283   5.753   6.234  10.064  0.2334  0.1400  0.0728
10180PP      PP20284   0.134  11.858   3.843  0.0462 -0.0679  0.0122
10181PP      PP20285   2.621   4.156  11.044  0.0497 -0.0140  0.2216
10182PP      PP20286   4.261   2.239   1.826 -0.2897 -0.2168 -0.1853
10183PP      PP20287   4.359   2.969   9.756 -0.1642  0.2645  0.1563
10184PP      PP20288   0.354  15.160   3.947  0.0413  0.0255  0.0683
10185PP      PP20289   6.660  15.122   4.075 -0.0066  0.0058 -0.3593
10186PP      PP20290   9.727  11.299   9.398 -0.1684  0.2033  0.0240
10187PP      PP20291   4.539   0.501  13.281  0.0235 -0.0550  0.3350
10188PP      PP20292   5.407  14.112   2.768 -0.0158 -0.1727  0.0593
10189PP      PP20293   6.516  10.806   3.044  0.1201  0.1305 -0.1727
10190PP      PP20294   9.458   8.463   0.742  0.1507 -0.1291  0.0709
10191PP      PP20295   7.707   1.297   2.301  0.1812  0.2010 -0.1524
10192PP      PP20296   5.450   4.294  12.039  0.3101 -0.0309  0.1416
10193PP      PP20297   9.386   6.364  12.098  0.0368 -0.2268 -0.0417
10194PP      PP20298   3.508  13.535  11.477  0.1054  0.0585 -0.0051
10195PP      PP20299  11.724  11.168  12.865  0.1948 -0.3439 -0.3804
10196PP      PP20300  10.753  11.907   9.451 -0.0529 -0.0912 -0.0862
10197PP      PP20301  12.256   3.342   2.802 -0.1964  0.1643  0.1190
10198PP      PP20302   2.945   1.682  12.174 -0.0531 -0.0459 -0.0962
10199PP      PP20303   0.365   2.033  12.820  0.0338  0.1554 -0.2573
10200PP      PP20304   5.122   5.114  12.322 -0.0295 -0.0301 -0.0354
10201PP      PP20305  10.669  13.328   9.919 -0.0059 -0.1885 -0.1181
10202PP      PP20306   0.551  11.738   0.759 -0.0926  0.0081  0.1510
10203PP      PP20307   2.134  13.440   1.807  0.3710 -0.1409  0.0506
10204PP      PP20308  13.111  11.703  13.324 -0.1253  0.2031 -0.0267
10205PP      PP20309   3.458   4.427   3.131  0.2386 -0.1023 -0.1729
10206PP      PP20310   2.628  13.191   9.789  0.2553 -0.1029 -0.1388
10207PP      PP20311  14.550  12.471  12.935  0.0794 -0.0963  0.2583
10208PP      PP20312   0.164  13.883   0.323 -0.1499  0.1990  0.1994
10209PP      PP20313  10.042   6.242   1.503 -0.1143  0.1814 -0.1973
10210PP      PP20314   1.852   9.398   0.710  0.0369  0.1393 -0.0892
10211PP      PP20315  13.553  10.986   9.389 -0.0937 -0.1400 -0.2002
10212PP      PP20316  11.302   7.632   1.951  0.2517  0.1895  0.0481
10213PP      PP20317   7.898   7.291  10.373  0.0994  0.0196 -0.0205
10214PP      PP20318  10.449   8.431   2.566  0.1956 -0.0226  0.0764
10215PP      PP20319  15.464   1.615   3.696  0.3077  0.1059 -0.0459
10216PP      PP20320   8.511  12.779   2.707 -0.1579 -0.1122  0.3212
10217PP      PP20321  14.278   8.737   2.452  0.0902  0.2239  0.2272
10218PP      PP20322   8.635  13.852   3.545 -0.1572 -0.2291  0.1011
10219PP      PP20323  11.895   8.474   0.451 -0.1229 -0.1821 -0.1260
10220PP      PP20324  10.397   1.322  10.460 -0.0005 -0.0463 -0.0004
10221PP      PP20325   4.135  12.272   2.376  0.1735  0.0194 -0.2553
10222PP      PP20326  10.490   5.351   9.772  0.1772 -0.3750  0.1706
10223PP      PP20327   6.678  11.323  12.971  0.1276 -0.2723  0.0563
10224PP      PP20328   5.605  10.031  11.770 -0.0987  0.3181 -0.2181
10225PP      PP20329   4.070   6.060  11.852  0.2727 -0.0309 -0.2123
10226PP      PP20330  10.998   9.684   2.392  0.1503 -0.1312 -0.0169
10227PP      PP20331  15.354  13.938   3.101 -0.0172  0.0223 -0.1362
10228PP      PP20332  12.983   6.115  10.399  0.0344  0.0025  0.1284
10229PP      PP20333  12.153  15.340   0.615  0.1315 -0.1771 -0.0240
10230PP      PP20334   1.677   6.283   8.793 -0.1192 -0.1024  0.0361
10231PP      PP20335   5.890   6.815  12.004 -0.0582  0.2193  0.3545
10232PP      PP20336   1.362  14.929   4.416  0.3064  0.1564  0.4487
10233PP      PP20337  11.020   7.196   2.064 -0.2214  0.1040 -0.1433
10234PP      PP20338   5.658   8.978   9.901 -0.0133  0.1215  0.2331
10235PP      PP20339   1.742  13.413  11.199 -0.0254  0.1812 -0.0508
10236PP      PP20340  14.343  10.838  10.111  0.0433  0.0281 -0.2380
10237PP      PP20341   4.907   8.105   4.256 -0.0519 -0.2706  0.0329
10238PP      PP20342   8.346  10.251   8.897  0.1391  0.1092 -0.3943
10239PP      PP20343  14.409  11.202   4.449 -0.0434 -0.1234 -0.1361
10240PP      PP20344   3.364   4.684   2.418  0.1229 -0.3782 -0.1273
10241PP      PP20345  11.429  12.967   9.501  0.1473 -0.2269 -0.0211
10242PP      PP20346  14.166   0.089   1.914  0.2671  0.0655  0.0876
10243PP      PP20347   4.266   6.882   2.374 -0.0875  0.0858  0.0128
10244PP      PP20348   4.398   8.710   2.589 -0.2566 -0.0743  0.4211
10245PP      PP20349  13.059   3.135  13.214  0.0032 -0.2706 -0.0808
10246PP      PP20350   3.520   0.848   2.037  0.0406 -0.1963  0.1353
10247PP      PP20351   1.119  14.309   1.694 -0.0027 -0.1703  0.1386
10248PP      PP20352  13.114  14.168  10.311  0.1987  0.0915  0.0114
10249PP      PP20353   3.196  15.363   4.829  0.2871  0.0212  0.0737
10250PP      PP20354  11.558   4.845  11.856 -0.2383 -0.3521 -0.0159
10251PP      PP20355  14.628   6.657   1.809 -0.2258 -0.3016 -0.1614
10252PP      PP20356   4.799   2.680   3.052 -0.1197 -0.0221 -0.1053
10253PP      PP20357  15.345  13.055  12.470 -0.1033 -0.0452  0.0490
10254PP      PP20358   7.773   9.280  11.315  0.1683 -0.0619  0.1509
10255PP      PP20359   6.536   3.519   0.140  0.0299  0.0239  0.1469
10256PP      PP20360   6.867  12.962  11.642  0.1583 -0.0163 -0.1984
10257PP      PP20361   5.483  13.749   2.423 -0.2531 -0.0528 -0.2734
10258PP      PP20362   0.719  14.805   3.824  0.2108 -0.2862  0.1819
10259PP      PP20363   5.141   4.216   3.536  0.2048  0.0846  0.1190
10260PP      PP20364  15.316  12.355   9.010  0.1289  0.3174 -0.2558
10261PP      PP20365  14.823   7.919   0.057  0.0562 -0.2301 -0.1729
10262PP      PP20366   3.931  14.982   0.250  0.2140  0.1965  0.1120
10263PP      PP20367   7.953   1.934  12.990 -0.0536 -0.2131 -0.1360
10264PP      PP20368   1.708  10.780   3.533 -0.2043  0.2486 -0.2880
10265PP      PP20369   3.007   9.170   1.524  0.0894  0.1654  0.4676
10266PP      PP20370  15.682   0.519  12.838  0.1050 -0.0570  0.1090
10267PP      PP20371   6.599  14.125  10.964  0.1590  0.1372 -0.1300
10268PP      PP20372   8.939  10.641   8.763 -0.2076 -0.0449  0.0694
10269PP      PP20373   4.687   7.552  10.017 -0.0617 -0.2720  0.1729
10270PP      PP20374  15.667   7.495   2.528 -0.3354  0.0364 -0.1302
10271PP      PP20375   7.656   8.237  10.882 -0.0790  0.0711  0.1271
10272PP      PP20376   6.146   3.949  13.336  0.1544 -0.1499  0.1003
10273PP      PP20377   5.335   2.454   0.895  0.1275  0.1600  0.0502
10274PP      PP20378   3.268   3.444  12.092 -0.1980 -0.1158  0.0063
10275PP      PP20379   3.969  13.723   0.293 -0.4731 -0.1268 -0.2385
10276PP      PP20380  14.736  13.338   3.459 -0.1041 -0.3192 -0.2494
10277PP      PP20381  13.723  12.017   3.459 -0.1209  0.1155 -0.1964
10278PP      PP20382   6.613  11.032   0.380 -0.1672 -0.0771 -0.1456
10279PP      PP20383  13.424  13.020   0.747 -0.0795  0.1844 -0.0403
10280PP      PP20384   5.116   8.647  10.887 -0.1591 -0.2605 -0.0300
10281PP      PP20385   9.758  14.155  12.688  0.1055 -0.2166  0.0178
10282PP      PP20386   4.416  14.534   2.679 -0.2367 -0.4467  0.0930
10283PP      PP20387  11.515   1.295  13.193 -0.0518  0.0644  0.1849
10284PP      PP20388  14.291  14.197   4.934 -0.1378  0.2296 -0.1614
10285PP      PP20389   7.681   9.756   2.641 -0.2959  0.1075 -0.0890
10286PP      PP20390   2.863  11.914   1.203  0.2723 -0.1212 -0.0823
10287PP      PP20391  12.917   7.886   9.212  0.2561 -0.0071  0.2657
10288PP      PP20392  11.360  13.096  11.145  0.1239 -0.3220  0.0485
10289PP      PP20393   4.863   9.733   3.909 -0.1616  0.1028  0.0280
10290PP      PP20394  11.761   1.103   5.219  0.1335 -0.0584  0.0184
10291PP      PP20395  14.130   7.868   2.624  0.3214 -0.0320  0.0322
10292PP      PP20396   6.932   7.041   8.256 -0.0873  0.1162  0.0747
10293PP      PP20397   7.582  13.714   2.980 -0.1260 -0.2512  0.0038
10294PP      PP20398   6.907   0.632  11.607 -0.0371 -0.2957 -0.2291
10295PP      PP20399  12.396   1.880   3.344 -0.0672  0.2835 -0.2153
10296PP      PP20400   4.614  12.176   9.929  0.2483 -0.0550 -0.1203
10297PP      PP20401   4.525  14.461  10.795 -0.1775 -0.2170 -0.0141
10298PP      PP20402   5.155   6.123   1.653  0.0992  0.3868  0.2453
10299PP      PP20403   2.040   2.899  10.600 -0.1173 -0.0130 -0.0513
10300PP      PP20404  12.369  12.906   0.844 -0.1912  0.2079  0.1914
10301PP      PP20405  13.572  14.028   3.104  0.1710 -0.3179 -0.0099
10302PP      PP20406  12.893  10.905   3.256 -0.2333  0.2604 -0.1494
10303PP      PP20407   0.363  15.494   3.538 -0.1878  0.2506  0.0088
10304PP      PP20408   4.983  14.024   3.084  0.0460 -0.2940  0.2039
10305PP      PP20409   5.400  11.140  12.661 -0.0856  0.3238 -0.2336
10306PP      PP20410  11.425   7.563  11.663  0.0671 -0.1663 -0.1494
10307PP      PP20411  15.306  13.160   3.546 -0.5065  0.0434  0.0116
10308PP      PP20412   7.242  13.358   2.776  0.2052 -0.1926  0.0408
10309PP      PP20413   8.502  13.955   1.369  0.1519  0.2535 -0.1986
10310PP      PP20414   7.600   1.437  13.519  0.0440 -0.0481 -0.3288
10311PP      PP20415   8.816   6.451  10.431 -0.3878  0.0599 -0.0311
10312PP      PP20416   7.144   3.306   0.252  0.1041  0.0351 -0.0990
10313PP      PP20417   7.684   3.604   4.578 -0.0240 -0.3853  0.0046
10314PP      PP20418   2.590  14.661   9.306  0.0007  0.1742  0.1656
10315PP      PP20419  12.935   4.939   3.568  0.2299 -0.2846 -0.0537
10316PP      PP20420  14.660  11.155   0.442 -0.0282  0.1866 -0.0759
10317PP      PP20421   2.413  11.068   2.445 -0.0052  0.0348 -0.1355
10318PP      PP20422   2.941   8.468   0.176 -0.0511  0.1440  0.3841
10319PP      PP20423   3.465   2.445   8.991  0.1321 -0.1942  0.0962
10320PP      PP20424   4.462  15.162  12.377  0.0346 -0.0394 -0.3571
10321PP      PP20425  14.629   5.104  11.001 -0.2408  0.2424  0.1831
10322PP      PP20426   0.226   4.806   2.938  0.1912 -0.0864  0.0646
10323PP      PP20427   5.066   9.051   1.831 -0.1896 -0.1259 -0.0440
10324PP      PP20428   6.203   4.189  12.465 -0.1277  0.0445 -0.0561
10325PP      PP20429   9.457  12.573   2.353  0.2680 -0.0611 -0.0009
10326PP      PP20430  11.567  15.040   1.468 -0.2967 -0.0686 -0.0812
10327PP      PP20431  12.596   1.430   1.753  0.1141  0.0559 -0.3592
10328PP      PP20432  13.672   0.437  11.909  0.2202  0.0684  0.0433
10329PP      PP20433  14.446   9.886   9.125  0.3194  0.2418  0.0537
10330PP      PP20434   2.145  14.554   0.547 -0.5203  0.3116  0.0038
10331PP      PP20435  11.099  14.276   9.071 -0.0147 -0.0293 -0.0326
10332PP      PP20436  13.278   1.729   9.422 -0.0138  0.0787 -0.2318
10333PP      PP20437  11.750   8.771   3.343 -0.0424  0.3329 -0.1664
10334PP      PP20438   0.855  10.576   3.370  0.1185 -0.2403  0.0379
10335PP      PP20439  11.040  12.549  13.021  0.1378 -0.3871 -0.0136
10336PP      PP20440   8.961   6.757   3.209 -0.3267  0.1822  0.2778
10337PP      PP20441  12.165  14.879   0.404 -0.3078  0.1541  0.0207
10338PP      PP20442   7.010  10.062  11.788 -0.1138 -0.2607  0.0768
10339PP      PP20443  15.462  11.496   0.609  0.2230  0.0575  0.2437
10340PP      PP20444   0.276  11.347   3.047  0.0655  0.1230  0.2858
10341PP      PP20445  15.513  10.134   1.690 -0.0327 -0.1757  0.4251
10342PP      PP20446   4.786  10.354  13.490 -0.2302 -0.4913 -0.1300
10343PP      PP20447   4.792   9.777  10.980 -0.3458  0.0536  0.0214
10344PP      PP20448  15.600   4.067   0.039  0.1621 -0.3009 -0.2259
10345PP      PP20449  12.826   8.921  11.968  0.0086  0.0921 -0.1101
10346PP      PP20450   9.543  10.251   9.530  0.3211  0.0866 -0.2565
10347PP      PP20451   2.107  15.511  12.487 -0.0278  0.1005 -0.2222
10348PP      PP20452   7.337   6.670   9.973 -0.0031 -0.2886 -0.0316
10349PP      PP20453  12.702  13.904  10.355  0.1859  0.2146 -0.1053
10350PP      PP20454   9.759   9.780   0.960 -0.3443  0.1061 -0.0271
10351PP      PP20455   9.505   2.815   1.279 -0.1126  0.0363  0.2724
10352PP      PP20456   8.257   3.182   0.414  0.1272 -0.2857  0.1789
10353PP      PP20457  15.382   5.940  11.193  0.0057  0.0030  0.0367
10354PP      PP20458   8.963   6.897  13.106 -0.0986  0.2303  0.0872
10355PP      PP20459   3.797   4.668   0.462 -0.0289  0.1044 -0.0836
10356PP      PP20460   4.657  14.187  11.760  0.0540 -0.0553  0.1309
10357PP      PP20461  13.885  11.255  12.378 -0.0885  0.0491  0.0895
10358PP      PP20462   5.363   7.818   1.257  0.0554  0.0137 -0.0312
10359PP      PP20463   0.382   9.990  13.423 -0.1227 -0.2115  0.0144
10360PP      PP20464   8.294  15.566   1.780  0.4026  0.0442  0.3441
10361PP      PP20465   5.223  10.793  11.549 -0.4491  0.0268  0.0150
10362PP      PP20466  10.039  10.684   1.574 -0.0482 -0.0224  0.1438
10363PP      PP20467   2.416   7.985   3.828 -0.0935  0.3003 -0.5240
10364PP      PP20468   3.064  15.619   2.643 -0.1872 -0.1572  0.1634
10365PP      PP20469  13.076  12.226   3.433 -0.0348 -0.1541 -0.0100
10366PP      PP20470  12.906  13.643   4.370 -0.3743 -0.4094 -0.1025
10367PP      PP20471  15.399   4.268   2.887  0.0586  0.1005  0.0120
10368PP      PP20472   1.548   1.122  11.559 -0.0962 -0.0611 -0.1453
10369PP      PP20473  14.818   6.621   0.701 -0.1881  0.1576  0.1238
10370PP      PP20474   4.821   6.772   1.942 -0.3422 -0.1810  0.3452
10371PP      PP20475  12.890   6.281   3.121  0.1946 -0.3028  0.0825
10372PP      PP20476   9.862  10.960   1.017  0.1088 -0.0964  0.0358
10373PP      PP20477   7.699  13.207   0.573  0.3555 -0.0356  0.0725
10374PP      PP20478  15.655  10.255   2.416  0.0175 -0.0398 -0.3304
10375PP      PP20479   8.460  10.982  13.521 -0.2039 -0.0855  0.0889
10376PP      PP20480   1.659   6.980   9.750 -0.0210 -0.1709  0.4340
10377PP      PP20481  13.508   4.231  13.196 -0.2357 -0.1748  0.0428
10378PP      PP20482  12.311   2.000  11.035 -0.1903 -0.1709 -0.0647
10379PP      PP20483   9.762  14.725   0.818  0.0969 -0.0173 -0.1862
10380PP      PP20484  12.293  14.432  10.942 -0.2746  0.4218 -0.0848
10381PP      PP20485  10.999  11.870   1.511 -0.1261  0.0353 -0.1181
10382PP      PP20486   6.878   8.261   2.349 -0.0763  0.5174  0.1995
10383PP      PP20487   5.792   6.134  13.468 -0.2681 -0.1019 -0.0452
10384PP      PP20488   2.898  10.908   1.451 -0.0257 -0.1167 -0.3055
10385PP      PP20489   1.371  14.782   1.594  0.2760  0.0305 -0.2065
10386PP      PP20490   5.109  13.561   2.864 -0.0208  0.1807 -0.1060
10387PP      PP20491  13.289  13.982   2.124 -0.1355 -0.0602 -0.0300
10388PP      PP20492   8.582   0.124   1.719 -0.0419  0.2886 -0.1688
10389PP      PP20493   3.180  13.840   1.869  0.1185  0.1710 -0.1026
10390PP      PP20494   6.467   2.212  12.961 -0.1239 -0.0300 -0.1529
10391PP      PP20495   9.733  12.598   0.670  0.1724 -0.0930  0.0181
10392PP      PP20496   1.571   5.129   2.688 -0.0372  0.0084  0.1594
10393PP      PP20497   4.282   5.819   9.235  0.3835 -0.0492  0.0583
10394PP      PP20498   9.987   8.456  12.041  0.1940 -0.0326  0.0116
10395PP      PP20499   4.412  11.087   4.227  0.1553  0.2056  0.1104
10396PP      PP20500   9.516   9.282   3.408 -0.1350  0.1755  0.0576
10397PP      PP20501  11.794   0.361  10.885 -0.1949  0.2657 -0.1413
10398PP      PP20502  10.259   5.513  10.932 -0.1377 -0.1668 -0.0157
10399PP      PP20503   2.062   9.533  10.041 -0.3363 -0.1028  0.0199
10400PP      PP20504  15.745   3.818  11.842 -0.1433 -0.0062 -0.1828
10401PP      PP20505  15.756   9.628  11.059  0.1069  0.0221  0.1822
10402PP      PP20506   6.583  10.323  11.974 -0.1291  0.0666 -0.1868
10403PP      PP20507  12.793   9.407   0.480 -0.0465  0.0917 -0.2139
10404PP      PP20508  14.822  12.814   2.041 -0.1339  0.0700 -0.0030
10405PP      PP20509  12.435   3.050   0.375 -0.4314 -0.1204 -0.0892
10406PP      PP20510   0.782   2.558  12.396 -0.1474 -0.3561 -0.0574
10407PP      PP20511   0.173  13.358   3.634  0.0362 -0.2611  0.0040
10408PP      PP20512   5.849  14.992   9.315 -0.2758 -0.6471  0.0654
10409PP      PP20513  15.414   7.664   0.548  0.0935 -0.3044  0.0568
10410PP      PP20514   5.944   1.869  12.690  0.3064 -0.1015  0.0473
10411PP      PP20515  12.032   6.877  12.297 -0.0333  0.1890  0.1651
10412PP      PP20516  13.808   1.614   4.435  0.0309 -0.0944  0.0937
10413PP      PP20517  12.797  14.260   4.951 -0.0609  0.0027 -0.1550
10414PP      PP20518   0.077   9.681   3.565 -0.0235 -0.1650  0.0448
10415PP      PP20519   0.949   4.384  12.155 -0.0424  0.0700  0.0068
10416PP      PP20520   0.240   0.469   4.800  0.0364  0.0171 -0.1225
10417PP      PP20521   1.515  14.319   0.741 -0.0228 -0.0850  0.0792
10418PP      PP20522   9.214  14.193   2.513  0.1009  0.2151 -0.1681
10419PP      PP20523   1.107   6.033  11.746 -0.0552  0.2198 -0.1418
10420PP      PP20524  13.202   9.400  10.898  0.0879  0.0381 -0.1946
10421PP      PP20525   6.170   4.914  12.548 -0.2410 -0.3884 -0.0795
10422PP      PP20526   9.660   4.388  12.736 -0.6266  0.1082  0.1494
10423PP      PP20527  11.241   4.540   1.082 -0.1428 -0.2696 -0.2265
10424PP      PP20528  12.756   9.663  13.470  0.1331  0.1398  0.0647
10425PP      PP20529   7.186  13.304   0.112 -0.2453  0.2664 -0.2369
10426PP      PP20530   7.652   1.635   3.721 -0.2700 -0.0569 -0.0434
10427PP      PP20531   6.993  14.380   1.709 -0.0069  0.0073 -0.3236
10428PP      PP20532   4.872  11.371   8.895  0.2693  0.1820 -0.0935
10429PP      PP20533  15.567   2.349   2.311  0.2749 -0.0137  0.2168
10430PP      PP20534   8.738  11.813   0.458 -0.0428 -0.1512 -0.1927
10431PP      PP20535   5.831  15.625   4.307 -0.2472  0.0675  0.1419
10432PP      PP20536  15.319   6.721   1.030 -0.2109  0.0947  0.3609
10433PP      PP20537  11.703  15.077  12.070 -0.2627 -0.0694  0.2749
10434PP      PP20538  13.045   4.138  13.401  0.2129 -0.0095  0.2124
10435PP      PP20539   7.317   0.975   2.177 -0.1307 -0.2251 -0.2428
10436PP      PP20540  15.378  13.632   2.116  0.3026  0.4205  0.1727
10437PP      PP20541   2.127   7.519   2.145  0.1367  0.3612 -0.1368
10438PP      PP20542   9.409   3.947   0.961  0.0602  0.0782  0.1186
10439PP      PP20543   1.907  12.924  11.139 -0.1042 -0.2090 -0.1866
10440PP      PP20544  10.642  12.727   1.876  0.4938 -0.1789  0.1747
10441PP      PP20545   2.545   4.194  10.210  0.2825 -0.3826  0.1480
10442PP      PP20546   3.276   8.804   9.917  0.2619 -0.0832 -0.1635
10443PP      PP20547   3.568   0.614  10.380  0.0976 -0.1366 -0.2666
10444PP      PP20548  12.054  12.823  11.323 -0.0385 -0.2658  0.1911
10445PP      PP20549   4.545   3.237  12.381  0.2270  0.1069  0.0471
10446PP      PP20550   5.774  15.226   1.452  0.0851 -0.0758  0.3641
10447PP      PP20551  15.376   4.680  12.034  0.0016 -0.0523  0.1223
10448PP      PP20552   9.589   5.103   1.462 -0.1270 -0.0086 -0.0685
10449PP      PP20553   2.188  10.778   8.983 -0.1189  0.1050  0.3815
10450PP      PP20554  11.950  15.141  11.456 -0.1353  0.2265 -0.0669
10451PP      PP20555   2.238   7.739   0.480  0.0530  0.0108  0.0789
10452PP      PP20556   2.281  11.744  11.820  0.2112 -0.3088  0.4543
10453PP      PP20557   2.718   1.556   1.219  0.1236 -0.2514  0.3648
10454PP      PP20558   6.052   5.733  11.074  0.2812 -0.1873 -0.2130
10455PP      PP20559  14.068  13.600   9.963 -0.1147  0.0659  0.1494
10456PP      PP20560   6.738   6.055   0.793  0.0534 -0.3320 -0.2835
10457PP      PP20561   4.229   0.871   9.748  0.0068  0.0371 -0.1700
10458PP      PP20562   3.345   7.447   9.727  0.2591 -0.2234  0.1884
10459PP      PP20563   0.224   3.774  12.731  0.3296 -0.0218  0.0180
10460PP      PP20564   0.610   2.749   1.555  0.6112  0.0441  0.2457
10461PP      PP20565   0.317   8.611  13.152 -0.0935 -0.1495  0.1987
10462PP      PP20566   1.355   9.547  13.189  0.1729 -0.1025 -0.0654
10463PP      PP20567   2.226   0.650   0.853  0.0880  0.0626 -0.0891
10464PP      PP20568   1.989  11.282   0.908  0.0069 -0.0959 -0.2147
10465PP      PP20569   0.262   2.153   2.407  0.3735  0.1246  0.0297
10466PP      PP20570  13.042   9.380   2.599  0.0360  0.4456 -0.0931
10467PP      PP20571  15.230   2.743   3.201 -0.3136 -0.1136 -0.1287
10468PP      PP20572   2.449   4.620  10.956 -0.2741 -0.2088 -0.1222
10469PP      PP20573   1.731   0.788  10.031 -0.2189 -0.3131  0.2829
10470PP      PP20574  12.930   1.004   3.459  0.0972 -0.2472 -0.0519
10471PP      PP20575   7.558  13.455   4.562  0.2608  0.0017 -0.4243
10472PP      PP20576   4.083   8.332   9.202  0.2502 -0.1242 -0.1079
10473PP      PP20577   9.184   4.804   1.362 -0.3236  0.2049 -0.0968
10474PP      PP20578  12.437   9.301   9.879 -0.4149 -0.0345 -0.0070
10475PP      PP20579   2.992  13.870  12.832 -0.0623  0.0766  0.1280
10476PP      PP20580   3.081   0.920   3.430 -0.2609 -0.2478 -0.0251
10477PP      PP20581  10.297   1.558  12.863 -0.1253  0.0440 -0.1482
10478PP      PP20582  12.995  15.374  10.162  0.1542 -0.1912  0.0045
10479PP      PP20583   9.664   8.429   9.697 -0.1844  0.2130 -0.0086
10480PP      PP20584   1.073   5.157   1.910 -0.0470 -0.0683 -0.4163
10481PP      PP20585   4.263   7.072   3.797  0.1763  0.3552 -0.1012
10482PP      PP20586  12.596  12.672  12.357  0.1684  0.2384  0.1542
10483PP      PP20587   2.999  14.210  10.514 -0.1113 -0.0198  0.0281
10484PP      PP20588  11.865   5.185  10.966  0.2109  0.0282 -0.2429
10485PP      PP20589   1.530   8.600   3.031 -0.0537 -0.2752  0.1530
10486PP      PP20590   2.101  10.001   0.926 -0.1040  0.1943  0.1033
10487PP      PP20591   4.566   8.483   3.396  0.1207  0.0194 -0.1178
10488PP      PP20592  14.508   9.711  12.082  0.1188  0.2767  0.0309
10489PP      PP20593   9.902  14.146   3.358  0.2088 -0.1111 -0.0285
10490PP      PP20594   8.460   9.625  10.535 -0.0531  0.1143 -0.3478
10491PP      PP20595   6.670   2.532  12.616  0.0491 -0.3467 -0.0852
10492PP      PP20596   0.445  12.221  12.992  0.2075 -0.0218 -0.2652
10493PP      PP20597  15.425  11.875  11.039  0.1919 -0.3786 -0.1600
10494PP      PP20598  15.712   3.158   0.394 -0.1419  0.1876  0.3358
10495PP      PP20599  10.784  10.547   8.842  0.0104 -0.1033  0.4133
10496PP      PP20600  12.316  14.588   3.014 -0.0955 -0.1817 -0.0816
10497PP      PP20601   6.817  15.076   3.057  0.0236 -0.1115  0.0835
10498PP      PP20602   1.040  15.614   1.805 -0.2992 -0.2146  0.3432
10499PP      PP20603   4.942   4.003   2.080 -0.0218 -0.2761  0.1927
10500PP      PP20604   6.151   2.922   2.747  0.1693 -0.0100  0.1377
10501PP      PP20605  14.878   9.802  11.112  0.1717  0.2024 -0.0622
10502PP      PP20606  15.519  15.640   0.590  0.2140  0.1320 -0.2887
10503PP      PP20607   7.812   6.598   8.796  0.1577 -0.0475  0.4373
10504PP      PP20608   6.432   4.711   3.702 -0.0006 -0.0586  0.4049
10505PP      PP20609   5.052   5.096  10.913 -0.0163 -0.2502  0.1535
10506PP      PP20610   4.512   8.738  12.267  0.1688 -0.2278  0.3937
10507PP      PP20611   9.952   3.175   4.258  0.0916  0.0804  0.1102
10508PP      PP20612   0.573  11.523   2.628  0.0505  0.1677 -0.0677
10509PP      PP20613  14.208  14.791  10.077 -0.1391 -0.2363  0.0764
10510PP      PP20614   1.681  12.141   1.825  0.1433 -0.0775 -0.3793
10511PP      PP20615   4.388  14.239  13.284 -0.0314  0.2207  0.1374
10512PP      PP20616   9.220  15.864  12.387 -0.0500  0.0958  0.3973
10513PP      PP20617  11.135  15.809  11.734 -0.1704 -0.2226 -0.1717
10514PP      PP20618   8.777   1.597   4.368 -0.3110  0.1428 -0.3345
10515PP      PP20619   0.711   8.542  12.525  0.1040  0.0784 -0.3558
10516PP      PP20620   1.681  11.330   1.886 -0.1926  0.1521 -0.0598
10517PP      PP20621  15.025   0.596  12.293  0.1650  0.0127 -0.0972
10518PP      PP20622   4.792  10.459  13.015 -0.4039  0.1100  0.1396
10519PP      PP20623  12.407   9.867  10.749 -0.1323 -0.2332  0.1299
10520PP      PP20624   3.945  13.362   9.526 -0.0243 -0.3040 -0.1203
10521PP      PP20625   1.432   5.218   9.955 -0.0281 -0.3614 -0.1411
10522PP      PP20626  12.347   0.789   2.106 -0.1026 -0.2312 -0.1933
10523PP      PP20627  11.884   5.068  11.469  0.0207 -0.0104  0.0582
10524PP      PP20628   4.490  11.615   9.184  0.0246 -0.2389 -0.2139
10525PP      PP20629  10.347  12.414   0.740  0.0831  0.3307 -0.1321
10526PP      PP20630  12.232   8.877   1.014  0.2690 -0.2360 -0.0739
10527PP      PP20631   8.560  11.310   0.728 -0.2604  0.1345  0.0067
10528PP      PP20632   0.430  12.992  12.806  0.2078 -0.2588  0.1970
10529PP      PP20633  11.735  11.417  13.393 -0.1973  0.1172  0.2346
10530PP      PP20634   3.669  10.815  10.809 -0.2523 -0.1111 -0.1506
10531PP      PP20635   3.066   3.270   1.737 -0.0634 -0.1866 -0.3100
10532PP      PP20636  14.646  10.871   2.273 -0.2415  0.0992 -0.1007
10533PP      PP20637   2.181  10.825  11.250  0.1941  0.1626 -0.2304
10534PP      PP20638  13.747   7.919   2.227 -0.3603 -0.0227  0.1536
10535PP      PP20639  13.072   3.565   4.478 -0.2291 -0.1716  0.0999
10536PP      PP20640   5.292   2.314   3.501  0.2970 -0.1174 -0.0323
10537PP      PP20641  11.283   5.468   9.288  0.0033 -0.0044  0.1774
10538PP      PP20642   0.072   0.010   3.340  0.0226  0.2487  0.1274
10539PP      PP20643  15.559  12.194  12.408 -0.2422  0.0943 -0.4290
10540PP      PP20644   0.943   4.006   2.216  0.0162  0.0355 -0.2326
10541PP      PP20645  13.449  11.490   0.762  0.2603 -0.1506  0.1052
10542PP      PP20646   7.575   8.006   9.052 -0.2011  0.1597 -0.2740
10543PP      PP20647  14.950   9.800  13.482  0.2958  0.3047 -0.1510
10544PP      PP20648  11.626  14.600  12.421  0.0168 -0.1910  0.3839
10545PP      PP20649  12.892  12.283   5.293  0.2949  0.1527  0.2983
10546PP      PP20650   7.176  11.645  13.301 -0.5245  0.1171  0.1972
10547PP      PP20651   2.874  12.335   8.944 -0.2551  0.1787 -0.1405
10548PP      PP20652   4.019  13.990  12.478  0.5545 -0.0366 -0.2696
10549PP      PP20653   5.331  12.717   9.212  0.2930 -0.3147 -0.0805
10550PP      PP20654   9.628  10.796  10.820  0.2412 -0.0458  0.0915
10551PP      PP20655   8.913  12.480   9.266  0.0718 -0.3377  0.0023
10552PP      PP20656  14.096  11.845   2.306 -0.0346 -0.0052 -0.0603
10553PP      PP20657  11.376  11.805   0.399 -0.1326 -0.2292  0.0170
10554PP      PP20658   0.742  11.109  11.439 -0.1866  0.1479  0.2756
10555PP      PP20659  12.676  13.539   3.872  0.1348  0.3383  0.0131
10556PP      PP20660  11.524   8.583  10.556 -0.1021  0.0074 -0.0218
10557PP      PP20661  13.720   4.952   0.674  0.0161 -0.0011 -0.2276
10558PP      PP20662  13.464   8.460   0.338 -0.2711 -0.0619  0.0421
10559PP      PP20663   8.439   8.687   2.734  0.0227  0.0232  0.0990
10560PP      PP20664   6.819   3.941  10.503 -0.1144 -0.1576  0.0446
10561PP      PP20665   5.947   0.605   2.815  0.2757 -0.0107  0.5620
10562PP      PP20666  10.820   9.290   9.466  0.0999  0.0072  0.1317
10563PP      PP20667   2.051  11.579  12.751 -0.1093  0.0509 -0.0563
10564PP      PP20668   6.524   5.123  11.776  0.1939  0.1116  0.1246
10565PP      PP20669   4.442  13.298   2.625 -0.0282 -0.0925  0.1944
10566PP      PP20670   2.358   5.517  13.091 -0.1570 -0.0310 -0.0096
10567PP      PP20671  12.560   9.291   3.430 -0.1389 -0.0735  0.0688
10568PP      PP20672   1.337   4.594   2.746 -0.4245 -0.0970 -0.1478
10569PP      PP20673  10.262   9.137  10.400  0.1306 -0.0141  0.0479
10570PP      PP20674  12.746   0.511   2.282  0.2285 -0.2838 -0.1260
10571PP      PP20675  13.225  10.754   9.987  0.0830  0.1121  0.0728
10572PP      PP20676   1.722  15.703  10.565  0.2327 -0.1843  0.0955
10573PP      PP20677   5.802  12.232   0.804 -0.0709  0.0654 -0.2625
10574PP      PP20678   7.151   8.893  12.523  0.1006  0.0300  0.0510
10575PP      PP20679   7.198  15.716   9.365 -0.0570 -0.1406 -0.3425
10576PP      PP20680  13.396   6.307  12.404 -0.4000 -0.2350 -0.0976
10577PP      PP20681   5.279   9.989   4.159 -0.2735  0.2241 -0.1585
10578PP      PP20682  10.352   9.783   4.425  0.1373  0.0120  0.0952
10579PP      PP20683   6.176  14.188   0.706 -0.1402 -0.0177 -0.3813
10580PP      PP20684   2.078   4.203   2.007  0.1234  0.0016 -0.0057
10581PP      PP20685   9.827  11.606  11.595  0.0639  0.0224  0.0730
10582PP      PP20686  14.253   1.908  12.184  0.3321  0.0825 -0.2051
10583PP      PP20687   2.469   9.889   9.396 -0.3768 -0.1774  0.1298
10584PP      PP20688   5.028  10.261   1.428 -0.0815  0.4151 -0.1957
10585PP      PP20689   9.095   1.156   0.819  0.3689 -0.1190 -0.3976
10586PP      PP20690   4.175  14.113   1.282 -0.1090 -0.1113 -0.1414
10587PP      PP20691   7.033   8.106  12.105 -0.0336  0.1547 -0.1405
10588PP      PP20692   5.088   0.058  11.918  0.0344  0.1328 -0.1019
10589PP      PP20693   8.978   5.909  10.629  0.1511  0.2457  0.0892
10590PP      PP20694  10.808  11.720   0.977 -0.1400  0.1012 -0.1399
10591PP      PP20695   7.913  15.651  12.938 -0.1858 -0.1680  0.0276
10592PP      PP20696   0.221  14.920   2.466 -0.2028  0.2266 -0.0211
10593PP      PP20697   8.053   1.284  10.811 -0.1388  0.2695  0.0825
10594PP      PP20698   7.482   4.170   0.162  0.3831  0.1629  0.0982
10595PP      PP20699  14.675   0.179  12.820  0.1377  0.0069  0.4936
10596PP      PP20700  10.735  15.307   2.911 -0.1608 -0.1408  0.0903
10597PP      PP20701   6.823   8.433   1.790 -0.3077  0.2378  0.1970
10598PP      PP20702   4.398   7.977  10.084  0.1552 -0.0820 -0.0628
10599PP      PP20703  11.865   6.888  10.165 -0.0953  0.2908  0.1388
10600PP      PP20704   3.618  12.342  11.314  0.0487  0.0291 -0.0474
10601PP      PP20705  14.062  14.582   4.754 -0.1102 -0.1256  0.1631
10602PP      PP20706  12.318   7.049   3.883  0.2401  0.1950  0.2656
10603PP      PP20707   8.451  10.902   3.865 -0.1269  0.2196  0.1933
10604PP      PP20708   7.927  14.517   3.567  0.1298  0.2733 -0.1918
10605PP      PP20709   3.425   4.778   1.055  0.2212 -0.0064 -0.1460
10606PP      PP20710  12.751   8.938  10.011  0.4281 -0.1238 -0.0504
10607PP      PP20711   2.358   9.636  12.138  0.0464 -0.1054 -0.1576
10608PP      PP20712   3.262  12.223  11.673  0.2990  0.2153  0.0405
10609PP      PP20713  13.684   5.323   9.407  0.2510  0.1325 -0.2440
10610PP      PP20714   1.163   3.523   2.491  0.4266  0.0293  0.3932
10611PP      PP20715  13.744   1.834  11.187 -0.1325 -0.1874 -0.0966
10612PP      PP20716   5.262   4.961   2.951  0.1748  0.0929 -0.1183
10613PP      PP20717  15.641  12.104   3.571  0.3546 -0.4128  0.1505
10614PP      PP20718   6.237   1.554   2.576  0.1144  0.1368 -0.3006
10615PP      PP20719   2.745   7.335   9.617 -0.0815 -0.0088 -0.1744
10616PP      PP20720   9.570   0.997   3.049 -0.2726  0.0328 -0.0753
10617PP      PP20721  15.612  11.161  11.735  0.1772 -0.2958 -0.2174
10618PP      PP20722  14.012  10.753  12.479 -0.2120  0.0332  0.0336
10619PP      PP20723  14.278   6.353  12.924 -0.1540 -0.1394  0.2270
10620PP      PP20724   4.116   0.604   0.767 -0.1584  0.1805  0.4047
10621PP      PP20725   3.163  10.113  11.841 -0.1059  0.0400 -0.3576
10622PP      PP20726   4.791  12.572  12.724  0.1083  0.0082 -0.4571
10623PP      PP20727   2.670  11.700   9.610  0.1074 -0.1570 -0.3264
10624PP      PP20728  11.289   3.650   9.099 -0.0313  0.2200  0.3105
10625PP      PP20729   3.122   5.335   0.746 -0.1090  0.2965 -0.0327
10626PP      PP20730   9.578   5.714  12.888 -0.1706 -0.3084  0.0240
10627PP      PP20731   1.825   5.888   1.008 -0.2348 -0.5416 -0.0291
10628PP      PP20732   3.011   2.552   1.120 -0.2147 -0.1474 -0.1245
10629PP      PP20733  15.816   7.854   0.225 -0.0650 -0.0027  0.0434
10630PP      PP20734   9.391   0.546   4.382 -0.2227 -0.2994 -0.1385
10631PP      PP20735  13.573   7.093   0.815 -0.0428 -0.0122  0.2679
10632PP      PP20736  15.251   4.006  10.164  0.4367 -0.1376  0.1233
10633PP      PP20737  11.428   8.171  13.109 -0.0498 -0.2188  0.1981
10634PP      PP20738   8.752   6.563   1.854  0.0703  0.1287 -0.0337
10635PP      PP20739  10.794   3.295  12.506 -0.2086  0.1647  0.1278
10636PP      PP20740  12.519   7.353   9.250 -0.6003  0.3443  0.0635
10637PP      PP20741   3.809   3.520   1.010  0.0742  0.1629 -0.0777
10638PP      PP20742  13.155   3.968   4.164  0.0979  0.0777 -0.1952
10639PP      PP20743   2.264  13.558  11.566  0.1593  0.2083 -0.1140
10640PP      PP20744   3.859   8.281   9.702  0.1837  0.0801  0.2197
10641PP      PP20745  14.212   0.230   3.889 -0.0655  0.1487  0.2021
10642PP      PP20746   7.207   5.246   3.646 -0.0203  0.1435  0.1342
10643PP      PP20747   7.024   5.101   9.448  0.2085  0.0619  0.2463
10644PP      PP20748   8.890  12.915   3.531  0.3048  0.0763 -0.0331
10645PP      PP20749  13.178   2.662   9.577 -0.2202 -0.0392  0.3295
10646PP      PP20750  12.097  12.285   9.645  0.1976 -0.1697 -0.0736
10647PP      PP20751   2.798  12.475  10.197 -0.0701  0.0185 -0.2875
10648PP      PP20752   4.642  12.283  10.524 -0.0082  0.1401 -0.0194
10649PP      PP20753  14.446   3.072   9.408  0.1326 -0.3494 -0.0842
10650PP      PP20754  10.323   4.010   0.744 -0.0634  0.1442 -0.1058
10651PP      PP20755   7.779  15.153   4.698  0.0215 -0.4526 -0.1268
10652PP      PP20756  14.893   4.088   2.372  0.0631 -0.2970 -0.2158
10653PP      PP20757   5.408   3.240  11.181  0.6150 -0.0786 -0.2199
10654PP      PP20758   2.338  10.730  11.733 -0.2429 -0.3006 -0.1595
10655PP      PP20759   7.277   3.124  13.248  0.1805  0.0373  0.0112
10656PP      PP20760   2.933   6.278  10.328  0.1767  0.1094 -0.3992
10657PP      PP20761   5.967   0.928  12.678 -0.0850 -0.0250  0.3023
10658PP      PP20762  13.209   1.773  13.112  0.0439  0.2449 -0.2086
10659PP      PP20763   8.763   3.767  11.773  0.3069  0.1869  0.1833
10660PP      PP20764  13.397  13.932   4.351  0.0243 -0.0019  0.1037
10661PP      PP20765  15.396  14.072  11.192 -0.0066  0.2635 -0.2310
10662PP      PP20766   9.907   5.185   0.897 -0.0210 -0.2755  0.0111
10663PP      PP20767  10.930   7.545  11.403 -0.0035 -0.0742 -0.3131
10664PP      PP20768   1.890  10.433  11.508  0.2162  0.0485 -0.0067
10665PP      PP20769   9.509   4.181   2.503 -0.1216  0.0555  0.3019
10666PP      PP20770  10.186  10.946   0.044  0.4051 -0.4753  0.1365
10667PP      PP20771   1.280   8.280  11.512 -0.1119  0.0074  0.3041
10668PP      PP20772  11.119   6.519  12.966  0.0284 -0.3208  0.1385
10669PP      PP20773   0.286   6.935   9.667 -0.0612 -0.0902 -0.2968
10670PP      PP20774  10.378   8.308   8.673  0.2093  0.1667  0.1108
10671PP      PP20775   0.923  10.159   0.557 -0.3502  0.0256 -0.1380
10672PP      PP20776  14.759   1.899  12.936 -0.0590 -0.2231  0.2293
10673PP      PP20777   8.311   4.915   1.063  0.1425  0.2199 -0.3986
10674PP      PP20778   9.503   5.073   2.382  0.0888 -0.0378 -0.0822
10675PP      PP20779   8.152   6.427  12.352 -0.0042 -0.2591  0.0685
10676PP      PP20780  14.076  10.830   2.035  0.0461 -0.5101  0.1100
10677PP      PP20781   8.829   9.871   0.960  0.1051  0.0735  0.1035
10678PP      PP20782  13.110  10.662   9.483  0.0947 -0.5173  0.1682
10679PP      PP20783   8.945   4.468   3.311 -0.0908 -0.0459 -0.0627
10680PP      PP20784  15.351   9.321   9.352 -0.0036  0.2626  0.1274
10681PP      PP20785   2.534  15.538  10.794  0.1773 -0.1487  0.0859
10682PP      PP20786  12.695  11.242   0.075 -0.1145  0.0579  0.3534
10683PP      PP20787  11.049   5.734  10.850  0.1229  0.0051 -0.1436
10684PP      PP20788   8.335  11.905  12.473 -0.2313  0.2171 -0.2953
10685PP      PP20789   2.362   4.068   3.449  0.1730  0.0575 -0.1496
10686PP      PP20790   8.767   5.639   0.242 -0.3831  0.0064  0.0214
10687PP      PP20791  10.609   1.919   9.761  0.0129  0.0255  0.3013
10688PP      PP20792  12.719   3.998   2.847 -0.0366 -0.0863 -0.1795
10689PP      PP20793   9.955   0.527  12.172  0.0092  0.0673  0.1224
10690PP      PP20794   1.093  12.889  11.863 -0.2601  0.1105  0.0848
10691PP      PP20795   8.241   6.275  13.321  0.0602 -0.0602  0.1868
10692PP      PP20796   5.211   9.016  11.932  0.0363  0.1388  0.1395
10693PP      PP20797   9.654   9.982  10.840 -0.0029 -0.1418  0.3000
10694PP      PP20798   0.198   9.386   1.026  0.0599 -0.2680  0.2273
10695PP      PP20799   2.903   3.762  11.985 -0.2137 -0.2108 -0.3152
10696PP      PP20800  15.444  13.747  11.846  0.3036 -0.2001 -0.3292
10697PP      PP20801  12.026   0.296  11.408 -0.1381  0.0334 -0.0701
10698PP      PP20802   2.584   6.833   0.430  0.0562  0.1301 -0.0929
10699PP      PP20803  10.331   2.363   1.135  0.5406  0.0258  0.1409
10700PP      PP20804  10.997  10.208  11.951  0.0714  0.0600 -0.3247
10701PP      PP20805   2.095   3.511  11.837  0.0942  0.0544  0.3891
10702PP      PP20806   3.734   0.541  13.441 -0.0287 -0.2210 -0.1669
10703PP      PP20807   4.474   4.204   0.782 -0.2484  0.2980  0.0436
10704PP      PP20808  14.032   7.640  13.301 -0.1765  0.0774 -0.2719
10705PP      PP20809   7.671   2.768   9.563  0.1253  0.2492 -0.2563
10706PP      PP20810  11.625   6.612   3.253  0.3553 -0.1791 -0.0842
10707PP      PP20811   3.760  13.130   0.078 -0.2591  0.1072 -0.2367
10708PP      PP20812  11.769   9.056  11.959 -0.1186 -0.6152 -0.1728
10709PP      PP20813   6.258   2.645   3.109 -0.2011  0.0425  0.2062
10710PP      PP20814  12.506   7.791   8.994  0.0754 -0.0286  0.0527
10711PP      PP20815   8.878  15.163   0.494  0.1409 -0.0679  0.1127
10712PP      PP20816  11.208   4.428   2.660  0.1523  0.0451 -0.0146
10713PP      PP20817  15.700  13.658   0.723 -0.1469  0.0122 -0.1169
10714PP      PP20818   0.994  15.143   9.886  0.1729  0.0477  0.0961
10715PP      PP20819   1.460   3.560   4.418  0.0116 -0.1269  0.3940
10716PP      PP20820  10.032   1.312   4.852 -0.1227  0.0739 -0.3498
10717PP      PP20821   8.916  12.679   2.407 -0.2626  0.1944 -0.4092
10718PP      PP20822  11.078   6.445   2.783 -0.0057 -0.0188  0.0966
10719PP      PP20823   9.680   8.952  13.135  0.1952 -0.0203 -0.1279
10720PP      PP20824  15.854   6.057   1.619  0.1174  0.1382  0.0054
10721PP      PP20825  15.244   2.545   9.593 -0.1474  0.0176 -0.0487
10722PP      PP20826  14.670  13.080   0.351  0.0251  0.2721  0.1069
10723PP      PP20827   7.969   4.605  12.177 -0.0333  0.0190  0.3445
10724PP      PP20828  13.147  12.568  13.359 -0.0431 -0.0846  0.0084
10725PP      PP20829   8.982   5.090   9.532 -0.1970 -0.2347  0.2152
10726PP      PP20830   2.179  10.825  10.283 -0.0105  0.2464 -0.2895
10727PP      PP20831   5.128   3.088   9.299 -0.0985 -0.2224  0.0930
10728PP      PP20832   1.438   9.656   0.145  0.1695 -0.6455 -0.0244
10729PP      PP20833   3.620  11.744   9.120 -0.0650  0.2258  0.1520
10730PP      PP20834  13.287   7.553  12.543 -0.0682 -0.1084  0.1373
10731PP      PP20835   9.979   5.888   2.492 -0.2437  0.1952  0.3591
10732PP      PP20836  15.323   3.651  13.395  0.1128 -0.0274  0.1000
10733PP      PP20837  15.531   0.262  12.394 -0.1798  0.0001  0.0631
10734PP      PP20838  13.210   1.101   0.409  0.0308  0.2118  0.3632
10735PP      PP20839   8.768  13.296  10.282 -0.0761 -0.2496 -0.0353
10736PP      PP20840   4.839   9.740   0.332 -0.1664  0.0299 -0.1700
10737PP      PP20841   9.138   7.563  12.658  0.4998  0.2091  0.2313
10738PP      PP20842   3.602   3.579   3.604 -0.2421  0.1575  0.0586
10739PP      PP20843   9.120  12.015   0.780 -0.0705 -0.1262 -0.1032
10740PP      PP20844  12.065   4.769   1.743  0.0530  0.1892  0.0949
10741PP      PP20845  12.028  13.270   1.312  0.0998  0.3301 -0.4341
10742PP      PP20846   6.943   7.192   9.394  0.0126  0.2051  0.0183
10743PP      PP20847   4.252  14.780   1.617  0.0242 -0.1421 -0.0381
10744PP      PP20848  12.923   3.647  13.346  0.3441 -0.1151  0.0873
10745PP      PP20849   6.233  14.421  11.113  0.0037  0.0552 -0.0481
10746PP      PP20850   4.640   1.480  13.080  0.0960 -0.0943 -0.1898
10747PP      PP20851   1.084   3.557  10.435  0.0288  0.0304  0.1232
10748PP      PP20852  11.458   5.365  11.537  0.0187  0.1555  0.1079
10749PP      PP20853  15.587   4.841   3.565 -0.3065 -0.1180  0.0984
10750PP      PP20854   8.164  14.795  12.610  0.0408  0.1088 -0.3800
10751PP      PP20855   0.530   7.152  10.692  0.0684  0.1012  0.3344
10752PP      PP20856   8.725   6.947  10.089  0.1668 -0.1207  0.2938
10753PP      PP20857   1.222  11.749   1.931 -0.1821 -0.1044 -0.0106
10754PP      PP20858   8.727  13.298  11.221  0.0148  0.1770  0.3486
10755PP      PP20859  13.447   3.567   9.403 -0.3353  0.3346  0.3488
10756PP      PP20860   0.873  12.534   2.926 -0.0231 -0.1075  0.0343
10757PP      PP20861  13.926   5.850   9.446  0.2859  0.3446  0.0618
10758PP      PP20862   9.624   0.902  12.596  0.0475 -0.0615  0.1488
10759PP      PP20863  13.043  13.846   3.938  0.0747  0.0213 -0.0250
10760PP      PP20864  12.431   5.283   9.875  0.2261  0.0753  0.0057
10761PP      PP20865   4.537   2.230  12.432 -0.1259  0.2119  0.2759
10762PP      PP20866  13.749  12.145   0.271 -0.0918  0.0877 -0.2526
10763PP      PP20867  12.238   6.030   1.317 -0.0645  0.1491 -0.1979
10764PP      PP20868   8.968  13.136  10.797 -0.0180 -0.2895 -0.4366
10765PP      PP20869   5.899   9.070   3.692  0.0758  0.1204  0.1053
10766PP      PP20870   7.167   4.452  10.866  0.2743  0.0347 -0.2505
10767PP      PP20871  15.355   4.574  11.157 -0.0841  0.0996  0.1072
10768PP      PP20872   7.973   1.416  12.909  0.2339 -0.0261  0.0082
10769PP      PP20873  13.461   4.646   2.746 -0.0302  0.3182 -0.1314
10770PP      PP20874   7.827   9.927  12.292  0.1508 -0.0813 -0.1787
10771PP      PP20875   6.159  13.215   1.277 -0.0408  0.0287 -0.0657
10772PP      PP20876  14.343   9.087  10.417 -0.0926 -0.0700 -0.0085
10773PP      PP20877   5.276   8.109  13.147  0.1524  0.0651  0.0469
10774PP      PP20878   3.451  13.476  13.471 -0.2899  0.0621 -0.3816
10775PP      PP20879   0.643  10.218   2.388  0.0524 -0.3706 -0.1024
10776PP      PP20880  13.514   6.072   9.550  0.0485  0.0728 -0.0854
10777PP      PP20881   0.742  10.008  11.525  0.1378 -0.0899  0.1470
10778PP      PP20882   1.408   7.441   9.582  0.2527  0.1807  0.0921
10779PP      PP20883  12.864   0.770   0.667  0.3151  0.0516 -0.2830
10780PP      PP20884   6.044  14.519   1.830 -0.0070  0.3801 -0.0473
10781PP      PP20885   0.493  12.209   0.474  0.0707 -0.0792  0.5053
10782PP      PP20886   3.851  11.104   0.741 -0.0153 -0.2057  0.0472
10783PP      PP20887   3.754   3.611   0.480  0.0777  0.0516  0.0844
10784PP      PP20888  13.311   7.420  12.090  0.0532 -0.1023 -0.3774
10785PP      PP20889  11.813  15.603   0.856  0.0071 -0.3078  0.0370
10786PP      PP20890   1.708   2.651  12.900 -0.0635 -0.1576  0.1639
10787PP      PP20891  11.012   4.319   0.368 -0.0296 -0.0987  0.1623
10788PP      PP20892  14.432   4.300   3.893  0.3093 -0.1672 -0.1833
10789PP      PP20893  12.454   8.337  10.116  0.0143  0.0375  0.3441
10790PP      PP20894   6.736  10.325   2.924  0.0608  0.1458 -0.2618
10791PP      PP20895   3.568   9.097   1.297 -0.0989 -0.1054 -0.1029
10792PP      PP20896   0.536   2.476   2.816 -0.1484  0.2753  0.0568
10793PP      PP20897   0.232   3.957   3.328 -0.0548  0.2142 -0.0288
10794PP      PP20898   7.049  12.545  12.900  0.0227 -0.0487 -0.1748
10795PP      PP20899   7.789   9.513   1.662  0.1558 -0.0219 -0.3109
10796PP      PP20900   9.526   5.337   9.463  0.0905  0.0041 -0.0485
10797PP      PP20901   5.760  12.082   2.533 -0.1259 -0.0936 -0.0501
10798PP      PP20902   7.587   8.544   1.322  0.2263  0.4886  0.1925
10799PP      PP20903   2.621   4.775  10.510 -0.0384  0.3644 -0.1106
10800PP      PP20904   1.522  13.805   0.762  0.0372  0.1572 -0.0114
10801PP      PP20905  14.155  12.748   0.654 -0.1658  0.0038  0.0809
10802PP      PP20906   2.832   7.613   2.411 -0.1980  0.1038  0.1465
10803PP      PP20907  10.094   6.443  13.510  0.1035 -0.1397 -0.0121
10804PP      PP20908  14.179   7.468   9.340  0.0920  0.0403  0.2510
10805PP      PP20909   7.485   7.568  13.518 -0.1029  0.0970 -0.0639
10806PP      PP20910   9.452  12.642   9.233 -0.0697 -0.0095 -0.3776
10807PP      PP20911   3.506   9.847   1.966 -0.0001  0.0459  0.0175
10808PP      PP20912   8.016  13.499   0.102  0.1039  0.0876 -0.3001
10809PP      PP20913   0.222   9.795   1.722 -0.1044  0.2588  0.0908
10810PP      PP20914  12.584  12.598  11.082  0.1179  0.0243 -0.1803
10811PP      PP20915   8.400   9.403   3.087  0.0566  0.0507 -0.1098
10812PP      PP20916   6.233   5.180   1.464 -0.2310 -0.1213 -0.1835
10813PP      PP20917  12.948  15.705  12.111 -0.1246 -0.1110 -0.0501
10814PP      PP20918   3.291  12.173   9.185 -0.0270  0.2201 -0.0718
10815PP      PP20919   0.287  13.289   9.924 -0.2461  0.2592 -0.1209
10816PP      PP20920   0.621   3.172  13.338  0.1952 -0.1570  0.0043
10817PP      PP20921  13.136  12.834  12.494 -0.1056  0.1489 -0.0569
10818PP      PP20922   9.628   0.218   2.481  0.1898 -0.0972  0.0298
10819PP      PP20923   9.029   7.639   2.061 -0.1526 -0.0283 -0.0164
10820PP      PP20924  10.586  10.117  10.077  0.2068  0.1209  0.0153
10821PP      PP20925   4.522  14.416   2.151 -0.2068 -0.2818  0.1575
10822PP      PP20926  15.418   1.272  10.218  0.2726  0.0543  0.3795
10823PP      PP20927  14.478   2.419   2.821 -0.1092  0.1125 -0.0713
10824PP      PP20928  13.011   3.405   1.364  0.1617 -0.3107 -0.1515
10825PP      PP20929  11.749   2.596   1.169  0.1473  0.0319 -0.1377
10826PP      PP20930   7.223   1.327   4.772  0.0769 -0.4039 -0.0458
10827PP      PP20931   0.764  10.138   9.531  0.1706  0.0571 -0.0924
10828PP      PP20932  11.235   3.912   1.203  0.2389 -0.2278 -0.1288
10829PP      PP20933   9.262   1.932   1.360 -0.1867  0.1759 -0.2404
10830PP      PP20934   6.605   6.200   9.037 -0.0566 -0.0466 -0.0829
10831PP      PP20935   3.382   0.415   0.243  0.1976 -0.2226  0.4328
10832PP      PP20936  12.964  15.644   3.307 -0.0525  0.1312  0.1908
10833PP      PP20937  10.113  13.783   4.274 -0.0317  0.0875 -0.0576
10834PP      PP20938   7.994   8.233   9.196 -0.0430 -0.0243  0.1350
10835PP      PP20939  14.299   9.510  11.674 -0.0757  0.0667 -0.3186
10836PP      PP20940   5.198  13.360  11.226 -0.1503 -0.0327 -0.0490
10837PP      PP20941  12.461   1.184   9.606  0.1398  0.0632 -0.0794
10838PP      PP20942  14.131  14.334  11.877  0.0874 -0.0328 -0.2146
10839PP      PP20943  13.116   6.563   9.262 -0.1527 -0.0146  0.2712
10840PP      PP20944   5.687   3.576   2.926 -0.0678  0.1693 -0.1519
10841PP      PP20945   0.763   8.364  11.418 -0.1808 -0.1150 -0.2193
10842PP      PP20946   7.789   4.029  10.750 -0.0526 -0.0470 -0.2099
10843PP      PP20947  11.994  14.619  13.209 -0.0535 -0.0460 -0.0838
10844PP      PP20948   3.939   1.840   0.578 -0.0371  0.1916  0.1468
10845PP      PP20949  14.222   0.617   9.256  0.1310  0.1307  0.0188
10846PP      PP20950   9.240   2.232   2.222  0.0264 -0.2159 -0.0131
10847PP      PP20951  15.422   4.544   1.624 -0.3010 -0.0639  0.2196
10848PP      PP20952  14.245  12.158   0.201 -0.0575 -0.0063 -0.0505
10849PP      PP20953   3.947   8.675  12.774  0.0259 -0.4060  0.0494
10850PP      PP20954   0.596   1.668   4.265 -0.0728 -0.0414  0.0702
10851PP      PP20955  10.504   0.505   1.004  0.0588  0.5070 -0.0059
10852PP      PP20956   2.041   4.974   1.205 -0.0980 -0.0670  0.1480
10853PP      PP20957  12.295   5.733   0.060  0.0055  0.1691 -0.3178
10854PP      PP20958  11.989  11.899   1.568 -0.0045  0.0353 -0.0770
10855PP      PP20959   2.589   9.041  10.664 -0.2109 -0.1144  0.2669
10856PP      PP20960  12.217  11.630  13.316  0.2709 -0.0357 -0.4730
10857PP      PP20961  12.044  15.321   9.161  0.1722  0.1194  0.0187
10858PP      PP20962  12.373   9.703  11.255 -0.1398 -0.5275 -0.1590
10859PP      PP20963   8.834  13.324   1.960  0.2174  0.0372 -0.0390
10860PP      PP20964   8.927   7.508   8.731  0.0477 -0.2350 -0.2279
10861PP      PP20965  12.090   8.262   4.703  0.1611 -0.1400  0.0379
10862PP      PP20966  12.879   7.678   0.030  0.0350 -0.1707  0.1126
10863PP      PP20967  14.286   9.252   8.976  0.3209  0.1216 -0.1972
10864PP      PP20968   7.708  11.268   4.097 -0.2179  0.0393 -0.0145
10865PP      PP20969   4.809   3.443   9.148  0.0827 -0.1196  0.3114
10866PP      PP20970  10.116  10.457   9.326 -0.1637 -0.1890  0.1765
10867PP      PP20971   0.383   3.740  10.376  0.0139  0.1663 -0.2210
10868PP      PP20972   2.879   1.919   2.949  0.1882  0.1937  0.2379
10869PP      PP20973   5.282   2.832   2.612  0.2066  0.0428 -0.0435
10870PP      PP20974   8.438   8.514  12.048  0.0576 -0.0849 -0.1288
10871PP      PP20975   6.414  15.034   4.537  0.4413  0.1127 -0.0473
10872PP      PP20976  12.842  11.887   1.525  0.2857  0.3328 -0.2758
10873PP      PP20977   9.942   8.886   4.077  0.1060  0.2479  0.0225
10874PP      PP20978   6.044  11.370  12.123 -0.0067 -0.2267 -0.0603
10875PP      PP20979   9.137  15.004   1.305  0.1000  0.2421 -0.0872
10876PP      PP20980   3.126   2.526   3.820  0.1140 -0.1995  0.2047
10877PP      PP20981   8.371   6.093  11.977 -0.1211 -0.1463  0.0300
10878PP      PP20982  15.342   3.892   0.823 -0.0293  0.2690 -0.0691
10879PP      PP20983  15.159  13.884   0.133 -0.1461  0.4307 -0.0584
10880PP      PP20984   7.858  13.611   3.493 -0.2007  0.0653  0.0673
10881PP      PP20985   2.548  13.284   1.341  0.0935 -0.1333 -0.1171
10882PP      PP20986   1.877  12.515  11.413  0.3287  0.3405 -0.1668
10883PP      PP20987  14.079   5.050   2.099  0.1342  0.0326 -0.0112
10884PP      PP20988   5.169  13.352   2.104 -0.0194  0.0341  0.3190
10885PP      PP20989  13.470  13.461  12.250  0.2127  0.0229 -0.0874
10886PP      PP20990  15.754  13.062   3.352 -0.1160 -0.1368 -0.0013
10887PP      PP20991  14.390   7.076   9.721 -0.0655 -0.0668 -0.1922
10888PP      PP20992   6.073   4.373   3.958 -0.4145 -0.3002 -0.0363
10889PP      PP20993   1.549   2.432  12.034 -0.0611 -0.0693  0.1242
10890PP      PP20994   4.938  10.620  12.495 -0.1409  0.1713  0.1488
10891PP      PP20995  10.738   0.785   3.753  0.0195 -0.0051 -0.1064
10892PP      PP20996   9.932  10.621   0.678  0.1654 -0.0448  0.1291
10893PP      PP20997  10.346  14.005   2.484  0.1417 -0.1372  0.1317
10894PP      PP20998  11.926   8.454  11.720  0.2642 -0.0020 -0.0999
10895PP      PP20999  14.349   3.759  11.911 -0.2234  0.0658 -0.2125
10896PP      PP21000   1.506   6.269   1.278  0.0952  0.0054  0.0796
10897PP      PP21001   5.717  10.094   1.250 -0.0638 -0.0399  0.1278
10898PP      PP21002   3.707  12.377  13.127  0.0079 -0.1075  0.0764
10899PP      PP21003  14.657   7.959   8.863  0.1204  0.0247 -0.1411
10900PP      PP21004  15.067   0.543  10.365  0.1703  0.0268 -0.5263
10901PP      PP21005  11.890   1.442   4.428 -0.1063  0.2328  0.1030
10902PP      PP21006  14.976  14.632   4.365 -0.0909  0.0683  0.0387
10903PP      PP21007  10.622   3.340   0.672 -0.1118 -0.1371  0.0950
10904PP      PP21008   7.001   4.375   0.157  0.0962 -0.1901  0.1722
10905PP      PP21009  11.240  11.427  12.539  0.1861  0.0232  0.3008
10906PP      PP21010  10.417   5.176  13.487 -0.0758  0.1387 -0.1174
10907PP      PP21011  15.594  10.175   1.180 -0.0346  0.2896 -0.2480
10908PP      PP21012   1.258  10.508   2.286  0.1701 -0.3303 -0.4114
10909PP      PP21013  13.388   8.770   9.090 -0.1321  0.1272 -0.0493
10910PP      PP21014   0.477  10.541  10.350 -0.2430 -0.3641 -0.1556
10911PP      PP21015   0.994   1.758   9.257  0.2221 -0.2250 -0.0378
10912PP      PP21016   2.769  12.544  12.313  0.0304 -0.5239 -0.3904
10913PP      PP21017   7.232  10.579  11.272  0.0002 -0.1732 -0.0879
10914PP      PP21018  13.346   6.232   3.319 -0.2835  0.2093  0.0676
10915PP      PP21019   6.960  14.530  11.548  0.1808 -0.2837  0.1122
10916PP      PP21020   4.340   3.334   8.351  0.1762 -0.0294  0.1890
10917PP      PP21021   1.234   8.940   2.263 -0.0740 -0.1657 -0.1238
10918PP      PP21022   9.626  10.084   0.007  0.0312  0.0423 -0.0498
10919PP      PP21023   9.937  14.202  12.138 -0.1641 -0.0719  0.2694
10920PP      PP21024   8.653  10.933   0.442  0.1701  0.2366  0.2617
10921PP      PP21025  12.773   6.626   2.736 -0.1804 -0.2694 -0.2656
10922PP      PP21026  15.335   6.457   0.078 -0.1816 -0.1082 -0.1053
10923PP      PP21027   2.047  14.535  10.772 -0.0154 -0.0157 -0.1241
10924PP      PP21028   0.399   8.611   1.265 -0.1203  0.0767  0.0654
10925PP      PP21029   7.216   5.620  12.775 -0.0794  0.0036 -0.0061
10926PP      PP21030   6.474   3.967   9.239 -0.1278  0.5026 -0.0132
10927PP      PP21031   5.126  15.435  11.948 -0.1692  0.0726  0.0692
10928PP      PP21032   0.710  13.475   2.061 -0.1125  0.1988  0.0410
10929PP      PP21033  11.994   0.218   9.710  0.1872 -0.2842  0.2404
10930PP      PP21034   8.152  14.344  13.426 -0.0085  0.1410 -0.0876
10931PP      PP21035   0.070   7.789   0.709 -0.0045 -0.0155  0.2098
10932PP      PP21036   1.675  14.342   3.480  0.2153 -0.0192 -0.0714
10933PP      PP21037   2.644   7.987  10.677  0.1262  0.0495  0.2039
10934PP      PP21038   6.897   7.543   2.190 -0.1401 -0.1097 -0.2059
10935PP      PP21039  14.643   5.598   2.790  0.0026  0.0223 -0.0662
10936PP      PP21040   7.319  14.471  12.808  0.0250  0.1061  0.1148
10937PP      PP21041  10.012   4.620   3.722  0.0985 -0.2538  0.0824
10938PP      PP21042  14.622   8.849   9.043  0.2700  0.2442  0.0345
10939PP      PP21043  14.511  12.729   9.186 -0.0832 -0.0972 -0.0218
10940PP      PP21044  14.466   7.073   1.685 -0.0691 -0.2511  0.2248
10941PP      PP21045   3.102   6.951  12.322 -0.1410  0.0323 -0.0053
10942PP      PP21046   0.760   3.094   8.424 -0.1316 -0.1133  0.0829
10943PP      PP21047  15.204  12.305   4.061  0.0234 -0.1464 -0.2314
10944PP      PP21048  10.621   9.908   0.124  0.0091  0.1679  0.1322
10945PP      PP21049   2.741   5.015  13.020  0.0360 -0.0478 -0.3378
10946PP      PP21050   6.049  15.176  11.595 -0.2354 -0.1379 -0.0203
10947PP      PP21051  15.681   9.212   2.030  0.0361 -0.1755 -0.1514
10948PP      PP21052  15.264   4.338   7.748 -0.3621  0.0047  0.0103
10949PP      PP21053  12.975   8.868   2.469 -0.1962  0.2340 -0.3178
10950PP      PP21054   7.463   4.359  12.308 -0.1641  0.0677 -0.1561
10951PP      PP21055   2.992   4.019   8.971 -0.0024  0.1240 -0.3860
10952PP      PP21056  10.069   4.172   3.534  0.2739  0.0149  0.1733
10953PP      PP21057   5.489   0.578  13.126  0.0647 -0.1285 -0.0558
10954PP      PP21058   9.618   8.264   2.403  0.2578 -0.1044 -0.0138
10955PP      PP21059   8.884  11.232   2.307 -0.2427  0.1077  0.0378
10956PP      PP21060  12.545   3.183   1.336 -0.0881 -0.2026 -0.0648
10957PP      PP21061   8.186   4.918  12.947 -0.1261 -0.3410 -0.1212
10958PP      PP21062  10.555   7.624   9.309 -0.0584 -0.0416  0.0635
10959PP      PP21063   6.072   2.029  11.052 -0.2978  0.2662 -0.3142
10960PP      PP21064   8.962   4.187  12.078  0.0956 -0.1375 -0.1901
10961PP      PP21065   5.829   2.521   9.280 -0.0669 -0.1942 -0.0141
10962PP      PP21066   0.026   8.837   3.413  0.1386 -0.0726  0.0278
10963PP      PP21067  15.435   6.385   0.628  0.0656  0.2490  0.1611
10964PP      PP21068   7.697   0.419  11.461  0.0832 -0.0795 -0.0207
10965PP      PP21069   1.419   1.359   3.868 -0.3243 -0.0696  0.1885
10966PP      PP21070   3.896   0.586   3.676 -0.0741  0.0897  0.3114
10967PP      PP21071   9.850   1.365  12.904  0.1712 -0.3507  0.5928
10968PP      PP21072   2.839   8.614   8.988 -0.1962 -0.1599 -0.0567
10969PP      PP21073   9.488   1.985   4.705 -0.1189  0.1863  0.0030
10970PP      PP21074   8.475  12.562   3.248 -0.2215  0.0484  0.3462
10971PP      PP21075   8.209   9.260   0.865 -0.0533  0.0682 -0.1658
10972PP      PP21076   6.791  13.942   1.483  0.1612 -0.3838 -0.4135
10973PP      PP21077   4.901  12.188   3.822 -0.0611 -0.1208 -0.0058
10974PP      PP21078  11.794  15.339  10.507  0.4115  0.0629  0.2291
10975PP      PP21079   7.728   1.104  10.177  0.3116 -0.2456  0.1135
10976PP      PP21080   2.362   8.566  11.283 -0.0310  0.2148 -0.1031
10977PP      PP21081   5.683   2.225  11.252  0.4528 -0.0784 -0.1452
10978PP      PP21082   7.634  13.633  12.303  0.0806  0.1028  0.1441
10979PP      PP21083   4.586   0.654   2.356  0.1410 -0.1255 -0.1333
10980PP      PP21084   4.557   1.082   4.306 -0.1272 -0.0202 -0.0322
10981PP      PP21085  13.171   2.546   3.520 -0.1833  0.0645 -0.2126
10982PP      PP21086   3.708  11.588   4.212 -0.1977  0.0877  0.0199
10983PP      PP21087   9.393   7.154  12.565 -0.1827 -0.3347 -0.2297
10984PP      PP21088   4.114  11.410   1.973  0.0886  0.2188  0.1270
10985PP      PP21089  13.351   5.714   0.204 -0.1035 -0.1578 -0.2397
10986PP      PP21090   7.300   5.265  13.187  0.6070  0.0258  0.1789
10987PP      PP21091   5.773   2.239   1.950  0.1603  0.1476  0.0052
10988PP      PP21092   1.720  12.949  13.302 -0.2035 -0.2346  0.0428
10989PP      PP21093   7.042  14.276  11.995  0.1685 -0.1725 -0.4329
10990PP      PP21094  14.315   9.909   0.781  0.1113 -0.5380  0.1649
10991PP      PP21095  14.233   8.830   1.959  0.0115 -0.0368  0.1581
10992PP      PP21096   2.539  12.072   9.284  0.0855 -0.0462  0.1299
10993PP      PP21097   8.132   2.654  11.736 -0.0300 -0.0353 -0.3025
10994PP      PP21098   4.435   0.694  10.172 -0.0793  0.1456 -0.2324
10995PP      PP21099  10.893  14.129  10.899  0.1601  0.1286 -0.0080
10996PP      PP21100  14.365  11.048  11.165  0.2221  0.2135 -0.1029
10997PP      PP21101  14.891  12.630   2.953 -0.2043 -0.1254  0.2970
10998PP      PP21102  14.268   8.968   9.463 -0.3378  0.6590 -0.2366
10999PP      PP21103   5.855   5.979   2.985  0.0422 -0.2209  0.2655
11000PP      PP21104   4.617  12.461   2.475 -0.0131  0.0123  0.3540
11001PP      PP21105  11.882   1.700   3.320  0.3438  0.0908  0.2597
11002PP      PP21106  15.579  11.401   4.864  0.1309 -0.0973 -0.2531
11003PP      PP21107   7.132   6.900  11.356  0.1435 -0.0943 -0.1238
11004PP      PP21108   1.809   5.566   1.491 -0.3270 -0.1031  0.0716
11005PP      PP21109   5.721   7.636   3.953 -0.1424  0.1187  0.0333
11006PP      PP21110   5.978  14.739   2.730 -0.0362 -0.1317 -0.0031
11007PP      PP21111   1.908  15.583  10.128 -0.0622 -0.4028  0.0275
11008PP      PP21112   8.567   7.172   3.253 -0.2676 -0.0497  0.2456
11009PP      PP21113  11.898   3.351   4.567  0.1710 -0.4007 -0.0604
11010PP      PP21114   2.939   6.456   0.148 -0.0443  0.2693  0.0773
11011PP      PP21115   2.017   2.582  12.040  0.0807  0.2218 -0.0407
11012PP      PP21116   0.367  11.402  12.871 -0.0462  0.0896  0.2653
11013PP      PP21117  14.705  14.649   0.359 -0.0536 -0.4650 -0.1992
11014PP      PP21118  13.924   6.168  12.507 -0.1992 -0.3417 -0.3337
11015PP      PP21119   2.925  15.372   4.398  0.0555 -0.1475 -0.2798
11016PP      PP21120   0.084  12.760   1.142  0.5039 -0.0683  0.0238
11017PP      PP21121   5.650   6.904   0.468 -0.1249  0.1749 -0.1304
11018PP      PP21122   4.643  10.623  11.380  0.4720 -0.2127  0.2145
11019PP      PP21123  14.579   0.339   1.987  0.0635 -0.0555 -0.0080
11020PP      PP21124   0.088   0.959  13.404  0.1501 -0.0377 -0.1017
11021PP      PP21125   9.519   3.282   4.017  0.1720 -0.3257 -0.2995
11022PP      PP21126   9.568   8.641  10.632  0.0748 -0.2907  0.0155
11023PP      PP21127  15.025  15.238   2.803 -0.0601  0.1321 -0.0319
11024PP      PP21128   4.733   7.917   9.707  0.0198 -0.1391 -0.2117
11025PP      PP21129   1.670   4.277   9.357 -0.1088 -0.1211 -0.1335
11026PP      PP21130   9.426   8.461   2.843  0.1758  0.1964  0.2384
11027PP      PP21131  15.150  10.359   1.380 -0.2041  0.0084 -0.3589
11028PP      PP21132   8.993   3.941   3.044  0.1553 -0.2877 -0.1203
11029PP      PP21133  13.219   4.243  10.042  0.3977  0.1467  0.1147
11030PP      PP21134   5.594   8.265  11.574  0.0522  0.1425  0.1211
11031PP      PP21135   7.435   8.135  11.813  0.0730 -0.3324 -0.3094
11032PP      PP21136   6.908   0.697   2.540  0.1291 -0.0985  0.0479
11033PP      PP21137  14.562   5.024  12.583  0.1402 -0.1514 -0.2874
11034PP      PP21138   9.022  14.607  10.987 -0.1524  0.0133  0.1118
11035PP      PP21139  10.563   4.098  10.942  0.1176 -0.0795  0.0330
11036PP      PP21140  10.283   9.983   3.732 -0.3042  0.1177 -0.1975
11037PP      PP21141   0.528   3.840   0.927  0.1353 -0.3181  0.0645
11038PP      PP21142   0.749   5.023   2.331  0.2109  0.2620 -0.0811
11039PP      PP21143   5.659  12.106   8.796  0.1842 -0.0113 -0.1859
11040PP      PP21144   5.539  13.157  11.665 -0.4349 -0.2252  0.1129
11041PP      PP21145   4.011   2.860   4.993 -0.2655 -0.1992  0.0828
11042PP      PP21146   6.767   0.119   9.960  0.0405  0.2738  0.0632
11043PP      PP21147  12.953  14.535   9.807 -0.1835  0.1870  0.0702
11044PP      PP21148   7.095   3.601  10.800  0.0872 -0.0084 -0.0683
11045PP      PP21149   8.011   5.002   3.209 -0.4194 -0.4442  0.1292
11046PP      PP21150  15.360  14.888   3.259  0.0428 -0.1658  0.2004
11047PP      PP21151   3.813  13.686  10.000 -0.0924 -0.0347  0.0322
11048PP      PP21152   5.093   4.350   8.872 -0.1305 -0.1357 -0.1440
11049PP      PP21153   6.517   7.510   9.458  0.0413  0.1298 -0.3295
11050PP      PP21154  12.781   1.139  11.978 -0.3708 -0.0177 -0.3252
11051PP      PP21155   5.813   1.068   3.443 -0.3288 -0.0311 -0.1243
11052PP      PP21156   8.223   4.596   2.855  0.1486 -0.2597 -0.0802
11053PP      PP21157   4.726  11.021   3.325 -0.0739 -0.0802 -0.0505
11054PP      PP21158   1.471   8.288  12.016  0.0359 -0.1445 -0.2181
11055PP      PP21159  15.120  12.889   0.568 -0.1837  0.0771 -0.0757
11056PP      PP21160  14.009   8.275  10.838  0.0884 -0.1048  0.0039
11057PP      PP21161   8.495  10.576   0.784  0.1234  0.3461 -0.2029
11058PP      PP21162   3.468   0.613  10.954 -0.0502  0.1115 -0.2552
11059PP      PP21163  12.498  14.918   9.220 -0.0754  0.3604 -0.0937
11060PP      PP21164  14.361   0.429   3.356 -0.0272  0.2989 -0.0685
11061PP      PP21165   0.612  13.106   9.538  0.3218 -0.1331 -0.2544
11062PP      PP21166   1.806   6.323   8.166 -0.3815  0.0337  0.0122
11063PP      PP21167   0.598   0.693   0.732  0.1057 -0.2463 -0.0002
11064PP      PP21168   2.402   1.800   9.514 -0.0208  0.1324 -0.0652
11065PP      PP21169   6.645   4.148  10.082 -0.0089  0.2475 -0.1861
11066PP      PP21170   0.759   7.432  11.593  0.0178  0.0935 -0.0523
11067PP      PP21171  14.438  14.919  11.851  0.2998  0.0953  0.3431
11068PP      PP21172  14.483  13.637   2.562  0.0722 -0.0871  0.1197
11069PP      PP21173   6.992   7.737   3.690 -0.0721  0.1173 -0.1675
11070PP      PP21174  12.344  14.563   8.928 -0.0628  0.0735  0.1563
11071PP      PP21175  10.106   2.543  11.090 -0.0033 -0.5196  0.5923
11072PP      PP21176   2.231   8.990  11.004 -0.0297  0.2465 -0.2480
11073PP      PP21177   5.476  12.350   9.698 -0.3354  0.0079  0.0075
11074PP      PP21178   1.194   1.451  13.321 -0.3228 -0.0340 -0.1983
11075PP      PP21179  15.062  13.301   2.969  0.0042 -0.0507  0.1163
11076PP      PP21180   8.634   6.632  13.350  0.0819  0.2663  0.0343
11077PP      PP21181   1.511   8.147   8.258 -0.2956  0.1124  0.0192
11078PP      PP21182   1.272   7.312  12.965 -0.2436  0.0897 -0.0054
11079PP      PP21183   1.638  14.651   9.591 -0.0704 -0.1468 -0.4921
11080PP      PP21184  14.264   5.064   9.956 -0.1600 -0.1587 -0.3427
11081PP      PP21185   3.356   9.858  13.520 -0.0698  0.2802 -0.0554
11082PP      PP21186   5.983   6.889   9.370 -0.1188 -0.3060 -0.0536
11083PP      PP21187   4.907  12.687   3.844 -0.1315 -0.1112 -0.1682
11084PP      PP21188  14.213   0.437  13.015 -0.3477 -0.1416 -0.0918
11085PP      PP21189   4.182   3.644  11.483 -0.0316 -0.0737  0.2163
11086PP      PP21190   4.441   2.637   1.090 -0.1477 -0.0305 -0.1737
11087PP      PP21191   1.885   9.076  10.053 -0.1260 -0.1610 -0.1441
11088PP      PP21192  13.303   1.620   0.465  0.3596 -0.0601 -0.2619
11089PP      PP21193  13.590   2.524   2.405  0.0386  0.1047 -0.0838
11090PP      PP21194   0.498   1.555   1.655 -0.0979  0.1071 -0.2188
11091PP      PP21195  12.614  10.585   2.853  0.3894 -0.1972  0.2226
11092PP      PP21196   0.803   5.099  10.363  0.3210  0.2988  0.1151
11093PP      PP21197   2.215   6.710   0.981  0.1170 -0.0727 -0.0802
11094PP      PP21198   7.873   7.825  11.093 -0.1108  0.0380 -0.2798
11095PP      PP21199   1.052   9.395   2.154 -0.4506  0.0718 -0.2138
11096PP      PP21200  14.277   0.164  11.247 -0.0083 -0.0980 -0.2231
11097PP      PP21201  11.934   1.668   0.653  0.2075 -0.1615  0.2990
11098PP      PP21202   7.998  13.273  12.414  0.0980 -0.1074 -0.1956
11099PP      PP21203   5.869  14.459   1.316  0.0281 -0.1713 -0.3852
11100PP      PP21204   7.913  14.568   0.708 -0.0141 -0.3411  0.1080
11101PP      PP21205  13.426  15.847   9.636  0.1719  0.0232 -0.1048
11102PP      PP21206  12.857   2.823   1.529  0.0334  0.1207  0.3335
11103PP      PP21207   5.892   1.775   1.728  0.2276  0.0683  0.3804
11104PP      PP21208   8.333   9.909   2.134  0.1963 -0.0120 -0.1951
11105PP      PP21209   9.967   6.838   2.570 -0.0421  0.1384 -0.1419
11106PP      PP21210  10.020   4.722  12.977 -0.1108  0.3860  0.1828
11107PP      PP21211   3.614   0.175   9.486 -0.3181  0.1372  0.3801
11108PP      PP21212  13.138   2.329   7.834  0.0783 -0.1784 -0.1022
11109PP      PP21213  13.836   0.780   3.348  0.0008 -0.2487  0.0073
11110PP      PP21214   4.309  15.388  12.802  0.1982 -0.1306  0.0068
11111PP      PP21215  13.193  14.127  11.790 -0.2941  0.3126  0.1906
11112PP      PP21216   8.267  13.917   0.300 -0.2103  0.5739 -0.0029
11113PP      PP21217   7.601  11.163   1.382 -0.0556  0.2069 -0.0281
11114PP      PP21218  11.605   4.563   1.745  0.0276 -0.2419  0.2623
11115PP      PP21219   7.447  10.138  10.875  0.2419 -0.0139 -0.0194
11116PP      PP21220  10.280  11.088  10.439 -0.1755 -0.0107 -0.0768
11117PP      PP21221   4.114   2.549  11.646  0.0082  0.2496  0.0869
11118PP      PP21222   1.703   0.526   1.750 -0.0043  0.0212  0.1681
11119PP      PP21223  11.861  11.396   2.692  0.0415  0.1967  0.1369
11120PP      PP21224   1.960   8.375   3.016 -0.3035  0.1079  0.2018
11121PP      PP21225  13.260  10.116   1.126 -0.1047 -0.2876  0.0109
11122PP      PP21226   4.893   8.546  11.976 -0.2115 -0.0855 -0.0405
11123PP      PP21227   0.191   3.039   9.415 -0.0627 -0.2181  0.1967
11124PP      PP21228   1.898   6.437  12.520  0.0799 -0.3856  0.0323
11125PP      PP21229   7.101   2.785   0.825 -0.0119  0.1664 -0.0455
11126PP      PP21230   5.941  12.139   9.783  0.3337 -0.1997 -0.0369
11127PP      PP21231  14.347   7.387   1.234  0.1310 -0.1112  0.0129
11128PP      PP21232   4.307   7.357   3.297  0.3363  0.0919 -0.1683
11129PP      PP21233  11.955   4.603  12.775 -0.0245 -0.3433 -0.0006
11130PP      PP21234  11.258   1.592   9.560  0.3436  0.2022  0.1792
11131PP      PP21235  11.331   8.923   9.506 -0.1551  0.4328  0.2874
11132PP      PP21236   5.021   0.196   3.351  0.1340  0.0585  0.0218
11133PP      PP21237   1.231   8.578  13.011  0.0370  0.0866  0.0142
11134PP      PP21238   3.901  11.991  10.360 -0.1927  0.2477  0.0137
11135PP      PP21239  12.534  12.054  11.424  0.0164  0.0750 -0.2509
11136PP      PP21240  11.433   7.080  11.511 -0.2161  0.0096 -0.2788
11137PP      PP21241   9.291   3.135   3.041 -0.1471  0.4349 -0.1019
11138PP      PP21242   2.484   3.221   4.912  0.0101  0.0035 -0.0369
11139PP      PP21243   5.876  13.003  12.073 -0.1308 -0.0414 -0.1050
11140PP      PP21244  10.226  12.415   4.662 -0.0339  0.1602 -0.1010
11141PP      PP21245  11.348   8.379  11.140 -0.1204  0.0719 -0.0437
11142PP      PP21246  14.236  14.479  11.109  0.2390  0.0242 -0.0113
11143PP      PP21247  13.020  14.606  11.753  0.1479 -0.3446  0.1134
11144PP      PP21248   3.882   3.096   1.286  0.1808  0.1797  0.0277
11145PP      PP21249   2.410   4.127  13.422  0.0802 -0.2919  0.1358
11146PP      PP21250   7.069   6.048   1.929 -0.1673  0.1138  0.3128
11147PP      PP21251  13.994  12.537   1.907  0.0764 -0.2972  0.0023
11148PP      PP21252   8.874   2.588   4.437 -0.5545 -0.1411  0.1267
11149PP      PP21253  11.114  14.510   0.334  0.2385 -0.1119  0.2872
11150PP      PP21254   9.938  12.436   9.079 -0.0502 -0.0079 -0.1566
11151PP      PP21255  13.692  15.114   3.929  0.1220  0.0090 -0.0616
11152PP      PP21256  15.532   1.674  11.454  0.1039  0.1029  0.2143
11153PP      PP21257  13.936   2.962  12.450  0.1328  0.0494  0.0108
11154PP      PP21258   3.022  15.547  10.909 -0.3784 -0.3113  0.0348
11155PP      PP21259   8.643  11.608   9.583  0.0957 -0.0745  0.1502
11156PP      PP21260  13.509   7.222   2.875 -0.0446 -0.0106 -0.0250
11157PP      PP21261   5.715   0.087   2.182  0.1867 -0.1359 -0.1693
11158PP      PP21262   8.699  14.302   3.123 -0.0373 -0.2697  0.0780
11159PP      PP21263  10.498  13.782   8.838 -0.0167 -0.2013  0.3458
11160PP      PP21264  15.778   0.359   3.772 -0.3449 -0.0920 -0.2930
11161PP      PP21265   7.049   7.072   1.680  0.0282 -0.3529 -0.1491
11162PP      PP21266   6.082   4.053   8.955 -0.0190 -0.1779 -0.1521
11163PP      PP21267   1.849  13.609   3.887  0.2616  0.3167 -0.2025
11164PP      PP21268   6.195  12.709   9.141  0.1761 -0.0938 -0.2420
11165PP      PP21269   0.877   0.677   8.880 -0.3296  0.1804 -0.2529
11166PP      PP21270   6.349   5.651   3.090  0.4104 -0.0210  0.0466
11167PP      PP21271   6.119  14.212  12.694 -0.2513  0.1491 -0.0492
11168PP      PP21272   1.325   0.418   9.981 -0.3766  0.1245 -0.0153
11169PP      PP21273   1.454   2.357  10.807  0.5100 -0.2305 -0.0702
11170PP      PP21274   5.830   4.103   1.499 -0.1783 -0.0294  0.2860
11171PP      PP21275   9.559   6.876   2.810 -0.2136 -0.2576 -0.4892
11172PP      PP21276   0.007   2.284  10.375  0.0445 -0.0947 -0.0029
11173PP      PP21277   1.746   8.833  12.912 -0.0305  0.1410 -0.0240
11174PP      PP21278  10.886   6.777   2.397  0.0561  0.0863 -0.1705
11175PP      PP21279   3.119   3.590   8.684 -0.1544 -0.0446 -0.2346
11176PP      PP21280   7.888  12.542  12.400 -0.1136 -0.1652  0.1769
11177PP      PP21281   4.803  11.468   4.266  0.0771  0.5031 -0.0441
11178PP      PP21282   3.866  11.429  13.180 -0.1077 -0.2182 -0.0830
11179PP      PP21283   9.197  13.604  11.006 -0.0157 -0.2240  0.0918
11180PP      PP21284  11.868   3.483  12.302  0.0379  0.0120  0.1659
11181PP      PP21285  12.925  12.995   0.577  0.2544 -0.0457 -0.1337
11182PP      PP21286  15.527   6.320  12.649  0.1972  0.0348  0.1334
11183PP      PP21287   8.334  12.100  10.318 -0.1905 -0.0393  0.0718
11184PP      PP21288   3.185   7.830  11.900  0.1916 -0.1949 -0.4270
11185PP      PP21289  15.559  14.324  11.731 -0.0733  0.1543 -0.2851
11186PP      PP21290  14.989  10.727   0.178  0.3384  0.1941  0.0700
11187PP      PP21291   8.966   1.477   2.921  0.1441 -0.5591  0.0403
11188PP      PP21292  11.179   9.329   3.569 -0.3174 -0.1089 -0.1259
11189PP      PP21293   1.974   8.735  11.889 -0.0409  0.4601  0.0715
11190PP      PP21294   9.580   6.942   3.838 -0.1905  0.0595  0.0952
11191PP      PP21295  11.456   7.192  10.366 -0.1716 -0.3143  0.2570
11192PP      PP21296   1.508   5.585   1.854  0.0983 -0.0485  0.0113
11193PP      PP21297   8.067   2.052  11.306  0.1043  0.0534  0.0193
11194PP      PP21298   4.870   1.322   4.946  0.1502 -0.0893  0.1816
11195PP      PP21299   3.817   4.454   0.899 -0.3009  0.2388 -0.0452
11196PP      PP21300   3.645   8.267  10.769 -0.1460  0.2403  0.1041
11197PP      PP21301   8.717   1.972   3.571  0.0824  0.0257  0.1517
11198PP      PP21302   1.094   1.159   2.874  0.0424 -0.0755  0.1638
11199PP      PP21303   5.736   2.558   1.559 -0.3157 -0.0414 -0.2560
11200PP      PP21304  13.704   7.291   8.214 -0.0111  0.2920 -0.1836
11201PP      PP21305  13.307   6.434  11.259  0.2172 -0.0839 -0.1319
11202PP      PP21306  11.926   0.815  13.224 -0.1046  0.0664 -0.4050
11203PP      PP21307  10.159   3.606  11.920 -0.1303  0.1974  0.2109
11204PP      PP21308   1.688   3.638   3.307 -0.0687 -0.0962  0.1341
11205PP      PP21309  11.658  12.504   9.340 -0.0394 -0.0300  0.0673
11206PP      PP21310  10.650   0.754   2.140 -0.0522 -0.2281 -0.1655
11207PP      PP21311  14.433   7.166  11.527  0.1381 -0.4260  0.2159
11208PP      PP21312  13.671   5.956   1.993 -0.3372  0.0868  0.0455
11209PP      PP21313   3.999  15.669  10.489 -0.3296 -0.2880  0.0547
11210PP      PP21314   1.747  13.793  10.366  0.1790  0.1510  0.1260
11211PP      PP21315   2.260  15.426  13.472  0.0906 -0.1298  0.1988
11212PP      PP21316  15.444  15.864   4.081 -0.0667  0.3415  0.2061
11213PP      PP21317   6.449  12.883   0.712  0.0125  0.0638 -0.0285
11214PP      PP21318   4.890   1.563  10.282 -0.1725 -0.0505 -0.2945
11215PP      PP21319  10.971   9.545   3.221  0.4281  0.1240  0.1254
11216PP      PP21320   0.847  14.718   1.819 -0.1256 -0.3634  0.0932
11217PP      PP21321  15.240  13.460  10.002  0.0454  0.1245  0.0403
11218PP      PP21322  15.073   3.514   1.720 -0.1320  0.2322  0.3874
11219PP      PP21323  10.376  10.919  11.925 -0.0107 -0.0582  0.0326
11220PP      PP21324   2.573   3.154  10.127 -0.0523  0.0191 -0.1250
11221PP      PP21325   5.784  13.334  12.447  0.2427  0.1867 -0.1866
11222PP      PP21326   2.242   9.336   2.144  0.0623  0.3515 -0.0032
11223PP      PP21327   1.336   4.300   3.204 -0.2884  0.1837 -0.1944
11224PP      PP21328  15.587  12.072  11.923  0.2076 -0.0288 -0.1283
11225PP      PP21329  10.263   6.342   3.897 -0.0004  0.0195 -0.2511
11226PP      PP21330   6.636  13.366  12.071 -0.0563 -0.1980  0.2438
11227PP      PP21331  10.811   5.442   2.828 -0.0342 -0.2533 -0.1384
11228PP      PP21332  10.503   0.463   1.487  0.1929 -0.0074  0.1429
11229PP      PP21333  11.232   8.763   3.410  0.1673 -0.0855 -0.3424
11230PP      PP21334  12.449   2.603  10.260 -0.2006 -0.1020 -0.4434
11231PP      PP21335  14.211   2.981   0.417  0.0463 -0.0562  0.0504
11232PP      PP21336   5.434   8.276   1.020 -0.1347 -0.0482  0.1689
11233PP      PP21337  14.512   3.241  11.188  0.0484 -0.0916  0.4108
11234PP      PP21338   2.527   1.892  12.964 -0.1412 -0.2734 -0.3390
11235PP      PP21339   1.285   7.978   9.403 -0.0647  0.4335 -0.0923
11236PP      PP21340   4.813  10.174  12.626  0.1058  0.1576 -0.0965
11237PP      PP21341  10.672   0.053   2.694 -0.0775 -0.0346 -0.2041
11238PP      PP21342   8.588   0.482   3.945  0.0602 -0.4766  0.0852
11239PP      PP21343   5.943   2.991   1.408  0.1034 -0.1845  0.3108
11240PP      PP21344   7.406   8.175   8.537 -0.0286  0.3292 -0.1953
11241PP      PP21345   2.530   3.536  11.595  0.0507  0.0588  0.1118
11242PP      PP21346   7.313  10.085  11.400 -0.1143  0.2939 -0.1171
11243PP      PP21347  11.693   9.105   4.317 -0.4239  0.2461  0.1341
11244PP      PP21348   2.730  13.454  12.275  0.0279  0.0062  0.2988
11245PP      PP21349   3.382  14.371   0.821 -0.2094  0.1075 -0.0093
11246PP      PP21350   8.444   0.067   3.558 -0.1002  0.0977  0.1162
11247PP      PP21351   7.188   4.115  12.695 -0.0977 -0.1413 -0.1785
11248PP      PP21352  13.668   2.379   0.087 -0.3149  0.2746  0.2046
11249PP      PP21353  11.704   3.051  12.441  0.2208  0.1448  0.1763
11250PP      PP21354   5.539   3.297   1.342  0.1653 -0.2115  0.1618
11251PP      PP21355   2.411   8.545   0.191 -0.0362 -0.1584 -0.0575
11252PP      PP21356  10.362   9.276  12.627 -0.0984 -0.0814  0.0506
11253PP      PP21357   9.140  15.411  11.994 -0.2103  0.3953  0.1060
11254PP      PP21358   1.650  14.269  10.605  0.3115  0.3038 -0.1996
11255PP      PP21359  13.965   7.364   2.594 -0.1791  0.2695  0.0026
11256PP      PP21360  10.494   8.064   3.103 -0.3432 -0.1916  0.2380
11257PP      PP21361  15.046   6.185  12.870  0.1195 -0.0937  0.0425
11258PP      PP21362   1.857   3.119  12.160 -0.0654  0.1555  0.0108
11259PP      PP21363   7.466   0.618  11.012  0.0170 -0.0017  0.2437
11260PP      PP21364   2.371   8.285   8.580 -0.2784 -0.0855  0.1519
11261PP      PP21365   6.104   8.620   1.420  0.2015  0.2001  0.1371
11262PP      PP21366   1.557   7.553   3.453  0.1370  0.0401 -0.0553
11263PP      PP21367   3.957   6.588   3.593  0.2129  0.1050  0.0526
11264PP      PP21368   4.331  11.850   2.125 -0.0710 -0.0754  0.1164
11265PP      PP21369   0.431   9.562  10.281  0.4694  0.1004  0.1134
11266PP      PP21370  14.489   1.331  10.356  0.2523 -0.0948  0.1786
11267PP      PP21371   0.721   4.717  10.730  0.0789  0.0714 -0.1500
11268PP      PP21372   7.287   4.610   1.054 -0.0841  0.1988 -0.0935
11269PP      PP21373   8.381  12.550   2.272  0.1547 -0.2150 -0.1032
11270PP      PP21374   5.590  11.521  12.139  0.0707 -0.0618  0.0617
11271PP      PP21375   4.450   9.600   1.768  0.1083 -0.0934  0.0250
11272PP      PP21376  13.299   7.971   0.015 -0.0605  0.0388 -0.1582
11273PP      PP21377   0.098  13.740   9.809  0.2412 -0.1964  0.0599
11274PP      PP21378  11.109   4.626  12.059 -0.0451  0.3983  0.1456
11275PP      PP21379  10.910  13.615  11.185  0.0824  0.2258 -0.1994
11276PP      PP21380   6.706   7.053  10.943 -0.2184 -0.2954  0.1565
11277PP      PP21381   5.110   6.739  10.956 -0.1836 -0.2544  0.0104
11278PP      PP21382   9.620  11.597   3.549  0.0399  0.0296  0.3594
11279PP      PP21383   6.409  15.064  10.310  0.2502  0.1691 -0.1370
11280PP      PP21384   2.902   4.498  12.079 -0.2289  0.0821  0.0145
11281PP      PP21385   5.174  13.564  11.725  0.2036 -0.2108 -0.0168
11282PP      PP21386  12.412   0.022  13.413  0.0396  0.0408 -0.0180
11283PP      PP21387   0.295  13.673  12.900  0.0906  0.0134 -0.0762
11284PP      PP21388   9.149   9.903   9.360  0.0027 -0.3986 -0.3026
11285PP      PP21389  13.052  15.110   3.154  0.1547 -0.2332 -0.0260
11286PP      PP21390   8.442  11.778   2.837  0.3554  0.1784 -0.1506
11287PP      PP21391   9.118  15.354   2.226  0.3390 -0.2410 -0.0642
11288PP      PP21392   9.215  15.783   1.971 -0.1199 -0.1740  0.1480
11289PP      PP21393  15.099   0.791  11.461  0.3537 -0.0262  0.2363
11290PP      PP21394   1.952   9.538   1.235  0.1620 -0.1008 -0.3606
11291PP      PP21395  11.944  14.983   1.897 -0.3064 -0.2797  0.0972
11292PP      PP21396   5.211   0.576  11.776  0.1518  0.1673  0.1104
11293PP      PP21397  14.803  14.012   4.098 -0.2777 -0.0168 -0.2585
11294PP      PP21398  10.385   6.873   0.093 -0.1690  0.0686  0.4229
11295PP      PP21399  13.268   0.360  13.244  0.0359 -0.1452 -0.5401
11296PP      PP21400  11.848   8.966   2.266  0.0297  0.2040  0.2385
11297PP      PP21401   7.022  11.520   9.612  0.1307  0.3066 -0.0852
11298PP      PP21402   6.557   7.728   3.411 -0.1687  0.0287 -0.0606
11299PP      PP21403  10.482   8.742  10.728 -0.0470  0.0181  0.1614
11300PP      PP21404   7.496  13.588  10.857  0.0369 -0.1819  0.0095
11301PP      PP21405  10.174  10.953   3.551 -0.3141 -0.1851  0.1167
11302PP      PP21406  15.601  11.232  12.817  0.2840 -0.3295  0.1800
11303PP      PP21407  11.600  14.212  12.055 -0.0519  0.2245  0.0880
11304PP      PP21408   9.341  12.560   2.867  0.1748  0.3418  0.0997
11305PP      PP21409   0.901  12.162   0.842  0.0228 -0.0937 -0.3191
11306PP      PP21410   4.847   2.513  12.161 -0.1203 -0.2299 -0.1463
11307PP      PP21411   5.541  13.642   0.607 -0.1162  0.2372  0.1831
11308PP      PP21412  11.260  11.507   0.029 -0.1047 -0.1829 -0.0590
11309PP      PP21413   3.370  10.642   1.999  0.1066  0.3496  0.1040
11310PP      PP21414   7.414   6.260  12.197 -0.1732  0.0613 -0.2018
11311PP      PP21415  13.189  10.089  10.386  0.0504  0.2250 -0.0223
11312PP      PP21416  11.791   5.100   1.333 -0.1326 -0.2523 -0.1302
11313PP      PP21417  10.528   8.419  12.538  0.0502  0.2540 -0.2191
11314PP      PP21418   5.018  14.917   0.632  0.1633  0.0823 -0.1213
11315PP      PP21419   2.005  12.038  13.072 -0.0072  0.0096 -0.3533
11316PP      PP21420   6.964   5.083  12.006 -0.0794 -0.0960  0.1743
11317PP      PP21421  11.638  10.720  12.032 -0.1691 -0.0701  0.0807
11318PP      PP21422   8.818   2.073   9.832 -0.1153  0.3458 -0.2518
11319PP      PP21423   7.263  12.058   3.985  0.0508 -0.0240 -0.0576
11320PP      PP21424   5.139  15.691   2.276 -0.1300  0.1140  0.0323
11321PP      PP21425   6.912  10.071  10.206 -0.1463 -0.0936 -0.0568
11322PP      PP21426   6.983   1.592   0.776 -0.1483  0.0690  0.2489
11323PP      PP21427   1.813   2.142   3.014  0.3982 -0.0875 -0.0619
11324PP      PP21428  11.992  14.765   0.853  0.0568  0.0136  0.0493
11325PP      PP21429  15.654   2.968  12.882 -0.0108 -0.2354  0.1771
11326PP      PP21430   7.406   6.472   1.034  0.2431 -0.0265 -0.0902
11327PP      PP21431   2.765   5.854  11.256  0.1506  0.0702 -0.0597
11328PP      PP21432  10.590  15.074  11.292  0.0043 -0.0498  0.3735
11329PP      PP21433   3.643  14.576   9.010  0.0406  0.1665 -0.3785
11330PP      PP21434   4.226   6.335   1.353  0.0656  0.2529 -0.1649
11331PP      PP21435   2.560  12.738   8.612 -0.2090  0.1153 -0.3300
11332PP      PP21436  13.673   7.691   1.699  0.0596 -0.0217 -0.0387
11333PP      PP21437  13.398   5.657  11.818  0.1691  0.1438  0.1638
11334PP      PP21438   2.498   0.932   1.779 -0.1806  0.0048  0.1497
11335PP      PP21439  13.080  13.566   2.316  0.1238  0.1348  0.2050
11336PP      PP21440  14.457  10.924  13.519  0.2467  0.0293 -0.0275
11337PP      PP21441   6.467   5.162  10.811  0.1997  0.1016 -0.0206
11338PP      PP21442  14.499   5.080   0.058 -0.1430  0.0258  0.2596
11339PP      PP21443  13.609   1.918  12.728  0.0703 -0.0507 -0.1269
11340PP      PP21444  14.656   9.813   1.948  0.1572  0.0328 -0.0033
11341PP      PP21445  11.520   1.898   4.610 -0.0139  0.0509 -0.0143
11342PP      PP21446  12.259  11.171   3.975  0.1791 -0.3805 -0.1230
11343PP      PP21447   3.243  15.732   9.498 -0.0508  0.0323  0.0983
11344PP      PP21448   2.577   6.489   2.413 -0.4069 -0.1075 -0.2304
11345PP      PP21449  13.123  14.851   2.703 -0.0677 -0.2246 -0.3764
11346PP      PP21450   8.314  11.930   3.431 -0.0312 -0.2623 -0.2344
11347PP      PP21451  11.179   0.466  11.727 -0.1040 -0.1789 -0.1969
11348PP      PP21452   4.167   3.061   2.326 -0.0240  0.2604  0.1841
11349PP      PP21453  10.849   5.582   2.282 -0.1455  0.0794  0.0157
11350PP      PP21454  10.588  11.601   9.824 -0.0254 -0.0424 -0.2280
11351PP      PP21455   6.601   3.741   1.830  0.1202 -0.0988 -0.0036
11352PP      PP21456   6.626   3.895  12.502 -0.2294  0.2131 -0.1592
11353PP      PP21457   3.620   2.401   1.172  0.3262 -0.4328 -0.0392
11354PP      PP21458  15.097   5.665  12.115 -0.0650 -0.1760 -0.0883
11355PP      PP21459  10.543   7.661  12.220  0.0558  0.0684 -0.1056
11356PP      PP21460  13.471   7.088  10.571  0.2022 -0.0402 -0.3837
11357PP      PP21461   6.729  12.458  11.347 -0.3355 -0.1141  0.0617
11358PP      PP21462   6.368  10.721   9.647  0.0803 -0.1448 -0.1090
11359PP      PP21463  14.336   0.498   4.668 -0.0474  0.1037 -0.2292
11360PP      PP21464  11.335  12.939   0.593  0.0612  0.1731  0.2118
11361PP      PP21465   2.756  12.736  12.989 -0.1815  0.4030 -0.0938
11362PP      PP21466   5.410   7.713  11.246  0.1220  0.1386 -0.1043
11363PP      PP21467   3.356   2.916   4.216  0.0235  0.1599 -0.3328
11364PP      PP21468   6.396   8.180   3.160 -0.1428 -0.1669  0.0262
11365PP      PP21469   9.395   9.706   3.186 -0.0076  0.1160 -0.0884
11366PP      PP21470   8.772   5.410   4.227  0.1658  0.1417 -0.1555
11367PP      PP21471   8.633   4.746  12.824 -0.1835  0.3225  0.0820
11368PP      PP21472  14.963  10.176  11.397 -0.1665 -0.1956 -0.1546
11369PP      PP21473   6.288   2.654  13.094  0.1763 -0.2653 -0.0314
11370PP      PP21474   8.296  10.451  13.259  0.1188 -0.0057  0.0809
11371PP      PP21475   7.639  13.180   9.725  0.1821  0.2780 -0.1297
11372PP      PP21476   1.619  10.217  11.941  0.0138 -0.0511 -0.1612
11373PP      PP21477  11.352   4.962   0.276  0.0719  0.1662 -0.1176
11374PP      PP21478   9.057   9.679  11.752  0.1291  0.0238  0.0529
11375PP      PP21479  13.840   6.967   7.268 -0.2659 -0.0533  0.1096
11376PP      PP21480  15.635   8.205  11.519  0.0331  0.2363  0.2068
11377PP      PP21481  11.011   3.583   3.103 -0.1609 -0.0392  0.0206
11378PP      PP21482  14.664   7.094  11.062 -0.3066 -0.1550  0.3442
11379PP      PP21483   6.829   0.568  12.662 -0.1262 -0.4405  0.0926
11380PP      PP21484   2.254   1.324   9.400  0.1291  0.2517  0.0458
11381PP      PP21485   5.078   2.341   1.354  0.0368 -0.2520 -0.3681
11382PP      PP21486  10.993   1.073  12.406 -0.2525  0.1314  0.1071
11383PP      PP21487  15.455  11.348   2.319  0.3535  0.0502  0.0363
11384PP      PP21488   8.205   6.853  10.368  0.0603  0.1074 -0.0670
11385PP      PP21489  13.557  10.933   2.726 -0.0373  0.0209  0.0868
11386PP      PP21490   8.775   5.178   0.036 -0.1083  0.1309 -0.0622
11387PP      PP21491  13.729  14.603  12.198  0.2650 -0.2222  0.0697
11388PP      PP21492  12.869  12.861   1.108 -0.0517  0.0863  0.1276
11389PP      PP21493   7.745   9.384  12.213 -0.1006 -0.1928 -0.1590
11390PP      PP21494   0.397   0.805   3.669  0.0121 -0.1022  0.2338
11391PP      PP21495  10.382   7.915   9.793  0.1717  0.0442  0.1478
11392PP      PP21496  12.448   5.678   1.918  0.3470 -0.0810  0.1186
11393PP      PP21497   9.558  10.787  12.652  0.1570  0.0391 -0.2818
11394PP      PP21498  15.279   9.512  11.274 -0.0148 -0.0679  0.1595
11395PP      PP21499   4.122   9.680  13.018 -0.3850 -0.0181 -0.2247
11396PP      PP21500  14.141   3.862   1.697 -0.1159  0.1863 -0.1353
11397PP      PP21501   2.210   1.318  12.785  0.2170 -0.1492  0.0469
11398PP      PP21502  14.440  11.883   8.813  0.1142 -0.1793 -0.0483
11399PP      PP21503   0.921  10.804  13.199 -0.0070  0.2841 -0.0542
11400PP      PP21504   8.244   4.151  10.574 -0.0972  0.2064 -0.1412
11401PP      PP21505  15.692   3.691  12.313  0.3903 -0.2258 -0.0829
11402PP      PP21506   6.842  14.986  11.894 -0.0275 -0.1734  0.1225
11403PP      PP21507  11.005  15.308  11.835 -0.0600  0.1261  0.2166
11404PP      PP21508   5.350   4.245   2.229 -0.2034 -0.0467 -0.2896
11405PP      PP21509  14.513   3.755  11.001 -0.1870 -0.3788 -0.1491
11406PP      PP21510  11.989   1.953  11.499 -0.0182 -0.0550  0.0602
11407PP      PP21511  14.407   5.588   9.368 -0.0249 -0.1242 -0.0179
11408PP      PP21512   5.491  13.142   0.383  0.1328 -0.0749 -0.0143
11409PP      PP21513  12.545   6.107   1.684 -0.0848  0.0045  0.1835
11410PP      PP21514  12.521   9.866   4.167  0.0215 -0.3183  0.0731
11411PP      PP21515  11.456   5.634   8.663  0.3563  0.1174  0.3044
11412PP      PP21516   0.748   7.206   9.114 -0.1513  0.0158  0.0724
11413PP      PP21517   0.109   8.329   0.162 -0.0356 -0.1539  0.1134
11414PP      PP21518  15.283   5.884  10.219  0.1052 -0.0207  0.2825
11415PP      PP21519   2.520   9.376   9.411  0.3441  0.0293  0.0941
11416PP      PP21520   7.544   4.748   1.819 -0.1677  0.2062  0.0888
11417PP      PP21521   9.453   6.988  11.041  0.1491  0.0322  0.1948
11418PP      PP21522   0.619  12.306  12.012  0.1754  0.0219  0.0769
11419PP      PP21523   1.885  14.955   4.374  0.3283 -0.0649 -0.0056
11420PP      PP21524  12.707   8.277  11.062 -0.1898  0.0386 -0.0131
11421PP      PP21525   2.990   5.587  12.635 -0.2070 -0.0509 -0.1990
11422PP      PP21526   7.028   8.186   3.957  0.4478 -0.0887 -0.2711
11423PP      PP21527   6.108   1.112  12.124 -0.0420 -0.0471  0.0683
11424PP      PP21528  12.822   6.433   8.003  0.0297 -0.0162 -0.1116
11425PP      PP21529  10.063   5.838  12.122  0.3892  0.0859  0.1924
11426PP      PP21530   3.685   7.788  11.821 -0.0807  0.1038  0.0494
11427PP      PP21531   6.526   7.807   0.369 -0.1240  0.1618 -0.0373
11428PP      PP21532   1.235  12.206   4.242 -0.0139 -0.0814 -0.2947
11429PP      PP21533  11.823   3.649  10.948  0.0845  0.1450 -0.1559
11430PP      PP21534  12.619  14.727  11.394 -0.1830  0.0242  0.0476
11431PP      PP21535   6.743   1.662  11.935  0.0877 -0.0033  0.2523
11432PP      PP21536  10.805   2.819   4.744  0.0620  0.1501 -0.2298
11433PP      PP21537  14.426   1.204   9.501  0.1421 -0.0166 -0.1697
11434PP      PP21538   4.144   4.165   1.351 -0.0088 -0.0831 -0.0079
11435PP      PP21539   6.559   8.355   4.084 -0.4191  0.3037  0.3039
11436PP      PP21540  13.645  13.936  10.609  0.2185 -0.2979  0.2814
11437PP      PP21541  10.702   1.646   2.833 -0.1529  0.1487 -0.1030
11438PP      PP21542   9.486   9.296   8.622 -0.2003 -0.3563 -0.3533
11439PP      PP21543   3.723  10.907   3.634 -0.1081  0.0483  0.2576
11440PP      PP21544   2.154   7.515   2.668  0.0930  0.0961  0.2423
11441PP      PP21545   9.887   1.759   4.903  0.0264 -0.0350 -0.0357
11442PP      PP21546  11.474   6.238   1.332  0.1682 -0.2175 -0.0640
11443PP      PP21547   0.930  13.770   9.617  0.0846 -0.0470 -0.1232
11444PP      PP21548   1.900  14.498   1.948  0.0872  0.0065 -0.1310
11445PP      PP21549   1.989   7.049  12.248 -0.1990  0.1795  0.1409
11446PP      PP21550   9.782   1.096   2.225 -0.0781  0.2566  0.1043
11447PP      PP21551   5.270   2.253   1.890  0.1507 -0.1988 -0.0116
11448PP      PP21552  10.828   1.723   5.160  0.1167  0.0505  0.1615
11449PP      PP21553   6.733  13.045   2.948  0.1669 -0.2115 -0.2815
11450PP      PP21554  12.280   9.831   0.724 -0.0018  0.2391  0.2917
11451PP      PP21555  14.853  15.235   4.068 -0.1528  0.0883  0.2974
11452PP      PP21556  15.819   0.056  11.458  0.0951  0.0444 -0.1221
11453PP      PP21557   4.169   4.554   1.653  0.1842 -0.0042 -0.0540
11454PP      PP21558   1.100   2.565  11.958  0.1710 -0.3826  0.1764
11455PP      PP21559  11.419  11.072  13.304 -0.1838 -0.0279  0.0394
11456PP      PP21560   8.062  13.928  12.474 -0.0833  0.0100  0.1268
11457PP      PP21561  11.306  10.658  10.351  0.0130  0.1537  0.1323
11458PP      PP21562   5.899  10.720   9.825  0.1528 -0.0003  0.0868
11459PP      PP21563   0.507   4.226   2.220  0.0757  0.0135  0.1174
11460PP      PP21564   9.832  15.291   4.197 -0.0461 -0.1962  0.1536
11461PP      PP21565   1.278   4.725  11.662 -0.0288 -0.1003  0.2457
11462PP      PP21566  14.048   6.185   0.539 -0.0823  0.1618  0.2470
11463PP      PP21567   7.676   4.600   9.931 -0.1431  0.0669 -0.1446
11464PP      PP21568   5.062   2.426  13.002  0.1032 -0.1917  0.2367
11465PP      PP21569   5.326   7.078   2.244  0.1323  0.0933  0.0799
11466PP      PP21570   6.390   1.286   2.177  0.2033 -0.2784  0.1230
11467PP      PP21571   7.706   6.288   8.424  0.1209  0.2227 -0.0631
11468PP      PP21572  10.558   7.344  12.662  0.3381 -0.1607 -0.0295
11469PP      PP21573   6.652   8.726  10.072 -0.0353 -0.2253 -0.2676
11470PP      PP21574   4.465  13.760   1.096  0.3401  0.0135 -0.3051
11471PP      PP21575  12.425   7.782   9.673  0.2293  0.0546 -0.3078
11472PP      PP21576   7.177   9.846   0.848 -0.0049  0.0942  0.3471
11473PP      PP21577   0.353   0.853   4.467  0.0662 -0.2230 -0.0888
11474PP      PP21578  12.145  10.692   1.646  0.2883 -0.0580 -0.1188
11475PP      PP21579   9.532  13.326  11.325  0.0302 -0.1911 -0.1114
11476PP      PP21580  11.480   7.190   1.135  0.0635  0.0016  0.2070
11477PP      PP21581   7.357   7.601   9.565  0.0366  0.2285 -0.0519
11478PP      PP21582   5.554  15.457  12.856  0.1898 -0.1363  0.0156
11479PP      PP21583  12.592   5.672   1.415  0.0444 -0.0323 -0.1837
11480PP      PP21584   2.418   3.031   1.403 -0.0789  0.1468  0.2560
11481PP      PP21585   3.784   6.844   4.011 -0.1987  0.1865  0.2472
11482PP      PP21586   2.985   9.831   2.138  0.3141  0.1727  0.0080
11483PP      PP21587   8.487   3.784   3.198  0.4179 -0.1373 -0.2378
11484PP      PP21588  11.080  15.400   4.614 -0.1084  0.1675  0.0110
11485PP      PP21589   9.018   6.909   2.623  0.1141  0.0683 -0.0600
11486PP      PP21590  15.333   9.726   9.728 -0.0857  0.2110 -0.0042
11487PP      PP21591  10.423   4.861   2.066 -0.0164 -0.1442 -0.3035
11488PP      PP21592  12.417   3.563   0.803 -0.0853 -0.2469  0.0593
11489PP      PP21593  11.280  15.153   3.958  0.1063 -0.0942 -0.2015
11490PP      PP21594  13.725   8.322   1.221 -0.0940 -0.0342  0.1026
11491PP      PP21595   3.724  15.133   4.933 -0.1721  0.0171  0.0267
11492PP      PP21596  10.432  12.921   4.830  0.3443 -0.0310 -0.1067
11493PP      PP21597   5.934   8.940   2.892  0.1975  0.3087 -0.3388
11494PP      PP21598  11.546   6.035   4.443  0.2209  0.1295  0.0940
11495PP      PP21599  10.971   3.011   5.206 -0.1796  0.3714  0.1274
11496PP      PP21600  11.793   5.791   0.205  0.0218 -0.0091  0.2427
11497PP      PP21601   5.539   3.147   4.112 -0.0216 -0.1459 -0.5064
11498PP      PP21602  12.266   4.524   2.857  0.0388  0.2276 -0.2759
11499PP      PP21603   3.912  15.017   2.157  0.0177  0.1324 -0.0344
11500PP      PP21604   6.937   2.532   4.714 -0.1341 -0.2004  0.2938
11501PP      PP21605   0.338   9.878  12.843  0.2288 -0.1050  0.1037
11502PP      PP21606   8.395   6.601  11.775  0.1162 -0.0353  0.1313
11503PP      PP21607  13.738   3.437   3.131 -0.1608 -0.0055  0.3239
11504PP      PP21608   6.917   4.483   9.517  0.2794 -0.1906  0.1418
11505PP      PP21609   3.486   1.169   4.752 -0.0830 -0.0871 -0.1852
11506PP      PP21610  12.280   7.997  10.967  0.0489  0.1994 -0.2179
11507PP      PP21611   0.163   6.868  10.986  0.3050  0.2875  0.2960
11508PP      PP21612  10.497   4.900  10.087  0.1995 -0.1524 -0.0555
11509PP      PP21613  10.624  10.986   1.361 -0.2141  0.3109  0.0957
11510PP      PP21614   8.127   1.438  10.334  0.0435  0.1448  0.1620
11511PP      PP21615  10.796   5.672   1.797  0.0069 -0.0218  0.0624
11512PP      PP21616   6.131   7.121  11.044  0.0727 -0.1838 -0.4024
11513PP      PP21617   8.091   0.355   0.796 -0.0631  0.3184  0.0373
11514PP      PP21618  11.241   1.054   1.571  0.0424 -0.0414  0.2732
11515PP      PP21619   9.418  15.546   2.574  0.0975 -0.3989 -0.2731
11516PP      PP21620   2.229   1.600   2.543  0.1653  0.1032  0.0685
11517PP      PP21621  13.696   3.443   4.372  0.0703 -0.0085  0.1807
11518PP      PP21622   6.541   7.641   8.482 -0.0545  0.2879 -0.3424
11519PP      PP21623   6.549   1.172   4.663 -0.2280 -0.1969 -0.0201
11520PP      PP21624  12.419  11.298  12.661 -0.2816  0.0349  0.6007
11521PP      PP21625  11.851  15.767  11.673  0.3086  0.0566  0.0312
11522PP      PP21626  11.463   3.964  12.808 -0.0345 -0.0672  0.0292
11523PP      PP21627  12.186   6.394   0.676  0.3556  0.1075  0.0725
11524PP      PP21628   5.335   2.348  11.601  0.2262  0.0744  0.2632
11525PP      PP21629  14.975  13.463   2.379  0.2997  0.3629  0.1213
11526PP      PP21630  10.811   9.182  12.122  0.2642  0.4976 -0.2487
11527PP      PP21631  14.689  11.456  11.833 -0.3953  0.1705 -0.0848
11528PP      PP21632  14.556  13.862  10.863  0.1937 -0.1017 -0.3486
11529PP      PP21633  11.754   9.862   1.381 -0.2353  0.0249  0.4033
11530PP      PP21634   5.434   1.334   1.827  0.1572  0.0773  0.0345
11531PP      PP21635   7.478  11.683   1.045 -0.0505  0.1314 -0.0436
11532PP      PP21636  11.279   6.995   3.224 -0.1472  0.0420  0.1015
11533PP      PP21637   0.707   9.323   2.937 -0.1965  0.2118 -0.0674
11534PP      PP21638  11.117   9.789  10.290 -0.0414  0.0859  0.1765
11535PP      PP21639   5.660  11.094   4.286 -0.1509 -0.0541 -0.1670
11536PP      PP21640  10.333   0.747  12.372 -0.1907 -0.1203  0.1328
11537PP      PP21641   4.681   5.374   2.193  0.3626  0.0510 -0.2191
11538PP      PP21642  12.074   4.337   0.243 -0.1290  0.0273  0.0181
11539PP      PP21643   2.697   8.647   2.906 -0.0747  0.0222  0.3027
11540PP      PP21644   2.522   2.941   3.085  0.0448 -0.0892  0.3796
11541PP      PP21645   5.801   5.624   8.696  0.0014 -0.0319 -0.1451
11542PP      PP21646   8.233   5.245   0.268  0.2749  0.2707  0.0674
11543PP      PP21647   6.651   8.657   0.975  0.3079  0.0182  0.0171
11544PP      PP21648  12.313  14.911  10.172 -0.0003 -0.0821  0.1806
11545PP      PP21649   0.437  15.255   4.422 -0.1135 -0.1188 -0.0472
11546PP      PP21650  15.067   5.069   8.867  0.0128  0.0681 -0.2008
11547PP      PP21651   5.722   7.729  10.448 -0.1763 -0.4644  0.1337
11548PP      PP21652  10.899   5.922   4.199 -0.3160  0.1807 -0.0331
11549PP      PP21653  15.753   5.400   1.645 -0.2514  0.0186 -0.1254
11550PP      PP21654   3.417  10.209  10.677  0.1422 -0.3922  0.3688
11551PP      PP21655   8.975   4.233   4.276  0.4161  0.0168 -0.4220
11552PP      PP21656   2.641   0.756  10.021 -0.1980 -0.2115  0.1398
11553PP      PP21657   1.759   4.885  12.418 -0.0272 -0.0608  0.0151
11554PP      PP21658   3.322   8.424   9.646  0.3605  0.0726 -0.1713
11555PP      PP21659   0.419   1.233  10.960  0.1757 -0.0576 -0.1559
11556PP      PP21660  13.251  14.795   0.523  0.0875 -0.1122  0.3983
11557PP      PP21661   6.752  12.869  11.083 -0.0081 -0.0771  0.1626
11558PP      PP21662   7.808  15.689  12.376  0.3113  0.2969 -0.0442
11559PP      PP21663  14.118  11.640  12.768  0.2473  0.1265  0.1131
11560PP      PP21664  13.976   5.062  13.329  0.0934  0.0119  0.0492
11561PP      PP21665  11.776   1.827  11.027 -0.0720 -0.0216 -0.0608
11562PP      PP21666   2.258   7.121  11.339  0.1998 -0.0961  0.0263
11563PP      PP21667  11.499  11.716   4.766 -0.0771  0.3466 -0.1602
11564PP      PP21668  14.757  10.889   1.402 -0.1145 -0.1588 -0.2305
11565PP      PP21669   2.448  15.037   9.079 -0.2616 -0.2087  0.0904
11566PP      PP21670  11.194  11.232   3.767  0.1032  0.0906  0.1263
11567PP      PP21671  15.228  12.665  11.647 -0.1704  0.0567  0.1963
11568PP      PP21672   0.990  15.048   3.324  0.1904  0.2501  0.3794
11569PP      PP21673  14.946   3.147   1.084  0.1150 -0.3904  0.1133
11570PP      PP21674   3.541   2.469  10.503 -0.4297 -0.0397  0.3714
11571PP      PP21675  10.289   1.959   4.483  0.0615  0.1029 -0.1173
11572PP      PP21676   5.534   8.274   3.223  0.2253 -0.0646 -0.0322
11573PP      PP21677  10.645   2.812   3.505 -0.1726  0.2673  0.1972
11574PP      PP21678   7.516   2.107  13.011 -0.1513  0.3672  0.3742
11575PP      PP21679   6.029   1.202   9.908 -0.2407  0.0864  0.0371
11576PP      PP21680   8.638   7.445  10.013 -0.3069  0.2469  0.2278
11577PP      PP21681   5.767  11.568   8.785 -0.1050 -0.1172  0.0670
11578PP      PP21682  10.290   1.820   1.111 -0.0880  0.2491  0.0827
11579PP      PP21683  11.245  10.720   4.905  0.0978  0.0200 -0.1219
11580PP      PP21684   6.040  15.584   2.070 -0.0969  0.1524  0.0729
11581PP      PP21685   9.804  15.351  10.214  0.0766 -0.1192  0.2312
11582PP      PP21686  11.872   0.819  12.710  0.3184 -0.1192 -0.0584
11583PP      PP21687   9.130   9.805   9.900 -0.1091 -0.1476 -0.0278
11584PP      PP21688   0.848   8.149   9.115  0.3172  0.1359 -0.1613
11585PP      PP21689   9.473   0.347   1.269 -0.6176 -0.0306 -0.1945
11586PP      PP21690   9.252  13.530   2.751  0.0097  0.1070  0.3576
11587PP      PP21691  12.884   4.427   1.808 -0.0046  0.1934  0.1509
11588PP      PP21692  13.676   8.650  11.317 -0.0463 -0.2565 -0.2595
11589PP      PP21693   4.240   7.812   4.818 -0.1806  0.0901  0.1200
11590PP      PP21694   3.738   9.232   0.736  0.0983 -0.1635  0.0402
11591PP      PP21695   4.717   8.432   3.939  0.2417 -0.1210  0.4591
11592PP      PP21696  10.107   9.925   0.309 -0.0903 -0.0515 -0.1665
11593PP      PP21697   1.577  11.489   1.105  0.1011 -0.1004  0.2534
11594PP      PP21698   4.638   7.409   0.985  0.1797 -0.0687 -0.5162
11595PP      PP21699   0.017   4.027   2.218  0.0230 -0.0151  0.1073
11596PP      PP21700  12.845  10.157  13.421 -0.2404 -0.1888  0.1619
11597PP      PP21701   2.759   8.879   8.579 -0.0473 -0.0688 -0.2478
11598PP      PP21702   9.308  13.005  13.374 -0.1684  0.0313 -0.1278
11599PP      PP21703   5.690   5.428   0.486 -0.1367 -0.0114  0.0795
11600PP      PP21704  14.263   0.228  12.546 -0.0030  0.2467  0.3092
11601PP      PP21705   4.576   9.533   0.777  0.0505 -0.0145 -0.0062
11602PP      PP21706   0.390  15.813  11.792 -0.2191 -0.1777  0.0230
11603PP      PP21707   3.255  11.646   3.097  0.1757  0.1621 -0.1793
11604PP      PP21708   7.156  15.538  10.020  0.1085  0.1222  0.2149
11605PP      PP21709   0.387   6.860   1.990 -0.2841  0.3605  0.0821
11606PP      PP21710  10.871   8.685   3.981 -0.0397  0.1569 -0.0084
11607PP      PP21711   8.210  12.280   2.894  0.1682  0.1673  0.0529
11608PP      PP21712  15.423   0.519   1.495  0.1363 -0.1848 -0.0166
11609PP      PP21713   8.049   8.233   8.016  0.2148  0.0190 -0.2188
11610PP      PP21714   9.437   7.752  11.744 -0.0632  0.1739 -0.2350
11611PP      PP21715  10.393  10.979  12.928  0.1827  0.4194 -0.1813
11612PP      PP21716   7.441  11.288   4.550  0.1680 -0.1459  0.3085
11613PP      PP21717   5.510   3.920   9.917  0.0216 -0.3561  0.0057
11614PP      PP21718  12.930   1.731   9.805 -0.2116  0.0813  0.2352
11615PP      PP21719   0.722   2.789   2.042  0.1948 -0.0570 -0.1630
11616PP      PP21720   2.515   7.781   9.316 -0.0466  0.0460  0.1901
11617PP      PP21721  10.718   7.290   2.433 -0.0848  0.1761 -0.0216
11618PP      PP21722  10.814   0.795  11.959  0.1552 -0.0190 -0.1518
11619PP      PP21723   9.623  14.361   4.453 -0.1406 -0.1077 -0.0175
11620PP      PP21724   9.989  15.784   9.895 -0.2884 -0.1591  0.0942
11621PP      PP21725  13.804   7.200   1.876  0.1039 -0.0636 -0.0333
11622PP      PP21726   9.920   3.232   9.458  0.1964  0.3350  0.5217
11623PP      PP21727  13.863   7.002   9.778 -0.0515 -0.0710  0.1845
11624PP      PP21728   8.147   4.390  10.981  0.1765 -0.0759  0.0303
11625PP      PP21729   7.770   7.959   2.875  0.2253 -0.0706  0.0009
11626PP      PP21730   7.312   9.588   0.442 -0.2032  0.0806 -0.3217
11627PP      PP21731   0.767  15.714   4.332 -0.0827  0.1435 -0.0935
11628PP      PP21732   4.252   2.338   4.458  0.2212 -0.2149  0.5026
11629PP      PP21733   8.533   4.900   8.827  0.0695 -0.1410  0.0774
11630PP      PP21734   7.607  12.690   3.402  0.0576 -0.0614 -0.1518
11631PP      PP21735  10.557   8.456   3.505 -0.3694 -0.4736  0.0038
11632PP      PP21736   9.924  12.561   3.816 -0.5294  0.1225 -0.1596
11633PP      PP21737  15.860   4.882   0.027  0.0374  0.2164 -0.3051
11634PP      PP21738   5.489   3.187  10.708 -0.3920  0.0669 -0.0576
11635PP      PP21739   0.293   2.950   0.528 -0.1810  0.1412 -0.0467
11636PP      PP21740   4.574  15.081   0.313  0.3885 -0.2852 -0.2090
11637PP      PP21741   9.095   3.636  11.355  0.0695 -0.2056  0.2644
11638PP      PP21742   5.512   8.596   0.162  0.0077 -0.1639 -0.0917
11639PP      PP21743   3.099  14.845   2.519  0.2039 -0.0793 -0.2565
11640PP      PP21744  15.515   3.448   3.138 -0.0876 -0.2137  0.0296
11641PP      PP21745  11.425  14.794   1.943  0.3267 -0.3639  0.0957
11642PP      PP21746   7.867   8.662   9.404 -0.0231  0.1606 -0.0668
11643PP      PP21747  10.728   1.302   0.377  0.4479 -0.0028  0.2010
11644PP      PP21748   5.474   0.819  11.406  0.1618  0.3346  0.4503
11645PP      PP21749   4.694  10.773   0.385 -0.1981 -0.1849 -0.2385
11646PP      PP21750  11.040  10.893   3.071 -0.1593  0.1310  0.1179
11647PP      PP21751  12.736  12.372   9.478 -0.2767 -0.0941  0.1881
11648PP      PP21752   6.582   9.012  11.728  0.1934 -0.1723 -0.1774
11649PP      PP21753   4.688  15.689   2.057 -0.0017 -0.1510 -0.0145
11650PP      PP21754   3.407  15.075   1.140 -0.0281  0.1501  0.0225
11651PP      PP21755   6.256   1.346   0.920  0.2765 -0.0481  0.1009
11652PP      PP21756  14.938   2.849  10.957  0.1776 -0.2993  0.1016
11653PP      PP21757   4.883  11.938   4.224 -0.0583  0.2725  0.0359
11654PP      PP21758  14.505  12.037   8.379 -0.0212 -0.0210 -0.0787
11655PP      PP21759   4.392  15.266   1.486  0.1267  0.1092 -0.2799
11656PP      PP21760   8.506  11.126   9.527  0.1347 -0.0824  0.0505
11657PP      PP21761  11.561  15.636  12.112  0.0401 -0.1591 -0.0252
11658PP      PP21762   5.635   2.818  11.773  0.0064  0.0152  0.1861
11659PP      PP21763  13.309  14.936   2.205 -0.1586 -0.0151  0.2425
11660PP      PP21764  13.388   2.862   0.121 -0.0022  0.0183  0.0618
11661PP      PP21765   0.780  15.310   3.927 -0.0209  0.1954 -0.4401
11662PP      PP21766  12.721   0.646   3.695 -0.0640 -0.2247  0.1960
11663PP      PP21767   0.440   3.661  13.344  0.1863 -0.2092  0.2288
11664PP      PP21768   5.284  14.102   0.696  0.2406 -0.0400 -0.2365
11665PP      PP21769   6.799  11.584   3.374 -0.1799 -0.0529 -0.2458
11666PP      PP21770   7.960   3.552  12.070 -0.1418 -0.2949  0.3391
11667PP      PP21771   5.547  11.588   3.732  0.1589  0.0537 -0.2586
11668PP      PP21772  13.452  12.548   3.408  0.2243 -0.0361 -0.0791
11669PP      PP21773   0.643   9.467   0.812 -0.2691  0.0930 -0.3089
11670PP      PP21774   7.483   2.462   1.477  0.0100 -0.1208 -0.3473
11671PP      PP21775   9.263   4.035   1.975 -0.0502 -0.2239  0.0909
11672PP      PP21776  13.479  13.043  13.209 -0.2126  0.0131 -0.1312
11673PP      PP21777  14.066   8.773   0.961  0.2541 -0.1970 -0.1707
11674PP      PP21778   9.632   2.837   3.664  0.0097  0.1548  0.0941
11675PP      PP21779  12.938   4.425   9.710 -0.1281 -0.0281  0.0735
11676PP      PP21780  12.409  15.285   1.672  0.1910  0.0097  0.2508
11677PP      PP21781   9.366   0.577   9.429  0.3994 -0.0005 -0.1643
11678PP      PP21782  15.556  13.056   9.909  0.1907  0.0611  0.2821
11679PP      PP21783   9.738   8.183  13.304  0.1577  0.0727 -0.0001
11680PP      PP21784   1.471  12.276  11.766  0.0685 -0.0799 -0.1649
11681PP      PP21785  11.414  12.245   0.557 -0.0169  0.0768  0.0522
11682PP      PP21786  13.669  12.049  10.512 -0.1403  0.1359  0.0343
11683PP      PP21787   4.509   7.316  11.927 -0.0498  0.0606 -0.0972
11684PP      PP21788   4.396   0.108  11.412  0.0842 -0.2501  0.0997
11685PP      PP21789  14.494  13.784   2.046  0.0884  0.0643  0.0356
11686PP      PP21790   2.028  10.416   9.296  0.1149 -0.0693  0.1472
11687PP      PP21791   0.874   0.289   4.165 -0.0790  0.1555 -0.1584
11688PP      PP21792   7.973  14.922   2.862 -0.3403 -0.1404 -0.1684
11689PP      PP21793   9.837   5.259  10.417 -0.1740 -0.2424 -0.0788
11690PP      PP21794   8.378   3.327   2.464 -0.0264  0.1231 -0.2826
11691PP      PP21795   5.814  13.883   2.756 -0.1401 -0.1703 -0.1217
11692PP      PP21796   2.204   6.101  10.052 -0.1639 -0.1125  0.1770
11693PP      PP21797   0.184   3.044   2.011 -0.0633 -0.0615  0.2518
11694PP      PP21798   5.933  15.841  10.612  0.1293  0.0091  0.0641
11695PP      PP21799  14.272   1.365   2.827 -0.2433  0.0166 -0.1580
11696PP      PP21800  10.512   4.838  10.618 -0.0977 -0.0348 -0.1090
11697PP      PP21801   1.225  11.176   0.884  0.2810 -0.1836  0.0768
11698PP      PP21802  10.859  13.277   1.284 -0.0090 -0.0201  0.0215
11699PP      PP21803   0.947   3.841   3.729  0.1080 -0.0169  0.1609
11700PP      PP21804  10.320  11.355  12.224 -0.0419  0.0285 -0.3695
11701PP      PP21805   3.513   7.991   9.414  0.3676  0.0779 -0.0885
11702PP      PP21806   5.415   5.781  11.930 -0.0756  0.0177  0.2353
11703PP      PP21807   8.471  10.209  12.262  0.0026  0.1136  0.1596
11704PP      PP21808  10.100   8.361   2.173  0.0954  0.2002 -0.0075
11705PP      PP21809   0.454   0.291   1.542 -0.1002 -0.0926 -0.1824
11706PP      PP21810   2.008  12.448  10.947  0.0103  0.1856  0.1263
11707PP      PP21811  12.065   3.099  10.273 -0.1012  0.0137  0.0487
11708PP      PP21812   9.083   2.164   0.796  0.3314 -0.0158 -0.0683
11709PP      PP21813   2.229  12.221   3.856  0.1085  0.0064 -0.1770
11710PP      PP21814   4.980   2.468   2.666  0.0505 -0.0726  0.2361
11711PP      PP21815   9.823   4.533   3.242 -0.2900  0.1712  0.0055
11712PP      PP21816   7.307   4.549  11.307 -0.0770  0.0829 -0.2204
11713PP      PP21817  13.180   4.915   9.735 -0.0604 -0.1801 -0.0311
11714PP      PP21818   1.126   2.168   3.610 -0.0348 -0.1445  0.2405
11715PP      PP21819  11.501   7.755   8.582 -0.1710 -0.2425 -0.0612
11716PP      PP21820  10.260   0.572  10.602  0.3467  0.1266 -0.0025
11717PP      PP21821   5.052   6.424   4.031 -0.0537 -0.0560  0.1199
11718PP      PP21822   8.627   6.127  13.134 -0.1826 -0.0469 -0.0262
11719PP      PP21823   1.533  13.363  10.237 -0.1142 -0.0314  0.0786
11720PP      PP21824   2.748   3.384  13.529  0.1021 -0.2047  0.2275
11721PP      PP21825  14.574   9.951  10.059 -0.1809 -0.0682  0.3128
11722PP      PP21826   3.118  14.873   4.317 -0.1226 -0.2335 -0.0253
11723PP      PP21827   6.864  13.447   1.449  0.2551 -0.1580  0.2186
11724PP      PP21828  11.239   0.355   9.537  0.1632  0.1093 -0.0442
11725PP      PP21829   6.817   3.148   1.020 -0.1470 -0.2743  0.0109
11726PP      PP21830   8.225   7.852  12.409 -0.1456  0.0267 -0.0058
11727PP      PP21831   6.073   5.256   2.706  0.0628  0.1150  0.0363
11728PP      PP21832  11.886   7.317   8.424  0.2259 -0.2016  0.0496
11729PP      PP21833   6.447   1.227   4.111  0.4581 -0.0179 -0.0132
11730PP      PP21834   5.569  12.003   4.055  0.0428 -0.2290 -0.1386
11731PP      PP21835  11.587  12.304   2.929  0.2386 -0.2104  0.1972
11732PP      PP21836  15.016   6.213   0.468  0.1190  0.1466  0.0206
11733PP      PP21837   9.129   3.645   4.319  0.0131 -0.1782  0.2920
11734PP      PP21838   8.800  10.282   2.856 -0.1287 -0.0167  0.1021
11735PP      PP21839   2.681   7.168  10.108 -0.4791 -0.5072 -0.0702
11736PP      PP21840  10.503   1.183   3.598  0.0004  0.1653 -0.1342
11737PP      PP21841  12.696  11.016   4.320  0.1023  0.0582  0.0746
11738PP      PP21842   5.127  13.870  12.731  0.1373 -0.3446 -0.0560
11739PP      PP21843   9.539  15.721   1.147 -0.3180 -0.3692  0.3000
11740PP      PP21844  11.865   5.338   2.858  0.1027 -0.0483 -0.0044
11741PP      PP21845   8.026   0.149   1.890 -0.0732  0.1100 -0.0368
11742PP      PP21846   1.970   9.979  11.259 -0.0181 -0.2427  0.1170
11743PP      PP21847  10.476   8.762   8.725 -0.4402 -0.3035  0.0334
11744PP      PP21848  13.739  10.147   3.764 -0.0647  0.2105  0.1192
11745PP      PP21849   0.387   9.491   8.383 -0.3537 -0.0321  0.0477
11746PP      PP21850   6.134   3.054   9.300 -0.1146 -0.1255  0.2952
11747PP      PP21851  13.549   5.095   1.882 -0.1346 -0.1174  0.2458
11748PP      PP21852   8.316  11.203  11.882 -0.1730  0.1025  0.0768
11749PP      PP21853   2.535   3.106   0.374 -0.1416 -0.3462 -0.0425
11750PP      PP21854   3.535   2.244   3.697 -0.0634  0.2545  0.0278
11751PP      PP21855   1.758   5.192   9.572 -0.0150  0.2179  0.3280
11752PP      PP21856   5.526   2.155   0.495 -0.0761 -0.2452  0.1973
11753PP      PP21857  12.237   1.589  11.290 -0.2729  0.3698 -0.2219
11754PP      PP21858   7.725  10.556  11.199  0.0705  0.0686 -0.1065
11755PP      PP21859   9.892  11.360   2.509  0.0118 -0.0775 -0.3457
11756PP      PP21860  11.373   2.957   1.326 -0.0835  0.1081 -0.0645
11757PP      PP21861   1.817  10.829   0.210  0.3043 -0.4107  0.2615
11758PP      PP21862  13.279  11.786   3.422 -0.2052  0.0371  0.0155
11759PP      PP21863   3.355   3.174   9.079 -0.0848 -0.1382 -0.5062
11760PP      PP21864  13.057  12.206   9.826 -0.0647 -0.2621  0.3189
11761PP      PP21865   1.113   0.705   0.930  0.2326 -0.0988  0.0165
11762PP      PP21866   1.885   2.268  12.435  0.1625 -0.1526  0.0016
11763PP      PP21867   1.006   9.658   0.502 -0.1675  0.1248 -0.2679
11764PP      PP21868  14.568  10.749   8.539  0.3543 -0.0327 -0.0791
11765PP      PP21869   5.097  15.609  10.114  0.2205  0.3354 -0.2749
11766PP      PP21870   7.768   0.639   9.946 -0.4907 -0.0258  0.1284
11767PP      PP21871  11.165   9.842  12.375 -0.0896 -0.0607  0.3522
11768PP      PP21872   8.341   6.847  12.642  0.3319  0.0185 -0.1107
11769PP      PP21873   9.076   8.762  11.920 -0.2784  0.1291 -0.3635
11770PP      PP21874   9.840  10.312  11.839 -0.2594 -0.1260 -0.0544
11771PP      PP21875   4.044   2.447  10.546  0.3365 -0.2117  0.0326
11772PP      PP21876   6.367   4.885  13.513 -0.3012  0.1829  0.0949
11773PP      PP21877   3.220  10.696  10.903 -0.1674 -0.2156 -0.1996
11774PP      PP21878   1.319   8.005  11.065  0.1596  0.0400  0.6681
11775PP      PP21879   2.072  12.187   0.465 -0.3571 -0.2770  0.0056
11776PP      PP21880   8.505  11.743  11.635 -0.2456 -0.0733 -0.2267
11777PP      PP21881  14.468  15.027   2.973  0.0528  0.0766 -0.2041
11778PP      PP21882  11.576   2.604   2.129 -0.1606 -0.2290 -0.0365
11779PP      PP21883   4.378   9.197   3.365  0.0414  0.1283  0.1803
11780PP      PP21884  15.255   8.874   9.630 -0.2036 -0.1862 -0.2200
11781PP      PP21885   2.136  13.736  11.143  0.1413  0.0008 -0.1424
11782PP      PP21886  13.706   9.417  11.039  0.0282 -0.2906  0.0322
11783PP      PP21887   8.603  13.142  11.983  0.1998 -0.3975  0.3338
11784PP      PP21888  12.494   4.857  12.121  0.3560 -0.0068  0.0527
11785PP      PP21889  14.951   3.534   0.762  0.0376 -0.2593 -0.0803
11786PP      PP21890   4.260  14.625   4.386 -0.1773 -0.0281  0.1253
11787PP      PP21891   3.965   9.305   3.159  0.0500  0.2524  0.1258
11788PP      PP21892   2.590   0.892  12.745  0.2219  0.1108 -0.1492
11789PP      PP21893  14.803   1.366   2.645 -0.0846 -0.0402  0.3286
11790PP      PP21894   5.789   7.847   0.942 -0.0699  0.1443 -0.1461
11791PP      PP21895  13.234   6.000   2.274  0.0284 -0.0358 -0.3733
11792PP      PP21896  13.283   6.968   9.041  0.0099  0.0208  0.1887
11793PP      PP21897   3.507   7.905  13.507  0.0669  0.1563  0.2230
11794PP      PP21898  11.627   0.712   1.681 -0.5025 -0.0330  0.0349
11795PP      PP21899   2.041  13.720   9.606  0.0923 -0.2897 -0.0945
11796PP      PP21900  11.860  14.878  10.292 -0.0338  0.2871  0.1237
11797PP      PP21901   3.714  12.608   1.050  0.2394 -0.0644 -0.0548
11798PP      PP21902  15.403  15.001  10.683 -0.1047 -0.1126 -0.0458
11799PP      PP21903  15.605  11.573   0.153  0.0713  0.1512  0.0246
11800PP      PP21904   1.963   2.145   4.196 -0.2636  0.4014 -0.2925
11801PP      PP21905  14.110   3.151   1.300 -0.1851 -0.3842  0.0097
11802PP      PP21906  13.449  13.513   4.079 -0.0479  0.2201  0.0088
11803PP      PP21907  11.402   3.314   1.628  0.0563  0.0356  0.3038
11804PP      PP21908   8.081  15.764   2.369 -0.3665 -0.0339  0.3267
11805PP      PP21909   4.287  11.849   1.220  0.1853 -0.2127 -0.3286
11806PP      PP21910  12.498   5.619  11.694  0.3316  0.3461  0.1132
11807PP      PP21911   5.481   5.195   2.551 -0.0305  0.1471 -0.1548
11808PP      PP21912   8.307  15.318  12.553  0.1145  0.1984  0.1966
11809PP      PP21913   3.426   5.627   3.017 -0.1021  0.2797  0.0153
11810PP      PP21914   2.165   3.815   9.529  0.0874  0.1815  0.1184
11811PP      PP21915   3.685  14.151   1.359 -0.2849  0.1798  0.1647
11812PP      PP21916  12.462   4.597   1.006  0.2088 -0.0232 -0.1294
11813PP      PP21917   5.908   7.760  12.148 -0.3363 -0.0191  0.0733
11814PP      PP21918   1.099   0.624  11.684  0.1153  0.0218 -0.2294
11815PP      PP21919  13.194   2.280   4.061 -0.0043 -0.0647 -0.0795
11816PP      PP21920   6.608  13.960   2.277  0.4099 -0.0712 -0.0537
11817PP      PP21921   3.198   0.903  12.107 -0.1840 -0.0207  0.1410
11818PP      PP21922   8.737   6.646   9.538  0.3191  0.1050 -0.0203
11819PP      PP21923  15.490   1.063   9.251 -0.0111 -0.2340 -0.0922
11820PP      PP21924  11.950   3.434   2.460  0.1495  0.1333  0.1505
11821PP      PP21925  10.230   7.727   2.050 -0.2963  0.4299  0.2739
11822PP      PP21926   8.956   8.697  10.757 -0.1689  0.2806 -0.1171
11823PP      PP21927   9.227   8.135  13.431 -0.0381  0.1115 -0.2611
11824PP      PP21928  13.323   9.628   2.893 -0.0069 -0.3616  0.0595
11825PP      PP21929  11.306   0.547   0.697 -0.0027 -0.2489  0.2497
11826PP      PP21930   8.441   3.215   9.854  0.0217  0.2104 -0.2064
11827PP      PP21931   5.944  12.795   1.612  0.0138  0.1186 -0.3129
11828PP      PP21932   4.754  15.648  13.123  0.0433 -0.0698 -0.2467
11829PP      PP21933   2.104  11.749   3.705 -0.4356  0.2050 -0.0323
11830PP      PP21934   3.873   6.050   3.456 -0.1390 -0.2281 -0.0172
11831PP      PP21935  13.745   1.923  10.591 -0.1468 -0.1636 -0.0436
11832PP      PP21936  12.704   3.109   3.950  0.0796 -0.4527  0.1324
11833PP      PP21937   8.801   7.277  12.718  0.1759  0.0081 -0.3193
11834PP      PP21938   9.155  13.313  12.819  0.0179  0.1338  0.1632
11835PP      PP21939   4.987   0.694   9.331  0.0038  0.1177  0.1801
11836PP      PP21940  10.352   9.054  11.658 -0.1975 -0.1929 -0.0417
11837PP      PP21941   5.790  13.402   3.612 -0.0092 -0.1866  0.1061
11838PP      PP21942   5.981   6.903   8.822 -0.2030  0.0773  0.0993
11839PP      PP21943   9.729   4.387  11.526 -0.2397  0.3970  0.0813
11840PP      PP21944  11.129  14.773   2.362  0.3042 -0.3586 -0.1786
11841PP      PP21945  11.450   9.038  10.689 -0.0874 -0.1444 -0.0699
11842PP      PP21946  12.217   7.478  10.708  0.1672  0.1977 -0.1795
11843PP      PP21947  10.000   3.112   2.780 -0.0559 -0.0677  0.1211
11844PP      PP21948  10.360  14.552   1.091  0.1170  0.4181  0.1652
11845PP      PP21949   5.679   1.550  13.450 -0.3063 -0.0268  0.0661
11846PP      PP21950  11.957  10.084  12.342 -0.3254  0.1126  0.0238
11847PP      PP21951  13.995  10.816   2.507  0.3598  0.1378 -0.1592
11848PP      PP21952  14.676  13.617   3.016 -0.0564 -0.0629 -0.2229
11849PP      PP21953   4.217  13.853   3.371 -0.1900 -0.0376  0.0826
11850PP      PP21954  15.118   4.105   3.335 -0.1269  0.0368  0.2507
11851PP      PP21955   0.156   8.533   3.045  0.0438 -0.2189  0.2330
11852PP      PP21956  12.520   1.188  11.127 -0.0988 -0.0044 -0.3856
11853PP      PP21957   0.048   7.134  10.612  0.0928 -0.2961 -0.0562
11854PP      PP21958   8.219  12.621   3.753  0.4201 -0.1239 -0.0501
11855PP      PP21959   3.416  12.985   3.140 -0.3278 -0.1245 -0.1033
11856PP      PP21960   9.085  10.080  10.321 -0.0243 -0.2309 -0.2103
11857PP      PP21961   2.978   6.866   3.501  0.1155  0.2845  0.0799
11858PP      PP21962  15.392   9.104  10.134 -0.0345  0.0907 -0.1138
11859PP      PP21963   5.725  10.000   0.724  0.0677 -0.1085  0.1066
11860PP      PP21964  15.703   4.965   1.905  0.0191 -0.1599  0.2472
11861PP      PP21965  13.274   8.363   2.416 -0.0062  0.1267  0.5181
11862PP      PP21966  15.272   0.679   1.922 -0.1359  0.2590 -0.0431
11863PP      PP21967   8.699  12.709  11.841  0.2280 -0.1248  0.1921
11864PP      PP21968  10.528  11.245   3.957 -0.0551  0.0795 -0.1770
11865PP      PP21969  14.584   1.474   1.068  0.0572 -0.2722 -0.1084
11866PP      PP21970   5.710   0.344  11.200  0.2592  0.0096 -0.0486
11867PP      PP21971   6.539  10.654  11.558 -0.1126  0.0549  0.1553
11868PP      PP21972   0.604   1.665   3.124 -0.0448 -0.1426 -0.0921
11869PP      PP21973  15.702   0.109   9.938 -0.0609 -0.2457  0.1047
11870PP      PP21974   0.236  12.662   8.618 -0.1905  0.2425 -0.0718
11871PP      PP21975  10.717  11.291  11.228 -0.3244 -0.2582  0.5450
11872PP      PP21976  12.944   9.110  10.557 -0.0755  0.0025 -0.0248
11873PP      PP21977   4.271   4.853  12.114  0.0730 -0.1019  0.0847
11874PP      PP21978  10.400  13.273  12.943  0.1010 -0.1134  0.0142
11875PP      PP21979  14.122   4.380   8.525 -0.0354 -0.0261  0.1164
11876PP      PP21980   7.351  14.497   2.606  0.0639  0.0722  0.0131
11877PP      PP21981   6.798   9.241  11.146  0.0498 -0.0948 -0.2050
11878PP      PP21982   5.106   3.661  11.364  0.2584  0.2972  0.0617
11879PP      PP21983   8.016   4.244   0.588  0.1339 -0.1312 -0.1872
11880PP      PP21984   4.752  12.548   1.524  0.1773 -0.0102  0.0355
11881PP      PP21985   3.937  14.105  13.490 -0.3671 -0.4107 -0.0052
11882PP      PP21986   3.715   0.710   9.386 -0.1432 -0.0532 -0.1207
11883PP      PP21987  13.365  13.316  12.753  0.1644 -0.1013  0.0153
11884PP      PP21988  11.843   8.996   0.820  0.1105 -0.0262 -0.1797
11885PP      PP21989   6.502   5.070   0.979 -0.1436  0.1431  0.1743
11886PP      PP21990   7.643  11.500   2.714  0.1576  0.0426  0.0553
11887PP      PP21991   5.187  11.295  13.111  0.0610 -0.0444  0.1503
11888PP      PP21992  12.580   2.582   0.447  0.0661  0.0318 -0.2517
11889PP      PP21993  11.148   5.746  12.645  0.1234 -0.2524 -0.2010
11890PP      PP21994  10.881   0.760   3.027  0.3841  0.0523  0.0810
11891PP      PP21995   2.373   5.061  10.829 -0.3362  0.1793  0.0630
11892PP      PP21996   3.535  11.892   0.378 -0.0871 -0.1437 -0.1095
11893PP      PP21997   3.559  14.596   7.937  0.0364  0.2248  0.0329
11894PP      PP21998  12.702   0.457  10.841 -0.0393  0.1187 -0.0445
11895PP      PP21999   9.573  15.353   9.767 -0.2703  0.3238 -0.3308
11896PP      PP22000   5.988   0.628   4.436 -0.0895 -0.2668  0.1018
11897PP      PP22001  13.544  11.723   1.249  0.0962 -0.1451 -0.2220
11898PP      PP22002   9.291   4.481   9.011  0.0857  0.1763 -0.0609
11899PP      PP22003   3.122   0.486  13.242 -0.0906  0.2434 -0.1173
11900PP      PP22004   8.491  12.830  10.299  0.1009  0.0994  0.0051
11901PP      PP22005   5.716   7.738   1.657 -0.0002  0.0368  0.0128
11902PP      PP22006  13.388   3.040   3.124  0.0261 -0.0174 -0.0492
11903PP      PP22007   8.375   5.231   2.198 -0.2108  0.3093 -0.0697
11904PP      PP22008   5.055  11.682   1.893  0.1241 -0.2764  0.0445
11905PP      PP22009  15.110   2.995   1.622  0.3456  0.0452  0.0584
11906PP      PP22010  11.781  12.825  10.925  0.1358 -0.2495 -0.5247
11907PP      PP22011   6.129   8.326  10.894 -0.1625  0.3185  0.0437
11908PP      PP22012  14.158   9.077   2.787  0.0141  0.0722  0.1408
11909PP      PP22013   7.584  11.732  12.067 -0.0894  0.1438  0.2359
11910PP      PP22014  14.476  12.002  11.228  0.1079  0.1365 -0.1453
11911PP      PP22015   1.772   9.076  12.369 -0.1165 -0.2428  0.0811
11912PP      PP22016   2.184   9.513   9.063 -0.1512  0.1718 -0.1354
11913PP      PP22017   0.344  15.037   1.351 -0.0308 -0.3079  0.2831
11914PP      PP22018  11.876  11.681  12.896 -0.0893  0.0377 -0.0659
11915PP      PP22019  13.832  14.496   1.126 -0.0544  0.1594 -0.3098
11916PP      PP22020   5.099  10.711   9.075  0.3397 -0.1019 -0.1995
11917PP      PP22021   4.763  13.892   1.969 -0.1553 -0.2479  0.2546
11918PP      PP22022   1.406   7.450   0.425  0.4666  0.2786  0.4830
11919PP      PP22023  11.341   2.661   0.858 -0.2128 -0.2176 -0.1263
11920PP      PP22024  10.216   3.380   0.979 -0.1316  0.2093 -0.1199
11921PP      PP22025  13.868   0.954  11.300 -0.1714 -0.0456 -0.0153
11922PP      PP22026   2.946   7.225   0.321 -0.2150  0.2925 -0.0466
11923PP      PP22027  10.624  11.512   1.533 -0.1979  0.0397  0.4419
11924PP      PP22028   3.639  13.215   9.972 -0.0888  0.3063 -0.2121
11925PP      PP22029   6.948   9.108   9.733  0.0831  0.0344  0.1068
11926PP      PP22030   5.813   9.360  13.524 -0.2134 -0.0145 -0.1376
11927PP      PP22031   5.124  15.736   2.920 -0.3005  0.1624  0.0730
11928PP      PP22032   8.915   2.731  12.638 -0.1408 -0.2656 -0.0093
11929PP      PP22033  11.604  13.240  12.713 -0.1161 -0.0817  0.0024
11930PP      PP22034   2.881   4.685  10.048 -0.1396  0.0103  0.3822
11931PP      PP22035   6.287   7.900   1.025 -0.0810 -0.1299 -0.2974
11932PP      PP22036   2.614   4.825  11.848  0.0900  0.1742 -0.0489
11933PP      PP22037  14.754  10.324   9.759  0.3505  0.1837  0.2441
11934PP      PP22038  15.845  12.259   8.945 -0.2010  0.1417  0.0573
11935PP      PP22039   9.244  12.391   0.036  0.1241 -0.0817  0.0551
11936PP      PP22040   8.207  10.687  10.491  0.0197 -0.2851  0.0737
11937PP      PP22041   6.568   0.391   1.959 -0.1551 -0.0543 -0.1678
11938PP      PP22042  10.611  15.455   9.167 -0.0509 -0.2638  0.1124
11939PP      PP22043   4.565  14.683  12.221  0.1211 -0.0612  0.1184
11940PP      PP22044  14.229  12.087  12.559 -0.1800  0.3203 -0.1825
11941PP      PP22045  10.206   4.475  11.555  0.0802 -0.1363  0.2952
11942PP      PP22046   9.381   9.287   1.432  0.0215 -0.0728 -0.2110
11943PP      PP22047   6.779  12.808   3.759 -0.1021 -0.0658 -0.3775
11944PP      PP22048   1.661   4.071  11.333 -0.0865  0.4531  0.1023
11945PP      PP22049   8.111   9.993   3.600 -0.1621  0.1494 -0.0253
11946PP      PP22050  13.573   9.823   0.071 -0.0527 -0.0303  0.0542
11947PP      PP22051   6.921   1.594  10.214 -0.2796 -0.0196  0.3573
11948PP      PP22052  13.209   7.373  13.034 -0.0960  0.3120 -0.1070
11949PP      PP22053   9.156  15.064  10.737 -0.0382  0.3431  0.0888
11950PP      PP22054  10.442   9.422  10.753  0.0061 -0.1533 -0.0766
11951PP      PP22055  15.246   0.681   1.010 -0.4060 -0.1624  0.0138
11952PP      PP22056   0.984  15.676  13.272  0.0403 -0.1286 -0.2131
11953PP      PP22057  15.404   3.966   1.502  0.0363 -0.1241 -0.0574
11954PP      PP22058   5.571  11.860  13.103 -0.2380  0.0296  0.2297
11955PP      PP22059  11.168  10.896  12.238  0.3888 -0.0888 -0.0296
11956PP      PP22060  10.812  15.609  13.006  0.1284  0.1110 -0.0776
11957PP      PP22061   0.156   9.288   8.832  0.0819 -0.4848  0.1128
11958PP      PP22062   8.091   8.764   9.902 -0.3402 -0.1430 -0.0074
11959PP      PP22063   7.058   3.421   1.863  0.0549  0.1137 -0.0644
11960PP      PP22064   2.256  13.660   3.453  0.1220 -0.4463  0.0198
11961PP      PP22065   4.735   1.892   3.418 -0.3583  0.0811  0.2585
11962PP      PP22066   0.790  11.774   1.725 -0.0438 -0.3498  0.1300
11963PP      PP22067  10.141   8.529   9.042 -0.0712 -0.3038  0.1604
11964PP      PP22068  13.188   8.934  13.097  0.2166  0.1551  0.2774
11965PP      PP22069   5.066   8.377   1.348  0.0006  0.1212 -0.1196
11966PP      PP22070   4.819  12.096   1.235  0.0425  0.2938 -0.3218
11967PP      PP22071   9.612   1.794  11.195  0.1184 -0.1044  0.0153
11968PP      PP22072   9.422  15.471  10.510 -0.1241 -0.2377  0.2065
11969PP      PP22073  12.637  15.844  10.597 -0.0815  0.1644  0.2659
11970PP      PP22074  12.330   5.466   3.698 -0.0604  0.0728 -0.0838
11971PP      PP22075   6.325   2.853  10.362 -0.1614  0.0940  0.0627
11972PP      PP22076   1.140   5.708   2.867 -0.0195  0.0160 -0.2442
11973PP      PP22077   0.996  11.706   4.140  0.0039  0.1136  0.1317
11974PP      PP22078  10.567   8.130   2.110 -0.1889 -0.0149  0.3579
11975PP      PP22079  11.877   2.544   3.013 -0.0654 -0.0432  0.0571
11976PP      PP22080   3.790  14.769   4.450 -0.0260  0.0906 -0.4007
11977PP      PP22081   4.547   5.387   9.429  0.1246 -0.0012  0.0450
11978PP      PP22082  14.412   7.762   4.090  0.0815  0.1270  0.1234
11979PP      PP22083   5.480   3.676   9.259 -0.1184 -0.1126  0.0438
11980PP      PP22084   9.659   5.579   1.056  0.1309  0.0666 -0.0216
11981PP      PP22085   0.225  13.175   1.382 -0.0872 -0.1317 -0.0968
11982PP      PP22086   3.417  11.421   0.833 -0.5186 -0.0769  0.2722
11983PP      PP22087  10.526   2.426   9.774  0.2780  0.0066 -0.2255
11984PP      PP22088   2.302   8.585   8.981  0.1828 -0.1956  0.4034
11985PP      PP22089  12.070   0.131   1.040  0.0447  0.2085 -0.3053
11986PP      PP22090   7.939  11.948   9.922  0.1024  0.1843 -0.0189
11987PP      PP22091  14.014   0.136   3.377  0.0714 -0.0467  0.1782
11988PP      PP22092   5.258  12.962   4.069 -0.1667  0.0249 -0.0678
11989PP      PP22093  11.898   8.024   3.892 -0.0860  0.2924 -0.0623
11990PP      PP22094   6.792  12.514   0.613  0.2102 -0.0752  0.1943
11991PP      PP22095   3.107   2.413   3.260 -0.0461 -0.1137  0.4002
11992PP      PP22096  12.568   1.991   1.873  0.0158 -0.3159  0.1049
11993PP      PP22097  13.127   1.960   0.150 -0.1524  0.0991  0.2014
11994PP      PP22098   8.021   5.853   0.480  0.0653  0.0028 -0.0258
11995PP      PP22099   5.787   6.302   1.262 -0.0650  0.1148  0.1678
11996PP      PP22100   2.146  10.527  13.356  0.1627 -0.3539  0.1378
11997PP      PP22101   6.445   7.495  10.690  0.0778 -0.2380 -0.1796
11998PP      PP22102  10.180   6.671  13.071 -0.1659  0.0747 -0.2168
11999PP      PP22103  15.720   7.447  12.829  0.1648 -0.0174 -0.1901
12000PP      PP22104   4.349  13.271   1.299 -0.0962  0.1311  0.0539
12001PP      PP22105   3.120   9.198   8.473  0.2284 -0.0605 -0.0494
12002PP      PP22106   3.712   9.053   1.947 -0.0587 -0.3095 -0.0078
12003PP      PP22107   3.723   5.208   0.777 -0.0071  0.1884  0.0314
12004PP      PP22108  14.976  11.186   9.288 -0.1921  0.1498 -0.1545
12005PP      PP22109  13.782  15.184   9.189 -0.2745  0.2263 -0.0678
12006PP      PP22110  14.922  11.992  13.167 -0.0157  0.2131  0.2936
12007PP      PP22111   8.225   9.613  11.339  0.1807  0.1616 -0.2115
12008PP      PP22112   1.554  13.693   9.746 -0.0581 -0.0592 -0.2091
12009PP      PP22113   0.033   7.835  10.874 -0.1180  0.1531  0.1295
12010PP      PP22114   9.981  12.782  10.758  0.1193  0.0972 -0.0921
12011PP      PP22115   1.098   4.079   0.358 -0.2130 -0.0219  0.3117
12012PP      PP22116   3.521   1.648  12.010 -0.0009 -0.0798  0.1927
12013PP      PP22117   6.316   3.288  11.234 -0.0705 -0.4325  0.1071
12014PP      PP22118  13.918  14.912   2.886 -0.1581 -0.0646  0.2347
12015PP      PP22119  14.155   3.730   3.154 -0.0214 -0.0302 -0.1310
12016PP      PP22120  13.867   1.791   3.597 -0.0280  0.3586 -0.1746
12017PP      PP22121  15.547  14.166   3.736  0.2607  0.2810  0.0375
12018PP      PP22122   3.955   8.197  12.123  0.2556  0.0181  0.0143
12019PP      PP22123   6.424   0.921  11.445  0.1053 -0.1017 -0.3381
12020PP      PP22124   4.211  12.811   1.007 -0.0599  0.0942  0.0561
12021PP      PP22125   8.942  10.870  11.814 -0.0516  0.2538  0.0411
12022PP      PP22126  13.167  13.883  13.504 -0.2557 -0.0567 -0.4888
12023PP      PP22127  13.794   8.876  12.326  0.2224 -0.1130 -0.1921
12024PP      PP22128  15.695   3.325   9.217 -0.3257  0.0999 -0.2404
12025PP      PP22129   5.166  15.729   0.067  0.1178 -0.3614  0.2188
12026PP      PP22130  15.162   0.390   2.870 -0.2441  0.1408  0.0202
12027PP      PP22131  10.826   3.721  13.426  0.3081  0.1730  0.3622
12028PP      PP22132   4.941   4.162  12.206 -0.1948  0.0347 -0.2168
12029PP      PP22133  12.125  12.364   2.583  0.0318 -0.1036 -0.0601
12030PP      PP22134  14.833   2.661   1.932 -0.2274  0.1266 -0.4091
12031PP      PP22135  11.251   5.936   0.075  0.1248 -0.1535 -0.1256
12032PP      PP22136  11.274   3.488  10.980  0.0706  0.3347  0.1413
12033PP      PP22137  10.503   2.671   2.805 -0.2041 -0.0980 -0.0504
12034PP      PP22138  11.355  14.044   3.646 -0.3056 -0.0326 -0.0728
12035PP      PP22139  11.881   2.529  12.388  0.0598  0.0407  0.0019
12036PP      PP22140  11.161  10.025   3.218 -0.0387  0.0006 -0.1600
12037PP      PP22141   0.584  11.772   3.563  0.3954 -0.2448  0.1134
12038PP      PP22142   9.714   2.076   9.467 -0.2421 -0.0964 -0.0826
12039PP      PP22143  13.678  14.055  11.893  0.1540  0.1472  0.1555
12040PP      PP22144   3.787  13.923  11.279 -0.0684 -0.0036  0.0715
12041PP      PP22145  12.629   8.997   0.689  0.0395  0.2186  0.2130
12042PP      PP22146   7.976   7.267  13.104  0.3533 -0.4025  0.1606
12043PP      PP22147  10.727  15.158   0.431  0.0071 -0.0581 -0.0496
12044PP      PP22148  15.012   7.713  11.583 -0.3302  0.0773 -0.2136
12045PP      PP22149   9.234   7.185   4.064  0.2025  0.0401 -0.0101
12046PP      PP22150   1.942  10.169   7.993 -0.1630  0.0419  0.4165
12047PP      PP22151   8.356   5.721  13.399 -0.0437  0.0326  0.2912
12048PP      PP22152   6.458   5.054   2.292  0.4890  0.0276  0.1401
12049PP      PP22153   3.122  13.079  11.469 -0.3315  0.2102  0.1198
12050PP      PP22154   6.126  11.568   1.318  0.0405  0.4515 -0.1361
12051PP      PP22155  15.408   4.745   4.002  0.3651  0.1605  0.2793
12052PP      PP22156  10.965   5.265  12.527  0.1852 -0.1535 -0.0883
12053PP      PP22157   3.009   9.284   8.959  0.3487  0.1187 -0.0699
12054PP      PP22158   5.950  14.056   9.419 -0.2113 -0.1161 -0.1682
12055PP      PP22159  11.569  10.386   3.337  0.2123  0.1224  0.1609
12056PP      PP22160  12.573   4.314   9.985  0.0492  0.0128 -0.0409
12057PP      PP22161  11.081   2.550  13.127  0.3238 -0.0276  0.1629
12058PP      PP22162  14.646  12.377  12.333  0.1543 -0.2793 -0.1526
12059PP      PP22163  13.419   5.145   4.558 -0.2869 -0.1379  0.5876
12060PP      PP22164   1.682   3.105   8.856  0.1559 -0.1829 -0.1513
12061PP      PP22165   7.107  14.440   4.474 -0.1371 -0.0003  0.2270
12062PP      PP22166   4.520   0.593   0.479 -0.1505  0.0276  0.2586
12063PP      PP22167  12.094   1.126   3.909  0.1022 -0.1955 -0.3622
12064PP      PP22168   5.485   5.258   3.827 -0.2363  0.0048 -0.1818
12065PP      PP22169  15.714  14.153  10.733  0.0277 -0.0215 -0.1408
12066PP      PP22170  15.232   4.473   8.623 -0.1206  0.0031  0.0309
12067PP      PP22171  13.179   4.505   2.234  0.2694  0.0366  0.0861
12068PP      PP22172  10.205   9.253  11.192 -0.2464 -0.0426 -0.2189
12069PP      PP22173   9.011   4.782   0.878  0.1777 -0.1169  0.2532
12070PP      PP22174   3.742   2.931   9.517  0.1231 -0.0007  0.2397
12071PP      PP22175   1.007   0.006   9.878 -0.0185  0.0537 -0.2632
12072PP      PP22176   5.832   1.835  10.447  0.3356 -0.0796  0.1490
12073PP      PP22177   1.419  14.508   3.101 -0.2329  0.2214 -0.0266
12074PP      PP22178  14.022   0.955   2.040  0.0581 -0.0636 -0.0189
12075PP      PP22179   7.653   1.929  10.650  0.4702  0.2996 -0.1067
12076PP      PP22180   4.022   2.577   2.304  0.2074 -0.0728 -0.2871
12077PP      PP22181  15.327  10.934   8.998 -0.1151  0.1040  0.1530
12078PP      PP22182   6.615  15.732   3.484 -0.2357  0.2032  0.1023
12079PP      PP22183  15.761  12.812  12.593  0.1979 -0.0151  0.0569
12080PP      PP22184   4.150   1.871   8.928  0.1255  0.0011  0.5336
12081PP      PP22185   5.712   9.860   1.922  0.0578 -0.0344 -0.0280
12082PP      PP22186  14.191   5.359  12.595  0.0825 -0.2452 -0.3527
12083PP      PP22187   9.626  13.622   1.509 -0.0720  0.0700  0.2687
12084PP      PP22188   2.192  10.622   3.359  0.1402  0.3104  0.2163
12085PP      PP22189   6.708   0.288   1.062 -0.0785  0.1423 -0.0767
12086PP      PP22190  14.186   2.674  12.116  0.0160  0.2422  0.0129
12087PP      PP22191   2.959  15.752  12.077 -0.0878 -0.2584  0.1978
12088PP      PP22192  12.201   7.634   0.769  0.0053  0.2005 -0.0286
12089PP      PP22193  10.093  11.634   0.475  0.1022 -0.1170  0.1686
12090PP      PP22194  14.335   4.865  10.519  0.0589  0.3583  0.2147
12091PP      PP22195   5.410   5.405   1.509  0.2138  0.2551 -0.0366
12092PP      PP22196   5.224   1.086  11.881  0.0856  0.2886  0.1635
12093PP      PP22197  14.109   3.834   2.231 -0.1659  0.0836 -0.1954
12094PP      PP22198   6.876   6.535  11.702 -0.0219  0.2058 -0.2221
12095PP      PP22199   1.238   3.486   3.985  0.1399  0.0944  0.3191
12096PP      PP22200  12.492   6.193   8.615  0.2296  0.2084 -0.0852
12097PP      PP22201  15.406  13.252   0.662 -0.1685  0.3006 -0.4449
12098PP      PP22202   1.781   5.685  13.498 -0.2326  0.2331 -0.2723
12099PP      PP22203   7.474   7.129  12.168 -0.1785  0.1213  0.0992
12100PP      PP22204  15.455   3.013  12.445  0.0800 -0.3319 -0.4700
12101PP      PP22205  10.461   8.592  11.874 -0.1182  0.1172  0.2903
12102PP      PP22206   2.562   7.452   1.912 -0.0471  0.0799 -0.1555
12103PP      PP22207   4.676  15.510   0.140  0.1750 -0.0956  0.0878
12104PP      PP22208  12.144  14.036   9.746 -0.2646 -0.2968  0.0041
12105PP      PP22209   5.654   0.443  12.685  0.2783 -0.0067 -0.1597
12106PP      PP22210   4.842  13.555   2.449 -0.1213  0.2513  0.0486
12107PP      PP22211  15.312   2.518  12.207  0.0276 -0.1220 -0.0505
12108PP      PP22212  15.042  11.867  11.827  0.3176  0.0039  0.0211
12109PP      PP22213   0.656   9.123  11.284  0.0626  0.1067  0.3010
12110PP      PP22214  12.238   3.989  12.330  0.0787 -0.0954 -0.1716
12111PP      PP22215   8.817  12.204  11.017 -0.2075  0.0763  0.0623
12112PP      PP22216   0.368  13.879   2.155  0.1439  0.2274  0.2554
12113PP      PP22217  14.804   7.108  12.829 -0.0009 -0.0968  0.0488
12114PP      PP22218   7.396   7.082   9.581 -0.0653 -0.1525 -0.3468
12115PP      PP22219   5.774   9.106   9.372 -0.0809  0.1320  0.1198
12116PP      PP22220   6.014  13.219   1.814 -0.1748  0.0369 -0.1569
12117PP      PP22221   1.451   7.510  10.226  0.1256  0.1180  0.0424
12118PP      PP22222   0.130  13.253   9.401 -0.0371 -0.1920  0.1235
12119PP      PP22223  13.460  12.816   9.996  0.0363 -0.0764  0.2292
12120PP      PP22224   6.246  12.563   9.695  0.0246 -0.1558 -0.0232
12121PP      PP22225   7.658  10.853   1.780 -0.2997  0.0636  0.2627
12122PP      PP22226  11.921  11.469  12.445 -0.4224  0.0082 -0.0303
12123PP      PP22227   8.914  12.389  11.519 -0.1262 -0.2521  0.0879
12124PP      PP22228   2.911   5.706   3.183 -0.2435  0.1402  0.5169
12125PP      PP22229  14.554  12.577   0.314 -0.2698 -0.3661  0.1620
12126PP      PP22230   4.292   5.842   3.730 -0.0937  0.2156 -0.0195
12127PP      PP22231   4.667   2.235   0.867  0.0226 -0.0584 -0.0132
12128PP      PP22232   7.019  12.906  13.385  0.1151  0.0001 -0.1000
12129PP      PP22233   1.100   6.476  11.392 -0.1487 -0.0325 -0.2625
12130PP      PP22234   5.947  13.455  13.455 -0.1310 -0.4178 -0.2334
12131PP      PP22235   7.144   1.707   1.245  0.3113 -0.2755 -0.0063
12132PP      PP22236   7.440   9.543   3.149  0.2971 -0.0959 -0.0204
12133PP      PP22237  10.810   4.337  12.390  0.1423  0.0092 -0.2135
12134PP      PP22238   1.236   4.809  10.765 -0.1385  0.0577  0.2297
12135PP      PP22239  12.500   4.202   0.562 -0.0403  0.0933 -0.0180
12136PP      PP22240   9.569   2.308   0.509 -0.0301 -0.0509  0.0447
12137PP      PP22241  10.925  12.925   9.487  0.2044 -0.0588 -0.0142
12138PP      PP22242  11.068   2.128   3.232  0.0575  0.3364  0.1672
12139PP      PP22243   2.792   9.852  10.558  0.1870  0.1674  0.0852
12140PP      PP22244  10.055   9.209   3.357  0.3506 -0.0620 -0.0713
12141PP      PP22245   1.061   2.358  10.523  0.1541  0.0158  0.4105
12142PP      PP22246  14.491   1.050   2.418  0.0219 -0.5151 -0.1343
12143PP      PP22247  15.503   1.837  10.332  0.3776 -0.2295  0.0319
12144PP      PP22248   2.359  15.007   0.195 -0.0036 -0.2713  0.1098
12145PP      PP22249   7.715  13.304  10.456 -0.0267  0.0527  0.0545
12146PP      PP22250   0.462   4.906  11.166  0.1600 -0.0964  0.0540
12147PP      PP22251   0.341   5.328   3.487 -0.0213  0.1952 -0.2387
12148PP      PP22252   0.231  15.306  11.924 -0.0552  0.2250  0.0733
12149PP      PP22253   3.892  13.048   1.421  0.1743  0.0377 -0.0135
12150PP      PP22254  10.918   0.200   9.949  0.0359  0.1763 -0.2350
12151PP      PP22255   5.215   5.227  12.804  0.0394  0.1642 -0.0607
12152PP      PP22256  13.422   0.270   4.553  0.2726 -0.0389  0.2496
12153PP      PP22257  12.949   7.848   8.618 -0.0630 -0.2084 -0.1724
12154PP      PP22258   8.600   4.616   9.819 -0.0995  0.0853  0.1806
12155PP      PP22259   2.434  13.481   3.044  0.1186  0.1155  0.2147
12156PP      PP22260   1.601   6.632   0.336  0.1601  0.1079  0.4369
12157PP      PP22261  11.144   7.647   2.420  0.1498  0.0626 -0.0601
12158PP      PP22262   7.622   3.062   2.534 -0.1884 -0.1855  0.1230
12159PP      PP22263  10.869   9.347   2.725 -0.3579 -0.0291 -0.1567
12160PP      PP22264  10.192  11.401   1.997 -0.1258  0.2123 -0.0536
12161PP      PP22265   1.320   8.221  12.640  0.1478  0.5759 -0.1005
12162PP      PP22266   5.014  12.944   0.742 -0.0933 -0.0672 -0.0005
12163PP      PP22267   6.949  13.559   2.363  0.4482 -0.4018 -0.1281
12164PP      PP22268  15.821  11.753   8.627  0.0746  0.2577  0.0762
12165PP      PP22269   8.797   9.388   2.232  0.0039  0.0440 -0.0040
12166PP      PP22270  14.362  14.672   8.981 -0.1273  0.3631  0.2683
12167PP      PP22271  10.366  14.507  12.103  0.0075 -0.0214  0.0039
12168PP      PP22272   2.851  10.317   1.282  0.2035  0.0384  0.0220
12169PP      PP22273  14.877   4.701  13.519  0.2064  0.0785  0.3833
12170PP      PP22274  10.433   5.715  11.732  0.1283  0.1671  0.1810
12171PP      PP22275   5.987   0.610   5.179  0.0481 -0.1968 -0.0983
12172PP      PP22276  14.327   7.890   0.432  0.0602 -0.1052  0.1482
12173PP      PP22277   4.057   5.534   0.904  0.2242 -0.1275 -0.1903
12174PP      PP22278   6.051   5.836  10.144  0.3459  0.1842  0.0912
12175PP      PP22279   6.277  14.963   9.692 -0.0392  0.1772  0.2063
12176PP      PP22280   9.058  12.405   3.462 -0.1184 -0.2554 -0.3385
12177PP      PP22281   9.326   4.819   3.201  0.1984 -0.0587 -0.0213
12178PP      PP22282  11.572  10.458   3.851 -0.1690 -0.0763  0.2061
12179PP      PP22283   5.759  14.297  13.172 -0.0744 -0.0635  0.0504
12180PP      PP22284  12.668  10.732  11.786 -0.0557  0.0896 -0.1311
12181PP      PP22285   2.794  15.605   3.039  0.1850  0.4754  0.0579
12182PP      PP22286  15.198  15.271   3.495  0.1961  0.2433  0.2704
12183PP      PP22287  14.322   0.834   2.990  0.1771  0.0081 -0.0128
12184PP      PP22288  11.000   4.868  11.499  0.2092  0.1200 -0.2437
12185PP      PP22289   2.840  11.492  12.951 -0.2179 -0.0307  0.2715
12186PP      PP22290   7.405   6.194   9.848  0.0712 -0.2194  0.0485
12187PP      PP22291   6.276   2.665   0.483  0.0361 -0.2700  0.0430
12188PP      PP22292  14.717   8.586   1.477 -0.1627  0.1411 -0.0456
12189PP      PP22293   5.942  11.871  12.319 -0.0362 -0.4944  0.1459
12190PP      PP22294  10.821   2.975   0.926 -0.0179  0.0190  0.0362
12191PP      PP22295  15.156  15.224   9.898  0.0197  0.1408  0.3684
12192PP      PP22296  13.849  14.128   9.229 -0.1034 -0.0212 -0.0701
12193PP      PP22297   9.018   7.842   9.127 -0.2952 -0.2403 -0.3375
12194PP      PP22298  15.354   1.214  11.223  0.1086  0.2425 -0.0741
12195PP      PP22299   5.016  12.320   3.364 -0.0141 -0.2065  0.1193
12196PP      PP22300   0.660   8.078   3.588 -0.3307 -0.1193  0.1384
12197PP      PP22301  15.566  15.499   9.720 -0.0870  0.0033  0.4123
12198PP      PP22302   4.382  10.880   3.773 -0.3272  0.0345  0.0536
12199PP      PP22303   6.329   5.637   1.627  0.0949  0.2411  0.1478
12200PP      PP22304  15.350   9.822   0.452 -0.0360 -0.4302  0.0841
12201PP      PP22305   8.834   7.903   3.695  0.4203 -0.0889 -0.1025
12202PP      PP22306  11.669   8.457   1.841  0.0293  0.4436 -0.0490
12203PP      PP22307   4.140   5.102  12.777  0.0275 -0.1540 -0.0887
12204PP      PP22308   6.039   2.068   4.060 -0.0519  0.2290  0.2149
12205PP      PP22309  12.854  11.519   9.014 -0.2838  0.0419 -0.2706
12206PP      PP22310  12.494   9.447   3.964 -0.1803  0.3560  0.1302
12207PP      PP22311   4.245  12.161   4.140  0.1270  0.2657  0.0904
12208PP      PP22312   9.335   8.788   3.228 -0.2439 -0.1602  0.0825
12209PP      PP22313  10.058   6.078   2.034  0.1727 -0.1534 -0.0596
12210PP      PP22314   9.752  12.814  12.285 -0.4142  0.0466  0.1762
12211PP      PP22315  12.044  15.579   1.930 -0.1686 -0.0406 -0.3271
12212PP      PP22316  10.390  15.861   4.652  0.0247  0.3161  0.4057
12213PP      PP22317  14.219   1.455  13.341 -0.0064  0.0212  0.2646
12214PP      PP22318   9.723  11.905   3.037  0.1098 -0.3942  0.3136
12215PP      PP22319   0.484   4.148   3.727 -0.2205 -0.1156 -0.0995
12216PP      PP22320  14.657   5.457  12.339  0.0339 -0.1428  0.0089
12217PP      PP22321  15.637  13.947   8.811 -0.0130 -0.1380  0.2010
12218PP      PP22322   9.064   1.093   2.594  0.0855  0.1785 -0.0457
12219PP      PP22323   0.445   8.412  11.987 -0.0384 -0.3850 -0.0808
12220PP      PP22324  11.467   1.506   1.464 -0.1119 -0.1170  0.0205
12221PP      PP22325   0.078  15.254   4.751  0.0198 -0.0781  0.0723
12222PP      PP22326   4.207   8.656  11.853 -0.1790  0.0597 -0.0128
12223PP      PP22327  10.137  15.276   9.197 -0.1595  0.1653  0.0312
12224PP      PP22328   6.508   9.322   2.247 -0.0598  0.4121 -0.0035
12225PP      PP22329   3.557   8.758   0.798 -0.1964 -0.1533  0.0156
12226PP      PP22330  12.649  14.906   9.768 -0.1330 -0.2420  0.2094
12227PP      PP22331   4.825   4.009   9.213  0.1301  0.0380 -0.1153
12228PP      PP22332   3.423   5.576   8.649 -0.1000  0.1497 -0.1566
12229PP      PP22333   3.681   5.704  13.462 -0.5546  0.2096 -0.2334
12230PP      PP22334   3.773  12.699   2.361 -0.1613  0.1117 -0.0638
12231PP      PP22335   7.013  15.279   1.107  0.2848 -0.1183  0.2489
12232PP      PP22336   9.156  11.376   4.235  0.0405  0.2518 -0.4600
12233PP      PP22337  14.599  12.940  11.069 -0.4906 -0.0311  0.0331
12234PP      PP22338  11.149   7.409   9.776 -0.1049 -0.0829  0.0201
12235PP      PP22339   9.439  12.298   0.440  0.3133  0.1967 -0.0707
12236PP      PP22340  14.332   1.539   3.595 -0.0733  0.0181 -0.0537
12237PP      PP22341   3.352   6.682  11.538  0.0767  0.0988 -0.1166
12238PP      PP22342  10.250   2.942   9.670  0.0067 -0.0592  0.0703
12239PP      PP22343   0.934   8.517  11.005 -0.1450 -0.0690  0.0524
12240PP      PP22344   3.298   6.165   3.856  0.1594  0.1504  0.2676
12241PP      PP22345   3.773   7.014  13.201  0.3157 -0.0415  0.1254
12242PP      PP22346   3.744   2.008   9.401  0.1469  0.0027  0.2203
12243PP      PP22347  11.147  14.144   4.607 -0.2352 -0.2344  0.0253
12244PP      PP22348   3.020  15.304  11.618  0.4985  0.1138 -0.0054
12245PP      PP22349   5.999  14.708   3.638  0.0310  0.3284 -0.1219
12246PP      PP22350   9.359  10.330  10.656  0.0067 -0.0550  0.0422
12247PP      PP22351   5.886   3.617   1.362 -0.0242 -0.1948  0.0619
12248PP      PP22352  12.231   5.453   2.476  0.1639  0.0046 -0.0115
12249PP      PP22353   7.661   3.118   3.568 -0.2996 -0.2529  0.3840
12250PP      PP22354  15.452   4.074  10.993 -0.0011 -0.1546 -0.1555
12251PP      PP22355  12.940  10.221  11.811  0.0302 -0.0426  0.1088
12252PP      PP22356   4.216  12.540  10.865  0.2131  0.1889 -0.0160
12253PP      PP22357  14.332   4.711  12.187  0.1713 -0.0447 -0.0309
12254PP      PP22358   6.364   2.696  10.915  0.2108  0.1247 -0.2491
12255PP      PP22359   9.471   0.307  12.050 -0.0520  0.0563  0.0348
12256PP      PP22360   6.054   4.611  10.997  0.1042  0.0780 -0.0514
12257PP      PP22361   5.910   1.214   2.933  0.1663  0.4865  0.0477
12258PP      PP22362  13.095  10.790  12.080  0.0888 -0.0909 -0.0477
12259PP      PP22363   5.401   9.089   0.941 -0.1262 -0.0447 -0.2651
12260PP      PP22364  13.585  11.772  11.082 -0.1465 -0.0495 -0.1768
12261PP      PP22365   9.533   5.537  11.635  0.0007  0.1508  0.3284
12262PP      PP22366   0.863  14.167   3.743 -0.1243  0.0310 -0.1813
12263PP      PP22367   6.580   7.911  13.377 -0.1587 -0.4442  0.2016
12264PP      PP22368   1.076   1.848   3.983 -0.0058 -0.0946  0.1775
12265PP      PP22369   9.146   1.147   5.018 -0.2311  0.1288 -0.2272
12266PP      PP22370  10.787   8.058   1.199 -0.1735 -0.0449  0.1839
12267PP      PP22371  14.661   2.829  11.753 -0.3201 -0.1804  0.1119
12268PP      PP22372   0.969   6.265   9.426 -0.0245 -0.1074 -0.2238
12269PP      PP22373  10.126  11.994  11.810 -0.1764 -0.1745  0.1028
12270PP      PP22374  10.868   3.346   2.411  0.2273 -0.1514  0.0470
12271PP      PP22375   8.531   4.238   3.651 -0.0380 -0.0612  0.0062
12272PP      PP22376  10.402   4.430   9.225 -0.2203 -0.0452 -0.1614
12273PP      PP22377  14.450   3.598   4.348 -0.1684 -0.0691  0.1052
12274PP      PP22378   5.484   0.050  11.491  0.0997 -0.0314 -0.0399
12275PP      PP22379  13.785   2.344   3.666 -0.2763  0.0737 -0.1003
12276PP      PP22380  14.019  13.559   8.892  0.1826  0.0116 -0.1618
12277PP      PP22381   5.822   1.363  11.764 -0.0376  0.0233  0.0253
12278PP      PP22382   6.293  10.815   2.233 -0.0418  0.0889 -0.1963
12279PP      PP22383   8.876   7.432   1.625  0.1907  0.1927 -0.1105
12280PP      PP22384   3.005  10.072   0.341 -0.2435  0.0918 -0.0694
12281PP      PP22385   3.342   4.387   0.514 -0.1414  0.0891  0.0089
12282PP      PP22386  15.592   3.584  10.983  0.0762  0.0338 -0.0664
12283PP      PP22387  11.345  13.484   2.707 -0.2744  0.2251  0.0102
12284PP      PP22388   1.107   6.832  12.583 -0.0350  0.1118 -0.2427
12285PP      PP22389  10.414   5.462  12.249 -0.1814 -0.1694 -0.1166
12286PP      PP22390  15.360   3.128  10.686  0.3600  0.3229 -0.1871
12287PP      PP22391  12.604   9.861   1.159  0.0997  0.0967 -0.0124
12288PP      PP22392  11.253   4.090   0.741  0.0145 -0.0556  0.1686
12289PP      PP22393   9.790   9.319   1.801  0.1537  0.0663  0.1558
12290PP      PP22394   1.977   6.675   8.878  0.0500  0.1304 -0.0870
12291PP      PP22395   3.405   2.938   4.734  0.0351 -0.0108 -0.0954
12292PP      PP22396  15.232   6.576  10.497  0.0916  0.0126 -0.1871
12293PP      PP22397   0.292  12.015   2.334 -0.1319  0.0222  0.3775
12294PP      PP22398   3.143   9.352   2.003 -0.0297  0.0152  0.0882
12295PP      PP22399  15.449   4.562  12.672 -0.0130  0.1622 -0.2024
12296PP      PP22400   0.994   1.766  10.342  0.4565 -0.2338  0.2092
12297PP      PP22401  11.101  11.188   0.456 -0.0832  0.0619 -0.2174
12298PP      PP22402   7.242   2.448  13.319 -0.0423  0.0621 -0.1579
12299PP      PP22403  10.750  10.269  12.438  0.0060  0.1601  0.1057
12300PP      PP22404   1.953  12.963   3.123  0.0641 -0.1041 -0.1365
12301PP      PP22405   4.625  12.666   9.316 -0.2585  0.1909 -0.0402
12302PP      PP22406  15.042   0.275  11.280  0.0365 -0.2581  0.2094
12303PP      PP22407   6.070   2.568   4.228 -0.1637 -0.0718  0.0465
12304PP      PP22408  15.568   8.951  12.216 -0.0205 -0.2408  0.1756
12305PP      PP22409  14.819  15.212  11.720 -0.2085 -0.3794 -0.2680
12306PP      PP22410   2.511   7.078   3.617  0.1969 -0.0195 -0.2090
12307PP      PP22411   5.360   1.883   2.650 -0.3092 -0.0200 -0.1091
12308PP      PP22412  10.872   0.927   1.188 -0.4185 -0.0360  0.0332
12309PP      PP22413  15.032   1.388   0.592  0.1175  0.0307  0.0885
12310PP      PP22414   7.820   2.837  10.356 -0.1902  0.0114  0.0361
12311PP      PP22415  14.734   8.265   3.209  0.2446  0.3279 -0.0413
12312PP      PP22416  11.592   3.992  11.534  0.1370  0.0742  0.1319
12313PP      PP22417   6.022   4.907  10.642 -0.0517  0.0099 -0.1012
12314PP      PP22418   5.385   7.763   8.769 -0.2718  0.2222  0.1163
12315PP      PP22419  10.723   3.463   1.967 -0.3986  0.0544  0.2251
12316PP      PP22420  14.039   4.105   0.932 -0.1022 -0.2599 -0.3176
12317PP      PP22421   0.608  14.774   0.221 -0.0270 -0.3383 -0.1127
12318PP      PP22422   3.485   2.702   9.907 -0.3578 -0.0872 -0.2337
12319PP      PP22423   6.003   5.233  10.168 -0.2932  0.0589  0.2445
12320PP      PP22424  10.644   8.770  10.240  0.4663 -0.1710 -0.1924
12321PP      PP22425  14.524   7.632   8.067  0.2138 -0.2271  0.0275
12322PP      PP22426   9.245   8.202  10.466  0.0422 -0.1489 -0.0938
12323PP      PP22427   1.496  14.129  10.047  0.0429 -0.2082 -0.0266
12324PP      PP22428   2.779   3.025  10.579 -0.1584  0.0175 -0.0916
12325PP      PP22429   7.039   6.107  11.878  0.0028 -0.2641  0.3209
12326PP      PP22430  12.293   0.787   3.449  0.3146 -0.2426 -0.0794
12327PP      PP22431   3.297   1.940   2.572 -0.4582  0.0070 -0.4939
12328PP      PP22432   9.957   8.763   9.949  0.1504 -0.1009 -0.0101
12329PP      PP22433   0.428  12.125   8.723 -0.0256  0.3409 -0.0748
12330PP      PP22434  11.979   1.676   1.164  0.2358  0.0739  0.2269
12331PP      PP22435   7.862   5.309   2.405 -0.2141 -0.2607  0.1697
12332PP      PP22436   7.674   0.765  11.918  0.1452  0.0247  0.1931
12333PP      PP22437   8.778   3.371   3.903  0.0772  0.3295  0.1784
12334PP      PP22438   9.923  11.578   1.440 -0.0424  0.0334 -0.0018
12335PP      PP22439   7.301   8.340   0.873  0.1242  0.1459 -0.1031
12336PP      PP22440   3.552   5.738   2.450 -0.1140  0.1780  0.1503
12337PP      PP22441   7.414   2.240   2.999  0.0879  0.1490  0.2217
12338PP      PP22442  13.073   6.021   0.634 -0.0468 -0.0248  0.1820
12339PP      PP22443   1.560   8.138   2.762 -0.0109  0.0195  0.0619
12340PP      PP22444   9.726   4.686  12.038  0.3569 -0.0120  0.1691
12341PP      PP22445   6.697   8.983  12.686 -0.0400 -0.0556  0.0420
12342PP      PP22446   8.893  14.125  11.676  0.1751  0.1045  0.1028
12343PP      PP22447  14.357   3.564  13.215 -0.2259 -0.1058  0.0977
12344PP      PP22448  12.052   0.977   1.769  0.1239 -0.2599 -0.3041
12345PP      PP22449  15.744   8.276   1.460 -0.0243 -0.0582 -0.0908
12346PP      PP22450  10.163   7.993  13.267  0.0309  0.3188  0.0265
12347PP      PP22451  13.690   1.406   2.850  0.1108  0.0586 -0.1905
12348PP      PP22452   6.057  11.942  12.781  0.1286  0.0432 -0.1204
12349PP      PP22453   2.008   6.132   0.316  0.0515  0.3701  0.0579
12350PP      PP22454  15.276   9.780   1.042  0.1804 -0.1665 -0.0649
12351PP      PP22455   0.847  12.565  12.461 -0.0669 -0.1204  0.0229
12352PP      PP22456   6.274   7.327   1.243  0.3627  0.3626  0.1065
12353PP      PP22457   5.428  11.654   3.264  0.4110 -0.2559  0.1480
12354PP      PP22458   3.030  10.817   8.488 -0.0013 -0.1613 -0.0027
12355PP      PP22459   9.197   6.621  12.529 -0.0491  0.0786 -0.0742
12356PP      PP22460  12.850  12.845  11.967 -0.3288  0.1867 -0.0573
12357PP      PP22461   9.575   2.911  10.435  0.0895  0.0468  0.3989
12358PP      PP22462   2.349   9.822   8.614 -0.2891 -0.2881 -0.3241
12359PP      PP22463  11.021   3.973  11.759 -0.2240  0.2402 -0.2188
12360PP      PP22464  12.922  13.856   1.778 -0.1310  0.4140 -0.0079
12361PP      PP22465   5.331   2.724   3.244 -0.1744  0.0264 -0.0966
12362PP      PP22466   8.211  10.078   9.797  0.0210  0.1078 -0.2905
12363PP      PP22467  15.624   3.872   3.399  0.1518  0.1020 -0.0096
12364PP      PP22468   8.004   9.961   8.810  0.1617 -0.1318 -0.1751
12365PP      PP22469  11.927  14.067   0.052 -0.1472 -0.0805 -0.0979
12366PP      PP22470   0.970  15.070  13.442  0.0390 -0.1379 -0.0624
12367PP      PP22471   1.395  11.232   1.488  0.2035 -0.0840  0.4518
12368PP      PP22472  12.678   4.822   3.186 -0.1807  0.1495  0.2172
12369PP      PP22473   1.024  12.071  11.765 -0.0630  0.1234 -0.2881
12370PP      PP22474  10.910   9.839   9.772 -0.0510 -0.1217 -0.3640
12371PP      PP22475   6.336   3.424   1.541 -0.0728  0.0889 -0.0524
12372PP      PP22476   4.306  14.711   3.251  0.1369 -0.1270  0.1289
12373PP      PP22477  10.635   5.815  11.301  0.0807 -0.1052  0.1084
12374PP      PP22478  12.883  13.511  12.712 -0.2762 -0.2120 -0.2182
12375PP      PP22479   1.375   8.528   9.161  0.1089 -0.0061 -0.1506
12376PP      PP22480  15.258   0.070  13.321 -0.0287 -0.0658 -0.1014
12377PP      PP22481   3.446   9.637  11.635 -0.0762 -0.2270  0.0933
12378PP      PP22482   1.617   9.753   2.219 -0.0757  0.1093  0.0821
12379PP      PP22483  13.077   3.178  11.912  0.0694  0.0231 -0.0638
12380PP      PP22484  11.645   6.717  12.806 -0.3304  0.0714  0.1866
12381PP      PP22485   6.357  11.597   0.702  0.2439  0.2298  0.1335
12382PP      PP22486   9.134   9.033   8.796  0.0059 -0.1663 -0.1293
12383PP      PP22487  12.357   4.936   3.572 -0.1422  0.0235 -0.0303
12384PP      PP22488   8.188   7.477   3.836  0.2472 -0.0929  0.2294
12385PP      PP22489   8.316  13.000   8.879  0.2655  0.0206  0.0576
12386PP      PP22490   8.434   4.614   4.194 -0.2304 -0.1056 -0.1347
12387PP      PP22491   6.645  13.785   9.954 -0.2591 -0.1035  0.0182
12388PP      PP22492   1.651   1.314  13.165  0.2575  0.0726 -0.0188
12389PP      PP22493   3.260  15.056  10.148 -0.1724 -0.0796  0.2371
12390PP      PP22494   8.841  13.142  13.411  0.1342 -0.1137 -0.0917
12391PP      PP22495   3.302  12.052   1.922 -0.0361 -0.0524  0.1204
12392PP      PP22496   9.313   2.698  10.925  0.1321 -0.1315 -0.2357
12393PP      PP22497   5.112  13.394  13.047 -0.0118  0.0227 -0.0610
12394PP      PP22498   9.397   6.027   2.813  0.0927  0.1348  0.0480
12395PP      PP22499   0.813   3.003  11.284  0.1758 -0.1909  0.3060
12396PP      PP22500   3.954   5.229  12.260  0.0080 -0.0360  0.0052
12397PP      PP22501  10.170   9.996  11.431  0.1991  0.2166  0.1815
12398PP      PP22502   2.599  14.012  12.426 -0.0679  0.0721  0.0365
12399PP      PP22503  15.851   2.682   0.892  0.1496  0.1530  0.2163
12400PP      PP22504   2.350   3.704   0.201  0.0818  0.0946  0.0206
12401PP      PP22505   1.731   8.717  10.378 -0.1923 -0.2570 -0.2742
12402PP      PP22506   5.262  10.097   0.995  0.1042 -0.1500  0.1260
12403PP      PP22507   2.892   6.245   6.638 -0.0314 -0.2239  0.2943
12404PP      PP22508   8.454  14.960   0.735  0.0594  0.0145 -0.0390
12405PP      PP22509   8.529   2.940   2.761  0.0798 -0.1119 -0.2802
12406PP      PP22510   5.051  12.317   9.186  0.1368  0.1441  0.3566
12407PP      PP22511   8.731  12.969   9.384  0.3135  0.1831 -0.2213
12408PP      PP22512  13.302   0.949   1.991  0.1114  0.0550 -0.0067
12409PP      PP22513  11.701  13.619   2.317 -0.1064 -0.2734 -0.0329
12410PP      PP22514  13.852   9.038  13.322  0.1590 -0.1333  0.0374
12411PP      PP22515   9.604   7.040   2.343  0.2976  0.0434 -0.1074
12412PP      PP22516  13.681   6.229  10.295  0.1587 -0.1379  0.3134
12413PP      PP22517   6.662  11.223  11.142 -0.1759 -0.0561  0.0190
12414PP      PP22518  13.325  12.669   2.276 -0.2448  0.2191  0.1623
12415PP      PP22519   5.269   1.479   0.716  0.0336 -0.0059 -0.3346
12416PP      PP22520   6.227  11.605   3.640  0.0958  0.1231  0.3053
12417PP      PP22521  14.707   7.427   8.503 -0.0782 -0.0607 -0.1181
12418PP      PP22522   6.576   1.209  11.048  0.2127 -0.1984  0.0009
12419PP      PP22523   0.081  14.478  10.000 -0.1015 -0.3659  0.0633
12420PP      PP22524   1.855   2.864   1.392  0.3116  0.0438 -0.0093
12421PP      PP22525   5.929  13.601  11.462  0.0869  0.1446 -0.1880
12422PP      PP22526  13.675  14.427  10.322  0.1149 -0.0524 -0.0952
12423PP      PP22527   3.945  14.790   2.730 -0.0654  0.1064  0.3095
12424PP      PP22528  15.309   0.118   4.593  0.0761  0.1415 -0.0986
12425PP      PP22529   7.617  11.652   1.517 -0.2138 -0.1903  0.2373
12426PP      PP22530  12.231  12.990  12.369 -0.0021 -0.2412 -0.1514
12427PP      PP22531   7.117   5.614   2.125 -0.1272 -0.0188 -0.2770
12428PP      PP22532  15.706  10.567  13.066  0.1823 -0.0389  0.1602
12429PP      PP22533   0.347   8.151   1.602 -0.1899 -0.4036  0.1018
12430PP      PP22534   2.454   6.576   8.960 -0.1164 -0.4590  0.1083
12431PP      PP22535  10.379  14.133   2.940  0.0619 -0.0257 -0.2612
12432PP      PP22536   4.759   8.160  10.875  0.2433  0.4344  0.2870
12433PP      PP22537   8.656  10.801   2.677  0.0312  0.2489 -0.0077
12434PP      PP22538  10.949   4.293   2.258  0.1435  0.0849  0.0213
12435PP      PP22539  11.848   8.373  12.653  0.0591  0.0714  0.0764
12436PP      PP22540  10.304   8.799   8.237  0.0832  0.0655 -0.0600
12437PP      PP22541   6.917   2.676  10.753  0.1188 -0.0502 -0.3166
12438PP      PP22542   9.960   1.819  12.577 -0.2278  0.0606  0.1056
12439PP      PP22543  10.446   1.749  12.369 -0.0489  0.2750  0.1739
12440PP      PP22544   1.828   3.712  12.742 -0.0616 -0.0111  0.3859
12441PP      PP22545   4.193  10.911  10.144  0.0802 -0.1495  0.2681
12442PP      PP22546  14.393  12.888   3.507  0.1534 -0.0451 -0.3262
12443PP      PP22547   1.984   6.138  12.084 -0.0236  0.0652 -0.1639
12444PP      PP22548   6.501   3.500  11.653 -0.1477 -0.0756  0.0024
12445PP      PP22549   4.665   2.715   3.539 -0.2361 -0.2297  0.0154
12446PP      PP22550   3.479   2.672   2.041  0.2319 -0.3077 -0.1778
12447PP      PP22551   0.316   1.749   0.984 -0.2811 -0.1561  0.0201
12448PP      PP22552   8.379   2.510   4.287 -0.2347 -0.1994  0.2107
12449PP      PP22553   6.371   7.585   2.112  0.0801  0.3079  0.0942
12450PP      PP22554  15.033  14.911   2.344 -0.3173 -0.3176 -0.0604
12451PP      PP22555   6.467  15.618   4.471  0.0569 -0.1855 -0.1616
12452PP      PP22556   5.299   7.883   0.584  0.0243  0.0766 -0.1391
12453PP      PP22557   7.303   3.460   3.539  0.1495 -0.2779 -0.1713
12454PP      PP22558   2.772   4.269   0.288  0.1177 -0.1989  0.1852
12455PP      PP22559   5.297  10.568   4.043  0.1468 -0.3738  0.1792
12456PP      PP22560   4.448   8.292   2.974 -0.0875 -0.1712  0.0313
12457PP      PP22561  14.455   9.139  11.957  0.3103 -0.0953 -0.1931
12458PP      PP22562   3.778  15.062  12.649  0.0875 -0.2231 -0.2898
12459PP      PP22563  14.614   9.187   1.893 -0.1922  0.0063 -0.1288
12460PP      PP22564   2.495   5.813   3.429 -0.0725 -0.2118 -0.4631
12461PP      PP22565  14.446   2.355   1.722  0.0457 -0.0221  0.0355
12462PP      PP22566   7.275   9.307  13.408  0.0686 -0.0569 -0.1733
12463PP      PP22567  10.305  11.805   1.101  0.0014  0.2226 -0.0469
12464PP      PP22568  15.578  13.614   0.152 -0.1977 -0.0518  0.0253
12465PP      PP22569  12.357  14.809   4.140  0.2367  0.0477  0.3777
12466PP      PP22570   1.826   7.420   9.846  0.0440 -0.0048 -0.1044
12467PP      PP22571   4.935   4.914  11.442 -0.2495 -0.0545  0.0616
12468PP      PP22572   6.934   1.075   4.218  0.0830  0.1917  0.2456
12469PP      PP22573  13.977   0.129  10.781  0.1435 -0.2253 -0.3054
12470PP      PP22574   6.786   0.219   2.825  0.1009 -0.3269 -0.1224
12471PP      PP22575   4.515  11.387  10.086 -0.2078  0.3072 -0.0102
12472PP      PP22576   0.138   7.797   1.252  0.2052 -0.2550  0.0570
12473PP      PP22577   5.099  10.816  10.525  0.0520  0.1795  0.2209
12474PP      PP22578  13.634  12.591  13.080 -0.3261  0.2771  0.0151
12475PP      PP22579  10.255   6.334  10.373 -0.0693  0.5162  0.1878
12476PP      PP22580   2.599  12.260   2.150  0.2015  0.1435 -0.0354
12477PP      PP22581   7.388   5.443  10.663  0.0142 -0.1440  0.1027
12478PP      PP22582   0.948  11.143   9.891  0.1991 -0.0424  0.3076
12479PP      PP22583   6.180  14.753  13.256  0.0245  0.0015 -0.2263
12480PP      PP22584   8.699   4.728   1.290 -0.2150  0.1804  0.1078
12481PP      PP22585   4.088   0.641   2.356  0.1829  0.0268 -0.2675
12482PP      PP22586   1.545  14.655  11.877 -0.0213  0.1186  0.2916
12483PP      PP22587   2.761  13.496  11.401 -0.1042 -0.1266  0.0024
12484PP      PP22588   8.785  14.148   0.226  0.1563  0.3174 -0.1226
12485PP      PP22589   6.293   8.267   3.651  0.0345  0.1735  0.0884
12486PP      PP22590   3.277  12.893   2.652  0.0538 -0.3302  0.4521
12487PP      PP22591  13.412  13.905   3.615  0.0540 -0.1665  0.5253
12488PP      PP22592   6.188   7.730   8.893 -0.4951 -0.1266  0.1126
12489PP      PP22593  14.461  14.351   3.862  0.2568  0.2246 -0.0522
12490PP      PP22594  15.468  14.976  10.189  0.2056  0.0405 -0.0515
12491PP      PP22595  13.655   7.677  11.669  0.0856 -0.2063 -0.1103
12492PP      PP22596  11.508  11.682   1.447 -0.2241  0.3244  0.0988
12493PP      PP22597   7.532   0.477  10.414  0.0021  0.0792  0.0644
12494PP      PP22598   2.572   5.902  12.947  0.2199 -0.2220 -0.2837
12495PP      PP22599   4.858   7.194   2.328 -0.2280 -0.2277  0.0877
12496PP      PP22600   2.095   8.374   3.990 -0.0227  0.2323 -0.1168
12497PP      PP22601   8.358   0.891   2.226 -0.5308  0.0287  0.1538
12498PP      PP22602  10.456  13.042   1.527 -0.4233 -0.4076  0.1682
12499PP      PP22603   7.495  11.364   2.262  0.0956  0.0265 -0.1570
12500PP      PP22604   8.042   6.105  10.599 -0.1164  0.0685 -0.0793
12501PP      PP22605   8.263  14.659  10.582 -0.1428  0.1418 -0.1527
12502PP      PP22606   5.824  11.699   2.969 -0.0167 -0.1753 -0.0755
12503PP      PP22607   8.260  13.821   3.884  0.0326 -0.1853  0.2070
12504PP      PP22608   3.126  14.381   2.689 -0.0138 -0.1829  0.0574
12505PP      PP22609   3.863   4.629  12.295 -0.0831 -0.0051  0.0297
12506PP      PP22610   1.543  12.900  11.569  0.0628 -0.1071 -0.0392
12507PP      PP22611   7.938   5.456   2.989 -0.1126  0.2296 -0.0628
12508PP      PP22612   3.208  12.337  12.928 -0.0477 -0.2923  0.2043
12509PP      PP22613   4.921  10.276   3.853 -0.0773 -0.2482  0.2661
12510PP      PP22614   2.633  11.045  10.114 -0.0203  0.2414  0.0044
12511PP      PP22615  11.005   3.621  12.879  0.1757  0.2146  0.2083
12512PP      PP22616  12.500  13.045   2.124  0.0537 -0.2241  0.2942
12513PP      PP22617   4.694  13.850  13.023 -0.0842  0.0439 -0.1922
12514PP      PP22618  12.705   3.625   2.512 -0.0033  0.3643 -0.2353
12515PP      PP22619   3.120  13.483  11.869 -0.1479 -0.3075 -0.0251
12516PP      PP22620   2.857  14.766  10.336  0.0693  0.1729  0.1064
12517PP      PP22621   6.790   5.519  12.418 -0.1275 -0.2996 -0.0589
12518PP      PP22622  11.851   4.173   1.954 -0.0589 -0.1695  0.0583
12519PP      PP22623   0.941   1.693  11.923 -0.0403  0.2772 -0.2945
12520PP      PP22624  12.531   0.008   9.575 -0.0132 -0.2015 -0.5620
12521PP      PP22625   6.117  14.933  11.130 -0.0177 -0.2874  0.4060
12522PP      PP22626   4.202  13.977   3.934  0.0964  0.0281 -0.2815
12523PP      PP22627  11.588  14.493   8.806 -0.1723 -0.2234 -0.0796
12524PP      PP22628   4.469   9.234   8.878  0.1280 -0.2008 -0.1516
12525PP      PP22629   8.178   9.562   8.531  0.0841 -0.0674 -0.2140
12526PP      PP22630   6.496  10.973  10.325 -0.1586 -0.2652  0.0850
12527PP      PP22631  12.139   4.939   9.581  0.1551 -0.0547  0.3878
12528PP      PP22632   0.067  11.397   1.883  0.3840  0.0812  0.1772
12529PP      PP22633   5.681   1.488   3.270 -0.1107  0.0284  0.2547
12530PP      PP22634   7.553   5.596   2.704  0.1110 -0.1311  0.5021
12531PP      PP22635  15.101  13.135  10.859  0.1775  0.2906  0.0374
12532PP      PP22636   5.236   4.521  10.514  0.0111 -0.1706  0.3520
12533PP      PP22637   6.029  14.471   9.096 -0.1010 -0.7497 -0.2798
12534PP      PP22638   3.918   3.311  11.156 -0.0108  0.1074  0.0002
12535PP      PP22639   7.826   9.343  13.061  0.0724  0.0657 -0.1130
12536PP      PP22640   7.798  15.277  11.162 -0.1340 -0.0527  0.3629
12537PP      PP22641  15.711  14.223   9.692  0.1928  0.1461 -0.0466
12538PP      PP22642   3.873  12.091   2.750  0.2545  0.0433  0.3386
12539PP      PP22643   1.022   9.764  10.904  0.0123  0.0020 -0.0078
12540PP      PP22644  15.726   2.552  13.471  0.2255  0.2078  0.0070
12541PP      PP22645   1.935   2.327   0.352  0.1407  0.2191  0.3102
12542PP      PP22646  11.301   7.969   2.803 -0.1694 -0.0337 -0.4350
12543PP      PP22647  14.300  14.523   3.002  0.1674  0.0043 -0.1235
12544PP      PP22648   9.812   2.390   2.018  0.1075  0.4587  0.0301
12545PP      PP22649  10.488   2.872  13.452 -0.3556 -0.1699 -0.0677
12546PP      PP22650   8.685   6.572  12.861 -0.1445  0.3013 -0.3782
12547PP      PP22651   5.762   0.981  13.221 -0.0294 -0.1006  0.0645
12548PP      PP22652  14.300   2.316  10.003 -0.3799 -0.0255  0.0628
12549PP      PP22653   1.391  10.882  13.429 -0.0170  0.0112 -0.3487
12550PP      PP22654   8.154   8.454  13.372  0.1551  0.0341 -0.0922
12551PP      PP22655   0.519   8.119  11.055  0.0415  0.0366 -0.1613
12552PP      PP22656  12.424   4.612  10.469  0.0836 -0.0636 -0.0064
12553PP      PP22657   5.160   3.557   9.591 -0.0263 -0.4755  0.1458
12554PP      PP22658   0.245   9.988   3.211  0.0816  0.0149 -0.1164
12555PP      PP22659   2.804   8.049  13.484  0.1470 -0.1299  0.1879
12556PP      PP22660   1.132   8.545   2.685  0.0621 -0.0489 -0.0263
12557PP      PP22661  13.659  12.636   0.535  0.1451 -0.0307  0.0900
12558PP      PP22662   3.916   9.875   8.813 -0.0499  0.2272 -0.0838
12559PP      PP22663   0.107   6.484   8.780 -0.0431 -0.1807  0.1192
12560PP      PP22664   3.860   4.589  11.338  0.0910 -0.0152  0.1887
12561PP      PP22665   1.259   0.288   1.227 -0.1563 -0.0774  0.0253
12562PP      PP22666  10.299   7.101   1.206  0.1648  0.0653 -0.2504
12563PP      PP22667   9.154   0.319  13.315 -0.1386  0.0601 -0.1543
12564PP      PP22668   1.825   9.804  13.337  0.1126  0.2942  0.2794
12565PP      PP22669   0.525   3.350   0.759 -0.1697 -0.0557 -0.1331
12566PP      PP22670  13.171   4.800   3.174 -0.0560  0.0379  0.2220
12567PP      PP22671   0.277  11.019   0.884  0.0639  0.0141 -0.1284
12568PP      PP22672  14.759  11.901  12.681 -0.0022  0.2301  0.4116
12569PP      PP22673  11.047  13.876   8.794 -0.1869  0.0509 -0.2440
12570PP      PP22674   6.241   9.306   9.542 -0.0772  0.1881  0.0595
12571PP      PP22675   9.072  14.076  13.257 -0.0335 -0.2405  0.0106
12572PP      PP22676   8.291   0.305  10.884  0.1752  0.1619  0.2266
12573PP      PP22677   7.384   0.553   2.431  0.0161  0.1619  0.1022
12574PP      PP22678  14.107   0.462   2.243  0.3905 -0.2349 -0.0417
12575PP      PP22679   2.960   3.826   3.644  0.0668  0.1124  0.0749
12576PP      PP22680  14.074   9.591  10.033 -0.1878  0.3458 -0.1789
12577PP      PP22681   3.523   6.216  10.271  0.0289 -0.0094 -0.4009
12578PP      PP22682   1.083   5.580   4.199 -0.0318  0.0150  0.1388
12579PP      PP22683   7.506  15.372   1.464 -0.1155  0.2445  0.0747
12580PP      PP22684   1.931   2.951   2.741 -0.1588 -0.0143  0.0398
12581PP      PP22685   5.002   2.065   2.381  0.3607 -0.0278  0.1513
12582PP      PP22686   8.394  12.594   0.215 -0.0556 -0.0034 -0.4871
12583PP      PP22687   5.807   0.381   1.738 -0.0873 -0.1586 -0.0055
12584PP      PP22688   4.861  15.191  13.365 -0.2151 -0.0762 -0.1294
12585PP      PP22689   0.221  14.727   0.466  0.0132  0.1511 -0.1887
12586PP      PP22690   9.787   9.554   4.328  0.2693  0.0247 -0.2097
12587PP      PP22691  12.416  10.764   9.642 -0.0796 -0.0864  0.2725
12588PP      PP22692   3.739   9.316  12.102 -0.1002  0.1343  0.2156
12589PP      PP22693   5.761  15.684   1.586  0.0101  0.1709  0.0650
12590PP      PP22694   0.737  15.805   2.677 -0.2867  0.3013  0.1305
12591PP      PP22695   5.842   3.402  12.283 -0.1904  0.1244  0.0834
12592PP      PP22696   2.737   8.828   3.436  0.2366  0.1342  0.0585
12593PP      PP22697   3.581  10.268   3.489  0.0537  0.0778 -0.2096
12594PP      PP22698  11.982  12.276   3.427 -0.1384  0.0894  0.3385
12595PP      PP22699   6.121  10.629   2.707  0.0529 -0.1425 -0.0052
12596PP      PP22700   1.168   7.080  11.311  0.0922  0.0523  0.1738
12597PP      PP22701   9.577   2.446   0.025  0.0293 -0.2050  0.0255
12598PP      PP22702   0.444  15.779   3.973 -0.1229 -0.0393 -0.3196
12599PP      PP22703  10.371   5.954  12.473 -0.0748  0.3259 -0.1559
12600PP      PP22704   7.597   6.994  11.692  0.0154  0.6225  0.1620
12601PP      PP22705   2.659   4.497  11.419 -0.2543  0.1060 -0.0630
12602PP      PP22706   0.128   5.487   9.587  0.0433 -0.1272  0.1570
12603PP      PP22707  10.023  14.197   9.221 -0.0272 -0.0320  0.2688
12604PP      PP22708   4.720   3.542   8.656  0.0209  0.2226  0.0469
12605PP      PP22709   1.899  13.951   1.651  0.1290  0.0431 -0.2866
12606PP      PP22710   4.943  14.450   9.912  0.2313 -0.1980 -0.2437
12607PP      PP22711  12.111  13.311   2.346  0.1259  0.0821  0.0069
12608PP      PP22712   8.429   1.014   4.574 -0.1902  0.0621  0.0383
12609PP      PP22713   2.325  13.520   2.335 -0.1010 -0.1384 -0.4865
12610PP      PP22714  10.768   2.176  10.670  0.0016 -0.1422  0.2030
12611PP      PP22715  11.649   4.370  13.083 -0.0115 -0.2269  0.0849
12612PP      PP22716  13.862  15.623   2.349 -0.1580  0.0018 -0.2776
12613PP      PP22717   6.337   9.336  13.424 -0.0015 -0.0432 -0.0749
12614PP      PP22718   3.150   1.713  12.660 -0.2860  0.0718  0.1492
12615PP      PP22719  11.147   2.992  12.272 -0.1809 -0.1864 -0.1479
12616PP      PP22720  11.201   4.498   3.161 -0.1909  0.2693 -0.2891
12617PP      PP22721  10.502  13.339   0.827  0.2878 -0.0523 -0.1616
12618PP      PP22722   2.217   4.558   2.309 -0.0808 -0.1188  0.0122
12619PP      PP22723   2.181  12.343   1.861 -0.1181  0.2387 -0.1655
12620PP      PP22724   4.179   9.814   1.375 -0.0594 -0.1815 -0.0091
12621PP      PP22725   8.417   5.718   8.679 -0.1037  0.1060 -0.0793
12622PP      PP22726  11.764   9.544   2.839  0.0737 -0.3073 -0.2900
12623PP      PP22727   6.146   9.893   3.305 -0.0213  0.0235  0.0159
12624PP      PP22728  14.714   5.342   3.873 -0.0905 -0.2510 -0.0490
12625PP      PP22729  12.991  12.394   2.556 -0.2739 -0.1300  0.0014
12626PP      PP22730  15.820   1.954  11.196 -0.3326  0.3926  0.1148
12627PP      PP22731   4.319   0.066  13.114 -0.0961 -0.0433 -0.2733
12628PP      PP22732   8.305  13.392   9.232 -0.1318 -0.0602 -0.1246
12629PP      PP22733   9.980  13.365  12.678 -0.1102 -0.1189 -0.0465
12630PP      PP22734   2.143   9.777   1.923 -0.0127 -0.1858  0.1121
12631PP      PP22735   9.884  13.082   1.518 -0.2052  0.1013 -0.1714
12632PP      PP22736  12.570   4.816   1.836 -0.1807 -0.0803 -0.2111
12633PP      PP22737  14.704   0.722   9.661  0.1731  0.0611  0.1408
12634PP      PP22738   8.674   6.187   8.574  0.0178 -0.1766 -0.0154
12635PP      PP22739   4.348  15.418  13.313  0.1124 -0.0713 -0.1581
12636PP      PP22740  11.202  11.649   8.725 -0.2185  0.0608  0.1195
12637PP      PP22741   5.344   3.354   2.624  0.2113 -0.2316 -0.0014
12638PP      PP22742  10.488   1.846   3.710  0.2092  0.3109 -0.1669
12639PP      PP22743   8.371   9.041   3.503 -0.0919 -0.4242 -0.1278
12640PP      PP22744   9.390  12.951  10.977  0.1571 -0.0627  0.1835
12641PP      PP22745  15.402   7.633   9.628  0.0692 -0.4337  0.2491
12642PP      PP22746  13.744   0.583   1.856  0.0471  0.0292 -0.2993
12643PP      PP22747  14.674  15.852  13.354 -0.0348  0.0418  0.0974
12644PP      PP22748  13.255   3.826   2.122 -0.1151 -0.1403  0.1053
12645PP      PP22749   0.717  10.812  10.835  0.0939 -0.2397  0.2696
12646PP      PP22750  10.825   6.161  12.820  0.0241  0.0131 -0.1193
12647PP      PP22751   6.865  15.586   3.050  0.2348  0.0425  0.2447
12648PP      PP22752   8.774   2.027   0.078  0.1263  0.0519 -0.1432
12649PP      PP22753   2.882   1.871  10.370 -0.0237  0.1937  0.1052
12650PP      PP22754   7.961   9.085   1.890  0.1677  0.1939  0.0219
12651PP      PP22755   5.502  12.689   1.157  0.0684  0.3488 -0.0347
12652PP      PP22756  10.807   5.781  12.177  0.0667 -0.0376  0.0237
12653PP      PP22757   9.416   7.916   1.463  0.1356 -0.1301 -0.0131
12654PP      PP22758   5.397  12.677   0.306 -0.1021 -0.0165  0.3046
12655PP      PP22759   8.854   4.425   2.301  0.0754 -0.1763 -0.0895
12656PP      PP22760   2.060   6.894   8.423 -0.0757  0.1852  0.0638
12657PP      PP22761   7.188  10.823   2.175  0.0113 -0.1488 -0.0625
12658PP      PP22762  11.978  15.383   3.860 -0.0603  0.0856  0.0162
12659PP      PP22763   9.925   4.662   2.276  0.4293  0.2550 -0.0617
12660PP      PP22764   5.938   6.616   0.104 -0.1613 -0.0766  0.2534
12661PP      PP22765  12.106  10.656   0.320 -0.0611 -0.1598  0.0593
12662PP      PP22766  11.338   9.421   4.219  0.0603  0.1139  0.2310
12663PP      PP22767   1.924   6.323   2.898 -0.0176  0.0638 -0.2009
12664PP      PP22768   1.174  14.302  11.123  0.0578  0.1086  0.2422
12665PP      PP22769   6.390   7.804   9.912  0.1069 -0.3151 -0.0774
12666PP      PP22770   8.775   2.110   1.236 -0.1472  0.4636 -0.0974
12667PP      PP22771  13.345   6.922  12.927 -0.0823  0.2793  0.0004
12668PP      PP22772  12.727   5.294   1.741 -0.1116  0.0692 -0.1234
12669PP      PP22773   6.756  12.525   2.907 -0.3173 -0.0768 -0.2789
12670PP      PP22774   8.672  12.285   2.643  0.2666 -0.2686  0.1091
12671PP      PP22775   9.678   2.409   3.844 -0.3298 -0.0661 -0.3516
12672PP      PP22776   8.073  15.682   1.322  0.1805  0.1290 -0.1511
12673PP      PP22777  11.816  15.792  10.087 -0.1553  0.0354  0.2193
12674PP      PP22778   9.575  14.082  11.666  0.1721  0.1132 -0.0537
12675PP      PP22779  13.259   1.509  10.334 -0.3481  0.4649 -0.3634
12676PP      PP22780   5.584   6.429   9.243  0.1460 -0.0322 -0.1449
12677PP      PP22781   7.989   1.941  10.220 -0.2522  0.4493 -0.2271
12678PP      PP22782  15.096   8.938   2.853  0.0250 -0.0390  0.0482
12679PP      PP22783  11.190   1.476   2.524 -0.3322 -0.1148 -0.1794
12680PP      PP22784  13.337   1.463   1.350 -0.0945  0.0270  0.0017
12681PP      PP22785  15.368  14.946   4.479  0.1300 -0.1004  0.0002
12682PP      PP22786   7.252   9.401   1.755 -0.1728 -0.1517 -0.4062
12683PP      PP22787   1.774  14.809  11.375  0.0437 -0.1849  0.2036
12684PP      PP22788   2.193  15.111   3.694 -0.2306 -0.3003  0.3953
12685PP      PP22789   3.921   1.885   9.836  0.0953 -0.0492 -0.0250
12686PP      PP22790   3.590   0.446   2.317  0.0884 -0.0444  0.0154
12687PP      PP22791  11.864  10.243   2.279 -0.1195  0.0802 -0.2674
12688PP      PP22792   9.406   7.746  10.624  0.1956 -0.1053  0.0495
12689PP      PP22793  12.379   2.433   0.909 -0.3243  0.1149 -0.2423
12690PP      PP22794   4.332  13.786  13.434 -0.0227  0.0687  0.2249
12691PP      PP22795  12.541  14.804   0.895  0.1072  0.1459  0.1342
12692PP      PP22796  15.207   7.984   3.120 -0.0364  0.2041  0.1312
12693PP      PP22797  11.561   1.798   2.499  0.0164  0.0674  0.3976
12694PP      PP22798   4.076   8.984   2.268  0.3332 -0.2530 -0.3184
12695PP      PP22799   3.832   8.679  12.233 -0.4215 -0.0829 -0.0781
12696PP      PP22800   0.918  12.850   9.125 -0.2950 -0.1055  0.3594
12697PP      PP22801   0.140   9.379   1.546  0.2282  0.1944 -0.1093
12698PP      PP22802   3.074   2.646   1.617  0.0323  0.0982 -0.3166
12699PP      PP22803   6.498   6.043  13.429  0.3842  0.0593 -0.2790
12700PP      PP22804  11.618  14.442   1.195 -0.1345 -0.1764 -0.1967
12701PP      PP22805   5.764  12.337   9.260  0.0180  0.1226  0.0122
12702PP      PP22806   0.205   5.012   1.408  0.1170 -0.0642 -0.0368
12703PP      PP22807  13.225  11.276  12.061 -0.3022 -0.3498 -0.2081
12704PP      PP22808   4.231   3.784  13.125 -0.1920  0.0530  0.1569
12705PP      PP22809   0.001  10.368   0.055 -0.2127  0.4365  0.1149
12706PP      PP22810  14.005  13.192   2.325  0.2488  0.0764  0.2149
12707PP      PP22811   2.681   9.659   8.967  0.0848  0.0511 -0.3812
12708PP      PP22812  13.598  14.639   3.938 -0.0273 -0.1154  0.1362
12709PP      PP22813   6.115   9.572   1.890  0.1442  0.0901  0.2367
12710PP      PP22814  12.858  11.609  10.511  0.1725 -0.1627 -0.3923
12711PP      PP22815   0.669   0.091  10.930  0.0850  0.1193  0.0469
12712PP      PP22816  12.102   0.376  11.945 -0.0096  0.1087  0.1348
12713PP      PP22817   6.082   1.856   3.633 -0.0130  0.0948  0.2871
12714PP      PP22818   1.696   4.387   2.328  0.0616 -0.5165 -0.4869
12715PP      PP22819  11.458   5.051  12.367 -0.2804 -0.0658 -0.0169
12716PP      PP22820   3.330  12.082  12.143  0.0143  0.1877 -0.1590
12717PP      PP22821   3.047  12.788   8.607  0.1532 -0.3191 -0.1364
12718PP      PP22822  12.942   7.622  10.545 -0.4087  0.0673  0.0623
12719PP      PP22823   9.192   2.256  12.747  0.1221  0.1272  0.0377
12720PP      PP22824  12.698   0.809   4.499 -0.1016  0.0131  0.1292
12721PP      PP22825   7.133  13.920   3.672  0.0007  0.2097  0.1010
12722PP      PP22826  11.222   9.371   9.166 -0.1816  0.2353  0.1071
12723PP      PP22827  13.544   6.140   0.444 -0.0551 -0.1738  0.0617
12724PP      PP22828  10.522  13.047   2.816 -0.1647 -0.1573  0.1845
12725PP      PP22829   2.218   3.453  12.324 -0.0431  0.2220 -0.0200
12726PP      PP22830   5.130  12.834   3.377  0.2780 -0.0465  0.0521
12727PP      PP22831  10.953   6.884  10.484  0.2873 -0.1748  0.2438
12728PP      PP22832   5.058  11.684   3.742 -0.1187  0.1731  0.0590
12729PP      PP22833   4.157  10.264   9.134 -0.2152  0.0184 -0.0618
12730PP      PP22834   6.358   6.155  11.210 -0.0546 -0.1903  0.0802
12731PP      PP22835  15.838  13.695   1.232 -0.1735 -0.2460  0.1730
12732PP      PP22836  11.624  11.764   5.740 -0.0403  0.0627  0.1788
12733PP      PP22837   8.972   9.801   4.131 -0.0345 -0.1570 -0.1800
12734PP      PP22838  11.535  10.874   3.068 -0.0173 -0.1194  0.1442
12735PP      PP22839  12.772   1.854   2.982 -0.0370  0.0055  0.0112
12736PP      PP22840   8.395  11.912  11.156  0.1181 -0.0500  0.2702
12737PP      PP22841   6.057   6.041   1.568 -0.2969 -0.1016  0.1945
12738PP      PP22842   0.171   0.452   0.714 -0.1764  0.0915  0.2878
12739PP      PP22843   1.488   5.252   0.969  0.0876 -0.0450  0.1533
12740PP      PP22844   5.538   3.450  11.881  0.0987 -0.0086 -0.0793
12741PP      PP22845   1.973   8.333   0.259  0.1184 -0.1097  0.0559
12742PP      PP22846   5.318  15.779   1.825 -0.1808 -0.3718 -0.0311
12743PP      PP22847  12.686   7.021   8.843  0.3592  0.0905  0.1914
12744PP      PP22848   5.906   7.246  12.297 -0.0379 -0.2181 -0.2859
12745PP      PP22849  10.948   8.612  12.243  0.1898  0.1260 -0.1734
12746PP      PP22850   7.052  13.807   9.303 -0.2654  0.0257 -0.1377
12747PP      PP22851   6.706  10.554   3.566 -0.0148  0.0054  0.1539
12748PP      PP22852   2.559  13.052   9.021 -0.1655 -0.1838  0.0126
12749PP      PP22853  10.472   8.732   0.627 -0.0640 -0.2372 -0.3996
12750PP      PP22854   4.624   1.097   0.017 -0.1744  0.0233  0.1352
12751PP      PP22855   0.761  14.053  10.458  0.1324 -0.0582  0.0957
12752PP      PP22856  12.379   0.685   4.064  0.2022 -0.0418 -0.3720
12753PP      PP22857   0.876  13.160  13.041  0.1480  0.0487  0.0105
12754PP      PP22858  10.649   3.454   3.410  0.0901 -0.0315 -0.2386
12755PP      PP22859   9.741   7.752   8.644 -0.0468  0.2004 -0.0026
12756PP      PP22860  10.004   9.971   4.086  0.1270 -0.0915 -0.0063
12757PP      PP22861   2.607   4.405   1.794  0.1500  0.0425  0.0602
12758PP      PP22862   7.071   5.073   8.593  0.1782  0.6092  0.1003
12759PP      PP22863   7.958   9.943   3.023 -0.1355  0.0412 -0.0956
12760PP      PP22864   5.593   1.175   4.226  0.2002 -0.1736 -0.2545
12761PP      PP22865  13.729  12.408  12.424  0.0572 -0.0704 -0.1985
12762PP      PP22866   5.917   3.081   0.775 -0.0175 -0.0385 -0.2669
12763PP      PP22867  10.545   9.969  11.728 -0.0555 -0.1731  0.0728
12764PP      PP22868  13.138   1.520   3.624  0.0828 -0.0636 -0.0078
12765PP      PP22869   6.007   8.834  10.988  0.0784  0.3711  0.1222
12766PP      PP22870  12.328  10.191   3.062 -0.0749 -0.2518  0.1184
12767PP      PP22871   9.693   8.130  10.679  0.2271  0.2286 -0.0647
12768PP      PP22872  13.508  13.300   1.439 -0.2024 -0.2208  0.3881
12769PP      PP22873   6.848   0.674   9.925 -0.3400  0.0560  0.2331
12770PP      PP22874   8.148   7.664  10.082  0.1780 -0.2250 -0.2024
12771PP      PP22875   9.748  11.622  12.498 -0.3214  0.1426  0.0919
12772PP      PP22876   6.134   8.223   1.852 -0.0282  0.4163  0.2459
12773PP      PP22877   4.803   1.609   2.887 -0.1009  0.0781  0.0367
12774PP      PP22878  10.442   1.888   0.051 -0.2621  0.1220 -0.1347
12775PP      PP22879  10.129   5.137   0.447 -0.0506 -0.1062  0.1190
12776PP      PP22880  13.443   1.023  10.172 -0.1797 -0.1478  0.3128
12777PP      PP22881  12.288  13.729  11.642  0.1944  0.1297 -0.1773
12778PP      PP22882   9.842   3.880   0.611 -0.1143  0.0738  0.0264
12779PP      PP22883   2.322  11.994  10.971 -0.0307 -0.0096 -0.2631
12780PP      PP22884   2.165   8.938   0.015 -0.1859 -0.0473 -0.5235
12781PP      PP22885   5.511   4.332   0.342 -0.1218 -0.1991  0.0197
12782PP      PP22886   6.373  14.521   4.128 -0.2085  0.0537  0.0009
12783PP      PP22887   5.853   2.463  10.890  0.1974 -0.2050  0.0244
12784PP      PP22888  15.442  11.633  11.649  0.2318 -0.0719  0.4206
12785PP      PP22889  12.751   2.035  12.124 -0.1239 -0.2523  0.1927
12786PP      PP22890   5.678  12.524   2.130 -0.4959  0.0196 -0.0928
12787PP      PP22891   8.423   8.662  13.035  0.0884  0.0760 -0.0285
12788PP      PP22892   9.101   1.586   0.005  0.2846 -0.1917  0.0749
12789PP      PP22893  10.361  14.166  12.527  0.0920 -0.2316 -0.0495
12790PP      PP22894  11.923   1.852   9.739 -0.1063  0.1104  0.1124
12791PP      PP22895  14.009   7.129   1.018 -0.0121  0.3110 -0.1607
12792PP      PP22896   9.043   1.214   3.957 -0.2007  0.0291  0.1444
12793PP      PP22897  12.776  13.831  12.316  0.3449 -0.0955 -0.0375
12794PP      PP22898  11.766   7.072   3.027  0.3390 -0.1170  0.0326
12795PP      PP22899   0.312  13.074   1.946  0.1697  0.4393 -0.1774
12796PP      PP22900  12.282   8.333  13.081  0.2366  0.0091  0.2863
12797PP      PP22901   4.477   2.726   8.951  0.0425 -0.0399  0.0576
12798PP      PP22902   5.168   8.060   9.073  0.1822 -0.0603 -0.0766
12799PP      PP22903  13.983   6.648   3.133 -0.0738 -0.2091  0.1258
12800PP      PP22904   3.350  11.206  10.681  0.0001  0.0597 -0.0497
12801PP      PP22905  13.169  12.468   4.004  0.0695  0.1404  0.1079
12802PP      PP22906  14.981  12.578  13.146  0.1069 -0.1066 -0.1202
12803PP      PP22907   0.906   4.255   3.012 -0.0083  0.0997  0.0376
12804PP      PP22908   7.736   3.308   1.323  0.2766 -0.3741 -0.1998
12805PP      PP22909  12.451   5.386  12.343  0.0192 -0.0675 -0.1695
12806PP      PP22910   6.114   4.857  11.559 -0.0242  0.3363 -0.1734
12807PP      PP22911  10.070  11.044  12.493  0.0276 -0.0314  0.1786
12808PP      PP22912   6.143   1.932  11.600 -0.0537 -0.0294  0.1563
12809PP      PP22913   5.080  10.514  11.989 -0.0713 -0.3480 -0.0944
12810PP      PP22914   2.134   1.365   3.154 -0.2075 -0.2894  0.2210
12811PP      PP22915  11.598  11.268  11.998 -0.1734 -0.0602 -0.0027
12812PP      PP22916  10.544   4.679   3.455  0.2144  0.1201  0.3136
12813PP      PP22917   8.353  15.260   2.808 -0.0685 -0.0160 -0.1552
12814PP      PP22918   5.331   8.763   1.533  0.0368  0.0706  0.0737
12815PP      PP22919  11.635   6.324  11.835 -0.0280  0.0647  0.0061
12816PP      PP22920   1.455   2.069   4.363 -0.0587 -0.1942 -0.4269
12817PP      PP22921  15.215  14.433   1.009 -0.2489 -0.0177  0.0867
12818PP      PP22922  10.015   4.743   1.759  0.0341 -0.0049  0.1102
12819PP      PP22923  10.718   8.927   3.575 -0.0032  0.0986 -0.1121
12820PP      PP22924   1.809   0.212   1.386 -0.0806  0.0859  0.1783
12821PP      PP22925   7.622  14.011   1.176 -0.1496  0.1443  0.2077
12822PP      PP22926   5.281   3.126   2.136 -0.0453  0.1216 -0.2106
12823PP      PP22927   2.821  10.603  12.951  0.2237  0.0641 -0.3289
12824PP      PP22928  13.866   3.004   9.673  0.0212 -0.0234  0.1474
12825PP      PP22929  14.810  10.805  11.252  0.1474  0.3747 -0.0513
12826PP      PP22930   3.334  11.627  10.956 -0.1259  0.1767  0.0528
12827PP      PP22931  14.112  11.369  11.810  0.0080  0.2320  0.1501
12828PP      PP22932   8.507   4.080  13.374 -0.0702  0.0972  0.1741
12829PP      PP22933   3.728   1.226   2.887 -0.1124  0.0653 -0.0747
12830PP      PP22934   2.937   2.276   9.048  0.0758 -0.1633  0.0055
12831PP      PP22935   5.778   7.471  12.731  0.1121 -0.3159 -0.0504
12832PP      PP22936  15.260  11.307   3.838  0.0533 -0.1176  0.0548
12833PP      PP22937  15.525  13.410   3.062 -0.1965 -0.2703 -0.0874
12834PP      PP22938   4.755   9.303   0.068 -0.2913  0.0768 -0.0273
12835PP      PP22939  14.742   1.395  13.119  0.3101 -0.1152 -0.2463
12836PP      PP22940   7.970   7.690   9.163 -0.2377  0.0581  0.2316
12837PP      PP22941  13.863   0.081   4.783  0.0806 -0.1432  0.2919
12838PP      PP22942  14.427   8.586  11.736 -0.3037 -0.1442 -0.0501
12839PP      PP22943  15.550   1.688  10.873  0.0240 -0.1682 -0.1569
12840PP      PP22944  10.004   1.079  13.382 -0.0494  0.1912 -0.1594
12841PP      PP22945  11.580   7.004   3.619 -0.2772 -0.0535 -0.0553
12842PP      PP22946   1.154  15.611   4.642 -0.1801 -0.3534  0.1764
12843PP      PP22947  15.234  11.188  10.591 -0.0083  0.1885 -0.2025
12844PP      PP22948   5.015  14.498   1.076 -0.2343 -0.1932  0.3929
12845PP      PP22949   8.909   5.072  12.570 -0.0199  0.0878  0.4086
12846PP      PP22950   0.705   6.674   3.870 -0.0395 -0.1293  0.0526
12847PP      PP22951   3.067   1.430  10.369 -0.1155  0.2891 -0.1584
12848PP      PP22952   7.284  14.047   0.232  0.0761 -0.0609  0.0521
12849PP      PP22953   3.316   2.896   3.308  0.1318 -0.2511  0.0735
12850PP      PP22954   0.821  10.356   8.749 -0.1463  0.1406 -0.1277
12851PP      PP22955  12.174   3.389  11.935  0.0374  0.0704  0.2842
12852PP      PP22956   7.338   4.594  13.327 -0.0987  0.1120 -0.0090
12853PP      PP22957  10.691  15.211   1.894 -0.0112 -0.0827 -0.0346
12854PP      PP22958  14.749  14.273   8.931 -0.0453 -0.0602 -0.1771
12855PP      PP22959  11.351   7.394  10.827  0.4188  0.2903  0.0849
12856PP      PP22960  10.485  11.706   2.522  0.0650  0.0477 -0.2453
12857PP      PP22961  13.394   8.544   1.578 -0.1036 -0.1154 -0.0059
12858PP      PP22962   0.130   2.432   0.404  0.0934 -0.1535  0.1380
12859PP      PP22963  12.255   9.665   3.272 -0.0670  0.2230  0.0380
12860PP      PP22964  14.041   4.307   4.230 -0.2326  0.0136 -0.1033
12861PP      PP22965   9.119  12.304  12.935 -0.1543  0.0801  0.2518
12862PP      PP22966   6.977   7.881   0.205  0.4150 -0.2635 -0.0148
12863PP      PP22967  11.511   3.236  11.969 -0.1831 -0.0550  0.0745
12864PP      PP22968  14.211   8.727  13.327 -0.2354 -0.0986 -0.2409
12865PP      PP22969   9.828  15.130   5.007 -0.1009 -0.1687  0.1021
12866PP      PP22970  13.039   9.004  11.111  0.0378 -0.1495 -0.0635
12867PP      PP22971  11.994   1.816  12.596 -0.1604 -0.2229  0.1227
12868PP      PP22972  10.250   6.957   1.736 -0.1050  0.0806 -0.2551
12869PP      PP22973   4.811   4.906  12.864 -0.0533  0.2011 -0.1052
12870PP      PP22974  10.303   5.968   4.293  0.1414  0.3332 -0.1702
12871PP      PP22975   9.940   6.274  12.927 -0.0649 -0.0451 -0.2648
12872PP      PP22976  12.193   3.901   4.819  0.0600  0.0768  0.0586
12873PP      PP22977   0.921   6.818  10.724  0.0070 -0.0458  0.2024
12874PP      PP22978   5.995   5.363   3.170 -0.0088  0.2164 -0.2665
12875PP      PP22979   3.900   7.921   0.591 -0.3220 -0.1042 -0.1753
12876PP      PP22980   2.494  11.319  12.347 -0.1264  0.2227  0.0575
12877PP      PP22981   2.729  13.497   0.111  0.1136  0.0015  0.0669
12878PP      PP22982   9.714  10.263   9.072  0.0529 -0.1044 -0.0690
12879PP      PP22983   0.438   1.001   2.476  0.4416  0.2314 -0.1337
12880PP      PP22984   0.328   2.082   4.247  0.1897  0.0756 -0.0147
12881PP      PP22985  13.137  12.158   2.156  0.1887  0.3809 -0.1253
12882PP      PP22986  10.095   0.190  10.369 -0.0426 -0.1047 -0.1575
12883PP      PP22987   0.366  14.760   4.268  0.0137 -0.2042 -0.2672
12884PP      PP22988   7.166   3.771   3.086 -0.1767 -0.2306 -0.1137
12885PP      PP22989   3.705   8.509   1.290 -0.0487  0.0046  0.0057
12886PP      PP22990   4.326   6.029   0.495  0.1427  0.1754  0.1451
12887PP      PP22991   8.864   8.052   1.788  0.2549 -0.2517 -0.1421
12888PP      PP22992   1.005   2.711  10.876 -0.2319 -0.0238  0.0335
12889PP      PP22993  13.254   7.316   1.900 -0.0113  0.1108  0.1410
12890PP      PP22994   7.581   8.836  12.244  0.1429  0.1650  0.4634
12891PP      PP22995  14.663  11.879  12.191 -0.0532  0.2764 -0.1989
12892PP      PP22996   5.113  12.147  12.773 -0.0911 -0.1687 -0.1142
12893PP      PP22997   7.473   1.578   5.130 -0.1569 -0.1686 -0.0870
12894PP      PP22998   8.248   7.793   0.601  0.0555  0.4741 -0.4183
12895PP      PP22999   8.448   1.990  12.364  0.4393 -0.1645  0.0601
12896PP      PP23000  15.488   3.703   1.968  0.0012 -0.1362 -0.1660
12897PP      PP23001   3.717  13.170   0.975  0.1970  0.0636  0.2074
12898PP      PP23002   7.866  13.366   2.105  0.0108 -0.0693 -0.1806
12899PP      PP23003   9.949   5.667  11.298  0.0948 -0.0305  0.1591
12900PP      PP23004   5.614   3.226  12.789  0.1057 -0.2189 -0.1582
12901PP      PP23005   2.604   2.397   1.559  0.1735  0.0253 -0.0914
12902PP      PP23006  12.035   4.938  12.344  0.3283  0.1633  0.1200
12903PP      PP23007   6.194  12.787   4.521 -0.1873  0.3883  0.0364
12904PP      PP23008  13.019   1.152   9.519 -0.0503 -0.3322 -0.0553
12905PP      PP23009  10.257  13.643   1.739  0.0215 -0.3187  0.0094
12906PP      PP23010  13.405  15.750   2.201  0.1797  0.0357  0.0368
12907PP      PP23011  11.793   3.788   3.590  0.2125  0.1189  0.0891
12908PP      PP23012   9.738   3.826  10.433 -0.2081  0.2208  0.1863
12909PP      PP23013   9.190   3.169  12.721  0.1764  0.4965 -0.0913
12910PP      PP23014   6.012  12.246  11.050 -0.1782 -0.0163 -0.4318
12911PP      PP23015   3.717   6.603  10.012  0.3511 -0.1812 -0.1467
12912PP      PP23016   0.156   3.001   0.021 -0.3182  0.0391  0.0900
12913PP      PP23017   9.184  12.828  11.559 -0.0109  0.0098 -0.2071
12914PP      PP23018  10.456   9.327   0.929 -0.1675 -0.0725  0.0609
12915PP      PP23019   4.146  10.375  10.112  0.0234  0.1282 -0.0474
12916PP      PP23020   9.692   8.742   3.585 -0.2096 -0.1249 -0.0795
12917PP      PP23021   0.556   0.929  12.327  0.0086 -0.2356  0.0302
12918PP      PP23022   6.847  14.577   0.060 -0.0085  0.0669  0.1768
12919PP      PP23023   2.413   1.008   2.755 -0.1069  0.0654 -0.1266
12920PP      PP23024   8.965   6.077   1.743  0.1542  0.2797  0.0498
12921PP      PP23025  14.892  15.662   9.812  0.1780  0.0493  0.2824
12922PP      PP23026  11.992   0.377  12.544  0.0858 -0.1778 -0.1099
12923PP      PP23027  14.063   3.410  10.399 -0.2461 -0.0547  0.1108
12924PP      PP23028  12.307  10.168  10.333 -0.2885  0.1789 -0.3544
12925PP      PP23029   2.611   0.755  13.239  0.1004  0.1583  0.1431
12926PP      PP23030  12.638   4.047  11.535 -0.2070  0.0246 -0.0563
12927PP      PP23031   9.920   2.584   1.551 -0.1501 -0.2023  0.1942
12928PP      PP23032  12.622   8.046  10.599 -0.0107  0.2487 -0.1172
12929PP      PP23033  13.517  14.809   4.747  0.0212  0.4882 -0.0126
12930PP      PP23034   4.030   1.125   0.612 -0.0295  0.1113 -0.0980
12931PP      PP23035   0.553  11.985  12.489 -0.1369 -0.1888  0.3143
12932PP      PP23036  11.848  15.061  13.325 -0.1972 -0.0342 -0.0273
12933PP      PP23037   9.959  13.306  11.533 -0.1104  0.1982 -0.1077
12934PP      PP23038  12.024  12.381  11.669  0.2853 -0.1649 -0.1836
12935PP      PP23039   5.311   3.721   2.292  0.1200  0.1254  0.2233
12936PP      PP23040  15.485   4.206  13.048 -0.1194  0.0309 -0.2510
12937PP      PP23041   1.489   6.214   0.590  0.0445 -0.1800  0.3197
12938PP      PP23042   0.512  15.025  13.339  0.1260 -0.0128  0.3059
12939PP      PP23043   3.588   9.073  12.663  0.0914  0.0595 -0.2974
12940PP      PP23044   2.034   8.996  11.437  0.1754  0.1195 -0.2651
12941PP      PP23045  15.305  10.700  10.725  0.2714 -0.4536  0.1164
12942PP      PP23046  12.787  14.489   9.166  0.0908 -0.3701  0.2255
12943PP      PP23047   0.064   9.508   9.322  0.3793 -0.0580  0.2880
12944PP      PP23048   3.107   0.079   3.247  0.2284  0.1834 -0.1352
12945PP      PP23049  12.318   7.661   1.693 -0.1087 -0.0620 -0.0307
12946PP      PP23050   0.555   4.375  12.517 -0.2574  0.0634 -0.0924
12947PP      PP23051   5.497  11.768  10.821  0.0910  0.0142  0.0519
12948PP      PP23052  12.717  15.863  11.119 -0.1026 -0.2480  0.1460
12949PP      PP23053   0.131  10.334  12.701  0.1321  0.2379 -0.1523
12950PP      PP23054   3.653  12.747  12.780  0.0367  0.1802  0.1715
12951PP      PP23055   0.249   3.593  10.891 -0.6408  0.4061  0.4017
12952PP      PP23056  12.658   8.499   1.065 -0.0669 -0.0533 -0.4609
12953PP      PP23057   8.405  12.002   9.772 -0.1208 -0.0994 -0.0155
12954PP      PP23058  10.483   1.528   4.830 -0.0340  0.3243  0.1002
12955PP      PP23059   7.942  13.673  11.613  0.0150 -0.4487  0.0851
12956PP      PP23060   4.386   8.625   4.293 -0.0633 -0.0251  0.2169
12957PP      PP23061   8.494   2.578   3.690  0.0417 -0.0888 -0.3047
12958PP      PP23062  13.807   0.323  13.388 -0.2306  0.3277  0.3042
12959PP      PP23063   6.379  13.298   2.242  0.2393  0.0693  0.2785
12960PP      PP23064   7.205  13.364   9.550  0.1316 -0.2139 -0.1592
12961PP      PP23065   3.459   2.743  12.675 -0.2539 -0.0853  0.0923
12962PP      PP23066   5.090  12.998   8.842  0.0488  0.1486  0.1646
12963PP      PP23067   2.305   2.467  12.575 -0.2675  0.1454 -0.1122
12964PP      PP23068   4.129   6.926  11.752  0.2732 -0.0396  0.1568
12965PP      PP23069   1.432   9.900  10.449  0.1771 -0.0174 -0.4051
12966PP      PP23070   4.944   9.428  10.099 -0.0131  0.0005 -0.0932
12967PP      PP23071  11.137  14.816  12.599 -0.3371  0.1379 -0.1934
12968PP      PP23072  13.727   6.801   8.299  0.2706 -0.0037  0.1806
12969PP      PP23073   4.817   6.176  13.268  0.1103 -0.2002  0.0764
12970PP      PP23074  14.344   0.064   4.463 -0.3059 -0.2757  0.2409
12971PP      PP23075  15.803  14.788  12.231 -0.0603  0.2714  0.3632
12972PP      PP23076   9.937  13.291  12.170 -0.1433 -0.0780 -0.2083
12973PP      PP23077  15.166   7.463  10.908  0.0304  0.0711 -0.0796
12974PP      PP23078   4.515  15.523  10.496 -0.1324  0.0513 -0.0332
12975PP      PP23079  12.010   6.496   9.229  0.1673 -0.0765  0.1269
12976PP      PP23080  12.434  15.285   4.166 -0.0339 -0.2103 -0.0241
12977PP      PP23081   4.335   0.057   5.067  0.1700  0.4397  0.0559
12978PP      PP23082   6.143  14.075   1.518  0.0414  0.1387  0.1333
12979PP      PP23083   3.000   5.044   1.795 -0.2118  0.1110 -0.0239
12980PP      PP23084   3.389   0.837  13.480  0.2394 -0.0354  0.0478
12981PP      PP23085   1.543   0.518  10.813  0.0212 -0.0813  0.3040
12982PP      PP23086   9.472  12.919   8.785  0.0770 -0.0106 -0.0700
12983PP      PP23087  15.605   7.733   8.941 -0.0333 -0.2062 -0.1602
12984PP      PP23088   0.866   2.616   3.888 -0.1618  0.1185  0.2409
12985PP      PP23089   5.007   7.649   2.305 -0.4057 -0.5032 -0.1090
12986PP      PP23090   9.643   0.082   0.659  0.0282  0.2336  0.0790
12987PP      PP23091   2.613  11.390  11.794 -0.0125 -0.0743  0.0354
12988PP      PP23092   4.953   6.553   0.018  0.0161 -0.1255 -0.3848
12989PP      PP23093   3.240  12.348   3.791  0.2806  0.3647 -0.2058
12990PP      PP23094   1.027   7.451   2.676  0.0169 -0.1426 -0.1982
12991PP      PP23095  11.301   3.606   3.733 -0.1381  0.0924 -0.1855
12992PP      PP23096   9.770  11.231   4.996 -0.0734  0.0022 -0.1217
12993PP      PP23097   8.629   2.913   1.670 -0.5638  0.1164 -0.0564
12994PP      PP23098  12.167  13.913   3.631  0.2028 -0.2281 -0.1551
12995PP      PP23099   7.864  10.094   1.297  0.0500  0.1516 -0.1830
12996PP      PP23100   3.235   5.476  10.487  0.1320  0.0734 -0.0948
12997PP      PP23101   8.469   6.141  10.298 -0.2443 -0.1744  0.3027
12998PP      PP23102   3.451   7.800  12.406 -0.2537 -0.2309 -0.1740
12999PP      PP23103  15.214  11.848   2.201 -0.1042  0.2670  0.0765
13000PP      PP23104   0.681   6.329   0.118  0.3443  0.2312 -0.0536
13001PP      PP23105   4.459  12.653  13.142  0.0268  0.1577 -0.0288
13002PP      PP23106   2.032   7.853  12.813 -0.1942 -0.1931 -0.3603
13003PP      PP23107  10.843   5.307  10.197  0.1533 -0.0587 -0.1431
13004PP      PP23108   5.475  13.112   0.877 -0.2238  0.0680 -0.0663
13005PP      PP23109  12.686  10.321  12.456 -0.3017  0.0338  0.2470
13006PP      PP23110   7.115   2.942  12.680  0.0327  0.0199  0.0955
13007PP      PP23111   8.948   9.933   3.283  0.0670 -0.3166  0.0806
13008PP      PP23112   7.766   9.081   0.652  0.0090  0.1371  0.0319
13009PP      PP23113   8.258   1.122  11.251  0.2318  0.2458  0.2395
13010PP      PP23114   4.169  10.972  10.632 -0.3020 -0.0355 -0.1895
13011PP      PP23115  13.431   7.656   8.406  0.1315 -0.1468  0.3172
13012PP      PP23116   6.589   6.030  12.108  0.2653 -0.0871  0.0039
13013PP      PP23117   7.942  11.015   9.580  0.2216  0.1250 -0.1049
13014PP      PP23118   0.388   0.665   8.802  0.2495 -0.0916  0.3525
13015PP      PP23119   9.249   5.197   2.891  0.1335  0.3306 -0.0518
13016PP      PP23120   4.979   7.268  12.015  0.0742 -0.2492 -0.2764
13017PP      PP23121   0.792  10.682   9.864  0.1732  0.0267 -0.1702
13018PP      PP23122  13.081  14.615  11.192 -0.0649 -0.1983  0.0724
13019PP      PP23123  11.065  10.053   9.287 -0.1318  0.0973 -0.4770
13020PP      PP23124  14.562   8.924  10.874 -0.0366 -0.2452  0.0744
13021PP      PP23125   3.462   6.979  12.002  0.0308 -0.1135 -0.0419
13022PP      PP23126  13.221   6.912  11.135  0.0179 -0.2983 -0.2780
13023PP      PP23127  10.991   2.521   0.508 -0.1090  0.0738  0.0238
13024PP      PP23128   7.640   4.939   3.516 -0.2455 -0.2536  0.3460
13025PP      PP23129  12.942   2.264  13.145 -0.1093  0.2053 -0.0225
13026PP      PP23130   8.369   9.249  12.350  0.0650 -0.4147  0.1024
13027PP      PP23131   0.543  13.901   8.334 -0.1837  0.0637 -0.3054
13028PP      PP23132   5.993  11.058   0.798  0.1577 -0.1684  0.0098
13029PP      PP23133   6.788  12.613  12.442 -0.3031  0.0548 -0.1343
13030PP      PP23134   7.415   4.051  13.194 -0.2189  0.1532  0.2924
13031PP      PP23135  15.785  13.022  13.065  0.0006  0.2237 -0.2315
13032PP      PP23136   1.886   7.011  11.695 -0.0399  0.0377 -0.3519
13033PP      PP23137   0.061   4.949   5.100 -0.2194 -0.1569  0.1793
13034PP      PP23138   5.877  13.828  12.336 -0.4885 -0.2045  0.0609
13035PP      PP23139  13.758   0.531   3.783 -0.1138  0.0332 -0.4225
13036PP      PP23140   4.978   1.376   9.756  0.3090  0.3503 -0.0391
13037PP      PP23141   8.225   1.668   3.543 -0.1237 -0.6019  0.0528
13038PP      PP23142  10.164  10.438   3.445 -0.0322 -0.0598  0.1467
13039PP      PP23143   9.943   6.748   1.382  0.0065 -0.1300  0.0055
13040PP      PP23144   8.555   4.836  12.345  0.1450  0.2225 -0.1959
13041PP      PP23145   7.834   5.455   3.502  0.3299  0.1236  0.0779
13042PP      PP23146   1.470   0.865   2.684  0.2159  0.2520 -0.1797
13043PP      PP23147  14.783   6.743  11.471  0.0413 -0.1792 -0.4687
13044PP      PP23148  15.630  11.542   3.599 -0.0570  0.1159 -0.1964
13045PP      PP23149   7.294   4.778   3.158  0.0849 -0.0727 -0.1070
13046PP      PP23150   4.924   9.068   1.339  0.0496 -0.3904 -0.1404
13047PP      PP23151   6.960   1.585  13.178 -0.0528 -0.2745 -0.3465
13048PP      PP23152   7.314   6.191  12.820 -0.2065 -0.4033  0.1907
13049PP      PP23153   2.224   2.675  10.163 -0.3535 -0.1312 -0.2357
13050PP      PP23154   2.942   7.441  12.540  0.1070  0.0537  0.0017
13051PP      PP23155   3.569   6.891   8.516 -0.1068 -0.3463 -0.2478
13052PP      PP23156  11.915   5.303   0.428 -0.2613 -0.3222 -0.2237
13053PP      PP23157   2.109  13.266   9.813  0.2464  0.2137  0.4056
13054PP      PP23158   1.773  15.167  12.807  0.0302  0.1705  0.0262
13055PP      PP23159   9.939  14.956  11.439  0.1866  0.0501 -0.0470
13056PP      PP23160  12.332   2.804   3.190 -0.0944  0.3812  0.1722
13057PP      PP23161   7.600   7.549  10.055 -0.3391 -0.0532  0.0268
13058PP      PP23162   5.053   1.469   2.486 -0.0697  0.0305 -0.1921
13059PP      PP23163  10.602   7.682  13.118  0.1384 -0.1134 -0.3361
13060PP      PP23164   1.640   3.943   2.943  0.1385 -0.3208  0.0991
13061PP      PP23165  13.384   3.831  11.008 -0.1325  0.4599 -0.1289
13062PP      PP23166   0.949  10.392  11.817 -0.0184  0.0859  0.1220
13063PP      PP23167   3.675  11.618   1.770 -0.1509 -0.0062  0.0350
13064PP      PP23168  11.535  11.186   4.943 -0.1277 -0.1590  0.0926
13065PP      PP23169  13.789  15.558  11.210 -0.0597 -0.0510 -0.0096
13066PP      PP23170  10.254  15.120  13.082 -0.2075 -0.0108  0.0050
13067PP      PP23171   7.151   9.919   3.467 -0.1539 -0.2341  0.1207
13068PP      PP23172   5.796  15.738  11.116  0.0609 -0.0260  0.3143
13069PP      PP23173   6.164  14.467   0.175  0.0090 -0.0581  0.0669
13070PP      PP23174   0.024  10.809   1.887  0.2759 -0.2957 -0.0588
13071PP      PP23175   0.549  11.769  10.520  0.0814  0.2840 -0.0009
13072PP      PP23176   1.093  10.183  11.193 -0.1157  0.4541 -0.0048
13073PP      PP23177  15.302   8.560  11.848 -0.2793 -0.0606  0.3345
13074PP      PP23178   1.054   8.133   1.548  0.1900 -0.0948  0.0388
13075PP      PP23179   7.727   4.803   0.900 -0.0257  0.3007  0.2326
13076PP      PP23180   7.271  15.128   1.772 -0.0992  0.0863 -0.0992
13077PP      PP23181   7.453  12.555   8.970 -0.2351 -0.1690  0.1565
13078PP      PP23182   5.284   9.304   2.316 -0.0707  0.3011 -0.0835
13079PP      PP23183   0.858   1.159   0.144  0.2549 -0.0027 -0.1305
13080PP      PP23184   5.719   8.175  12.206 -0.1550  0.1967 -0.0783
13081PP      PP23185   1.117   5.949   9.833 -0.1828  0.0770 -0.0813
13082PP      PP23186   2.862  14.416  12.263  0.0044 -0.0304  0.2540
13083PP      PP23187  10.443   9.621  10.103  0.1012 -0.0163  0.2105
13084PP      PP23188   7.501   8.891  13.058 -0.1796  0.0976  0.0487
13085PP      PP23189   8.803  12.005  12.534 -0.0299 -0.2635  0.1149
13086PP      PP23190   1.627   6.108   9.942 -0.0115 -0.0662 -0.1327
13087PP      PP23191   4.905   3.581   1.276  0.5770 -0.0780  0.0904
13088PP      PP23192  14.263  12.256   9.158  0.0756  0.1250  0.3876
13089PP      PP23193   5.072  13.729   3.555  0.2952  0.0298 -0.0960
13090PP      PP23194   9.868   0.513   1.581 -0.0516 -0.3123 -0.1300
13091PP      PP23195   1.392  14.217  11.592  0.0885 -0.1076  0.0244
13092PP      PP23196   2.642  14.252  11.880  0.4143 -0.0416  0.2918
13093PP      PP23197  13.541  12.146   0.829  0.1504 -0.0129  0.2055
13094PP      PP23198   6.715   8.225   9.905  0.1447  0.3866  0.4939
13095PP      PP23199  11.083   7.808  11.940  0.0525 -0.1671 -0.0416
13096PP      PP23200  14.618  15.024   9.815 -0.1010 -0.0054 -0.0656
13097PP      PP23201  10.592  12.470   8.952  0.1887 -0.1158  0.0641
13098PP      PP23202  12.631  11.878   4.322  0.0872 -0.1420 -0.0634
13099PP      PP23203   6.223   9.223  10.804 -0.1543  0.2033  0.1602
13100PP      PP23204  13.307  15.147   3.595  0.0605  0.0322  0.2142
13101PP      PP23205   9.631   1.430  12.427 -0.2721 -0.4728  0.0151
13102PP      PP23206  15.286   1.430   1.453  0.2745  0.3364 -0.0266
13103PP      PP23207   8.562   5.580   9.439 -0.0934  0.0119 -0.4395
13104PP      PP23208  15.052   8.942   0.120 -0.2230  0.0127 -0.0262
13105PP      PP23209   9.284  13.881   0.168 -0.4563  0.0768  0.0307
13106PP      PP23210   2.636   1.395   1.676 -0.1680 -0.1382 -0.1436
13107PP      PP23211  11.351  14.398  13.408  0.2242  0.0504  0.0492
13108PP      PP23212  15.383  15.485  13.413 -0.1437 -0.1415  0.0562
13109PP      PP23213  10.148  15.011  10.447  0.0556 -0.2682 -0.2511
13110PP      PP23214  15.703   6.307   2.343  0.0747 -0.0251 -0.2811
13111PP      PP23215   6.462   6.626   8.759 -0.3433 -0.0514  0.1494
13112PP      PP23216   9.405  11.316   0.296 -0.0016 -0.0404  0.1643
13113PP      PP23217   6.215  12.431   0.677  0.0289  0.1146  0.0584
13114PP      PP23218   5.863  12.736  12.946  0.4127  0.1023  0.2445
13115PP      PP23219  15.283   6.793   3.177 -0.0981  0.0176  0.0350
13116PP      PP23220   2.553  12.030   8.139  0.1291  0.2725 -0.0427
13117PP      PP23221   1.588  14.317   2.593 -0.0284 -0.0835 -0.2209
13118PP      PP23222  10.375  11.979   3.206  0.3245 -0.0311  0.0586
13119PP      PP23223  12.399  10.270   9.812  0.0023  0.0273 -0.0054
13120PP      PP23224   2.195   1.500   4.992 -0.1836  0.2056 -0.2375
13121PP      PP23225   2.930   0.270   0.491  0.1525  0.0599  0.2954
13122PP      PP23226  11.274  14.640   1.440  0.0675  0.1799 -0.5202
13123PP      PP23227   7.579   9.087   2.395  0.0024 -0.0566  0.1238
13124PP      PP23228   6.914   8.978   1.776 -0.0393 -0.1069 -0.2003
13125PP      PP23229  14.135   7.047  10.686  0.2508  0.0242 -0.1368
13126PP      PP23230   9.880   3.113  12.013  0.0661  0.0907  0.0570
13127PP      PP23231   5.051   1.063   0.704  0.0174 -0.0299  0.1422
13128PP      PP23232   5.092  10.606   1.723 -0.0185 -0.0513  0.4785
13129PP      PP23233   3.999   8.696   1.646  0.2939 -0.0623  0.1442
13130PP      PP23234   2.569   2.764   2.620  0.0034 -0.1857  0.0577
13131PP      PP23235   7.751  15.260  11.751 -0.0390 -0.1520  0.0068
13132PP      PP23236  15.583  11.241  13.335 -0.0027 -0.0104 -0.0657
13133PP      PP23237   2.925   1.686  13.269  0.0442 -0.0761  0.0666
13134PP      PP23238   6.037  14.260   2.955  0.1133 -0.0063  0.0152
13135PP      PP23239  15.378   1.291   2.902 -0.1945 -0.3292  0.1350
13136PP      PP23240   5.048   4.078   9.731 -0.0596 -0.0051  0.1433
13137PP      PP23241  15.047   3.642   2.263  0.3075  0.0390 -0.0697
13138PP      PP23242  11.309  14.897  11.774  0.1862 -0.0301  0.2087
13139PP      PP23243   6.427  15.349   3.183  0.2822 -0.0932 -0.1496
13140PP      PP23244   7.400   9.531   3.682  0.0686  0.1448  0.1907
13141PP      PP23245   1.220   3.447  11.427 -0.4189  0.1064  0.1700
13142PP      PP23246   4.742   5.678   2.606  0.5373  0.0654  0.1326
13143PP      PP23247   8.470   4.637   1.924  0.2319  0.2671 -0.2453
13144PP      PP23248   4.019   4.023   8.617 -0.0177  0.0293  0.0401
13145PP      PP23249   9.702  11.679   1.952  0.0064 -0.0332  0.2313
13146PP      PP23250   0.066   9.951   0.258  0.1114 -0.3397 -0.0711
13147PP      PP23251   2.244  14.061  12.795  0.2453  0.1695 -0.0145
13148PP      PP23252  10.577   3.868  12.600 -0.1340 -0.3041  0.0385
13149PP      PP23253  13.542   5.728   3.991 -0.0096  0.1764 -0.1651
13150PP      PP23254   0.365   5.092   0.732  0.0374  0.0762 -0.0143
13151PP      PP23255   3.992  13.085   9.002 -0.3156  0.3790 -0.1599
13152PP      PP23256   4.596   4.394  13.419 -0.0693 -0.0894  0.0431
13153PP      PP23257   3.588  11.373  12.199  0.1735 -0.0792  0.0330
13154PP      PP23258   8.628  10.737   2.192  0.0566 -0.1908  0.0152
13155PP      PP23259   0.549   2.464   0.679 -0.0951 -0.2233 -0.2348
13156PP      PP23260   3.466   2.915   1.022  0.2668  0.1735  0.0683
13157PP      PP23261   6.379  13.186   8.976  0.3413  0.0580  0.2676
13158PP      PP23262  13.876   5.575   3.491  0.0808  0.3037 -0.1481
13159PP      PP23263   5.127   4.750   0.226  0.0689 -0.1954  0.0793
13160PP      PP23264  13.786   1.501  10.260 -0.1873  0.1104  0.2834
13161PP      PP23265   2.158   6.867  10.319  0.2041 -0.0913 -0.0460
13162PP      PP23266   3.455   8.294   0.911  0.2175  0.0482  0.0626
13163PP      PP23267   0.769   6.478   0.742 -0.0115 -0.1053  0.1397
13164PP      PP23268   5.597   8.602  11.164 -0.3036  0.0683 -0.1213
13165PP      PP23269  14.531   8.023  12.676  0.2772 -0.0328  0.2767
13166PP      PP23270   4.613  15.517  11.613 -0.1961  0.3095 -0.0584
13167PP      PP23271   4.671   4.521   1.978 -0.0659 -0.3448 -0.0836
13168PP      PP23272   9.804   9.703   3.713 -0.1159  0.0291  0.1513
13169PP      PP23273  11.910  15.285  10.951 -0.0025 -0.2746  0.0642
13170PP      PP23274  11.353   1.845   1.100 -0.3036  0.1945  0.1269
13171PP      PP23275  14.368  11.177   1.241  0.2382 -0.1688  0.0644
13172PP      PP23276  10.537  12.425  11.094 -0.2413 -0.0582  0.4186
13173PP      PP23277   2.105  14.730   9.239  0.0569 -0.1347 -0.2276
13174PP      PP23278   5.938   0.020   9.908 -0.1145 -0.0848  0.2466
13175PP      PP23279   3.855  15.209   1.677 -0.0038  0.0655 -0.1710
13176PP      PP23280   3.366   4.069   3.491  0.0634  0.3644 -0.3607
13177PP      PP23281   1.279  14.251   9.599  0.0971 -0.3048  0.2675
13178PP      PP23282  14.055   1.450   2.104  0.1260 -0.1784  0.2776
13179PP      PP23283   2.948  13.144   9.450 -0.0730  0.2645  0.2387
13180PP      PP23284   8.679   2.843   4.086  0.2070  0.1938  0.2041
13181PP      PP23285   3.209  10.850  11.364 -0.0974  0.5949 -0.3610
13182PP      PP23286   2.897   5.124  10.868  0.0453  0.0301  0.0728
13183PP      PP23287   0.524  10.771  12.826 -0.0543 -0.1595  0.0263
13184PP      PP23288  10.734   8.529   0.185  0.1851  0.0489 -0.2247
13185PP      PP23289  11.741   2.125   1.992  0.0271  0.1655  0.2039
13186PP      PP23290   5.373   1.961  12.381  0.3505 -0.1971  0.3159
13187PP      PP23291   6.088   6.314  12.117 -0.3385  0.0997  0.1038
13188PP      PP23292   6.717  11.555  11.584  0.0058  0.0939 -0.1834
13189PP      PP23293   4.457   5.888  12.232 -0.0415  0.0681 -0.1962
13190PP      PP23294   1.340  13.870   2.732 -0.4457 -0.1558 -0.0364
13191PP      PP23295  10.393   4.361   3.866  0.2882  0.0830 -0.1917
13192PP      PP23296   2.718  11.391   2.157 -0.0136  0.0358  0.1302
13193PP      PP23297  10.143   7.847   0.254  0.0392  0.3551  0.0718
13194PP      PP23298   9.247   4.766  12.703  0.2081  0.1927  0.0269
13195PP      PP23299  14.683   1.819  11.645 -0.3739 -0.2254 -0.3009
13196PP      PP23300   3.790   3.513  12.247  0.0772  0.0727  0.0804
13197PP      PP23301  12.121  12.256   9.154  0.1366  0.0860  0.3819
13198PP      PP23302   8.627  11.087   1.859  0.1586  0.1593 -0.2475
13199PP      PP23303   1.907  12.533  12.952 -0.1432  0.0789 -0.2847
13200PP      PP23304   5.200   6.314  11.832  0.1929  0.1721 -0.1803
13201PP      PP23305  11.323   2.439   2.827  0.2611  0.0735  0.3049
13202PP      PP23306  13.332   9.391  11.392 -0.1043 -0.1299 -0.1188
13203PP      PP23307   0.630  13.189   1.620 -0.3420 -0.1159  0.4960
13204PP      PP23308   9.296  15.838  11.701  0.2374 -0.2499  0.0276
13205PP      PP23309  10.879   1.748   4.636 -0.0232 -0.1070 -0.1050
13206PP      PP23310   6.441  13.831   1.159  0.2687 -0.2857  0.1662
13207PP      PP23311   9.112   6.086   1.207  0.2633  0.2989 -0.1155
13208PP      PP23312   3.704   2.654   3.445  0.0200 -0.2403  0.2212
13209PP      PP23313  15.743  10.546   3.215 -0.0781  0.0256  0.3173
13210PP      PP23314  14.964  15.023   4.709 -0.3596  0.0519 -0.1375
13211PP      PP23315  15.596   2.994   1.359 -0.2147 -0.0073  0.0708
13212PP      PP23316   5.585  11.791  10.141  0.1858 -0.1378 -0.0599
13213PP      PP23317  15.787   4.847  11.316 -0.0004 -0.1618  0.0847
13214PP      PP23318  14.492  10.262   2.210  0.1682  0.0512 -0.1117
13215PP      PP23319   7.112   9.763  10.924  0.1490 -0.2574 -0.1109
13216PP      PP23320   2.417   4.105   2.424  0.1626  0.0109 -0.0328
13217PP      PP23321   8.750   0.632   2.343  0.2090  0.0307 -0.4838
13218PP      PP23322   6.644   2.023   4.431 -0.3294  0.0624 -0.0993
13219PP      PP23323   7.417   4.757  10.387 -0.4302 -0.5785 -0.3460
13220PP      PP23324   5.869   7.527  11.242  0.1031  0.0379 -0.4859
13221PP      PP23325  14.431   6.548  13.398 -0.2710  0.3457 -0.2281
13222PP      PP23326   8.659  12.158   2.112 -0.2180  0.1082 -0.0306
13223PP      PP23327   0.780   3.860  12.918 -0.0839 -0.0823  0.0451
13224PP      PP23328   4.288   6.225   1.838 -0.0180 -0.0002 -0.1176
13225PP      PP23329  11.796  14.447  11.358  0.2077 -0.2766 -0.3635
13226PP      PP23330   8.384  14.456   0.537 -0.0009 -0.1076 -0.3208
13227PP      PP23331   0.685  14.531   1.318  0.0841  0.3545 -0.0646
13228PP      PP23332  11.861   6.202   0.998 -0.2772 -0.2485 -0.1212
13229PP      PP23333   4.202   1.826  12.367  0.1250  0.2364 -0.3261
13230PP      PP23334   1.914   7.688   3.823  0.0187 -0.1508  0.0237
13231PP      PP23335   4.470   8.049   1.829 -0.0094  0.2851  0.1501
13232PP      PP23336   8.706   9.226  10.317  0.3938 -0.2354 -0.1750
13233PP      PP23337   5.273   5.439   8.486 -0.1377 -0.1221 -0.0290
13234PP      PP23338  14.556  12.542   1.307 -0.0613 -0.1121 -0.2274
13235PP      PP23339  14.696   6.932   9.251  0.2208 -0.1042 -0.2051
13236PP      PP23340  11.003   1.607  12.364  0.2088 -0.0460  0.0425
13237PP      PP23341  14.007  10.551   3.646  0.1626  0.1941 -0.4074
13238PP      PP23342  15.512   8.599   8.670  0.2897  0.0182 -0.1451
13239PP      PP23343  12.204  15.744   3.490 -0.4478  0.0647 -0.1966
13240PP      PP23344  10.349   2.915   0.917  0.0922  0.0271  0.1850
13241PP      PP23345  13.706   3.282   9.040  0.2349  0.0089  0.1672
13242PP      PP23346  15.024   9.676  12.238  0.2003 -0.0378 -0.0267
13243PP      PP23347  15.801  10.793   9.731  0.0783  0.1602 -0.1497
13244PP      PP23348   4.479   9.983   2.114 -0.3037 -0.2351 -0.1298
13245PP      PP23349   9.207   9.435   0.497  0.2085  0.1613 -0.3108
13246PP      PP23350   9.680  14.133  13.179  0.0172 -0.0396 -0.1141
13247PP      PP23351  12.115   0.678  10.680  0.0097  0.4189 -0.0718
13248PP      PP23352   6.374   2.124   1.752 -0.1428 -0.1142 -0.3749
13249PP      PP23353   3.301   6.933   3.927  0.0441 -0.3464 -0.1051
13250PP      PP23354  15.270   4.721  10.619 -0.1052 -0.0964 -0.0527
13251PP      PP23355   8.266   5.740   1.531  0.1394  0.2086  0.1535
13252PP      PP23356   9.731  11.700  10.027  0.1791 -0.0836 -0.2243
13253PP      PP23357  12.414   7.984   2.870  0.4023 -0.1705 -0.1054
13254PP      PP23358   1.859  11.123   9.962 -0.0419  0.3749  0.2587
13255PP      PP23359   2.662   6.229   9.827 -0.3546  0.1987  0.0360
13256PP      PP23360   3.032   9.781   0.833 -0.1109 -0.0138  0.0945
13257PP      PP23361   9.182   9.912   1.356  0.0013 -0.0457  0.1016
13258PP      PP23362  12.990   3.989   3.231  0.0789 -0.2369  0.1110
13259PP      PP23363  15.747  15.420   3.414 -0.1141  0.0174  0.1854
13260PP      PP23364   2.235   0.994   9.906  0.0438  0.4382 -0.0344
13261PP      PP23365   3.215   2.196  11.302  0.0883 -0.0622 -0.2017
13262PP      PP23366  13.733  11.159   8.902  0.1769  0.1559 -0.0390
13263PP      PP23367  13.079   6.685  11.629  0.0073  0.1865 -0.2944
13264PP      PP23368   3.382   1.758   0.566 -0.0568  0.0367 -0.0397
13265PP      PP23369   6.561  11.498   1.764  0.0813  0.1169  0.1642
13266PP      PP23370   8.809   1.143  11.180  0.1472 -0.1587 -0.1996
13267PP      PP23371   8.776  13.366   9.095  0.0907  0.1972  0.0710
13268PP      PP23372   7.118  13.760   9.879  0.0515  0.0322  0.4924
13269PP      PP23373  14.961   3.011  10.393  0.0827 -0.0161  0.1138
13270PP      PP23374   8.223  11.405   9.823 -0.2903  0.2395  0.1804
13271PP      PP23375   8.420  12.980  12.408  0.1782 -0.2915 -0.1553
13272PP      PP23376  11.302   8.353   3.166  0.1515  0.1771  0.0181
13273PP      PP23377  11.568   3.073  13.450  0.0960 -0.3066  0.1795
13274PP      PP23378  14.380  13.844   4.339 -0.0312 -0.1010 -0.2478
13275PP      PP23379  15.284   5.890  11.695 -0.0625 -0.6929 -0.2407
13276PP      PP23380   2.533   4.777   1.388 -0.1648  0.2625 -0.4833
13277PP      PP23381   4.199   5.205   9.731 -0.2843 -0.0275 -0.0954
13278PP      PP23382  15.029   1.750  11.286  0.1044  0.2454  0.0739
13279PP      PP23383  13.024   1.406   3.147 -0.3408 -0.0066 -0.0434
13280PP      PP23384   7.569   0.254   3.741  0.1363 -0.0585  0.3446
13281PP      PP23385   5.378  15.547   1.286 -0.1205 -0.0511 -0.0756
13282PP      PP23386   3.497   6.524   0.081  0.3900  0.0561 -0.0337
13283PP      PP23387   8.955  13.892  12.401  0.2870  0.1852 -0.3393
13284PP      PP23388  11.521   4.707  10.752  0.2206  0.3767 -0.0943
13285PP      PP23389   1.836   3.717  10.038 -0.1631  0.2092  0.0618
13286PP      PP23390   0.539   3.368  12.908  0.0734  0.0822 -0.3133
13287PP      PP23391   6.727   5.483   0.581 -0.0718  0.2100 -0.1426
13288PP      PP23392  13.984  15.011   5.040  0.0378 -0.2454 -0.0703
13289PP      PP23393  15.834   5.311  12.697 -0.0141 -0.1650  0.1825
13290PP      PP23394   6.575  12.505  11.855  0.0124  0.1369 -0.0089
13291PP      PP23395  12.781   2.375   3.828  0.1902  0.2009 -0.2123
13292PP      PP23396  15.169   9.989   2.638  0.0646  0.4121 -0.0142
13293PP      PP23397  14.857   8.013  11.153 -0.0284 -0.0852  0.0651
13294PP      PP23398   6.124  14.891  12.345  0.1752  0.4467  0.1590
13295PP      PP23399  11.617  15.402  13.043 -0.0068  0.2402  0.1501
13296PP      PP23400   7.030  13.581   4.741 -0.2010 -0.4338  0.1297
13297PP      PP23401   8.815  12.721   4.433  0.1442 -0.1516 -0.0497
13298PP      PP23402  12.787   2.121   9.444 -0.0833  0.3509 -0.0563
13299PP      PP23403   9.976  14.517   4.116 -0.0913  0.3884  0.1716
13300PP      PP23404  11.158   8.551   1.804 -0.0257  0.1342  0.3830
13301PP      PP23405  10.905   2.630   3.069  0.0266 -0.0268 -0.1130
13302PP      PP23406  12.821   4.909   0.124 -0.1773 -0.0690 -0.2187
13303PP      PP23407  10.046   5.477   4.286 -0.0045 -0.2542 -0.4610
13304PP      PP23408   4.689   0.323  10.417  0.0575  0.2055 -0.0058
13305PP      PP23409  12.518  13.431   0.565 -0.0362  0.2117  0.0950
13306PP      PP23410  10.325  12.520   9.420 -0.0514  0.3866 -0.2012
13307PP      PP23411   4.617  13.415  12.227  0.2725  0.4051  0.2553
13308PP      PP23412   6.364   7.203   0.449 -0.1323 -0.0622 -0.0089
13309PP      PP23413   1.451  15.096  11.666 -0.1115 -0.2299  0.2082
13310PP      PP23414   0.760   9.675  13.143 -0.0455 -0.0200 -0.1274
13311PP      PP23415   9.204   5.721   3.184 -0.1190 -0.0352  0.1820
13312PP      PP23416   4.639  15.408   9.889 -0.0082 -0.2393 -0.4030
13313PP      PP23417  13.669   3.373   9.930  0.1739  0.1956  0.0804
13314PP      PP23418  15.004   2.024  10.342  0.0822  0.0750 -0.0132
13315PP      PP23419   6.403  10.608   0.650 -0.0696 -0.3355  0.2451
13316PP      PP23420   3.974  13.160   4.095  0.2180  0.0079 -0.1876
13317PP      PP23421   3.773  11.772   3.392 -0.3130 -0.2977  0.2166
13318PP      PP23422  14.951  12.982   2.501  0.3372  0.1715  0.0346
13319PP      PP23423   9.576   5.074   4.149 -0.1613  0.0893  0.0192
13320PP      PP23424  10.978   5.981   1.241 -0.1358  0.1703  0.0085
13321PP      PP23425   7.920   4.482   1.974  0.2292  0.0801  0.1392
13322PP      PP23426  13.156   9.035   1.613 -0.1116 -0.0715  0.0843
13323PP      PP23427   6.281   0.210   4.424 -0.0408  0.1162  0.0307
13324PP      PP23428   5.705   1.805   5.021 -0.1238  0.3264 -0.0038
13325PP      PP23429  12.934   2.030   2.537  0.1401  0.1895 -0.0038
13326PP      PP23430   5.293  11.646   0.032  0.2039  0.1375  0.0835
13327PP      PP23431   3.488   5.903  12.663 -0.0090 -0.2307 -0.1046
13328PP      PP23432   4.687   5.162  10.519 -0.0804  0.1698 -0.1315
13329PP      PP23433  10.006   2.804  13.435  0.0498 -0.0332 -0.1690
13330PP      PP23434   2.540  12.698   1.736  0.1959 -0.0482  0.3022
13331PP      PP23435  14.659   7.371   3.680 -0.2902  0.2227  0.1803
13332PP      PP23436   1.684   2.774   0.389 -0.2129 -0.1702 -0.1171
13333PP      PP23437   1.534   3.904   0.066 -0.3467 -0.2224  0.2211
13334PP      PP23438   8.747  13.744   9.426  0.0223 -0.0765 -0.2165
13335PP      PP23439  12.736   3.455  12.750 -0.1184 -0.0565  0.1846
13336PP      PP23440  11.077   8.402  12.702  0.2796 -0.1836 -0.1152
13337PP      PP23441   6.644   7.025   2.112 -0.3033 -0.0926 -0.1322
13338PP      PP23442  13.722   5.271  12.762  0.1042  0.1510 -0.1748
13339PP      PP23443   6.949  14.777   0.929  0.0059  0.1726 -0.3544
13340PP      PP23444   0.987   2.692   2.984  0.4416 -0.3687 -0.0191
13341PP      PP23445   3.182  14.365  11.917  0.0161  0.0944 -0.2943
13342PP      PP23446   1.882   0.290  13.307 -0.2462 -0.0535 -0.2367
13343PP      PP23447   9.791  15.567   5.370 -0.1531  0.0661 -0.1695
13344PP      PP23448  12.208  12.618  10.747  0.2714  0.1437  0.0758
13345PP      PP23449  13.228  11.864  10.726  0.1701  0.0820  0.2237
13346PP      PP23450  14.409   7.064   8.764 -0.0311 -0.3695 -0.1303
13347PP      PP23451   3.405  14.660   3.922 -0.2521 -0.3152  0.3687
13348PP      PP23452  10.291  12.837   2.342  0.2048 -0.0912  0.2895
13349PP      PP23453  15.367   7.222   2.874 -0.1058 -0.0273  0.0834
13350PP      PP23454  14.441   0.234  11.741 -0.3448 -0.3465  0.2313
13351PP      PP23455  10.601   6.869   4.308  0.0880  0.1801 -0.0055
13352PP      PP23456   2.745   0.634  10.483  0.2440  0.0340  0.1915
13353PP      PP23457   2.236  10.137   3.255  0.2272 -0.1382  0.1088
13354PP      PP23458  14.568   9.333  12.434 -0.1139 -0.0428  0.1198
13355PP      PP23459  11.340  10.136   2.190 -0.1196  0.1266 -0.1516
13356PP      PP23460   9.948   9.820   9.972  0.0701 -0.0065  0.1621
13357PP      PP23461  14.724  14.507   3.449  0.2867  0.2828 -0.1749
13358PP      PP23462  14.508  10.651  12.133  0.0719 -0.0281  0.2228
13359PP      PP23463   9.746  10.941  10.380 -0.1947  0.1472  0.3184
13360PP      PP23464  15.417   6.310   8.960  0.1841 -0.0244  0.0800
13361PP      PP23465   5.575  13.549  13.028 -0.3746 -0.0640  0.0439
13362PP      PP23466  11.458   2.642  12.631  0.1777 -0.1373 -0.2015
13363PP      PP23467  12.831  11.955   4.867 -0.0873 -0.3405  0.2447
13364PP      PP23468  13.145  14.375   2.443 -0.0427  0.1390 -0.1409
13365PP      PP23469   4.308  10.643   0.719  0.0105  0.2011 -0.1227
13366PP      PP23470   7.628   7.813   1.337 -0.3257  0.1344  0.1001
13367PP      PP23471   7.411  10.693  12.631  0.0093  0.2248  0.1380
13368PP      PP23472   3.200   6.798  12.844 -0.3326  0.2121  0.2060
13369PP      PP23473  11.929   5.560   2.008 -0.1437 -0.3468  0.0480
13370PP      PP23474   0.760   9.732  12.508 -0.0495 -0.0007  0.0739
13371PP      PP23475  13.898   7.270  10.243  0.0535  0.0415  0.3830
13372PP      PP23476   9.186   9.756  12.260 -0.0591  0.2653 -0.0669
13373PP      PP23477  11.097   5.713  10.377 -0.3944 -0.2799 -0.2112
13374PP      PP23478   4.325   4.490   9.744 -0.0694 -0.1185  0.0239
13375PP      PP23479   3.817   3.055   4.455  0.1662 -0.1662 -0.2010
13376PP      PP23480   7.299  11.664   4.296 -0.1910 -0.1403  0.0453
13377PP      PP23481  11.898   3.304   0.453 -0.0171  0.1549 -0.0017
13378PP      PP23482   6.945  10.867  13.454 -0.1110  0.0826  0.1507
13379PP      PP23483   0.529   8.423   8.516 -0.1154  0.1275 -0.0207
13380PP      PP23484  13.050   3.762   0.342  0.2836  0.2183 -0.1615
13381PP      PP23485   0.794   0.235  12.428 -0.1491 -0.1243  0.1873
13382PP      PP23486  13.694   6.692   2.672  0.0300 -0.1042  0.0338
13383PP      PP23487   1.885  10.385   3.050 -0.0351 -0.4010  0.2648
13384PP      PP23488  15.083   7.673   3.814 -0.1073 -0.1812 -0.0829
13385PP      PP23489  15.546   9.407  12.940  0.0255 -0.1920 -0.0239
13386PP      PP23490   0.915   2.179   0.480  0.0334 -0.2114  0.0662
13387PP      PP23491   8.706   3.855   4.060  0.0649  0.0313  0.0304
13388PP      PP23492   0.407   6.763  11.900 -0.3105  0.2176 -0.0290
13389PP      PP23493   8.700   3.014   2.169  0.1723  0.3911  0.1159
13390PP      PP23494   1.537  11.870  12.651 -0.3036 -0.2908  0.1738
13391PP      PP23495  12.633   6.866  10.857  0.0060  0.0778 -0.3660
13392PP      PP23496   6.190   8.176  12.411 -0.3403 -0.2835  0.2015
13393PP      PP23497  14.425   1.621   2.424  0.0519 -0.0389  0.3648
13394PP      PP23498  15.532  13.804  10.226 -0.2144  0.1161 -0.1969
13395PP      PP23499  13.016  13.331   0.943  0.0977 -0.0715  0.1239
13396PP      PP23500   2.967   2.862   0.694 -0.1280 -0.0992  0.2659
13397PP      PP23501  14.831   3.691  13.248  0.1513 -0.1218 -0.2012
13398PP      PP23502   4.987  15.227   4.493  0.1635  0.4380  0.3253
13399PP      PP23503   7.841   2.296  10.958  0.2521 -0.3408  0.0540
13400PP      PP23504   1.705   1.432   2.902 -0.2345  0.3156 -0.0676
13401PP      PP23505   0.083  14.997   3.407 -0.2463  0.2354 -0.0831
13402PP      PP23506   1.054  15.714   3.049 -0.2792 -0.0059 -0.2707
13403PP      PP23507   7.528  15.751  10.435  0.1516 -0.0656  0.2120
13404PP      PP23508  15.707   1.181   0.440 -0.0230 -0.1770 -0.3633
13405PP      PP23509   4.903   3.102  12.751 -0.2411  0.0876 -0.3524
13406PP      PP23510  15.755   2.131   9.487 -0.0731  0.1502  0.2357
13407PP      PP23511   2.582  10.994   2.953  0.1348 -0.1625  0.1817
13408PP      PP23512  13.039   6.124   8.352 -0.0415  0.0218 -0.0562
13409PP      PP23513   8.379   8.055   3.500  0.1086  0.1426  0.3879
13410PP      PP23514   5.040   2.575   0.406  0.1090 -0.1557 -0.0022
13411PP      PP23515   2.038  11.974   8.375  0.2185  0.2081 -0.3061
13412PP      PP23516   7.642  15.753  11.457 -0.1268 -0.0228 -0.1469
13413PP      PP23517   2.582  15.709   1.502  0.0442  0.0484 -0.1835
13414PP      PP23518   8.699  14.495  10.597 -0.3787 -0.1348  0.1470
13415PP      PP23519   9.549   5.365  13.277 -0.0156  0.0157  0.2677
13416PP      PP23520   4.824  13.482   4.368  0.0385 -0.0680 -0.2020
13417PP      PP23521   7.789   1.179  11.666 -0.0025  0.3457  0.2708
13418PP      PP23522   5.507   2.127   1.453 -0.0875  0.1937 -0.0733
13419PP      PP23523  11.011   9.072   9.854 -0.3633  0.0712 -0.2265
13420PP      PP23524   2.055   1.885   0.013  0.1366 -0.0498 -0.0579
13421PP      PP23525   4.560  12.132  12.935 -0.0616  0.0563 -0.0830
13422PP      PP23526   0.687   1.642  12.414  0.0845 -0.2770 -0.1423
13423PP      PP23527   6.488  12.938  10.643  0.0584  0.2823 -0.0438
13424PP      PP23528   1.748   6.870   1.176 -0.1861  0.2299  0.1678
13425PP      PP23529   9.901   8.568   2.584 -0.0331 -0.2037 -0.0487
13426PP      PP23530   7.074   1.870  11.556  0.3090 -0.0159  0.0323
13427PP      PP23531   9.533  14.661  12.589 -0.0972  0.0014  0.0894
13428PP      PP23532   1.179   6.333   0.201 -0.1197  0.1412  0.1477
13429PP      PP23533  13.133   6.392   1.832  0.0285  0.1103  0.2159
13430PP      PP23534  14.616   4.359  11.230  0.2614  0.3824  0.0702
13431PP      PP23535  14.338   8.599   3.347 -0.1076 -0.0893 -0.1645
13432PP      PP23536  15.065   0.914   2.780 -0.3446  0.2057  0.1238
13433PP      PP23537  15.259   7.818  10.263 -0.0598  0.0764 -0.1060
13434PP      PP23538  13.607  11.489  12.999  0.0887 -0.0181 -0.2886
13435PP      PP23539  12.589   4.534   2.296  0.1747  0.0833 -0.0817
13436PP      PP23540  12.312   6.701   8.905  0.2273  0.0474 -0.3019
13437PP      PP23541   3.566  15.460   1.374  0.0803  0.2503  0.2924
13438PP      PP23542   8.800  12.782  11.144  0.1144 -0.0111 -0.2768
13439PP      PP23543   0.004  14.171   4.135 -0.4644 -0.0807  0.0573
13440PP      PP23544   9.827   0.031  11.639 -0.0100 -0.1580 -0.0403
13441PP      PP23545  14.376   3.225   2.408  0.1964  0.3500 -0.1929
13442PP      PP23546  10.840   5.061   1.864  0.1402  0.2125 -0.2616
13443PP      PP23547  11.327  11.528   4.309  0.0094  0.2360  0.2279
13444PP      PP23548   5.419   9.055   3.574 -0.1642  0.0005  0.0269
13445PP      PP23549   7.898   9.513   1.155 -0.1222  0.0730 -0.2394
13446PP      PP23550   3.141  12.067   2.769 -0.1217 -0.1244 -0.2204
13447PP      PP23551   6.792   1.481  11.411 -0.0133 -0.3839 -0.0902
13448PP      PP23552   4.324   6.538   9.068  0.1102 -0.0017 -0.3157
13449PP      PP23553   1.952   2.698  13.454 -0.0244 -0.3806  0.1922
13450PP      PP23554  15.607   0.797   3.566  0.0652 -0.0627  0.2110
13451PP      PP23555  13.956   7.277  11.510  0.1599  0.0196 -0.0360
13452PP      PP23556   9.079   6.424  13.147 -0.2010  0.0912  0.1306
13453PP      PP23557   4.641   6.664   9.522  0.1774  0.0023 -0.0006
13454PP      PP23558  13.223  14.981   9.858  0.1371 -0.0146  0.1929
13455PP      PP23559   8.197   7.885   2.521 -0.1545 -0.2761 -0.4830
13456PP      PP23560   8.438   7.508   1.425 -0.0015 -0.3301 -0.3410
13457PP      PP23561   3.607   0.656   9.869  0.1031  0.1724 -0.1994
13458PP      PP23562   3.743   6.608   2.175  0.3007 -0.0016  0.0566
13459PP      PP23563  13.549   7.208   1.405 -0.0877  0.2028 -0.3123
13460PP      PP23564   1.834   2.921  11.112  0.0056 -0.2366 -0.1084
13461PP      PP23565  12.916  12.517   3.007 -0.3641 -0.0223  0.0347
13462PP      PP23566   3.618   3.807   2.098  0.1309 -0.4083 -0.2372
13463PP      PP23567  14.605   4.543  11.720  0.1521  0.1135  0.1024
13464PP      PP23568   8.781   7.828  10.738 -0.1180  0.0249 -0.1874
13465PP      PP23569   4.637   2.907  11.816  0.2411 -0.3242  0.1689
13466PP      PP23570   4.611   4.259   2.773 -0.0227  0.0132 -0.0058
13467PP      PP23571   0.285   6.514  10.103  0.0340 -0.4180  0.0174
13468PP      PP23572  14.120  12.266  11.558  0.3206  0.1429 -0.1565
13469PP      PP23573  10.128  14.122  11.164  0.1172 -0.0116  0.1751
13470PP      PP23574   2.031   4.816   9.685  0.1485  0.1736  0.0011
13471PP      PP23575  13.992  10.264  12.502  0.0210  0.1589  0.4818
13472PP      PP23576  15.829   0.597  10.590  0.0552 -0.1924  0.1058
13473PP      PP23577   3.409   8.897   9.011  0.1592  0.0347 -0.3034
13474PP      PP23578   8.616   5.454   2.577 -0.0054  0.1378  0.2163
13475PP      PP23579   8.367   8.276  10.076 -0.2788 -0.3078 -0.1169
13476PP      PP23580  15.272   5.424  11.470  0.0843  0.1530  0.0694
13477PP      PP23581   3.058   2.194  10.037 -0.1684  0.0283 -0.1169
13478PP      PP23582   6.268  12.625  11.217 -0.2279 -0.0576  0.0786
13479PP      PP23583  11.819   6.949   8.897  0.1353 -0.3125 -0.0101
13480PP      PP23584  11.732  11.788  10.173  0.0380  0.0531 -0.1202
13481PP      PP23585   6.291  15.446   9.901  0.4177  0.2893  0.0548
13482PP      PP23586   4.928  11.750  10.047 -0.0522 -0.0749 -0.0454
13483PP      PP23587   7.190  14.814   4.805  0.2413 -0.0128  0.0544
13484PP      PP23588   6.037   8.420   0.193  0.0083  0.0729  0.0541
13485PP      PP23589   2.247   1.511   9.891 -0.2886  0.0517  0.2938
13486PP      PP23590  11.084   5.719   3.148  0.0887 -0.2098  0.1606
13487PP      PP23591   2.628   8.607   0.780  0.1194 -0.1719  0.0801
13488PP      PP23592   1.939  13.021   8.943 -0.0809 -0.0446 -0.3656
13489PP      PP23593   9.486   9.096   9.803  0.0291 -0.1826 -0.3224
13490PP      PP23594  11.172  10.033   4.298 -0.1929  0.0506  0.0378
13491PP      PP23595  12.804  14.245  11.454  0.2147  0.0567 -0.2386
13492PP      PP23596   8.752   8.082  11.675  0.3095 -0.1588 -0.0590
13493PP      PP23597   4.018  15.044  13.240  0.1306  0.1810  0.2834
13494PP      PP23598   5.688  11.207   2.241 -0.3037  0.1253  0.0407
13495PP      PP23599   3.721   3.800  10.729 -0.3293  0.0111  0.3241
13496PP      PP23600   2.250   9.385  13.285  0.0011 -0.1776  0.1968
13497PP      PP23601   3.671  12.334  11.890 -0.0782 -0.2832  0.1241
13498PP      PP23602  11.093   7.844  12.479 -0.0546 -0.3734 -0.2397
13499PP      PP23603   6.036   4.976   0.503  0.0058  0.2889 -0.1675
13500PP      PP23604  12.096   0.629   4.742  0.0218 -0.0743  0.0147
13501PP      PP23605  12.892  12.946   1.624 -0.0544  0.0540 -0.1319
13502PP      PP23606   1.670  15.408  11.330 -0.1954  0.0721  0.4093
13503PP      PP23607  11.561   7.926  12.667 -0.2698  0.1684  0.0104
13504PP      PP23608   7.888   7.012  12.712 -0.1938 -0.1166 -0.0992
13505PP      PP23609  12.011   9.393  11.618  0.0037  0.0687 -0.0148
13506PP      PP23610   9.563   6.173   1.775 -0.0253 -0.2224  0.4863
13507PP      PP23611  12.721  14.103   2.291  0.0670 -0.1595  0.0514
13508PP      PP23612   2.875  15.810  10.505 -0.0426 -0.3298  0.2423
13509PP      PP23613   5.668   8.665   1.163 -0.0134 -0.0308 -0.1706
13510PP      PP23614  15.852   7.781   2.977  0.1874  0.1466  0.2810
13511PP      PP23615   6.428   6.669   9.917  0.2666  0.1592  0.0774
13512PP      PP23616  11.095  10.145  12.839  0.1760 -0.3328  0.1235
13513PP      PP23617   0.023   3.856   3.817 -0.2532  0.0159  0.0873
13514PP      PP23618   5.354   1.698   0.287  0.3235 -0.0510 -0.2198
13515PP      PP23619   1.796   4.311   3.965  0.0288 -0.1058  0.2268
13516PP      PP23620   8.016   1.585   3.051 -0.2359 -0.1015  0.0309
13517PP      PP23621   0.869   2.269  13.110 -0.4569  0.0149  0.0231
13518PP      PP23622   2.489   2.921  12.349  0.0571  0.1805 -0.1117
13519PP      PP23623  10.083   2.109   3.657 -0.2288  0.1881 -0.1343
13520PP      PP23624  10.792  14.958   3.836 -0.1044  0.3251  0.0357
13521PP      PP23625   4.165  10.748   8.893  0.2087  0.1795 -0.0226
13522PP      PP23626   1.942   2.608   2.268 -0.0391  0.0313 -0.0943
13523PP      PP23627   0.202  12.217  11.708  0.0299 -0.0180 -0.1085
13524PP      PP23628  14.929  11.687   1.873  0.0512 -0.1817 -0.1035
13525PP      PP23629   2.159  11.353   9.015  0.1107  0.2081  0.3427
13526PP      PP23630   4.612  13.891  12.432 -0.0781  0.1159  0.1632
13527PP      PP23631   4.977   4.489  11.731 -0.0464  0.0674 -0.2373
13528PP      PP23632   0.462  13.611   9.511 -0.4247 -0.1095  0.0683
13529PP      PP23633  14.646   1.516   0.190  0.0647 -0.2890  0.3730
13530PP      PP23634   7.872  12.513   4.359  0.2651 -0.1709  0.2096
13531PP      PP23635   7.433   8.706  10.616 -0.2492 -0.0007 -0.3098
13532PP      PP23636   4.472   4.090   8.838 -0.1289  0.1775 -0.0366
13533PP      PP23637   7.293   9.803  12.178 -0.1759  0.0922 -0.1196
13534PP      PP23638   4.593  11.632   1.732  0.0718  0.0009 -0.0392
13535PP      PP23639   1.923   4.601   0.360  0.0372  0.2125 -0.2362
13536PP      PP23640   3.718   4.018  13.192  0.2025  0.1731  0.3549
13537PP      PP23641   7.154   2.227   1.133  0.2122  0.0187 -0.0143
13538PP      PP23642  10.364   4.139   9.766  0.1800  0.0010  0.0843
13539PP      PP23643  10.776  14.712  11.611 -0.0298 -0.1204  0.0845
13540PP      PP23644   9.683   6.765  10.436 -0.0082  0.0482 -0.3574
13541PP      PP23645   0.840   3.176   8.896  0.2327 -0.0014 -0.2432
13542PP      PP23646   3.850   4.938   2.480 -0.0986 -0.0539  0.0894
13543PP      PP23647   1.093   1.040   9.209  0.1875 -0.0139 -0.1581
13544PP      PP23648  13.698   4.205   2.326 -0.0261  0.1998  0.1025
13545PP      PP23649   9.810  14.262   1.242  0.0886 -0.4386 -0.0325
13546PP      PP23650   1.879  12.121  10.643  0.0291  0.1211 -0.1871
13547PP      PP23651  10.833   0.701   9.155 -0.2723  0.1323  0.1149
13548PP      PP23652  15.512  15.398   2.897  0.0826  0.2046 -0.1235
13549PP      PP23653   6.883  14.235   2.800  0.5030  0.1297  0.2138
13550PP      PP23654   8.705   1.927   3.053  0.0668  0.1736  0.1230
13551PP      PP23655   9.803   0.565  13.303  0.1319 -0.0144  0.0190
13552PP      PP23656  11.915   5.470  12.413 -0.0070  0.1961  0.2088
13553PP      PP23657  10.292   8.748   0.116 -0.1546 -0.0301 -0.1427
13554PP      PP23658  14.105  14.720   2.495 -0.1688 -0.1001 -0.1399
13555PP      PP23659   0.159  14.417   2.238  0.2333 -0.3306  0.0004
13556PP      PP23660  11.025   9.574  10.821  0.2688 -0.1872  0.3042
13557PP      PP23661  13.461   4.018   3.555 -0.0380 -0.0626  0.0126
13558PP      PP23662   6.478   6.171   9.910 -0.0898 -0.0429  0.1483
13559PP      PP23663   2.413   5.630   0.072  0.0532 -0.0271  0.0765
13560PP      PP23664   5.077   6.993   2.739 -0.1953  0.3696 -0.1611
13561PP      PP23665  10.102  10.200   0.799  0.4201  0.0160 -0.0898
13562PP      PP23666   3.978   2.184   3.388  0.2884 -0.0059  0.2411
13563PP      PP23667   7.882   4.860   9.513 -0.1688  0.2800  0.2753
13564PP      PP23668   3.093  11.829   0.101  0.1290 -0.0968 -0.0060
13565PP      PP23669  13.272   2.115  12.252  0.0602 -0.0769 -0.0622
13566PP      PP23670   3.098   3.882   0.445 -0.3821 -0.0055 -0.2605
13567PP      PP23671   0.243   4.426  12.027  0.1221  0.0120 -0.1745
13568PP      PP23672  11.164   5.547  13.172 -0.1857 -0.2833  0.1261
13569PP      PP23673   2.721  13.501   9.161 -0.0536 -0.1256 -0.0988
13570PP      PP23674  14.101  12.639   0.135 -0.1193  0.1514  0.1340
13571PP      PP23675   5.582   8.781   3.182  0.0347  0.1648 -0.0575
13572PP      PP23676  12.116   0.789  11.601  0.1068 -0.1199 -0.4476
13573PP      PP23677  11.385  13.512  10.658 -0.1505  0.1785 -0.0040
13574PP      PP23678  15.191  13.807  12.284 -0.2646 -0.1187  0.1063
13575PP      PP23679   5.491   6.440  11.147  0.1161 -0.1401 -0.1470
13576PP      PP23680   0.214   1.681   3.832  0.0132  0.1514  0.1467
13577PP      PP23681   8.574  14.747   2.880 -0.3730 -0.0476 -0.1223
13578PP      PP23682   8.846   2.907   9.618  0.5343  0.2018 -0.2195
13579PP      PP23683   5.490  13.282   8.747  0.2012 -0.3529 -0.0963
13580PP      PP23684   8.333   8.090  13.023  0.2695 -0.0997 -0.0237
13581PP      PP23685   6.922   2.930   4.058  0.0525 -0.0038 -0.2834
13582PP      PP23686   8.712  11.403  12.757 -0.0681 -0.0246 -0.1744
13583PP      PP23687   9.318  12.187  12.427 -0.1598 -0.0227  0.2088
13584PP      PP23688   2.975  11.632   2.576  0.1286  0.2556 -0.3623
13585PP      PP23689  14.389  12.539   3.069  0.1068  0.0125 -0.0687
13586PP      PP23690   1.307  11.349   2.293 -0.0448 -0.1888 -0.0036
13587PP      PP23691   1.002   4.006  11.674 -0.1666 -0.2016  0.0036
13588PP      PP23692   3.903  13.301  11.884  0.0071  0.1919  0.1336
13589PP      PP23693   6.293  14.302   3.439 -0.4133 -0.0119  0.0086
13590PP      PP23694   7.987  15.600  10.179  0.0915  0.3146  0.0055
13591PP      PP23695   1.858   5.186  11.059  0.2076  0.0122 -0.1988
13592PP      PP23696   7.390  12.180   1.041 -0.2321  0.1659  0.2946
13593PP      PP23697   2.068  13.192   1.216 -0.3461 -0.0241  0.1485
13594PP      PP23698  12.907   9.926  12.917 -0.0016 -0.1301 -0.0601
13595PP      PP23699  12.535   8.834  12.360  0.1040 -0.0878 -0.2589
13596PP      PP23700  10.096  14.543   4.701 -0.0307  0.2545  0.1153
13597PP      PP23701   8.194  13.242  10.226  0.2039 -0.0303 -0.1221
13598PP      PP23702   8.678   7.034   8.584  0.0865  0.0281 -0.0856
13599PP      PP23703  14.572   6.558   1.318  0.2409  0.0605 -0.3460
13600PP      PP23704   4.472   8.353   9.614  0.0604 -0.1352  0.1616
13601PP      PP23705   0.199  12.453   9.352  0.0217 -0.0105  0.0545
13602PP      PP23706  15.740  12.628   4.708 -0.3215  0.0284  0.1408
13603PP      PP23707   2.215   2.707  13.021  0.1840 -0.4079  0.0027
13604PP      PP23708   2.216  11.436  10.169 -0.1702 -0.0592  0.0505
13605PP      PP23709   3.845   3.996   9.110  0.2745 -0.0451 -0.2343
13606PP      PP23710  13.615   6.663  10.833 -0.0944  0.0433 -0.2679
13607PP      PP23711   5.471   5.614   9.027  0.1046  0.1989  0.0193
13608PP      PP23712   2.183   7.854  12.181  0.2733 -0.3780 -0.0626
13609PP      PP23713   3.186   6.449  13.216 -0.2282  0.2144  0.0337
13610PP      PP23714  10.381   9.119   9.396  0.2461  0.1806 -0.1788
13611PP      PP23715   3.048   9.693  13.065  0.4116 -0.0811  0.1496
13612PP      PP23716   1.798  14.818  13.396  0.0061  0.0081  0.0754
13613PP      PP23717   1.990   5.394   8.641 -0.0264  0.2953 -0.2111
13614PP      PP23718   5.681   4.446   1.872 -0.1362 -0.2368  0.1597
13615PP      PP23719   7.982   4.126  12.298 -0.0008  0.0898  0.3197
13616PP      PP23720  14.842   1.806   2.289  0.0396  0.1567 -0.1134
13617PP      PP23721   6.111  15.737   1.252  0.0395  0.3237  0.0422
13618PP      PP23722   8.551  14.213   4.189 -0.2069 -0.2781 -0.0580
13619PP      PP23723   4.212   0.903   1.131  0.3212 -0.0018  0.2218
13620PP      PP23724   4.443  10.710   1.216  0.2738 -0.4266 -0.1693
13621PP      PP23725   9.082  13.066   0.536  0.1158 -0.1120 -0.1422
13622PP      PP23726   2.887  11.145   2.529  0.4731  0.1668  0.0817
13623PP      PP23727   0.246   4.171  11.593 -0.2165 -0.0898 -0.0212
13624PP      PP23728   9.567  12.860   4.326  0.3137  0.0192 -0.0257
13625PP      PP23729  13.148  10.173  12.479 -0.0275 -0.3008  0.0944
13626PP      PP23730   4.371   5.576  10.560 -0.1114  0.2584 -0.1478
13627PP      PP23731   9.936   9.262   2.370 -0.0091 -0.0178  0.0214
13628PP      PP23732  12.046   9.959   2.696  0.2422  0.1798 -0.0081
13629PP      PP23733   3.754   5.442  12.692  0.2001 -0.1461 -0.0790
13630PP      PP23734   0.813  13.981  11.547  0.0135 -0.1545 -0.1604
13631PP      PP23735  14.474  13.698   9.160  0.0616 -0.0327 -0.0871
13632PP      PP23736   0.303   1.481   2.572 -0.0318  0.0343 -0.2364
13633PP      PP23737   7.565   1.334  12.083 -0.0464  0.1098 -0.1934
13634PP      PP23738   8.769   4.699  11.123  0.1196 -0.0828 -0.3567
13635PP      PP23739   9.005  11.584   9.907  0.0039 -0.2474 -0.0445
13636PP      PP23740   8.613   7.301  11.712 -0.0736  0.0854 -0.1586
13637PP      PP23741   5.486   5.588   1.008 -0.1422 -0.0235  0.2353
13638PP      PP23742  11.847   9.804  11.331  0.2697  0.0368 -0.3821
13639PP      PP23743   8.218   8.410  10.657  0.2608  0.4380 -0.0067
13640PP      PP23744   1.512  10.025  11.512 -0.2176  0.0738 -0.2688
13641PP      PP23745   1.440   5.245  12.021  0.3321 -0.0908  0.0716
13642PP      PP23746   3.429   0.762   1.551 -0.0051  0.0261 -0.1785
13643PP      PP23747   3.495  12.361   2.552  0.0505  0.0515  0.0319
13644PP      PP23748   4.264  13.327   3.262 -0.1574  0.3663  0.3900
13645PP      PP23749  13.213   4.979   8.872  0.0813  0.2939 -0.2616
13646PP      PP23750   2.405  11.742   1.386 -0.0638  0.1360 -0.0503
13647PP      PP23751   6.324  15.836  10.211  0.1338  0.2895 -0.3592
13648PP      PP23752  15.560   8.842   1.716 -0.0970 -0.0765 -0.1721
13649PP      PP23753  10.506  13.072  10.815 -0.1523  0.1700 -0.4193
13650PP      PP23754  11.148   0.255   4.336  0.3743  0.6489 -0.1238
13651PP      PP23755   7.593  10.505   0.539  0.2101  0.1447  0.0092
13652PP      PP23756   2.582  15.602   0.910  0.0968  0.0421  0.0089
13653PP      PP23757   5.066  13.534   9.053  0.3384  0.0652  0.0460
13654PP      PP23758   0.163  10.549  10.800  0.3142  0.2350  0.1584
13655PP      PP23759  11.594   5.454   1.559  0.2832 -0.0634  0.1601
13656PP      PP23760  14.075   2.659   8.665  0.2345 -0.2357 -0.1614
13657PP      PP23761   8.434   2.206  10.274 -0.2128 -0.1809  0.2496
13658PP      PP23762  13.701   2.592  12.076  0.2674 -0.0263 -0.1047
13659PP      PP23763   9.927   2.624   0.956 -0.1960 -0.0903  0.2979
13660PP      PP23764   8.932   3.405   9.838  0.1340  0.1314 -0.1981
13661PP      PP23765   0.782   6.773   3.295 -0.0486  0.0925 -0.3429
13662PP      PP23766  11.394   0.736  12.070  0.1146  0.0542 -0.2836
13663PP      PP23767  13.553  14.759  11.227  0.0053  0.0473 -0.0703
13664PP      PP23768  14.105   6.773   1.822 -0.0712 -0.0028  0.1099
13665PP      PP23769  15.645  15.122   3.839  0.0955  0.0943  0.0671
13666PP      PP23770  10.722   8.137   4.061  0.0342 -0.1261 -0.3811
13667PP      PP23771   2.120   0.571   0.118  0.1812  0.2114 -0.1889
13668PP      PP23772   7.289   1.151  13.271  0.2915  0.0917  0.2366
13669PP      PP23773  14.041  13.529   0.790  0.0215 -0.1281 -0.1345
13670PP      PP23774  12.692   4.773  13.179  0.1108 -0.0681  0.3089
13671PP      PP23775  11.898   7.298   3.899 -0.2683 -0.1252 -0.0706
13672PP      PP23776   0.708  11.984   2.584  0.4019 -0.1119  0.0219
13673PP      PP23777  13.473  10.688  11.628 -0.2376  0.0481 -0.0329
13674PP      PP23778  11.361  14.506   9.450  0.0430  0.0028 -0.2396
13675PP      PP23779   5.586   5.672   0.101  0.1023  0.1382 -0.3572
13676PP      PP23780   0.816   9.386   8.601  0.0699  0.1284  0.0269
13677PP      PP23781   9.647   6.557  10.895 -0.0847  0.0572 -0.0888
13678PP      PP23782  12.602   0.188   3.395  0.0731  0.2155 -0.0377
13679PP      PP23783  14.237   9.510   9.503  0.3137  0.1258  0.1905
13680PP      PP23784  11.253   7.078   2.492 -0.1269  0.1663  0.0509
13681PP      PP23785   3.315   9.178  10.287 -0.2278  0.3022 -0.1303
13682PP      PP23786   5.173  11.317  10.140  0.2596  0.3610  0.3606
13683PP      PP23787   6.492   9.511   3.486  0.0518  0.0801  0.1863
13684PP      PP23788   9.775   6.276  10.419  0.1993  0.2579  0.1535
13685PP      PP23789   1.733   5.994  12.482 -0.0204 -0.1417 -0.0093
13686PP      PP23790  12.911  15.307   9.610  0.1641  0.0233 -0.3561
13687PP      PP23791  13.483  13.264   5.063 -0.0538  0.1568  0.0151
13688PP      PP23792   9.439   3.717  12.760 -0.2189 -0.1190  0.0473
13689PP      PP23793   8.540   9.697   3.427 -0.0325 -0.0256  0.1411
13690PP      PP23794   6.823   8.634   3.160 -0.0161 -0.0026  0.2163
13691PP      PP23795  14.232  15.148   0.710 -0.0449 -0.1491 -0.4613
13692PP      PP23796   3.059   8.935   9.437 -0.0438 -0.1167  0.0994
13693PP      PP23797   5.155  10.250   9.316 -0.0623 -0.0204  0.0942
13694PP      PP23798   2.490   9.689  11.504 -0.0406  0.0076  0.0249
13695PP      PP23799  12.830   9.809  12.218  0.0593 -0.1434  0.2251
13696PP      PP23800  15.225  10.961   0.642 -0.1229  0.2530  0.2014
13697PP      PP23801  14.060  10.333   0.026 -0.1117 -0.0454 -0.0764
13698PP      PP23802   0.180   8.648   0.728 -0.3616  0.0176 -0.0328
13699PP      PP23803   6.162  10.015   2.087 -0.3170  0.0658  0.1628
13700PP      PP23804   2.869   5.837   1.836 -0.0963 -0.2595  0.2689
13701PP      PP23805  12.741   6.577   1.009 -0.3560  0.2169  0.4760
13702PP      PP23806   0.651   0.647   3.255 -0.1903 -0.0823 -0.4899
13703PP      PP23807   9.681  14.064   2.515  0.0522 -0.3717 -0.0162
13704PP      PP23808   4.819   4.918   0.619 -0.1800  0.2855 -0.0453
13705PP      PP23809  11.564  11.535   9.210 -0.2737  0.1660  0.2327
13706PP      PP23810   1.648   4.178   9.895  0.0693 -0.0312  0.0911
13707PP      PP23811  12.764  14.959  10.250  0.1473  0.0588  0.0102
13708PP      PP23812   8.486   2.581   9.037  0.0027  0.1491 -0.1146
13709PP      PP23813   5.063   9.322   0.510 -0.4946 -0.1314  0.1221
13710PP      PP23814   4.270   7.139  11.272  0.2275  0.0014  0.2146
13711PP      PP23815   6.194  10.646  12.010 -0.0356 -0.2869  0.2266
13712PP      PP23816   2.725  10.526   3.057 -0.3062 -0.0410 -0.0204
13713PP      PP23817  11.681   5.848   3.092 -0.4561  0.0627 -0.1685
13714PP      PP23818   9.021   5.444  12.859  0.1705  0.2250 -0.0912
13715PP      PP23819   7.442   9.865   9.412  0.2462 -0.2171  0.0541
13716PP      PP23820   6.795  10.461   0.873  0.3054 -0.2014  0.0605
13717PP      PP23821   1.354   2.972  11.286  0.1473 -0.0210 -0.1330
13718PP      PP23822  13.130   6.526   1.324 -0.2478  0.0496  0.1871
13719PP      PP23823  10.519   9.396  13.126  0.0818  0.2010 -0.2090
13720PP      PP23824  10.634   4.442   0.671  0.0480 -0.1398  0.1631
13721PP      PP23825   4.290  15.730   2.811 -0.1255 -0.2721 -0.0414
13722PP      PP23826   4.577   6.852  12.641 -0.0147  0.0658  0.1314
13723PP      PP23827   3.545   8.533  13.498  0.3207 -0.0843 -0.3550
13724PP      PP23828   8.327   8.834   9.196  0.1047  0.1527 -0.1334
13725PP      PP23829  13.903  11.415   3.104  0.0441  0.0464  0.1016
13726PP      PP23830  11.407   2.599  12.096 -0.1603  0.0874 -0.0668
13727PP      PP23831  15.804   1.369  13.210 -0.2543 -0.0576  0.0214
13728PP      PP23832   8.726  10.563   0.056  0.0853 -0.1520 -0.2128
13729PP      PP23833   3.020   8.280  12.053  0.2356 -0.3374  0.0695
13730PP      PP23834  14.973   7.465   8.027  0.1704 -0.0360  0.2889
13731PP      PP23835   1.805   9.858   0.458  0.0824 -0.0635  0.1420
13732PP      PP23836   3.218   8.864  10.713 -0.1774 -0.3407 -0.0271
13733PP      PP23837  11.364  14.960  13.015 -0.1407 -0.3625  0.0074
13734PP      PP23838  10.849  12.012   3.006  0.4557 -0.1255 -0.1393
13735PP      PP23839  11.906  14.474   9.426 -0.1089 -0.1220 -0.1949
13736PP      PP23840  15.220  10.205   9.516  0.1018  0.3122 -0.1297
13737PP      PP23841  15.710   6.445   4.048  0.3217 -0.0020 -0.2852
13738PP      PP23842   0.920   2.962   1.149 -0.1085 -0.0550 -0.0558
13739PP      PP23843  12.598  12.222  10.367 -0.1150  0.0665  0.0347
13740PP      PP23844   4.840  14.829  10.938  0.2225 -0.0228  0.2040
13741PP      PP23845  12.294  15.812   9.071 -0.2512 -0.1444 -0.2212
13742PP      PP23846   8.725   4.560  13.346 -0.0773  0.0416 -0.0914
13743PP      PP23847   6.889   7.771   9.250 -0.1523  0.1036  0.0925
13744PP      PP23848   2.664   0.652   9.114 -0.0969  0.3336 -0.0932
13745PP      PP23849  15.447   6.781   9.129  0.1656 -0.1407 -0.1027
13746PP      PP23850  10.991   4.669   9.423  0.1785 -0.0855 -0.0625
13747PP      PP23851   4.146   7.528   0.990  0.1359  0.2111 -0.3461
13748PP      PP23852   6.658  12.838   9.907 -0.0498  0.1622  0.2803
13749PP      PP23853   5.829  13.498   0.998  0.1124 -0.3999 -0.2021
13750PP      PP23854   9.161  15.494   1.307  0.3548 -0.0144 -0.4938
13751PP      PP23855   7.922  12.653   9.094 -0.4604  0.0569 -0.2358
13752PP      PP23856  11.017   9.329   8.682 -0.2866 -0.2679 -0.3047
13753PP      PP23857   8.293   9.153   0.304 -0.1117  0.1019 -0.1856
13754PP      PP23858  12.777   5.850   9.915  0.3726 -0.1764 -0.0698
13755PP      PP23859  14.089   2.413   2.517 -0.1273  0.2302  0.0528
13756PP      PP23860   7.518   3.593  12.911 -0.0103  0.0944  0.0996
13757PP      PP23861   7.187  13.678   4.192  0.3702 -0.0563 -0.0670
13758PP      PP23862   9.925   3.273   3.646  0.2141  0.0491  0.0698
13759PP      PP23863  15.467   4.244   9.166  0.0375 -0.0676  0.4031
13760PP      PP23864   6.425   9.639   2.929 -0.1839  0.1420  0.1024
13761PP      PP23865  12.841   8.077   3.114 -0.3879  0.1202 -0.5509
13762PP      PP23866  15.508  11.446   8.406 -0.0579  0.1561  0.2098
13763PP      PP23867   8.739   9.914   2.488  0.2117 -0.1457  0.1278
13764PP      PP23868   8.228  10.515   3.732 -0.1801  0.0647  0.0503
13765PP      PP23869   6.365  13.294   3.696 -0.1648 -0.0266 -0.1827
13766PP      PP23870  13.079   4.882   1.810  0.0723 -0.0415 -0.1390
13767PP      PP23871   7.801   4.368   2.615 -0.2076  0.2038 -0.0376
13768PP      PP23872   2.758   7.349   3.264 -0.2882  0.0337  0.0712
13769PP      PP23873   4.466  11.881  10.255  0.1199 -0.2354 -0.0019
13770PP      PP23874  15.711   5.114   1.052 -0.0903  0.0214 -0.0152
13771PP      PP23875   1.097   9.260  11.130  0.0969 -0.1970  0.0633
13772PP      PP23876  15.022  13.639   8.931  0.1055 -0.1263 -0.0646
13773PP      PP23877  12.225   9.181  11.195  0.1858 -0.5678 -0.2010
13774PP      PP23878   5.009   2.193   3.088 -0.0989  0.1466 -0.1454
13775PP      PP23879  15.233  10.913   2.375 -0.1374  0.0188 -0.0371
13776PP      PP23880  12.354  15.691  11.420 -0.0154  0.0309  0.0914
13777PP      PP23881  14.161   0.821   0.566  0.1026 -0.0547 -0.1216
13778PP      PP23882  10.824  14.910  12.162 -0.0395  0.3530  0.2303
13779PP      PP23883  13.962   9.909  10.949 -0.1162 -0.0491  0.0326
13780PP      PP23884   0.096   1.738   9.092  0.1072  0.0388  0.3824
13781PP      PP23885  12.099   4.089   3.041 -0.3608 -0.0280 -0.0891
13782PP      PP23886   7.371   6.498  10.739  0.1919  0.0632  0.4266
13783PP      PP23887  14.384  10.644   2.674  0.0499  0.0293 -0.0841
13784PP      PP23888   8.951   4.716  12.084  0.2076  0.0628 -0.0276
13785PP      PP23889  13.811   2.307   9.088 -0.2929  0.0211  0.3199
13786PP      PP23890  12.585   2.366   1.478  0.1090  0.1644 -0.1050
13787PP      PP23891   0.077  10.182   2.022 -0.1675  0.0236 -0.1730
13788PP      PP23892  15.597   8.073   9.376  0.1609  0.2148 -0.2092
13789PP      PP23893   6.896   7.580  12.084  0.1294  0.2347 -0.0921
13790PP      PP23894   9.169   9.237  10.677 -0.0335 -0.1054  0.1055
13791PP      PP23895   7.175   8.771   2.253 -0.0439  0.0099  0.0682
13792PP      PP23896   2.232   3.509   1.477  0.0009 -0.1789  0.1922
13793PP      PP23897   0.005   4.434   3.230  0.0366 -0.2502 -0.0795
13794PP      PP23898   5.588   9.120   1.933  0.1853 -0.2709 -0.0583
13795PP      PP23899   1.444   8.884  12.041 -0.0201  0.1626 -0.1643
13796PP      PP23900  10.947  14.283   9.630 -0.1482 -0.0397 -0.1869
13797PP      PP23901   7.493   8.487   9.070  0.3104  0.0709 -0.3652
13798PP      PP23902   5.329  12.041   3.545 -0.0345  0.0731  0.3771
13799PP      PP23903   9.737   6.920   9.579  0.1551  0.0412 -0.1503
13800PP      PP23904  12.467   8.598  11.830 -0.1234  0.0562  0.1231
13801PP      PP23905  15.197  15.187  13.069  0.0783 -0.0292 -0.2642
13802PP      PP23906   2.034   3.281  10.206 -0.0739  0.1652  0.0922
13803PP      PP23907   4.605   9.727  13.348 -0.0406  0.0280 -0.2042
13804PP      PP23908   5.748   1.382   9.530 -0.4326 -0.1274 -0.1550
13805PP      PP23909   9.381  11.231  10.689  0.2131 -0.0203 -0.0134
13806PP      PP23910   6.903  14.026  10.323  0.0281 -0.0882 -0.2401
13807PP      PP23911  13.590   2.454   1.875 -0.1102 -0.1761 -0.0855
13808PP      PP23912   3.969   9.299   1.632  0.1257 -0.0104 -0.2516
13809PP      PP23913   1.001   9.788   1.154  0.0494 -0.2448 -0.1541
13810PP      PP23914  11.720   7.489   0.842  0.1293  0.2135  0.4472
13811PP      PP23915   2.133   0.388   2.152  0.1733 -0.1309  0.1653
13812PP      PP23916   8.020  10.498   0.973  0.0005 -0.0261  0.2506
13813PP      PP23917  14.811   4.560   2.196  0.0092  0.1205  0.0838
13814PP      PP23918   2.026  10.337  10.126 -0.2022 -0.2106  0.2564
13815PP      PP23919   9.306   3.893  12.295  0.5282 -0.1839 -0.3923
13816PP      PP23920   3.744   7.373   2.834 -0.1493 -0.3581  0.2909
13817PP      PP23921   2.503   8.173  12.572  0.0786  0.0276 -0.2464
13818PP      PP23922  11.698   9.412  10.944  0.0239 -0.3214  0.0406
13819PP      PP23923   4.960  12.080  11.391 -0.2214 -0.1143 -0.2646
13820PP      PP23924   5.875  15.164   3.453 -0.0235  0.0186  0.1669
13821PP      PP23925  13.661   0.886  12.350  0.1713 -0.0160  0.2309
13822PP      PP23926   0.602   2.605  12.835 -0.0784 -0.2498  0.0075
13823PP      PP23927   0.176  12.098  12.201  0.1294  0.1591 -0.0778
13824PP      PP23928   4.841  12.580   4.949  0.1403 -0.0207  0.1720
13825PP      PP23929   2.990   8.362   1.102  0.0316  0.0109 -0.0167
13826PP      PP23930  14.934   7.286  11.415  0.1848 -0.0712  0.1082
13827PP      PP23931  15.069  15.289  10.384 -0.3193  0.2674  0.0654
13828PP      PP23932  14.087  11.736   4.329 -0.0520 -0.1222  0.2273
13829PP      PP23933   6.348   6.878  11.769  0.0154  0.0130  0.1132
13830PP      PP23934   1.074   2.647   0.146 -0.2491  0.1182 -0.1027
13831PP      PP23935  14.633  14.153   2.311  0.0185  0.0530 -0.1690
13832PP      PP23936   4.225   4.288   0.215 -0.1690 -0.1267  0.1140
13833PP      PP23937   1.889   2.571  11.501  0.0585 -0.0329  0.0228
13834PP      PP23938   9.989   9.928   8.798 -0.2118 -0.1368 -0.0204
13835PP      PP23939   2.583  15.748   0.182 -0.3209  0.0848 -0.0919
13836PP      PP23940   5.434  14.268   9.610  0.2007  0.1189  0.0851
13837PP      PP23941   7.419  14.187   2.234 -0.1595 -0.2555  0.1611
13838PP      PP23942  11.798   7.300  12.066  0.1772 -0.1113  0.1456
13839PP      PP23943   2.099  13.028  11.616  0.5018 -0.2614 -0.5025
13840PP      PP23944  15.157  13.030  10.300 -0.1866 -0.1287  0.0247
13841PP      PP23945   0.547  10.544   0.118  0.2629 -0.3906  0.1331
13842PP      PP23946   2.022   1.392  12.312  0.0098 -0.2096  0.2084
13843PP      PP23947  14.713   1.813   0.738  0.2123  0.1461  0.2918
13844PP      PP23948   3.360  10.638  10.411 -0.2711 -0.0512  0.1069
13845PP      PP23949   1.424  13.391   3.797 -0.0594 -0.0137  0.1188
13846PP      PP23950   3.740   4.477   8.927  0.0763  0.1819 -0.2595
13847PP      PP23951  10.181  14.726   0.386  0.0707 -0.1013 -0.0456
13848PP      PP23952   7.955   6.989   1.784  0.3123  0.2750  0.0648
13849PP      PP23953   9.965   7.031  10.902 -0.0896  0.0631  0.1829
13850PP      PP23954   6.058   4.961   9.234 -0.0543  0.1083  0.0128
13851PP      PP23955  11.016  13.712  12.893  0.1463  0.1229  0.0949
13852PP      PP23956  12.474  15.539  12.303 -0.1498 -0.0274  0.3000
13853PP      PP23957   9.877  13.595   3.794  0.0844 -0.0647 -0.0306
13854PP      PP23958  12.749  11.963  11.974 -0.1282  0.2118  0.2236
13855PP      PP23959   3.521  11.583  10.364 -0.0362  0.0341 -0.0125
13856PP      PP23960   7.960   8.161   1.395  0.0743  0.2050 -0.3716
13857PP      PP23961   3.207  13.290  12.522 -0.2027  0.1315 -0.1818
13858PP      PP23962   7.468  13.237   1.311  0.0190  0.0176  0.3065
13859PP      PP23963  15.661   6.627  10.753 -0.0061  0.0998 -0.2957
13860PP      PP23964   5.965  10.204   0.408 -0.1526  0.0714  0.5654
13861PP      PP23965   4.873  15.184  10.378 -0.0233  0.2801 -0.1368
13862PP      PP23966   1.251  11.963  10.049  0.1242  0.1639  0.0585
13863PP      PP23967   2.963   3.413   0.436 -0.0217  0.2848 -0.2621
13864PP      PP23968  10.628   6.771   3.721 -0.0776  0.3675  0.2307
13865PP      PP23969  11.383   6.826   1.965  0.0267 -0.2651 -0.2639
13866PP      PP23970   1.471   9.269   1.944 -0.1933  0.1269  0.3349
13867PP      PP23971  15.435   4.948   8.525  0.2311  0.3638  0.2074
13868PP      PP23972   5.581   6.538  11.709 -0.0477  0.2087 -0.0463
13869PP      PP23973   1.679  15.821   3.780  0.2096 -0.1685  0.1720
13870PP      PP23974   1.473   7.125   3.711  0.0840  0.0657 -0.0774
13871PP      PP23975   1.132  10.520  12.836 -0.1203 -0.0822  0.0252
13872PP      PP23976   0.946   1.866   1.660 -0.1030 -0.2081 -0.2189
13873PP      PP23977   0.110   7.068  13.127  0.0707  0.4087  0.2675
13874PP      PP23978   0.002  15.098   4.267 -0.3525 -0.0785  0.0405
13875PP      PP23979   6.613   4.946   0.466  0.1102  0.0433 -0.0685
13876PP      PP23980   1.487   9.270  11.468  0.0108 -0.0850  0.0579
13877PP      PP23981   1.426  11.049  12.073  0.0907  0.0842 -0.1171
13878PP      PP23982  15.050   6.165   9.923  0.1968 -0.2337 -0.1307
13879PP      PP23983  12.284  11.769  12.574 -0.2537 -0.2036  0.0532
13880PP      PP23984  11.931   8.000   1.631 -0.0716  0.0134 -0.0737
13881PP      PP23985   9.084  15.347  12.532 -0.0251 -0.1869  0.0035
13882PP      PP23986   4.362   0.648   3.442  0.1089 -0.1953 -0.1428
13883PP      PP23987  10.175  10.940   2.309  0.1306  0.0040 -0.1740
13884PP      PP23988  10.004   8.193   2.895  0.2419 -0.2008 -0.1194
13885PP      PP23989  11.128   2.648   3.471 -0.0141 -0.4565 -0.3342
13886PP      PP23990   2.243   6.828   2.065 -0.1195  0.1244  0.4198
13887PP      PP23991  10.227   9.468   4.031  0.2032 -0.0105  0.2690
13888PP      PP23992   3.307  10.165   8.775 -0.2471 -0.0407  0.0221
13889PP      PP23993   0.935  10.054   9.990  0.0950 -0.1482 -0.1214
13890PP      PP23994   5.133   0.984   1.586  0.2647  0.2409 -0.0844
13891PP      PP23995   8.839   0.107   4.017 -0.0461 -0.0670  0.0298
13892PP      PP23996   2.872  11.361   2.995 -0.0795  0.1140  0.3797
13893PP      PP23997   7.630   9.965   3.462  0.0135 -0.1440  0.1348
13894PP      PP23998   5.623   6.016   9.523  0.3731 -0.1328 -0.3158
13895PP      PP23999   3.212   8.012  10.485  0.2828 -0.0307 -0.0302
13896PP      PP24000   3.837   9.061   8.841  0.0806  0.0381 -0.3097
13897PP      PP24001  12.879   1.945   4.303  0.0478 -0.1300  0.1686
13898PP      PP24002   8.936  11.371  11.789  0.1388 -0.2116 -0.1430
13899PP      PP24003   0.644   5.208  12.503 -0.0478  0.2824  0.1400
13900PP      PP24004   6.998   2.437   0.456 -0.1469 -0.1698 -0.0054
13901PP      PP24005   8.681   8.804   9.944  0.1305  0.0482 -0.1294
13902PP      PP24006   4.240  10.818  11.533 -0.1795  0.0824 -0.1342
13903PP      PP24007   3.337   0.360  11.520 -0.2835 -0.2102  0.0417
13904PP      PP24008  10.930   4.714  10.365 -0.1519 -0.2378 -0.3020
13905PP      PP24009  12.683  14.941   1.392 -0.0989 -0.0515  0.0624
13906PP      PP24010  13.396   4.299  10.945 -0.0728 -0.1869 -0.1897
13907PP      PP24011  12.853   3.825  10.222  0.3826  0.2952  0.2756
13908PP      PP24012  10.703   5.166  12.928 -0.1049  0.1165  0.0579
13909PP      PP24013  15.823   7.265   3.782  0.0063  0.1235  0.0240
13910PP      PP24014   9.422  12.780   0.290  0.4928 -0.0685  0.0187
13911PP      PP24015   1.927   0.263   0.691 -0.0043  0.1654  0.0279
13912PP      PP24016   2.239  13.458   0.056 -0.2972  0.1999 -0.1687
13913PP      PP24017  15.692   2.914   2.309 -0.2144 -0.0030 -0.1731
13914PP      PP24018  11.516   1.574  11.541 -0.2109 -0.0380  0.3138
13915PP      PP24019  10.151  15.764   3.357  0.1977  0.1306  0.2187
13916PP      PP24020   2.195   5.590   3.869  0.0050 -0.1490  0.1051
13917PP      PP24021  15.301   4.023  11.445  0.1765 -0.0602  0.1604
13918PP      PP24022   3.328   3.840   4.178 -0.1277  0.0554  0.1468
13919PP      PP24023  14.596   5.193   3.194 -0.3314  0.0131  0.1745
13920PP      PP24024  12.427  12.021   5.282 -0.0697  0.0857  0.0301
13921PP      PP24025  13.818   3.936  10.734 -0.1414  0.0625  0.2985
13922PP      PP24026   3.498  14.314   4.390 -0.5334  0.0371  0.0096
13923PP      PP24027   1.623   9.071   8.425  0.2174  0.2151  0.0045
13924PP      PP24028   4.402   2.803  10.594 -0.2514  0.2158 -0.1081
13925PP      PP24029  10.060   4.964   3.294  0.0020  0.0248  0.0600
13926PP      PP24030   5.224  15.652  11.141  0.3032 -0.1561 -0.0722
13927PP      PP24031   0.929   4.721  12.594 -0.0411 -0.1107  0.0155
13928PP      PP24032  15.129   1.938   4.001  0.1281  0.3306  0.0656
13929PP      PP24033   2.078   4.867   1.767  0.0621  0.1602  0.3041
13930PP      PP24034   4.281  15.845  10.005  0.2154 -0.3254  0.0109
13931PP      PP24035  12.796   5.909  11.457 -0.2365 -0.1853 -0.2544
13932PP      PP24036   7.291  14.803   0.190  0.2578 -0.0930 -0.0728
13933PP      PP24037   7.486   2.469   0.687 -0.0437 -0.0251  0.0460
13934PP      PP24038   0.206  14.512   0.981 -0.1820 -0.2834  0.1937
13935PP      PP24039   2.887   6.130   3.583 -0.0580  0.4826 -0.1621
13936PP      PP24040  14.730   4.991   1.914 -0.2472  0.1961 -0.1290
13937PP      PP24041   9.981   9.995   9.412  0.2709 -0.0750 -0.1027
13938PP      PP24042   7.541  13.482   3.929  0.0231  0.1182 -0.1854
13939PP      PP24043   6.428  13.505   2.670 -0.3331 -0.0922 -0.0166
13940PP      PP24044  13.723   4.105  11.651  0.1104  0.0810  0.0097
13941PP      PP24045  12.664   2.169   9.968 -0.1256 -0.3703  0.2205
13942PP      PP24046   0.635   2.070   4.670 -0.1281 -0.1816  0.1625
13943PP      PP24047  12.254  11.167  10.796  0.0955 -0.2266 -0.1299
13944PP      PP24048   4.310   9.219   0.527 -0.0526  0.0509 -0.0339
13945PP      PP24049   4.311   1.518   8.457 -0.0718 -0.0470 -0.2321
13946PP      PP24050   4.052   0.392   4.217  0.0356 -0.0105 -0.1093
13947PP      PP24051  12.220  12.804   3.375 -0.2618  0.3358 -0.1638
13948PP      PP24052  12.116   7.206   3.382 -0.0032  0.2673  0.2171
13949PP      PP24053  11.007  15.782  10.847  0.1075  0.0115 -0.0930
13950PP      PP24054   8.970   3.510  13.350 -0.1155 -0.0710 -0.0751
13951PP      PP24055   1.893  15.461   9.648 -0.0003  0.1839  0.0262
13952PP      PP24056   7.004   9.373   0.744  0.1546 -0.4824  0.0354
13953PP      PP24057   5.090  15.756  10.609  0.1667  0.0352 -0.0446
13954PP      PP24058   5.550  14.512   0.961  0.0093 -0.0782  0.0347
13955PP      PP24059   8.301  10.889   9.933 -0.2089  0.1481  0.1398
13956PP      PP24060  15.600   7.376  12.329 -0.1569  0.1947  0.0905
13957PP      PP24061  12.856   6.895   3.938 -0.2263  0.0517  0.0765
13958PP      PP24062  10.567   0.341  12.004 -0.1661  0.1891  0.1587
13959PP      PP24063   8.292  10.116  10.370  0.1573  0.0499 -0.1147
13960PP      PP24064   6.199   5.447   8.118  0.3556 -0.0364  0.0895
13961PP      PP24065   9.604   7.490   9.782 -0.0445 -0.0836 -0.2140
13962PP      PP24066   6.548   4.085  11.530 -0.1165  0.2177  0.2020
13963PP      PP24067  10.052  13.165  10.487 -0.0873  0.0053  0.3190
13964PP      PP24068  13.859   9.896   2.961  0.3081 -0.1632 -0.0214
13965PP      PP24069  10.844  14.551  10.571  0.4440  0.0465 -0.0606
13966PP      PP24070   7.936   8.130   8.683  0.0780 -0.1555 -0.0462
13967PP      PP24071   3.747  12.467   9.257  0.0163 -0.3370  0.0254
13968PP      PP24072   5.318   6.870   1.691 -0.0318 -0.0757  0.0095
13969PP      PP24073  10.805  10.635  12.041 -0.0932 -0.0211  0.1409
13970PP      PP24074  11.756  14.247   3.461 -0.0236 -0.0080  0.0063
13971PP      PP24075   1.633   0.412  12.817  0.0211  0.0280  0.0820
13972PP      PP24076  11.724   4.140   0.980 -0.0516  0.2367 -0.2688
13973PP      PP24077   5.742   3.637   0.892  0.3691 -0.0145 -0.1597
13974PP      PP24078   8.121   4.081   0.142  0.0183  0.0866 -0.0598
13975PP      PP24079   7.379   5.189   1.976  0.0300  0.1597 -0.3064
13976PP      PP24080   1.710  14.078   8.760 -0.0526 -0.1510  0.1950
13977PP      PP24081  15.719  11.046   0.460 -0.0002 -0.0373 -0.2258
13978PP      PP24082   5.859  14.979   0.122 -0.0783  0.1049 -0.0737
13979PP      PP24083  12.708  10.741   1.814 -0.2521 -0.0487  0.1055
13980PP      PP24084   3.627  14.812   0.750  0.0904 -0.1487 -0.2940
13981PP      PP24085  12.469   3.429   9.473 -0.1697  0.1177 -0.3721
13982PP      PP24086   2.062   3.115   0.509 -0.0967 -0.1774  0.2038
13983PP      PP24087  14.210  11.255   0.315 -0.0758  0.1857  0.2171
13984PP      PP24088  10.360   3.426   9.976 -0.1942  0.0691  0.0040
13985PP      PP24089  13.634  12.235   2.084  0.1624  0.1599  0.0335
13986PP      PP24090   6.369  12.240   2.785  0.0274  0.2976  0.2364
13987PP      PP24091   3.062   0.890   9.661 -0.0029 -0.2269 -0.4109
13988PP      PP24092  14.448   6.561  11.781 -0.0224 -0.1563 -0.1384
13989PP      PP24093  15.593   1.586   9.434  0.0578  0.1979 -0.1780
13990PP      PP24094   2.854   3.230   2.282  0.0808  0.0944  0.1909
13991PP      PP24095   2.730   6.527  12.720 -0.1052  0.0134  0.2514
13992PP      PP24096  12.396   4.188   1.952  0.1735 -0.1379 -0.1253
13993PP      PP24097   3.633   3.521  10.318 -0.3232  0.1268  0.0790
13994PP      PP24098   1.518   9.623  11.101 -0.0774  0.2714 -0.1063
13995PP      PP24099   9.065  14.613   2.746  0.0289 -0.1026  0.1360
13996PP      PP24100  11.574  10.041  12.645  0.2431  0.3235  0.1317
13997PP      PP24101   9.360   4.628   3.679 -0.0475 -0.4515 -0.1268
13998PP      PP24102   9.896   1.083   3.478  0.1328  0.0659  0.2725
13999PP      PP24103   1.688   3.357  11.568  0.0346 -0.2238 -0.1229
14000PP      PP24104  10.928   9.803  13.256 -0.2528  0.0487 -0.0133
14001PP      PP24105   9.916   4.096   4.092  0.0429 -0.2548 -0.3686
14002PP      PP24106  11.984   7.619   3.534  0.0503 -0.0215  0.0060
14003PP      PP24107   9.152  11.046   0.590  0.1036  0.0353 -0.4345
14004PP      PP24108   9.344  11.650  11.897 -0.1924 -0.2164 -0.2110
14005PP      PP24109   7.964   2.527   0.432  0.2190 -0.4009 -0.2077
14006PP      PP24110  15.558  11.702  12.681  0.5013 -0.0913  0.4990
14007PP      PP24111  14.651   9.613  13.125 -0.0378  0.1038  0.1329
14008PP      PP24112  14.800   0.654   2.386  0.1027  0.0530  0.1319
14009PP      PP24113  10.738   3.288   0.206 -0.0631  0.3469 -0.2812
14010PP      PP24114  12.247   6.026  11.675 -0.3417  0.3553 -0.0406
14011PP      PP24115   8.153  11.759   1.546  0.1802  0.0555  0.2713
14012PP      PP24116   3.472  10.351   0.432 -0.2307  0.3062  0.0326
14013PP      PP24117  14.504  14.002  12.767  0.0900 -0.3457  0.3111
14014PP      PP24118   6.621  12.034  11.684 -0.1019  0.2661 -0.0125
14015PP      PP24119  10.660   2.966  10.514  0.1778 -0.1144  0.3788
14016PP      PP24120   4.337  15.078   9.104  0.0888  0.3657  0.1179
14017PP      PP24121   4.794  11.275   9.701  0.2689  0.1120  0.0635
14018PP      PP24122   8.958   3.468   3.186 -0.0516 -0.0297  0.0358
14019PP      PP24123   5.197   3.483  12.999 -0.0567 -0.0625 -0.0715
14020PP      PP24124  13.424   7.881   8.880  0.1954 -0.0105 -0.2154
14021PP      PP24125  11.577   5.796  11.713 -0.2428 -0.0674  0.2912
14022PP      PP24126   2.146   8.645  12.658  0.0415  0.0900  0.1474
14023PP      PP24127   8.423  13.005  11.465 -0.1142  0.1942  0.0850
14024PP      PP24128  14.839  14.144   1.045  0.1559  0.2392  0.0256
14025PP      PP24129  10.371  11.210   2.639  0.6708 -0.3217  0.0265
14026PP      PP24130   3.975   8.491   0.748  0.1215 -0.0912  0.0571
14027PP      PP24131   7.583   6.313  11.141 -0.0291  0.0933 -0.0356
14028PP      PP24132   2.279   2.657   0.452 -0.0726 -0.0316  0.2850
14029PP      PP24133  15.174  14.837  12.687  0.1467 -0.1639  0.2089
14030PP      PP24134   7.256   2.887   3.617  0.0152  0.1627  0.0671
14031PP      PP24135  14.920   2.991   0.494 -0.0981 -0.0494  0.2948
14032PP      PP24136  12.700  12.242   1.841 -0.2713  0.4180  0.1273
14033PP      PP24137   9.195   0.530  12.399 -0.1763  0.3148 -0.0131
14034PP      PP24138   2.700   7.144  11.033 -0.0254 -0.1762  0.1931
14035PP      PP24139   2.610  10.130  11.835 -0.3075 -0.0306 -0.0131
14036PP      PP24140   1.648   5.417   3.119 -0.0024  0.1511  0.0367
14037PP      PP24141  12.671  10.365  12.990  0.0796  0.0914  0.1942
14038PP      PP24142   4.170   0.028   8.682  0.0749  0.0044  0.1021
14039PP      PP24143  12.839   6.554   8.801 -0.0465 -0.0508  0.1438
14040PP      PP24144  10.071   2.151   2.621  0.1910 -0.0968 -0.1595
14041PP      PP24145  13.712   5.634   1.163 -0.0582 -0.1250  0.0220
14042PP      PP24146   8.367   7.355  10.449  0.3706  0.2146 -0.3075
14043PP      PP24147   5.469   0.205   4.127 -0.1113 -0.0220 -0.4458
14044PP      PP24148   7.270   3.850   9.968  0.1780 -0.1112 -0.1174
14045PP      PP24149   9.487   0.671   0.728  0.1194  0.1970  0.1505
14046PP      PP24150   4.546   4.434  12.009  0.0727 -0.0854  0.0610
14047PP      PP24151  13.117   7.283   0.653  0.1733  0.3724  0.2815
14048PP      PP24152   5.346   1.633   9.573  0.0419  0.2586 -0.1015
14049PP      PP24153  14.280   4.554   3.082 -0.0953 -0.2103 -0.3421
14050PP      PP24154  14.137   9.152  12.679  0.4505  0.0119 -0.3827
14051PP      PP24155  12.434   5.348   0.318  0.2242 -0.0722 -0.0416
14052PP      PP24156   8.914  15.779  10.289 -0.2047 -0.0135  0.3002
14053PP      PP24157   3.719   1.749  12.499  0.0534 -0.0080 -0.0197
14054PP      PP24158   4.206   7.734  11.916 -0.4057  0.0025 -0.2738
14055PP      PP24159   1.831   7.606   0.182 -0.0648  0.2748  0.1033
14056PP      PP24160   2.307   6.262   8.561 -0.5062 -0.2835  0.1414
14057PP      PP24161  12.566   2.941  11.356 -0.2785 -0.2813  0.0724
14058PP      PP24162   8.474  14.808   0.148 -0.2790  0.3564  0.1727
14059PP      PP24163   6.094   5.665  13.462 -0.0715  0.0971  0.1663
14060PP      PP24164   1.330  13.772  11.872 -0.1548 -0.1693  0.0662
14061PP      PP24165   4.743   0.437  11.692  0.0894 -0.1371 -0.0353
14062PP      PP24166   0.619   0.365  10.453  0.1020  0.3508  0.2148
14063PP      PP24167   6.346   6.676  10.881  0.0178  0.1028 -0.1192
14064PP      PP24168  13.968   5.563  11.738  0.0627  0.0996  0.0188
14065PP      PP24169   9.299  13.397   8.921 -0.3096  0.3576  0.3216
14066PP      PP24170   2.976   0.411   4.394  0.1344 -0.0900 -0.1667
14067PP      PP24171  13.071   2.123   1.985  0.0982  0.0711 -0.2459
14068PP      PP24172   3.704   6.182   2.383 -0.1936  0.1705 -0.0283
14069PP      PP24173  15.189  11.673   3.234  0.1245 -0.3174 -0.0823
14070PP      PP24174  12.555  15.716   2.532  0.0222 -0.0170  0.1996
14071PP      PP24175   6.795  11.875   9.915  0.1849  0.2921  0.2152
14072PP      PP24176   2.617   5.450   1.024 -0.2098  0.1612  0.0362
14073PP      PP24177  14.578   3.396  10.310  0.1218 -0.1276  0.2646
14074PP      PP24178  15.480  13.344  11.513  0.3299  0.0015  0.0920
14075PP      PP24179   0.365  15.627  13.276 -0.2423 -0.0180  0.0417
14076PP      PP24180  12.140   4.089   9.827 -0.0492 -0.3028  0.1349
14077PP      PP24181   3.761  11.511  12.648  0.2120  0.1031  0.1755
14078PP      PP24182  10.974   9.252   8.221 -0.0648  0.0484 -0.0497
14079PP      PP24183  13.405   4.544   0.473  0.2297  0.3755 -0.3658
14080PP      PP24184   4.244   1.770   4.261 -0.1340 -0.0622 -0.1828
14081PP      PP24185   1.562   7.394   2.003 -0.2468  0.1559  0.1516
14082PP      PP24186   3.532   2.442   2.976 -0.1377 -0.2657 -0.0296
14083PP      PP24187   4.818   3.101   1.919 -0.1941  0.0513 -0.1080
14084PP      PP24188  13.563  13.871   1.702  0.0164 -0.0355 -0.3056
14085PP      PP24189   4.742   7.261   3.059 -0.0531  0.2740  0.2945
14086PP      PP24190   8.289   8.104  11.112  0.1218 -0.0468 -0.0673
14087PP      PP24191   9.689   1.523   1.926  0.0490  0.2276  0.0512
14088PP      PP24192  15.317   9.586  10.308  0.2522 -0.1057 -0.4717
14089PP      PP24193  11.703   3.205   9.696  0.2480  0.1379 -0.0009
14090PP      PP24194   8.020   2.867  10.908  0.2663 -0.0037 -0.1121
14091PP      PP24195  10.985   7.430  10.370  0.2200  0.0095 -0.2072
14092PP      PP24196  12.876   1.931   1.460 -0.0685 -0.0111 -0.1279
14093PP      PP24197  13.096   3.994  12.810  0.0306 -0.0570  0.2055
14094PP      PP24198   8.348  11.269   3.169  0.1435 -0.1673 -0.1993
14095PP      PP24199  13.022   6.024   9.456 -0.2059  0.0277 -0.4749
14096PP      PP24200   3.887   3.982   2.502 -0.4227  0.2017 -0.1243
14097PP      PP24201  14.823   5.821   3.753  0.3587  0.1143  0.3292
14098PP      PP24202  10.866   1.636   4.146 -0.0709 -0.0839 -0.0311
14099PP      PP24203  15.343  14.171   1.786 -0.3907  0.0511  0.2436
14100PP      PP24204  14.937   1.703   1.763  0.2882  0.1269 -0.0353
14101PP      PP24205  13.589   4.765   3.483  0.0621  0.0558  0.0888
14102PP      PP24206  10.696  10.224  13.157 -0.0395 -0.2182  0.1970
14103PP      PP24207   9.078   8.915   1.336 -0.0320  0.0328  0.0699
14104PP      PP24208   9.682  10.910   3.453 -0.0049 -0.3024 -0.3742
14105PP      PP24209  11.351  11.749  11.973 -0.0803  0.2787  0.3292
14106PP      PP24210   7.329  15.404   0.690  0.1108  0.1933 -0.1903
14107PP      PP24211   7.149   1.057   3.741 -0.1952 -0.0436 -0.0392
14108PP      PP24212  13.356   8.597   2.832  0.1127 -0.0869  0.1317
14109PP      PP24213   0.086   3.495   1.886 -0.0472 -0.0797 -0.0400
14110PP      PP24214   3.718  10.657  10.005  0.0526  0.0660  0.1004
14111PP      PP24215  14.089  14.079  13.078 -0.0623 -0.2696 -0.3525
14112PP      PP24216  13.360   7.719   3.184 -0.0067 -0.0083 -0.1683
14113PP      PP24217   4.664  10.291  12.191  0.0512  0.1478 -0.1492
14114PP      PP24218  15.313   5.637   1.670  0.1877  0.1889  0.1948
14115PP      PP24219  10.484   7.924  12.695 -0.3516 -0.1323  0.1870
14116PP      PP24220  11.246   3.016   2.045 -0.3611 -0.0929  0.3417
14117PP      PP24221  11.175   3.921  11.224 -0.3753 -0.0718  0.2077
14118PP      PP24222   8.832   4.492  11.601 -0.0500 -0.0755 -0.6325
14119PP      PP24223  14.552  15.447   4.489 -0.0262  0.3436 -0.0432
14120PP      PP24224  13.904   2.693  10.073  0.2052 -0.0139 -0.0740
14121PP      PP24225   8.624   6.427   9.086 -0.1397 -0.4333 -0.1477
14122PP      PP24226   9.447  15.486   8.023  0.0312  0.1961 -0.1219
14123PP      PP24227  13.254  10.688   2.992  0.0805 -0.0612 -0.0131
14124PP      PP24228  10.565  15.609  11.186 -0.1324  0.0478  0.1172
14125PP      PP24229   4.926  15.061  12.301  0.2660 -0.1985  0.0358
14126PP      PP24230  10.523   0.203   2.189 -0.1378  0.1180 -0.3535
14127PP      PP24231   5.239   7.701  10.172  0.1218  0.0342  0.0791
14128PP      PP24232   7.379   7.386   1.127  0.3197  0.0892  0.1650
14129PP      PP24233  10.098   8.669  10.448 -0.2793  0.0509 -0.2138
14130PP      PP24234   7.067   8.587   1.328 -0.1260 -0.2761  0.3236
14131PP      PP24235   3.281   7.823  12.869  0.2138  0.1619  0.2130
14132PP      PP24236   4.962   0.040  11.448  0.0022 -0.3207  0.0690
14133PP      PP24237   1.496  15.238  13.306  0.0980 -0.1925  0.0163
14134PP      PP24238   8.736  15.033   2.502  0.0125  0.3859  0.2780
14135PP      PP24239   1.182  11.021  10.429  0.0832  0.2926  0.0851
14136PP      PP24240   4.230   9.979   0.908  0.3091 -0.0909  0.5012
14137PP      PP24241   3.990  12.758  11.958 -0.2293  0.1356  0.1041
14138PP      PP24242  14.774   7.610  12.893  0.1070 -0.2416  0.1128
14139PP      PP24243   3.725   0.642   4.583  0.1146  0.3959  0.1163
14140PP      PP24244  10.192  10.558  11.544  0.1126 -0.1325  0.0316
14141PP      PP24245   4.622  14.066   9.361 -0.2516  0.0736 -0.1378
14142PP      PP24246   5.947   3.510   3.351  0.0549  0.2737 -0.4557
14143PP      PP24247  12.511   2.723  13.524 -0.1515 -0.2335 -0.0684
14144PP      PP24248  10.803   5.677   9.421 -0.1114  0.2698  0.0077
14145PP      PP24249   8.638  12.665   0.764  0.1554  0.2553 -0.1355
14146PP      PP24250   1.276  14.470   2.125 -0.1696 -0.1555 -0.0212
14147PP      PP24251   6.949   6.416  12.431  0.2440 -0.2995  0.0926
14148PP      PP24252   0.779  12.259   1.350 -0.1041  0.1888 -0.2709
14149PP      PP24253  13.476   9.337  13.206 -0.1520 -0.1333 -0.0756
14150PP      PP24254  15.367  15.198   0.649  0.0705  0.0838 -0.2567
14151PP      PP24255   0.648  12.629   9.510  0.1129 -0.1449  0.0432
14152PP      PP24256   2.485   9.824  13.154  0.2369 -0.3171  0.2057
14153PP      PP24257  11.201   1.131  11.021  0.2853 -0.1226  0.0473
14154PP      PP24258   0.862  15.757   3.531  0.1951 -0.1501  0.1297
14155PP      PP24259   2.204   1.914   1.396  0.2258 -0.2709  0.0074
14156PP      PP24260  10.087   8.270   3.370 -0.0283 -0.0648 -0.6358
14157PP      PP24261  13.667   5.714   2.634 -0.0849  0.0448 -0.0597
14158PP      PP24262   2.599   8.158   0.459  0.1324 -0.0044  0.1080
14159PP      PP24263  13.443  11.467   1.845 -0.0213 -0.0264  0.2301
14160PP      PP24264   7.207   7.667   1.584  0.2041  0.2792  0.2418
14161PP      PP24265  12.984   4.403   3.483  0.0862  0.2359 -0.0777
14162PP      PP24266   0.484   0.066   1.085 -0.3219  0.1339 -0.1997
14163PP      PP24267   5.633  15.025   3.905  0.2504 -0.3421 -0.2777
14164PP      PP24268   3.350   3.034   3.762 -0.1933 -0.0477 -0.5132
14165PP      PP24269  13.383   5.741   9.206 -0.2876  0.0354 -0.0436
14166PP      PP24270  11.103   8.097   2.087  0.0439  0.0735  0.0859
14167PP      PP24271   2.403  12.582  10.460  0.4419 -0.4335 -0.1018
14168PP      PP24272   9.811   1.481   0.236  0.2908 -0.0496  0.2334
14169PP      PP24273  12.230   5.187   1.926 -0.1438 -0.0503  0.0143
14170PP      PP24274   1.826   6.817   2.843 -0.1379 -0.4104 -0.0356
14171PP      PP24275   7.987   8.801  11.020 -0.2512  0.1829 -0.0594
14172PP      PP24276   6.145  14.525   4.631  0.1601  0.1516 -0.2277
14173PP      PP24277  10.731   3.897  10.026 -0.2878  0.2106 -0.1520
14174PP      PP24278   6.907   7.453  13.478 -0.1743  0.0504 -0.0024
14175PP      PP24279   0.915   7.722  11.150  0.0407  0.2056  0.5286
14176PP      PP24280   1.406   7.508  11.164 -0.4735 -0.1850 -0.1086
14177PP      PP24281   1.665   4.291   8.471 -0.1499  0.1439  0.0279
14178PP      PP24282   1.366   2.496   3.934 -0.2345  0.0247  0.1706
14179PP      PP24283  13.234  10.287   9.761  0.2179  0.3951 -0.0708
14180PP      PP24284   5.192   9.289  12.528 -0.1018 -0.2028  0.0266
14181PP      PP24285  10.222   9.769   1.119 -0.0463 -0.1429 -0.1483
14182PP      PP24286   6.653   6.234  10.808  0.0880 -0.0079 -0.2145
14183PP      PP24287  15.621   8.855   0.376 -0.1710  0.3887  0.1114
14184PP      PP24288   7.593   5.729   9.853  0.2272  0.1709 -0.1447
14185PP      PP24289   2.212   5.261  11.818  0.0718  0.2938 -0.1659
14186PP      PP24290   3.298   5.946   1.559  0.0270  0.0874  0.1666
14187PP      PP24291  13.281   0.145  11.856 -0.1131 -0.0587 -0.1115
14188PP      PP24292  12.452  13.141   4.110 -0.0679 -0.0112  0.3210
14189PP      PP24293  13.112   2.688   1.934  0.1095 -0.0584  0.3308
14190PP      PP24294  11.982   7.693   1.235  0.0630 -0.2924 -0.0424
14191PP      PP24295  11.187  14.527  12.157 -0.0604 -0.3116 -0.0299
14192PP      PP24296   5.067   5.198   9.256  0.0235  0.0116  0.1111
14193PP      PP24297   6.776   6.269  13.052  0.0327 -0.2179 -0.2431
14194PP      PP24298   2.123   8.662   2.554  0.0376 -0.0487 -0.2778
14195PP      PP24299   1.259  13.967   3.210 -0.0542 -0.1127  0.0002
14196PP      PP24300   3.384  12.297  10.103  0.2712 -0.1856 -0.0430
14197PP      PP24301  10.896   9.362   0.616 -0.0590 -0.0248  0.0397
14198PP      PP24302  15.677  13.188   3.888  0.1726 -0.1533 -0.0679
14199PP      PP24303   0.501  14.939   4.827 -0.0809 -0.0930 -0.2196
14200PP      PP24304  15.243  12.676   9.865 -0.0277 -0.3623  0.0514
14201PP      PP24305   3.717   6.466  12.646 -0.0963  0.1138 -0.3505
14202PP      PP24306   7.958  14.600   4.081  0.0833  0.0377 -0.0361
14203PP      PP24307  14.509   9.526   1.460  0.0304  0.0631 -0.1495
14204PP      PP24308   9.973  15.194  10.998 -0.0742 -0.1714 -0.0774
14205PP      PP24309   0.510   9.272  13.383 -0.1618 -0.1005 -0.1159
14206PP      PP24310   8.251   0.776   9.431  0.1601  0.2458  0.1606
14207PP      PP24311   5.753   0.078   9.453  0.2763  0.3024 -0.2207
14208PP      PP24312  15.093  13.523  10.452  0.0581 -0.0668  0.1645
14209PP      PP24313   5.378  13.174  12.125  0.1240 -0.2145 -0.3029
14210PP      PP24314   6.049   3.564  11.772  0.2930  0.0298  0.2715
14211PP      PP24315   7.832  10.605  12.989 -0.0940 -0.0515  0.2859
14212PP      PP24316  12.655   0.925   2.555  0.3350  0.0711  0.0730
14213PP      PP24317   4.959   9.503   1.101 -0.3134 -0.1232 -0.4349
14214PP      PP24318  10.021  10.814   9.675  0.0458  0.3981 -0.0135
14215PP      PP24319   5.244   4.968   9.673  0.1954  0.0570 -0.0951
14216PP      PP24320   8.939  15.369  13.066 -0.0047  0.0582  0.0317
14217PP      PP24321   8.615   8.174   2.366  0.0737 -0.2386  0.1277
14218PP      PP24322  12.411   4.655   0.492 -0.0759  0.0316  0.0443
14219PP      PP24323  10.814  14.668   9.400 -0.0906 -0.0494  0.0036
14220PP      PP24324  15.696   9.980   9.276  0.0100 -0.4036 -0.1379
14221PP      PP24325  11.759  15.136   1.000 -0.4068 -0.0803 -0.0211
14222PP      PP24326   7.180   4.727  12.383  0.3247  0.1092 -0.1177
14223PP      PP24327  11.887  15.370   3.338  0.4022 -0.0491  0.1603
14224PP      PP24328  15.285  12.911   4.010 -0.3082 -0.0945 -0.2343
14225PP      PP24329  13.459  15.471   9.978 -0.2309 -0.0503  0.0355
14226PP      PP24330   1.928  11.020  13.321 -0.0750  0.0064  0.1799
14227PP      PP24331   1.326   8.442  10.771 -0.0862 -0.2781  0.1477
14228PP      PP24332  13.900   9.684   0.833 -0.1558  0.2492 -0.0411
14229PP      PP24333   8.829   3.113  12.269 -0.1755  0.2029 -0.1464
14230PP      PP24334   4.946   5.039   2.484  0.2837 -0.1003 -0.1477
14231PP      PP24335  13.008   3.240  11.307  0.1969 -0.1726 -0.0745
14232PP      PP24336   4.571  13.642  11.705  0.3107  0.1936 -0.2356
14233PP      PP24337   2.695   5.300   3.437 -0.1724 -0.2577  0.0380
14234PP      PP24338  13.824  10.663   0.968 -0.5299  0.0395 -0.1028
14235PP      PP24339  15.231  12.716  10.650 -0.0290  0.0942  0.2821
14236PP      PP24340   4.290   9.215   9.489  0.3865 -0.0664  0.1198
14237PP      PP24341   2.813  15.340   1.713  0.1511  0.1919 -0.0161
14238PP      PP24342   7.050   8.938  10.895 -0.1438 -0.1154  0.0632
14239PP      PP24343   6.056  13.610   4.666 -0.0923  0.1337  0.0496
14240PP      PP24344   2.490   6.431   9.405 -0.0065 -0.2154 -0.1927
14241PP      PP24345   8.473   9.917   2.924 -0.0031  0.1506 -0.2546
14242PP      PP24346   9.748   2.927   3.186 -0.2020  0.2666 -0.0583
14243PP      PP24347  12.683   8.884   9.514 -0.1481  0.1173 -0.1793
14244PP      PP24348   1.869   1.332   4.618 -0.0991 -0.0187 -0.1782
14245PP      PP24349   2.270   5.057  12.879  0.2833 -0.0708 -0.2776
14246PP      PP24350   9.721   3.448  13.208 -0.0737  0.0081  0.0307
14247PP      PP24351  11.342  12.558   0.933 -0.0230  0.1214  0.0715
14248PP      PP24352   6.279  12.546  10.207  0.0158 -0.0884 -0.3017
14249PP      PP24353  10.264   7.842   0.770 -0.0659 -0.0325  0.0515
14250PP      PP24354   1.706  15.328   1.716 -0.1338 -0.0268 -0.1120
14251PP      PP24355  15.315   6.717   2.158 -0.0703 -0.0752  0.2237
14252PP      PP24356   3.027  15.552  12.540  0.1311  0.1682  0.0730
14253PP      PP24357   8.102  10.835   3.346 -0.3791 -0.0149 -0.0026
14254PP      PP24358   0.276   6.271   1.125 -0.1357 -0.3264  0.2182
14255PP      PP24359   1.544   2.826  11.760 -0.0691  0.1491  0.1240
14256PP      PP24360  12.771   1.652   2.163  0.1695 -0.3772 -0.0304
14257PP      PP24361  14.126   0.985  13.064 -0.0686  0.4423  0.1292
14258PP      PP24362   7.011   9.574   9.580 -0.4356 -0.0040  0.1181
14259PP      PP24363   6.629  14.757  11.213 -0.0410 -0.0403 -0.1182
14260PP      PP24364  11.028   4.036   4.155 -0.2482 -0.0089  0.1830
14261PP      PP24365   5.596   9.076  12.238  0.3172 -0.0091  0.0931
14262PP      PP24366   1.476   5.515   8.417  0.1810  0.1978  0.0223
14263PP      PP24367   6.793  10.550  10.346 -0.0056  0.0367 -0.1152
14264PP      PP24368   6.162   2.347  12.608  0.0639 -0.0693  0.2680
14265PP      PP24369   2.709   3.326  12.620 -0.1713 -0.2398 -0.0170
14266PP      PP24370   9.552   5.673   4.371 -0.0109 -0.2390  0.4008
14267PP      PP24371   7.245   3.635   0.569 -0.2141 -0.1980  0.1963
14268PP      PP24372   2.857  13.353   2.264 -0.0772  0.0078  0.1047
14269PP      PP24373  15.545   9.324   2.817 -0.1133 -0.1562 -0.1460
14270PP      PP24374  13.623  11.103   9.901  0.0957 -0.1620 -0.0405
14271PP      PP24375   0.399   0.280  11.378  0.0685  0.1506  0.0643
14272PP      PP24376   7.768  12.110   1.583  0.0818 -0.3890 -0.4531
14273PP      PP24377   5.847   5.593   1.703  0.0182 -0.1049  0.1705
14274PP      PP24378  10.703  13.459  13.454  0.0094  0.0932 -0.2815
14275PP      PP24379   0.039   3.268  10.563  0.1172 -0.1451 -0.0368
14276PP      PP24380   9.708   1.499   1.435 -0.1500 -0.1449 -0.4033
14277PP      PP24381  13.726  15.685   9.153 -0.0612 -0.2370 -0.0277
14278PP      PP24382   3.197   4.241   3.914 -0.0061  0.3077 -0.3518
14279PP      PP24383  13.943   9.923  11.978  0.0182  0.1701  0.1199
14280PP      PP24384   0.612   9.611   2.371  0.1730 -0.1320 -0.0068
14281PP      PP24385  10.929   3.204  11.312 -0.1193  0.0936 -0.1439
14282PP      PP24386   5.201   8.031   9.669  0.0868 -0.0555  0.0607
14283PP      PP24387   4.744  11.340   2.178  0.1199 -0.1343 -0.0012
14284PP      PP24388   3.820   3.938  11.295  0.2246  0.2432  0.1373
14285PP      PP24389  15.283  15.634  11.361  0.2911  0.1231 -0.0757
14286PP      PP24390  14.174   5.685   3.115 -0.1228  0.1742  0.2280
14287PP      PP24391   3.934   2.892   2.752  0.0718  0.0206 -0.0326
14288PP      PP24392  12.967   7.082  10.584 -0.1247  0.2731 -0.1582
14289PP      PP24393  15.731  10.232   9.713  0.0135 -0.0490 -0.0768
14290PP      PP24394   0.468   6.467   9.515  0.0080  0.2194 -0.1226
14291PP      PP24395   9.442  14.678  13.436 -0.4844 -0.0215  0.1615
14292PP      PP24396  12.327   1.278   2.257  0.2260 -0.1866  0.4735
14293PP      PP24397  10.334   5.413  10.421  0.0991  0.4100 -0.0400
14294PP      PP24398  12.464  13.865  13.509 -0.0721  0.0258 -0.3328
14295PP      PP24399  10.975   4.902  10.949  0.1024  0.1498 -0.0686
14296PP      PP24400   6.091  14.890   8.781 -0.1632  0.1301  0.1741
14297PP      PP24401  14.365   7.068  11.990 -0.0747  0.1153 -0.0037
14298PP      PP24402   5.658   2.854   2.885 -0.2547 -0.0016  0.3078
14299PP      PP24403   8.366   4.049   4.389  0.2805  0.1207 -0.1113
14300PP      PP24404   7.377   5.712   3.448  0.2791  0.0648  0.2350
14301PP      PP24405   9.768  15.075   1.702  0.0556 -0.1371  0.1183
14302PP      PP24406  11.419  10.807  11.134  0.0150 -0.1980 -0.3539
14303PP      PP24407   2.921  15.696   8.995  0.0982 -0.0070  0.2348
14304PP      PP24408   1.929  14.042   0.515 -0.2047 -0.1652 -0.1776
14305PP      PP24409  12.682  10.425   4.381 -0.3006 -0.1684 -0.1120
14306PP      PP24410   9.383  13.664  12.412 -0.1418  0.0028  0.5803
14307PP      PP24411   1.684  13.360  11.698  0.1983 -0.1199 -0.1408
14308PP      PP24412   5.948  10.939   1.868 -0.1602 -0.1331 -0.2949
14309PP      PP24413   6.247  11.977   1.018  0.0725 -0.1188 -0.0091
14310PP      PP24414   1.899   6.377   0.788 -0.3695  0.2615 -0.1619
14311PP      PP24415   5.734  13.012  13.477 -0.1471 -0.0038  0.1069
14312PP      PP24416  10.096  15.407  12.401 -0.0177 -0.1191  0.3149
14313PP      PP24417   0.296   7.298  12.515 -0.2309 -0.0507  0.0365
14314PP      PP24418   9.738  15.075  13.247  0.0069 -0.2095  0.0351
14315PP      PP24419   2.307   3.576   2.339 -0.1294  0.1005  0.2162
14316PP      PP24420   4.341   0.180  10.839  0.0286  0.0222  0.1079
14317PP      PP24421   7.650  12.043   4.341 -0.2369  0.1530 -0.4875
14318PP      PP24422   3.727  10.303   1.682  0.2411 -0.1529 -0.1470
14319PP      PP24423  12.761  14.553   1.885  0.1878  0.1494 -0.0654
14320PP      PP24424  13.346   4.509   3.795  0.0496 -0.1511  0.0208
14321PP      PP24425   7.218   4.388  10.047 -0.1911 -0.1362 -0.2156
14322PP      PP24426   9.422  14.027  10.189  0.2603  0.2549 -0.3468
14323PP      PP24427  13.273  15.839  12.847 -0.0607  0.1744 -0.0949
14324PP      PP24428  14.152   1.992   9.676 -0.2290 -0.0933 -0.0556
14325PP      PP24429  11.695   6.060   9.860  0.3165  0.1477 -0.0517
14326PP      PP24430   4.402  13.892   4.451 -0.1838 -0.0017 -0.1340
14327PP      PP24431   6.927  11.098  11.585  0.0524 -0.0421 -0.1533
14328PP      PP24432   9.521   3.303   2.647 -0.0787  0.1181  0.2210
14329PP      PP24433   0.637   5.587   2.760  0.1155  0.0052  0.0710
14330PP      PP24434   5.508  11.057  10.475 -0.0189 -0.0008  0.2450
14331PP      PP24435  14.747   8.430   8.388  0.0010  0.1206 -0.2176
14332PP      PP24436   7.919   6.914  12.254  0.0327  0.3870  0.0842
14333PP      PP24437   1.554  15.745   3.222 -0.1757 -0.4137  0.0361
14334PP      PP24438   9.529  13.930  10.734 -0.1664  0.1918  0.0573
14335PP      PP24439   5.119   8.218  12.265 -0.0951  0.1038  0.1632
14336PP      PP24440   7.360  10.090  13.225 -0.0213 -0.0269 -0.0891
14337PP      PP24441   3.672  10.756   4.494  0.1769 -0.0058  0.3694
14338PP      PP24442   4.089  15.550  10.999 -0.0674 -0.0026  0.0038
14339PP      PP24443   6.372  15.153   3.655  0.1718  0.2932 -0.3170
14340PP      PP24444   1.031  12.583  10.352  0.1453 -0.1177 -0.0471
14341PP      PP24445  15.495   6.571  13.135 -0.2126 -0.1423  0.1174
14342PP      PP24446   3.868   3.067   3.747 -0.2027  0.0678 -0.0967
14343PP      PP24447  14.094  14.003   1.028  0.1358 -0.0831 -0.0067
14344PP      PP24448   0.541   1.305  11.404  0.0193 -0.3135  0.1079
14345PP      PP24449  11.000   5.946   9.029 -0.1276  0.3141  0.0450
14346PP      PP24450   6.537   8.441   2.738 -0.1378  0.1936  0.0793
14347PP      PP24451   2.648   0.324   4.067 -0.0260  0.0032 -0.1861
14348PP      PP24452  10.806  11.655   0.343  0.1489 -0.1309  0.1079
14349PP      PP24453  12.076  15.831  12.347  0.0273  0.0794  0.1768
14350PP      PP24454   7.112  11.978   3.478 -0.1527 -0.0385 -0.0022
14351PP      PP24455  15.555   3.130   1.834  0.0998  0.2409 -0.2833
14352PP      PP24456   0.407   6.149  11.306  0.0559  0.2975  0.1622
14353PP      PP24457   8.592   0.163   1.011 -0.0807 -0.0914  0.2295
14354PP      PP24458  15.270  13.935   0.659 -0.4390  0.2278 -0.0319
14355PP      PP24459  15.161   1.383   4.117  0.2446  0.0907 -0.0472
14356PP      PP24460   5.997  15.434  12.621  0.0113  0.0232 -0.0223
14357PP      PP24461  12.316   1.153   4.366  0.1997  0.1322 -0.1657
14358PP      PP24462   9.685  15.627   2.161  0.2502  0.0737 -0.2307
14359PP      PP24463   0.639  11.274  10.417 -0.1170  0.0038  0.1699
14360PP      PP24464  12.348   1.551   4.794 -0.2357 -0.0388 -0.1209
14361PP      PP24465   1.153  13.645  10.075 -0.1611 -0.1036  0.1438
14362PP      PP24466  11.114   5.432   9.747 -0.0581  0.1022  0.0460
14363PP      PP24467  12.086   3.602   9.208  0.0986  0.2008  0.0949
14364PP      PP24468   8.828   6.231  11.771 -0.1563  0.1127  0.2026
14365PP      PP24469   3.998   1.375  11.675 -0.1405  0.0576  0.3919
14366PP      PP24470  11.553   6.065   2.189 -0.1694  0.1917  0.1306
14367PP      PP24471   0.907   4.879  13.396  0.1645  0.0544  0.0590
14368PP      PP24472  15.538   4.758   2.890  0.2514  0.2315 -0.1258
14369PP      PP24473  11.284   1.560   4.984  0.0022  0.1111 -0.3503
14370PP      PP24474   8.492  13.422   4.090 -0.2245  0.0949 -0.1342
14371PP      PP24475   8.336  14.266   1.839  0.1358  0.1518  0.0437
14372PP      PP24476   4.255  11.936  12.414  0.1973 -0.0006  0.1451
14373PP      PP24477   0.088  11.954   0.845  0.0450  0.1491 -0.2746
14374PP      PP24478  13.575   6.033  13.408  0.1932 -0.0608  0.2357
14375PP      PP24479   5.906  12.319   3.061  0.0083 -0.1553 -0.3768
14376PP      PP24480   1.037  10.094  12.340 -0.1570  0.1357  0.1601
14377PP      PP24481   9.036   8.898  12.542 -0.0833 -0.0313  0.0726
14378PP      PP24482  10.029   0.808   2.927 -0.2020  0.0210  0.1732
14379PP      PP24483   2.532  10.481  10.109 -0.2645 -0.0279 -0.1217
14380PP      PP24484  11.332   8.923   0.998  0.2040 -0.0363  0.1483
14381PP      PP24485  11.942  14.617   3.610 -0.0630  0.1078 -0.3230
14382PP      PP24486   9.403  10.716   0.949  0.0952  0.1426  0.1027
14383PP      PP24487   9.054   6.671  11.164  0.1805 -0.2303 -0.0944
14384PP      PP24488   8.168   5.723   2.539  0.0597 -0.1617 -0.3358
14385PP      PP24489  10.682   7.275   0.877  0.0563  0.2736 -0.2514
14386PP      PP24490   6.865   0.708   4.570  0.1861  0.1438  0.2842
14387PP      PP24491   1.608   6.445   3.273 -0.1689 -0.1913  0.1537
14388PP      PP24492   3.350  14.596  10.486  0.1747 -0.0577  0.1939
14389PP      PP24493  10.670   3.938   0.337 -0.1596  0.2489 -0.1120
14390PP      PP24494   1.424  15.262   9.575 -0.2289 -0.0384 -0.1664
14391PP      PP24495   5.891   2.620   0.055  0.0771  0.1254 -0.0398
14392PP      PP24496  12.113   1.881   0.257  0.1232 -0.0091 -0.1950
14393PP      PP24497  15.777   5.106   3.188 -0.1186  0.2329 -0.1714
14394PP      PP24498   7.404  10.842  10.264  0.0741 -0.1562 -0.1626
14395PP      PP24499   3.303   0.767   0.604 -0.1610 -0.1999  0.2853
14396PP      PP24500   5.031  15.187  11.323 -0.3898  0.1585 -0.0344
14397PP      PP24501   6.991   6.137   8.659 -0.2696  0.1091 -0.1886
14398PP      PP24502  10.057   7.345   8.842 -0.1283 -0.4093 -0.1257
14399PP      PP24503  13.156  10.639  10.499 -0.2393 -0.2369 -0.2158
14400PP      PP24504  10.660  14.074   9.179  0.2228  0.1978 -0.1118
14401PP      PP24505   7.108   9.214  12.901  0.0769 -0.2075  0.1169
14402PP      PP24506  14.373  15.438   9.020  0.0104  0.2902  0.2038
14403PP      PP24507   3.955  10.404  12.863  0.0330  0.0769 -0.0981
14404PP      PP24508  13.837   6.778  12.223 -0.0014 -0.0421 -0.0186
14405PP      PP24509  11.719   1.488   3.852 -0.1907  0.5262 -0.0109
14406PP      PP24510   7.800  14.404  10.633  0.0226 -0.0552  0.1377
14407PP      PP24511   3.611  15.801   0.986 -0.3541 -0.0457 -0.0426
14408PP      PP24512   2.598   2.330  10.337 -0.0706 -0.0954 -0.3759
14409PP      PP24513  15.479  12.906   9.422  0.3545 -0.0974  0.1891
14410PP      PP24514   1.241  10.875   3.474 -0.1907  0.0039 -0.2650
14411PP      PP24515  10.126  11.620   2.843  0.1947 -0.0738  0.1351
14412PP      PP24516  14.964   8.077   7.528  0.0384  0.0497 -0.2809
14413PP      PP24517  10.984   6.603   1.843  0.2338 -0.1952 -0.0351
14414PP      PP24518  13.618   1.746   0.830  0.1249  0.1864 -0.0732
14415PP      PP24519   8.293   7.776  11.866 -0.1903 -0.1602 -0.1265
14416PP      PP24520   1.246  12.915  10.066 -0.3720 -0.1446  0.3032
14417PP      PP24521   3.258   0.885  11.558  0.1228  0.1680  0.0927
14418PP      PP24522  11.296  11.629   3.305  0.3292 -0.2522 -0.1546
14419PP      PP24523  12.257   3.879   2.551 -0.1097  0.2700  0.0394
14420PP      PP24524   5.699  14.845   1.779  0.0437  0.0724 -0.1351
14421PP      PP24525   4.361   1.805   3.064 -0.1114  0.1681 -0.1400
14422PP      PP24526   0.846   3.013  12.684  0.0310  0.0961 -0.0843
14423PP      PP24527   3.726   8.369   1.875  0.0777  0.2756  0.0781
14424PP      PP24528   8.957  10.704  10.793  0.0903 -0.1632  0.2194
14425PP      PP24529   4.777  14.153   4.643 -0.0530  0.0489 -0.1986
14426PP      PP24530  14.273   4.870   0.722  0.1026  0.1592  0.1221
14427PP      PP24531  11.499  10.828   9.673  0.1637  0.0462  0.1337
14428PP      PP24532  11.685   6.174   0.467  0.0385 -0.2972  0.0335
14429PP      PP24533   9.799   3.954  13.152  0.1664  0.1848 -0.0922
14430PP      PP24534   5.563   8.785  11.619  0.1489 -0.2161  0.1683
14431PP      PP24535   7.034  13.793  10.744  0.2844  0.0639 -0.0923
14432PP      PP24536   5.027   2.328   9.985  0.2759  0.1766 -0.0949
14433PP      PP24537   2.114  14.563  12.854  0.3506 -0.1020  0.0153
14434PP      PP24538  11.489   8.551   2.363  0.0150 -0.0567 -0.1154
14435PP      PP24539  11.867   3.193   1.332 -0.2004  0.1049  0.0194
14436PP      PP24540   9.716   4.823  12.534 -0.2205  0.7160  0.2191
14437PP      PP24541  13.981  11.979   0.941  0.3261 -0.0854 -0.1049
14438PP      PP24542   9.953  14.729  10.871 -0.1997  0.1328 -0.0470
14439PP      PP24543   6.397   2.884   1.024 -0.0081 -0.2220  0.1584
14440PP      PP24544   3.083   9.155   3.413  0.1305 -0.1874  0.0520
14441PP      PP24545   9.512   2.703   4.214 -0.1275  0.1367  0.1435
14442PP      PP24546   3.601   0.866  12.470  0.4415 -0.3692 -0.2056
14443PP      PP24547  13.958  12.556   8.841 -0.1599  0.2299 -0.2578
14444PP      PP24548   4.918   3.122   2.903 -0.1302 -0.0825 -0.1173
14445PP      PP24549  14.475   7.440   0.626 -0.1241  0.2701 -0.2837
14446PP      PP24550  13.585   1.558   3.962  0.0656  0.2014 -0.1359
14447PP      PP24551   3.020   2.756   2.357  0.2279  0.0823  0.2202
14448PP      PP24552  15.230   4.803   2.030 -0.2106 -0.2332  0.0834
14449PP      PP24553   4.466   4.890   2.265  0.0914  0.1450  0.0094
14450PP      PP24554  15.024  12.290   2.087  0.0308 -0.0416 -0.4298
14451PP      PP24555   7.802   4.614   0.183 -0.0015 -0.0238 -0.1652
14452PP      PP24556  11.406  13.379  13.157 -0.0037  0.1439 -0.1261
14453PP      PP24557  10.365   6.710  11.347  0.1805 -0.2497 -0.1231
14454PP      PP24558   5.937   5.635   1.236 -0.0837 -0.2802  0.0486
14455PP      PP24559  10.076   6.124   9.400  0.1423 -0.1755 -0.1774
14456PP      PP24560  13.335  12.857   1.243  0.1726  0.1519 -0.1594
14457PP      PP24561   8.346   9.419   1.885 -0.3070 -0.1745  0.1392
14458PP      PP24562   4.580  14.642   0.576  0.1326  0.0334  0.0399
14459PP      PP24563   4.560  10.214  11.074  0.2082  0.4334 -0.0872
14460PP      PP24564   2.632  10.008   3.068  0.1982  0.2777  0.0077
14461PP      PP24565   7.753   6.848   3.185  0.0442 -0.0024  0.1870
14462PP      PP24566   8.905   3.060   0.130  0.1924 -0.0360  0.2440
14463PP      PP24567   5.795  14.140   9.939  0.1093  0.1277  0.0404
14464PP      PP24568  13.741   6.973   8.818 -0.0709  0.1763 -0.1106
14465PP      PP24569   8.258  12.089   2.431 -0.1201 -0.0265 -0.0774
14466PP      PP24570  12.752  14.430   2.747  0.2847 -0.1590 -0.0527
14467PP      PP24571  10.150  13.006   0.649  0.2142 -0.0970  0.3942
14468PP      PP24572   2.351   2.237  11.182 -0.0034  0.3802  0.1989
14469PP      PP24573   0.038  13.054  12.140  0.2090  0.0952 -0.1392
14470PP      PP24574   0.930   6.270   2.095  0.0490  0.2502  0.1830
14471PP      PP24575  14.206  13.703  11.801  0.0838 -0.0412  0.1059
14472PP      PP24576  14.131  12.671  12.283  0.2062 -0.0670 -0.1355
14473PP      PP24577   7.620   0.909  10.629  0.1417 -0.0520  0.3275
14474PP      PP24578   5.659   1.526  12.952 -0.0488 -0.0346  0.0628
14475PP      PP24579   1.844   5.033  10.121 -0.0324 -0.1752  0.0235
14476PP      PP24580   1.744  11.525   8.690 -0.1448  0.1651 -0.1577
14477PP      PP24581  13.587   2.694   0.556 -0.2610  0.2172 -0.0013
14478PP      PP24582   2.525   0.647   2.485 -0.2798  0.1434  0.1391
14479PP      PP24583   4.421   1.029  11.591 -0.0080  0.2250 -0.3035
14480PP      PP24584  10.064   0.411   0.630  0.0124 -0.1555  0.0954
14481PP      PP24585  13.657   8.971  12.837  0.0213  0.0505 -0.1799
14482PP      PP24586  13.759   9.622   2.092 -0.0484  0.1535 -0.4955
14483PP      PP24587   4.941   7.625   0.105  0.2036 -0.1281 -0.1584
14484PP      PP24588  10.934  12.271   0.864  0.1195  0.0824 -0.0420
14485PP      PP24589   3.961   4.741  13.373  0.5405 -0.1694  0.0381
14486PP      PP24590   5.167   1.331  13.240  0.4575  0.1911  0.0118
14487PP      PP24591  12.842  11.704  11.104 -0.0739  0.0628 -0.0504
14488PP      PP24592  11.875   6.373  10.233 -0.2353 -0.0078  0.2977
14489PP      PP24593   6.395   4.467   9.021  0.4239  0.0563  0.0453
14490PP      PP24594   8.309   7.850   1.090 -0.2938  0.3264  0.0354
14491PP      PP24595  11.054   4.233  10.285 -0.1342 -0.0832 -0.2421
14492PP      PP24596  12.898   8.731   3.096 -0.1681  0.3535  0.0219
14493PP      PP24597   0.378  10.827   3.129 -0.0416  0.0591 -0.0328
14494PP      PP24598   7.579   9.731  12.709  0.1097  0.0459  0.1451
14495PP      PP24599   0.476   6.009   1.471 -0.2897  0.0820  0.1274
14496PP      PP24600  10.660   6.126  10.932 -0.1313 -0.1787  0.2682
14497PP      PP24601  10.741  14.489  12.441  0.1961 -0.2273  0.0942
14498PP      PP24602  10.351   7.603   1.203 -0.2454 -0.2198  0.0127
14499PP      PP24603  12.567  15.441   0.145 -0.2427  0.0713 -0.0056
14500PP      PP24604  14.209   0.612  11.027  0.1137  0.0779 -0.0919
14501PP      PP24605   1.126  12.257   1.763  0.3023 -0.2502 -0.1139
14502PP      PP24606   4.130  11.552  12.092 -0.2245 -0.0834 -0.0159
14503PP      PP24607  14.028   9.500   2.570 -0.0682 -0.6205  0.0913
14504PP      PP24608   3.099   6.176   9.301  0.4822 -0.1143 -0.0050
14505PP      PP24609  11.916   7.653   3.010 -0.1140 -0.0302 -0.2680
14506PP      PP24610   7.321  14.836  11.737 -0.4189  0.2397  0.0538
14507PP      PP24611   7.270  15.750   0.269  0.0171 -0.1471 -0.2786
14508PP      PP24612  10.203  11.712  10.125 -0.0593  0.1888 -0.0521
14509PP      PP24613   1.357  12.194  10.556  0.0843 -0.2960 -0.0218
14510PP      PP24614   0.612  13.812   1.722  0.0649 -0.0769 -0.1727
14511PP      PP24615   9.911  11.784  12.959  0.2899 -0.0478  0.0787
14512PP      PP24616   3.441   2.955   2.849  0.0681  0.0602  0.1739
14513PP      PP24617   2.139   3.246  11.375 -0.0893 -0.0780  0.0247
14514PP      PP24618   3.720   7.188  11.416 -0.4237 -0.1907  0.0448
14515PP      PP24619   2.502   9.291   0.262 -0.0999  0.2832  0.0571
14516PP      PP24620  13.610  14.250  13.271  0.1002  0.0472  0.3049
14517PP      PP24621   9.596   0.066   1.703 -0.4118  0.1116 -0.1357
14518PP      PP24622   1.491  12.753   3.111 -0.0704 -0.0420  0.0763
14519PP      PP24623   0.720   8.784   2.881  0.2702  0.1399 -0.0119
14520PP      PP24624   0.245   1.737  11.534  0.1877 -0.1123  0.0337
14521PP      PP24625  12.960   3.660  11.775 -0.0602 -0.3368  0.0468
14522PP      PP24626   8.753   1.858   5.103 -0.1738  0.0266  0.0069
14523PP      PP24627  12.059  11.589   2.060  0.2374  0.1508  0.0232
14524PP      PP24628  13.003   7.809   1.114 -0.0642  0.0663  0.2236
14525PP      PP24629  12.916   8.742   8.716  0.0536  0.0963  0.0023
14526PP      PP24630   9.557   6.338   0.310  0.1170 -0.0682  0.0374
14527PP      PP24631  12.623   6.114   9.154 -0.0923 -0.2933  0.0455
14528PP      PP24632   0.186  14.376  12.405  0.0175 -0.4062  0.3383
14529PP      PP24633  12.170   8.548  11.243  0.0265  0.1627 -0.1250
14530PP      PP24634   8.579   6.023   1.034  0.0517 -0.1973  0.1259
14531PP      PP24635   8.788   0.606   0.032  0.3115  0.1699 -0.0938
14532PP      PP24636  12.448  14.019   9.333 -0.2466 -0.2686 -0.1389
14533PP      PP24637   1.303   3.605   0.358  0.0986 -0.0550 -0.2628
14534PP      PP24638  13.292   4.953  12.476 -0.0740 -0.0029  0.0297
14535PP      PP24639   8.824   5.340   0.793 -0.1177 -0.1661 -0.2068
14536PP      PP24640  14.556  14.339  13.245 -0.1474  0.1210 -0.0340
14537PP      PP24641   9.522   6.056   2.285 -0.1353 -0.3086 -0.1132
14538PP      PP24642   4.984  10.882   9.899 -0.2145  0.1789 -0.0998
14539PP      PP24643   4.803   7.785  11.924 -0.3658 -0.0284  0.1789
14540PP      PP24644  10.063   5.047  12.175 -0.1005  0.0930  0.0992
14541PP      PP24645  15.763  10.969   2.939 -0.0839  0.1495  0.0930
14542PP      PP24646   9.397  12.829   3.419  0.2631  0.0443 -0.3610
14543PP      PP24647   5.147   2.786  11.446 -0.1826  0.1021  0.0153
14544PP      PP24648   1.593   3.974   1.590 -0.0383 -0.1644 -0.1053
14545PP      PP24649   2.125   8.510   9.446  0.0599 -0.1264 -0.4208
14546PP      PP24650   1.001  15.330   2.667  0.0297 -0.0530  0.0766
14547PP      PP24651   6.392  12.429   3.960  0.0345  0.1326  0.2042
14548PP      PP24652   5.505  13.828   3.243  0.0098 -0.0270  0.1489
14549PP      PP24653  11.008   8.454   8.887 -0.0692 -0.0473 -0.0807
14550PP      PP24654  15.209   1.387  11.699 -0.0113 -0.2305  0.0252
14551PP      PP24655   2.798   0.438  12.848 -0.0014  0.0192  0.3603
14552PP      PP24656   1.563   3.639   2.257 -0.1289 -0.1223  0.1660
14553PP      PP24657   9.159  15.427  10.125  0.0997  0.4291  0.0570
14554PP      PP24658   8.557   8.597  11.193 -0.2094  0.2163  0.2510
14555PP      PP24659   6.656  11.979   3.722  0.1796  0.2950 -0.3677
14556PP      PP24660   0.003   3.246   2.828 -0.0334  0.0274 -0.1334
14557PP      PP24661   1.371   0.694   2.159  0.1586 -0.0021  0.0863
14558PP      PP24662   4.483   6.145   4.132 -0.4851  0.1353 -0.1201
14559PP      PP24663  11.053   2.642   2.236 -0.2131  0.3281 -0.0645
14560PP      PP24664  15.019   9.176  12.235 -0.0674  0.0937  0.0112
14561PP      PP24665  12.397   7.973   1.103  0.2244  0.0952  0.1350
14562PP      PP24666   5.420  10.116  12.216 -0.1811  0.0900 -0.1020
14563PP      PP24667  13.862   2.965  13.009  0.0040 -0.1645  0.1996
14564PP      PP24668  13.558  13.465  10.236 -0.0444 -0.2140 -0.0224
14565PP      PP24669   1.585   2.220  12.845 -0.0540  0.0006  0.0499
14566PP      PP24670   3.570   1.636   1.360 -0.1624 -0.2957  0.0146
14567PP      PP24671   1.826   1.225   0.115  0.1186  0.2478  0.0949
14568PP      PP24672   5.358   5.998   2.817 -0.0938 -0.1137 -0.0173
14569PP      PP24673   5.924   1.282   5.955 -0.1624  0.0487 -0.0254
14570PP      PP24674   3.327   6.451  10.667  0.1328 -0.1553  0.0236
14571PP      PP24675  15.778   7.374   0.298 -0.0188  0.0974 -0.1534
14572PP      PP24676  10.633  10.352  11.049 -0.4418  0.1798 -0.0323
14573PP      PP24677   6.686   6.500   0.545  0.2851 -0.3948 -0.1087
14574PP      PP24678  10.182   3.307  10.426 -0.1519 -0.0114  0.0701
14575PP      PP24679  14.943   7.078  11.862 -0.0621  0.0265  0.0948
14576PP      PP24680   8.926   2.832   3.112  0.2569  0.2537  0.0405
14577PP      PP24681   8.278   0.936   0.579 -0.2162 -0.2180  0.2153
14578PP      PP24682  10.667   9.280   4.388  0.2950  0.0864  0.0892
14579PP      PP24683   6.200  14.002   4.259  0.1674  0.0380 -0.1792
14580PP      PP24684   9.979  15.038  12.075 -0.0023  0.3154 -0.0778
14581PP      PP24685   8.915   3.614   1.819 -0.1549  0.0564 -0.1019
14582PP      PP24686   1.145   9.967  12.958  0.1399 -0.5197 -0.1651
14583PP      PP24687   5.806   3.605   2.404  0.2701 -0.0027 -0.0209
14584PP      PP24688   0.081  14.073  11.968  0.1110 -0.2027  0.0970
14585PP      PP24689  13.715  12.988   1.951  0.2178 -0.0604 -0.2466
14586PP      PP24690   6.032   8.284  11.834 -0.1406  0.2082  0.1484
14587PP      PP24691  13.038   8.411  12.063  0.1051  0.0041  0.0375
14588PP      PP24692   0.014   1.633   0.613 -0.0947 -0.3540  0.0845
14589PP      PP24693   7.562  10.069  11.855  0.2666  0.0162 -0.0766
14590PP      PP24694   8.395   9.653   1.073  0.1627 -0.0227  0.2559
14591PP      PP24695  14.797   2.388   3.769 -0.2900  0.0383 -0.1420
14592PP      PP24696   2.463  10.269  11.425  0.1289 -0.0173  0.0604
14593PP      PP24697   1.977  15.361   9.104 -0.2152 -0.2058  0.0184
14594PP      PP24698   7.060   3.874   1.658  0.2670 -0.2465  0.2849
14595PP      PP24699   6.121   3.665   2.005  0.1995 -0.2226  0.3477
14596PP      PP24700   1.751   3.471   6.574  0.1540 -0.1487 -0.0648
14597PP      PP24701  11.094  12.149  11.824 -0.0878  0.0538  0.2485
14598PP      PP24702   9.562   7.689  13.292 -0.0583  0.1446  0.0575
14599PP      PP24703   9.499  13.122   9.710 -0.1455 -0.2381  0.6005
14600PP      PP24704   3.084   7.646   9.304 -0.2351  0.2422  0.0743
14601PP      PP24705   9.958   5.908   3.858  0.4365  0.0690 -0.2775
14602PP      PP24706   5.252  15.105   1.624 -0.3849 -0.1008 -0.1488
14603PP      PP24707   7.765   6.380  12.711 -0.2735 -0.1607 -0.0884
14604PP      PP24708   3.619  10.169  12.039  0.0441 -0.0496 -0.0850
14605PP      PP24709   1.274   4.713   1.631  0.0622  0.1291  0.0612
14606PP      PP24710   0.378   7.025  10.228  0.0908  0.2485 -0.1187
14607PP      PP24711   1.841  14.305  12.450  0.0130  0.0437 -0.1873
14608PP      PP24712   3.833   1.606   3.272 -0.1102 -0.2838  0.0411
14609PP      PP24713  15.501  14.695   9.778  0.0680 -0.0794 -0.1693
14610PP      PP24714  13.795  14.934  12.957  0.1404 -0.0705 -0.2832
14611PP      PP24715   0.702   1.637  12.880  0.2599 -0.0341 -0.2114
14612PP      PP24716   9.436   6.909  11.705  0.1469 -0.1201 -0.0050
14613PP      PP24717  11.606   0.892   0.020 -0.1886 -0.1327 -0.0290
14614PP      PP24718   6.289  14.669   0.954  0.0417  0.3418  0.2310
14615PP      PP24719   5.262   4.836   2.129  0.2952  0.1875 -0.1218
14616PP      PP24720   4.570   1.020   3.210  0.2942  0.1692  0.2933
14617PP      PP24721   0.004   0.429  11.121  0.3357 -0.2153 -0.1303
14618PP      PP24722  15.560   1.623  11.955  0.4386 -0.0499  0.2713
14619PP      PP24723  11.831   2.769  11.144  0.1262  0.3550  0.2433
14620PP      PP24724  11.585   9.887   2.518  0.3253 -0.3457  0.0540
14621PP      PP24725   1.613   1.880   8.755  0.3964 -0.1822  0.2506
14622PP      PP24726  12.437   6.413  13.251 -0.1937  0.0269  0.1664
14623PP      PP24727   7.938   6.639   3.650 -0.3315 -0.2307 -0.0285
14624PP      PP24728   9.158  11.505   9.326  0.0724 -0.1143  0.3141
14625PP      PP24729  14.711   9.703   2.393  0.1410  0.0631  0.0332
14626PP      PP24730   0.155   9.859   1.184  0.2459 -0.0010 -0.0462
14627PP      PP24731   9.898  10.578   2.567 -0.0339  0.1078  0.0144
14628PP      PP24732  15.057   8.769  13.121  0.1071  0.1451  0.0855
14629PP      PP24733   7.371   5.039  11.533 -0.2988 -0.1933  0.0833
14630PP      PP24734   8.925   3.884   0.854  0.2393  0.0170  0.1263
14631PP      PP24735   8.786   7.765  13.411 -0.0415  0.0608 -0.1916
14632PP      PP24736   0.585   8.365   3.170 -0.1765  0.0449  0.1934
14633PP      PP24737  14.072   9.635  12.829  0.0494  0.2422 -0.0299
14634PP      PP24738  13.675  13.928  12.864 -0.4113  0.1716  0.1911
14635PP      PP24739   1.043   8.739   0.377  0.0507  0.2301 -0.0903
14636PP      PP24740   5.452  11.896   1.671 -0.3007  0.0159 -0.0858
14637PP      PP24741   0.175   5.210   4.709 -0.1675  0.1432  0.0159
14638PP      PP24742   4.732   3.639  12.173  0.2004 -0.0332 -0.2571
14639PP      PP24743  10.010  13.271   4.301  0.1218 -0.1846  0.3276
14640PP      PP24744  11.321   0.157   1.903  0.3820 -0.1907  0.1908
14641PP      PP24745   5.344  10.073   2.171  0.2127  0.0121  0.1923
14642PP      PP24746  12.235   9.344   1.937  0.0498 -0.1958 -0.1888
14643PP      PP24747   9.412   8.584  11.523 -0.2855 -0.3985  0.0478
14644PP      PP24748   3.019  15.808   4.673  0.0981 -0.1454 -0.0334
14645PP      PP24749   0.461   3.624   1.496 -0.0586  0.0601 -0.2184
14646PP      PP24750   0.783  12.481   2.439 -0.1041 -0.0161  0.1288
14647PP      PP24751   9.305  13.580   0.645 -0.0371 -0.0897  0.1776
14648PP      PP24752   5.730   4.815   2.779  0.0948 -0.0465  0.1841
14649PP      PP24753   9.091   9.881  10.799 -0.0390 -0.0030 -0.0794
14650PP      PP24754  15.717   2.348   3.645  0.5364  0.2322  0.1238
14651PP      PP24755  11.641   3.952  10.075  0.0011  0.2311  0.0229
14652PP      PP24756  15.511  12.686  13.369  0.0543  0.0017 -0.0487
14653PP      PP24757   7.880   7.425   1.068 -0.0378  0.1536  0.0603
14654PP      PP24758  15.695  15.846   2.461 -0.0518 -0.0418  0.1089
14655PP      PP24759   1.231   4.263   1.473 -0.1881 -0.1551  0.0770
14656PP      PP24760   0.887   3.682   8.999  0.0116  0.3217 -0.1260
14657PP      PP24761   7.626  12.627  12.875  0.1435  0.2978  0.5025
14658PP      PP24762   5.718   5.953  12.339  0.1928  0.1574  0.2634
14659PP      PP24763  12.714   0.582  13.359  0.0371  0.3370 -0.0065
14660PP      PP24764  10.789   0.102   9.496  0.0562  0.4370 -0.1701
14661PP      PP24765   4.318   4.676   2.662  0.2232  0.1056  0.0351
14662PP      PP24766  14.042   5.134  10.993 -0.4119  0.2919 -0.2069
14663PP      PP24767   6.540  11.318   9.586  0.0528 -0.1235  0.0995
14664PP      PP24768   7.686  13.051   4.186  0.0055  0.0244  0.4072
14665PP      PP24769   6.677  12.358   9.695 -0.0255  0.1287  0.0958
14666PP      PP24770   4.876  10.236  10.685 -0.1935 -0.0275 -0.1019
14667PP      PP24771  12.416   5.848  11.100 -0.2579  0.2822  0.0321
14668PP      PP24772  12.620  14.430  10.253 -0.4887  0.0276  0.2389
14669PP      PP24773   4.692  11.032   9.234 -0.0070 -0.1127 -0.1438
14670PP      PP24774  14.963   3.813   0.210  0.0342  0.1919 -0.1604
14671PP      PP24775  14.669   8.836  12.329  0.2336  0.1617 -0.1416
14672PP      PP24776  15.731   2.051  11.693 -0.0035  0.2338  0.0177
14673PP      PP24777   9.225   3.160   0.497 -0.1677  0.1827 -0.2022
14674PP      PP24778   7.119   5.850  10.910  0.2690  0.0385  0.2807
14675PP      PP24779   1.915   1.535   3.888 -0.0928 -0.1656  0.1600
14676PP      PP24780   3.159   4.338  11.611  0.1939 -0.0286 -0.0432
14677PP      PP24781  12.837   4.286   4.071 -0.2439  0.0910 -0.1224
14678PP      PP24782   4.391   7.950   3.502 -0.0273  0.0485 -0.1642
14679PP      PP24783   1.283  13.894  12.812 -0.4236 -0.2250  0.0058
14680PP      PP24784   1.376  15.459   3.597 -0.0165  0.0942  0.0263
14681PP      PP24785   5.502  14.990  11.638  0.2763  0.2219  0.1159
14682PP      PP24786  15.597   2.290   3.145 -0.1661  0.0700 -0.1489
14683PP      PP24787   9.244   5.640  10.945  0.0875  0.1913  0.2555
14684PP      PP24788   6.445  14.965   2.771 -0.1638 -0.0265  0.1666
14685PP      PP24789  11.100  15.310  13.282 -0.2537  0.0812 -0.0996
14686PP      PP24790  10.232   0.429  11.116 -0.1924 -0.0599  0.2464
14687PP      PP24791   0.326   6.045  10.293  0.1726  0.0414 -0.2368
14688PP      PP24792   5.692  12.659  11.379 -0.4638 -0.0167 -0.3828
14689PP      PP24793  11.708   0.575   2.723  0.0060  0.1074  0.2090
14690PP      PP24794   3.558  11.973   8.362 -0.3474  0.0273 -0.0966
14691PP      PP24795   9.083   7.400  10.855 -0.2356  0.0853 -0.0243
14692PP      PP24796   0.304   3.640   2.894 -0.1923  0.1569 -0.2304
14693PP      PP24797   6.836  10.758   8.888 -0.3104  0.0407  0.1173
14694PP      PP24798   6.607   9.741   1.994  0.0633  0.0160 -0.0973
14695PP      PP24799  10.424  10.148   8.998 -0.1691 -0.0866 -0.0033
14696PP      PP24800   7.948   0.572  11.085 -0.0063 -0.0009  0.0092
14697PP      PP24801  15.040  12.851   1.105  0.0572 -0.2840  0.1509
14698PP      PP24802   0.748   3.599  10.019 -0.0325  0.4133  0.0404
14699PP      PP24803   2.395  11.006   0.653 -0.2216  0.0139  0.1103
14700PP      PP24804  13.900   9.931   1.746 -0.2023 -0.1080  0.0155
14701PP      PP24805  14.539  13.431  12.103 -0.2585  0.0813 -0.1083
14702PP      PP24806   5.757   4.447   8.770  0.0454 -0.1632  0.1437
14703PP      PP24807  13.291   5.911  11.403 -0.0761 -0.3058 -0.0333
14704PP      PP24808  14.309   3.586   9.166 -0.0335  0.0210 -0.2830
14705PP      PP24809   5.061   4.792   1.132  0.1083  0.1322 -0.2930
14706PP      PP24810   3.866   0.613   1.306  0.1589 -0.1042  0.1013
14707PP      PP24811   7.685   4.248   1.030 -0.1109 -0.3894  0.0055
14708PP      PP24812   9.843   6.618   2.087 -0.2178  0.1156 -0.1759
14709PP      PP24813  11.576  11.502  11.574  0.2456 -0.2300  0.0021
14710PP      PP24814  13.196  11.257   4.109  0.1231  0.0966 -0.0130
14711PP      PP24815  13.159  13.426   3.667  0.0032  0.0340  0.1482
14712PP      PP24816   6.801   1.109  11.816 -0.3658  0.1607 -0.0783
14713PP      PP24817  13.813   0.301   0.331  0.1576 -0.0865  0.0660
14714PP      PP24818   3.352   3.210  11.190  0.2919  0.2313 -0.4344
14715PP      PP24819   0.823   6.794   2.276 -0.0038  0.2272 -0.0719
14716PP      PP24820   1.301   7.587  12.546  0.1500 -0.3282  0.1389
14717PP      PP24821   3.563   5.175   3.568 -0.3445 -0.1361  0.0638
14718PP      PP24822   7.006  13.811   1.033 -0.1839 -0.1477 -0.1134
14719PP      PP24823  11.384   5.664   1.121 -0.2592  0.1739  0.1945
14720PP      PP24824  11.814   8.510  13.183 -0.2434 -0.2534 -0.2118
14721PP      PP24825   0.986   0.552   1.792  0.2038 -0.1705 -0.0785
14722PP      PP24826   5.076   4.366   2.973  0.0743 -0.0388 -0.1452
14723PP      PP24827   6.642  15.646   1.218  0.0151 -0.0482  0.0141
14724PP      PP24828   2.714  11.493   8.452 -0.0039 -0.2876 -0.1377
14725PP      PP24829   0.166  15.652   2.916 -0.2469 -0.5209  0.2125
14726PP      PP24830   8.259   7.309   2.436  0.1322 -0.2991  0.2407
14727PP      PP24831   8.880   3.709   9.368 -0.1189 -0.2220 -0.2009
14728PP      PP24832  10.425   3.360   4.774  0.2804 -0.2078 -0.3787
14729PP      PP24833  10.437  13.206   1.988  0.2540 -0.1034  0.1287
14730PP      PP24834  10.887   5.007   9.845  0.2148  0.2433  0.2436
14731PP      PP24835   8.492   0.378   2.757 -0.0294 -0.1462  0.1346
14732PP      PP24836  10.861   7.120   3.968 -0.0330 -0.1308 -0.0935
14733PP      PP24837  12.829  12.151   3.842  0.2139 -0.0737  0.0326
14734PP      PP24838  10.963  15.814   1.539  0.0317  0.0781  0.0096
14735PP      PP24839   8.495   2.567  12.369 -0.3088 -0.1788 -0.2053
14736PP      PP24840   4.389   1.318  12.646 -0.0648  0.3194  0.1926
14737PP      PP24841   2.874   5.667  10.817 -0.0496 -0.0581  0.1588
14738PP      PP24842   3.015   8.124   9.317  0.0479  0.3356  0.2085
14739PP      PP24843   7.883   4.430  13.268  0.3989 -0.1503 -0.2011
14740PP      PP24844  10.656   7.819   2.483  0.0350 -0.0592 -0.2798
14741PP      PP24845  11.870   6.779   0.529  0.2980 -0.0684 -0.1418
14742PP      PP24846   6.321   3.945   1.335 -0.0274  0.0261 -0.1477
14743PP      PP24847  15.758   4.512   4.400 -0.0468 -0.1019 -0.5636
14744PP      PP24848   1.924   9.373   0.227  0.4146 -0.0172  0.0501
14745PP      PP24849   6.027   8.502   9.518  0.0105 -0.1056 -0.0653
14746PP      PP24850   0.669   7.866   2.434 -0.0405  0.1770 -0.2661
14747PP      PP24851   4.822  14.242   0.488 -0.1204  0.0993  0.0136
14748PP      PP24852   0.498   9.596   1.349 -0.0723 -0.2262 -0.2474
14749PP      PP24853  12.102  15.498   9.620 -0.0057 -0.4296  0.1827
14750PP      PP24854   7.144   4.886  12.888 -0.2382  0.0811 -0.1586
14751PP      PP24855   0.629   5.259   1.638 -0.2172 -0.1263 -0.2531
14752PP      PP24856   9.029  10.416   4.107  0.4389  0.1533 -0.2684
14753PP      PP24857   3.155   7.985  10.945 -0.2372  0.0549 -0.1326
14754PP      PP24858  12.919   0.440  10.120 -0.3005  0.0307  0.3103
14755PP      PP24859   4.772   4.630  10.738  0.1121 -0.2111 -0.0964
14756PP      PP24860  11.079  11.894   2.266 -0.0274  0.2265  0.0692
14757PP      PP24861  12.475   0.704  11.941 -0.1096 -0.0724 -0.1215
14758PP      PP24862   9.580  11.335   0.709 -0.2006 -0.0302 -0.2385
14759PP      PP24863   6.549   5.694   9.935  0.0033  0.1120 -0.2018
14760PP      PP24864   5.153   8.076  11.741  0.2331  0.2462  0.1437
14761PP      PP24865  12.087  13.166  12.904  0.0424 -0.1171  0.1565
14762PP      PP24866   0.561   9.409   1.803  0.0359 -0.2500 -0.0189
14763PP      PP24867   5.426  13.444  13.515 -0.2754 -0.0551 -0.2499
14764PP      PP24868   3.095   3.021  11.986  0.1035 -0.0875  0.3984
14765PP      PP24869   2.925  14.395   2.161  0.0763  0.0990  0.0382
14766PP      PP24870   2.658   5.399   2.192  0.1922 -0.1063  0.1366
14767PP      PP24871   0.998  15.668   2.297  0.0359  0.1330 -0.0640
14768PP      PP24872  14.090  11.071   9.744  0.2609  0.0333  0.0303
14769PP      PP24873   7.948   2.593   3.579 -0.0459 -0.1508  0.2578
14770PP      PP24874  13.302   4.153   2.660 -0.0908 -0.0504 -0.1683
14771PP      PP24875   9.888  13.768  12.407  0.0601 -0.1287 -0.2007
14772PP      PP24876   2.687  15.407  11.266 -0.3318 -0.1911  0.0932
14773PP      PP24877   5.469  12.467   3.339 -0.1640  0.0750  0.0875
14774PP      PP24878   8.672   9.388  11.504 -0.0683  0.0725 -0.1228
14775PP      PP24879   7.902  10.812  12.441 -0.1441 -0.0174 -0.0225
14776PP      PP24880  13.114  12.487   9.145 -0.0848 -0.0483 -0.1717
14777PP      PP24881  14.290  11.101  12.166  0.0433 -0.1423 -0.1776
14778PP      PP24882   9.790   9.993  12.277 -0.1368  0.1077 -0.0134
14779PP      PP24883  11.669   8.188   8.292 -0.0184 -0.0680  0.3502
14780PP      PP24884   3.304   4.676   3.515  0.1057  0.2945 -0.2138
14781PP      PP24885  11.442  15.077   4.442  0.1007  0.0250 -0.1347
14782PP      PP24886   1.944  15.061   0.847 -0.1063 -0.1598 -0.2482
14783PP      PP24887  12.641  12.503   3.436  0.2141  0.0409 -0.1546
14784PP      PP24888   2.504   1.303   4.602 -0.1795 -0.2228  0.2069
14785PP      PP24889  12.386  13.833   8.878  0.0589  0.3212  0.5228
14786PP      PP24890  11.778   8.590   4.248  0.0139 -0.1285  0.0831
14787PP      PP24891  15.309   5.644  10.813  0.0442 -0.0588 -0.0867
14788PP      PP24892   2.219   0.596   9.412  0.2457 -0.2426 -0.0943
14789PP      PP24893   2.445   9.088  10.178 -0.1762  0.0215 -0.0553
14790PP      PP24894  11.570   4.149   1.466 -0.1017 -0.1390 -0.2428
14791PP      PP24895   1.697   4.830  11.915  0.0470  0.1371 -0.2666
14792PP      PP24896   0.215  10.335  11.822 -0.2994 -0.0826 -0.0046
14793PP      PP24897  15.750   6.832   0.411  0.0114  0.1535 -0.1175
14794PP      PP24898   5.121   6.654   9.187 -0.0274  0.2274  0.0027
14795PP      PP24899   1.739   9.245  13.316  0.1029  0.2560  0.1753
14796PP      PP24900   8.134   1.561  11.519  0.2706  0.1427  0.1114
14797PP      PP24901   4.913  13.613  13.413 -0.1035 -0.3969 -0.1283
14798PP      PP24902   9.337   8.375  10.980  0.0071  0.0093 -0.0207
14799PP      PP24903  14.433   3.836   0.055 -0.2149 -0.1247 -0.1909
14800PP      PP24904   1.527   3.928   0.646 -0.1989  0.0255 -0.1117
14801PP      PP24905   4.628   3.546   3.893 -0.1001  0.1669  0.0221
14802PP      PP24906  10.620  14.903   1.309 -0.2637  0.1321 -0.1603
14803PP      PP24907   3.766   6.510  11.846  0.0444  0.0168  0.0516
14804PP      PP24908   8.157   6.300   1.207 -0.2435 -0.0391 -0.0011
14805PP      PP24909  14.431   5.900  12.736  0.0972  0.3690 -0.0172
14806PP      PP24910   7.506   8.875   9.648  0.2202 -0.1604  0.0448
14807PP      PP24911   2.403  12.777  10.011 -0.2006  0.1019 -0.2121
14808PP      PP24912   1.508   0.959   4.288  0.0881 -0.4152  0.1685
14809PP      PP24913   3.124   0.375   3.722 -0.1834 -0.1298 -0.0905
14810PP      PP24914  12.700  11.119  12.108 -0.1022 -0.0255 -0.0369
14811PP      PP24915   2.943   7.912  12.450  0.0220 -0.3554 -0.2664
14812PP      PP24916   6.140  13.838  10.222 -0.2292 -0.0511  0.1847
14813PP      PP24917  11.939   6.421   2.963  0.2165  0.2615 -0.0810
14814PP      PP24918   7.914   6.361   0.126  0.0022 -0.0359 -0.3120
14815PP      PP24919  10.376  14.651   2.994 -0.2712 -0.0473 -0.0603
14816PP      PP24920   6.690   0.844   9.454 -0.2542 -0.1425  0.1084
14817PP      PP24921   1.818   7.660   1.572  0.0062 -0.0895  0.2324
14818PP      PP24922  13.642   1.446  12.422  0.1268  0.0897 -0.0214
14819PP      PP24923   1.722   9.710  11.848  0.3266  0.1152  0.0827
14820PP      PP24924  13.960  11.966   2.985  0.0479 -0.1717 -0.0462
14821PP      PP24925   4.676   4.498   3.287  0.0252  0.1870  0.1218
14822PP      PP24926  13.542   5.199   3.725 -0.2466 -0.0915 -0.3395
14823PP      PP24927  15.225   9.842  11.693 -0.0166 -0.1087 -0.2236
14824PP      PP24928  15.364   7.568   4.577 -0.1845 -0.0159 -0.1464
14825PP      PP24929  11.717   0.112   1.568 -0.0026  0.1759  0.1588
14826PP      PP24930   6.871   7.764   9.765  0.2590 -0.0383  0.0783
14827PP      PP24931   6.950   1.994   4.000  0.1368  0.3551  0.0397
14828PP      PP24932   4.495   5.062   8.529  0.1366 -0.0265 -0.2014
14829PP      PP24933  10.097   1.510   2.168  0.0919 -0.2593  0.1041
14830PP      PP24934  10.827   2.240   0.988 -0.3084  0.1483  0.1141
14831PP      PP24935   1.438   8.417   1.450 -0.0673  0.3211 -0.4119
14832PP      PP24936   1.962   8.151   2.507 -0.2120 -0.5378 -0.1791
14833PP      PP24937  14.225  13.137   0.125  0.0848  0.1554  0.2278
14834PP      PP24938   5.152   7.755   3.300  0.0414  0.2834 -0.2168
14835PP      PP24939  15.723   3.844   8.923 -0.2360 -0.3905 -0.0898
14836PP      PP24940   9.003   0.682  11.254 -0.1423 -0.0291  0.0010
14837PP      PP24941  15.478  10.604   9.355  0.0932 -0.2911  0.0001
14838PP      PP24942  15.115   5.764   7.658  0.3068  0.2204  0.2633
14839PP      PP24943   4.686   1.562   4.383  0.0228  0.0986 -0.1225
14840PP      PP24944   1.392   6.375  12.589 -0.0760  0.0630  0.1386
14841PP      PP24945  11.694  14.020  13.161  0.0647  0.1721 -0.3251
14842PP      PP24946  14.353   7.923   8.452  0.1972 -0.1318  0.0038
14843PP      PP24947   9.942  12.104   0.628  0.2241 -0.0881 -0.0008
14844PP      PP24948   1.428   5.392   0.445 -0.0712  0.0782 -0.1457
14845PP      PP24949   1.126   6.475   3.047  0.1920 -0.0696 -0.1092
14846PP      PP24950   9.941   4.402  13.364  0.0022 -0.2127 -0.2482
14847PP      PP24951   9.950   3.672   1.314  0.1085  0.0677 -0.0256
14848PP      PP24952   5.442   2.067   9.806 -0.0629  0.0076  0.0478
14849PP      PP24953  12.629  10.612   2.348  0.0404 -0.1596 -0.3730
14850PP      PP24954   0.832   1.701  11.185  0.4118 -0.0414  0.0684
14851PP      PP24955   9.335   4.453  12.351 -0.3824  0.1355  0.2116
14852PP      PP24956  13.023   8.072  12.513 -0.0412  0.1856 -0.0823
14853PP      PP24957   6.511  15.540  10.704 -0.0644 -0.2043 -0.1309
14854PP      PP24958  10.324  10.297   4.540 -0.2284  0.0123 -0.1962
14855PP      PP24959  15.227   5.834   3.479  0.1251 -0.0267  0.3721
14856PP      PP24960   0.839   1.533   2.455 -0.1476 -0.2833 -0.1327
14857PP      PP24961  15.214   2.423   4.199  0.2689  0.0370  0.2763
14858PP      PP24962  15.851  15.689   2.019  0.0303  0.0049  0.1530
14859PP      PP24963  10.779   2.871   9.440 -0.0829 -0.3440  0.0645
14860PP      PP24964   3.129   4.930  10.474  0.0426  0.0073 -0.1642
14861PP      PP24965  10.510   3.958   4.136 -0.4359  0.0848  0.1944
14862PP      PP24966   6.031   7.677   0.562 -0.0507  0.2294 -0.1961
14863PP      PP24967  14.126  10.034  10.298  0.0011  0.0861 -0.0275
14864PP      PP24968   8.810   7.945  12.576 -0.1061 -0.2113  0.1136
14865PP      PP24969   2.101  10.970   2.825 -0.1545  0.3337 -0.0558
14866PP      PP24970   8.191  12.390   1.680  0.1520 -0.0120 -0.0254
14867PP      PP24971   1.796   8.960   2.810  0.0526 -0.1586 -0.0400
14868PP      PP24972   0.871  14.522  11.799 -0.1273  0.0424  0.2410
14869PP      PP24973   4.656  15.049   3.424 -0.2209  0.2000  0.0468
14870PP      PP24974  10.951   1.241   4.554 -0.4470  0.1059 -0.0011
14871PP      PP24975  12.286  12.522   0.319  0.0881 -0.0529 -0.4522
14872PP      PP24976  13.782   2.271  11.420 -0.1487  0.1043  0.2684
14873PP      PP24977   6.463   8.632   2.026 -0.1512 -0.1990 -0.1873
14874PP      PP24978  10.502   4.223   8.780  0.0521 -0.0939  0.3548
14875PP      PP24979  11.976  10.145   0.427  0.2124  0.0044  0.0824
14876PP      PP24980   6.830   9.602  11.891 -0.0916 -0.2865 -0.1337
14877PP      PP24981  13.695  10.468  11.218  0.1841 -0.2938 -0.1715
14878PP      PP24982   3.767  11.116  10.379  0.0666  0.1877  0.1186
14879PP      PP24983   2.508  14.954  10.863 -0.0975 -0.3090 -0.1663
14880PP      PP24984   3.490  13.469   2.856  0.1702 -0.1167  0.1690
14881PP      PP24985   0.456   8.691   9.558  0.0702  0.0248  0.0911
14882PP      PP24986   0.111  13.624   2.736  0.0294  0.0613 -0.0726
14883PP      PP24987   0.016   7.051   2.741  0.1518 -0.2857 -0.1461
14884PP      PP24988   8.751  10.705  12.629  0.0756  0.0851 -0.0541
14885PP      PP24989   2.444   9.268  11.774 -0.3028 -0.0901  0.1050
14886PP      PP24990  14.150  14.653  10.573  0.4020 -0.2117  0.0739
14887PP      PP24991   4.044   9.503   0.054  0.0286  0.1228 -0.3371
14888PP      PP24992  11.357   7.414  12.697 -0.0396  0.2491  0.0868
14889PP      PP24993   7.913  14.991   9.893  0.2149  0.0276 -0.0379
14890PP      PP24994  13.366   1.385  11.988 -0.2760  0.0748  0.0593
14891PP      PP24995   1.222   3.832  12.122  0.1065  0.0174 -0.1573
14892PP      PP24996  14.555   3.839   0.543  0.0616  0.0463 -0.0734
14893PP      PP24997  13.301   0.520  12.781  0.0146  0.1308 -0.0310
14894PP      PP24998   6.688  11.933   1.581  0.2798 -0.0781 -0.4499
14895PP      PP24999   9.939   8.684   8.527 -0.1469 -0.1623  0.2750
14896PP      PP25000   7.376  10.810  12.087  0.2076  0.0717 -0.1230
14897PP      PP25001   4.142  12.306   1.248 -0.1004 -0.0560  0.0665
14898PP      PP25002  11.873  13.203   9.230 -0.0984  0.2120 -0.1164
14899PP      PP25003  13.098   3.052   3.556 -0.0017  0.2505 -0.0038
14900PP      PP25004   7.298  11.274   9.995  0.3968  0.1000  0.1355
14901PP      PP25005  11.243   2.678   4.943  0.1726 -0.1360 -0.0069
14902PP      PP25006   9.857   8.165   0.656 -0.1329  0.1641  0.2940
14903PP      PP25007   3.897   4.592   8.454 -0.3388  0.0537  0.1017
14904PP      PP25008  15.131   4.255  10.625 -0.0209  0.5022 -0.2292
14905PP      PP25009   7.269   9.943   9.912  0.3525  0.2510  0.0684
14906PP      PP25010  10.852  12.823   3.270 -0.1369 -0.5794 -0.1660
14907PP      PP25011   2.701   2.154   3.582  0.2833  0.1697 -0.3529
14908PP      PP25012   0.184  11.245  11.523 -0.2977 -0.0981 -0.0460
14909PP      PP25013   8.045  13.252   2.968  0.2041 -0.0878  0.0794
14910PP      PP25014   0.117  13.116   2.783  0.1139 -0.2570 -0.0472
14911PP      PP25015  13.266  14.140   0.495 -0.1887  0.0946  0.1317
14912PP      PP25016   6.919   0.783   0.982  0.2304 -0.2208  0.1153
14913PP      PP25017   7.703   2.041   1.208  0.0916  0.2049 -0.1577
14914PP      PP25018  15.187   3.388  10.169  0.2277 -0.0987  0.2962
14915PP      PP25019  14.125   1.214   4.173 -0.0813  0.0126  0.0529
14916PP      PP25020  11.145  13.297   0.020 -0.0577 -0.1506 -0.0360
14917PP      PP25021   5.475   7.280   8.704  0.1361  0.1040  0.3383
14918PP      PP25022   4.500   6.528  10.572  0.0600  0.1262 -0.2329
14919PP      PP25023  13.762   7.478   8.780 -0.0882  0.0325  0.0530
14920PP      PP25024  10.369   8.846   1.786  0.0798 -0.0437  0.3320
14921PP      PP25025   7.966   8.516  12.380 -0.0648 -0.2093  0.2650
14922PP      PP25026  10.943  13.705   0.294  0.0471 -0.2600  0.2022
14923PP      PP25027  15.185   3.462  12.507  0.0578 -0.0484  0.0703
14924PP      PP25028  13.901   2.740   1.097 -0.3267  0.0395 -0.0325
14925PP      PP25029   0.593   4.649   9.243  0.0685  0.0163  0.0011
14926PP      PP25030  11.985   2.884   0.162  0.1459  0.3298  0.1613
14927PP      PP25031  15.004   2.733  13.099  0.1930 -0.1744  0.1400
14928PP      PP25032   1.678  13.527   1.429 -0.0372  0.0919 -0.4457
14929PP      PP25033  15.456   0.937   4.129 -0.1061 -0.0354 -0.0043
14930PP      PP25034   9.390   0.300   3.955  0.3691 -0.0277  0.1186
14931PP      PP25035   1.579  14.788   2.663 -0.2303  0.0933 -0.1316
14932PP      PP25036  14.659   4.720   0.456 -0.4490  0.0115 -0.0692
14933PP      PP25037  11.053  12.422  12.522 -0.0923  0.0510  0.0151
14934PP      PP25038  12.531  10.516   3.441  0.4290 -0.0423  0.0429
14935PP      PP25039   9.374   8.899   0.484 -0.2537  0.1220  0.1219
14936PP      PP25040   1.831  12.532   9.011  0.1507 -0.1920  0.0203
14937PP      PP25041  12.329   5.596  10.211 -0.0142 -0.2996  0.1268
14938PP      PP25042  11.252   2.129  10.836 -0.0738 -0.2047  0.0118
14939PP      PP25043  15.618   3.064  11.182  0.2034  0.1006  0.1938
14940PP      PP25044  13.913   0.999  10.835 -0.0523 -0.0824  0.1716
14941PP      PP25045  15.482  10.671  13.515  0.0957 -0.3017  0.0185
14942PP      PP25046  14.098   2.581  11.139 -0.1037 -0.0383 -0.1351
14943PP      PP25047  13.540   8.504  10.517 -0.0313 -0.2964  0.0062
14944PP      PP25048  10.407   6.054   0.045  0.1006  0.1443 -0.0590
14945PP      PP25049   9.861   0.934   0.723 -0.1988  0.2168  0.5273
14946PP      PP25050   1.447   9.070   4.140  0.2635  0.1050 -0.1830
14947PP      PP25051  10.310   8.372   9.967  0.2741 -0.1073  0.2215
14948PP      PP25052   8.116   0.693   3.060  0.0327 -0.0579 -0.3134
14949PP      PP25053   6.073   3.775  10.618 -0.4223  0.3951 -0.1297
14950PP      PP25054   2.388   7.913   2.384 -0.0951  0.1521  0.2075
14951PP      PP25055   5.501   0.569   0.953  0.0694 -0.0111 -0.0461
14952PP      PP25056   9.556   6.885  12.191  0.1616  0.0545  0.0608
14953PP      PP25057  10.552   2.787  12.445  0.0517  0.3321  0.0397
14954PP      PP25058   9.963   0.017   1.355 -0.1246 -0.0750  0.0152
14955PP      PP25059   5.016   6.810   3.175 -0.0342  0.1066  0.0907
14956PP      PP25060  13.926   8.056   9.770  0.1677  0.3803 -0.1593
14957PP      PP25061   9.546  10.114   3.386 -0.1116  0.2035  0.0873
14958PP      PP25062  11.125  10.624  13.159  0.0122 -0.1827 -0.1032
14959PP      PP25063   5.935  12.670   3.401 -0.0020 -0.0906 -0.0059
14960PP      PP25064   2.580   5.687   2.749 -0.1390  0.0709 -0.0309
14961PP      PP25065   6.800  12.503  10.735 -0.1930  0.1331  0.0173
14962PP      PP25066  10.369   9.520   1.504  0.2436  0.0036 -0.1642
14963PP      PP25067   3.145   7.370   8.870  0.0093 -0.0425 -0.1159
14964PP      PP25068   8.670   6.961   1.553  0.0086  0.1231  0.1815
14965PP      PP25069   4.952   0.820   1.146 -0.1860  0.0460  0.2114
14966PP      PP25070   9.348   4.399   1.605 -0.1223 -0.0185 -0.1158
14967PP      PP25071  14.916   0.007  10.273 -0.3527  0.2079 -0.0250
14968PP      PP25072   3.798  12.706  11.045 -0.0079 -0.1934 -0.0459
14969PP      PP25073   4.074   1.517   2.530  0.0131 -0.2180  0.3269
14970PP      PP25074  12.921  10.197   9.386 -0.1812 -0.0111 -0.2350
14971PP      PP25075   3.003   7.602  11.387 -0.3684  0.2643 -0.1073
14972PP      PP25076   3.613  12.564   3.512 -0.2340  0.0021  0.2524
14973PP      PP25077   3.620   1.987   0.943 -0.1412 -0.1127 -0.1668
14974PP      PP25078   3.926   1.386  12.227 -0.1780  0.2136 -0.1681
14975PP      PP25079   6.031   9.745  11.728  0.2095 -0.2617 -0.1937
14976PP      PP25080  12.888   5.411  11.363 -0.1012 -0.0006  0.1195
14977PP      PP25081   8.828   2.398  13.179  0.1455  0.2395  0.1577
14978PP      PP25082   2.859  13.542   0.608  0.1148  0.1695 -0.1783
14979PP      PP25083   6.369  14.709  12.797 -0.2301  0.1999  0.0546
14980PP      PP25084  14.661   9.319   9.289  0.0213 -0.1547  0.2673
14981PP      PP25085   2.484  11.974   0.798  0.1018  0.0350  0.0461
14982PP      PP25086   6.885   1.516   1.999 -0.0201  0.1108  0.0224
14983PP      PP25087  15.849   5.857  11.072 -0.1971  0.2829  0.1983
14984PP      PP25088   5.618  13.857   3.774 -0.3291 -0.1552 -0.1664
14985PP      PP25089   2.881  12.324  13.317  0.0930 -0.2571 -0.0436
14986PP      PP25090   4.616   5.854  12.954  0.0086  0.0334  0.0425
14987PP      PP25091   3.317   8.604   3.473 -0.0695  0.2089 -0.2752
14988PP      PP25092  15.293  10.004  13.066 -0.3950 -0.0920  0.0053
14989PP      PP25093  12.249   0.499  13.031 -0.0647 -0.1131 -0.1300
14990PP      PP25094   6.047   2.810  12.683  0.3536 -0.0878 -0.0147
14991PP      PP25095   8.444   9.989  10.890 -0.2608  0.1380  0.0941
14992PP      PP25096  15.345  10.174   3.108  0.3873  0.3383 -0.1370
14993PP      PP25097   8.605  10.374  10.646  0.0885 -0.2143  0.2631
14994PP      PP25098   4.145  11.323   1.508 -0.3259 -0.2027  0.0950
14995PP      PP25099   9.937   9.039  10.829  0.0048  0.0261 -0.2249
14996PP      PP25100   1.575  12.712   1.795  0.0805  0.1113  0.1528
14997PP      PP25101  14.342   2.590   0.048 -0.1910  0.0817 -0.3925
14998PP      PP25102   1.212  13.521   2.021  0.0965  0.0956 -0.2780
14999PP      PP25103   5.966  14.623   8.393 -0.0068  0.1816 -0.2795
15000PP      PP25104   9.247  13.594   9.525  0.0295  0.1607 -0.0378
15001PP      PP25105   1.369  14.821  10.540 -0.3137 -0.0410  0.1632
15002PP      PP25106   3.413  15.030  10.711  0.1136 -0.0618 -0.3475
15003PP      PP25107   0.476   5.677   8.347  0.0773  0.0141 -0.2374
15004PP      PP25108   2.579  11.981   0.108 -0.0509  0.0137 -0.0277
15005PP      PP25109   2.071  13.180  10.286  0.0022  0.1763  0.1816
15006PP      PP25110   2.010   0.016  11.982 -0.2746 -0.1350  0.0975
15007PP      PP25111   5.626   7.483   3.504 -0.0576 -0.2415  0.2655
15008PP      PP25112  11.875   4.762  10.425  0.3035  0.1337 -0.1439
15009PP      PP25113   8.876   5.608  13.267  0.1351 -0.0186  0.1983
15010PP      PP25114   5.460   6.886   9.598 -0.0480  0.0047  0.1851
15011PP      PP25115   9.945   4.302  10.083 -0.1259  0.2899  0.2295
15012PP      PP25116  12.267  15.696   4.323  0.1732  0.0817 -0.1932
15013PP      PP25117  11.606  10.543  13.069  0.0327  0.1460 -0.0477
15014PP      PP25118   8.834   1.568   9.647  0.2779 -0.1410  0.3291
15015PP      PP25119   3.239   7.963   2.479 -0.0330  0.0439 -0.0015
15016PP      PP25120  10.803  11.068   8.462 -0.3574  0.0438 -0.2058
15017PP      PP25121   9.128  10.136   0.147 -0.0982  0.1763 -0.0593
15018PP      PP25122  14.497   5.602  10.892 -0.1140 -0.0156 -0.0090
15019PP      PP25123   3.826   7.531   1.384  0.2820 -0.0993  0.3406
15020PP      PP25124   2.482   0.198   9.207  0.0561 -0.1669 -0.1041
15021PP      PP25125   1.869   0.914   9.329 -0.0602 -0.3864 -0.0643
15022PP      PP25126   6.172   0.383  10.100 -0.0504 -0.0567  0.0798
15023PP      PP25127   9.727   9.861  11.612 -0.1159 -0.1318 -0.1446
15024PP      PP25128  11.690  15.181   2.274  0.1919 -0.1834  0.0381
15025PP      PP25129   0.624   5.327  13.488 -0.2865 -0.0575  0.2003
15026PP      PP25130  12.909   4.215   9.250 -0.2790  0.2207 -0.0158
15027PP      PP25131   5.917  15.860  12.860 -0.0806 -0.0490 -0.1000
15028PP      PP25132   5.255  14.852  13.518 -0.0762 -0.0249  0.0638
15029PP      PP25133  10.678   9.800  11.159 -0.0084  0.3467 -0.1281
15030PP      PP25134   9.793  14.868   4.466  0.2873  0.1553 -0.1243
15031PP      PP25135   4.568  10.662  10.748 -0.1310  0.1044  0.2420
15032PP      PP25136  11.375   9.785   8.903 -0.0796 -0.0489  0.3833
15033PP      PP25137   2.041   7.271   0.671  0.0252 -0.3578  0.1057
15034PP      PP25138  15.269   6.806   0.410  0.0601 -0.0283  0.3295
15035PP      PP25139   5.594   1.654   1.288  0.1107  0.0392 -0.3012
15036PP      PP25140   6.363   1.672  10.059 -0.3526  0.1971 -0.4140
15037PP      PP25141   2.313   8.374   2.198  0.0481 -0.1142  0.1495
15038PP      PP25142   2.036  15.613   1.463 -0.0475  0.1762  0.1218
15039PP      PP25143   2.593  14.259  10.095 -0.1731  0.2136 -0.2078
15040PP      PP25144   4.970  12.886  10.251 -0.0724  0.0074 -0.1453
15041PP      PP25145   8.574   1.826   1.653  0.1356  0.0306  0.0681
15042PP      PP25146   5.808   6.020   0.895 -0.0989  0.1479  0.2000
15043PP      PP25147   9.976   6.542   0.513  0.0179  0.1418  0.2569
15044PP      PP25148  10.979   5.355  11.265  0.0938 -0.3085 -0.1718
15045PP      PP25149   3.881  10.060  12.446  0.0581  0.1247  0.1143
15046PP      PP25150   4.067   3.264   0.284  0.0018  0.0009 -0.0436
15047PP      PP25151   0.808  15.519  10.679  0.0877 -0.0259 -0.1374
15048PP      PP25152   4.399   4.869  13.202  0.1414  0.0955  0.2557
15049PP      PP25153  12.278  10.101   1.443  0.1021 -0.0131  0.2160
15050PP      PP25154   7.023   7.749   8.728 -0.4292 -0.1564 -0.1876
15051PP      PP25155   4.005   2.320  12.214 -0.2328  0.0879 -0.2096
15052PP      PP25156  14.503  15.492   0.918  0.2829  0.0057  0.0364
15053PP      PP25157  14.182  15.751  13.131  0.1482  0.0203  0.2033
15054PP      PP25158   2.354   1.163   1.317  0.2089  0.2885 -0.1350
15055PP      PP25159   4.694   0.663   2.834  0.0269 -0.3155  0.4121
15056PP      PP25160  13.125  10.660  12.560  0.2201 -0.2161 -0.1102
15057PP      PP25161  15.109   4.539   9.864 -0.1421  0.2188  0.3615
15058PP      PP25162   8.493   8.275  12.555 -0.3068  0.0872 -0.2979
15059PP      PP25163   3.617   2.031  10.976  0.2158  0.3611 -0.0084
15060PP      PP25164   9.683   3.461   3.108 -0.0015 -0.0861 -0.1834
15061PP      PP25165   4.299  11.916  10.730 -0.0197  0.0306  0.0188
15062PP      PP25166   4.623   2.588  10.202  0.1856  0.0855 -0.1237
15063PP      PP25167  12.164   5.502  10.715  0.2114 -0.0979 -0.0208
15064PP      PP25168   9.023  10.817  11.301 -0.3890 -0.3663  0.0588
15065PP      PP25169   2.884  14.342   3.242  0.2728 -0.1088  0.0239
15066PP      PP25170   6.440  12.745   2.502 -0.1054  0.0309 -0.3412
15067PP      PP25171   7.268   6.859   3.051  0.1354 -0.0523 -0.1144
15068PP      PP25172   4.115   0.426   0.245  0.0685  0.1997  0.1121
15069PP      PP25173   6.416  14.427   2.706 -0.3068  0.0172  0.0043
15070PP      PP25174  15.756   0.158   0.408 -0.2113  0.1965  0.0456
15071PP      PP25175  14.901   7.127   0.667  0.0363  0.0012  0.2647
15072PP      PP25176  10.202   3.528  11.420 -0.1945 -0.4126 -0.0414
15073PP      PP25177   9.532   7.875   2.880 -0.2193 -0.3408 -0.1342
15074PP      PP25178   3.861   5.449   8.710  0.2380 -0.4246 -0.3964
15075PP      PP25179  11.777   6.860  11.834 -0.2521 -0.1412  0.0177
15076PP      PP25180   6.603  11.607  10.714  0.1141 -0.2158 -0.0712
15077PP      PP25181  14.218   7.647  12.848 -0.1019  0.1690  0.3006
15078PP      PP25182  15.565  11.408   9.216  0.2229  0.3417  0.0721
15079PP      PP25183   0.754  14.489   2.950 -0.0809  0.0151  0.1511
15080PP      PP25184   3.685   5.508  11.136  0.1807  0.0437  0.1069
15081PP      PP25185   5.474   2.819   9.535  0.1024 -0.2486 -0.1332
15082PP      PP25186   9.230   5.468  12.016  0.0489 -0.0608  0.1574
15083PP      PP25187  10.817  11.000  11.683  0.0700  0.0289 -0.1919
15084PP      PP25188   2.470  12.757  11.254 -0.0853  0.0773 -0.1686
15085PP      PP25189  15.563   0.308   3.223  0.2548 -0.3363  0.0120
15086PP      PP25190   1.457   9.851   8.986  0.0005 -0.1176  0.0146
15087PP      PP25191   5.036   4.055   2.613 -0.1815 -0.0141  0.0797
15088PP      PP25192  10.068   4.063  11.132  0.2608 -0.1322 -0.2986
15089PP      PP25193   8.574  11.828  10.635  0.0349 -0.0217  0.1775
15090PP      PP25194   0.086  11.108   3.435 -0.1196  0.0858 -0.0215
15091PP      PP25195  11.442   4.842  11.271 -0.2039  0.0703  0.2080
15092PP      PP25196   7.187  14.628  12.334 -0.0681 -0.2075  0.0370
15093PP      PP25197  11.332   0.854   9.353  0.2002 -0.1538 -0.2084
15094PP      PP25198   1.620  15.277   2.580 -0.0030 -0.0077 -0.2954
15095PP      PP25199  12.271   1.072  12.827 -0.1090  0.0431 -0.0403
15096PP      PP25200  13.050   2.476   0.120 -0.1629  0.1616  0.0988
15097PP      PP25201  11.408   5.672   4.098 -0.0769 -0.0051 -0.0316
15098PP      PP25202  10.997  10.326   9.745 -0.1483  0.0666 -0.4336
15099PP      PP25203   4.991   9.869  11.398  0.1147 -0.1048  0.1467
15100PP      PP25204  10.431  12.243   2.225  0.1548 -0.0305  0.1116
15101PP      PP25205   7.498  11.575   0.256  0.1876 -0.1173  0.1268
15102PP      PP25206   1.919   8.277   1.541  0.0073 -0.1172 -0.2828
15103PP      PP25207  14.703   9.860   9.597 -0.1440 -0.0383  0.0618
15104PP      PP25208  13.822   4.860  12.414  0.2897  0.0129  0.1955
15105PP      PP25209   1.022  13.749   9.022 -0.0159 -0.2181  0.0227
15106PP      PP25210  12.932  12.148  13.108 -0.0726 -0.1329 -0.0500
15107PP      PP25211   2.295   4.552   3.275  0.0590 -0.3250  0.1279
15108PP      PP25212  15.329   5.375   0.748 -0.2018  0.3514 -0.3502
15109PP      PP25213   3.116   5.389  11.233 -0.2515 -0.2817  0.1724
15110PP      PP25214  15.007   6.679   3.860  0.0551  0.0071  0.0358
15111PP      PP25215   8.149  14.844  11.085 -0.1992 -0.1195 -0.0036
15112PP      PP25216  14.067   1.445  10.665  0.1335 -0.3101  0.1107
15113PP      PP25217  10.197  10.544  10.973  0.0879 -0.0054 -0.0267
15114PP      PP25218  11.051  12.650  10.971 -0.1644 -0.1045 -0.1155
15115PP      PP25219   9.682  10.009  10.323 -0.0798 -0.1476 -0.0632
15116PP      PP25220  11.712   8.041   1.073 -0.2971 -0.1383  0.2578
15117PP      PP25221   7.550   7.321   1.956 -0.3143  0.2248  0.2278
15118PP      PP25222   8.662  14.952  12.710 -0.2115 -0.3536  0.2915
15119PP      PP25223   3.181   7.312  12.973  0.0347 -0.2826 -0.0810
15120PP      PP25224  15.224   0.469   4.262  0.1750  0.2231  0.3396
15121PP      PP25225   7.435  15.718   4.021  0.0182 -0.0531  0.2751
15122PP      PP25226  15.672   8.426   4.252 -0.1584  0.0453  0.0411
15123PP      PP25227   3.075  13.271   9.928 -0.1307  0.0682 -0.2817
15124PP      PP25228   1.769   0.408  12.231 -0.2397  0.2673 -0.1449
15125PP      PP25229   1.462  11.764  12.133 -0.1522  0.0720 -0.3115
15126PP      PP25230  14.233  11.836  10.372 -0.0070  0.1830  0.3294
15127PP      PP25231   7.179  14.153   4.084  0.1250  0.0448 -0.2359
15128PP      PP25232   9.861   3.792   2.580 -0.0960  0.0838  0.2371
15129PP      PP25233   5.571   6.772  10.073 -0.0843 -0.0635 -0.2841
15130PP      PP25234   8.947   8.568  11.459  0.3025  0.3045 -0.0034
15131PP      PP25235  13.940   1.056  10.372  0.1294  0.0958 -0.0666
15132PP      PP25236   0.551   7.261   3.103  0.1836  0.0940  0.0893
15133PP      PP25237  14.313   4.864  11.452 -0.1306 -0.0341 -0.2817
15134PP      PP25238  11.689   7.981   3.265  0.1057 -0.1660 -0.0521
15135PP      PP25239  11.132   2.079   0.602  0.0163 -0.0616  0.2870
15136PP      PP25240   4.774   2.915   1.267  0.0005  0.1751 -0.2580
15137PP      PP25241  11.724   1.022  10.003  0.1654  0.1379  0.2279
15138PP      PP25242  12.250   8.815   3.322 -0.1161  0.0169  0.1916
15139PP      PP25243   2.815  10.527   8.857  0.0999  0.0028 -0.0106
15140PP      PP25244  11.607   3.147   2.345 -0.0222 -0.1020  0.0665
15141PP      PP25245  14.050   3.942   0.497  0.0183  0.0578 -0.2405
15142PP      PP25246   6.638  14.704   0.531  0.0490  0.0543  0.1544
15143PP      PP25247   0.155   9.604  13.209  0.1719  0.0765  0.0857
15144PP      PP25248  13.344   1.912   1.207 -0.0915 -0.1258 -0.0647
15145PP      PP25249   0.049  10.146   0.809 -0.0954 -0.0264  0.3900
15146PP      PP25250   3.717   3.990   1.236  0.0271  0.1690  0.1273
15147PP      PP25251   0.954  14.682  10.954  0.0036  0.1305  0.1723
15148PP      PP25252   6.473   8.871   8.701  0.3419  0.0777  0.0085
15149PP      PP25253   0.065  15.106  10.942 -0.3101 -0.0128 -0.2776
15150PP      PP25254   3.127  14.652   1.122  0.3002  0.1644 -0.2406
15151PP      PP25255   6.286   6.997  13.528  0.3327  0.1703 -0.1596
15152PP      PP25256  10.008   1.179   1.728 -0.1309 -0.0313  0.1767
15153PP      PP25257   6.960   0.901   0.257  0.1618  0.1101  0.5336
15154PP      PP25258   6.235  10.837  11.043  0.1051  0.3444  0.3181
15155PP      PP25259  10.915   7.367   4.379 -0.2329  0.1849 -0.1067
15156PP      PP25260  11.343  14.223  12.509 -0.0403 -0.1437  0.2468
15157PP      PP25261   3.852  12.477  10.050  0.6294  0.4297  0.0349
15158PP      PP25262   7.704  14.359  13.188 -0.0326  0.1728  0.2234
15159PP      PP25263   7.584   4.150   9.736 -0.1147  0.0347 -0.0768
15160PP      PP25264   9.882   1.992   1.315 -0.2188 -0.0309  0.0446
15161PP      PP25265   8.239  15.315   4.723 -0.0263  0.1797  0.1067
15162PP      PP25266   9.150  14.435   9.397  0.0089  0.0251  0.1605
15163PP      PP25267   5.544   1.983   3.825 -0.0122  0.0194 -0.0190
15164PP      PP25268   4.386  12.947   8.613  0.0815  0.1005  0.0268
15165PP      PP25269   1.798   0.464   9.037 -0.2235 -0.1100  0.0426
15166PP      PP25270   6.127  14.860   1.482  0.0076  0.3952  0.1009
15167PP      PP25271  15.841   7.022   1.777  0.1331  0.3302 -0.1088
15168PP      PP25272   8.679  13.822  11.963 -0.1649  0.2334  0.1899
15169PP      PP25273   2.105   4.305   2.752  0.0778 -0.0485 -0.0537
15170PP      PP25274   2.434   8.544   4.351 -0.0443  0.0055 -0.0842
15171PP      PP25275  15.834  12.530   9.952 -0.0054 -0.2412  0.0483
15172PP      PP25276   0.204   3.154   1.512  0.0512  0.1032 -0.0671
15173PP      PP25277  12.683  13.948   0.780  0.1577 -0.0346 -0.2267
15174PP      PP25278   2.828  14.854  12.490 -0.1552  0.3631 -0.1863
15175PP      PP25279  13.118  14.743   1.577  0.1884  0.1417  0.1142
15176PP      PP25280   9.235   5.440   0.084  0.2968 -0.1417 -0.1517
15177PP      PP25281   5.147   5.428   9.922  0.2279  0.0991 -0.0962
15178PP      PP25282   0.444   2.678   9.874 -0.0861  0.3280  0.1677
15179PP      PP25283   2.784   5.889   1.303  0.0097 -0.1385 -0.0227
15180PP      PP25284   5.655   7.908   2.576 -0.1633 -0.1194 -0.1258
15181PP      PP25285   0.937   7.210   0.390  0.0408 -0.2789  0.1005
15182PP      PP25286  12.579   1.259   3.831  0.0497  0.1835 -0.2203
15183PP      PP25287  13.443  14.273  11.332 -0.2504  0.0889  0.0734
15184PP      PP25288   0.061  13.651  10.607  0.2384  0.1044  0.1581
15185PP      PP25289   4.869   0.310  12.252 -0.1928 -0.3821 -0.1660
15186PP      PP25290   4.034  14.983  12.231  0.0463  0.0648 -0.0520
15187PP      PP25291   3.544   3.044  12.224  0.2597 -0.1741 -0.0096
15188PP      PP25292   5.879   9.061   1.376 -0.0367 -0.2174 -0.1644
15189PP      PP25293   3.718  15.737   1.784  0.1125 -0.1610  0.1392
15190PP      PP25294  14.810   0.632   3.558 -0.2167 -0.0524  0.0829
15191PP      PP25295   9.734  10.371   3.781 -0.1131  0.2593 -0.1743
15192PP      PP25296  10.365  14.263   3.413 -0.0619  0.2414 -0.0674
15193PP      PP25297   6.197   0.345  12.652  0.2261  0.0676 -0.0086
15194PP      PP25298  11.328  12.111   9.259 -0.0268 -0.1123 -0.3243
15195PP      PP25299   7.957   8.845  10.484 -0.3152 -0.3216  0.2620
15196PP      PP25300   1.567  11.960   0.581  0.2838 -0.0949  0.3392
15197PP      PP25301   7.715   1.950   2.667 -0.0133  0.1056 -0.2340
15198PP      PP25302   5.359   4.797  12.019  0.2013 -0.0684  0.1344
15199PP      PP25303  12.311   1.670   9.427 -0.2648 -0.0818  0.1082
15200PP      PP25304   6.131   1.333   9.253  0.0214  0.2101  0.1725
15201PP      PP25305   1.682   1.768  12.658 -0.1273  0.2047  0.0858
15202PP      PP25306  10.471  13.815  10.821 -0.2005  0.1606  0.0833
15203PP      PP25307  11.647  11.072   0.252  0.2113 -0.2736 -0.1886
15204PP      PP25308   1.705  11.065   2.410 -0.3893  0.2219 -0.4433
15205PP      PP25309  10.921   0.886  12.859 -0.0557 -0.3069 -0.0714
15206PP      PP25310  13.364  11.019   1.604 -0.0239 -0.1538  0.0541
15207PP      PP25311   7.858   0.735   0.346  0.1059 -0.3172  0.0366
15208PP      PP25312   9.987   4.674  10.476  0.1677 -0.4194  0.3784
15209PP      PP25313   0.854   3.892   1.299  0.0964  0.0900 -0.3437
15210PP      PP25314   7.417   7.819   3.267  0.1875  0.2487  0.0724
15211PP      PP25315  11.216   7.861  13.479 -0.2616  0.0750 -0.0712
15212PP      PP25316   6.278   3.354   0.499  0.0533 -0.0032  0.0974
15213PP      PP25317   6.070  14.600  10.122 -0.1451 -0.0715 -0.2499
15214PP      PP25318  10.913  13.210  13.012  0.2273 -0.2596 -0.3738
15215PP      PP25319   7.854   0.623   1.503 -0.1443 -0.1676  0.0027
15216PP      PP25320   8.371   7.943   9.430 -0.1368 -0.0084 -0.1706
15217PP      PP25321   1.975   3.341   9.330 -0.0211  0.0162 -0.1924
15218PP      PP25322  13.273   5.020   0.379 -0.0719 -0.2185 -0.1590
15219PP      PP25323  14.167  10.942   0.804  0.0473  0.0463 -0.0737
15220PP      PP25324   1.044  11.340  10.880  0.4662  0.0023 -0.1756
15221PP      PP25325  15.205   2.260   1.057 -0.2270 -0.0817  0.2292
15222PP      PP25326  10.490  14.859  10.811 -0.2411  0.0794  0.0054
15223PP      PP25327   6.830  10.221  11.305 -0.0147  0.3754 -0.3226
15224PP      PP25328   4.718  10.678   4.129  0.2628  0.0096  0.1337
15225PP      PP25329  15.062   3.560   3.444 -0.1927 -0.0046  0.3629
15226PP      PP25330  14.795   9.895   3.444 -0.0918  0.0063  0.0529
15227PP      PP25331  14.172   4.168  10.986 -0.2647  0.0645  0.0849
15228PP      PP25332   3.133  11.405   8.886 -0.0270  0.0665 -0.0159
15229PP      PP25333   7.327   4.872   9.067  0.0756 -0.0556 -0.0283
15230PP      PP25334   4.190  15.160   3.477 -0.0765  0.0411  0.3523
15231PP      PP25335  13.054   8.319   1.229 -0.0580  0.0762  0.0878
15232PP      PP25336  11.453   7.637   9.443  0.1029 -0.0330  0.1078
15233PP      PP25337  12.469   1.669  12.357 -0.0706  0.0089 -0.5150
15234PP      PP25338   8.399   0.126  11.764  0.1641 -0.2575  0.4536
15235PP      PP25339   1.063   5.571  11.198 -0.2733 -0.1266  0.0514
15236PP      PP25340  11.661  11.451   3.632 -0.0515  0.1644  0.1994
15237PP      PP25341   8.526   3.367  11.918 -0.1597  0.0733  0.2753
15238PP      PP25342   9.015   9.021   2.496  0.1786 -0.3483  0.1418
15239PP      PP25343  13.118  11.120  10.341 -0.2886  0.1340 -0.0804
15240PP      PP25344  13.066  12.118   4.358  0.2163  0.0175 -0.3329
15241PP      PP25345  13.930   5.215   1.610 -0.3196  0.0688 -0.4444
15242PP      PP25346  11.302  15.842  13.138  0.1314  0.2427  0.0875
15243PP      PP25347  14.790  11.195  10.862  0.0659  0.0350  0.0449
15244PP      PP25348   6.241   9.049   1.698  0.1600 -0.0220 -0.2775
15245PP      PP25349   5.392   3.267   3.174  0.0660 -0.0249 -0.1087
15246PP      PP25350   3.932  10.286   0.552 -0.0186 -0.0250 -0.0516
15247PP      PP25351   7.639   0.114   2.446 -0.0077  0.1221  0.0617
15248PP      PP25352   0.417  11.117   2.154 -0.0722 -0.4048 -0.0407
15249PP      PP25353  14.428  15.537   9.573 -0.2335 -0.1738  0.0976
15250PP      PP25354   8.819  13.353   3.671 -0.0155 -0.1411 -0.0117
15251PP      PP25355   6.117  12.433   1.226  0.1155 -0.3512  0.3875
15252PP      PP25356   5.127  14.023   9.103 -0.0932 -0.0548  0.0216
15253PP      PP25357  10.817   3.605   3.893  0.0431 -0.2618 -0.0399
15254PP      PP25358   3.652   0.656   2.793 -0.0943  0.3300  0.3235
15255PP      PP25359  12.553   6.260  12.793  0.1103  0.2264  0.1184
15256PP      PP25360   0.166   6.567  12.932 -0.0154 -0.3421  0.0938
15257PP      PP25361  14.319   6.411   0.855 -0.1397 -0.0168  0.1644
15258PP      PP25362   5.784   2.406  10.331  0.1723 -0.0712  0.0367
15259PP      PP25363   1.690   8.597   4.126 -0.1213 -0.0734 -0.0324
15260PP      PP25364   2.947   8.345   3.251  0.3004  0.2747 -0.1554
15261PP      PP25365  10.851   1.666   3.409  0.2318  0.0576  0.0502
15262PP      PP25366  15.760   5.004   0.498  0.1325  0.0757  0.1567
15263PP      PP25367   5.462  12.334  11.043 -0.1191  0.3095  0.0623
15264PP      PP25368   9.965  14.822   2.452 -0.3509  0.1801 -0.0450
15265PP      PP25369  10.469   9.243   3.090  0.3022 -0.0825  0.0829
15266PP      PP25370   0.191  14.913  12.935 -0.0300  0.0900 -0.2010
15267PP      PP25371   8.642   1.121   9.758 -0.3720  0.0312  0.1868
15268PP      PP25372   0.620  13.436  12.636 -0.4579  0.1626  0.0402
15269PP      PP25373   5.490   0.847   0.459  0.1549 -0.0706  0.1085
15270PP      PP25374  10.158   6.040   3.443 -0.1825 -0.1720  0.0351
15271PP      PP25375   1.441  14.298  13.362 -0.1049  0.0621 -0.3507
15272PP      PP25376   5.400   6.462  12.897  0.1221 -0.1620 -0.0328
15273PP      PP25377  13.066  11.034  11.621 -0.1580  0.0419  0.3032
15274PP      PP25378  13.477   4.038   0.757 -0.0697 -0.0203 -0.0784
15275PP      PP25379  15.612  11.072   1.014 -0.2130  0.0254 -0.2307
15276PP      PP25380   6.521   7.484   0.844  0.3491  0.1040 -0.2619
15277PP      PP25381  14.247   7.390  11.040  0.1771  0.2600 -0.1764
15278PP      PP25382  15.065   9.165  10.555 -0.1172 -0.1812 -0.1307
15279PP      PP25383   0.007   6.573  13.475 -0.0423  0.1255  0.0160
15280PP      PP25384   3.745  13.049   2.771 -0.1323 -0.0777 -0.1151
15281PP      PP25385   0.555   9.086   2.516  0.2843 -0.1002 -0.4234
15282PP      PP25386  11.858  14.944  12.839 -0.1098  0.1296  0.4710
15283PP      PP25387   7.348   6.904   9.090 -0.1448 -0.2923  0.0430
15284PP      PP25388   8.185   9.839  13.157  0.0073 -0.0531 -0.1121
15285PP      PP25389  12.500  15.035  12.181 -0.1614  0.0090  0.1452
15286PP      PP25390  15.554   2.714   0.519  0.0580 -0.0247 -0.2920
15287PP      PP25391  11.063   7.788  12.973  0.2690 -0.0570  0.1365
15288PP      PP25392   8.487   8.520   3.242 -0.2161 -0.2839  0.1727
15289PP      PP25393   1.869   5.771  10.914 -0.2103 -0.0084  0.0586
15290PP      PP25394  14.264   4.534   2.272  0.1056 -0.0193 -0.1159
15291PP      PP25395   0.854   7.680   9.316 -0.0129 -0.1712 -0.2608
15292PP      PP25396   3.975   4.289  10.659  0.4331 -0.2174  0.2552
15293PP      PP25397  13.645   9.378  12.610  0.1100 -0.1831  0.0867
15294PP      PP25398   7.747  14.576  12.018 -0.1339  0.3731 -0.0724
15295PP      PP25399  15.688   6.093  11.555 -0.0590 -0.1415 -0.0808
15296PP      PP25400   8.362  13.759  11.133 -0.0828 -0.2384  0.1076
15297PP      PP25401   2.553  12.804   3.781 -0.0596 -0.0289  0.0211
15298PP      PP25402   4.223  13.884  12.960  0.1971 -0.0533  0.2146
15299PP      PP25403  12.159   5.877   2.886  0.0582 -0.0809  0.1730
15300PP      PP25404   8.643   8.802   8.755  0.0030 -0.1637  0.0752
15301PP      PP25405   8.130   0.905  12.087  0.0725  0.2647  0.3487
15302PP      PP25406   6.086   4.872   9.844 -0.2016 -0.1344 -0.0846
15303PP      PP25407   8.166   6.126   8.760  0.0944 -0.0735 -0.1626
15304PP      PP25408   7.335   0.218   2.844  0.0786 -0.4669  0.1501
15305PP      PP25409   0.660  14.654   2.327  0.0826 -0.2498  0.1548
15306PP      PP25410  13.887   6.770   2.237  0.0001 -0.0799  0.1063
15307PP      PP25411   0.458  12.242   9.750  0.0375 -0.1691 -0.0046
15308PP      PP25412   4.964  14.446  10.539 -0.1303  0.0686 -0.1192
15309PP      PP25413   3.373   3.694  11.662 -0.1152  0.2585 -0.3210
15310PP      PP25414  15.296   9.239   3.230  0.0861 -0.1465  0.2842
15311PP      PP25415   1.281   3.824  11.131 -0.1616  0.1796  0.0640
15312PP      PP25416  10.817   1.076  10.136 -0.0778  0.2983 -0.2331
15313PP      PP25417   5.385   9.264   1.412  0.0542 -0.0334 -0.1065
15314PP      PP25418   7.071  14.058  12.828 -0.0376 -0.1006 -0.0803
15315PP      PP25419  15.033   2.914   9.181  0.3408  0.0497  0.0626
15316PP      PP25420  12.054   6.368  12.123  0.0861 -0.0464 -0.0007
15317PP      PP25421  12.539   3.196   3.305 -0.2327 -0.1609 -0.1272
15318PP      PP25422  15.063   3.222   3.075  0.0464  0.0951 -0.1237
15319PP      PP25423  11.946  13.244   3.387 -0.0796 -0.0164 -0.0578
15320PP      PP25424   3.460   6.485   9.213 -0.1440 -0.0643 -0.0991
15321PP      PP25425  13.962  10.996   3.502  0.0845  0.0806  0.3123
15322PP      PP25426   8.177   0.498   4.330 -0.3699  0.1315 -0.2031
15323PP      PP25427  11.581   5.699   0.666 -0.0526  0.0189 -0.0489
15324PP      PP25428   5.019   0.335  10.790 -0.3900 -0.0516  0.0436
15325PP      PP25429  12.673  11.337   3.191 -0.0979  0.2424  0.3769
15326PP      PP25430   0.938   2.801  13.155 -0.0782 -0.1205 -0.5508
15327PP      PP25431   0.640   5.142   3.141 -0.0526  0.0000  0.1294
15328PP      PP25432  11.146   1.940   2.724 -0.0757 -0.0096 -0.1496
15329PP      PP25433   3.396   4.199   9.331  0.4933  0.0358 -0.2932
15330PP      PP25434   4.048   6.030  12.782 -0.0257 -0.1830  0.0895
15331PP      PP25435  11.199   0.520   1.474 -0.1280  0.0729  0.1568
15332PP      PP25436   9.127   0.724  11.958  0.0712 -0.0693 -0.1021
15333PP      PP25437  12.812   1.361   0.701  0.0232  0.1029  0.0945
15334PP      PP25438  13.842   3.904  12.135 -0.1086  0.0280  0.0422
15335PP      PP25439   4.327   8.473   1.188  0.1834 -0.2361 -0.1298
15336PP      PP25440   0.453  10.909   3.651 -0.2199  0.0483 -0.1550
15337PP      PP25441  14.838  10.895   9.903  0.0686 -0.1137  0.2124
15338PP      PP25442   6.650  12.930   1.212  0.0501 -0.1136  0.0966
15339PP      PP25443   1.842   8.452   3.567 -0.0465 -0.2725 -0.1093
15340PP      PP25444   0.098  12.563  12.066  0.0939  0.0760 -0.3216
15341PP      PP25445  12.073  10.476   2.631  0.5025 -0.0092  0.2008
15342PP      PP25446  10.536   4.350   0.121  0.0081  0.3017 -0.1243
15343PP      PP25447  14.899   5.135   2.744  0.0363  0.1182 -0.2467
15344PP      PP25448  11.239  14.900   0.564 -0.4055  0.0617 -0.1676
15345PP      PP25449   8.827   0.299  10.048 -0.1677 -0.1076  0.0333
15346PP      PP25450   1.491  11.387  10.172  0.0160 -0.1781  0.3663
15347PP      PP25451   9.287   2.631   5.194 -0.1404  0.0341  0.3305
15348PP      PP25452   8.998   4.669   0.206 -0.1909  0.0669 -0.1945
15349PP      PP25453   2.518  14.122   9.598 -0.3693 -0.2437  0.1164
15350PP      PP25454  13.848   4.466   0.609  0.0768  0.1445  0.2528
15351PP      PP25455   2.350  15.431   9.875  0.0214 -0.2357  0.3778
15352PP      PP25456  14.776   2.874   0.043 -0.2639 -0.0270  0.0909
15353PP      PP25457   6.500   2.125   1.255 -0.2047  0.2949 -0.3576
15354PP      PP25458  15.753  10.729  12.524  0.0268  0.3308 -0.2349
15355PP      PP25459  11.792   2.030   3.755 -0.0256 -0.0437 -0.0713
15356PP      PP25460  14.900  13.232   0.831 -0.2839 -0.2481  0.0416
15357PP      PP25461   7.123   5.416   9.877 -0.0270  0.1073 -0.1470
15358PP      PP25462   8.945  11.966  10.292 -0.3349  0.0288 -0.0354
15359PP      PP25463  14.057  15.293   3.636  0.1070 -0.2670  0.2333
15360PP      PP25464   9.651  15.065   3.431  0.0569 -0.1533  0.0582
15361PP      PP25465   9.254   0.908   1.204 -0.0742  0.3044 -0.1025
15362PP      PP25466   5.996   5.009   1.065  0.0217 -0.0272 -0.1021
15363PP      PP25467   6.224   2.324  10.535 -0.1774 -0.1266  0.1784
15364PP      PP25468   2.571  15.844  11.571  0.3686 -0.2849  0.3509
15365PP      PP25469  14.576   0.612  12.517 -0.3316 -0.0682 -0.3609
15366PP      PP25470   4.974  14.402   2.742  0.2041  0.0216 -0.5943
15367PP      PP25471   3.313  11.175   1.485  0.1038 -0.0579  0.2540
15368PP      PP25472   5.587  11.694  12.614 -0.0556 -0.3493 -0.1104
15369PP      PP25473   0.144  12.738  11.207  0.2125  0.3265 -0.1440
15370PP      PP25474  13.958   7.999   8.785 -0.0077 -0.2290 -0.2692
15371PP      PP25475   7.396   8.706   8.497  0.0130  0.1873  0.2896
15372PP      PP25476   7.617  11.682  13.050 -0.0783 -0.0379  0.1607
15373PP      PP25477   4.339  15.425   2.286  0.0728 -0.0286 -0.0218
15374PP      PP25478   6.355  12.873  12.267 -0.0588 -0.2887 -0.0823
15375PP      PP25479   2.560  10.210   2.152 -0.0472  0.1634  0.2841
15376PP      PP25480  14.938   8.437  13.470 -0.1530  0.4337  0.1673
15377PP      PP25481   3.967  13.145  12.780  0.1676  0.2755  0.0343
15378PP      PP25482   7.583   0.342  13.287  0.0694  0.4112  0.2216
15379PP      PP25483  13.372  12.696   1.736 -0.1020 -0.0932 -0.2898
15380PP      PP25484   5.269   6.372  10.232 -0.3460 -0.1410 -0.2472
15381PP      PP25485   6.647   2.950   2.933  0.0073  0.1238 -0.0409
15382PP      PP25486   4.784   1.794  11.493 -0.1145 -0.0426  0.0138
15383PP      PP25487  14.555   5.559  11.814 -0.1033 -0.0950  0.3652
15384PP      PP25488   7.984  15.675   3.798  0.0379  0.0498  0.2736
15385PP      PP25489  13.535  10.057   0.666 -0.1651  0.0748 -0.0764
15386PP      PP25490  15.788   5.977   0.802 -0.1108  0.0478  0.2819
15387PP      PP25491   3.171   1.366  11.646 -0.0350 -0.0893  0.1003
15388PP      PP25492  10.425   3.802   3.686 -0.0327 -0.0010  0.0093
15389PP      PP25493   0.092  10.547   2.787 -0.2228  0.0863 -0.1629
15390PP      PP25494  14.430   8.373  12.324  0.2347  0.1265 -0.0915
15391PP      PP25495  12.624  14.463   4.540 -0.0137 -0.0708 -0.0856
15392PP      PP25496   7.737  14.238   8.713 -0.0984 -0.0103 -0.0416
15393PP      PP25497   5.534   8.531  13.119  0.1110 -0.1582 -0.1177
15394PP      PP25498   0.936   7.281  10.946 -0.2322  0.2541 -0.0268
15395PP      PP25499   8.382   1.077  12.505 -0.1655  0.1230 -0.3307
15396PP      PP25500  15.528  13.034  11.166 -0.0712 -0.1117 -0.0022
15397PP      PP25501   1.538   1.140   1.904  0.1043  0.0551 -0.2870
15398PP      PP25502  10.520  14.441   0.001  0.3417  0.1369 -0.2662
15399PP      PP25503   1.731   3.633  12.209 -0.1867 -0.1370 -0.1209
15400PP      PP25504   4.215   4.160  11.541 -0.1962 -0.2209 -0.2105
15401PP      PP25505   7.050  10.235   0.542 -0.1506 -0.3762  0.1812
15402PP      PP25506  14.789   1.007  12.374  0.0519  0.1424  0.0796
15403PP      PP25507   9.286  12.672   4.719 -0.1520 -0.1244 -0.1367
15404PP      PP25508   0.168  10.564   0.523 -0.0553  0.0034 -0.0656
15405PP      PP25509  15.318  14.476   9.371 -0.1436  0.0402  0.2227
15406PP      PP25510   6.158   9.239   0.358 -0.1622  0.0317 -0.0112
15407PP      PP25511   7.494   4.430   3.725  0.1515 -0.1306  0.2211
15408PP      PP25512  15.557  10.458  11.021 -0.0829 -0.2146 -0.1323
15409PP      PP25513  13.585  12.086   3.942 -0.2971  0.1256  0.1726
15410PP      PP25514   3.748  15.480   2.180 -0.2023  0.2661  0.0964
15411PP      PP25515   6.120   3.098   1.865 -0.3185 -0.0866 -0.1055
15412PP      PP25516  14.487   9.425   2.810 -0.3651  0.3191  0.0774
15413PP      PP25517   7.352  12.658  12.422  0.3850 -0.0737  0.3953
15414PP      PP25518   9.790   7.344   0.045 -0.2749 -0.1868 -0.0915
15415PP      PP25519   6.409   9.849   1.469 -0.0531 -0.0575 -0.3549
15416PP      PP25520   3.347  12.380   8.580 -0.0436 -0.2758  0.0388
15417PP      PP25521   1.385   1.497  11.197  0.0547 -0.0297 -0.2254
15418PP      PP25522   0.166  12.439   0.077  0.3977  0.1299  0.1667
15419PP      PP25523  12.979   6.924  10.158 -0.1904 -0.2659  0.1110
15420PP      PP25524  10.152  14.109   3.851  0.1606 -0.2861  0.1182
15421PP      PP25525  14.590   3.622   8.701  0.1175  0.1044 -0.0782
15422PP      PP25526   9.672  11.804   2.486 -0.0492  0.0871  0.1476
15423PP      PP25527  13.689   9.238   0.935 -0.2532  0.2722  0.3071
15424PP      PP25528   5.844   2.867  10.544  0.1441  0.0096  0.1440
15425PP      PP25529   8.144  15.508  11.455 -0.0305  0.0006 -0.5237
15426PP      PP25530   3.201  10.903  13.052  0.1280  0.3353  0.0200
15427PP      PP25531  11.687   1.184   0.535 -0.0417  0.0414 -0.0597
15428PP      PP25532   1.227   5.118  12.528 -0.2381 -0.3256 -0.0945
15429PP      PP25533  13.069   7.372   8.810 -0.3824  0.1975  0.0531
15430PP      PP25534  10.552   0.012   1.205 -0.0235 -0.1313 -0.0408
15431PP      PP25535  11.797   1.388  12.738  0.0081  0.0259  0.2694
15432PP      PP25536   7.403   8.237   1.711 -0.0130 -0.0958 -0.2026
15433PP      PP25537  13.925  11.561   8.728  0.0396 -0.2650 -0.0137
15434PP      PP25538   2.427   6.087   3.960  0.1787  0.1532  0.3326
15435PP      PP25539   2.926   1.183  12.411 -0.0969 -0.3955  0.2349
15436PP      PP25540   2.037   0.738   3.530  0.4035  0.0281 -0.3538
15437PP      PP25541   7.692   8.065   2.272 -0.0682 -0.0523 -0.0033
15438PP      PP25542  11.454   8.130   1.511 -0.1523  0.0747  0.1020
15439PP      PP25543   6.090   5.797   3.491 -0.1731 -0.3619  0.0075
15440PP      PP25544   8.126   4.729   9.121  0.1448  0.1221 -0.0075
15441PP      PP25545   5.014   0.041   0.507  0.2029  0.2959 -0.0611
15442PP      PP25546   8.792   8.871   9.319 -0.1707  0.0000  0.0090
15443PP      PP25547   3.888  15.593   3.650  0.0109 -0.0303  0.3124
15444PP      PP25548   4.951   6.307  10.637  0.1551 -0.0247  0.1330
15445PP      PP25549  15.476   7.221   8.688  0.1436 -0.3249  0.0629
15446PP      PP25550  15.750  10.998  10.769  0.0804 -0.0163 -0.0847
15447PP      PP25551  10.715   1.354  12.748  0.0872  0.4207  0.1535
15448PP      PP25552   9.140  12.585   9.680 -0.1305 -0.1171 -0.0472
15449PP      PP25553  15.748   1.183  12.711 -0.0505  0.3853 -0.2102
15450PP      PP25554  10.446  13.451  10.398  0.1144 -0.2855  0.0192
15451PP      PP25555  14.981  15.622  12.982  0.1052 -0.2401  0.0028
15452PP      PP25556   3.845   4.841   3.306 -0.3060  0.0279  0.1401
15453PP      PP25557   8.461   3.905   9.138  0.1495 -0.1542 -0.1770
15454PP      PP25558   8.087   5.735  11.687 -0.2082 -0.4361 -0.1528
15455PP      PP25559   1.952   7.957   1.934  0.0375  0.1755  0.0243
15456PP      PP25560  15.021  14.676   2.929  0.3025  0.0749  0.1824
15457PP      PP25561   8.337   8.463   8.867  0.1228 -0.3750 -0.0507
15458PP      PP25562   0.647   2.053   3.386  0.1429 -0.0780  0.1062
15459PP      PP25563  11.687   6.841  11.154 -0.1047  0.2881 -0.0052
15460PP      PP25564   6.916   9.009   3.533 -0.1259 -0.5827 -0.0456
15461PP      PP25565   0.702  15.553   0.724 -0.2281  0.2612  0.0142
15462PP      PP25566   7.221   7.317  11.697 -0.2494 -0.0160  0.1248
15463PP      PP25567   7.662   2.711   4.718  0.0795 -0.2028  0.1283
15464PP      PP25568  13.373  14.895   9.036 -0.1064  0.1410 -0.0725
15465PP      PP25569   0.134  14.979   0.871 -0.1692  0.1290 -0.5143
15466PP      PP25570   7.958   9.996   9.365 -0.1223  0.0727 -0.0308
15467PP      PP25571   1.700  10.618   2.581  0.2433  0.1615 -0.1497
15468PP      PP25572  10.271   0.745   9.245 -0.0582 -0.1455 -0.0248
15469PP      PP25573   9.209  11.761   2.190 -0.3039 -0.0153  0.0042
15470PP      PP25574   5.891   7.303   0.269 -0.6320 -0.4439 -0.1609
15471PP      PP25575  12.081   1.695  10.255 -0.0940 -0.2572 -0.1163
15472PP      PP25576   9.423   8.557  10.126 -0.0494 -0.2329 -0.0635
15473PP      PP25577   0.231  12.815   3.857  0.3833  0.2058 -0.0278
15474PP      PP25578   9.885   6.508   9.088 -0.1094 -0.2691  0.0840
15475PP      PP25579  11.385   9.951   9.854  0.2415 -0.2143  0.0476
15476PP      PP25580  15.794   3.946   2.784  0.1183  0.0594 -0.1613
15477PP      PP25581  10.950   6.472   9.173  0.0003 -0.0324 -0.0024
15478PP      PP25582  13.077   2.722   0.578  0.2229  0.1838 -0.3360
15479PP      PP25583   1.698   4.490  11.554  0.0379  0.1849 -0.0522
15480PP      PP25584  10.607  12.472   9.883  0.1138  0.1178  0.0817
15481PP      PP25585   4.801   9.377  11.727 -0.1392 -0.0098 -0.0784
15482PP      PP25586   2.632  15.353  10.346  0.1733  0.2170 -0.1985
15483PP      PP25587  15.382   2.480   2.750 -0.4561 -0.0014  0.0310
15484PP      PP25588   6.561   7.915  12.003 -0.2291 -0.2586 -0.0130
15485PP      PP25589  11.626   0.276  12.142 -0.2197  0.2449 -0.1119
15486PP      PP25590  15.493  13.625   1.621 -0.1181 -0.2169  0.0587
15487PP      PP25591  10.151   0.660   5.503 -0.0487 -0.0658 -0.0680
15488PP      PP25592  13.436   1.414   0.000  0.0991  0.1259 -0.1229
15489PP      PP25593  13.301   5.085   1.435 -0.3056 -0.1289 -0.2812
15490PP      PP25594   9.866  11.386   0.085 -0.1171 -0.1326 -0.4026
15491PP      PP25595  15.597   0.688   4.536  0.0731 -0.0023 -0.1916
15492PP      PP25596   7.236   6.699   3.632  0.2918  0.2920 -0.0904
15493PP      PP25597  13.159   7.690   0.428 -0.0661 -0.0194  0.0423
15494PP      PP25598   1.151  14.453   4.053 -0.4832 -0.1194 -0.0997
15495PP      PP25599   5.589   4.852   0.358  0.0046  0.2393 -0.2383
15496PP      PP25600  12.047  10.049   4.352  0.1065 -0.2516 -0.0674
15497PP      PP25601  13.194  13.876  12.996  0.0900 -0.2385 -0.2926
15498PP      PP25602   8.282   3.465   4.144  0.1172 -0.0318  0.4435
15499PP      PP25603   1.200   0.293   4.525  0.0065  0.1921 -0.2003
15500PP      PP25604   7.392   4.233   8.848  0.0600  0.2022  0.0622
15501PP      PP25605   3.991   6.964  10.807  0.1243 -0.0092 -0.2622
15502PP      PP25606  12.635  13.521   2.071 -0.3927  0.0738 -0.0160
15503PP      PP25607   6.755  12.450  10.169 -0.1914 -0.1940 -0.1437
15504PP      PP25608   0.833   2.598   4.592  0.2860  0.3061 -0.0881
15505PP      PP25609   7.385   0.421   4.795  0.1298 -0.0052  0.0417
15506PP      PP25610   1.806  15.471   0.123  0.0349  0.0457 -0.0751
15507PP      PP25611  11.272   0.263   5.472 -0.1669  0.3921 -0.0494
15508PP      PP25612  10.237  13.567  13.343 -0.2065  0.0622 -0.0115
15509PP      PP25613   7.391   5.178   2.634  0.1124  0.0919  0.0253
15510PP      PP25614  12.528   0.024  10.059 -0.0187  0.0478  0.0719
15511PP      PP25615   4.038  12.866   3.354 -0.1596  0.3262 -0.2141
15512PP      PP25616   6.456  10.539   4.697  0.0610  0.0289  0.1715
15513PP      PP25617  14.466  13.688   1.188 -0.1740 -0.0535  0.0438
15514PP      PP25618  13.805   0.067  11.577  0.2092  0.1512  0.1011
15515PP      PP25619  13.624  14.338   1.565 -0.2001  0.0514  0.1653
15516PP      PP25620   8.482   5.234  13.181 -0.1169  0.0156 -0.4556
15517PP      PP25621   0.252   9.072   2.961 -0.1196  0.3708  0.1879
15518PP      PP25622  12.973   1.563  12.269  0.0969 -0.1703  0.1369
15519PP      PP25623   4.319   1.494   0.415 -0.2877 -0.0774  0.0146
15520PP      PP25624   2.479  14.465  10.534 -0.1772  0.0185 -0.1737
15521PP      PP25625   6.513   4.664  10.784  0.2909  0.0770  0.0906
15522PP      PP25626   9.538   1.403   4.787  0.0254 -0.0092  0.1790
15523PP      PP25627  14.550  10.205  11.059  0.1055  0.2802  0.1571
15524PP      PP25628   6.899   7.235  10.475 -0.0961 -0.0211 -0.0326
15525PP      PP25629   6.039   5.917   8.386  0.3397  0.0067  0.0657
15526PP      PP25630   9.301   9.621   0.983  0.1763  0.2060 -0.4931
15527PP      PP25631  10.322   1.142   5.233 -0.0777 -0.1326  0.6126
15528PP      PP25632  15.695   5.229   2.656 -0.1480  0.0895  0.0148
15529PP      PP25633   7.096   5.929  12.368 -0.2618 -0.0612 -0.0990
15530PP      PP25634   7.789   0.958   9.542  0.0879 -0.0961  0.1141
15531PP      PP25635   9.597  10.874   0.455 -0.1728  0.0686 -0.2878
15532PP      PP25636   5.128  11.531  12.628 -0.1702 -0.1755  0.1443
15533PP      PP25637  12.089   4.876   3.173  0.1587 -0.0263  0.1753
15534PP      PP25638   5.243   6.148   0.492  0.0287 -0.2778 -0.0883
15535PP      PP25639   2.646  14.902   3.988 -0.0277  0.0045 -0.2145
15536PP      PP25640  14.727   0.842   9.159 -0.2223  0.0442  0.1486
15537PP      PP25641   4.272   8.183   0.435 -0.0809 -0.2343 -0.0400
15538PP      PP25642   6.073   0.901   9.536 -0.1843 -0.0249  0.1341
15539PP      PP25643   0.058   5.242  13.172  0.2889  0.1868 -0.0761
15540PP      PP25644  15.747  11.927  11.416 -0.0685  0.0037 -0.1511
15541PP      PP25645   3.860  10.761   2.160 -0.1881 -0.3205 -0.4203
15542PP      PP25646  13.002   0.979   9.996  0.1844 -0.0823 -0.0174
15543PP      PP25647   7.666  12.620   3.859 -0.1766 -0.1145 -0.0313
15544PP      PP25648  14.461   6.104   2.148  0.1121 -0.0756 -0.2034
15545PP      PP25649  10.425  13.158   3.308  0.2542  0.1083 -0.2997
15546PP      PP25650  14.581   5.970   9.108 -0.0967 -0.2997  0.3513
15547PP      PP25651   9.694   1.956   2.313 -0.0926 -0.2604 -0.2978
15548PP      PP25652  11.006  11.389  12.038 -0.2294 -0.1980 -0.2991
15549PP      PP25653   4.238   2.834  12.861 -0.1024 -0.2273 -0.1234
15550PP      PP25654   2.841  10.497  11.201  0.0074  0.1739  0.2466
15551PP      PP25655  11.781  13.979   1.914  0.0506  0.1154  0.2549
15552PP      PP25656  10.869  12.963  11.311 -0.2594 -0.0832 -0.1325
15553PP      PP25657   3.169   5.288   2.207  0.2612  0.2468 -0.2207
15554PP      PP25658  10.649  14.426  10.058  0.2708  0.1614  0.1978
15555PP      PP25659   5.142   6.490   2.838  0.3005 -0.1531 -0.3149
15556PP      PP25660  14.660  12.753   0.758  0.0141  0.0741  0.0500
15557PP      PP25661   5.777   3.919   0.461  0.3554  0.0031 -0.0036
15558PP      PP25662  12.832   3.266   0.623  0.1309 -0.1736 -0.0495
15559PP      PP25663   5.600   9.178  13.118  0.2405 -0.0530  0.2069
15560PP      PP25664  14.608  15.415  10.201  0.0212  0.4107 -0.1454
15561PP      PP25665   0.132   3.419   3.290  0.1376 -0.2900  0.0745
15562PP      PP25666   9.294   6.251   3.233 -0.1254 -0.2413  0.0436
15563PP      PP25667  13.992   6.875  11.772  0.0835  0.0422 -0.1436
15564PP      PP25668   3.879   9.867   9.418  0.0025  0.3884  0.1296
15565PP      PP25669  14.925   6.006  13.511  0.0413  0.0415 -0.3646
15566PP      PP25670   3.234  11.610   8.297  0.3864 -0.0175  0.1630
15567PP      PP25671   6.578  14.698   3.642  0.0747  0.1883  0.1434
15568PP      PP25672  15.457   5.351   2.130 -0.3426  0.2194  0.1413
15569PP      PP25673   1.343  14.337  12.564  0.0768  0.0104 -0.1415
15570PP      PP25674   6.553  10.217   1.858 -0.1380  0.0196 -0.0780
15571PP      PP25675   3.310  10.910   1.061  0.0586 -0.0070 -0.2967
15572PP      PP25676   9.246   2.117   5.132 -0.0583  0.1955 -0.0849
15573PP      PP25677   6.527   8.147  12.843  0.0598 -0.1351  0.0029
15574PP      PP25678   7.754   6.733   9.328 -0.2928  0.2008  0.2422
15575PP      PP25679   6.591   8.493   9.158 -0.4697  0.0188 -0.2167
15576PP      PP25680   7.853   6.521  10.805  0.0961 -0.3743  0.2865
15577PP      PP25681   9.321  14.504  11.509 -0.1678 -0.2317 -0.1458
15578PP      PP25682   8.447   6.076   3.623  0.0982 -0.0380  0.0648
15579PP      PP25683   8.046  13.346   3.899 -0.1509  0.2660 -0.2447
15580PP      PP25684  13.859   8.933   0.539 -0.2326 -0.1082 -0.1503
15581PP      PP25685   6.107  11.988   1.590  0.1431 -0.0380 -0.1391
15582PP      PP25686   5.573  12.908   3.654  0.0187 -0.0108  0.2607
15583PP      PP25687  14.840   6.498  10.978  0.2213 -0.2493  0.0406
15584PP      PP25688   8.707  10.178   0.447  0.1030  0.0601 -0.0250
15585PP      PP25689  12.624   8.116  11.936 -0.1382  0.2525 -0.2265
15586PP      PP25690   2.075   2.297   4.723 -0.1277 -0.0417 -0.0567
15587PP      PP25691   8.890   8.464  12.822 -0.1053  0.1425 -0.0539
15588PP      PP25692  15.506  12.236   2.246 -0.0021  0.3471  0.2526
15589PP      PP25693   2.192   7.119   9.803  0.0346  0.0736 -0.1091
15590PP      PP25694   3.448  14.656   9.829  0.2867  0.2573 -0.2139
15591PP      PP25695   4.038  15.499   1.200 -0.1142 -0.0360  0.1276
15592PP      PP25696   1.966  10.003   8.885  0.0324 -0.0880  0.1505
15593PP      PP25697  12.388  13.550   4.321  0.1544 -0.1485  0.0618
15594PP      PP25698   6.474   4.321   9.687 -0.4853 -0.1417  0.1001
15595PP      PP25699  14.512  12.511  11.893  0.2540 -0.1259  0.0167
15596PP      PP25700  15.223  11.067  11.066 -0.1798 -0.0787  0.0605
15597PP      PP25701   6.327   8.909  10.382 -0.0502  0.1707  0.1996
15598PP      PP25702  14.549   2.861   3.718  0.0604  0.1764  0.0756
15599PP      PP25703   5.316   4.416   1.289 -0.0451  0.0806 -0.3284
15600PP      PP25704  13.381  11.528   8.858  0.0777 -0.2402  0.4380
15601PP      PP25705  15.331  14.482  13.132 -0.2772 -0.0491 -0.3298
15602PP      PP25706   8.120  11.441  11.480  0.1795  0.3245 -0.0884
15603PP      PP25707   4.053   8.149  11.596 -0.1042 -0.1692  0.1318
15604PP      PP25708   4.740   8.425  10.062 -0.0818 -0.0312  0.0796
15605PP      PP25709   6.280   9.191   2.685  0.0779  0.0202  0.0582
15606PP      PP25710  11.349   1.808   3.474 -0.0903 -0.1948  0.0231
15607PP      PP25711  12.926   6.731   3.377  0.2882 -0.2440  0.0560
15608PP      PP25712  12.100   0.663   1.206  0.2277  0.0963  0.0576
15609PP      PP25713   7.555   5.012   0.113  0.0106  0.0489 -0.0364
15610PP      PP25714   4.315  11.526  13.435  0.0230  0.2001  0.2243
15611PP      PP25715   3.558   9.811   8.481 -0.0348  0.3231 -0.2442
15612PP      PP25716   6.575   3.422  12.657 -0.2321  0.1277  0.0675
15613PP      PP25717  14.594   0.502  10.216  0.1689 -0.0609 -0.0408
15614PP      PP25718  15.566   5.689   0.436  0.1608 -0.1610  0.2275
15615PP      PP25719   5.288   9.819   1.480  0.3328 -0.2797 -0.0963
15616PP      PP25720  10.099  12.305   1.167  0.2462 -0.3721 -0.0762
15617PP      PP25721   6.361  13.901   2.921 -0.1106  0.0604  0.0272
15618PP      PP25722  14.543  14.942   4.448 -0.0860  0.0135 -0.1191
15619PP      PP25723  15.706  12.538  11.643  0.2727  0.0262 -0.0350
15620PP      PP25724  12.748   5.783  12.663  0.3979 -0.3583  0.1017
15621PP      PP25725   9.183   8.150   0.487 -0.1286 -0.1307 -0.2316
15622PP      PP25726   8.510  13.063   9.872 -0.0493 -0.0600 -0.2349
15623PP      PP25727  13.620  13.517   2.130 -0.1566 -0.0914 -0.1653
15624PP      PP25728   2.444  14.469  12.521  0.1670 -0.1459 -0.3303
15625PP      PP25729   8.068   2.917   0.033 -0.2103 -0.0754 -0.1598
15626PP      PP25730  15.781   9.282   3.273 -0.2875 -0.1999  0.0056
15627PP      PP25731   8.737  14.388  12.909  0.1720 -0.0785 -0.0474
15628PP      PP25732   0.481  15.303  11.491 -0.2418  0.2559 -0.1123
15629PP      PP25733   3.651   7.472  10.209 -0.0048  0.4244  0.1535
15630PP      PP25734   6.194  15.368   9.463 -0.0457 -0.1548  0.0001
15631PP      PP25735  13.287  15.233   4.173  0.1215 -0.0835 -0.3027
15632PP      PP25736  13.566   5.629   0.632  0.1613  0.0287  0.1167
15633PP      PP25737   9.661   9.764   9.143  0.1365 -0.3386 -0.0975
15634PP      PP25738   6.026   7.284   1.716  0.2576  0.0442 -0.3101
15635PP      PP25739  10.889  11.009  13.083 -0.0922 -0.2832  0.2430
15636PP      PP25740   2.549   5.953  10.396  0.0051  0.3007  0.0315
15637PP      PP25741   5.875   8.006  12.821 -0.1876  0.1423 -0.0568
15638PP      PP25742   1.825   3.676   1.113 -0.2118  0.2148 -0.0062
15639PP      PP25743  11.168  10.336   1.025 -0.0985  0.0859  0.0942
15640PP      PP25744   6.229   6.245   0.422  0.0565  0.1609 -0.2537
15641PP      PP25745   3.191  12.540  11.055  0.0531 -0.2027 -0.3089
15642PP      PP25746   7.706  10.615   1.362  0.0115  0.3931 -0.0465
15643PP      PP25747  14.128   4.899   2.689  0.0088  0.1043 -0.4061
15644PP      PP25748   8.718   8.244  10.530  0.1046  0.1830  0.0680
15645PP      PP25749   0.195   7.535  11.754 -0.0638  0.1284 -0.3482
15646PP      PP25750   0.503   0.408  12.036 -0.0409 -0.0027  0.3761
15647PP      PP25751   8.905   4.628   3.803  0.4017 -0.0428  0.0915
15648PP      PP25752   3.292   5.915  11.146 -0.0623 -0.2203  0.1301
15649PP      PP25753  11.746   4.015  12.402  0.1745  0.0625 -0.0531
15650PP      PP25754   0.224   5.174   9.943  0.1708 -0.3402  0.1274
15651PP      PP25755   9.432  12.541   3.829  0.1789  0.0477 -0.1582
15652PP      PP25756   2.292  13.344   9.331  0.0705 -0.1968  0.0444
15653PP      PP25757   9.739   2.956   9.787 -0.0025  0.0358 -0.1199
15654PP      PP25758   3.372   4.454  10.442 -0.0246  0.2369  0.0510
15655PP      PP25759   7.398   0.723   0.827 -0.2655 -0.2307 -0.2004
15656PP      PP25760   6.342   5.324  12.284 -0.1386 -0.1433 -0.2033
15657PP      PP25761  14.416   1.101  10.939  0.2320  0.1556  0.0114
15658PP      PP25762   4.512   5.033   9.049  0.2050  0.1091 -0.1502
15659PP      PP25763  10.078   1.998   0.380  0.0846 -0.2258 -0.0531
15660PP      PP25764   2.348  12.512   9.079 -0.3035 -0.2070 -0.0282
15661PP      PP25765   7.697   5.395  11.629 -0.4067 -0.1863  0.0771
15662PP      PP25766   7.586   1.403  10.643  0.1129 -0.1559 -0.0766
15663PP      PP25767   1.683  10.649   2.072  0.0507  0.0361  0.2018
15664PP      PP25768  12.784   8.669  10.479 -0.0111 -0.2653 -0.4386
15665PP      PP25769  11.266   7.820  10.015  0.1234 -0.0034 -0.1741
15666PP      PP25770   7.607   4.997   4.038  0.2383  0.1466  0.0419
15667PP      PP25771   1.637   0.469   0.186  0.0492 -0.0486  0.2607
15668PP      PP25772   7.175  11.587   4.885  0.1625  0.0985  0.1263
15669PP      PP25773   3.671   4.478   3.921  0.0669  0.0403 -0.0410
15670PP      PP25774  14.555   4.569   1.135 -0.2019  0.0384 -0.0690
15671PP      PP25775   2.709   7.393   9.101  0.2973 -0.2579  0.2401
15672PP      PP25776   3.765   1.285   3.875  0.2433 -0.0776  0.1555
15673PP      PP25777   7.453   8.837   1.772  0.0641 -0.1251  0.0520
15674PP      PP25778  13.470  13.104  11.823  0.2601 -0.1013  0.0024
15675PP      PP25779   3.694  10.141  11.526 -0.1299  0.0145 -0.1735
15676PP      PP25780   9.378  15.032   2.684  0.2223  0.2058 -0.1274
15677PP      PP25781   5.208   7.341   9.742 -0.0635 -0.0359  0.1171
15678PP      PP25782   9.769  14.444  11.281  0.1607 -0.0418  0.3769
15679PP      PP25783   4.615  11.476  12.514  0.0107 -0.0740  0.1611
15680PP      PP25784   9.724  12.027  12.182 -0.1696 -0.4659 -0.2616
15681PP      PP25785   7.515   8.929   2.857  0.1386  0.3286  0.1136
15682PP      PP25786  14.556   0.875   1.422  0.0272 -0.4033 -0.0987
15683PP      PP25787   3.252   3.971  13.119  0.1317  0.1213  0.1227
15684PP      PP25788  10.335   6.269  12.041  0.1461  0.1409  0.0919
15685PP      PP25789   3.221   3.448   3.906 -0.0941  0.1380  0.2207
15686PP      PP25790  11.702  12.741   3.394  0.1052  0.0233  0.1730
15687PP      PP25791   6.433   2.133  12.112  0.1646  0.1466  0.0089
15688PP      PP25792  10.108  11.585   9.053  0.0553 -0.0488 -0.0578
15689PP      PP25793   7.834   9.161  10.031 -0.0057  0.2140 -0.1257
15690PP      PP25794  15.144  11.170   1.605 -0.2976 -0.2122 -0.0087
15691PP      PP25795   5.348  13.509  12.497 -0.0660 -0.1275 -0.3424
15692PP      PP25796   5.103   2.892  11.928 -0.0946 -0.0124 -0.2512
15693PP      PP25797  10.809   2.368   2.590 -0.1764 -0.1931 -0.0146
15694PP      PP25798   0.351  10.923   9.459 -0.0601 -0.0773  0.1990
15695PP      PP25799  11.911  12.115   0.596 -0.2536  0.1240  0.2782
15696PP      PP25800   6.880  11.407   4.405 -0.1852  0.1640  0.0600
15697PP      PP25801   9.060  14.842   2.205 -0.2547  0.1398 -0.1030
15698PP      PP25802  11.059   8.038  11.352 -0.1656  0.3433 -0.0984
15699PP      PP25803  15.585   6.701   3.640  0.0040 -0.0088  0.0119
15700PP      PP25804   5.635   2.799   1.096 -0.3775  0.4725  0.1351
15701PP      PP25805  11.038  12.156  11.109 -0.0097 -0.0660  0.2270
15702PP      PP25806   0.263   5.441   3.028  0.0863 -0.2165  0.1427
15703PP      PP25807   7.762   8.215   0.239 -0.3904 -0.3855 -0.0233
15704PP      PP25808   5.640   4.718  11.181 -0.0594 -0.0634 -0.1385
15705PP      PP25809   7.572   2.892   1.668 -0.1512 -0.0514 -0.0310
15706PP      PP25810   3.186   5.577  13.529  0.2089  0.1468 -0.3526
15707PP      PP25811   5.774   3.915  12.219 -0.1545 -0.0911 -0.1508
15708PP      PP25812   7.141   7.979   2.617 -0.2042  0.0974  0.1013
15709PP      PP25813   1.879   3.409   4.745  0.1171 -0.1246 -0.3863
15710PP      PP25814   1.934   5.362   9.136  0.2064 -0.3805 -0.2958
15711PP      PP25815  15.150   0.839   3.243  0.0089  0.0244 -0.0739
15712PP      PP25816  12.591   1.371   3.328 -0.2673  0.2814 -0.2456
15713PP      PP25817   8.813  14.599  11.545 -0.1506 -0.1782 -0.0509
15714PP      PP25818   1.861   4.112  10.385  0.2115 -0.2817  0.0372
15715PP      PP25819   0.760  10.868   1.944 -0.1696  0.0818  0.0375
15716PP      PP25820  14.045   3.263  11.361  0.2987  0.0459  0.0359
15717PP      PP25821   3.618  13.973   3.990  0.1128 -0.1013  0.0343
15718PP      PP25822   9.991  15.642  10.620  0.1003  0.1677  0.1303
15719PP      PP25823  14.963   6.559   9.033 -0.0115  0.0013 -0.0448
15720PP      PP25824  13.410  15.705  12.371 -0.2344 -0.0352 -0.2148
15721PP      PP25825  12.299  15.768   1.523 -0.1126  0.0063 -0.0134
15722PP      PP25826  11.848  13.548   5.282 -0.1204  0.0747  0.0268
15723PP      PP25827   3.544  13.782   3.375 -0.0325 -0.2978 -0.1653
15724PP      PP25828   2.739   5.436   1.560  0.1455  0.2315 -0.1471
15725PP      PP25829   5.825  12.526   4.814 -0.1052 -0.0845 -0.1739
15726PP      PP25830   6.723   3.108  10.289 -0.0589  0.3444 -0.1400
15727PP      PP25831   5.142   3.358   1.668 -0.0484 -0.1748  0.2192
15728PP      PP25832   9.180  10.284   1.784  0.2864 -0.2471 -0.1151
15729PP      PP25833  10.388  14.262  11.648 -0.3815  0.1350 -0.0852
15730PP      PP25834  13.642   1.274   0.464  0.0522 -0.2463 -0.1208
15731PP      PP25835  13.887   4.468   9.916  0.0558 -0.0251  0.1803
15732PP      PP25836  13.890   5.591  10.748 -0.0705  0.0655  0.1189
15733PP      PP25837   4.470   7.138  10.297 -0.0954 -0.0090  0.0406
15734PP      PP25838   7.701   7.409   3.135  0.0657 -0.2111 -0.3811
15735PP      PP25839   7.504  13.595   0.925 -0.1937 -0.3614 -0.0122
15736PP      PP25840  11.871   5.188  12.832 -0.0283 -0.1710  0.0179
15737PP      PP25841  15.646   1.641   1.783 -0.1165 -0.0141 -0.0271
15738PP      PP25842  12.900   2.396  11.816  0.0584  0.0106 -0.0141
15739PP      PP25843   9.490  15.116  12.353  0.0640 -0.0207  0.1516
15740PP      PP25844   8.595  10.456  11.531  0.2020 -0.0106  0.1416
15741PP      PP25845   1.188   3.728   1.889 -0.2566  0.2561  0.3234
15742PP      PP25846   2.643   9.549   1.880 -0.0165  0.1748  0.0271
15743PP      PP25847  14.860   7.011   2.144  0.2684 -0.1131  0.0987
15744PP      PP25848   4.781  15.610   2.590 -0.1200 -0.2306 -0.1494
15745PP      PP25849  12.896  14.922   8.859 -0.0824  0.0666 -0.0932
15746PP      PP25850   5.201   5.295   2.016  0.2320 -0.1951  0.0264
15747PP      PP25851  13.889   2.426   9.658  0.1736 -0.2032  0.2827
15748PP      PP25852   6.300  15.343   1.632 -0.1060 -0.2514 -0.1005
15749PP      PP25853   2.059   8.333  12.164  0.1018 -0.0600  0.0025
15750PP      PP25854   5.314  15.135   9.069 -0.1115  0.1351  0.4250
15751PP      PP25855  13.727   8.931   9.509 -0.2643  0.0688 -0.1065
15752PP      PP25856   8.080   5.293   9.486 -0.0386  0.0597  0.1446
15753PP      PP25857   4.682   5.142   9.998  0.2066  0.1166 -0.0190
15754PP      PP25858   4.445   6.550  11.394  0.0097  0.0645 -0.0131
15755PP      PP25859  15.420  15.437   9.226 -0.3025 -0.1262  0.0796
15756PP      PP25860  12.092   1.366   9.919 -0.2570  0.2317 -0.0609
15757PP      PP25861   4.120  11.403   3.520 -0.0248 -0.1240  0.2246
15758PP      PP25862   3.099  14.884  12.002 -0.2613  0.2447 -0.1263
15759PP      PP25863   9.807  10.301  11.188  0.5702 -0.3506  0.3436
15760PP      PP25864   2.290   1.912   2.931  0.2103 -0.0012  0.3256
15761PP      PP25865   2.251   7.263   1.611 -0.0305  0.1939  0.0585
15762PP      PP25866   1.399   1.659  10.048 -0.6422  0.0397 -0.1648
15763PP      PP25867   5.326   0.383   0.091  0.0012 -0.1890  0.1546
15764PP      PP25868   8.607  14.494   9.485  0.0134 -0.3049  0.3837
15765PP      PP25869   7.468   8.344   9.540 -0.1014 -0.3335 -0.2135
15766PP      PP25870   4.143   7.060  12.835  0.0402  0.1962  0.2051
15767PP      PP25871  14.108  14.309   8.811 -0.3910  0.0324  0.3360
15768PP      PP25872  12.431   5.828   9.492  0.0586  0.1247  0.1345
15769PP      PP25873   4.482   7.420   4.475 -0.0880 -0.0616  0.2252
15770PP      PP25874   1.871  14.979  10.546  0.0152  0.2219  0.2252
15771PP      PP25875  13.385   4.361   3.183  0.2072  0.0713 -0.2896
15772PP      PP25876   8.112  13.309  11.278 -0.0902  0.0151 -0.0717
15773PP      PP25877  14.941   1.014  11.012 -0.1586 -0.2398 -0.0311
15774PP      PP25878   1.576  15.275  10.827 -0.0117 -0.0845  0.1019
15775PP      PP25879   4.982  14.925  11.819  0.4488 -0.2752 -0.0348
15776PP      PP25880  15.205  13.468  13.351 -0.1238 -0.0080 -0.2256
15777PP      PP25881   1.212   4.025   4.179  0.0294 -0.0200 -0.2510
15778PP      PP25882  14.028   7.482   0.240  0.0918  0.2298  0.2397
15779PP      PP25883  10.909   3.619   1.520 -0.0404  0.0181 -0.4244
15780PP      PP25884   0.823  10.571   1.490 -0.1889 -0.1192 -0.0847
15781PP      PP25885  13.721   9.624   9.664  0.1267 -0.0496 -0.1796
15782PP      PP25886   1.449  10.698  10.070  0.1380 -0.2330 -0.0006
15783PP      PP25887   7.457   9.386   0.906  0.0545  0.2632 -0.4164
15784PP      PP25888   5.098   7.421  10.615  0.0582  0.1324 -0.2070
15785PP      PP25889  13.063   1.792  11.821  0.1217 -0.0390 -0.2498
15786PP      PP25890   5.149   1.364   1.213 -0.2231  0.1364  0.1225
15787PP      PP25891   3.586  10.232   2.247  0.0607  0.0453 -0.1277
15788PP      PP25892   6.155   7.351   3.352 -0.1763 -0.0107 -0.1019
15789PP      PP25893  12.702  15.165   2.469  0.0844 -0.1975  0.0314
15790PP      PP25894  10.065  12.172  13.194  0.1798  0.0160 -0.0532
15791PP      PP25895   3.708   4.523   1.387 -0.1531 -0.2352  0.0180
15792PP      PP25896   4.721   3.949   0.202  0.0406 -0.3546  0.0298
15793PP      PP25897   5.681  14.836   3.154 -0.1160  0.3826 -0.0333
15794PP      PP25898  13.508  12.079   8.836 -0.1178 -0.0100  0.3160
15795PP      PP25899   2.912  12.082   8.487  0.2079  0.0934  0.1528
15796PP      PP25900   3.113   9.695   8.728 -0.0924 -0.2213 -0.1258
15797PP      PP25901  12.556   4.439   0.022  0.1174 -0.1317  0.1314
15798PP      PP25902   9.328   2.994  12.163 -0.3757 -0.3445 -0.0867
15799PP      PP25903   4.653   6.158   2.645 -0.0298 -0.0358 -0.0473
15800PP      PP25904  15.586   4.958  12.422  0.2069  0.0219 -0.0136
15801PP      PP25905  12.198   9.594   1.450  0.0059  0.0574 -0.1502
15802PP      PP25906   0.624   6.902  12.323 -0.0449 -0.1325  0.0893
15803PP      PP25907   1.296   0.180  12.393 -0.0779 -0.0996  0.2204
15804PP      PP25908   8.151  14.524   9.650  0.0492  0.0428  0.0508
15805PP      PP25909   0.705   5.880   8.720  0.1604  0.0682 -0.1043
15806PP      PP25910   0.617  12.139   3.177  0.3170  0.1764  0.1665
15807PP      PP25911  10.019   7.604  11.992  0.0823  0.0679  0.1056
15808PP      PP25912   7.024  14.736  10.858 -0.0124 -0.2577 -0.0061
15809PP      PP25913   9.815  12.895   2.546 -0.0991 -0.1140 -0.1370
15810PP      PP25914  14.205   6.302   1.742 -0.0424 -0.0468 -0.1676
15811PP      PP25915   9.344   2.522  13.139 -0.2391  0.1388 -0.1540
15812PP      PP25916  13.241   5.603   8.747  0.0927 -0.3587 -0.1173
15813PP      PP25917  14.763  13.867  11.974  0.1008  0.1296 -0.0561
15814PP      PP25918   9.770   7.273  13.067 -0.1761 -0.1500  0.0216
15815PP      PP25919   0.218  12.209  11.147 -0.0124 -0.0864 -0.0606
15816PP      PP25920   6.591   2.257   2.900 -0.0469  0.0527 -0.0009
15817PP      PP25921   7.354  15.722  11.039  0.2308  0.1077  0.1013
15818PP      PP25922  15.005  11.324   4.337 -0.2117 -0.0071  0.0564
15819PP      PP25923   6.796  15.857  11.064 -0.1396 -0.0545 -0.2045
15820PP      PP25924   7.733  10.373   1.835 -0.2928  0.0432  0.1766
15821PP      PP25925   0.169   2.292   9.037 -0.1160 -0.2725 -0.0613
15822PP      PP25926   4.947  12.086  11.959 -0.3377 -0.1036 -0.0958
15823PP      PP25927   0.937  11.694   2.312 -0.1340 -0.0144  0.1348
15824PP      PP25928  14.663   7.466   1.929  0.0300 -0.2772 -0.0588
15825PP      PP25929   5.861   9.581   2.886  0.2758 -0.2490  0.2118
15826PP      PP25930  15.388   5.145  12.964  0.1891  0.0645 -0.0249
15827PP      PP25931  13.223   5.499   9.761 -0.1434 -0.3707  0.3483
15828PP      PP25932   8.866  13.110  12.473 -0.1812  0.3607  0.1139
15829PP      PP25933   7.883   0.684   3.921  0.1036  0.2292 -0.1102
15830PP      PP25934  10.248  12.675   3.311  0.1053 -0.1273 -0.0915
15831PP      PP25935   3.553   7.120   2.149  0.0366 -0.0780  0.1489
15832PP      PP25936  11.611  13.212   4.856  0.1545  0.1294  0.0005
15833PP      PP25937   7.815   8.469  11.901 -0.0404  0.0883  0.2682
15834PP      PP25938   2.214  13.435  12.094 -0.1748 -0.3011  0.0687
15835PP      PP25939   5.301   0.746  10.557 -0.3002  0.0465  0.0552
15836PP      PP25940  11.267   6.277   4.135  0.1357  0.0285 -0.0163
15837PP      PP25941  11.746   0.792  11.125  0.3792  0.2202 -0.3069
15838PP      PP25942   3.294  14.148   3.601  0.1503 -0.1102 -0.2048
15839PP      PP25943   8.543   6.717   4.288  0.0831 -0.0491  0.2224
15840PP      PP25944   6.478   0.415  11.429 -0.0420 -0.2024  0.1240
15841PP      PP25945   4.572   2.485   0.393 -0.1152  0.2113 -0.2916
15842PP      PP25946   4.475   4.263  10.489 -0.0383  0.2614  0.0324
15843PP      PP25947   1.111   6.366  10.075 -0.2531 -0.2657  0.1279
15844PP      PP25948   8.213   4.875   9.844 -0.1241 -0.2789 -0.1753
15845PP      PP25949   0.345   5.561   8.758  0.1404  0.0859 -0.1702
15846PP      PP25950  12.068   3.580   9.756  0.0602  0.1793 -0.1140
15847PP      PP25951   2.219  10.384   1.340  0.0869 -0.0680 -0.0280
15848PP      PP25952   9.049   1.674   0.942 -0.0989  0.0494  0.1235
15849PP      PP25953   9.085   0.187   9.479  0.0848 -0.3377 -0.0652
15850PP      PP25954   2.736   2.568   0.286 -0.2697 -0.0171  0.0345
15851PP      PP25955   2.143   2.227  10.531 -0.1654  0.2741 -0.1350
15852PP      PP25956   8.867   7.165  13.470 -0.1231  0.2088  0.1415
15853PP      PP25957   6.528  14.160   9.316 -0.1169 -0.1765  0.1286
15854PP      PP25958   2.267   5.759   1.319 -0.0209 -0.2581  0.3452
15855PP      PP25959  15.544   7.471  10.633 -0.2370  0.0337  0.0321
15856PP      PP25960  12.976   7.082   9.393  0.0622 -0.1444 -0.0729
15857PP      PP25961   2.383  12.749   1.031 -0.0038  0.1357  0.0353
15858PP      PP25962   3.176   6.357  12.590 -0.2598  0.0403  0.0277
15859PP      PP25963   4.084  11.031  13.371  0.0038  0.1004 -0.0572
15860PP      PP25964  12.062  14.182   4.495 -0.0900  0.1548  0.0657
15861PP      PP25965   6.771   2.953   2.363 -0.0979  0.1686 -0.0258
15862PP      PP25966  15.050   2.102  10.921  0.1745  0.3751 -0.1058
15863PP      PP25967   0.242  13.996   0.809 -0.0249 -0.1149  0.1512
15864PP      PP25968  10.605   0.551   0.221 -0.2000  0.2028 -0.1649
15865PP      PP25969  12.255   4.373  11.800  0.4536  0.0154 -0.0226
15866PP      PP25970   4.994   4.146  10.271  0.1623 -0.2846 -0.3537
15867PP      PP25971   2.399  12.619   0.484 -0.0540 -0.2242  0.1582
15868PP      PP25972  10.253  10.387   4.039 -0.0171  0.0129 -0.0629
15869PP      PP25973   5.401   5.727   3.929 -0.0360 -0.2988  0.3153
15870PP      PP25974  15.439   5.424   8.510  0.0020 -0.2159 -0.0874
15871PP      PP25975  14.147  12.300   1.463  0.2368 -0.1398 -0.0830
15872PP      PP25976   4.737  12.103   2.153 -0.3563  0.0672  0.2308
15873PP      PP25977   0.035   0.611   1.604  0.3508 -0.0735 -0.2165
15874PP      PP25978  14.803   8.769   3.214 -0.0118  0.0787  0.2723
15875PP      PP25979   3.809  12.197   8.828  0.1710 -0.0541 -0.2604
15876PP      PP25980  13.978   7.552   0.775 -0.2076 -0.0185 -0.2465
15877PP      PP25981  12.333   0.637  11.152 -0.2089  0.1456  0.3724
15878PP      PP25982   0.843  10.729   0.588 -0.1292  0.0880 -0.2240
15879PP      PP25983  15.033  15.821   0.756 -0.2748 -0.0097 -0.1088
15880PP      PP25984   3.682  11.392   3.776  0.1150  0.2298  0.0030
15881PP      PP25985   5.474   2.671  12.930  0.0403  0.1462 -0.2843
15882PP      PP25986   6.656  13.619   4.386 -0.0483 -0.0733 -0.1415
15883PP      PP25987   2.439  14.193   0.754  0.3181 -0.0176 -0.0675
15884PP      PP25988   1.552  12.935   3.579 -0.1319 -0.0626  0.2131
15885PP      PP25989  12.086   9.679   3.815 -0.1437  0.0256 -0.0448
15886PP      PP25990  13.004   9.782   0.805 -0.1669  0.3485 -0.2687
15887PP      PP25991  11.185   0.674   2.083 -0.1714  0.0089  0.0109
15888PP      PP25992   2.077  12.143  12.630 -0.0104 -0.1664  0.2572
15889PP      PP25993   7.310  14.327   9.419 -0.3337 -0.1434 -0.0444
15890PP      PP25994   2.698   3.413   1.360  0.3225 -0.2367  0.2392
15891PP      PP25995  15.039   2.517  10.507 -0.2774  0.1785  0.1751
15892PP      PP25996  13.741   0.644  10.035  0.3114  0.0442  0.1224
15893PP      PP25997  11.552   0.225  11.346  0.0313  0.1125 -0.1562
15894PP      PP25998   4.668  12.352  11.034  0.0148 -0.0968  0.0844
15895PP      PP25999   1.021  11.543   1.331  0.0456 -0.0166  0.1255
15896PP      PP26000  11.285  12.068  10.563 -0.0245  0.0999  0.1824
15897PP      PP26001   4.960  10.355   2.169 -0.1846  0.2520  0.1987
15898PP      PP26002   1.502  15.846  13.479 -0.0032  0.0838 -0.0504
15899PP      PP26003   7.414   6.604   2.445 -0.1588  0.2848 -0.2097
15900PP      PP26004   5.765   4.680   1.414 -0.2478 -0.1057 -0.1582
15901PP      PP26005   4.212  12.620   9.029 -0.2387  0.0669  0.1330
15902PP      PP26006  11.874  10.508  12.638  0.0381  0.3840  0.1754
15903PP      PP26007   1.775  10.139  12.972 -0.0455  0.2260  0.0131
15904PP      PP26008  13.653   1.830  13.524  0.1363  0.0722 -0.2801
15905PP      PP26009   9.662   4.577   4.125  0.0251 -0.2380 -0.2096
15906PP      PP26010   2.225   9.785   0.080 -0.0596  0.0180 -0.0192
15907PP      PP26011  13.184  10.358   0.661  0.1006  0.0092  0.0686
15908PP      PP26012   4.223   4.242   3.148  0.0023  0.2284  0.1192
15909PP      PP26013   4.422   9.024   1.588  0.2608  0.2251  0.2705
15910PP      PP26014   8.609   2.678  11.796 -0.1605 -0.3882 -0.3601
15911PP      PP26015   0.464   4.119   9.961  0.1761  0.0030 -0.1610
15912PP      PP26016   2.578  13.713  13.110  0.3256 -0.1990 -0.1700
15913PP      PP26017  13.647   3.181   3.691 -0.1158 -0.1496 -0.0231
15914PP      PP26018   0.188  12.576   0.582  0.3204 -0.0436 -0.2974
15915PP      PP26019  14.242   9.263   0.906  0.2748  0.1299 -0.1872
15916PP      PP26020   5.066   4.657  13.238  0.0324 -0.0816 -0.1904
15917PP      PP26021   6.787  13.286   3.412  0.2409 -0.1430  0.1373
15918PP      PP26022  14.691  12.456   3.479  0.0894  0.3019 -0.0930
15919PP      PP26023  10.171   3.549   4.015 -0.1799 -0.1331 -0.4371
15920PP      PP26024   2.834  14.877   3.463 -0.0945 -0.0112 -0.0831
15921PP      PP26025  13.040   7.346   1.289  0.0791  0.2642 -0.2042
15922PP      PP26026  11.114  15.170   5.037  0.2376 -0.2050  0.0269
15923PP      PP26027  13.257   1.733   2.361  0.4136  0.0860  0.0446
15924PP      PP26028  15.002  13.581   9.483  0.3585 -0.2365 -0.1535
15925PP      PP26029  11.314  13.214   3.216  0.2075 -0.1886  0.0619
15926PP      PP26030   0.767   7.821   4.030  0.3253  0.4329 -0.2712
15927PP      PP26031  10.759   1.883   1.439 -0.0534  0.1637 -0.1202
15928PP      PP26032  10.464  14.140   4.886  0.1425 -0.2414 -0.1498
15929PP      PP26033   6.121   2.138   4.584  0.0892  0.1005  0.2653
15930PP      PP26034   4.899   0.775   0.309 -0.3144 -0.2473  0.4502
15931PP      PP26035   8.887   7.771   0.370 -0.2628  0.1606  0.1526
15932PP      PP26036   7.953  10.222  10.907 -0.1288  0.0978  0.2594
15933PP      PP26037   2.593  15.356  12.539 -0.0749  0.1750  0.0001
15934PP      PP26038  12.462   7.098  10.356 -0.1514 -0.1585  0.1962
15935PP      PP26039   8.324  14.574  11.542  0.2886 -0.0110 -0.1858
15936PP      PP26040  12.229   1.272   1.384  0.0766 -0.1927 -0.1757
15937PP      PP26041  10.042   8.511   0.920 -0.4346  0.1034  0.0272
15938PP      PP26042   3.440  11.837   2.436 -0.0118  0.1417 -0.0549
15939PP      PP26043  11.749   1.222   9.586  0.4992 -0.0144  0.2460
15940PP      PP26044   0.503   7.375   0.179 -0.2681  0.2719 -0.2041
15941PP      PP26045   9.823   7.390   2.637  0.1157  0.0517  0.3115
15942PP      PP26046   6.878   4.238  13.128 -0.2420 -0.1479 -0.0720
15943PP      PP26047  13.636  10.544  12.667  0.2855  0.0801 -0.0547
15944PP      PP26048  15.321  15.142  11.142 -0.2408  0.0014 -0.2341
15945PP      PP26049   4.460   9.754   2.565 -0.0845 -0.1582  0.3819
15946PP      PP26050   9.328   1.325   2.194 -0.0538 -0.1298  0.0624
15947PP      PP26051  12.802  13.805  11.677  0.1868  0.0511  0.2613
15948PP      PP26052   9.574  11.769   9.106  0.3589 -0.0574 -0.0780
15949PP      PP26053   1.101   0.743   3.053  0.4796  0.1558 -0.3019
15950PP      PP26054  10.114   0.252   0.154 -0.0080  0.2082 -0.0265
15951PP      PP26055  11.206   5.195  11.956  0.0278 -0.2741 -0.1251
15952PP      PP26056   2.759   5.282  10.391 -0.2449  0.1798  0.1088
15953PP      PP26057   8.195   8.758   0.888  0.4228  0.1135 -0.3050
15954PP      PP26058  11.775   0.858   3.584  0.5074 -0.1391 -0.3108
15955PP      PP26059   1.582  11.715   1.592  0.3299 -0.0207  0.0405
15956PP      PP26060  15.195   2.929   2.352  0.1686 -0.6405 -0.1288
15957PP      PP26061   6.642  12.353   1.127  0.1002 -0.1084 -0.2404
15958PP      PP26062   3.963   0.164   2.128 -0.0302 -0.3452 -0.0688
15959PP      PP26063  10.537  10.270   3.241 -0.0804 -0.0295  0.1337
15960PP      PP26064  12.489  12.452  11.912 -0.0953 -0.0223 -0.1191
15961PP      PP26065  15.864   6.559   1.420 -0.0442  0.2709  0.2308
15962PP      PP26066  13.317   5.352   0.997  0.2032 -0.1081  0.0996
15963PP      PP26067   0.846   8.602   3.610 -0.0544  0.2553  0.0016
15964PP      PP26068   6.759   2.021   0.833  0.1441 -0.2608 -0.1758
15965PP      PP26069   4.638  12.984   0.343  0.0056 -0.0197  0.0223
15966PP      PP26070   5.865  10.559   1.487  0.1562  0.2528 -0.0678
15967PP      PP26071  15.627  11.289  11.260 -0.1570 -0.1733  0.1415
15968PP      PP26072   5.183   9.094   9.832  0.0260 -0.0514 -0.2047
15969PP      PP26073   9.566  13.989   2.977 -0.0445  0.0997 -0.0901
15970PP      PP26074  15.475   4.591   9.510  0.0135  0.2314 -0.1428
15971PP      PP26075  10.273   1.678  10.128 -0.0784  0.0762 -0.1586
15972PP      PP26076   8.957   0.549   0.973 -0.2107  0.2773  0.4314
15973PP      PP26077   8.034  11.980   2.013 -0.1055  0.2718 -0.0955
15974PP      PP26078   5.515  13.064  10.146 -0.0721 -0.0503 -0.0295
15975PP      PP26079   0.200  14.633   3.760 -0.1670  0.2489  0.1458
15976PP      PP26080   4.061   0.562  11.672 -0.2752  0.0005 -0.1913
15977PP      PP26081  15.757   2.695   1.721  0.0348  0.1549 -0.0680
15978PP      PP26082  10.855   6.594  11.003 -0.4544 -0.2336 -0.1399
15979PP      PP26083   0.043   7.064   1.220  0.1393 -0.0354 -0.1680
15980PP      PP26084  14.409   1.724   1.814  0.4859  0.3028 -0.0047
15981PP      PP26085   3.068   4.379   9.655  0.0307 -0.2519  0.2469
15982PP      PP26086   8.235   3.166  12.826 -0.2943 -0.1008  0.1089
15983PP      PP26087  13.064   9.838  10.777 -0.2442 -0.1548 -0.2191
15984PP      PP26088   9.006  14.213   3.631 -0.1500  0.3368  0.0926
15985PP      PP26089  13.905  15.698   0.039  0.1002  0.1797 -0.2354
15986PP      PP26090   3.309   2.461   4.702 -0.0434  0.0049  0.1106
15987PP      PP26091   1.494   3.496  13.098 -0.0629  0.2251 -0.1379
15988PP      PP26092   6.403   5.322  12.751  0.0687  0.0533 -0.6326
15989PP      PP26093   0.809   3.442   2.160 -0.1521 -0.1030  0.0871
15990PP      PP26094  12.306  11.429   2.521  0.1234  0.4770  0.2583
15991PP      PP26095   3.388  10.535  11.805 -0.2378 -0.1792  0.2982
15992PP      PP26096  11.470  15.684   0.453 -0.1107  0.1894 -0.0278
15993PP      PP26097   9.743   1.251   9.425 -0.3880  0.1874  0.1856
15994PP      PP26098   9.601   0.897  11.298 -0.0989  0.1660  0.0451
15995PP      PP26099   2.133  13.049   0.736 -0.0544  0.1452 -0.2027
15996PP      PP26100  14.530  10.715   1.808  0.1211  0.0574  0.4788
15997PP      PP26101   4.938   3.126  10.415 -0.0725 -0.3403  0.1527
15998PP      PP26102   5.776   6.045   8.999  0.1309 -0.1026 -0.0891
15999PP      PP26103  13.406   8.028   0.855 -0.1642  0.0489  0.3147
16000PP      PP26104   0.399   1.711  10.012 -0.2883 -0.0095 -0.0133
16001PP      PP26105  12.703   2.440   2.045  0.0283 -0.0454  0.1381
16002PP      PP26106  13.752   5.873   9.958 -0.1149 -0.0700  0.1491
16003PP      PP26107   5.902   6.722   1.039  0.3044  0.1313 -0.0526
16004PP      PP26108   1.482   1.047   0.728  0.1741  0.1188 -0.2025
16005PP      PP26109   8.286   1.001   3.492  0.1363 -0.0437  0.0174
16006PP      PP26110   2.376  12.192  11.545  0.0082  0.0715  0.1664
16007PP      PP26111   1.149  10.415   9.725 -0.1834 -0.0363 -0.3257
16008PP      PP26112   0.574   2.812   0.178 -0.2421  0.0380  0.3076
16009PP      PP26113  15.583  10.003  10.145  0.1690  0.0348 -0.0916
16010PP      PP26114   9.781   0.206  10.752 -0.1878 -0.3843 -0.2162
16011PP      PP26115  12.182   6.300   3.728  0.1538  0.0719  0.2805
16012PP      PP26116  14.896   8.347  12.548  0.0611  0.0457 -0.2532
16013PP      PP26117   2.269   5.419   0.464  0.3778 -0.2307 -0.1596
16014PP      PP26118  12.089   0.332   4.309 -0.0323  0.1322 -0.1547
16015PP      PP26119  15.735  10.931   2.360 -0.1910 -0.2475  0.1252
16016PP      PP26120  10.359  12.383   3.761 -0.2047 -0.2601  0.1526
16017PP      PP26121   0.040  10.647   1.074  0.2563  0.1712  0.0136
16018PP      PP26122  13.518   3.172  12.714  0.1962 -0.0585 -0.1128
16019PP      PP26123   0.100   1.139   0.952  0.2876 -0.2255  0.0164
16020PP      PP26124  13.451   8.152   8.351  0.2416 -0.2635  0.1151
16021PP      PP26125   9.157  12.943   4.018 -0.1368  0.1831 -0.1189
16022PP      PP26126   6.304   5.455   8.807 -0.1821 -0.1579  0.0598
16023PP      PP26127   2.991  14.400  11.393 -0.1560  0.1736  0.1199
16024PP      PP26128  13.183   0.251  10.945  0.1603 -0.1838  0.0011
16025PP      PP26129   0.831   4.221   0.760  0.1352  0.2913  0.0162
16026PP      PP26130   9.705  12.056   1.412  0.0064 -0.1188  0.0576
16027PP      PP26131   0.290   2.934   3.521  0.0177  0.0591  0.1162
16028PP      PP26132   2.297   3.321   9.685 -0.0849  0.0200 -0.0939
16029PP      PP26133   8.805  11.619   8.988 -0.0744 -0.0659 -0.3408
16030PP      PP26134   1.847  13.350   3.479  0.0872 -0.1181  0.0499
16031PP      PP26135   5.702  13.893  13.500  0.0147 -0.1814  0.1164
16032PP      PP26136  12.115   4.145  11.316  0.2837  0.0582 -0.0165
16033PP      PP26137  13.513  10.056   2.061 -0.2393  0.0464  0.0889
16034PP      PP26138   5.243   1.968   1.017  0.1602 -0.0353  0.0040
16035PP      PP26139  14.508   6.250   8.600  0.0083 -0.0207 -0.4509
16036PP      PP26140   2.468   2.096   9.089 -0.0894 -0.0174  0.0340
16037PP      PP26141   1.452   7.806  12.967  0.3790 -0.0840  0.1054
16038PP      PP26142   5.834  15.075   9.889  0.3856  0.1821  0.1227
16039PP      PP26143   9.731   7.055  10.038  0.3860  0.1597  0.1320
16040PP      PP26144  15.087   7.954   9.197  0.0094 -0.1609 -0.0087
16041PP      PP26145   4.150  14.129   2.671 -0.0250 -0.1403 -0.2127
16042PP      PP26146  13.063  15.346   9.030 -0.3724 -0.0237  0.2662
16043PP      PP26147   8.697  11.731   4.115  0.2373  0.2388  0.0831
16044PP      PP26148  11.715   8.351  10.101  0.0878 -0.0559 -0.0188
16045PP      PP26149   5.212  12.923  13.377  0.2845 -0.0848  0.0468
16046PP      PP26150  15.451   5.169  13.442 -0.1363 -0.0020 -0.1785
16047PP      PP26151  11.734  14.489   1.714  0.1656  0.3149  0.3222
16048PP      PP26152   9.941   4.417   0.693 -0.0093 -0.1107 -0.0941
16049PP      PP26153  13.012   2.706  11.203  0.0601 -0.1662  0.1494
16050PP      PP26154   5.127   7.134   9.299  0.1159  0.4724  0.0404
16051PP      PP26155   3.947  12.608   4.352  0.1096  0.0181 -0.0097
16052PP      PP26156   0.104   4.289   9.400  0.2013  0.1423 -0.1077
16053PP      PP26157   4.688  11.605   0.813 -0.1970  0.0747 -0.2207
16054PP      PP26158   7.267  13.688   1.454 -0.2069  0.1799 -0.0907
16055PP      PP26159   1.949   1.237  10.236  0.2242  0.3460  0.0086
16056PP      PP26160  10.865   6.562  10.103 -0.0129  0.1551 -0.0933
16057PP      PP26161   7.097   5.989   9.186 -0.1437 -0.2730  0.3009
16058PP      PP26162   9.072   4.395   2.746 -0.1004  0.1237  0.1368
16059PP      PP26163   0.459  13.283  10.451 -0.0904 -0.2518 -0.0552
16060PP      PP26164  11.993  13.364  11.914 -0.3250  0.0391 -0.0873
16061PP      PP26165   3.513  13.631  10.878 -0.0397  0.1580  0.0192
16062PP      PP26166  11.702   5.678   2.454 -0.1743  0.0849 -0.0914
16063PP      PP26167   8.400   7.198   1.884  0.1985 -0.2967 -0.0592
16064PP      PP26168  10.780  11.878   3.492 -0.0893 -0.0543  0.3907
16065PP      PP26169   7.764   6.552  11.909 -0.3571 -0.4769 -0.3028
16066PP      PP26170  14.716   0.552   2.997  0.0446 -0.2268 -0.0873
16067PP      PP26171   0.120   9.595   2.216 -0.1383  0.2593 -0.0397
16068PP      PP26172   4.623  13.381   0.754 -0.1103 -0.0950 -0.1462
16069PP      PP26173   9.104   2.565  11.868  0.1409  0.1733 -0.1550
16070PP      PP26174  11.987  13.094   4.524  0.0603 -0.2445  0.0158
16071PP      PP26175   7.676   9.248  10.780  0.1481 -0.1137 -0.0030
16072PP      PP26176   5.777  14.646   4.238 -0.2607 -0.3012  0.3446
16073PP      PP26177   0.536  14.369   0.597  0.1427 -0.0066 -0.1676
16074PP      PP26178   8.830   2.411   3.340 -0.0161 -0.0049 -0.0191
16075PP      PP26179  11.917  12.374  11.136  0.1701  0.0105 -0.3196
16076PP      PP26180  10.903   7.359  13.450 -0.2325 -0.0892 -0.1613
16077PP      PP26181   3.690   8.527  10.093  0.0156 -0.1684  0.0652
16078PP      PP26182  12.868   7.905  10.087  0.0702 -0.0578  0.2314
16079PP      PP26183   8.271   1.400   2.273 -0.0101 -0.1382  0.3129
16080PP      PP26184   9.259   6.990   1.526  0.2973  0.1391  0.0000
16081PP      PP26185  14.707  14.602   9.391  0.1951 -0.2692  0.0518
16082PP      PP26186  10.334   3.948   2.775 -0.0189 -0.2827 -0.2723
16083PP      PP26187  11.517   1.602   9.940  0.0096  0.1087  0.0577
16084PP      PP26188   3.689   3.010  10.348  0.2716 -0.3664 -0.1025
16085PP      PP26189   3.631  13.037  12.408 -0.2480  0.3217 -0.1253
16086PP      PP26190   4.302   7.059   0.811 -0.2690 -0.1000  0.4156
16087PP      PP26191  13.358   7.058   8.503 -0.1742 -0.5983  0.1144
16088PP      PP26192   8.124   3.910   1.033  0.0917  0.1704  0.1937
16089PP      PP26193   1.142   2.557  12.751  0.0924  0.1494 -0.1287
16090PP      PP26194  10.291   5.479   2.534 -0.4441  0.1162 -0.1455
16091PP      PP26195   9.303   8.028   3.671 -0.1315 -0.1036 -0.0350
16092PP      PP26196  15.511   8.692  11.393 -0.1451  0.1134  0.1000
16093PP      PP26197  15.383   8.019  13.460  0.1102 -0.2655 -0.0736
16094PP      PP26198   9.453  12.039   3.684  0.2190  0.0427 -0.1119
16095PP      PP26199   7.401  14.947   1.209  0.1612 -0.0732 -0.2525
16096PP      PP26200   9.401   5.539   0.586  0.1154 -0.3001 -0.0066
16097PP      PP26201   2.742   7.169   2.252  0.1974  0.0121  0.4284
16098PP      PP26202   5.025  11.681   0.432  0.3625 -0.1110  0.2067
16099PP      PP26203   0.033   5.704   1.268 -0.0596  0.0811 -0.0372
16100PP      PP26204   1.246   7.993  10.185 -0.0006  0.0377  0.1556
16101PP      PP26205   9.766   4.090   1.610 -0.1350 -0.2924 -0.1331
16102PP      PP26206   0.334  14.051  10.790  0.1320 -0.1967  0.0007
16103PP      PP26207  12.423   9.261  12.098  0.1200  0.1259  0.1259
16104PP      PP26208  13.824  15.121   0.199  0.1903  0.1120  0.2695
16105PP      PP26209  11.207   4.563   9.952  0.1702 -0.1855  0.2423
16106PP      PP26210   4.113   0.875  12.567 -0.3019  0.1539  0.2405
16107PP      PP26211   6.214  11.275   2.176 -0.1895  0.2892  0.3808
16108PP      PP26212  14.021   5.632   1.880  0.0444  0.2277 -0.3884
16109PP      PP26213   6.352   7.160  13.084  0.0323 -0.1764 -0.1155
16110PP      PP26214   2.388   1.419  13.232 -0.0737 -0.0521  0.1132
16111PP      PP26215   1.079   9.269  12.401 -0.2698  0.3561 -0.1243
16112PP      PP26216   5.883   8.167   1.356  0.0095 -0.4219  0.2148
16113PP      PP26217  14.543   2.622   0.510 -0.0363  0.0090  0.1664
16114PP      PP26218   4.190  10.099  12.047  0.0386  0.0763 -0.0411
16115PP      PP26219   5.401  14.782  11.125 -0.3673 -0.2168 -0.2458
16116PP      PP26220   3.544  11.992   9.586 -0.2084  0.0144 -0.0858
16117PP      PP26221   8.710   5.608  11.109  0.1228 -0.1235  0.0892
16118PP      PP26222   8.098  11.705  11.975  0.1770 -0.2805  0.2093
16119PP      PP26223   3.233  12.546   2.994  0.0410  0.0932  0.0185
16120PP      PP26224   4.770   7.727   3.911  0.2132 -0.2401  0.1495
16121PP      PP26225  14.711  14.844  11.318  0.0742  0.1009 -0.2768
16122PP      PP26226   9.464  14.484   9.921  0.2295 -0.1145 -0.2937
16123PP      PP26227  15.749   1.469   1.291  0.2113  0.1659  0.0856
16124PP      PP26228   7.628   7.140   8.664 -0.3192  0.1398 -0.0952
16125PP      PP26229   6.684  15.727   1.749  0.0126 -0.4539 -0.0839
16126PP      PP26230  10.434  12.414  11.925 -0.1068  0.0949  0.2292
16127PP      PP26231   1.545   8.022  10.585  0.3915 -0.0873 -0.3848
16128PP      PP26232   4.079   4.124  12.757  0.3791  0.2758 -0.1959
16129PP      PP26233   9.448   6.416  10.036 -0.2490  0.0949 -0.0680
16130PP      PP26234   3.455   3.376   4.480 -0.3491 -0.4705  0.2780
16131PP      PP26235   0.756   1.122  12.888  0.2023 -0.0746  0.2631
16132PP      PP26236  13.269   7.139   9.808  0.1568 -0.1245  0.0608
16133PP      PP26237   4.291   5.685   9.982  0.0286 -0.1994 -0.1048
16134PP      PP26238  15.235   1.989   9.419 -0.0870  0.0801 -0.0787
16135PP      PP26239  13.806   8.509  12.868 -0.1031  0.2272 -0.1536
16136PP      PP26240  14.267   0.723  10.532  0.1349 -0.0157  0.0862
16137PP      PP26241   8.631   7.662   3.278  0.3182  0.1608  0.0340
16138PP      PP26242   7.436   9.063   3.293  0.3066 -0.0099 -0.2371
16139PP      PP26243   0.565   6.550   2.850 -0.0364 -0.0407  0.2369
16140PP      PP26244   6.105  12.195  11.572  0.4781  0.1176 -0.1975
16141PP      PP26245   5.460   2.073  12.948  0.1288  0.1034 -0.0411
16142PP      PP26246  10.575   2.316   3.403 -0.1295  0.1826 -0.1993
16143PP      PP26247   5.597   5.418  13.189 -0.2230 -0.0506 -0.2399
16144PP      PP26248  13.289   5.819  12.299 -0.0626 -0.3258  0.0258
16145PP      PP26249   1.541   2.837  10.695  0.0175  0.1949  0.1364
16146PP      PP26250   5.916  11.121   8.965  0.4231  0.2825 -0.0761
16147PP      PP26251   2.810  11.453   1.597  0.0601  0.2429  0.0578
16148PP      PP26252   7.001   0.962  11.251  0.1962 -0.1836 -0.0782
16149PP      PP26253   7.292   8.406  13.108 -0.4290 -0.1691 -0.1018
16150PP      PP26254  14.723  13.441  10.027 -0.0668  0.0610 -0.1465
16151PP      PP26255   8.105  11.141   1.502 -0.3187 -0.1699  0.1127
16152PP      PP26256   6.062   8.216   2.763 -0.3075  0.0997 -0.1391
16153PP      PP26257  10.086  15.321   3.207 -0.2871 -0.0521 -0.4048
16154PP      PP26258  11.068   9.132  13.115  0.0110  0.2799  0.2286
16155PP      PP26259   4.225   6.431   3.131 -0.0031 -0.0204 -0.1746
16156PP      PP26260   9.316   3.874  13.246 -0.3176 -0.0496 -0.1112
16157PP      PP26261  15.463   2.473  12.954  0.2265 -0.1422 -0.3273
16158PP      PP26262   8.122   3.681  10.467  0.3178 -0.4056 -0.0048
16159PP      PP26263   1.172   8.682   4.076 -0.1228 -0.2706  0.1141
16160PP      PP26264  13.207  13.677  10.570  0.0107  0.0345  0.1474
16161PP      PP26265   5.251   6.478   1.302 -0.0072 -0.1807  0.1065
16162PP      PP26266   0.520   7.346   1.141  0.0497 -0.0345 -0.1074
16163PP      PP26267   7.359   0.862  11.538 -0.2759  0.0070  0.0096
16164PP      PP26268   0.073   4.624   9.078 -0.2126 -0.2314 -0.1503
16165PP      PP26269   9.571   2.360   1.148  0.1525 -0.1348  0.1282
16166PP      PP26270   5.219   1.699   3.121 -0.1587  0.2601  0.0024
16167PP      PP26271  15.593   2.045   4.273 -0.3258  0.0073 -0.0428
16168PP      PP26272   6.986  11.957  11.321  0.1172 -0.4268  0.1271
16169PP      PP26273   6.473   6.340   3.596  0.3010 -0.0515 -0.0348
16170PP      PP26274  10.729   3.452  10.250  0.0453  0.1127 -0.1318
16171PP      PP26275   4.088  13.485  11.421  0.1477 -0.1107 -0.1485
16172PP      PP26276  12.911   4.272  10.436  0.1369  0.0686  0.1271
16173PP      PP26277   0.089   4.987   4.288  0.0544 -0.0010 -0.0569
16174PP      PP26278   7.195   8.525   3.650 -0.0882  0.2862 -0.1338
16175PP      PP26279   5.396  14.159  10.719  0.2395  0.1010  0.1880
16176PP      PP26280  13.904  12.647   9.858 -0.0366  0.0885 -0.5037
16177PP      PP26281   3.435   2.273  13.336  0.2032  0.0092  0.3998
16178PP      PP26282   9.659  14.446   0.287 -0.2103 -0.1276  0.1685
16179PP      PP26283   3.649  14.625   1.283  0.0045  0.4122  0.0642
16180PP      PP26284   5.646   4.173   9.344  0.2583  0.1161 -0.2056
16181PP      PP26285   4.382  11.722   9.668 -0.0566  0.0113  0.2703
16182PP      PP26286   0.513   1.276   1.249 -0.0435  0.1973  0.0860
16183PP      PP26287   3.054   0.272   9.177 -0.0386  0.0337 -0.3177
16184PP      PP26288  14.361   6.536   9.769 -0.0552  0.1285 -0.0966
16185PP      PP26289   1.160  12.880  12.754 -0.1223  0.1874 -0.0104
16186PP      PP26290  10.162   6.929   4.547  0.0356 -0.0478 -0.0067
16187PP      PP26291   4.517   9.442   1.287  0.0879 -0.1674  0.0656
16188PP      PP26292  11.915   0.376  13.529  0.1300  0.0490  0.3145
16189PP      PP26293   5.420  14.066   1.514 -0.2726  0.4550  0.2493
16190PP      PP26294  15.310   8.415   9.561  0.0926  0.1607 -0.2067
16191PP      PP26295   7.695   1.993   9.744  0.0408  0.1464  0.0381
16192PP      PP26296  12.762   6.371   9.922  0.3008 -0.0284 -0.1318
16193PP      PP26297   4.795   9.501   9.183 -0.0275 -0.1056 -0.2153
16194PP      PP26298   6.554   0.842  10.731 -0.1090  0.2156 -0.0114
16195PP      PP26299   2.930  14.278  13.426 -0.2023 -0.2981  0.0510
16196PP      PP26300  11.375   5.315  12.816  0.5238  0.1203  0.2036
16197PP      PP26301  11.038  14.739   4.271  0.3180 -0.1098  0.1526
16198PP      PP26302   3.489   3.951  12.171  0.2295 -0.0501  0.0879
16199PP      PP26303  11.850  14.351   0.583  0.0101  0.0246  0.2105
16200PP      PP26304   1.738  14.155  11.179  0.3279 -0.4358 -0.0150
16201PP      PP26305   2.524  11.187   3.611 -0.1495 -0.0736  0.1301
16202PP      PP26306   4.559  12.037   2.813  0.2467  0.0307  0.1837
16203PP      PP26307   4.260   4.647   3.511  0.0110  0.1574  0.0282
16204PP      PP26308   0.837  13.530  11.327 -0.2034 -0.2151  0.1299
16205PP      PP26309  11.606   8.427   9.212 -0.4215  0.1467 -0.0169
16206PP      PP26310   3.493   1.999   3.206 -0.2215 -0.2073  0.1655
16207PP      PP26311  11.893   2.410   4.290  0.0751 -0.2584  0.0172
16208PP      PP26312  14.438   8.341  13.522 -0.1007  0.3230  0.1021
16209PP      PP26313   8.933   5.971   3.593 -0.1645  0.0517 -0.1498
16210PP      PP26314   3.262   2.381   9.518 -0.2543 -0.2685  0.4525
16211PP      PP26315   6.522   1.771   3.489  0.0315 -0.1042 -0.1102
16212PP      PP26316  12.353  13.593   1.633  0.3405 -0.0542  0.0048
16213PP      PP26317  15.305  13.592   1.071 -0.0595  0.0252  0.4446
16214PP      PP26318   2.960  13.201   3.807  0.0998  0.2147  0.0597
16215PP      PP26319   7.553  10.523  11.692 -0.0648  0.0382 -0.1825
16216PP      PP26320  12.003   2.597   9.994 -0.2475  0.3139 -0.2944
16217PP      PP26321   9.602   0.517  10.421 -0.1377  0.0751  0.2823
16218PP      PP26322   9.607  15.431   4.665 -0.0290 -0.3051 -0.4010
16219PP      PP26323   8.611   2.687  13.494  0.3052 -0.2429  0.1178
16220PP      PP26324   8.883   4.782   9.134 -0.1951 -0.0035  0.0057
16221PP      PP26325   2.118   7.394  11.926 -0.0304 -0.1519  0.0470
16222PP      PP26326  11.471   3.522  13.096  0.2792  0.2135  0.2564
16223PP      PP26327   5.029   9.910  12.985  0.0719  0.0703 -0.0208
16224PP      PP26328   7.549  14.073  10.966  0.1102  0.0759 -0.1177
16225PP      PP26329   0.198  12.877  10.219  0.0060 -0.0371 -0.0583
16226PP      PP26330   2.061   2.183  12.979  0.1020 -0.1146  0.1400
16227PP      PP26331  14.060   5.453   9.750 -0.0129  0.1345  0.1872
16228PP      PP26332  14.812   9.523  10.216 -0.0796 -0.1329 -0.0575
16229PP      PP26333  15.440   2.236  10.073 -0.0884  0.1716  0.2832
16230PP      PP26334  11.235   4.401  11.512 -0.0769  0.2377 -0.0555
16231PP      PP26335   6.095  15.203  10.658  0.0222  0.0039 -0.2932
16232PP      PP26336  13.030  14.106   3.332 -0.0144  0.0024  0.2429
16233PP      PP26337   9.360   7.019  13.411  0.2777 -0.2256  0.3082
16234PP      PP26338  14.483   7.538   2.431 -0.4550 -0.0383  0.4334
16235PP      PP26339   4.181   8.680   0.271 -0.1490  0.1344 -0.1325
16236PP      PP26340   5.611  13.550   2.008  0.1601 -0.0940 -0.2758
16237PP      PP26341  13.650   7.891   0.394 -0.4213  0.0010  0.1222
16238PP      PP26342  11.273  11.169  11.630 -0.3867  0.0380  0.1445
16239PP      PP26343  10.993   1.797   2.182 -0.0038 -0.0854  0.2298
16240PP      PP26344   1.637   2.386   2.537  0.0204  0.1494 -0.0191
16241PP      PP26345   8.308  14.700   2.418 -0.3269  0.0480  0.0038
16242PP      PP26346   1.304  10.704   1.587  0.2983  0.1738  0.5100
16243PP      PP26347   4.950  14.249  11.023 -0.2452  0.0845  0.4478
16244PP      PP26348   5.877   2.111  12.213 -0.0930 -0.4421  0.0255
16245PP      PP26349   8.601  13.543  12.349 -0.0780  0.3463 -0.0717
16246PP      PP26350   3.510   5.466   9.621  0.3633  0.0627  0.1100
16247PP      PP26351   0.309   5.091  10.643 -0.1969 -0.5138 -0.1449
16248PP      PP26352   7.726  11.272   3.279  0.3938  0.5239 -0.1257
16249PP      PP26353  10.168   8.252  10.726  0.2610 -0.1436  0.1115
16250PP      PP26354   9.913  14.621   8.954 -0.3101  0.1137 -0.2483
16251PP      PP26355  10.202   0.287   4.092  0.0740  0.0894  0.2336
16252PP      PP26356  15.298   6.148  12.195 -0.1467 -0.0051  0.2279
16253PP      PP26357   6.844   4.814   9.063 -0.0757 -0.3009 -0.1931
16254PP      PP26358  12.095  14.517   9.982 -0.1856 -0.3211 -0.1395
16255PP      PP26359   4.950  13.885   1.474 -0.1134  0.1839 -0.4024
16256PP      PP26360  11.222  10.420  12.378 -0.1726 -0.0742  0.1584
16257PP      PP26361   9.657  15.387   2.974  0.0250  0.1707 -0.0891
16258PP      PP26362  15.496  12.657  12.146  0.1185  0.1875 -0.1678
16259PP      PP26363   8.087   1.736   1.342  0.1354 -0.0185  0.1927
16260PP      PP26364   9.133   2.429   2.859  0.0727  0.1719 -0.0869
16261PP      PP26365   6.115  15.186   2.474 -0.3890  0.2961  0.2346
16262PP      PP26366  11.975  15.839   0.394  0.1407  0.1647 -0.0783
16263PP      PP26367   1.108  12.867   9.620 -0.3713 -0.2602  0.2128
16264PP      PP26368  13.024   8.102   3.895 -0.1455 -0.1093  0.0158
16265PP      PP26369   8.144   2.872   4.775 -0.1767  0.2061  0.1076
16266PP      PP26370   3.045  13.138   8.962 -0.3086  0.1142 -0.1527
16267PP      PP26371   8.958   3.608   1.305  0.0106  0.1521 -0.1993
16268PP      PP26372  14.249   7.133   2.139 -0.0977  0.3530  0.0963
16269PP      PP26373   2.641  11.823  12.108 -0.0608  0.0273 -0.2520
16270PP      PP26374  13.170  13.903   0.949  0.1624 -0.1678  0.0369
16271PP      PP26375   3.111  15.730  11.361 -0.0480 -0.1548 -0.0532
16272PP      PP26376   8.330   6.918   3.808  0.2099 -0.2710  0.1141
16273PP      PP26377   9.614   9.486  10.776 -0.0713  0.4521 -0.0717
16274PP      PP26378   6.068   9.605   2.422 -0.0501  0.1839 -0.1191
16275PP      PP26379  14.098  14.591   1.579  0.0256  0.0543 -0.1205
16276PP      PP26380   7.890   7.006   0.594  0.0662  0.2579  0.1601
16277PP      PP26381  12.763   8.543   2.122 -0.0981  0.2567 -0.0764
16278PP      PP26382   4.294   8.173   2.527 -0.2076 -0.1348 -0.1976
16279PP      PP26383  15.427  14.396   3.078  0.0226 -0.0097 -0.0535
16280PP      PP26384   3.390  14.387  13.249 -0.1409  0.1062 -0.1038
16281PP      PP26385   4.117  10.595  12.330 -0.2229 -0.0539 -0.0411
16282PP      PP26386   0.915   1.287  10.979 -0.0066  0.1097 -0.0974
16283PP      PP26387  11.436   4.762  12.868  0.1098 -0.0356 -0.2541
16284PP      PP26388  10.886  12.550  12.023 -0.0782 -0.1068 -0.1140
16285PP      PP26389  14.387  11.846  11.804 -0.1606  0.1030  0.0983
16286PP      PP26390   7.867   5.792  13.528  0.1652  0.0558  0.4731
16287PP      PP26391   8.944   7.621   2.630 -0.0315  0.0321 -0.3018
16288PP      PP26392  15.035   9.675  12.793  0.0670 -0.1694 -0.0261
16289PP      PP26393   2.248  14.888  11.541 -0.2637  0.1160  0.2188
16290PP      PP26394   0.363   6.090   2.705 -0.1888  0.1482 -0.1610
16291PP      PP26395  10.634   1.222   9.023  0.0443 -0.2741  0.1397
16292PP      PP26396   2.552   4.688  12.465  0.0791 -0.2302  0.2041
16293PP      PP26397   5.498   6.549   3.193  0.2833  0.2106  0.0669
16294PP      PP26398   9.098  11.717  10.776 -0.0741  0.5763 -0.1927
16295PP      PP26399   1.824   4.635   3.549  0.0197 -0.1528 -0.1301
16296PP      PP26400   3.726  11.831  11.820  0.2906  0.0930  0.2413
16297PP      PP26401  13.241  14.481   1.966 -0.0706 -0.2663 -0.0484
16298PP      PP26402   0.156  11.624  12.418  0.0999 -0.0961  0.0219
16299PP      PP26403   0.545  14.175  12.040  0.0025 -0.2033  0.3394
16300PP      PP26404  13.651   6.857   7.786  0.1983  0.0290  0.1000
16301PP      PP26405   4.069  12.454   1.845 -0.0777  0.0044 -0.1810
16302PP      PP26406   6.505   6.001   1.848 -0.1436  0.1259 -0.0372
16303PP      PP26407   8.980   4.056   1.533 -0.1775 -0.0389  0.2064
16304PP      PP26408  15.134   7.897  12.592 -0.2241  0.0375 -0.1712
16305PP      PP26409   6.202   2.414  11.296  0.0245 -0.0218  0.1205
16306PP      PP26410  10.575   9.875  10.624  0.2672 -0.2505 -0.0496
16307PP      PP26411   9.069  10.911   0.122  0.1491 -0.0177 -0.2886
16308PP      PP26412  10.733   2.956   2.016  0.5098 -0.0972 -0.1705
16309PP      PP26413   5.892   2.264  13.055  0.0603 -0.3810 -0.1907
16310PP      PP26414  12.355  12.513   2.994  0.0445  0.0275 -0.0101
16311PP      PP26415   6.528   9.712   0.115 -0.1528  0.0697  0.1544
16312PP      PP26416   4.148  12.214  11.958 -0.0576 -0.0386 -0.3408
16313PP      PP26417  14.126   0.628  11.593  0.0074 -0.0191  0.1420
16314PP      PP26418  11.984  10.082  11.739 -0.1123 -0.0062 -0.0957
16315PP      PP26419   3.687   8.820  10.534 -0.0151 -0.2779 -0.0321
16316PP      PP26420   5.415   4.009  13.050 -0.1038 -0.0088 -0.1898
16317PP      PP26421  11.230   1.018   9.852  0.0836 -0.2230  0.1306
16318PP      PP26422   8.186   7.122  10.889 -0.3223 -0.1100  0.0268
16319PP      PP26423  10.019  14.179   0.060 -0.3439  0.3209  0.1533
16320PP      PP26424  15.057   7.102   1.695  0.1142 -0.1137  0.1330
16321PP      PP26425  10.862   0.725   0.655  0.2225 -0.0858 -0.2604
16322PP      PP26426   0.709   6.162  13.149  0.2810  0.0982 -0.1167
16323PP      PP26427   5.851  14.061   1.047 -0.0511  0.0154  0.3095
16324PP      PP26428  10.418  13.992  10.350 -0.2014  0.0398 -0.1104
16325PP      PP26429  10.101   6.643   3.053  0.2048  0.1616 -0.0820
16326PP      PP26430   5.853  10.078   3.869 -0.2424  0.2403  0.0612
16327PP      PP26431  11.201  11.089   2.182  0.1661 -0.1097 -0.1561
16328PP      PP26432   9.666  13.630   9.278  0.3112  0.1957 -0.2540
16329PP      PP26433   4.182   3.840   4.153 -0.0159  0.0992 -0.1145
16330PP      PP26434  15.676   6.250   3.396  0.2759 -0.0042 -0.0328
16331PP      PP26435   8.366   6.681   8.785  0.0489 -0.1297 -0.5470
16332PP      PP26436   2.788  10.320   3.976 -0.0673 -0.0451 -0.3519
16333PP      PP26437  12.833   2.371  12.499  0.1161  0.0621  0.3212
16334PP      PP26438   9.949  12.333  10.980  0.5246 -0.0860  0.0847
16335PP      PP26439  14.753   1.250   9.930  0.2123  0.1641  0.2823
16336PP      PP26440   5.463  14.010  11.898  0.1962  0.0646  0.0556
16337PP      PP26441  11.475   3.386   3.267 -0.0605 -0.0838  0.1260
16338PP      PP26442   9.310  11.330   1.953  0.3133 -0.0987 -0.2233
16339PP      PP26443   8.199   7.361  12.533 -0.1650  0.1027 -0.2564
16340PP      PP26444  11.074  12.412   2.105  0.3805  0.5224 -0.3227
16341PP      PP26445  12.212   0.365   9.323 -0.0078 -0.2594 -0.0213
16342PP      PP26446   0.225   4.762  12.429 -0.0113 -0.1983  0.0401
16343PP      PP26447  13.894  13.994   4.254  0.0479 -0.1327  0.1198
16344PP      PP26448   5.892   7.914   3.138  0.5669 -0.0663  0.2416
16345PP      PP26449  11.897   7.476   9.010 -0.1107 -0.3403 -0.0844
16346PP      PP26450  14.982  13.975  10.729  0.1327  0.0576 -0.0984
16347PP      PP26451   9.672  12.268   2.670 -0.2460  0.0573  0.1867
16348PP      PP26452   4.898   9.159   4.614 -0.1094  0.1368  0.0410
16349PP      PP26453   5.364  11.198  11.756 -0.2248  0.0572  0.3809
16350PP      PP26454   4.600   8.446  11.533  0.0465  0.1238  0.1774
16351PP      PP26455  15.489   7.622   3.438 -0.1259  0.1055  0.0878
16352PP      PP26456  13.965   7.786  11.189  0.0646  0.4507  0.0233
16353PP      PP26457   4.705  15.853  12.634 -0.1107  0.1500  0.2401
16354PP      PP26458  14.638   8.175   7.896  0.1011 -0.2504  0.0173
16355PP      PP26459  10.483  10.439  10.525 -0.0964 -0.1095 -0.1243
16356PP      PP26460   2.775  15.270   9.458  0.0997 -0.0508  0.2036
16357PP      PP26461   1.927   6.613  12.031  0.2289 -0.3351 -0.0022
16358PP      PP26462   0.862   0.088  11.962 -0.0631  0.0480  0.3973
16359PP      PP26463  13.897  13.707  12.209  0.1696 -0.1034 -0.0911
16360PP      PP26464  15.353   7.917  11.255  0.1156  0.0797  0.0481
16361PP      PP26465   1.086   7.223  12.227  0.3961 -0.1057 -0.3492
16362PP      PP26466  15.244   5.782   8.158 -0.2052 -0.3918 -0.1211
16363PP      PP26467   8.040  13.028   0.200 -0.0781  0.0761 -0.0916
16364PP      PP26468   1.780   5.115   3.633 -0.2986 -0.1006 -0.1426
16365PP      PP26469  13.136   3.424  10.847 -0.0973 -0.0280 -0.0941
16366PP      PP26470   9.863   8.671   3.140 -0.3051  0.1124  0.3287
16367PP      PP26471  11.433   6.995   0.206  0.0151  0.0186 -0.0205
16368PP      PP26472   4.137  10.613  11.030 -0.1900  0.0109 -0.0166
16369PP      PP26473   3.389   4.951   0.530 -0.1837 -0.1033  0.3086
16370PP      PP26474   2.695   0.163   2.849  0.1666  0.2846 -0.0791
16371PP      PP26475  13.100  13.633   9.419 -0.1297 -0.0375  0.1632
16372PP      PP26476  10.348  14.838   4.161 -0.4927 -0.1463  0.1207
16373PP      PP26477   7.491   2.205  11.365 -0.1951  0.2576  0.0168
16374PP      PP26478   2.809  11.031  12.650  0.0416 -0.3077 -0.0250
16375PP      PP26479  12.559   9.093   2.672  0.0033 -0.0146  0.0932
16376PP      PP26480  12.715   8.196   0.040 -0.3044 -0.4635 -0.0465
16377PP      PP26481   1.858  12.342   0.969  0.1018  0.2432  0.1577
16378PP      PP26482   0.773  15.445   0.132 -0.1930 -0.0818  0.0251
16379PP      PP26483  11.121  13.343   9.688 -0.1556  0.1560  0.0601
16380PP      PP26484  10.487   6.397   0.461  0.0114 -0.0700 -0.2993
16381PP      PP26485  10.479   9.403   3.639  0.0615 -0.0189  0.0737
16382PP      PP26486  15.018   8.011   9.733 -0.0926  0.1218  0.0576
16383PP      PP26487   9.299  14.994  12.898 -0.0169  0.2332 -0.2596
16384PP      PP26488  13.958   1.542   9.490 -0.0417 -0.1381 -0.0630
16385PP      PP26489  10.246   9.336   1.955 -0.0970 -0.0356 -0.0270
16386PP      PP26490   7.461   5.257  10.202  0.2092  0.1176  0.2152
16387PP      PP26491   4.168  11.442   4.018  0.1958 -0.0634 -0.0579
16388PP      PP26492   7.447   0.872   4.811  0.1060  0.0110  0.3249
16389PP      PP26493  13.259   4.172  11.410 -0.3918  0.2863  0.0028
16390PP      PP26494   7.864   5.770   9.081  0.0042 -0.0222 -0.0480
16391PP      PP26495   6.931  10.074   9.564 -0.0813 -0.0219 -0.1212
16392PP      PP26496  14.381  15.661   3.512  0.0387 -0.3426 -0.3332
16393PP      PP26497  10.925   4.124   3.086 -0.3708 -0.1457 -0.0708
16394PP      PP26498   0.899  13.343   3.482 -0.0624  0.0361 -0.2462
16395PP      PP26499   0.034   8.901  10.079  0.3029  0.0512  0.2095
16396PP      PP26500   4.700   1.268  10.649 -0.1496 -0.0130  0.0126
16397PP      PP26501   8.306   1.406   9.529  0.4564  0.1751  0.1096
16398PP      PP26502   7.490   2.030   2.230  0.1156  0.1935  0.0369
16399PP      PP26503   7.785  15.013   9.390 -0.1474  0.2925  0.1326
16400PP      PP26504   5.047   1.061   2.907  0.0824  0.0888 -0.1076
16401PP      PP26505   9.684   5.786   0.199 -0.0458  0.1366  0.0966
16402PP      PP26506  11.404   2.838   3.864 -0.0127  0.1309  0.0586
16403PP      PP26507   9.913   3.274   1.680 -0.2670  0.1139 -0.0239
16404PP      PP26508  13.605  12.381   4.941 -0.1417 -0.0381 -0.0772
16405PP      PP26509   9.140  10.751   2.037  0.1141  0.2193  0.0794
16406PP      PP26510   9.467   4.865  10.246  0.0475 -0.0555 -0.1153
16407PP      PP26511   3.131   3.165  13.013 -0.1253  0.1962  0.2800
16408PP      PP26512   6.211   5.850   2.610 -0.2711 -0.2373 -0.0369
16409PP      PP26513  13.399   0.734  11.021  0.1330  0.1350  0.0820
16410PP      PP26514   5.075  12.311  10.280 -0.1162 -0.0001  0.0180
16411PP      PP26515   5.437  13.808  11.262 -0.1969  0.3906  0.2453
16412PP      PP26516  14.806  10.053  13.064  0.0552  0.1779  0.0400
16413PP      PP26517  14.856   0.051   4.363 -0.0286 -0.0568 -0.0573
16414PP      PP26518  12.625   1.859   3.816  0.1911 -0.2127 -0.1339
16415PP      PP26519   1.068  12.498  11.464 -0.2711 -0.2058 -0.0831
16416PP      PP26520  14.058   1.419  12.101  0.3030  0.0144  0.1829
16417PP      PP26521   3.517  15.161   4.451 -0.2556 -0.0195  0.1098
16418PP      PP26522   8.191  10.470   9.483  0.1128  0.0518  0.1469
16419PP      PP26523   0.693  10.284  12.692  0.1897  0.0121  0.1060
16420PP      PP26524   5.755   9.405  12.650  0.0459  0.2690 -0.1511
16421PP      PP26525   8.371   7.906   8.875 -0.1065  0.1167  0.1678
16422PP      PP26526   3.285   1.292   0.356 -0.1658 -0.1662  0.0747
16423PP      PP26527   8.197   7.511   3.350  0.2613  0.0530  0.0452
16424PP      PP26528  10.428   8.723  11.226  0.1978  0.0100  0.0983
16425PP      PP26529  11.896  11.306  11.127  0.3516  0.2094 -0.0176
16426PP      PP26530   3.756  10.100   0.955  0.3028 -0.5495 -0.1254
16427PP      PP26531   3.915   1.297  12.749  0.3860 -0.3127 -0.2535
16428PP      PP26532  12.616  13.319  11.777  0.0269 -0.0388 -0.5209
16429PP      PP26533  13.765   8.890  10.278 -0.0324  0.0286  0.1284
16430PP      PP26534  11.356   1.862   4.060 -0.0726 -0.0052  0.1555
16431PP      PP26535   2.378   5.886  10.957  0.3745  0.0368  0.0699
16432PP      PP26536   8.110  12.093  10.789 -0.1182 -0.0445 -0.0763
16433PP      PP26537   2.529  11.918  10.026 -0.0640  0.2362 -0.4394
16434PP      PP26538   6.994   3.162   3.177 -0.2928 -0.0698 -0.1326
16435PP      PP26539  12.369  15.303   1.127  0.0881  0.4100 -0.0656
16436PP      PP26540   0.573   3.240  10.495 -0.1036  0.0785  0.1778
16437PP      PP26541  10.646   0.958  10.989 -0.0381  0.1094 -0.1067
16438PP      PP26542  13.784  10.445   1.470  0.0231  0.0458 -0.0055
16439PP      PP26543  12.890   7.686  12.230  0.0789 -0.0081 -0.2779
16440PP      PP26544   4.057   3.917   0.880  0.0536 -0.0282 -0.1319
16441PP      PP26545   5.388  15.282   3.178 -0.2724  0.0341  0.1689
16442PP      PP26546  12.549  10.096   2.610 -0.1359 -0.0537  0.2281
16443PP      PP26547   9.279   1.910   2.941  0.1591 -0.1280  0.1028
16444PP      PP26548   9.844   1.899   4.024  0.0409  0.0384  0.0929
16445PP      PP26549   6.456   6.495   0.043  0.0909 -0.0820  0.0104
16446PP      PP26550   7.872   4.913  10.258 -0.1892 -0.0251  0.1617
16447PP      PP26551   7.488  15.290   3.672 -0.1125  0.1451 -0.0983
16448PP      PP26552   9.109  14.410  12.523 -0.1706  0.0304 -0.0340
16449PP      PP26553  13.782  12.799   1.481  0.2868 -0.4029  0.0026
16450PP      PP26554   4.411   3.048   3.812  0.0730 -0.1185 -0.3086
16451PP      PP26555   5.997   3.873   4.186  0.1980 -0.0358  0.2132
16452PP      PP26556   5.923   8.829  13.389 -0.1871 -0.2517 -0.0549
16453PP      PP26557  10.534   0.974  13.508  0.0045  0.2084  0.0342
16454PP      PP26558   7.331   0.575   0.309  0.0163 -0.1383  0.1255
16455PP      PP26559   6.143   8.817   0.675 -0.0381  0.0844  0.1023
16456PP      PP26560  12.298   6.678  10.015  0.0074  0.2268  0.2244
16457PP      PP26561  11.775  11.240   4.209  0.1888  0.2495 -0.3720
16458PP      PP26562  14.433   1.906   1.229 -0.0957 -0.0035  0.0695
16459PP      PP26563  13.991  13.037  11.045 -0.0085  0.3769 -0.1189
16460PP      PP26564  12.038   4.374   2.385  0.3950 -0.1180  0.0265
16461PP      PP26565   9.187   5.618   3.927 -0.3171  0.1045 -0.1174
16462PP      PP26566   4.018   6.237   3.939 -0.0975 -0.1105 -0.0260
16463PP      PP26567   5.364   1.041   9.486  0.0796  0.0754 -0.0849
16464PP      PP26568   7.628   3.581   3.213 -0.0597 -0.2156 -0.0795
16465PP      PP26569   3.614   6.179  13.041 -0.0931 -0.1768 -0.0279
16466PP      PP26570  12.158  14.300   2.110  0.1872  0.0386  0.0240
16467PP      PP26571   5.806   0.554   4.003  0.3104  0.1403  0.1503
16468PP      PP26572  11.400   7.916   0.684 -0.0433 -0.0207 -0.0260
16469PP      PP26573   1.755   6.390   9.516  0.2379 -0.2575 -0.0866
16470PP      PP26574  14.263  15.090  12.890 -0.0503  0.2006 -0.2534
16471PP      PP26575   1.180   7.622   3.810 -0.1431  0.1945 -0.1525
16472PP      PP26576  15.347   0.862  12.614 -0.0991  0.1199  0.0206
16473PP      PP26577   8.493   0.570  11.202  0.0105  0.2000  0.1003
16474PP      PP26578  11.841   7.912  10.072 -0.2837 -0.0340 -0.1297
16475PP      PP26579  14.254   3.249  12.783  0.1060 -0.0689 -0.0118
16476PP      PP26580   9.168   9.926   0.620 -0.1846 -0.2027  0.1640
16477PP      PP26581  13.026   3.222   9.578 -0.0876 -0.0193  0.1123
16478PP      PP26582   8.171   7.115   9.024  0.2728  0.1630  0.2280
16479PP      PP26583   7.475   1.221  11.175 -0.0134  0.2324  0.2779
16480PP      PP26584   9.295  15.114   4.373  0.0484 -0.0862 -0.1031
16481PP      PP26585   3.646   4.942  12.649  0.0804  0.1410  0.0530
16482PP      PP26586   8.571  11.633  10.114 -0.1527 -0.1302 -0.0529
16483PP      PP26587   6.427   0.801   2.256  0.0209 -0.1613 -0.2913
16484PP      PP26588   4.399   1.743   0.977 -0.0901 -0.0038 -0.0919
16485PP      PP26589   6.699   4.718   9.990 -0.1277  0.2311 -0.0740
16486PP      PP26590  10.813   9.846   2.827 -0.3281  0.0060  0.3064
16487PP      PP26591   1.427   0.859  12.960 -0.1918 -0.0094  0.2545
16488PP      PP26592   5.815  14.930   0.991  0.0131  0.0020 -0.0129
16489PP      PP26593   2.629   1.490  10.678  0.0677  0.1003  0.1348
16490PP      PP26594  11.318  13.850   0.762 -0.0485 -0.0524  0.1696
16491PP      PP26595   7.420  12.173  12.177 -0.0080  0.2227 -0.1211
16492PP      PP26596   3.847   7.804   3.710  0.3343  0.0908  0.1095
16493PP      PP26597   0.893   8.701  13.390  0.0788 -0.3441 -0.0309
16494PP      PP26598   1.662   8.010   4.443 -0.3353  0.2454  0.0546
16495PP      PP26599  14.533   2.331  10.479 -0.0117 -0.0769 -0.4221
16496PP      PP26600   6.084   5.669  12.941  0.0217 -0.1160 -0.3234
16497PP      PP26601  10.944   1.145   9.405 -0.2899 -0.0482  0.1845
16498PP      PP26602   2.100   1.249  11.847 -0.2410 -0.4034  0.1136
16499PP      PP26603  13.854   7.169  12.588 -0.0914  0.2740 -0.0893
16500PP      PP26604  15.102   0.231   1.238 -0.0247 -0.0465  0.0716
16501PP      PP26605   4.157  13.333   1.814  0.3136 -0.4232 -0.0124
16502PP      PP26606   2.880   9.703  11.817 -0.2019 -0.1632 -0.7337
16503PP      PP26607   8.869   6.914   3.879  0.0690  0.1679  0.1839
16504PP      PP26608  13.766  14.940   1.403 -0.0823 -0.0268  0.1057
16505PP      PP26609   4.935  14.633  11.445 -0.0238  0.1593 -0.1410
16506PP      PP26610   1.309  10.301   8.505 -0.0595 -0.1219 -0.1640
16507PP      PP26611   6.582  13.777  10.568 -0.0530  0.1544 -0.1793
16508PP      PP26612   8.076  13.272  11.898 -0.3186 -0.1216 -0.0587
16509PP      PP26613   6.691  11.119   3.885  0.2675  0.0338  0.0663
16510PP      PP26614  14.475   9.843  12.582 -0.0685  0.0959 -0.1423
16511PP      PP26615   1.419   6.140   9.305 -0.2484 -0.0911  0.4151
16512PP      PP26616  10.920   9.040  10.731 -0.0675 -0.0207 -0.1447
16513PP      PP26617   6.213   1.251   5.496 -0.2128  0.2712  0.0996
16514PP      PP26618  13.891   4.685  10.749  0.1724  0.0392 -0.0718
16515PP      PP26619   8.667  10.682   9.604 -0.0893 -0.2166  0.0600
16516PP      PP26620  11.534   6.148   2.745 -0.1078 -0.0855 -0.0194
16517PP      PP26621  14.832   9.747   0.501 -0.2724 -0.0835 -0.0905
16518PP      PP26622   4.221  15.583   1.851  0.0535 -0.2020 -0.0421
16519PP      PP26623   7.461  13.954  11.790 -0.0868  0.0912 -0.1198
16520PP      PP26624  10.904   1.892  11.379  0.0842  0.0734 -0.2444
16521PP      PP26625   9.132  10.475  12.824  0.0347  0.1267  0.1180
16522PP      PP26626  11.189   9.232   4.708  0.1136 -0.1331  0.0852
16523PP      PP26627  12.222   1.629   3.801  0.5398  0.1470  0.1844
16524PP      PP26628   3.262  12.578   9.503 -0.0035 -0.3214 -0.1068
16525PP      PP26629  12.534  10.708   1.308 -0.2161  0.4720 -0.1819
16526PP      PP26630   1.962   4.000  11.809 -0.1624  0.1382 -0.2679
16527PP      PP26631   8.211   8.900   3.980 -0.0789 -0.0744  0.0490
16528PP      PP26632  15.542  14.228   4.512 -0.0645 -0.1088  0.2723
16529PP      PP26633  10.281   7.691   8.448 -0.0300  0.4360  0.0619
16530PP      PP26634   2.105  14.858  12.388 -0.0328  0.1229 -0.0708
16531PP      PP26635  13.247   0.397   2.102 -0.1290 -0.0069  0.0082
16532PP      PP26636   3.441   0.221   4.492  0.0715  0.1161 -0.0395
16533PP      PP26637   4.900  14.557   3.765  0.2592  0.0024 -0.3616
16534PP      PP26638  10.892   9.300  12.671 -0.0204 -0.3021 -0.3938
16535PP      PP26639  10.297  10.244  12.255 -0.2280  0.0196  0.0097
16536PP      PP26640  12.917   4.786   4.039 -0.0081  0.2717  0.1661
16537PP      PP26641   1.780   2.829   3.723  0.2017 -0.0198  0.1414
16538PP      PP26642   5.947   7.334   8.582  0.2152 -0.3452 -0.1706
16539PP      PP26643   3.709   4.208  11.685  0.0130  0.2978 -0.2191
16540PP      PP26644  13.486   1.086  12.847  0.3867 -0.0407  0.1299
16541PP      PP26645   3.420  12.768   9.929 -0.1269  0.0134 -0.2724
16542PP      PP26646  12.220  12.443   0.844  0.0767  0.2545 -0.1601
16543PP      PP26647  12.826   3.699  11.240  0.0981  0.0352 -0.1027
16544PP      PP26648  12.794   8.461  12.919  0.2392  0.3969 -0.2014
16545PP      PP26649   2.019   9.455   9.595 -0.0612 -0.1123 -0.1024
16546PP      PP26650  15.726   9.106  11.794  0.0275 -0.0943  0.0284
16547PP      PP26651  13.359  11.861   0.439 -0.0878  0.1418 -0.1638
16548PP      PP26652  13.670   7.071   3.980 -0.3314  0.2008 -0.1906
16549PP      PP26653  10.259   1.372   9.355  0.3242 -0.0521 -0.0838
16550PP      PP26654  12.665  10.783  10.737  0.1216 -0.1764 -0.3183
16551PP      PP26655   4.196   7.579   1.841 -0.0391 -0.0815 -0.1014
16552PP      PP26656  12.263  13.600   3.230 -0.5844 -0.1028  0.1633
16553PP      PP26657  14.837   8.944  10.167 -0.0920 -0.1624 -0.1507
16554PP      PP26658   4.751   6.269   2.124 -0.1238  0.1304 -0.1391
16555PP      PP26659   9.348   2.511   3.310  0.0389 -0.2637 -0.2766
16556PP      PP26660   2.196  15.350  11.307  0.0700  0.0482 -0.4096
16557PP      PP26661   4.239   6.977  13.361  0.4360 -0.2546  0.2436
16558PP      PP26662   1.074   2.126   2.096 -0.1538 -0.0383 -0.1929
16559PP      PP26663   4.555   6.098   8.904 -0.1349  0.2563  0.0074
16560PP      PP26664   0.291   7.573   9.081  0.4865 -0.0997 -0.0525
16561PP      PP26665   5.162  11.156   9.297 -0.3583  0.0376 -0.0246
16562PP      PP26666  10.610   2.851   0.490 -0.1245  0.6304 -0.0419
16563PP      PP26667  10.227  11.415  13.230  0.0571 -0.3435  0.1175
16564PP      PP26668   4.117   4.249   3.836  0.0326 -0.2407 -0.1663
16565PP      PP26669   6.600  15.187   0.764  0.0552  0.2049  0.1162
16566PP      PP26670  10.634   3.831   2.361  0.2659  0.0467 -0.1548
16567PP      PP26671   3.397  15.629   0.368 -0.0585 -0.1341  0.1382
16568PP      PP26672  11.731  13.100   5.398  0.2278 -0.0765  0.1420
16569PP      PP26673   0.871  10.966   9.415  0.1543 -0.1102  0.1524
16570PP      PP26674   6.805  11.061   3.423 -0.0795 -0.3799  0.0699
16571PP      PP26675  10.335   7.171  12.113  0.0028 -0.1679 -0.2537
16572PP      PP26676   1.365   8.629   3.573  0.2003  0.0829  0.0049
16573PP      PP26677   9.251   3.149   2.118 -0.1475  0.1509 -0.2303
16574PP      PP26678   0.620   7.996   8.191  0.4199 -0.1455 -0.3313
16575PP      PP26679  15.728  12.976   2.276  0.1758  0.1906 -0.0007
16576PP      PP26680   1.642   8.708  11.318 -0.0137  0.0742 -0.2857
16577PP      PP26681  15.558   9.257  10.757  0.4878 -0.1717 -0.0917
16578PP      PP26682  12.786  12.771   3.932  0.0974 -0.1146  0.1906
16579PP      PP26683  11.256  10.751   2.609  0.2313  0.3760  0.0057
16580PP      PP26684   6.486   4.108   3.644  0.1162  0.3225 -0.0341
16581PP      PP26685   7.765   1.972   0.494 -0.2412  0.0215  0.0756
16582PP      PP26686   7.584   6.067   2.532  0.1231  0.1575 -0.0399
16583PP      PP26687  11.972   1.516   1.734  0.1354  0.3042 -0.0500
16584PP      PP26688   5.629   4.576   3.712 -0.1745  0.4120  0.0057
16585PP      PP26689   3.880   4.545   9.426  0.1955 -0.4322 -0.4694
16586PP      PP26690   4.956   0.730   3.395 -0.0794 -0.0183  0.0139
16587PP      PP26691   0.953   5.574  10.137  0.1216  0.3721  0.1121
16588PP      PP26692   6.941   5.336  10.895  0.1744 -0.1987 -0.0441
16589PP      PP26693   6.911  14.389   2.236  0.0618  0.1031 -0.2444
16590PP      PP26694   1.166   8.908   1.669  0.0008  0.2939 -0.0920
16591PP      PP26695   7.274   7.356   2.833 -0.3003  0.0766  0.0493
16592PP      PP26696  14.926   4.165   2.872 -0.1956 -0.0222 -0.2346
16593PP      PP26697   3.948   2.189  12.745  0.1779 -0.0279  0.0985
16594PP      PP26698   9.290  12.486  11.112  0.2155  0.0454 -0.1700
16595PP      PP26699   3.126   2.913   0.121 -0.1297 -0.0477 -0.0155
16596PP      PP26700   2.016  11.273   0.385  0.0181 -0.1947 -0.1348
16597PP      PP26701   7.694   6.351  13.165  0.3853  0.1957  0.1312
16598PP      PP26702   9.943  11.448  10.435  0.4396 -0.0598  0.1451
16599PP      PP26703  11.965  10.596   9.465  0.0862  0.0333 -0.1909
16600PP      PP26704   0.456   4.630  12.908 -0.3917 -0.0657 -0.0557
16601PP      PP26705   6.625   7.596  13.012 -0.3737 -0.0718 -0.3582
16602PP      PP26706  14.281   4.947   9.481 -0.2188  0.3598  0.0901
16603PP      PP26707   8.215   8.608   8.386 -0.1726 -0.1992  0.1265
16604PP      PP26708   7.336  14.215  10.548 -0.1145 -0.4237 -0.0137
16605PP      PP26709   1.439   1.581  11.801 -0.0125 -0.1921  0.3104
16606PP      PP26710   9.349   6.543   2.315  0.2053  0.2152 -0.0045
16607PP      PP26711   1.576   3.807  10.695  0.0686 -0.1059  0.0327
16608PP      PP26712   3.340  11.011   2.344 -0.1181 -0.2051  0.2405
16609PP      PP26713   8.695  10.887   9.135  0.0102  0.1937 -0.0219
16610PP      PP26714   5.924   4.514  12.098  0.2535 -0.1420 -0.0786
16611PP      PP26715   3.814  12.044   2.080 -0.1180 -0.0125  0.3237
16612PP      PP26716  14.695  12.490   2.428 -0.0702  0.1820  0.1194
16613PP      PP26717   9.369   2.391  12.323 -0.2947  0.4830  0.1368
16614PP      PP26718   8.340   3.943  10.076  0.0973 -0.1930  0.1320
16615PP      PP26719   7.929  12.527   2.462  0.0503 -0.2187  0.3981
16616PP      PP26720   4.900   4.136  11.319  0.0032  0.1612  0.0766
16617PP      PP26721   9.092   0.537  10.441 -0.0186  0.0250 -0.0894
16618PP      PP26722   8.405  15.371   0.397  0.1920 -0.0282  0.1099
16619PP      PP26723   8.021   0.548  10.548  0.1470 -0.0200 -0.2372
16620PP      PP26724   3.339   4.595  12.339  0.1925 -0.0379  0.2658
16621PP      PP26725  10.600   4.593   1.717 -0.1350  0.1415 -0.2102
16622PP      PP26726   5.531  15.469  11.577 -0.1507  0.0396  0.1279
16623PP      PP26727  12.675   3.243   4.498  0.0649 -0.1651  0.3398
16624PP      PP26728   6.848  11.568   0.604  0.2664  0.3397 -0.5331
16625PP      PP26729   9.189  13.875  11.969  0.0379 -0.2109 -0.0538
16626PP      PP26730   6.820   3.790  12.968  0.0571  0.2020  0.0584
16627PP      PP26731   2.655  12.567   2.547  0.2231  0.0195 -0.1396
16628PP      PP26732  15.626   0.739   0.714  0.2480 -0.0576  0.0224
16629PP      PP26733   7.582  13.562   0.257  0.0874 -0.0471 -0.0592
16630PP      PP26734   0.291   2.383   3.302 -0.1234 -0.0061 -0.4391
16631PP      PP26735  10.437   2.196   2.964  0.1431  0.3238  0.0355
16632PP      PP26736  11.459  13.046   4.320  0.3471 -0.1476 -0.2322
16633PP      PP26737   2.315   1.776  11.701  0.1884  0.1545 -0.4122
16634PP      PP26738   8.597  14.416   4.662  0.0991 -0.0023  0.0485
16635PP      PP26739   1.992  10.525  12.593  0.1978 -0.0105  0.1540
16636PP      PP26740  13.715   6.048  11.605  0.1692  0.2396  0.0926
16637PP      PP26741   3.790   5.689   9.165 -0.0641  0.1050  0.1410
16638PP      PP26742   6.526  12.054  11.009  0.1431  0.0266 -0.1366
16639PP      PP26743  10.749  11.766  11.016  0.3169  0.2795  0.1087
16640PP      PP26744  15.807   4.496   1.345  0.1149  0.2620  0.2395
16641PP      PP26745  12.537  11.238  10.436 -0.3857  0.1738 -0.0991
16642PP      PP26746   5.041  12.032   9.658  0.2186  0.1276 -0.1833
16643PP      PP26747  12.915  11.719   0.342  0.0297  0.3891 -0.1901
16644PP      PP26748  11.336   9.398   1.984  0.1697 -0.0472  0.0486
16645PP      PP26749  10.005   1.501  12.081 -0.1029 -0.1345 -0.1801
16646PP      PP26750   5.870   5.470   4.052 -0.0400  0.2769 -0.0893
16647PP      PP26751   6.807   4.903   3.456  0.2070  0.3197 -0.1798
16648PP      PP26752   6.298  11.255  10.703  0.0417  0.1122 -0.0108
16649PP      PP26753   4.212  12.868   2.621  0.0249  0.0567  0.0806
16650PP      PP26754   7.053   2.077   4.923 -0.0691 -0.0804 -0.1825
16651PP      PP26755   1.398  13.093   1.369  0.0721 -0.2912  0.5790
16652PP      PP26756  15.241  13.267   9.167  0.0454  0.1517 -0.2823
16653PP      PP26757   2.226   7.414   9.403  0.0515  0.0680  0.3899
16654PP      PP26758   9.049  14.679   4.388  0.0240 -0.1221  0.1214
16655PP      PP26759   7.565  14.812   3.851  0.2002 -0.2817 -0.0114
16656PP      PP26760   0.592  11.204  11.929  0.0123  0.0198 -0.2885
16657PP      PP26761   3.479   2.556   2.478 -0.0208  0.1913 -0.2584
16658PP      PP26762   1.792   5.253  13.200 -0.3434 -0.1300  0.2102
16659PP      PP26763  12.513   0.993   4.965 -0.5914  0.0062 -0.0916
16660PP      PP26764  12.442   8.330   2.443  0.1870  0.0818 -0.0878
16661PP      PP26765  14.988  13.743   3.439  0.0824 -0.1009  0.1385
16662PP      PP26766   2.629   0.262  10.144  0.0547  0.1478 -0.0479
16663PP      PP26767  14.358   0.698   3.845  0.0457  0.0270  0.3339
16664PP      PP26768  13.607  10.927  10.370  0.0523 -0.3532  0.1853
16665PP      PP26769  14.784   3.790   9.270  0.1647  0.0413  0.1291
16666PP      PP26770   6.019   8.736   9.032  0.0262 -0.1393  0.0513
16667PP      PP26771   3.747   1.673   4.661  0.2261 -0.2668 -0.1405
16668PP      PP26772  12.641   1.022   0.275  0.1097  0.0783  0.3596
16669PP      PP26773   1.054  14.548   0.745 -0.0511  0.3502 -0.1300
16670PP      PP26774  11.875   1.499   2.322  0.0441  0.0242  0.0073
16671PP      PP26775   3.382   8.535   2.219 -0.1869 -0.1795  0.1082
16672PP      PP26776   7.950  15.341  13.494 -0.0579  0.0091  0.1544
16673PP      PP26777   9.557  13.595  13.011  0.1152 -0.3283 -0.0664
16674PP      PP26778   4.660   7.702  10.545  0.0179 -0.1419  0.2303
16675PP      PP26779   7.159  12.702   1.161  0.0766  0.1839 -0.4515
16676PP      PP26780   5.127   3.558   0.830  0.0973  0.0056  0.3196
16677PP      PP26781   2.751  10.056   9.794 -0.2973  0.2114  0.1040
16678PP      PP26782  14.196  10.333   9.277  0.0391  0.0404  0.0753
16679PP      PP26783   7.209   5.183  12.472 -0.1076 -0.4173 -0.1598
16680PP      PP26784   7.805  15.135   0.811  0.0375  0.1440  0.2721
16681PP      PP26785  14.422   6.040   1.213  0.2344 -0.1877 -0.2025
16682PP      PP26786   4.574  11.049   1.816 -0.2110 -0.1347 -0.2685
16683PP      PP26787   1.275   5.156  10.419  0.2009  0.1991 -0.1293
16684PP      PP26788  10.377  14.657   1.687 -0.1340 -0.2478 -0.1638
16685PP      PP26789   2.002  11.878   0.017  0.3080  0.1792 -0.2224
16686PP      PP26790   7.433   1.624   0.417 -0.0746  0.1319  0.2199
16687PP      PP26791   4.532   2.226   1.388  0.0871  0.0849  0.2585
16688PP      PP26792  13.110  10.866   2.115 -0.1369  0.3372 -0.0696
16689PP      PP26793   2.257  10.775   9.807 -0.0805 -0.2742 -0.1331
16690PP      PP26794   1.709   5.014   8.649 -0.1359  0.2437  0.1191
16691PP      PP26795   8.843   3.139  11.583  0.3274 -0.0896 -0.1660
16692PP      PP26796   4.901  12.514   0.479 -0.0268 -0.0352 -0.1482
16693PP      PP26797   8.939   3.397   2.522 -0.2511  0.1088  0.3075
16694PP      PP26798   2.122  12.112   2.445  0.1346 -0.0166 -0.0290
16695PP      PP26799   5.595  10.582  10.310  0.3691 -0.1612  0.0502
16696PP      PP26800   9.615   4.575   9.800  0.0240  0.0032  0.0126
16697PP      PP26801   3.575   4.547  13.033  0.0140 -0.2650  0.1090
16698PP      PP26802   3.053  11.430  12.486 -0.3301  0.1713  0.1096
16699PP      PP26803   3.751  10.952   2.759 -0.1724 -0.1016  0.0980
16700PP      PP26804  13.919   6.622  13.253 -0.2713  0.0650  0.1059
16701PP      PP26805   9.302   2.109   9.766 -0.0702  0.1342  0.3235
16702PP      PP26806  12.866  15.655  12.611 -0.1696 -0.0136  0.1082
16703PP      PP26807   1.787   8.861   9.536 -0.1697  0.1261 -0.1920
16704PP      PP26808  12.881  12.682   4.414  0.0248 -0.1224 -0.1384
16705PP      PP26809   7.397   2.383   9.681 -0.1192 -0.1185  0.0022
16706PP      PP26810  13.855   3.624   3.567  0.1889  0.1950 -0.0878
16707PP      PP26811  11.500   1.062   3.949  0.2357  0.0369  0.0354
16708PP      PP26812  14.643   0.845   1.961 -0.1733  0.0166 -0.0115
16709PP      PP26813   3.764  13.749   1.849 -0.3326 -0.0052 -0.1598
16710PP      PP26814  12.453  15.785  11.859 -0.2264  0.1753 -0.0896
16711PP      PP26815   9.999   6.623  10.049 -0.1075 -0.1787 -0.1603
16712PP      PP26816   3.921   6.207   9.212  0.5625  0.1925 -0.1657
16713PP      PP26817   1.768  13.833  11.564  0.2978  0.1014  0.1737
16714PP      PP26818  10.288   8.070   3.828 -0.2925 -0.0787  0.0190
16715PP      PP26819  13.464   3.876   4.506 -0.3564  0.2043  0.0274
16716PP      PP26820   7.651  15.420   9.834  0.0280 -0.3605  0.2583
16717PP      PP26821   3.498  13.192   8.836  0.5021 -0.0979 -0.1273
16718PP      PP26822  15.711   0.424   1.133 -0.0029 -0.1486  0.1525
16719PP      PP26823  14.480   3.050  12.256  0.1113  0.2423  0.1148
16720PP      PP26824  11.815  14.139  12.701 -0.2785  0.4306  0.2430
16721PP      PP26825   8.780   2.969   0.594  0.1951  0.1463  0.3252
16722PP      PP26826   7.759  15.263  12.628 -0.0063  0.0516  0.1508
16723PP      PP26827   5.642   4.693   9.539  0.0799 -0.0109  0.0794
16724PP      PP26828   6.402   8.798   3.694  0.0144  0.0646  0.2448
16725PP      PP26829  11.485  15.605   1.770 -0.2014 -0.0329 -0.1289
16726PP      PP26830  15.742   6.205   0.271  0.1357  0.2072 -0.1113
16727PP      PP26831   1.869   9.821   9.345 -0.0731  0.4144  0.1703
16728PP      PP26832   6.783   3.498  12.099  0.2455  0.0728 -0.0027
16729PP      PP26833   4.574  13.702   4.863 -0.3117  0.0050  0.2477
16730PP      PP26834   9.053   8.475   4.251 -0.2474 -0.2628 -0.0543
16731PP      PP26835   9.275   4.272   9.993  0.1660 -0.0767  0.2993
16732PP      PP26836   3.700   6.906   0.655 -0.2586 -0.1701 -0.1088
16733PP      PP26837  15.385   9.492  12.471  0.2059  0.1603 -0.1122
16734PP      PP26838  11.161  12.281   3.252  0.2035  0.0893  0.1885
16735PP      PP26839   9.594  10.974   2.828  0.3005 -0.3499  0.3486
16736PP      PP26840   3.690   2.624   3.910 -0.0018 -0.0171  0.0009
16737PP      PP26841  15.147   0.964   4.506  0.1507  0.3121 -0.0592
16738PP      PP26842   3.242   8.685  11.992 -0.1173 -0.1319  0.3858
16739PP      PP26843  15.031  13.205  11.343 -0.1344 -0.1176  0.3367
16740PP      PP26844  12.056  12.843   2.337  0.0760 -0.0218  0.0366
16741PP      PP26845  12.548   3.229  13.322 -0.0404  0.2957 -0.3194
16742PP      PP26846   3.715   5.329   2.225  0.1020  0.2332  0.1504
16743PP      PP26847   4.477  10.548   8.528 -0.0512 -0.2290 -0.0510
16744PP      PP26848   2.352   1.040   0.058 -0.0433  0.2075 -0.0520
16745PP      PP26849  15.698   9.683   0.818  0.1163  0.4272 -0.0591
16746PP      PP26850   0.147   9.108  12.995  0.0193  0.1094 -0.1766
16747PP      PP26851   1.331   5.873   2.406 -0.1614 -0.0542 -0.2784
16748PP      PP26852   2.486   5.366   8.525 -0.0122 -0.1026  0.0491
16749PP      PP26853  13.569   9.866   2.550 -0.0458 -0.0583 -0.2278
16750PP      PP26854   3.264   8.115  11.390  0.0920  0.0775 -0.1314
16751PP      PP26855  14.198   1.060   1.115  0.0587  0.1693  0.1608
16752PP      PP26856  12.753  13.493   2.817  0.2455  0.0028  0.0325
16753PP      PP26857   7.912   3.521  12.585 -0.3366  0.1579  0.0054
16754PP      PP26858   6.051   7.975   4.205  0.0182 -0.3968  0.0361
16755PP      PP26859   5.797   6.380  12.532 -0.2469 -0.1387 -0.2678
16756PP      PP26860   0.227  15.137   3.008  0.1932 -0.0564  0.0285
16757PP      PP26861  14.575  15.734   0.342 -0.0432 -0.1338 -0.0222
16758PP      PP26862   2.929  10.054   9.138  0.0614 -0.0013 -0.0953
16759PP      PP26863  15.409   9.060   2.386  0.1176 -0.2980 -0.0418
16760PP      PP26864   5.486  15.794   3.277  0.1730  0.4037 -0.1952
16761PP      PP26865   5.621  14.208   8.996  0.0390 -0.3076  0.0253
16762PP      PP26866   9.030  12.930   1.047 -0.2315  0.0989  0.2307
16763PP      PP26867   3.196   5.241  11.779  0.0965 -0.1149  0.1787
16764PP      PP26868   4.593  10.643  10.023 -0.2378  0.1358 -0.3522
16765PP      PP26869  15.046  15.449   4.492 -0.0657 -0.1282 -0.0629
16766PP      PP26870   4.620   8.590  11.036  0.3888 -0.3806 -0.1626
16767PP      PP26871   1.103   2.389   9.462 -0.0574 -0.1287 -0.3268
16768PP      PP26872   5.932   7.327   9.067  0.0616  0.5335  0.2145
16769PP      PP26873  14.592   1.657   9.597 -0.1441  0.2028 -0.1654
16770PP      PP26874   8.040  15.043   4.328 -0.0514  0.0513  0.3008
16771PP      PP26875   5.735   0.038   3.696  0.2432 -0.1888  0.0681
16772PP      PP26876   6.683   0.476  10.994 -0.0714 -0.0065 -0.1448
16773PP      PP26877  13.254   6.515  10.290  0.1956 -0.2269  0.2939
16774PP      PP26878   5.475   6.823   3.718  0.0385  0.0792 -0.1139
16775PP      PP26879   2.000   0.939   3.042  0.2196 -0.1084  0.1331
16776PP      PP26880  12.090  11.408   9.317 -0.4925  0.0536  0.0344
16777PP      PP26881  15.431   3.935   2.446  0.3329 -0.1970  0.0179
16778PP      PP26882   7.166  14.697   3.058 -0.1240 -0.3560  0.1824
16779PP      PP26883  12.141   9.438  10.756 -0.0987  0.1324  0.3080
16780PP      PP26884   9.200  10.195   3.713  0.3063  0.2385 -0.0190
16781PP      PP26885  10.593   5.352   0.431 -0.0747 -0.1436  0.0399
16782PP      PP26886   5.716   1.547   9.995  0.1661 -0.1131  0.2525
16783PP      PP26887  11.718  14.791   9.759 -0.0462 -0.0081  0.1886
16784PP      PP26888  14.704   4.910   3.574  0.1332 -0.3075  0.1836
16785PP      PP26889   6.069   9.421  11.357 -0.1360  0.1417 -0.1185
16786PP      PP26890   4.345   5.544  12.644 -0.1862 -0.0032 -0.2818
16787PP      PP26891  13.823   3.870  10.259 -0.0958  0.1133  0.3336
16788PP      PP26892  10.327   7.660   3.350 -0.0454  0.1533  0.0433
16789PP      PP26893   0.650   6.177   9.915 -0.2146 -0.0643 -0.1205
16790PP      PP26894   6.144   6.299  10.393 -0.1966  0.4547  0.0393
16791PP      PP26895  14.347   9.620   0.373  0.3166 -0.2223 -0.0021
16792PP      PP26896  12.647   1.635  10.851 -0.1542  0.2167  0.1151
16793PP      PP26897  10.815  11.222   0.001 -0.0889  0.1552  0.2997
16794PP      PP26898   6.356   8.221   2.300  0.0129 -0.2968 -0.3310
16795PP      PP26899   6.441  12.872   3.435 -0.1851  0.0178  0.1426
16796PP      PP26900  13.859   7.354  12.020  0.2249  0.1120  0.2056
16797PP      PP26901   6.929  14.476   9.180  0.0061  0.0516 -0.0181
16798PP      PP26902  14.146   2.006  10.922  0.1757  0.0320 -0.0177
16799PP      PP26903  12.495  10.758  12.550  0.1306 -0.3029 -0.1853
16800PP      PP26904  13.958   9.917   0.332  0.2143  0.2054  0.1568
16801PP      PP26905  11.598   4.387   3.514 -0.0956  0.0729  0.0717
16802PP      PP26906   8.598   2.400   0.366 -0.0162  0.1756 -0.1540
16803PP      PP26907  10.633   1.274   0.852 -0.0507  0.0163 -0.1734
16804PP      PP26908   7.474  11.844  11.185  0.1813  0.0936 -0.1349
16805PP      PP26909   9.099  10.348  11.618 -0.3066  0.2699  0.0314
16806PP      PP26910  14.332   3.080  13.455 -0.3324 -0.1173 -0.0956
16807PP      PP26911   2.522   3.137  13.056  0.2829 -0.0591 -0.2317
16808PP      PP26912  11.271  10.244   4.771  0.2115  0.0946 -0.0752
16809PP      PP26913   6.478   0.995   1.204 -0.1950 -0.1138 -0.1764
16810PP      PP26914   0.118   1.262   8.890 -0.0480 -0.1057  0.2817
16811PP      PP26915  11.865   0.659   2.144 -0.3697  0.0113 -0.1168
16812PP      PP26916  15.560   0.517  13.348  0.0379 -0.1966  0.0842
16813PP      PP26917   3.240   0.307   2.770  0.2144 -0.2873 -0.3766
16814PP      PP26918   3.709   0.175   3.057  0.1437 -0.0961 -0.5274
16815PP      PP26919   6.390  13.585  13.278 -0.1163 -0.0932 -0.0844
16816PP      PP26920   5.553  14.932   0.506 -0.3254 -0.2328  0.1456
16817PP      PP26921  15.299   2.790   0.106  0.2516  0.0567  0.0554
16818PP      PP26922  15.398   5.580   1.185 -0.0472 -0.1240 -0.1078
16819PP      PP26923  12.997  10.404   2.611  0.2448  0.2002  0.0566
16820PP      PP26924   1.736  10.856   8.723  0.1203 -0.4917 -0.1066
16821PP      PP26925   0.879   8.017  11.707 -0.2368  0.1764  0.1445
16822PP      PP26926   0.849   8.061  12.420  0.0648  0.3947 -0.0344
16823PP      PP26927   3.514   7.218   0.162 -0.2817 -0.0074 -0.4767
16824PP      PP26928   9.588   4.749   0.935  0.2217 -0.2480  0.2278
16825PP      PP26929   1.485   2.570   1.199  0.1312 -0.3377 -0.1353
16826PP      PP26930   8.982   8.538   0.981  0.0917  0.0488 -0.0154
16827PP      PP26931  12.099   7.733   8.624  0.1275 -0.0819  0.0627
16828PP      PP26932  11.206   2.299   4.366 -0.0527 -0.1088 -0.0971
16829PP      PP26933   0.575   0.963   9.146 -0.2292 -0.0554 -0.0190
16830PP      PP26934  10.064   5.014   4.151  0.3766 -0.3308  0.2867
16831PP      PP26935   8.602  12.895   3.975 -0.2384  0.2139 -0.0713
16832PP      PP26936   6.383   0.626   4.793 -0.0364 -0.2476 -0.0493
16833PP      PP26937   8.836   8.789   3.429 -0.1869 -0.1210 -0.1582
16834PP      PP26938  10.185   6.134   2.899 -0.3115 -0.0496 -0.1850
16835PP      PP26939   7.772   5.348  12.752 -0.1598 -0.1567 -0.2284
16836PP      PP26940  13.918   9.256  12.016 -0.1752 -0.1631  0.3085
16837PP      PP26941  15.694  14.654   1.829 -0.3172 -0.3690 -0.1813
16838PP      PP26942  15.020  10.416   2.332 -0.0562  0.0572 -0.1075
16839PP      PP26943  14.449   6.733   2.268  0.3429  0.2554  0.0714
16840PP      PP26944   3.388   0.536   1.071 -0.0674  0.0598  0.0811
16841PP      PP26945   4.295   1.332   3.941 -0.4733 -0.2999 -0.1543
16842PP      PP26946   9.809   6.754  11.417 -0.0832  0.0311  0.1874
16843PP      PP26947   5.970  10.923  10.511  0.1004  0.2297 -0.1883
16844PP      PP26948  13.207   9.648  12.616  0.0969 -0.2627  0.1464
16845PP      PP26949  11.981   4.277   8.748 -0.3465 -0.0285 -0.0322
16846PP      PP26950   7.700   9.636  13.418  0.3245  0.0926  0.2433
16847PP      PP26951  11.374  14.654  10.361 -0.0197 -0.0335 -0.2654
16848PP      PP26952  12.190  10.544   4.486  0.3016  0.0792 -0.0162
16849PP      PP26953   8.468   7.022  13.100 -0.1104  0.1293  0.2226
16850PP      PP26954  14.873   4.713   4.082  0.0998 -0.2428 -0.1704
16851PP      PP26955  14.367   3.957   8.301  0.1824  0.0485  0.3502
16852PP      PP26956   6.981   4.885  11.110 -0.1293 -0.0418 -0.1756
16853PP      PP26957   6.868   6.659  10.721  0.0326 -0.0420  0.1081
16854PP      PP26958  13.474   6.768   3.394  0.2511 -0.1399 -0.0645
16855PP      PP26959  15.504   1.995   9.001  0.1458 -0.1942  0.0959
16856PP      PP26960  10.421   5.402   3.985  0.3575  0.0336 -0.0052
16857PP      PP26961   0.944   0.500   3.652  0.1831  0.3340 -0.0811
16858PP      PP26962   5.749   9.250   2.474 -0.3403  0.0117  0.2172
16859PP      PP26963   2.679   5.377  11.661  0.0623  0.0045  0.4711
16860PP      PP26964  10.828   0.401   1.842  0.3766 -0.1688 -0.0092
16861PP      PP26965  13.769   5.661   8.878 -0.0800 -0.0085  0.0316
16862PP      PP26966   3.413   2.771  13.240  0.1908  0.0796 -0.1042
16863PP      PP26967   8.911   6.724  11.635  0.0997  0.2296  0.2426
16864PP      PP26968   7.613   3.574   9.499 -0.3078 -0.1222  0.0315
16865PP      PP26969  10.883   2.582  10.350  0.0705 -0.1182  0.1397
16866PP      PP26970   5.689   1.867  11.832  0.3168  0.0641  0.1100
16867PP      PP26971   7.586   1.776   3.211  0.1816  0.0991  0.0736
16868PP      PP26972   9.029   1.508   3.414  0.2934 -0.1963 -0.2019
16869PP      PP26973   5.397   8.440   2.714 -0.1493  0.0799  0.1399
16870PP      PP26974   3.110   1.670   4.574 -0.0409  0.1535 -0.2580
16871PP      PP26975   4.012   1.208   3.515 -0.2184  0.1184 -0.2061
16872PP      PP26976   2.975   0.420  11.956  0.1609 -0.4178  0.2067
16873PP      PP26977   2.709  12.332   3.507  0.2368  0.2740  0.0625
16874PP      PP26978   0.554   2.103  10.325 -0.0276 -0.0251  0.1973
16875PP      PP26979   5.791  10.563   3.356 -0.2069 -0.0438  0.0916
16876PP      PP26980   0.582  11.757  12.004  0.3168 -0.1207 -0.0279
16877PP      PP26981   6.890   6.872  10.109 -0.0198  0.0706 -0.0526
16878PP      PP26982  11.883   6.127  11.404  0.0423 -0.1354 -0.1367
16879PP      PP26983   5.315   5.093   0.788  0.1766 -0.1186  0.2458
16880PP      PP26984   6.016   4.553   0.099 -0.0311 -0.3123  0.1229
16881PP      PP26985   3.021  15.382   0.070 -0.1509 -0.2308  0.1130
16882PP      PP26986   0.859  11.182   2.429 -0.2285  0.1434  0.1209
16883PP      PP26987   3.147  14.161   1.364 -0.0735 -0.2419 -0.3085
16884PP      PP26988  14.958  13.892   2.642 -0.4218  0.1637  0.1526
16885PP      PP26989  13.796  10.655   9.827 -0.1007  0.1207  0.2085
16886PP      PP26990  10.617  13.637   4.592  0.2237  0.2259 -0.0620
16887PP      PP26991  10.848  10.158   1.906  0.0919  0.2150  0.0344
16888PP      PP26992   5.283  14.545   0.454  0.0149  0.1643 -0.1421
16889PP      PP26993   7.373   3.211   0.893  0.1254  0.1393 -0.0486
16890PP      PP26994   5.501  14.489  11.760 -0.3799  0.0731  0.1708
16891PP      PP26995  14.363  14.983  10.945 -0.1469  0.1053 -0.1069
16892PP      PP26996  10.147   1.200  12.528 -0.0673 -0.2241 -0.1407
16893PP      PP26997   2.408   3.843  12.037 -0.0519  0.1242 -0.1180
16894PP      PP26998  12.130   8.059  11.891 -0.1680  0.0115  0.0888
16895PP      PP26999   7.472   1.898   9.340 -0.1393  0.0818  0.3231
16896PP      PP27000  12.800   4.766   1.367  0.0864  0.3467  0.1221
16897PP      PP27001   1.661   9.957   1.155  0.1836  0.1882  0.0644
16898PP      PP27002   6.228   5.405   9.659  0.0854  0.3881 -0.1586
16899PP      PP27003  10.956   8.302   7.923 -0.3441  0.1288  0.0414
16900PP      PP27004   2.431   2.613  10.787 -0.1987 -0.4100  0.0595
16901PP      PP27005   3.945  12.208   0.127 -0.0102  0.3368  0.1017
16902PP      PP27006   3.126   5.995  12.970  0.0058  0.2242 -0.0396
16903PP      PP27007  14.386   3.609   1.337  0.0951  0.2894 -0.1915
16904PP      PP27008   6.014  11.208   4.628  0.2879 -0.0225 -0.3807
16905PP      PP27009  14.421  14.236   1.268  0.2541 -0.1745 -0.2494
16906PP      PP27010   3.395  15.795   2.281 -0.0654  0.1335  0.2511
16907PP      PP27011  13.362   5.574  10.900 -0.2440 -0.1329 -0.0404
16908PP      PP27012   9.682  15.455  11.472  0.2642  0.1918  0.2046
16909PP      PP27013   1.720   5.872   9.060 -0.0505  0.3672 -0.2700
16910PP      PP27014   7.710   4.295   9.279 -0.0845 -0.1962 -0.0944
16911PP      PP27015   7.822   6.421   9.777 -0.0821  0.1413 -0.3124
16912PP      PP27016   0.074   5.354   2.177  0.1031  0.0242  0.0839
16913PP      PP27017   6.884   5.256  11.486  0.2037 -0.1648 -0.2649
16914PP      PP27018  11.164  12.959  12.725 -0.0102  0.1318  0.1178
16915PP      PP27019   9.652   2.451   9.753 -0.0416 -0.4413  0.0737
16916PP      PP27020  12.565   1.646  11.876  0.3397  0.1796  0.2877
16917PP      PP27021   0.727   8.539   0.808 -0.1075  0.0408 -0.1021
16918PP      PP27022  14.370   6.934  10.208 -0.1125  0.0693 -0.0529
16919PP      PP27023   5.480   4.220  12.520  0.1965 -0.0308  0.0989
16920PP      PP27024  10.939   3.448   4.968  0.0905  0.2685 -0.2242
16921PP      PP27025   9.195   6.348   0.613 -0.0020 -0.2348 -0.0348
16922PP      PP27026   5.654  12.276  12.773  0.0720  0.1015  0.0038
16923PP      PP27027  14.856   6.152  10.421  0.0399 -0.2736  0.1325
16924PP      PP27028  11.845   4.905  13.256 -0.1039  0.1496  0.2749
16925PP      PP27029  11.706   2.035  10.142  0.0965  0.3949 -0.0288
16926PP      PP27030  14.111   8.235  11.508 -0.1923 -0.0558 -0.0891
16927PP      PP27031  13.217  12.434  12.798 -0.1164 -0.1539 -0.2249
16928PP      PP27032   8.606   3.961   0.490  0.3410 -0.0138 -0.1441
16929PP      PP27033   2.559   4.062   9.280 -0.2483 -0.2398 -0.1894
16930PP      PP27034   2.852   4.909   2.435  0.0412 -0.3669 -0.4234
16931PP      PP27035   0.875  13.873   2.453  0.0757  0.0819 -0.2511
16932PP      PP27036   2.326   4.642  13.473  0.2126  0.1630 -0.1064
16933PP      PP27037   4.399   1.775   1.858  0.3129  0.3298 -0.0876
16934PP      PP27038   2.096   6.709   3.538  0.1017  0.1194  0.1007
16935PP      PP27039   7.959  10.312   5.420 -0.3752 -0.1636  0.3001
16936PP      PP27040   6.081   4.512   9.443  0.1353  0.2270  0.0646
16937PP      PP27041   1.776   9.130  10.992  0.3908 -0.0023 -0.2941
16938PP      PP27042   2.803  14.425  10.917 -0.2514  0.1790 -0.1733
16939PP      PP27043   8.971  10.978   3.933 -0.0664 -0.2056  0.2365
16940PP      PP27044   1.286  12.029   9.465 -0.1905 -0.0154 -0.1336
16941PP      PP27045   2.973   2.845   2.896 -0.1315 -0.2112 -0.0383
16942PP      PP27046   8.007   6.636  11.435  0.1167 -0.1575 -0.2403
16943PP      PP27047   4.849  12.046   0.739  0.0845  0.1156 -0.0558
16944PP      PP27048   6.496  13.279  10.179  0.0084 -0.2592 -0.0330
16945PP      PP27049   5.276  14.774   2.155  0.0193  0.2057 -0.0178
16946PP      PP27050   0.848  11.830   9.723 -0.2512 -0.0246 -0.2271
16947PP      PP27051   6.071   5.749   2.129  0.2368 -0.0130 -0.0341
16948PP      PP27052   5.141   1.660   4.477 -0.1574 -0.2102 -0.0742
16949PP      PP27053  11.677   3.440  10.484  0.0250  0.0885 -0.0484
16950PP      PP27054   4.703   2.617   4.058  0.2842 -0.1636 -0.1404
16951PP      PP27055   0.142  10.455   9.354 -0.2321 -0.0825  0.0731
16952PP      PP27056   6.126   2.596   1.885  0.0525 -0.1831  0.0132
16953PP      PP27057   3.693  11.354   1.287 -0.3172  0.1115 -0.0170
16954PP      PP27058   5.440  10.279   1.649 -0.2508 -0.0273 -0.0678
16955PP      PP27059  13.365   0.260  10.058 -0.2477  0.4038 -0.1976
16956PP      PP27060   2.500   3.405  10.552  0.1007  0.0928  0.1996
16957PP      PP27061   3.473  13.532  10.342  0.3229 -0.0490 -0.1355
16958PP      PP27062   9.142  15.810  11.177 -0.0336  0.0778 -0.2030
16959PP      PP27063  13.018  13.419  13.164  0.0607  0.2290 -0.1243
16960PP      PP27064  13.043   8.792   0.293 -0.0160 -0.0749 -0.1348
16961PP      PP27065  14.765   2.437   9.207  0.0252  0.0941  0.2927
16962PP      PP27066   0.021   6.468   1.903 -0.1166 -0.1336 -0.2127
16963PP      PP27067   4.468  10.604  11.928  0.4136 -0.0748 -0.5407
16964PP      PP27068   1.910   5.277  12.203 -0.2458 -0.1756 -0.0049
16965PP      PP27069  11.898   5.402   3.354 -0.1066 -0.1173 -0.0758
16966PP      PP27070   2.101   0.026  12.887 -0.0568  0.3849  0.0758
16967PP      PP27071   2.601   5.727   9.334  0.0598  0.0848 -0.0819
16968PP      PP27072  10.528   8.885  12.418 -0.4138 -0.0370 -0.1154
16969PP      PP27073   3.557  15.525  12.711  0.0506 -0.0264  0.0846
16970PP      PP27074   7.524   0.038   5.145  0.1729 -0.0403  0.0707
16971PP      PP27075  13.398   2.040   4.468 -0.0478  0.2204 -0.2685
16972PP      PP27076   1.538  13.396  13.030  0.3181 -0.0896 -0.0554
16973PP      PP27077  15.589  14.575  12.638  0.1020  0.0768  0.2152
16974PP      PP27078   6.814   1.613   9.660  0.0830  0.0039  0.1281
16975PP      PP27079   2.689   1.970  11.419  0.2159  0.1344  0.2365
16976PP      PP27080  12.577  13.277  10.097  0.1718  0.1610  0.2423
16977PP      PP27081   9.471  13.987   2.050  0.0376 -0.0117 -0.2215
16978PP      PP27082  14.720  12.734  10.424  0.0946 -0.0599 -0.0158
16979PP      PP27083   7.600   9.500  10.301 -0.2762  0.1743 -0.0900
16980PP      PP27084   1.449   7.271   1.392  0.0727  0.0241  0.0870
16981PP      PP27085  10.663  13.775   2.228 -0.1306 -0.2967  0.0619
16982PP      PP27086  14.744   1.939   2.791  0.1102 -0.2419  0.1971
16983PP      PP27087   1.978   3.727   1.884  0.0195 -0.1105  0.2244
16984PP      PP27088   2.510   9.351   3.261 -0.1175 -0.0956  0.1134
16985PP      PP27089  14.112   5.345   9.106  0.1017  0.2299  0.0595
16986PP      PP27090   7.575   3.737  10.346 -0.1494  0.0553  0.1424
16987PP      PP27091  15.663   3.522   1.471  0.0252  0.1154 -0.3341
16988PP      PP27092  14.108   0.054   1.219  0.0069  0.1761 -0.0813
16989PP      PP27093   9.489  12.871   1.000 -0.0606  0.3574 -0.0342
16990PP      PP27094   2.027   5.451   0.967  0.0627  0.0045  0.0002
16991PP      PP27095   2.200   6.281   2.027  0.1254 -0.0214 -0.2924
16992PP      PP27096   6.421   4.088  12.958 -0.2528  0.1066  0.0360
16993PP      PP27097   6.407   2.696   3.873  0.0824  0.1491  0.2871
16994PP      PP27098   3.773  15.729   4.282  0.0923  0.0090  0.1550
16995PP      PP27099   4.080  15.232   4.340 -0.3369 -0.0898 -0.2631
16996PP      PP27100   1.696   0.123  11.115 -0.1788 -0.1310  0.1471
16997PP      PP27101   7.768   3.154  11.279 -0.0228  0.2692  0.1665
16998PP      PP27102  11.598  14.045   9.434  0.2644 -0.3036 -0.2942
16999PP      PP27103   0.295  10.059  10.442  0.0283 -0.2132  0.2260
17000PP      PP27104   1.404  13.320   3.299  0.0369  0.2389 -0.2454
17001PP      PP27105  12.380   6.289   2.740 -0.3604 -0.1344 -0.2245
17002PP      PP27106   4.549  11.764  12.070 -0.2051  0.0526 -0.1515
17003PP      PP27107   0.473   5.623  10.546  0.2581  0.2021 -0.1861
17004PP      PP27108  12.409   4.095  10.594  0.1261 -0.0177 -0.0832
17005PP      PP27109   1.321   5.761  13.269 -0.0242 -0.0945  0.2336
17006PP      PP27110   8.228  11.227  12.346  0.1828  0.0659 -0.2472
17007PP      PP27111   8.502   8.810  11.685 -0.1755  0.0946  0.0592
17008PP      PP27112  15.276  15.292  11.758  0.2464  0.1258 -0.1408
17009PP      PP27113   1.218  10.938  11.093  0.2806  0.3515 -0.0925
17010PP      PP27114  12.317   3.199  12.853  0.2348 -0.0774 -0.2906
17011PP      PP27115   3.189  10.927   0.533  0.0230  0.2105 -0.4652
17012PP      PP27116   9.927  13.126   3.466  0.0328 -0.0888  0.2472
17013PP      PP27117   0.790   2.000   0.902  0.1443 -0.1293  0.0164
17014PP      PP27118  14.227   8.237   3.892  0.0454 -0.1793 -0.0087
17015PP      PP27119   9.566  15.134  11.833  0.0242  0.1251  0.1107
17016PP      PP27120   4.033   4.601  12.814 -0.0096 -0.0626 -0.4364
17017PP      PP27121  11.233  13.820  11.891  0.0293  0.0506  0.0627
17018PP      PP27122   8.287   6.555   1.800  0.1422 -0.3007 -0.0092
17019PP      PP27123   7.520   7.329  11.272 -0.1199 -0.0815  0.1100
17020PP      PP27124   7.088  13.557   0.527  0.0397  0.0229 -0.0608
17021PP      PP27125   2.017   3.458   2.726  0.0424  0.1256  0.1580
17022PP      PP27126   6.400  14.782   9.183 -0.2754  0.0626  0.1780
17023PP      PP27127   0.549  15.706   9.309 -0.1829  0.0114 -0.2765
17024PP      PP27128   3.440  14.204   2.104 -0.1084 -0.2794 -0.0562
17025PP      PP27129   6.349   0.374   2.668 -0.4250  0.2324 -0.4699
17026PP      PP27130   7.806   3.639  11.464  0.0628  0.3945  0.0439
17027PP      PP27131  15.802   2.461  12.070 -0.2767 -0.0823 -0.0748
17028PP      PP27132   4.427   1.486   3.449  0.0771 -0.3006 -0.4943
17029PP      PP27133  13.943   3.134  11.930 -0.1260 -0.0456  0.4148
17030PP      PP27134   3.901   5.025  11.812 -0.0185  0.3553  0.0212
17031PP      PP27135  10.148  14.252  13.115  0.2182 -0.0178  0.4967
17032PP      PP27136   0.981   7.234  10.397 -0.3091  0.1719 -0.0458
17033PP      PP27137  10.266   8.875   2.316  0.0094 -0.0676  0.1836
17034PP      PP27138   7.858   0.190   0.211 -0.2006 -0.2944 -0.0120
17035PP      PP27139   6.900   6.370   1.639  0.1607  0.1608 -0.0124
17036PP      PP27140   8.292   7.013   0.135  0.3621  0.1243  0.1757
17037PP      PP27141  12.504  12.660   1.299 -0.1050 -0.1159 -0.0059
17038PP      PP27142   9.440  11.326   9.860 -0.2405 -0.0468  0.2664
17039PP      PP27143   6.772  14.037  11.497 -0.0507 -0.2141 -0.2905
17040PP      PP27144   9.260  15.410   0.823  0.1330  0.2081  0.1218
17041PP      PP27145   0.424  15.650   1.514  0.1059 -0.0077 -0.0576
17042PP      PP27146   9.992   7.633  12.613 -0.0999 -0.1670  0.2011
17043PP      PP27147   5.399   1.301  11.400  0.2154 -0.1058 -0.2592
17044PP      PP27148   4.413  12.261   0.311  0.0473 -0.2335  0.3538
17045PP      PP27149  12.656   4.842   9.796  0.0968 -0.0905 -0.3350
17046PP      PP27150   5.246   3.614  10.495 -0.2466  0.0640  0.0558
17047PP      PP27151   2.285   0.744   4.030 -0.0107  0.0343 -0.1436
17048PP      PP27152   8.499   1.006   0.072  0.1418 -0.0813  0.1478
17049PP      PP27153  13.896  13.669   2.532 -0.0844  0.0893  0.0628
17050PP      PP27154   4.366  12.876   1.623 -0.0920  0.4917  0.1490
17051PP      PP27155   9.182   5.589   1.159 -0.0079 -0.1431  0.0690
17052PP      PP27156   6.189   9.709   9.829 -0.2232  0.1271 -0.4604
17053PP      PP27157  10.793  13.382   8.734 -0.2984 -0.0263  0.0894
17054PP      PP27158   3.395  15.416   1.834 -0.0618  0.1677  0.2833
17055PP      PP27159  14.881   1.438   4.513 -0.1545 -0.0862  0.0030
17056PP      PP27160  12.837   4.764   0.671  0.2247  0.3183 -0.3612
17057PP      PP27161   4.450   9.695   8.929  0.1168 -0.0542  0.2911
17058PP      PP27162   2.661  11.119   8.836 -0.1127  0.2261  0.0605
17059PP      PP27163   9.411   6.639   1.846  0.0586 -0.0315  0.1176
17060PP      PP27164  12.319   9.245  12.576  0.0967 -0.3208 -0.0183
17061PP      PP27165   0.146  13.857   3.414 -0.1128  0.1834 -0.2185
17062PP      PP27166  13.767  13.368   3.657  0.0882 -0.0144  0.0023
17063PP      PP27167  13.700   8.385   1.968  0.0899 -0.1162  0.2362
17064PP      PP27168   8.411   4.251  11.512 -0.0045 -0.3870 -0.2628
17065PP      PP27169   5.288   6.063   1.017  0.1464 -0.1862  0.3297
17066PP      PP27170   0.368   5.114   2.577  0.0750 -0.4434 -0.2128
17067PP      PP27171   0.507  13.047   3.477  0.1799  0.0413  0.1889
17068PP      PP27172   5.544  13.089  12.952  0.0195  0.1476 -0.0573
17069PP      PP27173   2.648  13.474  10.850  0.0137  0.1030  0.2998
17070PP      PP27174  14.843   4.301   0.736 -0.0161 -0.1888  0.3438
17071PP      PP27175   1.891  11.299   1.394 -0.1481  0.0399  0.2222
17072PP      PP27176  12.978   1.974   3.486  0.2248  0.2824 -0.4366
17073PP      PP27177  10.674  12.977   9.019 -0.2128 -0.0893  0.0824
17074PP      PP27178   3.493   7.577   2.437 -0.4301 -0.2134 -0.1342
17075PP      PP27179  14.387   9.575   3.319 -0.0536 -0.0157 -0.1137
17076PP      PP27180   0.062  13.922   9.347  0.0282  0.0776  0.0512
17077PP      PP27181   6.991   3.748  11.694 -0.1107  0.1684  0.2133
17078PP      PP27182  15.456  10.521   2.052  0.2406  0.0303 -0.2291
17079PP      PP27183  10.873   5.938  13.272 -0.0329 -0.2400  0.4509
17080PP      PP27184   6.923   7.435   0.479  0.1037  0.1303  0.0425
17081PP      PP27185  10.610   6.718  11.854  0.1403  0.0597  0.0443
17082PP      PP27186  12.347   1.611  12.849 -0.0478  0.0773 -0.0636
17083PP      PP27187  13.087  14.694   3.732 -0.1786 -0.2241  0.0233
17084PP      PP27188  11.689  15.432   2.738 -0.0946  0.3528  0.1434
17085PP      PP27189  13.401   9.911  11.147 -0.1488  0.1276  0.1762
17086PP      PP27190  11.282  12.262   4.698  0.2495 -0.1752  0.1153
17087PP      PP27191   5.006  14.335   1.767 -0.1123 -0.0882  0.1318
17088PP      PP27192   4.150   2.038  11.374  0.3923  0.2232  0.2498
17089PP      PP27193  14.906   5.570   9.244 -0.1080 -0.1610 -0.0241
17090PP      PP27194  14.123   8.563  10.303  0.0600  0.2131 -0.1083
17091PP      PP27195  15.562   0.959   1.281  0.1469 -0.1166  0.2755
17092PP      PP27196   1.338   7.241  11.792  0.0768 -0.1966 -0.1639
17093PP      PP27197  13.582   4.122   0.129 -0.0721  0.1426  0.3646
17094PP      PP27198   2.450   9.947  10.980  0.1608  0.3209 -0.0549
17095PP      PP27199   8.252   2.997   4.240  0.0887  0.2686  0.0213
17096PP      PP27200  11.371   4.975   9.290 -0.1854 -0.1705 -0.1940
17097PP      PP27201  10.392   3.032   2.517 -0.1104 -0.0215  0.0139
17098PP      PP27202  10.488  13.560   2.918  0.1666 -0.0554 -0.2873
17099PP      PP27203   6.302   0.029   9.558  0.0155 -0.0854  0.2376
17100PP      PP27204  15.215  15.712   3.171 -0.1094 -0.2439  0.0329
17101PP      PP27205   0.169   8.892  11.415 -0.1321  0.1608 -0.1816
17102PP      PP27206   4.438   8.743   9.319  0.0413  0.1550  0.1035
17103PP      PP27207   2.443  11.228  10.556  0.0336 -0.1518 -0.2357
17104PP      PP27208  10.850   7.845   0.731  0.1410  0.0470 -0.0375
17105PP      PP27209   9.505   1.450   3.344  0.0352  0.1492  0.2626
17106PP      PP27210  12.699   1.832  13.213  0.2118  0.4415 -0.0491
17107PP      PP27211   1.366   7.045   0.135  0.1608  0.1349  0.2185
17108PP      PP27212   5.358   5.824  10.308  0.2211  0.1623 -0.1937
17109PP      PP27213   4.483   7.802  12.819  0.2116  0.2350  0.0252
17110PP      PP27214  12.452  15.318   3.219 -0.2559 -0.0176 -0.4949
17111PP      PP27215   4.232  14.765  12.701  0.1894  0.0779 -0.0605
17112PP      PP27216   6.751   2.567  10.238  0.1021 -0.1182 -0.0920
17113PP      PP27217  12.983  14.156   9.518 -0.1612 -0.0082  0.1225
17114PP      PP27218   0.269   7.369   2.206  0.0675  0.0023 -0.2136
17115PP      PP27219   5.742  14.529  12.703  0.3401 -0.3509  0.1675
17116PP      PP27220  13.210   2.363   1.581  0.0573  0.0593 -0.2411
17117PP      PP27221  12.674   8.891   3.713 -0.0917  0.0940  0.1696
17118PP      PP27222  13.531   3.689   2.496 -0.0880 -0.2713  0.0429
17119PP      PP27223   6.257   1.597   3.058 -0.2590  0.0977 -0.2273
17120PP      PP27224  12.265   0.465   2.580  0.0482 -0.1183 -0.0047
17121PP      PP27225  14.353   2.817   1.651 -0.0462  0.0057  0.0445
17122PP      PP27226  11.450  15.832   4.608 -0.0066 -0.2586 -0.2794
17123PP      PP27227   1.071   6.323  10.804 -0.0581  0.2787  0.0103
17124PP      PP27228   3.546  14.073   9.780  0.1416 -0.0266  0.0045
17125PP      PP27229   8.454   8.710  10.376 -0.1145 -0.0754 -0.0149
17126PP      PP27230   6.482   9.019   9.198  0.2104 -0.2155  0.2019
17127PP      PP27231   3.147   2.487  12.895 -0.2103  0.2614  0.6271
17128PP      PP27232  12.131   6.873   8.448 -0.1343  0.1295  0.0805
17129PP      PP27233   4.993  13.061   9.370  0.2181 -0.2002  0.0221
17130PP      PP27234   0.558   4.606   3.335 -0.1672  0.0521 -0.1480
17131PP      PP27235  12.869   0.350  11.890  0.0587 -0.3847 -0.1057
17132PP      PP27236   6.659  11.469  12.052 -0.3234 -0.0438  0.0344
17133PP      PP27237   4.729   6.663   2.476  0.0610 -0.2430  0.0627
17134PP      PP27238   6.972   8.327  11.558  0.1100  0.1117  0.1961
17135PP      PP27239  13.645  14.748  13.444  0.1676 -0.0617 -0.2097
17136PP      PP27240   6.887  14.792  12.697 -0.4260 -0.0761  0.0243
17137PP      PP27241   4.672   8.134   1.358 -0.0696 -0.1346 -0.0050
17138PP      PP27242  12.034   3.750  10.298  0.3575  0.2569 -0.1440
17139PP      PP27243   6.197  15.690  13.226 -0.4445  0.0121  0.0580
17140PP      PP27244   8.052   5.734   1.077 -0.1196 -0.1510 -0.1640
17141PP      PP27245   6.702   8.273  12.385  0.0447 -0.0236  0.0264
17142PP      PP27246   6.008   2.586   4.809  0.1580  0.2033 -0.1497
17143PP      PP27247   6.640   3.021  11.835 -0.1288  0.2002 -0.0031
17144PP      PP27248   2.024  14.700   3.394 -0.4117 -0.2939 -0.2516
17145PP      PP27249   2.777   2.741   3.582  0.1581  0.2009 -0.1157
17146PP      PP27250  14.682  10.920   0.925 -0.2098  0.3422  0.1240
17147PP      PP27251   0.111  10.992  13.038  0.1422 -0.3094  0.1972
17148PP      PP27252  13.971   8.336   2.411  0.2939  0.1546  0.1819
17149PP      PP27253   8.257   0.998  10.338 -0.2797  0.0281  0.0896
17150PP      PP27254  10.301   7.399  13.516  0.0634  0.0397 -0.1204
17151PP      PP27255   3.482  12.440   0.460  0.1406 -0.1491 -0.2330
17152PP      PP27256   7.774   7.101   0.050 -0.0656 -0.1257 -0.4571
17153PP      PP27257   1.894   7.250   3.061  0.0506  0.1134 -0.0459
17154PP      PP27258  11.055   8.878   0.494  0.1446 -0.0725 -0.2069
17155PP      PP27259  13.204   0.075   2.890 -0.1144 -0.3610  0.1016
17156PP      PP27260  15.008  12.597   1.616  0.0314  0.1642 -0.2451
17157PP      PP27261   3.516  13.394   4.052 -0.0247  0.1517  0.1554
17158PP      PP27262  13.586  11.576   4.079 -0.1183 -0.0970  0.1488
17159PP      PP27263  12.570   6.063   0.968 -0.0057 -0.0819  0.2050
17160PP      PP27264  12.304   1.263  11.680 -0.1994 -0.3649  0.0213
17161PP      PP27265   7.739  10.101  10.169  0.0629 -0.0524  0.0471
17162PP      PP27266   7.486   1.554  12.983  0.0630  0.3100  0.0269
17163PP      PP27267   7.365   8.678  11.604 -0.0023 -0.2604  0.0438
17164PP      PP27268   9.682   2.982   5.039  0.0248 -0.1472 -0.2830
17165PP      PP27269   7.827  15.381   2.761  0.0374  0.4373 -0.0928
17166PP      PP27270   1.398   0.102   9.521  0.1057  0.0144 -0.2195
17167PP      PP27271  10.621  12.008  11.458 -0.0143  0.1701 -0.3871
17168PP      PP27272  10.003   2.129   0.812  0.0506 -0.2231 -0.0433
17169PP      PP27273  10.267   9.283   8.139  0.1010 -0.0047  0.0571
17170PP      PP27274  11.981  10.706   3.122 -0.2262 -0.4032  0.0151
17171PP      PP27275   8.197   9.638   9.566  0.0006 -0.2892 -0.3736
17172PP      PP27276  13.550  13.945  10.096  0.0483 -0.3992 -0.0642
17173PP      PP27277  13.449   8.930  13.527  0.3030  0.0971  0.1858
17174PP      PP27278  15.634   9.238   9.746 -0.1698  0.3097  0.3891
17175PP      PP27279   8.769   6.508  12.231  0.2183 -0.3846  0.1852
17176PP      PP27280   9.140   7.779  12.207  0.1494  0.0234 -0.0478
17177PP      PP27281   9.158  11.851   4.361 -0.1251 -0.1878 -0.3730
17178PP      PP27282   6.629  10.454  12.992  0.4070 -0.3377  0.0075
17179PP      PP27283  13.865   6.711   0.766 -0.0402  0.2730  0.4337
17180PP      PP27284  15.194   8.034   0.381  0.0717 -0.0542  0.1604
17181PP      PP27285   7.555   3.451   1.833 -0.3009 -0.3326 -0.1572
17182PP      PP27286   8.347   7.975   3.952 -0.3682  0.0064 -0.3873
17183PP      PP27287   6.449   8.892  13.178  0.1526  0.1680 -0.1174
17184PP      PP27288  10.338  11.521  10.745  0.0238  0.0471 -0.0293
17185PP      PP27289   7.416   7.090  10.152 -0.0797  0.0970 -0.3328
17186PP      PP27290  10.045  15.469  13.440  0.1271 -0.0746  0.0591
17187PP      PP27291   3.652   4.619  10.901 -0.0181  0.0926 -0.1900
17188PP      PP27292   9.750  11.167   1.884  0.0036 -0.1585 -0.0736
17189PP      PP27293  11.826  15.456   1.462 -0.2630  0.0515  0.0226
17190PP      PP27294   9.277   7.721   0.701 -0.1689  0.3010 -0.1221
17191PP      PP27295  14.205   3.895   9.490  0.0778  0.0872  0.0112
17192PP      PP27296   8.467  13.459   1.484  0.3565  0.0804  0.1392
17193PP      PP27297   7.626   4.439  10.979 -0.1094  0.1658  0.2392
17194PP      PP27298   4.657   5.565   3.378  0.0108 -0.3177  0.1047
17195PP      PP27299   5.276  10.267   2.624 -0.1996 -0.0059  0.2206
17196PP      PP27300   4.794  10.062   2.908 -0.4975 -0.1465 -0.0575
17197PP      PP27301   5.385   5.137  11.313 -0.1723  0.0268  0.2110
17198PP      PP27302   3.822   0.230  11.229  0.2088 -0.1223 -0.0190
17199PP      PP27303  15.822   8.761  10.962 -0.0029  0.2349 -0.2138
17200PP      PP27304   8.886   4.473  12.502  0.1992  0.0080 -0.3287
17201PP      PP27305  15.501   8.615  13.240 -0.0844  0.1592 -0.0334
17202PP      PP27306   0.735  10.529   9.205 -0.1318  0.2806 -0.1450
17203PP      PP27307   8.926   9.606  10.450 -0.3134 -0.2109  0.1235
17204PP      PP27308   4.101  11.875   1.683 -0.0291  0.0677 -0.2758
17205PP      PP27309  14.734  12.048   0.458 -0.0374 -0.0799 -0.0476
17206PP      PP27310  15.108   0.908   9.962  0.2050  0.1278  0.0582
17207PP      PP27311  14.288   0.986  10.001  0.0523 -0.0646  0.2034
17208PP      PP27312   0.459  10.503   8.353 -0.0013 -0.0977 -0.4691
17209PP      PP27313   9.743   3.381  12.492 -0.0154 -0.0253 -0.0744
17210PP      PP27314  15.394   5.185  10.539  0.0418  0.1987  0.0589
17211PP      PP27315  13.096  11.932  10.260  0.0463 -0.0058 -0.0294
17212PP      PP27316   7.672   8.561   3.285 -0.2619 -0.0584 -0.2249
17213PP      PP27317  15.644  10.429  12.040 -0.0765  0.1879 -0.1193
17214PP      PP27318   2.787  12.729  11.669 -0.1576 -0.0850  0.0336
17215PP      PP27319  11.188   7.474   0.874  0.2293  0.0505  0.1905
17216PP      PP27320   3.335   5.880   2.042 -0.0108  0.0122 -0.0722
17217PP      PP27321  11.865   9.184  10.276 -0.2831 -0.1079 -0.0122
17218PP      PP27322   5.527  15.799  10.327 -0.0850 -0.1081  0.0114
17219PP      PP27323   9.712   3.068   0.874 -0.0992  0.1746  0.0121
17220PP      PP27324   8.788   0.870   4.270 -0.0396  0.1635  0.1389
17221PP      PP27325   6.159   9.193  11.908 -0.0270  0.1550 -0.0651
17222PP      PP27326   9.517   7.892   1.931 -0.0176  0.2320 -0.1958
17223PP      PP27327  13.493  10.444   2.592 -0.0954  0.1349  0.1220
17224PP      PP27328   7.958  15.148   3.797 -0.2859  0.0239  0.0947
17225PP      PP27329   8.990   1.781   3.979  0.3830  0.1225 -0.1395
17226PP      PP27330   1.772  13.670   2.509  0.1542  0.0450 -0.1584
17227PP      PP27331   0.946   2.703   9.799 -0.0514 -0.3348  0.0239
17228PP      PP27332  10.359  14.906  11.709  0.2415  0.0807 -0.3386
17229PP      PP27333  11.936  13.569   4.652  0.1060  0.2592  0.0872
17230PP      PP27334   5.404   6.843  13.288 -0.0972 -0.1801 -0.0054
17231PP      PP27335   5.708   8.158  13.340 -0.4509  0.0947  0.2158
17232PP      PP27336  13.299   3.108   1.690 -0.0413 -0.2702  0.1351
17233PP      PP27337   8.456   4.300   1.602 -0.1222  0.0640  0.2597
17234PP      PP27338   1.033   5.053   0.848  0.0496  0.0013  0.2432
17235PP      PP27339   0.274   8.674   2.570  0.0062 -0.0521  0.2247
17236PP      PP27340  10.415   4.870   3.857  0.2220 -0.1035  0.2148
17237PP      PP27341   4.894   6.896   3.747 -0.2288  0.0158  0.2882
17238PP      PP27342  14.259  14.829   1.109  0.0623 -0.2189  0.0595
17239PP      PP27343  11.619  11.981   9.770 -0.0479 -0.1321 -0.1057
17240PP      PP27344   7.718  14.118  10.150 -0.0954  0.0489 -0.3803
17241PP      PP27345   1.103   2.019  13.502 -0.0687  0.0461 -0.1234
17242PP      PP27346   4.074   2.332   9.049  0.0001  0.0994  0.1245
17243PP      PP27347   6.846   9.236   0.221 -0.0244  0.2245 -0.0609
17244PP      PP27348  11.079   9.830   0.678 -0.1299 -0.0047 -0.0373
17245PP      PP27349   3.938   6.632   2.760  0.0498  0.0105 -0.0938
17246PP      PP27350  15.013   1.052  12.932  0.1336 -0.1065  0.0635
17247PP      PP27351   3.177   9.304  13.424 -0.1288  0.0684  0.1650
17248PP      PP27352   8.271   5.575  12.138  0.3287 -0.0911 -0.1571
17249PP      PP27353  13.658  11.497  12.007 -0.2535 -0.0712  0.1121
17250PP      PP27354   7.123  13.356  11.164  0.0542  0.0231  0.0526
17251PP      PP27355   5.800   4.974   4.107 -0.2352  0.5375  0.1408
17252PP      PP27356  10.654   6.511  10.562  0.2621  0.0706 -0.3076
17253PP      PP27357   6.730  15.480   9.732 -0.0124 -0.0235 -0.0148
17254PP      PP27358   9.341  10.024  11.306 -0.0735 -0.0657 -0.0118
17255PP      PP27359   7.001  11.840   1.165 -0.1904 -0.1922 -0.0661
17256PP      PP27360   1.465   6.226   3.721  0.1882  0.2134  0.0109
17257PP      PP27361   0.468   0.245   3.632  0.1393 -0.1897  0.0175
17258PP      PP27362   6.821   2.034   9.913 -0.0866  0.0446  0.2810
17259PP      PP27363  14.502   5.217   8.743  0.0461  0.0883  0.0360
17260PP      PP27364   6.338   7.497   0.026  0.2971 -0.0369  0.1007
17261PP      PP27365   3.189  15.088   3.887  0.3363  0.0383 -0.0821
17262PP      PP27366   4.179   6.512   0.589  0.1980  0.1871  0.4290
17263PP      PP27367  13.679  13.565   3.214 -0.0514 -0.2234 -0.2052
17264PP      PP27368   2.779   2.335   0.688  0.0466  0.1892 -0.0278
17265PP      PP27369   3.694   0.790  11.349  0.1827  0.0392 -0.2707
17266PP      PP27370   5.562   4.394  10.877 -0.3164  0.2186  0.2216
17267PP      PP27371   4.845   2.976   2.397 -0.3170 -0.1432  0.1053
17268PP      PP27372   1.258   1.840   0.713 -0.2624 -0.0604  0.1680
17269PP      PP27373   6.092   6.337   2.123 -0.0421  0.1631  0.1591
17270PP      PP27374   0.379   0.288   4.381 -0.1755  0.0969  0.1963
17271PP      PP27375   1.936  12.609  12.293  0.1893  0.0486 -0.0844
17272PP      PP27376  10.529   9.130   9.880 -0.1578  0.1803 -0.1288
17273PP      PP27377   8.287  14.283   2.762 -0.2712  0.1080 -0.0747
17274PP      PP27378  13.232   8.790   2.056 -0.0670  0.0423  0.2394
17275PP      PP27379  11.870   8.382  10.884  0.0023 -0.0259 -0.0646
17276PP      PP27380   0.539   1.164   2.018 -0.0823 -0.0818  0.1752
17277PP      PP27381  10.491   2.541   5.103 -0.2662  0.2811 -0.0352
17278PP      PP27382   0.093   2.396  13.027 -0.0657 -0.0222 -0.2761
17279PP      PP27383  12.964   0.515   3.195  0.0612  0.2448  0.1246
17280PP      PP27384   0.509   4.577  10.278 -0.0380  0.1165  0.0876
17281PP      PP27385  12.420   5.906   2.413 -0.1526 -0.2950 -0.0176
17282PP      PP27386  15.075  11.173  11.572  0.1498 -0.0818 -0.2414
17283PP      PP27387   3.193  12.286   1.369  0.1934  0.0989 -0.0844
17284PP      PP27388   6.705   9.952   2.568  0.2581  0.3881 -0.1854
17285PP      PP27389   5.504   7.931   2.084  0.1100  0.0871 -0.0163
17286PP      PP27390  10.124   5.409   3.539  0.0200 -0.1595  0.0822
17287PP      PP27391   0.739   5.359  12.029  0.0591 -0.1444  0.1673
17288PP      PP27392   7.265   8.299   3.225 -0.4121  0.0107  0.0112
17289PP      PP27393   0.596   9.651   0.220 -0.0148 -0.2272 -0.2600
17290PP      PP27394   3.976   5.790  12.330  0.1398 -0.0449 -0.1543
17291PP      PP27395   8.163  14.860   1.171  0.0405  0.0540  0.0885
17292PP      PP27396   5.007   8.920  10.365  0.2012  0.1147  0.3001
17293PP      PP27397  13.605   3.466  10.466 -0.1820  0.0736 -0.1608
17294PP      PP27398   1.440   0.841   3.671  0.3434 -0.3786  0.0767
17295PP      PP27399   5.420   3.792  10.917 -0.4543 -0.0798  0.2910
17296PP      PP27400  13.613  11.091   2.097  0.1154  0.0015 -0.2023
17297PP      PP27401   6.113   6.783   0.551 -0.4274  0.0001 -0.0867
17298PP      PP27402  11.667   2.367  10.913  0.1333  0.2636 -0.2959
17299PP      PP27403   2.316  13.020  10.746 -0.0355 -0.0099  0.0946
17300PP      PP27404   6.952  15.761   0.803 -0.2857 -0.1732  0.0435
17301PP      PP27405   5.745   9.632   1.472 -0.1984 -0.2071  0.1651
17302PP      PP27406   0.999  13.539   3.025  0.0431 -0.1309 -0.1407
17303PP      PP27407   1.419   5.328  10.901 -0.0891 -0.1988 -0.0916
17304PP      PP27408  12.713   6.952   9.770  0.1711  0.0541 -0.0841
17305PP      PP27409   2.891   3.816  13.430  0.0007 -0.0601 -0.0441
17306PP      PP27410   3.844  15.097   3.090 -0.3350 -0.3140  0.0370
17307PP      PP27411   4.546   4.205  12.929 -0.0177 -0.2338 -0.1417
17308PP      PP27412   8.377   2.051   3.923  0.0080  0.1480 -0.2006
17309PP      PP27413  15.498   2.665  10.387  0.1602 -0.1928 -0.2180
17310PP      PP27414   9.175   2.005   3.435 -0.0458  0.1788 -0.0196
17311PP      PP27415   4.261   4.856   4.662 -0.1935 -0.0525  0.2864
17312PP      PP27416   1.085   0.331   2.408  0.0281  0.4458 -0.1385
17313PP      PP27417   9.488  13.386   1.951  0.1018 -0.2056 -0.2324
17314PP      PP27418  12.197   5.810   3.393 -0.3526  0.2135  0.1929
17315PP      PP27419  15.569   5.379   9.885 -0.2553  0.1726 -0.3331
17316PP      PP27420   0.573  14.789   3.253 -0.0003 -0.0029  0.3067
17317PP      PP27421  15.724  14.420   2.628  0.2989 -0.1577  0.1759
17318PP      PP27422   6.716   3.494   0.645 -0.1758 -0.0726 -0.0513
17319PP      PP27423  12.810   9.321  12.380 -0.0048 -0.2185 -0.0797
17320PP      PP27424  10.063  11.137  11.559 -0.2727 -0.0489  0.2282
17321PP      PP27425  13.291  11.969   1.714 -0.1438 -0.1210  0.1866
17322PP      PP27426   6.420   0.777  12.888 -0.1342 -0.2045 -0.1779
17323PP      PP27427   5.439   4.288  11.368  0.0390 -0.1759 -0.0347
17324PP      PP27428  11.233  14.649   3.794  0.0219 -0.3103  0.1172
17325PP      PP27429   2.844   2.375  10.940 -0.2053 -0.5702  0.0027
17326PP      PP27430   2.488   0.250   3.348  0.3385 -0.1078  0.0561
17327PP      PP27431   1.148  10.456  10.757 -0.2431  0.1931  0.0555
17328PP      PP27432   0.160  13.975  10.222  0.0509  0.1819 -0.2182
17329PP      PP27433   9.655   4.966   3.593  0.0038  0.2911 -0.0188
17330PP      PP27434   5.037  11.233   1.629  0.0831  0.0274 -0.0988
17331PP      PP27435   6.790  14.432  12.997  0.0725 -0.1613  0.2256
17332PP      PP27436   8.576   7.022   2.785 -0.1097  0.2856  0.0212
17333PP      PP27437  14.154  13.382   2.835 -0.0264  0.1677 -0.1901
17334PP      PP27438   7.250   1.577   2.414 -0.2932 -0.1896  0.1486
17335PP      PP27439  14.361  13.810  13.382  0.0599  0.1763 -0.0009
17336PP      PP27440   0.378   6.873   0.873 -0.0279 -0.2828 -0.2535
17337PP      PP27441  15.222   8.399  11.008  0.0622 -0.1917  0.1011
17338PP      PP27442   4.594   4.056  10.010 -0.3758 -0.0895  0.3452
17339PP      PP27443   9.885  14.037   4.713 -0.1542  0.0833 -0.1731
17340PP      PP27444   4.219  13.666  12.127  0.0807 -0.2980  0.3210
17341PP      PP27445   9.470   5.302  11.236  0.0690 -0.2182  0.1248
17342PP      PP27446   2.226  14.996   2.605 -0.3463 -0.0560 -0.0380
17343PP      PP27447  12.152  15.327  13.092 -0.0294  0.0352 -0.0884
17344PP      PP27448  12.667  13.171   3.513 -0.0787  0.2327 -0.2657
17345PP      PP27449   0.290   5.153  11.652 -0.1981  0.0687  0.2687
17346PP      PP27450  10.626  12.464   2.900 -0.0686 -0.0462 -0.1128
17347PP      PP27451   2.613  13.996  11.429 -0.0927  0.1149  0.1233
17348PP      PP27452  10.998  13.639   3.577 -0.1237  0.1562  0.2651
17349PP      PP27453   9.809  14.615   3.432 -0.1895  0.1175 -0.1476
17350PP      PP27454  12.864  11.681   0.901  0.1801 -0.2199 -0.2797
17351PP      PP27455  15.485   7.107  11.893  0.2368 -0.0914  0.1435
17352PP      PP27456   9.273  14.839   3.160  0.1408  0.1909  0.4833
17353PP      PP27457   0.246  11.883   0.061 -0.4559 -0.2066  0.1906
17354PP      PP27458   5.396  11.226   3.033 -0.2043 -0.1257  0.1459
17355PP      PP27459   9.271   8.873  11.061  0.2042  0.0601 -0.2151
17356PP      PP27460  12.578  12.232   2.364 -0.0366  0.3660  0.5543
17357PP      PP27461  12.217  14.764  11.837  0.0845 -0.2668 -0.2959
17358PP      PP27462  11.037   7.421  12.276 -0.2902  0.2636 -0.1506
17359PP      PP27463  14.060   6.102  13.395  0.1241 -0.1510 -0.0510
17360PP      PP27464   1.432   2.462  11.319 -0.0157 -0.4163 -0.1760
17361PP      PP27465   8.811   5.310   9.088 -0.2973  0.1706 -0.0270
17362PP      PP27466  14.590   9.913  11.574 -0.0823 -0.1788 -0.0425
17363PP      PP27467   6.784  15.748   0.072  0.0854  0.0380  0.1305
17364PP      PP27468  12.103  12.943   0.435  0.0670 -0.1949 -0.0169
17365PP      PP27469   6.062  10.239  12.839  0.2179  0.0622  0.0049
17366PP      PP27470  15.661   9.867  12.647  0.0835  0.1417 -0.0841
17367PP      PP27471   4.301  12.461   3.041 -0.1679  0.3642  0.0625
17368PP      PP27472   9.297   1.367   0.424  0.0429 -0.1135 -0.0429
17369PP      PP27473  10.749   8.020  10.090  0.1739  0.1286 -0.2314
17370PP      PP27474  11.930   7.677   9.644  0.0760 -0.1996  0.0306
17371PP      PP27475  15.284   9.370   1.798 -0.2301 -0.1042 -0.1522
17372PP      PP27476  11.753   3.851   4.583 -0.2215 -0.3073  0.0036
17373PP      PP27477   6.076  13.005   9.977 -0.0139 -0.0182 -0.1738
17374PP      PP27478   0.484  15.313  12.868  0.0545  0.0579 -0.0324
17375PP      PP27479   6.288  10.658  13.314  0.1873 -0.0006  0.0014
17376PP      PP27480  10.984  10.668   2.127  0.0552 -0.0766  0.2818
17377PP      PP27481   6.892  15.237   4.584  0.0969 -0.1493  0.1842
17378PP      PP27482   1.927   0.359   3.241  0.0754  0.1354  0.2567
17379PP      PP27483   4.435   7.257   1.484  0.0872 -0.2751 -0.0299
17380PP      PP27484   0.733   6.565  11.088 -0.0135  0.2799  0.0544
17381PP      PP27485   2.044  14.497  12.028  0.1712  0.0277  0.1348
17382PP      PP27486   9.006   5.587   9.718  0.0644  0.1776 -0.1182
17383PP      PP27487   5.970   7.859   2.238  0.0211  0.2064  0.0110
17384PP      PP27488  14.605  14.812   3.918 -0.1096  0.1188 -0.0676
17385PP      PP27489  11.099  10.277  11.340 -0.0587  0.0127 -0.1039
17386PP      PP27490  11.418  10.190  10.497 -0.2429 -0.2482  0.3980
17387PP      PP27491   7.443  12.896   9.367  0.1179  0.0515  0.2012
17388PP      PP27492  11.748  11.838   3.238 -0.4180  0.0391  0.0211
17389PP      PP27493   2.247  12.864  13.108  0.2162 -0.0544  0.1790
17390PP      PP27494   5.468   8.205   1.624  0.0698  0.2003 -0.2557
17391PP      PP27495  13.214  13.157   3.077 -0.3892 -0.2163  0.1609
17392PP      PP27496   5.474   0.011  12.591 -0.0133 -0.1932  0.0249
17393PP      PP27497  12.198   7.020   9.302  0.0592 -0.2298 -0.2756
17394PP      PP27498  10.335  13.328   8.924  0.1365 -0.0261  0.2085
17395PP      PP27499   5.665   9.497   3.534  0.0140  0.0111  0.0800
17396PP      PP27500   2.830  12.259  11.361  0.0208  0.2648  0.0509
17397PP      PP27501   3.894  12.857  13.190  0.1527 -0.0535 -0.2513
17398PP      PP27502   1.179   4.809  12.163  0.3117  0.1847  0.2951
17399PP      PP27503   8.681   5.529   1.850  0.2355 -0.0754 -0.0976
17400PP      PP27504  14.495   7.623  11.375  0.0543  0.0892  0.1230
17401PP      PP27505   0.588   7.718   1.483  0.2620 -0.2220 -0.3910
17402PP      PP27506   8.263   6.716   9.876 -0.1244  0.0853 -0.0530
17403PP      PP27507   3.843   6.564   1.097  0.2733 -0.0386  0.0131
17404PP      PP27508   3.875   4.338   3.447  0.1984 -0.0517  0.1456
17405PP      PP27509   7.078   6.152   3.757  0.1790 -0.0927  0.1209
17406PP      PP27510   3.015  11.616  10.580  0.0111 -0.0428 -0.0737
17407PP      PP27511   4.293   2.458   3.690 -0.1133 -0.1570  0.0389
17408PP      PP27512   2.368   6.110   8.062 -0.3066  0.2014 -0.0825
17409PP      PP27513  13.349   4.551   1.440  0.0105  0.0399  0.2601
17410PP      PP27514   1.625  13.064  12.692 -0.3150  0.2083  0.2843
17411PP      PP27515  13.600   4.515  12.798  0.1614 -0.3466 -0.1926
17412PP      PP27516   6.552   4.885  11.302 -0.2244  0.0081 -0.0078
17413PP      PP27517   0.289   0.674   2.880 -0.1706 -0.1091  0.0215
17414PP      PP27518   0.134  12.346   4.107  0.0691 -0.3840 -0.1525
17415PP      PP27519   6.279   2.897  11.522  0.1309 -0.2221  0.1959
17416PP      PP27520   2.572   0.578  12.308  0.3525  0.0504 -0.1110
17417PP      PP27521  12.466   9.572  13.023 -0.3653  0.0226  0.1805
17418PP      PP27522   3.388   1.813  13.446  0.1258  0.2645 -0.0369
17419PP      PP27523   8.072   8.938  12.091 -0.0081 -0.0113  0.1653
17420PP      PP27524   8.610  11.497   3.665  0.1321  0.1667 -0.0695
17421PP      PP27525   1.339   8.929  10.844 -0.3018 -0.2218 -0.0785
17422PP      PP27526  10.568  12.381  12.803  0.1415 -0.3003 -0.1824
17423PP      PP27527   0.653  14.610  12.229  0.1733  0.0994 -0.2927
17424PP      PP27528   0.462  10.147   0.439  0.0676  0.0274  0.0965
17425PP      PP27529  14.593   3.956  12.782  0.0257 -0.1989 -0.0808
17426PP      PP27530   3.035  13.934  12.200 -0.1083 -0.2629 -0.2035
17427PP      PP27531   3.917  11.857   0.877  0.0078  0.2569 -0.0398
17428PP      PP27532   5.705   7.640  11.686 -0.0597 -0.3242 -0.3407
17429PP      PP27533   6.562   5.632  10.993  0.2346  0.1205  0.1468
17430PP      PP27534  12.806   5.608   2.294  0.1504  0.0099 -0.2413
17431PP      PP27535   8.140  13.940   0.770  0.2446  0.2584 -0.2026
17432PP      PP27536   1.009   2.271   4.244 -0.1327  0.0731 -0.0802
17433PP      PP27537   4.366  14.912   2.329  0.1101  0.1557 -0.0583
17434PP      PP27538   9.696   1.226  10.899 -0.4434 -0.1187  0.1984
17435PP      PP27539  12.313   5.081   0.758 -0.2542  0.1300 -0.0035
17436PP      PP27540  12.685   9.331   2.254  0.2207  0.0563 -0.0697
17437PP      PP27541   3.066   0.913   4.009  0.0259 -0.0164 -0.1414
17438PP      PP27542   3.059  15.545   1.269  0.2366  0.0190  0.2113
17439PP      PP27543  10.907   4.740   2.377  0.0259 -0.0665 -0.1047
17440PP      PP27544  11.631   2.731   2.625  0.0688 -0.1028  0.0314
17441PP      PP27545   9.043  13.441   0.239 -0.1232 -0.1862  0.0563
17442PP      PP27546   1.008  14.185  10.043  0.3614  0.0710 -0.0476
17443PP      PP27547   5.570  13.675   4.698  0.0503  0.1139  0.0423
17444PP      PP27548   0.248   3.161  10.067  0.0725  0.1944  0.0016
17445PP      PP27549   6.124   6.671  11.387  0.0037 -0.0927 -0.0429
17446PP      PP27550   3.905   2.870   1.920 -0.1362  0.1935  0.3042
17447PP      PP27551   0.658  12.800   9.996  0.4340 -0.1101  0.1545
17448PP      PP27552   0.990  12.561   0.525 -0.2573  0.1920 -0.0749
17449PP      PP27553   3.022   6.309   1.735 -0.0983 -0.3400  0.1144
17450PP      PP27554  14.675  13.241  10.532  0.2942  0.0641  0.1527
17451PP      PP27555  10.815  15.162   0.919  0.0906 -0.0235  0.1863
17452PP      PP27556  12.714  13.737   3.458 -0.0729 -0.2033 -0.0473
17453PP      PP27557   6.132   0.317   2.235 -0.0267 -0.2590  0.3634
17454PP      PP27558   3.172   2.162   1.532  0.1009 -0.2262 -0.2886
17455PP      PP27559  12.568   3.933   0.042 -0.2554 -0.0236  0.0626
17456PP      PP27560  10.015  10.916   3.022  0.2005 -0.0665 -0.3046
17457PP      PP27561   7.800   4.103  12.843  0.3275 -0.0382  0.1433
17458PP      PP27562   3.468   9.718  12.251 -0.1477 -0.2565  0.3160
17459PP      PP27563   3.618   4.455   2.093 -0.2768  0.1570  0.1384
17460PP      PP27564   5.910  12.428   0.271 -0.0793 -0.0886 -0.4858
17461PP      PP27565  15.753  11.805   2.165  0.0069 -0.3954 -0.0924
17462PP      PP27566   0.491   0.064  12.889 -0.0267  0.1015  0.2635
17463PP      PP27567   9.220   8.498   3.750  0.1791 -0.2062 -0.2025
17464PP      PP27568   8.753  12.147   3.122 -0.0475  0.1401  0.0571
17465PP      PP27569   2.838   1.281   0.128  0.1326  0.1486  0.1587
17466PP      PP27570   2.789   1.147   2.377  0.2328  0.0089 -0.1295
17467PP      PP27571  12.873   1.418   2.634  0.0880 -0.2085  0.1777
17468PP      PP27572   1.252   7.164   9.176 -0.0200 -0.0976 -0.1670
17469PP      PP27573   8.911   4.603   1.746  0.1331  0.1327  0.3688
17470PP      PP27574   2.200  10.349   0.503  0.2960  0.0576 -0.2686
17471PP      PP27575   7.459   6.939   0.834 -0.0231 -0.5453  0.2296
17472PP      PP27576   5.245   6.950  11.446 -0.1925 -0.1564  0.0015
17473PP      PP27577  13.310   3.729  10.004 -0.5557 -0.0953 -0.1725
17474PP      PP27578   5.409   9.563  12.123 -0.1846  0.4165  0.1211
17475PP      PP27579  11.619   4.123   0.332  0.2784  0.0130  0.1101
17476PP      PP27580  14.036  12.520  12.799  0.1910  0.2328 -0.4471
17477PP      PP27581   0.069   5.230   8.540 -0.0334  0.1370 -0.0501
17478PP      PP27582   4.867  14.338  13.004 -0.2655  0.0117  0.2253
17479PP      PP27583   8.127  14.422  12.289 -0.2174  0.2452 -0.2701
17480PP      PP27584  13.946   6.499   8.764  0.1800  0.0050  0.0071
17481PP      PP27585   9.614  12.278   0.993  0.0882  0.0712 -0.0410
17482PP      PP27586  14.383   8.890   0.533 -0.0360  0.1906  0.0333
17483PP      PP27587   7.418  14.020   9.083 -0.0651 -0.1621  0.1167
17484PP      PP27588   5.683  12.511  12.085  0.2268  0.2320 -0.3624
17485PP      PP27589  10.814   7.493   1.438 -0.0040  0.0132 -0.1171
17486PP      PP27590   7.224  15.502  12.894  0.0261 -0.0671 -0.1078
17487PP      PP27591   6.081  11.892   8.520 -0.0622  0.1915 -0.3195
17488PP      PP27592   2.103  15.837   4.133  0.0001 -0.0299 -0.0764
17489PP      PP27593  13.952   9.664  13.305  0.3169  0.1644  0.0840
17490PP      PP27594  10.232   5.053  12.667 -0.0651  0.0128 -0.0367
17491PP      PP27595   1.754   2.212   9.317 -0.1859 -0.2349 -0.2562
17492PP      PP27596   1.945   2.805   4.656  0.5175  0.2413  0.1027
17493PP      PP27597   9.127  12.880   2.033  0.1210  0.1259 -0.0135
17494PP      PP27598   2.909  11.529   0.627 -0.1961  0.3679  0.0099
17495PP      PP27599  14.165  15.718  10.338 -0.2559 -0.1985 -0.2577
17496PP      PP27600  11.382  14.465   0.747 -0.2753  0.0592 -0.2689
17497PP      PP27601  11.556  11.844  12.590 -0.0550  0.0863 -0.3161
17498PP      PP27602   8.115   4.755   2.390  0.1063  0.1549  0.0647
17499PP      PP27603   5.212   0.016   3.725 -0.2179  0.0797 -0.2677
17500PP      PP27604   3.994   9.597   2.749 -0.1217 -0.0659 -0.1676
17501PP      PP27605  12.350   2.143   4.164 -0.1564 -0.4863  0.0681
17502PP      PP27606   1.823   1.493  11.007  0.2560  0.1991 -0.0253
17503PP      PP27607   7.578  14.425   0.322  0.0435 -0.1507  0.1888
17504PP      PP27608   0.893   6.799   0.066  0.0295  0.1336  0.0197
17505PP      PP27609  15.009   6.603  13.248  0.2482 -0.0256 -0.1046
17506PP      PP27610   8.208  10.733   2.454 -0.0323  0.2350  0.0616
17507PP      PP27611  14.734   4.784  13.012  0.0197  0.4757 -0.0562
17508PP      PP27612  11.194  13.793  13.354  0.1281 -0.1871 -0.0139
17509PP      PP27613  12.453  14.404   0.618  0.0390 -0.0009 -0.1169
17510PP      PP27614   6.168   8.859   9.817 -0.1599 -0.1971  0.0208
17511PP      PP27615   8.042  12.842   2.024 -0.0225 -0.0181  0.1673
17512PP      PP27616  14.570   6.864   3.867  0.1016  0.1053  0.0129
17513PP      PP27617   2.909   3.210   4.487 -0.1072 -0.1137 -0.1817
17514PP      PP27618   3.050  13.787  13.355 -0.3226 -0.0681 -0.0106
17515PP      PP27619  10.283   3.719  10.766 -0.0049 -0.1171  0.2059
17516PP      PP27620   1.877  13.814   9.115  0.0888 -0.0307  0.2962
17517PP      PP27621  11.993   2.755   0.738 -0.3393  0.1253 -0.2826
17518PP      PP27622   6.074  14.160   2.430 -0.0074  0.0626  0.1162
17519PP      PP27623   4.996   0.351  13.132  0.0359 -0.2217 -0.0621
17520PP      PP27624  15.191   8.155   3.635 -0.0780  0.2898 -0.1370
17521PP      PP27625   2.707  14.752  11.676 -0.0739  0.1043 -0.0101
17522PP      PP27626   6.740   1.183  12.948  0.2301  0.0199 -0.1417
17523PP      PP27627   8.499  10.372   1.247 -0.2041  0.1492 -0.0526
17524PP      PP27628  12.681   2.781   3.615 -0.0235  0.0853  0.0512
17525PP      PP27629   5.591  11.867   0.351 -0.0361 -0.0966 -0.2644
17526PP      PP27630  13.856  13.160  12.149 -0.0388 -0.2699 -0.3885
17527PP      PP27631   0.342   4.669   2.471  0.2419 -0.0081 -0.1943
17528PP      PP27632  13.941   4.595   9.387  0.2109  0.0211 -0.1565
17529PP      PP27633   2.805   0.085  11.010  0.2373 -0.0876  0.0521
17530PP      PP27634   8.585  10.208   1.806  0.1888  0.1869 -0.2299
17531PP      PP27635  14.828   0.302   0.459  0.1963 -0.1568  0.1499
17532PP      PP27636   5.356   8.950   2.669 -0.1771 -0.0424 -0.0250
17533PP      PP27637   1.656  11.343   0.082 -0.1403 -0.1081 -0.0845
17534PP      PP27638   7.935   9.192   9.559 -0.0253 -0.1618 -0.0943
17535PP      PP27639   1.884   7.743  10.285  0.1626  0.2296  0.3365
17536PP      PP27640   1.007   3.099  10.193  0.3047 -0.1120 -0.0429
17537PP      PP27641   9.224  13.665  11.512 -0.1778 -0.0345 -0.4632
17538PP      PP27642   7.993   3.924   9.446  0.2703  0.1368 -0.1574
17539PP      PP27643   0.077  10.848  11.917  0.0949  0.3157 -0.0603
17540PP      PP27644   4.686  13.572   9.396  0.1438  0.0793  0.1022
17541PP      PP27645  12.093   7.084  11.220  0.1006 -0.0161  0.2280
17542PP      PP27646   0.968   5.543  10.649  0.0483 -0.0028 -0.0129
17543PP      PP27647   3.332  14.811  11.527 -0.2141 -0.0995  0.1391
17544PP      PP27648  10.178  10.015  10.910 -0.2098 -0.0614  0.0221
17545PP      PP27649   8.119   0.430   2.371  0.3209  0.0619  0.1592
17546PP      PP27650   5.269  13.928  13.221  0.1887  0.0978 -0.1215
17547PP      PP27651  11.079  11.603  10.633 -0.3544  0.2080 -0.0604
17548PP      PP27652   1.496   3.800  11.713  0.2914 -0.2933 -0.0137
17549PP      PP27653   0.126   0.519   3.300  0.0924  0.1443 -0.1910
17550PP      PP27654   3.288   1.217   1.423 -0.1627 -0.3605 -0.0365
17551PP      PP27655  14.844  10.848   2.783 -0.0334 -0.1804 -0.2349
17552PP      PP27656  12.359  13.829   2.602 -0.1003 -0.0232  0.1684
17553PP      PP27657   7.246  10.741   1.186  0.1117 -0.1935  0.3219
17554PP      PP27658  15.403  11.716   2.655 -0.0857 -0.0550  0.0039
17555PP      PP27659   5.782  14.566  10.877  0.2332  0.1060 -0.1659
17556PP      PP27660   8.966   8.343  10.065  0.1687 -0.1445  0.0844
17557PP      PP27661  12.188   6.234   9.761 -0.0724  0.2873  0.1402
17558PP      PP27662   8.782   6.257   3.145  0.1861 -0.1563  0.0864
17559PP      PP27663   4.087  10.468   3.706 -0.0150 -0.0045 -0.0571
17560PP      PP27664   7.451   5.097   1.185 -0.1657  0.3876  0.2143
17561PP      PP27665   5.664   5.161  11.712  0.0398 -0.1829  0.0467
17562PP      PP27666   1.920   6.558   1.744 -0.0032  0.0600  0.3855
17563PP      PP27667  14.319  10.144  12.161  0.0965 -0.0642  0.3276
17564PP      PP27668  12.194   9.752  10.071  0.1521  0.1138  0.1737
17565PP      PP27669  15.207   7.153   3.546  0.1072  0.3167 -0.0093
17566PP      PP27670  10.346   9.516   0.072  0.0856 -0.2842  0.0813
17567PP      PP27671   5.411  13.266   4.393  0.0157 -0.0672 -0.0281
17568PP      PP27672  12.586  14.757  10.691  0.2378 -0.1113 -0.0827
17569PP      PP27673  11.642  15.218   0.452 -0.1277  0.0246 -0.1688
17570PP      PP27674  12.653  11.860  13.459 -0.1530 -0.0557  0.2652
17571PP      PP27675   0.801   6.012   1.082  0.1250 -0.0262  0.0826
17572PP      PP27676  11.446   8.670  11.531 -0.1942  0.0928 -0.0090
17573PP      PP27677  12.861   4.228   1.339 -0.1759  0.1986  0.0764
17574PP      PP27678   4.673   7.986  11.475 -0.0527  0.2228 -0.1078
17575PP      PP27679   3.049   4.634   1.500  0.4116  0.1504  0.0147
17576PP      PP27680   5.018   0.868   4.087  0.3898 -0.3670 -0.0729
17577PP      PP27681   6.055  11.763   4.503 -0.1977 -0.1249  0.4842
17578PP      PP27682   6.192  11.261  11.258 -0.0016  0.1099 -0.2334
17579PP      PP27683   2.813  15.019  13.315 -0.0771 -0.1909 -0.3195
17580PP      PP27684   3.888  10.440  13.482 -0.0550 -0.0284 -0.0834
17581PP      PP27685   1.849   8.035  11.024 -0.0355  0.1905  0.0549
17582PP      PP27686   0.265   1.405   0.156  0.0568 -0.3334 -0.1069
17583PP      PP27687   9.990   1.521   4.448 -0.2833 -0.1953  0.2941
17584PP      PP27688   5.311  11.628   4.242  0.3565  0.2333 -0.0246
17585PP      PP27689   4.750  10.607   4.614  0.1956  0.2626 -0.1054
17586PP      PP27690  11.228   3.620  10.250 -0.0747 -0.1640 -0.1232
17587PP      PP27691   2.780  11.488  10.152 -0.1553 -0.2546 -0.3347
17588PP      PP27692  11.669   2.638  13.088 -0.1808 -0.0833 -0.1392
17589PP      PP27693   8.801  15.613   3.195  0.1066 -0.0574  0.1184
17590PP      PP27694   8.694  10.212  13.016  0.0522 -0.2523  0.2887
17591PP      PP27695   0.167  11.187   8.764  0.1880  0.1000  0.0062
17592PP      PP27696   7.135   5.972   1.322 -0.2321 -0.7653  0.1988
17593PP      PP27697   9.455  15.222   3.846 -0.0091 -0.2633  0.0671
17594PP      PP27698  14.694   0.478  13.524 -0.0132  0.0932  0.4846
17595PP      PP27699   2.572   9.001   1.725 -0.1520 -0.2126 -0.1005
17596PP      PP27700   1.958  10.921   9.418 -0.2585  0.1911 -0.0953
17597PP      PP27701   7.260  10.452   0.070  0.1206 -0.1197 -0.1505
17598PP      PP27702   1.040   1.431  11.535  0.4950  0.2301  0.0020
17599PP      PP27703   5.268   7.321   1.443  0.2187  0.1015 -0.2440
17600PP      PP27704  14.749   1.975   9.086 -0.0704 -0.0068 -0.1006
17601PP      PP27705   6.308   1.234   0.446  0.4008 -0.0811  0.0943
17602PP      PP27706   3.801   3.875   4.454  0.2351 -0.1387  0.3160
17603PP      PP27707  13.822   4.699   1.523  0.0991 -0.0457  0.0954
17604PP      PP27708   8.719   7.951   9.896  0.2418  0.3872  0.0292
17605PP      PP27709  14.236   8.307   2.876  0.2073  0.1018  0.0977
17606PP      PP27710  13.815   4.348  12.384  0.0521 -0.1706  0.1610
17607PP      PP27711   2.538   0.659   1.216 -0.1753 -0.1908  0.2702
17608PP      PP27712   3.917  11.957  13.221 -0.1935 -0.0450 -0.4403
17609PP      PP27713  14.993  13.786  12.750  0.0756 -0.1371 -0.1738
17610PP      PP27714  15.068   8.884   1.802 -0.1358 -0.5466 -0.0191
17611PP      PP27715  10.076  10.896   4.057  0.0408  0.1086  0.1169
17612PP      PP27716   3.606  15.555  10.787  0.1960 -0.0462  0.1190
17613PP      PP27717  10.738  12.642   1.181 -0.2774  0.2954  0.2226
17614PP      PP27718   6.237  11.216  13.486 -0.0705 -0.0008  0.4280
17615PP      PP27719  12.201  11.148  12.200  0.1629  0.0839  0.3939
17616PP      PP27720  11.036   4.740  12.498  0.1787 -0.2339 -0.4876
17617PP      PP27721  11.068   0.243   3.081  0.3970 -0.4469  0.2019
17618PP      PP27722  11.376   9.195   3.137 -0.1217  0.0112 -0.1295
17619PP      PP27723   4.913   5.539  12.577  0.0764 -0.0229 -0.0671
17620PP      PP27724   1.387  10.636   9.250 -0.1252 -0.1473 -0.0270
17621PP      PP27725   6.708  13.258   0.427  0.1091 -0.2662  0.0376
17622PP      PP27726   8.490   9.129   9.575 -0.0395 -0.3749  0.2942
17623PP      PP27727  10.018   5.492  10.004  0.2337 -0.0864  0.0110
17624PP      PP27728  10.242   3.078   3.254  0.3677 -0.2750  0.0716
17625PP      PP27729  12.964  11.563  12.396  0.3689 -0.2209 -0.0903
17626PP      PP27730   4.390  12.894   2.150 -0.0004  0.2249 -0.2857
17627PP      PP27731  14.831   8.425   9.351 -0.0424  0.0076 -0.0445
17628PP      PP27732   6.248   7.713  12.591  0.1772 -0.0232  0.4584
17629PP      PP27733   7.638   5.033  12.096  0.1543  0.0570 -0.0250
17630PP      PP27734  14.952  15.069  12.234  0.0190  0.5539  0.1517
17631PP      PP27735  15.122  11.800   0.960  0.2496  0.2319  0.1128
17632PP      PP27736   6.922  10.972  12.048 -0.2519 -0.2529 -0.1340
17633PP      PP27737  14.338  15.017   9.313  0.0575 -0.0993  0.0629
17634PP      PP27738   6.578   9.537   1.072  0.2251 -0.1090 -0.2627
17635PP      PP27739   1.053   2.451   0.941  0.0381 -0.0122  0.1958
17636PP      PP27740   6.834   8.098  10.390  0.1888 -0.2442  0.0230
17637PP      PP27741  15.433   0.861  10.426 -0.1700 -0.1983  0.3089
17638PP      PP27742  12.077  13.085  10.462 -0.1797 -0.0076 -0.1359
17639PP      PP27743   4.571  11.713   3.809  0.2779  0.1121  0.1840
17640PP      PP27744   6.120   9.325   3.195  0.1678  0.1141 -0.0217
17641PP      PP27745  11.903   6.452   1.457  0.0822  0.2620  0.0616
17642PP      PP27746   1.552  12.080  13.116  0.1035  0.0112 -0.1550
17643PP      PP27747   2.434  12.526   0.013 -0.3088 -0.0522 -0.0442
17644PP      PP27748  12.414   6.159  10.236 -0.0223  0.1271 -0.2369
17645PP      PP27749   1.608  13.192   1.859  0.0392  0.0925  0.0128
17646PP      PP27750  12.839  12.453  11.517  0.0065 -0.1526 -0.2302
17647PP      PP27751   0.331   4.913   1.943 -0.0957 -0.1118 -0.3053
17648PP      PP27752   6.055   2.335   2.756  0.1603  0.0363  0.0769
17649PP      PP27753  14.381   5.736   0.524 -0.1182  0.2233  0.0854
17650PP      PP27754  10.942   7.159  10.940 -0.0719  0.1644  0.2430
17651PP      PP27755   0.635  15.193   9.303  0.1155 -0.2540  0.0739
17652PP      PP27756   8.936   8.596   2.863 -0.1991 -0.0504  0.1477
17653PP      PP27757  15.281  14.660   4.830 -0.1437  0.0761 -0.0512
17654PP      PP27758   9.297   7.547   1.148  0.2736 -0.0986  0.1266
17655PP      PP27759  13.061  10.631  13.182  0.3546 -0.1901 -0.0429
17656PP      PP27760  13.223  11.375   2.330 -0.0829  0.1064 -0.1234
17657PP      PP27761   1.613   4.313  10.907 -0.0428 -0.0407  0.0340
17658PP      PP27762   1.019   4.344  10.966  0.0334  0.2384  0.0311
17659PP      PP27763   8.852  10.057  12.492 -0.0267  0.1091  0.0345
17660PP      PP27764   7.564   5.712   2.219 -0.3015  0.2174 -0.2195
17661PP      PP27765  13.800  13.109   9.566  0.0557 -0.0590  0.1963
17662PP      PP27766  15.549   5.394   3.602  0.0778 -0.0446  0.0808
17663PP      PP27767   6.900  10.222   3.915 -0.0388 -0.2016  0.4298
17664PP      PP27768   0.292  14.368   9.453 -0.0399 -0.0671  0.0588
17665PP      PP27769  12.624   9.463  10.371 -0.2066  0.1463 -0.1903
17666PP      PP27770   4.361  11.229   8.845  0.0710  0.0864 -0.0708
17667PP      PP27771  11.688  14.686   3.197 -0.2285  0.1342  0.0918
17668PP      PP27772  13.523   0.694  11.513 -0.0737  0.1785  0.0012
17669PP      PP27773   2.354   5.504  10.696  0.6065  0.0036 -0.0048
17670PP      PP27774   7.302   9.309  11.073  0.1851  0.1349  0.1790
17671PP      PP27775  10.657   3.563  11.677 -0.0035  0.1643 -0.1285
17672PP      PP27776   9.699  15.096   9.366  0.3302 -0.1257  0.0413
17673PP      PP27777  15.744   2.642  12.556 -0.3506  0.0795 -0.0995
17674PP      PP27778  15.248  10.837   4.051 -0.0976 -0.1191  0.0864
17675PP      PP27779   6.775   0.321   9.514 -0.0184  0.1475  0.0590
17676PP      PP27780   2.134   5.339   2.026 -0.0488  0.0813 -0.0183
17677PP      PP27781   0.823  11.012  12.513  0.0311  0.0853  0.0968
17678PP      PP27782  13.656   6.330   8.233 -0.2537 -0.1153 -0.0701
17679PP      PP27783  11.687   2.706  11.616 -0.1735 -0.1916  0.0075
17680PP      PP27784   4.686  14.132   3.530  0.0351  0.1212  0.0261
17681PP      PP27785  14.922   7.898   8.271  0.2618  0.0499  0.2507
17682PP      PP27786   1.313   2.147  12.445 -0.3662 -0.1739  0.0141
17683PP      PP27787   9.519   3.958  11.324 -0.0161 -0.1487 -0.0294
17684PP      PP27788  11.069  15.634   3.085  0.0128  0.0257  0.1707
17685PP      PP27789   2.647  13.524  10.114  0.0239 -0.0036  0.0032
17686PP      PP27790   3.272   1.921   9.118  0.0654  0.2086  0.1317
17687PP      PP27791  13.182   7.233   3.255 -0.0207 -0.0032 -0.0469
17688PP      PP27792  11.327   5.089  13.260  0.1668 -0.0892  0.1148
17689PP      PP27793   7.335   9.386   2.682 -0.0889 -0.0278  0.3763
17690PP      PP27794  14.742  10.419   3.480 -0.0476 -0.2913  0.1552
17691PP      PP27795   6.767   8.894   2.673 -0.0655 -0.2064 -0.0026
17692PP      PP27796  12.175   9.845   1.943 -0.0687  0.0356  0.0883
17693PP      PP27797   7.120  15.536  10.637  0.2874 -0.2357  0.1306
17694PP      PP27798   6.461   8.762  10.839 -0.1854 -0.3505  0.1220
17695PP      PP27799   8.607  12.484   9.617 -0.0184 -0.0995  0.0133
17696PP      PP27800   4.795   3.581   2.685 -0.1260 -0.2643 -0.0476
17697PP      PP27801   2.451  14.822   1.566  0.1113  0.0946 -0.0540
17698PP      PP27802   3.036   4.986  12.167  0.0930 -0.1790  0.0217
17699PP      PP27803   9.877  14.934   3.909  0.0965 -0.1552  0.1735
17700PP      PP27804  10.254   1.756  11.467 -0.0282  0.0749 -0.1888
17701PP      PP27805   8.568   9.973  13.473  0.1347 -0.1809 -0.2322
17702PP      PP27806  15.156  15.319   1.370  0.2920 -0.0477 -0.1365
17703PP      PP27807   4.087  12.898   9.747  0.1078 -0.0676 -0.0192
17704PP      PP27808   6.882   5.467   8.840  0.0362 -0.1182 -0.1458
17705PP      PP27809  11.508  11.352  10.435  0.0205  0.1500 -0.0197
17706PP      PP27810   9.445   2.427   9.133 -0.2904  0.2667 -0.4328
17707PP      PP27811   7.725   5.503   0.340 -0.1970  0.0042 -0.2147
17708PP      PP27812   0.715  14.265  11.016 -0.1586  0.1827 -0.0768
17709PP      PP27813   4.389   3.057   1.526 -0.0746 -0.1788  0.0044
17710PP      PP27814  10.911  14.154   0.062 -0.1816 -0.2015 -0.1720
17711PP      PP27815   1.750  13.382   9.255  0.0283 -0.0158 -0.2173
17712PP      PP27816   5.628   7.298   9.416  0.1744 -0.1584 -0.2749
17713PP      PP27817  12.922   9.039   9.071 -0.1385 -0.0488 -0.0796
17714PP      PP27818   9.505  10.370   1.303  0.2045  0.0236 -0.0637
17715PP      PP27819   5.636  13.242  10.585  0.0852  0.2529 -0.0875
17716PP      PP27820  14.241  15.221  10.559  0.2180  0.1208 -0.1240
17717PP      PP27821   3.338   9.346   9.786  0.0492  0.2579 -0.3968
17718PP      PP27822  14.294  12.493  11.130 -0.0911  0.0656 -0.0097
17719PP      PP27823   2.848   8.543  10.741 -0.0251  0.1316  0.2501
17720PP      PP27824   5.869   8.683  10.222 -0.2350  0.1903  0.1138
17721PP      PP27825   4.604   6.895  12.120  0.3864 -0.1246 -0.1574
17722PP      PP27826   8.695  15.698  12.193 -0.2478  0.1448  0.0335
17723PP      PP27827  14.874  13.871   1.631  0.0969 -0.0293 -0.0978
17724PP      PP27828   7.346   7.442  10.470  0.2090 -0.3186 -0.1520
17725PP      PP27829   0.053   0.756  10.056 -0.0623  0.0319 -0.1975
17726PP      PP27830  12.381   6.857   0.672  0.1113  0.2377 -0.2290
17727PP      PP27831   6.492   5.453  13.264  0.1725  0.1090  0.1700
17728PP      PP27832   5.406  15.263  10.333  0.2647 -0.0805 -0.2787
17729PP      PP27833   3.731   0.771   0.420 -0.1901 -0.4312  0.0357
17730PP      PP27834   7.571  11.776   9.116  0.0264 -0.3562  0.0921
17731PP      PP27835   8.180   9.346   9.114  0.3495 -0.0588 -0.2142
17732PP      PP27836  11.688  12.666  12.625 -0.0854  0.4856 -0.2215
17733PP      PP27837   1.616   4.143   4.465 -0.1321 -0.2616 -0.2974
17734PP      PP27838  10.149  12.866   9.026 -0.4860  0.4477  0.0711
17735PP      PP27839   5.206   1.715   1.617 -0.2122  0.0447  0.1288
17736PP      PP27840  12.698   4.961  11.251 -0.0716  0.0760 -0.0287
17737PP      PP27841   9.720   4.756   8.930 -0.1529 -0.0113 -0.1367
17738PP      PP27842   2.678  11.504  13.469  0.0230  0.0565  0.4058
17739PP      PP27843   9.287   0.157   9.944 -0.3351  0.0792  0.1448
17740PP      PP27844  14.575   3.570   9.655  0.2503  0.1447 -0.0720
17741PP      PP27845   0.170   6.871   3.977 -0.2863 -0.0527 -0.1189
17742PP      PP27846  12.735   2.870  12.062 -0.1661 -0.2037 -0.1970
17743PP      PP27847  12.966  14.749  12.818 -0.2257  0.3046  0.1329
17744PP      PP27848  10.884   9.485   1.151 -0.0850  0.1525 -0.2212
17745PP      PP27849   7.543   2.655   3.266  0.1495  0.1691 -0.1264
17746PP      PP27850  14.195  11.090   8.662 -0.1928  0.1149  0.2165
17747PP      PP27851   3.937  14.194   1.767  0.1433  0.1005 -0.1401
17748PP      PP27852  14.236  12.928   2.683  0.2444 -0.0109  0.2326
17749PP      PP27853   3.758  11.903  12.282 -0.1281 -0.0813 -0.3262
17750PP      PP27854   8.405   4.392  12.521  0.1680 -0.0467 -0.0835
17751PP      PP27855   0.029  13.416   2.260 -0.0599 -0.1770  0.3271
17752PP      PP27856  15.776  10.930   9.258  0.2902  0.0813 -0.0651
17753PP      PP27857   0.493   8.267   2.145  0.1368  0.1258 -0.1771
17754PP      PP27858  14.129   4.895   8.510  0.0239 -0.1051 -0.2380
17755PP      PP27859  14.416  10.216   0.418 -0.2501 -0.0504 -0.2214
17756PP      PP27860   6.929  12.945   9.491  0.0111 -0.1096 -0.0538
17757PP      PP27861   1.948   9.254  11.843  0.1590  0.1933 -0.1992
17758PP      PP27862  10.346   6.482   1.921  0.0125  0.1054  0.1391
17759PP      PP27863  12.932   8.601   1.650 -0.0771  0.0062  0.2759
17760PP      PP27864  13.536  14.615   2.593 -0.0090  0.1176 -0.2224
17761PP      PP27865  12.397   7.130  13.120  0.0116  0.0492  0.2362
17762PP      PP27866   6.991   2.591  12.159  0.0220 -0.0510  0.0109
17763PP      PP27867   3.533   7.742  10.689  0.1841  0.0799  0.2672
17764PP      PP27868  15.052  14.914   9.562 -0.0932  0.1135 -0.0480
17765PP      PP27869   8.311   2.460  10.876 -0.1508  0.2092  0.0389
17766PP      PP27870   4.283   4.801  10.367  0.1057 -0.2692  0.1723
17767PP      PP27871   8.677   9.550  11.011  0.1753  0.0400  0.2964
17768PP      PP27872  12.313   0.836   0.653 -0.1340 -0.1733  0.0252
17769PP      PP27873   0.916  11.091   1.498  0.0092  0.2471 -0.0275
17770PP      PP27874  11.775  14.648   2.253  0.0071  0.5571 -0.0306
17771PP      PP27875   6.581  15.021   8.652 -0.0491 -0.1424  0.1316
17772PP      PP27876   4.702   0.552  11.149 -0.3486 -0.1847 -0.0283
17773PP      PP27877  13.526   9.766  10.703 -0.1226  0.1362  0.0168
17774PP      PP27878   6.677   5.220   9.885 -0.0011  0.1007  0.0308
17775PP      PP27879  13.142   6.911   1.586  0.1988  0.0008 -0.0600
17776PP      PP27880  14.205  12.462   3.766  0.0553 -0.0370 -0.1423
17777PP      PP27881  12.122  13.751   1.058 -0.1945 -0.1089 -0.1140
17778PP      PP27882  15.034  10.361  13.365 -0.0092  0.2963 -0.2399
17779PP      PP27883   0.256   5.580  11.972  0.3408  0.2309 -0.1095
17780PP      PP27884   6.316  12.490  10.718  0.0739  0.0384 -0.0832
17781PP      PP27885  14.219   7.357   8.373 -0.0126 -0.1422  0.0676
17782PP      PP27886   7.579   0.418   3.210  0.2269  0.0346  0.0131
17783PP      PP27887   7.783  14.921  10.623 -0.1128 -0.0454  0.0090
17784PP      PP27888  11.905  12.983   4.067  0.0314  0.0157  0.2622
17785PP      PP27889  12.399  10.011  13.265 -0.0235  0.1430  0.0324
17786PP      PP27890   0.117   8.226   0.971  0.0343 -0.1464 -0.1960
17787PP      PP27891  10.693   9.971   0.964  0.1265  0.0956  0.2170
17788PP      PP27892   2.163   3.887   3.000  0.2152  0.1748  0.1682
17789PP      PP27893   8.188   2.258  12.666 -0.0472  0.1025  0.0146
17790PP      PP27894  13.647   5.326  10.172 -0.1655  0.2043 -0.0397
17791PP      PP27895   9.546  12.350   3.305  0.0041  0.2283  0.0131
17792PP      PP27896  13.215   8.751  11.542  0.0751  0.1684  0.3065
17793PP      PP27897  10.011  14.340   2.670  0.0930  0.0552  0.1493
17794PP      PP27898   1.865  14.282   1.075  0.1236 -0.1161 -0.3809
17795PP      PP27899   0.996  12.702   1.486  0.2651 -0.1286 -0.2513
17796PP      PP27900  14.353  13.392  10.936  0.1701 -0.1307  0.2188
17797PP      PP27901  11.158  14.714   8.978  0.2087 -0.3663 -0.1709
17798PP      PP27902   3.659  11.251   9.857 -0.1025  0.1211  0.0091
17799PP      PP27903   4.303  10.778   9.460  0.2069 -0.1437  0.0797
17800PP      PP27904   5.897   7.092   3.707  0.1335  0.1182  0.1840
17801PP      PP27905   3.967   8.864   9.256  0.1737  0.0584 -0.0534
17802PP      PP27906   8.318   1.953   0.358 -0.0808 -0.1345 -0.0263
17803PP      PP27907   8.355   5.634  10.629  0.1717 -0.0101  0.1372
17804PP      PP27908  15.428   9.627  13.403  0.1858 -0.3496 -0.0453
17805PP      PP27909   9.629   2.327  11.080 -0.1469  0.0046 -0.0466
17806PP      PP27910  12.578  12.954   3.042  0.1681 -0.4905 -0.2597
17807PP      PP27911  11.644   2.864   3.425 -0.1601  0.0245  0.2571
17808PP      PP27912   7.176   3.442   9.697  0.1670  0.2885 -0.1168
17809PP      PP27913   2.822   9.365  12.152  0.3106  0.0723  0.1011
17810PP      PP27914   0.775  10.078   1.481 -0.0416 -0.0926  0.2168
17811PP      PP27915  13.425  14.344  12.693  0.0575 -0.0791 -0.1502
17812PP      PP27916  12.782  15.113  13.175 -0.1817 -0.0323 -0.3095
17813PP      PP27917  11.597  13.799  11.039 -0.2581  0.0619 -0.2029
17814PP      PP27918   6.774   0.098  10.495  0.1580  0.0950  0.1167
17815PP      PP27919  13.507   6.990  11.911 -0.0840 -0.1598 -0.0527
17816PP      PP27920  14.707   9.454  10.705  0.0407  0.0405  0.0053
17817PP      PP27921   2.637  12.041   2.588  0.1857 -0.0775 -0.2082
17818PP      PP27922  14.693   5.340   9.734 -0.3605 -0.1142  0.0815
17819PP      PP27923   7.598  12.122  10.647 -0.4099  0.0598  0.0027
17820PP      PP27924   2.019   9.507  11.322  0.2504 -0.1830  0.1980
17821PP      PP27925   0.916  11.934  13.369 -0.2338  0.0890 -0.1894
17822PP      PP27926   9.229   6.744  10.691 -0.0361 -0.2480 -0.0358
17823PP      PP27927   6.243  11.602  10.158  0.0970  0.0434 -0.1515
17824PP      PP27928   7.782   8.518   0.780  0.0831  0.1622  0.1257
17825PP      PP27929   0.289   0.920  12.974  0.1176 -0.2837  0.0868
17826PP      PP27930   4.717   8.201  13.129  0.2783 -0.5337 -0.1909
17827PP      PP27931   4.828  13.023   9.797 -0.0948 -0.3183 -0.2741
17828PP      PP27932  13.611   2.940   2.067  0.2366  0.1164  0.3329
17829PP      PP27933   2.259   0.570  11.556  0.0323  0.1193  0.0894
17830PP      PP27934   6.835   3.484  11.248 -0.2568 -0.0666 -0.0524
17831PP      PP27935   7.529   7.597  13.006 -0.2157 -0.0963  0.0010
17832PP      PP27936   2.748  12.244  12.699  0.0204  0.1083 -0.2026
17833PP      PP27937  11.410  10.644   1.825 -0.3822  0.0464  0.0365
17834PP      PP27938   9.205   9.506   2.533 -0.1855 -0.0837 -0.0339
17835PP      PP27939   5.462  10.991   9.705 -0.1004  0.0080  0.3011
17836PP      PP27940  10.270   6.431  12.613 -0.0555  0.0846  0.1734
17837PP      PP27941   9.557  14.302   3.749 -0.0581 -0.0658 -0.1676
17838PP      PP27942  14.212  10.207  13.101  0.0773  0.4496 -0.4698
17839PP      PP27943   3.836  14.511  12.468 -0.1956  0.3731 -0.2789
17840PP      PP27944   8.453   4.176   2.386 -0.1026 -0.0440 -0.3144
17841PP      PP27945   6.157   6.440   3.993 -0.1044  0.0107 -0.2016
17842PP      PP27946   7.792   0.469   2.733  0.1967  0.1140  0.0987
17843PP      PP27947   0.209   8.120   4.119  0.2570 -0.3361  0.1197
17844PP      PP27948   4.901   6.972   0.885  0.2442  0.2087 -0.1475
17845PP      PP27949  11.898   2.268  12.820  0.0141 -0.3290 -0.0191
17846PP      PP27950   4.751  15.585  12.181  0.0156 -0.3603  0.1814
17847PP      PP27951  15.723  10.485   8.926 -0.3525 -0.0920 -0.0331
17848PP      PP27952  14.365   5.474   3.552 -0.1789  0.2501  0.1079
17849PP      PP27953   5.587  13.992  12.820 -0.0000 -0.3310 -0.2408
17850PP      PP27954  11.947  11.999   2.297 -0.0041  0.1544  0.1584
17851PP      PP27955   8.999  13.360   4.333  0.3985  0.1567 -0.3210
17852PP      PP27956   0.283   3.665   9.812  0.1706  0.0575  0.0163
17853PP      PP27957   2.149   2.380   1.188 -0.2058  0.1862 -0.0768
17854PP      PP27958   2.936  13.015  12.163  0.2878 -0.0753 -0.5658
17855PP      PP27959   6.919   5.374  10.305  0.0076  0.3153  0.0751
17856PP      PP27960   7.425   8.980   3.788 -0.1255 -0.0948  0.1374
17857PP      PP27961  12.624   6.354  11.340 -0.0620 -0.3095 -0.2582
17858PP      PP27962   5.381  14.657   2.650  0.2802 -0.2342  0.1059
17859PP      PP27963  13.324   8.477  12.893 -0.3163 -0.0943 -0.1330
17860PP      PP27964  13.549  11.187   1.180 -0.1720  0.0124  0.0418
17861PP      PP27965   8.567   4.144   1.096  0.2995  0.0686 -0.1424
17862PP      PP27966   1.639  13.333   0.969 -0.1157  0.1422  0.1411
17863PP      PP27967   2.531  14.895   0.681 -0.2948  0.1905  0.2886
17864PP      PP27968  11.011   0.213   0.480  0.0924 -0.1952  0.2063
17865PP      PP27969  12.649   0.227   0.829  0.0984 -0.2600 -0.1669
17866PP      PP27970   2.589   3.710   2.765 -0.2998  0.0591  0.0125
17867PP      PP27971  13.635  15.448  12.823 -0.0074  0.0354 -0.1379
17868PP      PP27972   6.856  12.980  10.321  0.1310 -0.0147  0.1958
17869PP      PP27973  12.516   6.808  12.780  0.3170 -0.0754  0.0792
17870PP      PP27974   7.601   5.987  10.720 -0.1017  0.0869 -0.1402
17871PP      PP27975   1.543  10.814  12.599 -0.2081  0.1523 -0.1620
17872PP      PP27976   7.738  11.884   0.682 -0.0308  0.1211 -0.2224
17873PP      PP27977  12.810  15.067  11.085  0.3503  0.0079 -0.0724
17874PP      PP27978   4.383  12.120   8.893 -0.0016 -0.0563 -0.0848
17875PP      PP27979  11.517  15.411  10.021 -0.1435 -0.2170  0.4256
17876PP      PP27980   7.247  13.194  13.097 -0.0729 -0.1476  0.0658
17877PP      PP27981   7.010   6.519   2.796  0.0855 -0.1845 -0.0462
17878PP      PP27982  11.423  13.939   2.599 -0.1825  0.1813  0.0274
17879PP      PP27983   8.227   0.320   1.332 -0.0643  0.2967 -0.0642
17880PP      PP27984   3.578   6.016   8.433  0.5076  0.0731  0.2832
17881PP      PP27985   6.040   1.999   9.992 -0.3737 -0.0915 -0.0123
17882PP      PP27986   8.528  14.777  11.964  0.5652 -0.4381  0.0055
17883PP      PP27987  14.435  14.057   0.657 -0.2321 -0.1662 -0.0541
17884PP      PP27988   8.987   2.800   2.519  0.2683 -0.3580 -0.3074
17885PP      PP27989   1.040   1.138  12.421  0.0964  0.3056 -0.0157
17886PP      PP27990   1.929   8.251  10.413  0.0605 -0.1510  0.2049
17887PP      PP27991   3.543  11.121  13.464 -0.1666  0.0369  0.0550
17888PP      PP27992   0.980   8.194   8.587 -0.0343  0.0405 -0.2426
17889PP      PP27993   4.620   0.843  12.489  0.0528  0.2252 -0.2738
17890PP      PP27994  14.080   5.138   3.261  0.1191  0.1197  0.0642
17891PP      PP27995   2.740   1.889   2.279 -0.2487  0.1218  0.0909
17892PP      PP27996  12.623   7.226   3.388 -0.3877  0.1458  0.1213
17893PP      PP27997  12.358   0.996  10.059  0.0966 -0.2646 -0.3042
17894PP      PP27998   2.134   0.573  12.901 -0.0710  0.1479  0.0077
17895PP      PP27999  12.753  14.394   1.343 -0.2448 -0.0668  0.2122
17896PP      PP28000  11.294   5.557   1.938 -0.0310  0.0470 -0.3326
17897PP      PP28001   2.111  11.273   7.735 -0.3324 -0.0190 -0.1217
17898PP      PP28002   2.872   8.132  12.888 -0.0389 -0.0062 -0.0754
17899PP      PP28003  11.645   9.377   3.784 -0.0163  0.2402  0.2871
17900PP      PP28004  11.182  10.557   4.383  0.0367 -0.0665  0.1236
17901PP      PP28005   5.643   3.123   8.723  0.0444 -0.1421  0.0624
17902PP      PP28006  10.255   3.974   9.238  0.2735 -0.1094 -0.1934
17903PP      PP28007   4.361   2.313  13.055 -0.1892  0.4091  0.1340
17904PP      PP28008   5.412   3.488   0.382 -0.1871 -0.0280 -0.2205
17905PP      PP28009   1.344  13.270  12.044 -0.0043  0.0405 -0.0417
17906PP      PP28010   0.294   5.096   9.021 -0.2500 -0.0570 -0.0015
17907PP      PP28011   0.769   0.512   1.316 -0.0180  0.1244  0.0306
17908PP      PP28012  12.491   9.386   4.438  0.0647 -0.0042  0.2982
17909PP      PP28013   8.482  10.331   2.448 -0.0153  0.0730  0.0773
17910PP      PP28014   0.709   1.704  13.380 -0.0625 -0.2920 -0.2364
17911PP      PP28015   9.842   3.707   9.218  0.1445 -0.0591 -0.2774
17912PP      PP28016   4.257  13.702   2.401 -0.0189 -0.2053 -0.2271
17913PP      PP28017   0.486  10.988  13.357 -0.0433 -0.0854 -0.0941
17914PP      PP28018   5.587   1.084  10.968 -0.2314  0.1129  0.0134
17915PP      PP28019  12.776  12.567  12.838 -0.3302 -0.1366  0.1279
17916PP      PP28020   6.318   3.078   0.089  0.2409  0.2814  0.1574
17917PP      PP28021   7.804  13.744   8.933 -0.2781  0.2084  0.0751
17918PP      PP28022   8.847   0.882   3.692  0.0361  0.2918 -0.2414
17919PP      PP28023   3.538   5.022  12.167 -0.1675 -0.1490 -0.4532
17920PP      PP28024  13.341   9.278  12.159  0.0810 -0.0527  0.1661
17921PP      PP28025   5.565  15.364   0.191 -0.0564  0.1725  0.0340
17922PP      PP28026   9.875   3.077  11.507  0.2714  0.2324  0.4838
17923PP      PP28027   9.823   9.353   9.526  0.1598 -0.2868 -0.0259
17924PP      PP28028   2.239   8.932   3.121  0.0855 -0.2307  0.0002
17925PP      PP28029   3.838  10.430  10.532  0.2464 -0.2286  0.0988
17926PP      PP28030   7.718   5.767  11.210  0.3410  0.2462  0.0785
17927PP      PP28031  13.597   0.101   1.106 -0.0141 -0.0376  0.2567
17928PP      PP28032  10.463   3.097  12.088  0.4137  0.0120 -0.0326
17929PP      PP28033  14.933   7.610   0.437  0.1078  0.2348  0.1138
17930PP      PP28034   1.170   6.723   3.637 -0.0233 -0.1564 -0.0937
17931PP      PP28035   0.448  13.878   4.322  0.1044  0.1964 -0.0762
17932PP      PP28036   2.721   9.142   2.867 -0.1279  0.2015  0.0270
17933PP      PP28037  14.857  14.174  12.412 -0.0548  0.0325  0.1922
17934PP      PP28038   9.822   8.187   1.189 -0.2754 -0.0850 -0.1025
17935PP      PP28039   1.538   7.695   8.658 -0.0672  0.0863 -0.0456
17936PP      PP28040  12.265   9.001  11.689 -0.0134 -0.0731  0.0618
17937PP      PP28041   2.070  14.540   2.447  0.2255  0.2155 -0.4809
17938PP      PP28042  15.543  14.220  13.527  0.2926 -0.2780  0.1166
17939PP      PP28043   7.302   0.759  10.091  0.1477  0.0811 -0.1166
17940PP      PP28044  13.006  15.590   0.388  0.0720  0.1939 -0.0741
17941PP      PP28045  15.529   3.561  12.838  0.1670 -0.4871  0.1708
17942PP      PP28046  13.530  13.797  11.098 -0.2611 -0.0075  0.1751
17943PP      PP28047   3.510   4.898   8.684 -0.4020 -0.2114 -0.0834
17944PP      PP28048   2.546  11.893   8.806  0.0125  0.0479  0.1512
17945PP      PP28049   7.489   5.173   0.653 -0.2318 -0.3007  0.3195
17946PP      PP28050   2.611   7.704   2.873  0.1681  0.2153 -0.1945
17947PP      PP28051   9.040  15.562   3.785  0.0234  0.0241  0.0275
17948PP      PP28052  11.877  11.425   1.127  0.1641 -0.1554 -0.2339
17949PP      PP28053   9.054  10.575   1.402 -0.0087 -0.2692 -0.0058
17950PP      PP28054   5.648   0.621   2.344 -0.2774  0.1436 -0.4578
17951PP      PP28055   9.236   9.660   3.679  0.0590  0.1226 -0.1121
17952PP      PP28056   2.412   3.579   9.132 -0.0691  0.1454  0.1228
17953PP      PP28057   1.901  15.464  11.842  0.0739 -0.0032  0.4264
17954PP      PP28058  12.893   0.285  12.525 -0.1779  0.1064 -0.0340
17955PP      PP28059   0.701   3.915   9.477 -0.0548 -0.2314  0.0364
17956PP      PP28060  12.815  10.776   0.826 -0.1356  0.0462 -0.0550
17957PP      PP28061  13.842   6.452   0.175  0.2081 -0.0554 -0.0115
17958PP      PP28062   4.777  12.881  11.001  0.1136  0.1074 -0.1018
17959PP      PP28063  12.049   8.673   3.839  0.2774  0.0121 -0.1473
17960PP      PP28064   1.841  11.929  10.230 -0.0732 -0.0510  0.1607
17961PP      PP28065  15.097   2.726  11.364 -0.2718  0.3224 -0.2406
17962PP      PP28066   9.389  13.362   1.188  0.2507  0.1804  0.0659
17963PP      PP28067  10.657   7.528   9.992  0.0844 -0.1295 -0.0196
17964PP      PP28068   7.591   5.825  12.535 -0.0089 -0.0743 -0.3429
17965PP      PP28069   4.554   2.372   9.775 -0.0806  0.1857 -0.1471
17966PP      PP28070   9.544  10.606  11.556  0.1530  0.1424 -0.0608
17967PP      PP28071  14.504   4.511  12.626 -0.3059 -0.0640 -0.0965
17968PP      PP28072  11.304   0.503   8.987 -0.1386  0.1362  0.0331
17969PP      PP28073   9.127   0.068   2.975 -0.0161 -0.2229  0.3196
17970PP      PP28074  15.537  12.485   3.268 -0.2473  0.1046  0.0844
17971PP      PP28075   2.218   3.303  13.481  0.0641  0.0469  0.2043
17972PP      PP28076  11.452   8.812   8.966  0.1019 -0.0770 -0.3610
17973PP      PP28077  13.456  12.613  11.606  0.2544  0.1973  0.2707
17974PP      PP28078  13.852   2.327  12.928 -0.1263  0.2162 -0.1179
17975PP      PP28079   2.190   6.051   9.559 -0.0091 -0.0393  0.0670
17976PP      PP28080   7.685   6.479   0.555  0.0540 -0.3678  0.1523
17977PP      PP28081   4.036  15.053  11.671  0.4437  0.1824  0.1153
17978PP      PP28082   4.408  10.249   9.636  0.2193  0.0609  0.1241
17979PP      PP28083  13.304  12.132   2.998  0.2367  0.0940 -0.1814
17980PP      PP28084   7.891  13.840   2.242  0.1070 -0.0726 -0.3645
17981PP      PP28085  11.498  12.092   2.475 -0.2407  0.2887  0.0757
17982PP      PP28086  14.004   7.125   0.518 -0.0668  0.3489  0.0776
17983PP      PP28087  11.325   0.026  10.216 -0.0100 -0.0396  0.0705
17984PP      PP28088  14.166  10.004   9.710 -0.0336  0.1856  0.0499
17985PP      PP28089   5.582   3.020  12.367 -0.0998  0.0802 -0.0586
17986PP      PP28090  13.858  15.495  10.735 -0.0128  0.2617  0.0814
17987PP      PP28091   4.790  13.424  10.133  0.0931  0.1072 -0.0775
17988PP      PP28092  13.920   7.126   3.089 -0.0456 -0.0309  0.0859
17989PP      PP28093  11.065   4.359  10.935 -0.0065 -0.2220 -0.1610
17990PP      PP28094  13.574   8.095  10.836 -0.0815 -0.1860  0.0393
17991PP      PP28095   2.133  13.877  12.347 -0.2002  0.4360 -0.2316
17992PP      PP28096  11.981   5.879  10.394  0.2065 -0.0297  0.0778
17993PP      PP28097   7.953  13.709   4.720 -0.0812 -0.0908 -0.1808
17994PP      PP28098   5.744   4.464   2.379 -0.0334  0.0241  0.2893
17995PP      PP28099   8.905   8.238  11.069  0.3360 -0.2541  0.2808
17996PP      PP28100  13.040   6.506  12.677 -0.1549  0.0461 -0.0977
17997PP      PP28101   6.281  13.995  11.354 -0.5945  0.0441 -0.0612
17998PP      PP28102   6.732  11.374  12.499  0.0535  0.2305  0.3181
17999PP      PP28103   1.639   5.106   4.139  0.0476 -0.3880 -0.0948
18000PP      PP28104   3.915  15.602   3.071 -0.3608  0.1055  0.3103
18001PP      PP28105   1.825   8.894   3.395 -0.1794 -0.1949  0.1551
18002PP      PP28106   7.125  10.486   9.953 -0.0123 -0.1160 -0.4476
18003PP      PP28107   1.910  12.823   9.953 -0.1463  0.2489  0.0300
18004PP      PP28108   2.544   1.187   4.044  0.1251  0.1245  0.1355
18005PP      PP28109  12.451   8.205  11.494 -0.0802 -0.0079 -0.0103
18006PP      PP28110   9.183  12.010  11.612  0.0587 -0.2793  0.1004
18007PP      PP28111   9.248   5.716  12.499  0.1355  0.0620 -0.0197
18008PP      PP28112   8.332  11.001  11.364 -0.1050  0.1749  0.1841
18009PP      PP28113   2.757  14.896   2.017 -0.2289  0.2362  0.0786
18010PP      PP28114   9.400  12.352   8.867  0.3547  0.2507 -0.2362
18011PP      PP28115  10.587  15.779   0.215 -0.0838 -0.1868  0.0233
18012PP      PP28116  11.071  15.093   1.583 -0.0505 -0.0585 -0.0472
18013PP      PP28117   3.136   0.346  10.567 -0.1792  0.2323 -0.1285
18014PP      PP28118   3.761  13.378   3.259  0.1987 -0.1796  0.0909
18015PP      PP28119  11.404   0.459  12.574  0.3349 -0.1236 -0.2242
18016PP      PP28120  13.759  14.897   0.860  0.1009  0.0728 -0.1302
18017PP      PP28121   8.039   0.021   9.684  0.0131 -0.0936  0.1345
18018PP      PP28122  12.260  15.169   2.201 -0.0420 -0.0642  0.1255
18019PP      PP28123   5.568   5.395  10.399  0.3239 -0.2281 -0.0588
18020PP      PP28124   6.887   8.789  11.357 -0.3319 -0.1508 -0.3155
18021PP      PP28125   8.586   7.015   0.515 -0.0085 -0.1234  0.0357
18022PP      PP28126   5.326   9.776  12.613  0.2252  0.2824  0.2025
18023PP      PP28127   8.118   9.980   0.214  0.1806  0.2445  0.0518
18024PP      PP28128   6.235   7.879  10.404 -0.0229 -0.1932  0.1978
18025PP      PP28129   7.334   3.987  11.027  0.0541  0.0173 -0.2428
18026PP      PP28130  10.202   3.504   2.328  0.1667  0.0701 -0.1089
18027PP      PP28131   6.394   0.301   3.335  0.1068  0.0832  0.5044
18028PP      PP28132  14.131   7.049   7.859 -0.2741  0.2983 -0.1116
18029PP      PP28133   6.891   7.257   1.251  0.0347  0.1339  0.1010
18030PP      PP28134   4.773   7.235   4.103 -0.0617  0.0191 -0.1409
18031PP      PP28135   3.077   6.958   8.483 -0.0403 -0.2900 -0.2811
18032PP      PP28136  12.249  12.933  11.847 -0.2351  0.0566  0.0404
18033PP      PP28137   5.207   3.339  12.399  0.0539 -0.0715  0.1287
18034PP      PP28138  10.917  12.767  10.452  0.5513  0.0014 -0.0909
18035PP      PP28139   4.637   8.100   9.217  0.0489 -0.2128  0.0895
18036PP      PP28140  10.748   6.191   1.705  0.0414 -0.1442  0.1299
18037PP      PP28141   3.903   3.425   2.828 -0.2155  0.0355  0.1685
18038PP      PP28142   1.764   2.513  10.356 -0.1339  0.0120 -0.3595
18039PP      PP28143  14.584   1.773  11.153 -0.1444  0.1032 -0.2712
18040PP      PP28144   1.734   4.125  13.071  0.0150  0.1704 -0.1866
18041PP      PP28145   8.971   0.807  12.701  0.5097  0.0445  0.3856
18042PP      PP28146   2.069   7.592  11.160 -0.1638  0.1252  0.1569
18043PP      PP28147  13.659   2.093   2.703 -0.0671 -0.0718 -0.0177
18044PP      PP28148  14.393   9.719  11.163  0.0655 -0.0145 -0.0914
18045PP      PP28149   6.637   6.544   2.406  0.3775  0.0082  0.0274
18046PP      PP28150   9.983   0.528   3.331 -0.0891  0.0891 -0.1099
18047PP      PP28151   4.909   8.034   0.958  0.2960  0.0142 -0.1252
18048PP      PP28152   7.633  10.548   2.634  0.0150 -0.0665  0.1457
18049PP      PP28153  11.068   7.993  10.487 -0.2690 -0.1073  0.1948
18050PP      PP28154   0.933   4.541   4.023 -0.2356  0.2985 -0.1693
18051PP      PP28155  15.303  12.171  11.512 -0.0279  0.2514  0.0310
18052PP      PP28156  11.713   0.554  11.712  0.3017  0.1323  0.0019
18053PP      PP28157   1.136  13.738   3.652  0.1487 -0.0426  0.2363
18054PP      PP28158   4.916  10.303   8.788  0.0211  0.0435 -0.0474
18055PP      PP28159   8.862  12.317   0.409  0.1326  0.1599 -0.0458
18056PP      PP28160   8.824   4.831   2.966 -0.0113  0.1922  0.0476
18057PP      PP28161   8.174   8.316   0.541  0.0941 -0.0629 -0.0492
18058PP      PP28162  13.440   3.018   9.421 -0.2556  0.1146 -0.0336
18059PP      PP28163   5.248  15.336   0.754  0.2299  0.2054 -0.2220
18060PP      PP28164  14.125   1.757  11.732 -0.0042  0.1463  0.0844
18061PP      PP28165  15.128  14.850   3.841  0.2584  0.0076 -0.0384
18062PP      PP28166   1.825  15.631   8.639 -0.2234  0.0353 -0.4228
18063PP      PP28167  13.726   0.189   2.088 -0.2163 -0.1013 -0.3897
18064PP      PP28168  11.732  14.851   4.089 -0.0112 -0.1586 -0.0510
18065PP      PP28169   4.663   3.099   4.299 -0.1022 -0.2642 -0.1307
18066PP      PP28170   7.093   9.161  11.613 -0.0668 -0.1703 -0.3953
18067PP      PP28171  10.724  15.401   1.408  0.2758  0.0741 -0.1795
18068PP      PP28172   9.513   4.396  10.415 -0.1160  0.4438  0.1553
18069PP      PP28173   2.782   1.378  12.868 -0.0802  0.1056  0.0412
18070PP      PP28174   1.001  10.864   8.881  0.0854 -0.1348  0.1631
18071PP      PP28175   3.884  11.633   9.629  0.1613 -0.0901  0.0938
18072PP      PP28176  10.503  15.270  12.070 -0.0230  0.1559 -0.1634
18073PP      PP28177  15.282   4.931  10.109  0.1226  0.3462  0.1579
18074PP      PP28178   4.717   5.905  10.812 -0.1990 -0.1118 -0.2986
18075PP      PP28179   5.631   3.287   1.828 -0.0523 -0.3514  0.0361
18076PP      PP28180  15.491  11.594   1.779 -0.0109 -0.1469 -0.1573
18077PP      PP28181  10.730  14.434   1.440  0.3583  0.2091  0.1833
18078PP      PP28182   6.622   7.488   8.972  0.2626 -0.0247  0.3086
18079PP      PP28183   7.833   3.037  12.191  0.0954 -0.1160 -0.0772
18080PP      PP28184  11.080  13.271  10.318  0.1020  0.0133 -0.1288
18081PP      PP28185   2.039   9.161  10.564  0.0691  0.0600  0.3725
18082PP      PP28186   3.625  11.277   3.274 -0.0340 -0.0115 -0.2698
18083PP      PP28187  10.924  13.318   1.798  0.0860  0.2624 -0.2185
18084PP      PP28188   2.423  11.557   0.414 -0.2533  0.0123  0.2909
18085PP      PP28189  10.480   5.880   2.195 -0.1891 -0.2711  0.1243
18086PP      PP28190   2.705  13.560   1.737 -0.2626 -0.1271  0.3778
18087PP      PP28191  11.536   2.183  13.371 -0.1417 -0.1159  0.0239
18088PP      PP28192  13.581   9.817   1.372  0.3404 -0.2762  0.1490
18089PP      PP28193  10.169   7.204   9.657  0.3195 -0.2265  0.0058
18090PP      PP28194   0.720   9.485  11.621 -0.1907 -0.3559 -0.1062
18091PP      PP28195   7.258  14.365  13.401  0.3326 -0.2861  0.0249
18092PP      PP28196  15.697   5.049   9.548  0.2701 -0.2424 -0.3422
18093PP      PP28197   0.837  12.115  10.306  0.0741  0.0932 -0.2067
18094PP      PP28198  10.820  10.895   0.902 -0.2437  0.1844  0.1348
18095PP      PP28199   8.602   5.009   3.914 -0.1097 -0.0885 -0.0085
18096PP      PP28200   5.267   5.975   9.843  0.1350 -0.0346 -0.0204
18097PP      PP28201  11.858   1.596   9.250 -0.0661  0.2540 -0.0484
18098PP      PP28202   8.107   3.253   3.268  0.1016  0.1651  0.0290
18099PP      PP28203  13.750   4.059   9.657 -0.1043 -0.1935 -0.2665
18100PP      PP28204   2.527  10.218   0.009 -0.0005  0.2211  0.2753
18101PP      PP28205   5.251   6.034   9.136  0.0899 -0.0117 -0.3166
18102PP      PP28206   8.227  12.290  13.325 -0.0541 -0.0201 -0.1129
18103PP      PP28207   0.729   4.092  10.576 -0.2831  0.2855 -0.1282
18104PP      PP28208   6.709  13.387   9.651  0.0356 -0.2774 -0.1169
18105PP      PP28209   1.587  12.767   9.535  0.1692 -0.1795  0.0618
18106PP      PP28210   5.795   2.506   3.265 -0.0935 -0.3939 -0.1450
18107PP      PP28211   0.477   8.759  10.064  0.1807  0.0590 -0.0930
18108PP      PP28212   4.831  11.952  12.469  0.0933  0.0716 -0.2223
18109PP      PP28213   4.388  10.675  12.763  0.0258 -0.2575 -0.1752
18110PP      PP28214   4.927   0.622   4.495 -0.0144  0.1973  0.3210
18111PP      PP28215  11.006  13.201  10.813 -0.1765 -0.0704  0.0400
18112PP      PP28216   3.086  11.186  11.696  0.0010  0.0187  0.1643
18113PP      PP28217   7.372   6.406   8.884 -0.1375  0.0771  0.0942
18114PP      PP28218   8.898  15.502   2.644  0.0450 -0.1117  0.1944
18115PP      PP28219   5.937   0.632  11.516 -0.0389  0.1290 -0.0271
18116PP      PP28220   9.923   0.374   9.300 -0.3268  0.0077  0.4061
18117PP      PP28221   6.747  12.151   2.526  0.0985  0.0370 -0.1490
18118PP      PP28222   3.708   7.445  12.747  0.0931 -0.0282 -0.0541
18119PP      PP28223  10.286   8.972  13.017 -0.4220 -0.0822  0.0365
18120PP      PP28224  12.549   4.507   9.456  0.1298 -0.0419  0.1192
18121PP      PP28225   5.970  13.782   3.319  0.3007 -0.0804  0.0955
18122PP      PP28226   5.161   6.859   0.507 -0.0687 -0.0183  0.0717
18123PP      PP28227   6.319   8.241   0.548  0.2769 -0.2862 -0.0857
18124PP      PP28228   7.184  11.286   1.060  0.0740  0.1224  0.1576
18125PP      PP28229  15.419   3.595   0.457 -0.2303 -0.0736 -0.3928
18126PP      PP28230   6.436   1.085   2.767 -0.0713  0.0197  0.2851
18127PP      PP28231  13.966   6.640  10.479 -0.0495 -0.1038 -0.1724
18128PP      PP28232   6.500  13.714   9.370 -0.2951 -0.0276 -0.0715
18129PP      PP28233  11.537   3.953  13.380 -0.2357 -0.1168  0.1869
18130PP      PP28234   0.921  14.076   4.241 -0.0120  0.0254  0.0433
18131PP      PP28235   0.580  12.914   0.402 -0.1835  0.2728 -0.3067
18132PP      PP28236   7.374   2.836   4.303  0.0936 -0.2035  0.2650
18133PP      PP28237   2.025  15.615   0.873  0.4106  0.0529  0.2005
18134PP      PP28238   7.987  10.925  13.427 -0.4306 -0.0851  0.0174
18135PP      PP28239  13.142  11.779   3.937  0.1079 -0.1747  0.2367
18136PP      PP28240   3.432   3.729   0.092  0.0719  0.0125  0.0620
18137PP      PP28241   7.363   5.657   0.041 -0.1197 -0.0676  0.0403
18138PP      PP28242   7.502   9.603   2.184 -0.0182  0.2346 -0.0048
18139PP      PP28243   1.430   7.159   2.776 -0.1234  0.0153  0.2836
18140PP      PP28244  15.084   8.214   1.093  0.2481 -0.0977  0.1308
18141PP      PP28245  15.224  14.447  10.844  0.1878  0.2559 -0.1289
18142PP      PP28246   5.101  11.147  12.218 -0.3055 -0.0434 -0.0306
18143PP      PP28247  12.219  10.186   3.902  0.1961 -0.2468  0.0516
18144PP      PP28248   0.386  12.926   9.126 -0.0974  0.2167 -0.0741
18145PP      PP28249   5.746   5.653   2.590 -0.2666 -0.2281  0.0415
18146PP      PP28250  15.864   2.536   2.636 -0.2070  0.0610 -0.0562
18147PP      PP28251  12.464   9.211   0.112 -0.1258 -0.1098 -0.0626
18148PP      PP28252   1.862   4.890  10.586 -0.1228 -0.1844 -0.1147
18149PP      PP28253   5.022   9.808   8.913  0.3095  0.0191  0.1636
18150PP      PP28254   8.988  11.215  10.940  0.1841 -0.1443 -0.2691
18151PP      PP28255   8.073  11.341  10.770  0.1685  0.3299 -0.0243
18152PP      PP28256   9.470  14.733   4.142  0.1009  0.2794 -0.2663
18153PP      PP28257   8.350   9.093  11.281  0.0921 -0.2987  0.1921
18154PP      PP28258   9.013   7.294   0.589  0.0354 -0.0593 -0.0653
18155PP      PP28259  10.385  12.889   3.772 -0.1519  0.1853 -0.0810
18156PP      PP28260   2.124   4.252   4.306 -0.0935  0.2252 -0.1918
18157PP      PP28261   1.651  11.029   3.078  0.0949 -0.0885 -0.0944
18158PP      PP28262   6.935   4.935  13.401 -0.0100  0.3193  0.0929
18159PP      PP28263   1.669   9.682   1.601  0.1154 -0.3036  0.0250
18160PP      PP28264   0.967  10.319   1.067 -0.0703  0.1867 -0.2847
18161PP      PP28265   3.483   1.929   1.794  0.2436 -0.3611 -0.1861
18162PP      PP28266  10.470   5.317  11.323 -0.5684  0.0633  0.1108
18163PP      PP28267   3.784   1.602  10.678 -0.3026 -0.2885  0.1819
18164PP      PP28268   9.133   8.408   8.237 -0.2359  0.0197 -0.1336
18165PP      PP28269  15.164   4.021   9.667 -0.0639  0.3056 -0.0861
18166PP      PP28270   9.130   1.535  12.221  0.1733  0.1866 -0.1994
18167PP      PP28271   7.673  15.728   9.393  0.1900 -0.0282  0.0777
18168PP      PP28272   1.759   7.149  10.303  0.3867  0.1259  0.2699
18169PP      PP28273   6.681   6.110   2.880 -0.1835  0.1120 -0.0047
18170PP      PP28274   3.536   6.023   9.582 -0.0317  0.1509 -0.1249
18171PP      PP28275   9.637  12.149   2.107  0.2521 -0.3652 -0.1110
18172PP      PP28276   1.985   1.921   0.766  0.1165  0.0681 -0.0696
18173PP      PP28277   7.093   8.580   9.848  0.0532  0.0154  0.0456
18174PP      PP28278  10.087  12.539   9.903  0.0453 -0.2411 -0.2096
18175PP      PP28279  11.217  10.785   1.276 -0.0884  0.0591  0.2564
18176PP      PP28280  15.617   6.012   4.399  0.1862  0.0893 -0.2934
18177PP      PP28281   2.264  15.080   9.562  0.1085  0.2141  0.0862
18178PP      PP28282   8.172   0.160  11.295 -0.1710  0.5717  0.2886
18179PP      PP28283  11.129   9.650  11.325 -0.1503 -0.0201 -0.3217
18180PP      PP28284  11.359   6.762  10.809  0.1509  0.1925 -0.4766
18181PP      PP28285  13.802  10.970  12.027  0.3087 -0.5916  0.0663
18182PP      PP28286   8.963   5.146  11.097 -0.0563 -0.0612 -0.1226
18183PP      PP28287   2.399  12.334  13.047  0.0496  0.1785  0.0806
18184PP      PP28288   3.255  12.760  13.214 -0.4688  0.1391 -0.1026
18185PP      PP28289   3.071   5.172   3.773  0.0377  0.1100 -0.0781
18186PP      PP28290  14.355  13.915   8.655 -0.1217  0.3367 -0.2732
18187PP      PP28291   9.992  14.323   9.777 -0.2469  0.0169  0.2030
18188PP      PP28292   4.088   6.077   2.880 -0.1028  0.0050 -0.1809
18189PP      PP28293   9.553   6.755   3.290 -0.2334 -0.1464 -0.1356
18190PP      PP28294  12.196  11.881   0.927  0.0468  0.0023 -0.0927
18191PP      PP28295   0.728  11.471  12.533  0.0481  0.1510  0.0546
18192PP      PP28296   2.965   3.343   2.794 -0.0127 -0.1174 -0.0591
18193PP      PP28297   5.206   8.159  11.201 -0.0716  0.2148 -0.3010
18194PP      PP28298   0.636   1.093   2.995  0.1373 -0.2715 -0.0568
18195PP      PP28299   8.849   1.751  12.603  0.2020  0.1088 -0.0437
18196PP      PP28300   2.434   5.045   3.098 -0.2843  0.0426 -0.3449
18197PP      PP28301  12.206  11.063  11.649  0.1808 -0.1043  0.2315
18198PP      PP28302   5.748  14.385   3.364  0.2062  0.0092  0.1224
18199PP      PP28303   7.031   9.535   1.298 -0.0389 -0.3009  0.0490
18200PP      PP28304   5.715   6.087   2.395  0.0114 -0.2515  0.0114
18201PP      PP28305   2.053  11.757   1.810 -0.2733 -0.0855  0.2113
18202PP      PP28306  10.790   9.755   4.124  0.3152 -0.1070  0.0150
18203PP      PP28307  11.783  15.518   4.346 -0.1798 -0.2847  0.1981
18204PP      PP28308   3.106   7.385   1.080  0.1611  0.2562 -0.1521
18205PP      PP28309  14.202   7.079  13.508 -0.2566 -0.2616 -0.0895
18206PP      PP28310   1.202   8.174   2.374 -0.1410  0.0412 -0.0555
18207PP      PP28311   3.037   0.950  13.106 -0.2966 -0.1277 -0.2880
18208PP      PP28312   8.424   1.840   9.910  0.0095 -0.1204 -0.0676
18209PP      PP28313   0.520  11.348   1.653  0.2213 -0.0433 -0.1015
18210PP      PP28314   0.942   7.648   0.094  0.3069 -0.0222 -0.2220
18211PP      PP28315   2.201   5.690   2.449  0.0845  0.4698  0.0757
18212PP      PP28316   0.580   7.864  12.065  0.0827  0.1561  0.2942
18213PP      PP28317   4.396   9.207   2.617  0.1325 -0.0823  0.0681
18214PP      PP28318   2.047   4.124   0.394  0.1880 -0.4588  0.1693
18215PP      PP28319   8.680  10.788  10.335  0.1023  0.2938  0.0135
18216PP      PP28320  15.176   7.236   0.143  0.1600  0.3047 -0.0978
18217PP      PP28321   2.551   4.518   8.691  0.1486 -0.0439  0.0949
18218PP      PP28322   0.397   7.021   3.517 -0.0198  0.1247  0.0659
18219PP      PP28323  10.677   6.475  12.310  0.1222  0.2632 -0.1031
18220PP      PP28324  14.532  11.949   9.920  0.3669  0.0466 -0.1296
18221PP      PP28325  14.898  15.361   9.326  0.0060  0.1310 -0.0267
18222PP      PP28326  14.967  14.349   0.015 -0.3489 -0.0571  0.0052
18223PP      PP28327   9.360  10.298  12.439 -0.1285 -0.0772 -0.2010
18224PP      PP28328  14.158   7.769  11.728  0.0181  0.0939  0.0570
18225PP      PP28329  12.349   1.994   0.694 -0.0784  0.2309 -0.1793
18226PP      PP28330   5.642  15.115   2.619 -0.1759 -0.1950  0.0415
18227PP      PP28331   6.613   1.638   1.118 -0.0341 -0.0016 -0.0648
18228PP      PP28332  12.795   9.002  12.800 -0.0018 -0.0045  0.0420
18229PP      PP28333   5.218   1.630  12.740  0.0484 -0.0369  0.0535
18230PP      PP28334   8.111   8.360   2.871  0.0828  0.0562 -0.1559
18231PP      PP28335   2.718   9.315  13.238 -0.1691  0.0199  0.1332
18232PP      PP28336  14.636  14.603   0.906 -0.1290  0.4107 -0.1000
18233PP      PP28337   5.141   2.306  11.065 -0.2745  0.1192  0.0285
18234PP      PP28338  10.070  13.759   2.146 -0.2430  0.3924 -0.3052
18235PP      PP28339  10.202  15.731   9.385  0.2328 -0.0544 -0.2581
18236PP      PP28340  10.576   8.412   1.640 -0.1380 -0.0556 -0.0402
18237PP      PP28341   0.353   0.944   0.374 -0.0816  0.0699  0.0995
18238PP      PP28342   4.400  13.696  10.357  0.0367 -0.0605 -0.2136
18239PP      PP28343   8.558  11.457  13.208  0.1809  0.0987  0.1280
18240PP      PP28344   2.691  11.500   9.114  0.1184  0.1563 -0.1501
18241PP      PP28345   2.076   2.132   2.383 -0.0313 -0.0307  0.0716
18242PP      PP28346  13.511   3.048  12.184  0.1911  0.1146 -0.0108
18243PP      PP28347   3.724   7.570   1.972  0.0231  0.1414 -0.3297
18244PP      PP28348  12.942   7.602   9.633  0.0155  0.2484  0.1194
18245PP      PP28349   4.086  14.293  11.453  0.1606  0.0733 -0.2402
18246PP      PP28350   2.554  13.980   3.194  0.2469 -0.1556  0.1963
18247PP      PP28351   1.344   4.438   0.564 -0.1479  0.2568 -0.1744
18248PP      PP28352  15.045  12.312  12.616 -0.1066  0.4435 -0.2425
18249PP      PP28353   5.743  15.493   9.056  0.1766  0.1246  0.3881
18250PP      PP28354   9.695   5.467   3.864  0.1277 -0.3777 -0.1349
18251PP      PP28355   9.948   4.347   2.762 -0.0888  0.1803 -0.1254
18252PP      PP28356  15.514   9.060   3.696  0.0466 -0.3262 -0.1687
18253PP      PP28357   8.802  11.643   3.170  0.1135  0.1199  0.3239
18254PP      PP28358  11.245   8.243   1.025 -0.1186 -0.0608  0.5176
18255PP      PP28359   7.613  12.748   0.312 -0.2691  0.0811 -0.2843
18256PP      PP28360   4.121   2.504  11.072 -0.3741 -0.0881  0.2532
18257PP      PP28361  14.461   7.370  13.165  0.0328  0.1790 -0.0157
18258PP      PP28362  12.711   6.176  11.862  0.1423 -0.2472  0.3240
18259PP      PP28363  15.253  13.288   8.648  0.1681  0.0549 -0.0435
18260PP      PP28364   8.866  12.597  12.294 -0.1798 -0.1370  0.3846
18261PP      PP28365  12.360   5.056   1.385  0.1392  0.1547  0.3543
18262PP      PP28366   2.495   6.023  12.048 -0.1126 -0.0911 -0.0513
18263PP      PP28367  10.668   8.134  12.157 -0.0416 -0.1635 -0.0244
18264PP      PP28368   4.067  11.953   9.316 -0.0117  0.2194  0.1541
18265PP      PP28369  13.521   8.035  12.631 -0.0959 -0.0432 -0.2525
18266PP      PP28370   5.245  10.750   3.118  0.2224  0.0037  0.5005
18267PP      PP28371  11.086   9.743   1.564  0.0442  0.0342 -0.0800
18268PP      PP28372   5.975   4.825   3.190  0.1042 -0.0361 -0.1754
18269PP      PP28373   8.588   0.606  12.100  0.0341 -0.1126 -0.0844
18270PP      PP28374   6.769   6.019   3.339  0.0920 -0.1306 -0.2323
18271PP      PP28375  15.607  14.552   1.287 -0.2692  0.3307 -0.0561
18272PP      PP28376  10.498   6.924   3.249  0.2272 -0.3036 -0.1418
18273PP      PP28377   3.065  12.598   1.769  0.1936  0.0001  0.1069
18274PP      PP28378  10.682  12.877  12.779  0.1550 -0.0750 -0.2011
18275PP      PP28379   7.904   6.606   0.960 -0.1946  0.1981 -0.2808
18276PP      PP28380  13.783  11.326   0.009  0.1688  0.3121 -0.1689
18277PP      PP28381   0.736   8.259   9.614 -0.4254  0.0848 -0.2558
18278PP      PP28382   3.354   6.018   3.395 -0.1573 -0.2475 -0.1776
18279PP      PP28383   8.375   0.514   4.807  0.2460 -0.0548  0.0446
18280PP      PP28384  12.941   5.811   1.845  0.2500 -0.0059 -0.0542
18281PP      PP28385  12.427  11.065   2.956  0.3149 -0.2144 -0.0125
18282PP      PP28386   5.850  11.100   8.443  0.1121 -0.1200 -0.3266
18283PP      PP28387   7.701   0.328   1.096  0.0211  0.1714  0.1530
18284PP      PP28388  12.732  10.086   0.452  0.0624 -0.3077 -0.3237
18285PP      PP28389   1.313  13.483  10.837  0.1985 -0.2235  0.2969
18286PP      PP28390   6.949   8.520  12.748  0.1780  0.0504  0.2061
18287PP      PP28391  11.114   3.162   3.516  0.0240  0.0990 -0.0484
18288PP      PP28392  10.332  10.531   2.828 -0.2137 -0.0127 -0.1124
18289PP      PP28393  11.645   6.211  10.836  0.0446  0.1446  0.0470
18290PP      PP28394  14.581   7.590   9.658 -0.0101 -0.2447  0.0787
18291PP      PP28395   1.130  11.567   2.753 -0.1324  0.0707  0.0162
18292PP      PP28396   2.369   7.564   1.015  0.3588  0.1431 -0.2603
18293PP      PP28397  15.586   3.440   3.706 -0.1527  0.0615  0.5286
18294PP      PP28398   0.275   2.289  11.645  0.0814  0.0249  0.0646
18295PP      PP28399   0.723   3.130  12.208  0.0924  0.2185 -0.2725
18296PP      PP28400   8.817   8.618   2.217  0.0375 -0.1083 -0.0497
18297PP      PP28401   0.313  11.846   2.876 -0.1873 -0.0045  0.1072
18298PP      PP28402   2.344   3.017   2.218  0.0427  0.0424 -0.1671
18299PP      PP28403  15.400  13.700   2.643 -0.2637  0.0274 -0.1119
18300PP      PP28404   1.016   9.406   1.666 -0.3270 -0.1397  0.3269
18301PP      PP28405  10.527   3.502  12.991 -0.3691 -0.0995  0.1449
18302PP      PP28406  12.944   5.245  12.279 -0.1991 -0.0148 -0.1043
18303PP      PP28407   7.997   3.171  11.719  0.4083  0.3072 -0.3330
18304PP      PP28408  10.778   4.784   2.938 -0.0775  0.2104  0.2987
18305PP      PP28409  15.492  10.606   3.655 -0.1097  0.0462  0.3195
18306PP      PP28410  12.288   8.362   1.930 -0.1463  0.0370 -0.3054
18307PP      PP28411   3.368   1.921   9.703  0.1623  0.0482  0.0357
18308PP      PP28412   8.617   4.836   2.406  0.0928 -0.3823  0.3671
18309PP      PP28413  12.734   1.536   9.358  0.1912  0.6949 -0.3182
18310PP      PP28414  14.619  12.920  12.300  0.1414  0.0802  0.0052
18311PP      PP28415  11.265  11.283  11.013 -0.0299 -0.1053  0.2155
18312PP      PP28416  13.112  11.372   1.158  0.2875 -0.1365 -0.0091
18313PP      PP28417   3.267   0.106  10.975 -0.0061  0.3304 -0.2500
18314PP      PP28418  10.877   7.295   3.290  0.0695  0.0130 -0.5739
18315PP      PP28419   6.670   2.824   3.445  0.2517  0.0359  0.0087
18316PP      PP28420   4.121   2.784   3.315 -0.1527  0.0819 -0.1647
18317PP      PP28421  11.123  13.757   3.101 -0.1517  0.1981  0.3796
18318PP      PP28422  11.649  10.709   2.307 -0.3920  0.0899  0.1568
18319PP      PP28423   8.259   9.211   1.401  0.2663 -0.2529 -0.1267
18320PP      PP28424   6.787   4.499  10.433  0.2585 -0.1294  0.3166
18321PP      PP28425   6.773   0.564  12.087 -0.0358 -0.0964 -0.1213
18322PP      PP28426   6.882   2.291   1.568  0.0823  0.1252  0.1087
18323PP      PP28427   8.580   2.077   0.745 -0.1256 -0.0066  0.2443
18324PP      PP28428   2.584   3.344   1.839  0.0352 -0.0779 -0.1059
18325PP      PP28429  13.609   2.473  10.438  0.2079 -0.3806  0.1327
18326PP      PP28430  12.114  13.013   9.947 -0.0213  0.0912  0.1105
18327PP      PP28431   6.587  14.572   9.649 -0.0543  0.1236 -0.1873
18328PP      PP28432   6.973   1.113   9.755 -0.0096 -0.0466  0.1829
18329PP      PP28433  15.195  10.295   0.817  0.0425 -0.1561 -0.0521
18330PP      PP28434   9.501   0.231   4.829  0.1197 -0.3195  0.2596
18331PP      PP28435  13.982   9.093   9.871  0.0891 -0.0370 -0.4580
18332PP      PP28436  13.132  15.253  12.374 -0.1933  0.2847  0.2370
18333PP      PP28437   2.458  12.970   3.263  0.1509 -0.0524  0.1826
18334PP      PP28438   1.429  14.920   9.940  0.1678  0.0248 -0.1120
18335PP      PP28439  11.784  10.415   4.861  0.1254  0.0432  0.0930
18336PP      PP28440  13.173   4.839   1.035  0.1213 -0.1851  0.0509
18337PP      PP28441  15.553   5.865   9.207  0.1857  0.0668 -0.1790
18338PP      PP28442  13.382  10.580   1.193 -0.0265  0.0549 -0.2950
18339PP      PP28443   0.749  11.107   2.927 -0.1034 -0.0537 -0.2566
18340PP      PP28444   3.529  15.182   2.496  0.0159  0.1540 -0.0509
18341PP      PP28445   2.780  13.465   3.451  0.2761 -0.0132 -0.1625
18342PP      PP28446   7.054  10.606  11.706  0.1348 -0.0857 -0.1382
18343PP      PP28447   2.264   7.808   1.594 -0.1852 -0.1323  0.0031
18344PP      PP28448   1.466   8.094   0.270  0.1678 -0.5034 -0.1733
18345PP      PP28449   5.715   6.852  10.881 -0.1920 -0.1279  0.1773
18346PP      PP28450   1.433  15.674   9.924  0.3887 -0.1045  0.0423
18347PP      PP28451   9.476  13.430  11.879  0.3163  0.3981  0.1356
18348PP      PP28452   3.438  15.774  11.803 -0.2808 -0.0541 -0.2060
18349PP      PP28453   3.422   4.526   9.980 -0.0060  0.2098 -0.0607
18350PP      PP28454   1.117  10.735   8.316 -0.0217 -0.0554 -0.2120
18351PP      PP28455  13.225   7.256   3.760 -0.4218  0.1155 -0.0785
18352PP      PP28456   9.353   3.076  11.541  0.0473 -0.2346 -0.1279
18353PP      PP28457   2.417   9.015   4.134  0.0403  0.0265 -0.1996
18354PP      PP28458   0.321  12.527  12.521  0.0842  0.1118  0.0360
18355PP      PP28459   7.948  14.052   1.519  0.0062 -0.0621  0.1365
18356PP      PP28460  14.642  15.644  12.511  0.1580  0.0806  0.0184
18357PP      PP28461  15.264   8.412   9.063 -0.1866  0.1038 -0.0877
18358PP      PP28462   8.572  12.107   9.274  0.0091  0.0538 -0.1282
18359PP      PP28463   0.152  11.388  10.582  0.1651  0.3430 -0.0419
18360PP      PP28464   6.875  12.135  12.679 -0.3602 -0.1262 -0.1450
18361PP      PP28465   4.993   1.170   4.506  0.0421  0.2122  0.3800
18362PP      PP28466   1.663   6.687   3.793  0.2023  0.0045  0.0098
18363PP      PP28467   5.333   6.422   9.656  0.0742 -0.0788  0.3160
18364PP      PP28468   6.140  11.415  12.614 -0.1330 -0.1874 -0.2555
18365PP      PP28469   3.471   9.820   9.087 -0.0059  0.2309  0.4122
18366PP      PP28470   3.187   1.000  11.111 -0.1782 -0.1337 -0.0631
18367PP      PP28471   5.364   1.808  10.339  0.1386 -0.1745  0.1795
18368PP      PP28472   9.751   7.432   2.002 -0.0720 -0.3911  0.3464
18369PP      PP28473   0.913  12.056   8.903  0.0664  0.2781 -0.1521
18370PP      PP28474   5.299   7.910   3.813  0.2916  0.0916 -0.1354
18371PP      PP28475   3.988   7.356   2.359  0.1035 -0.0550  0.0499
18372PP      PP28476   1.101  12.401  13.437 -0.3761  0.0909  0.3402
18373PP      PP28477   1.824  10.340   3.585  0.1323  0.1608 -0.1015
18374PP      PP28478   4.345   3.815   2.881 -0.1763  0.2014 -0.0082
18375PP      PP28479   2.379   5.055   2.523 -0.0463  0.0556 -0.0986
18376PP      PP28480  10.963  11.059   1.751 -0.0919  0.0428 -0.0399
18377PP      PP28481   7.667   4.059   3.415 -0.0898  0.1886 -0.3166
18378PP      PP28482  14.549   2.744   2.352 -0.2911  0.2270 -0.0214
18379PP      PP28483   8.735   4.272  12.921 -0.1968  0.0409  0.1978
18380PP      PP28484   3.913   0.005   0.507 -0.0506 -0.1601 -0.1061
18381PP      PP28485  11.374   5.422   0.167  0.1517  0.0560  0.0785
18382PP      PP28486   7.512  12.788  13.323 -0.2018 -0.1024  0.3161
18383PP      PP28487   8.185  13.744   1.845  0.3121 -0.1547  0.0810
18384PP      PP28488  10.072   8.339   0.139 -0.0340  0.1787  0.2683
18385PP      PP28489   6.685  13.657  11.238 -0.2545 -0.2871  0.2248
18386PP      PP28490  15.190  10.761   1.109  0.1222  0.1640  0.3739
18387PP      PP28491  10.820   2.380   1.563  0.1709 -0.0861 -0.0859
18388PP      PP28492  13.423   3.716  13.355 -0.0988  0.0338  0.0222
18389PP      PP28493  11.762   5.957  12.250 -0.1258  0.3149  0.0430
18390PP      PP28494   7.908   2.412  13.188  0.0487  0.3125  0.2384
18391PP      PP28495   9.948   5.788  13.228  0.4940 -0.2733 -0.0527
18392PP      PP28496  15.387   2.902   4.176 -0.2588  0.0271 -0.2056
18393PP      PP28497  13.252   7.702   2.323  0.2725  0.2676  0.0987
18394PP      PP28498   4.058   1.181   9.341  0.0531  0.0515 -0.2470
18395PP      PP28499  12.357   5.843  12.123  0.1633 -0.0766 -0.0978
18396PP      PP28500  10.147   2.651  11.694  0.2606 -0.2479 -0.0435
18397PP      PP28501  11.943  15.747  11.118 -0.2079 -0.2048  0.1633
18398PP      PP28502  14.754   8.048   0.714  0.2110  0.0386  0.2568
18399PP      PP28503  13.665   9.085   1.875  0.0216  0.0504  0.0241
18400PP      PP28504   4.837   1.621   0.247  0.3673 -0.0943  0.0522
18401PP      PP28505   8.368   6.069  11.464 -0.1477 -0.1280  0.3606
18402PP      PP28506   2.665   6.125   8.985 -0.1168  0.0822 -0.2354
18403PP      PP28507  15.723   5.786  10.205  0.0446  0.0060  0.2524
18404PP      PP28508   2.884   1.983   9.491  0.1561 -0.0352 -0.0158
18405PP      PP28509   2.950   3.726   2.023 -0.1408 -0.1255 -0.0968
18406PP      PP28510  13.045   1.299  10.917 -0.1397 -0.0993 -0.1996
18407PP      PP28511  13.607   3.382  11.066  0.0051 -0.0619 -0.2280
18408PP      PP28512   1.235  14.641  11.462 -0.1295 -0.0043 -0.1954
18409PP      PP28513  10.586   8.581  13.225 -0.1987 -0.1186  0.1601
18410PP      PP28514   7.596  13.433  11.323 -0.1245 -0.1974 -0.1386
18411PP      PP28515   7.517   2.477   3.778  0.1008 -0.2072 -0.0140
18412PP      PP28516   1.482   9.144   0.207  0.2891 -0.1736 -0.0543
18413PP      PP28517  12.819   2.795   4.624  0.3071 -0.0890  0.0056
18414PP      PP28518   2.517   0.258  11.953  0.3565  0.0344 -0.0220
18415PP      PP28519   6.349   1.710   9.504 -0.0359 -0.1711  0.1587
18416PP      PP28520   2.561   9.089   8.957 -0.1846 -0.1552 -0.1729
18417PP      PP28521  10.948   6.832  11.444  0.1026 -0.1499  0.0044
18418PP      PP28522   1.466   7.892   1.232  0.0886 -0.0056 -0.3444
18419PP      PP28523   8.257   2.183   1.148 -0.1777  0.3014  0.0794
18420PP      PP28524  12.472   3.474  10.164  0.0451 -0.0734  0.2275
18421PP      PP28525   6.402   9.752  12.076 -0.1136 -0.2119  0.1251
18422PP      PP28526   1.431   4.080   2.092 -0.1614 -0.3986 -0.3658
18423PP      PP28527   8.125  12.891   4.138 -0.0044 -0.1583  0.2924
18424PP      PP28528   9.328  15.434   5.259  0.0973  0.0411  0.1221
18425PP      PP28529   9.250  14.707   3.673  0.1008  0.2508  0.0576
18426PP      PP28530   0.256   5.637   1.804 -0.1476 -0.1575  0.0686
18427PP      PP28531   6.303  14.597   2.238  0.0882  0.1456 -0.0566
18428PP      PP28532   3.811   0.469   1.781  0.0306  0.2434 -0.0722
18429PP      PP28533  15.027  10.528  12.269 -0.0685 -0.2932 -0.0218
18430PP      PP28534  10.996  12.021  12.864  0.1870 -0.1428  0.0204
18431PP      PP28535  11.799   5.673  11.093  0.0709 -0.1184  0.1129
18432PP      PP28536   3.704   8.444  11.737  0.1006 -0.0091 -0.1868
18433PP      PP28537   6.563   2.006  11.384  0.1714 -0.1187  0.3020
18434PP      PP28538   4.162   6.645   9.698  0.2438 -0.1429 -0.1784
18435PP      PP28539   2.755   7.226   2.779 -0.0939  0.1769  0.5545
18436PP      PP28540   3.140   3.378  10.497  0.0372 -0.0577  0.2968
18437PP      PP28541  15.653   4.121   8.183  0.0382 -0.2536  0.0713
18438PP      PP28542   7.951   2.329   3.136 -0.1263 -0.0568 -0.0145
18439PP      PP28543   3.002   1.923  10.862  0.0073  0.0296 -0.0511
18440PP      PP28544  12.999  10.936   0.406  0.0683  0.2883 -0.1954
18441PP      PP28545   3.129   8.137   0.502  0.0182  0.1658 -0.0134
18442PP      PP28546   0.840  15.186  11.082  0.0268 -0.1206  0.0018
18443PP      PP28547  14.121   6.080   8.979  0.6291 -0.1416 -0.3488
18444PP      PP28548  13.256   8.108   1.932 -0.2670 -0.3673 -0.1382
18445PP      PP28549  15.865   6.171  10.684 -0.0228  0.0495  0.3648
18446PP      PP28550   4.084   6.957   3.177 -0.1816 -0.0316  0.3244
18447PP      PP28551  10.026   9.990   3.318  0.2651  0.0163  0.3733
18448PP      PP28552   7.049  14.382   1.241  0.0425  0.0385 -0.0661
18449PP      PP28553  12.498  10.126  11.465 -0.0016 -0.0793 -0.4336
18450PP      PP28554   0.083   3.310  13.166  0.1211  0.2329 -0.1476
18451PP      PP28555   3.789   5.184  13.171  0.0399 -0.2496  0.3347
18452PP      PP28556   6.910   2.010   2.007 -0.3176  0.0687 -0.1207
18453PP      PP28557   3.327  10.338  11.266  0.0447 -0.3393 -0.1782
18454PP      PP28558  14.635   8.521   2.083 -0.1737  0.2225  0.1036
18455PP      PP28559   4.619   3.766  11.213  0.0440 -0.0757 -0.0437
18456PP      PP28560   2.719  15.631  13.230  0.1605 -0.0995  0.3301
18457PP      PP28561   0.467   6.391   2.303  0.0853  0.1946 -0.1532
18458PP      PP28562   9.820  13.620  10.287  0.1445  0.1844 -0.1043
18459PP      PP28563   1.314   1.568   1.114  0.1176 -0.0553 -0.3837
18460PP      PP28564   2.471   7.051   1.188  0.0434 -0.2589 -0.1343
18461PP      PP28565   8.786   0.613   1.564  0.3375  0.0496  0.0540
18462PP      PP28566   2.691   5.041   0.012 -0.0820  0.0770  0.1010
18463PP      PP28567   2.997   5.656   9.642 -0.2492 -0.1889 -0.3352
18464PP      PP28568   1.622   9.937   8.524  0.3760 -0.0596  0.0906
18465PP      PP28569  11.868   7.518  12.488  0.3114 -0.0779 -0.2585
18466PP      PP28570   0.859   6.912  11.723  0.2813 -0.4805 -0.2191
18467PP      PP28571   4.514   0.338   8.997 -0.3336  0.0627  0.0243
18468PP      PP28572   5.092  13.182  10.754 -0.4196  0.0590 -0.0697
18469PP      PP28573   3.340  11.631  11.540 -0.3356  0.0917 -0.0262
18470PP      PP28574   1.095  13.566   0.971  0.2110  0.3426 -0.2336
18471PP      PP28575  10.606  12.688   0.291 -0.0118  0.0194 -0.0903
18472PP      PP28576  15.155   2.751  10.030 -0.2781  0.0257  0.0782
18473PP      PP28577   2.342   2.349  13.399 -0.1938 -0.0548  0.1037
18474PP      PP28578   6.794   2.581  13.086  0.0950 -0.0921  0.0717
18475PP      PP28579  13.261   3.980   9.537 -0.1197  0.2374  0.3221
18476PP      PP28580   7.244   1.774   9.798  0.1204  0.0190  0.0072
18477PP      PP28581   2.925   9.037  11.116  0.0724 -0.0576 -0.0873
18478PP      PP28582   2.796   1.013  11.438 -0.2230 -0.1230  0.2743
18479PP      PP28583  13.810   2.756  11.624  0.1023 -0.1381 -0.4869
18480PP      PP28584  13.229  10.244   3.749 -0.2585  0.0240 -0.1330
18481PP      PP28585  14.133  12.186  12.087 -0.1991 -0.0540  0.0429
18482PP      PP28586  10.590   2.089   4.859  0.0804  0.1515 -0.1353
18483PP      PP28587   4.557   6.843  11.025 -0.0188 -0.1932 -0.0050
18484PP      PP28588  15.118   4.254  12.338 -0.1253 -0.2810  0.0359
18485PP      PP28589  15.832  11.970  10.649 -0.0834 -0.0058  0.0788
18486PP      PP28590  11.719   4.762   4.479 -0.3629 -0.0676  0.0266
18487PP      PP28591   2.919   6.944   8.907 -0.0113 -0.3203 -0.3943
18488PP      PP28592   2.346   3.119  10.916 -0.0786 -0.0555 -0.0158
18489PP      PP28593   3.364  14.142  11.077 -0.0630  0.4035 -0.3656
18490PP      PP28594   6.548  11.699   4.690 -0.5104  0.1868 -0.3215
18491PP      PP28595   7.221  12.357   3.168 -0.3818  0.1956  0.0723
18492PP      PP28596  12.322   6.514   2.200  0.3292  0.0608 -0.3274
18493PP      PP28597   3.423  10.411  12.979  0.1359  0.0140 -0.2668
18494PP      PP28598   3.548   3.234   9.906 -0.3205  0.0953 -0.0007
18495PP      PP28599  14.704   3.480  12.793  0.0718 -0.2215  0.0463
18496PP      PP28600  13.669  13.039   4.646 -0.0760 -0.4471  0.5239
18497PP      PP28601   2.770  10.831   3.443 -0.2962  0.1600 -0.1266
18498PP      PP28602  11.564  15.409   0.021  0.0642  0.1166  0.1079
18499PP      PP28603   7.205  13.941  12.311 -0.0604  0.0389  0.1859
18500PP      PP28604  13.824  11.881  12.426  0.1713  0.2622  0.3167
18501PP      PP28605  11.655  10.985  10.771 -0.1009 -0.0762 -0.0335
18502PP      PP28606   6.037  13.342   0.623 -0.0866  0.1772 -0.2972
18503PP      PP28607   0.536   0.469   9.278 -0.1926  0.1058  0.0106
18504PP      PP28608   6.258  10.309   4.176  0.0890 -0.0971 -0.3342
18505PP      PP28609  13.108  15.330  12.880  0.1034  0.2477 -0.1304
18506PP      PP28610  15.229   3.804   3.864  0.4427 -0.0421 -0.0376
18507PP      PP28611  13.848  12.565  11.264  0.1275 -0.0767  0.0219
18508PP      PP28612   7.765   5.329  13.345 -0.0165  0.2051 -0.0185
18509PP      PP28613  15.122   9.902   2.121 -0.1063 -0.1786  0.0340
18510PP      PP28614  12.612   5.873   3.052  0.1788 -0.1841  0.1882
18511PP      PP28615  10.301  15.147   1.633  0.0509 -0.1723  0.1263
18512PP      PP28616   9.767  14.673  10.313 -0.1226  0.1054 -0.1328
18513PP      PP28617   0.507   2.615  11.285 -0.3128  0.2978  0.3328
18514PP      PP28618   9.235   9.214   2.944 -0.1737  0.1063  0.1727
18515PP      PP28619   9.549   2.926   1.760  0.0876  0.0730 -0.1236
18516PP      PP28620   2.758   6.522   8.610 -0.1808 -0.0492 -0.0482
18517PP      PP28621   4.953  10.342   0.444 -0.0181  0.1924 -0.1114
18518PP      PP28622  10.701  13.531   9.213 -0.3616  0.0336  0.1943
18519PP      PP28623  11.462   4.580   0.576  0.1390  0.2303  0.0987
18520PP      PP28624   5.981   3.738   9.270 -0.2623 -0.2605  0.2985
18521PP      PP28625  13.085  12.128   0.060 -0.0956 -0.1648 -0.0876
18522PP      PP28626   9.576  14.599   2.727 -0.0242 -0.0891  0.0788
18523PP      PP28627   1.450   4.892   0.565 -0.2989 -0.2628 -0.0963
18524PP      PP28628   8.216   0.186   3.073  0.3918 -0.0335  0.1651
18525PP      PP28629  14.725   6.463  12.330  0.3233  0.4702  0.0336
18526PP      PP28630   3.659  10.601   0.867 -0.1438  0.0942 -0.0954
18527PP      PP28631   8.679  11.233   4.265  0.0671  0.2062  0.2967
18528PP      PP28632   8.718   9.016  12.115  0.2193 -0.1672 -0.1628
18529PP      PP28633  10.872   9.186   1.928 -0.1867  0.1496  0.0203
18530PP      PP28634  13.702   9.145   2.761  0.0320  0.2313  0.2622
18531PP      PP28635  10.279   4.748   0.756  0.0499 -0.0242 -0.0374
18532PP      PP28636  13.378   4.785   4.253 -0.0084  0.2748  0.3118
18533PP      PP28637   8.172  14.329  12.823  0.2912 -0.0843 -0.2056
18534PP      PP28638   1.738   5.303  12.726  0.1250 -0.0393  0.0563
18535PP      PP28639   8.132   9.439  10.866  0.0975  0.3097  0.1066
18536PP      PP28640   4.878   7.736  11.124 -0.2403 -0.1449 -0.3391
18537PP      PP28641   5.786   7.316  10.686 -0.1823 -0.0773  0.0059
18538PP      PP28642  14.685   5.534   0.158  0.0609  0.2522  0.0461
18539PP      PP28643  14.983   7.092   8.916 -0.0775 -0.1879  0.0869
18540PP      PP28644  11.767   2.868   4.783 -0.0935  0.0793  0.0041
18541PP      PP28645   0.563  12.616  11.624 -0.1106 -0.1436 -0.1016
18542PP      PP28646   4.282   9.707  10.899 -0.0306  0.0114  0.1862
18543PP      PP28647  14.482   2.818  10.828  0.1476  0.0857 -0.1194
18544PP      PP28648   3.844  10.882  12.891 -0.4118  0.0955 -0.4044
18545PP      PP28649  13.227   6.621   2.997 -0.0548 -0.0950  0.0108
18546PP      PP28650  11.717   7.794   0.360 -0.0268  0.1161 -0.0243
18547PP      PP28651   1.678   2.334   9.814 -0.0117 -0.0910 -0.2488
18548PP      PP28652  13.559   8.258   9.992 -0.1839  0.3125 -0.1131
18549PP      PP28653  14.943  15.232   0.909  0.3041 -0.3796 -0.0167
18550PP      PP28654  10.141   8.113  12.360 -0.0997  0.0804 -0.0262
18551PP      PP28655   3.655   8.164   2.394 -0.1315  0.1056 -0.2692
18552PP      PP28656   5.971  14.232   3.852 -0.1544  0.0049  0.0237
18553PP      PP28657   9.812   9.596  13.457  0.0264  0.2507 -0.0273
18554PP      PP28658   7.240   5.514  11.668  0.1819  0.0680  0.1081
18555PP      PP28659   0.688  14.819  12.866  0.1554  0.0721 -0.1700
18556PP      PP28660   5.559   8.271   9.407 -0.0997  0.1745 -0.0863
18557PP      PP28661   2.771   1.503  11.255  0.1435 -0.2530  0.2313
18558PP      PP28662   6.344   6.796   3.536 -0.0200  0.1166 -0.0916
18559PP      PP28663   2.309  14.626   9.872  0.3867 -0.1219  0.2199
18560PP      PP28664  11.303   1.655  11.067 -0.2427  0.0877 -0.0718
18561PP      PP28665   3.474  11.048  12.579  0.0007  0.1921 -0.0240
18562PP      PP28666   6.382  10.572  12.508  0.0279  0.1626 -0.0768
18563PP      PP28667   3.019   9.476   0.353  0.4178  0.0372  0.0437
18564PP      PP28668   5.002   5.947  12.164 -0.0115 -0.0041 -0.2969
18565PP      PP28669  13.570   0.902  13.452  0.0921  0.0052 -0.1257
18566PP      PP28670   1.294   2.596   3.368 -0.3105 -0.1576  0.3105
18567PP      PP28671   0.809   7.278  12.638 -0.2331  0.1386  0.0716
18568PP      PP28672   6.867   0.885   2.009  0.0749 -0.0860 -0.2348
18569PP      PP28673   2.880   3.299   9.014  0.0403 -0.0646 -0.0172
18570PP      PP28674   4.758   0.299   0.135  0.0558  0.0346 -0.2105
18571PP      PP28675   7.275  12.061   1.593 -0.0004  0.0294 -0.1420
18572PP      PP28676  13.361  15.487   2.947  0.2277  0.1068  0.1121
18573PP      PP28677   9.999  11.077  11.009  0.0981  0.1873 -0.1311
18574PP      PP28678   5.708  12.694   0.714  0.0109  0.2886 -0.0635
18575PP      PP28679   3.293  11.892   8.735 -0.1390  0.0762 -0.0693
18576PP      PP28680   9.954  11.246   9.965 -0.0826  0.2700  0.5160
18577PP      PP28681   2.915   8.575  12.741  0.0416  0.0311  0.1506
18578PP      PP28682  13.330  13.432   0.136  0.2146  0.3308  0.0475
18579PP      PP28683   7.636   6.839  11.082 -0.1123  0.0444 -0.3908
18580PP      PP28684   7.373   1.408  12.522  0.1469 -0.0409  0.0610
18581PP      PP28685  14.633  15.283   3.651 -0.1485  0.1401 -0.2536
18582PP      PP28686   7.804   3.140   4.429  0.3761  0.1896  0.1638
18583PP      PP28687   0.517   0.824   1.611 -0.3920 -0.1477 -0.1396
18584PP      PP28688  14.022  12.098   4.701  0.3254  0.0253  0.4927
18585PP      PP28689  10.545  14.069   1.087  0.0817 -0.4110  0.0807
18586PP      PP28690  11.389   0.898  11.502  0.3180 -0.0691 -0.1316
18587PP      PP28691   7.945   2.297   2.374  0.0208 -0.1850 -0.3501
18588PP      PP28692   1.358  14.164   4.425 -0.0563 -0.2130  0.2540
18589PP      PP28693   5.685   6.436   2.755 -0.0665 -0.2246  0.0354
18590PP      PP28694  15.838  14.692   9.322  0.2339  0.0282  0.0346
18591PP      PP28695   5.144   0.311  10.257 -0.2495  0.0374  0.0630
18592PP      PP28696  11.627   1.264  10.805 -0.1461 -0.1701 -0.1600
18593PP      PP28697  15.637   9.134   0.791  0.3093  0.3492  0.0927
18594PP      PP28698  12.107   4.353   3.483 -0.2067  0.0378 -0.0366
18595PP      PP28699  14.551  14.884  13.478 -0.0524 -0.0052  0.1355
18596PP      PP28700   9.460  11.743   8.631  0.1680 -0.1519 -0.2815
18597PP      PP28701   3.810   9.014   0.293  0.2512  0.0198 -0.2337
18598PP      PP28702   1.452   0.560  11.275 -0.1321  0.2892  0.1459
18599PP      PP28703  15.338   4.689   0.195 -0.1457 -0.2520  0.1687
18600PP      PP28704   5.326   5.599   9.486 -0.1472 -0.1693  0.0361
18601PP      PP28705   3.931   1.796   0.050 -0.2703 -0.0588 -0.2355
18602PP      PP28706  14.191  14.470   2.081 -0.0512 -0.2210  0.1342
18603PP      PP28707  14.627   2.192   9.613  0.2947 -0.2125  0.1539
18604PP      PP28708   5.960   3.931   3.667  0.1437  0.1371 -0.1953
18605PP      PP28709   6.141   2.461   0.948  0.0422  0.2699 -0.0224
18606PP      PP28710  14.468   1.909  13.288  0.2949 -0.0731  0.1844
18607PP      PP28711   8.893  13.974  10.815 -0.0279  0.0361  0.2103
18608PP      PP28712   1.031   9.747   3.046  0.1486  0.0863  0.4855
18609PP      PP28713   2.969  14.072   0.844  0.1501  0.1043  0.2139
18610PP      PP28714   1.325   5.918  12.784  0.0692 -0.1056  0.2061
18611PP      PP28715   1.192  11.247   3.186  0.2588  0.1585 -0.2028
18612PP      PP28716   3.155   9.262   0.739 -0.2272  0.2079  0.3145
18613PP      PP28717  12.462   7.629  11.768  0.1579 -0.2883  0.0458
18614PP      PP28718  11.359  15.653   5.036 -0.1496 -0.3000  0.0186
18615PP      PP28719  12.450  15.829   0.447 -0.0637 -0.0239  0.0405
18616PP      PP28720   0.931   4.380   3.536  0.2304 -0.0312 -0.2244
18617PP      PP28721  14.881   8.479   9.823 -0.0906 -0.1988 -0.0786
18618PP      PP28722   6.937   4.940  10.613  0.0239  0.0306  0.1725
18619PP      PP28723  11.818  13.339  10.847  0.0218  0.0750  0.0246
18620PP      PP28724   2.291   9.124   2.655  0.1674  0.2435 -0.2903
18621PP      PP28725   9.902  14.118  10.207 -0.0539 -0.0708 -0.3063
18622PP      PP28726   8.117   5.774  12.569 -0.1361  0.0812  0.0824
18623PP      PP28727   9.608   1.245   3.907 -0.0204  0.3877 -0.0516
18624PP      PP28728  13.507   5.140  11.339 -0.0741 -0.1953  0.0979
18625PP      PP28729   4.585  10.069  10.097 -0.1283  0.0157 -0.1685
18626PP      PP28730   4.088   0.132   0.974 -0.2197  0.0197 -0.2059
18627PP      PP28731   3.335   2.206   2.151 -0.1919  0.0114  0.2123
18628PP      PP28732   4.088   2.630   1.491 -0.0099 -0.0273 -0.0532
18629PP      PP28733   8.383   9.962  11.675 -0.0732  0.1842  0.0476
18630PP      PP28734   2.072  10.130   2.309 -0.0441 -0.2722 -0.4325
18631PP      PP28735   5.992   6.532   9.744 -0.0101 -0.3259  0.1265
18632PP      PP28736  15.442   6.307   1.287  0.1748  0.0633 -0.2821
18633PP      PP28737   0.763   5.371   9.166  0.1115  0.2442 -0.0091
18634PP      PP28738  11.334   9.826   3.612 -0.4303 -0.0366 -0.4844
18635PP      PP28739  12.632   2.445  11.352 -0.0805 -0.0230  0.1074
18636PP      PP28740   8.716  15.275  10.344 -0.2064 -0.1476  0.0345
18637PP      PP28741   3.397   6.510   2.584 -0.3117  0.3243  0.1090
18638PP      PP28742   3.436   1.639   3.722  0.0675 -0.0058  0.0035
18639PP      PP28743   5.805  11.567   4.135 -0.1942 -0.2218 -0.2466
18640PP      PP28744   5.215   9.718  10.480  0.0333 -0.4205  0.2241
18641PP      PP28745   5.904   4.955   2.294  0.2160  0.1038  0.0258
18642PP      PP28746  11.950   8.889   8.816 -0.0221  0.3234  0.0065
18643PP      PP28747  12.132  11.003   1.234 -0.1983 -0.0148 -0.2229
18644PP      PP28748  13.981  13.627   9.404 -0.1862 -0.1859  0.2534
18645PP      PP28749  11.989  11.245   3.144 -0.0453 -0.0670  0.2419
18646PP      PP28750  13.895   8.348   9.253 -0.1156  0.0868  0.2013
18647PP      PP28751  11.712   4.163   9.577  0.2438  0.6955  0.2253
18648PP      PP28752   3.160   6.875  13.466  0.0781 -0.1923  0.2630
18649PP      PP28753   1.384   8.517   8.636  0.3734 -0.1712 -0.1355
18650PP      PP28754  11.749  11.967  11.826 -0.0980  0.1420 -0.0970
18651PP      PP28755   9.855   2.192  12.171  0.0889 -0.4324 -0.0238
18652PP      PP28756  13.771   4.670  11.297 -0.1161  0.1175  0.3569
18653PP      PP28757   6.598   9.284   3.891  0.0375  0.1173 -0.2016
18654PP      PP28758  11.935  12.474   2.016 -0.0328  0.1332 -0.0625
18655PP      PP28759   2.235  12.520   3.293  0.1225  0.0460  0.0603
18656PP      PP28760   4.297   6.361   2.326  0.1974 -0.0259 -0.2957
18657PP      PP28761   6.337   0.714  11.895 -0.0049  0.1116 -0.0083
18658PP      PP28762  11.460  10.332   9.485 -0.0713  0.2183  0.2129
18659PP      PP28763   1.344  12.014   1.197 -0.2173  0.0770 -0.1032
18660PP      PP28764  13.520   6.488  11.938  0.0271  0.0079 -0.1867
18661PP      PP28765  15.457  10.602   2.804  0.2380 -0.1712  0.3381
18662PP      PP28766  13.453   2.769   1.314 -0.2143 -0.2616 -0.0277
18663PP      PP28767   0.483   9.007   8.467  0.1537 -0.1060  0.4173
18664PP      PP28768   4.303   5.623   1.798 -0.0413  0.3470  0.0742
18665PP      PP28769  14.789  11.014  10.405  0.1845 -0.1935 -0.1180
18666PP      PP28770   7.629   8.688  13.500  0.0977  0.1299  0.2677
18667PP      PP28771  10.239   8.353  12.932 -0.1132 -0.0384  0.2135
18668PP      PP28772   1.240  13.534   0.432 -0.1401 -0.0057  0.1137
18669PP      PP28773   1.231   5.001   8.950 -0.1038 -0.2433 -0.1576
18670PP      PP28774   9.643   1.039   0.175 -0.1389 -0.2734  0.1729
18671PP      PP28775   4.848   9.169  10.784  0.1529  0.2110 -0.1051
18672PP      PP28776  13.095  13.030   4.793 -0.0037 -0.1704  0.1655
18673PP      PP28777  11.163   2.959   2.597 -0.1557  0.1187 -0.0755
18674PP      PP28778   0.825   5.795   3.419 -0.0128  0.0376  0.3775
18675PP      PP28779  11.784   9.647   3.400 -0.1112 -0.3740 -0.2255
18676PP      PP28780  14.301   2.736   9.764 -0.3199  0.1133 -0.1331
18677PP      PP28781  13.850  11.729  11.524 -0.3213 -0.2344  0.3637
18678PP      PP28782  10.216   7.017  12.666  0.1282  0.1798  0.3490
18679PP      PP28783   0.581  13.915   2.958  0.2276  0.0797  0.1356
18680PP      PP28784  14.234  15.813  12.121 -0.0017 -0.2707  0.0927
18681PP      PP28785  13.870  14.479  12.884  0.0620 -0.1687  0.1474
18682PP      PP28786   5.688   9.628   4.228  0.0229  0.2018 -0.1025
18683PP      PP28787   2.136   0.662  11.997 -0.0309  0.0359 -0.0105
18684PP      PP28788   0.893   3.691   0.023 -0.3722 -0.2881 -0.0900
18685PP      PP28789   3.684  13.511  12.638 -0.0639 -0.2770  0.2748
18686PP      PP28790   3.347   5.497  13.046 -0.1152  0.1762 -0.3085
18687PP      PP28791  10.069   7.657   9.401  0.0244  0.2135 -0.3897
18688PP      PP28792  15.568   9.550   8.871  0.1029 -0.0058  0.1997
18689PP      PP28793  10.169   4.488   4.321 -0.0774  0.0804 -0.1892
18690PP      PP28794   2.326   3.961  10.601  0.2327 -0.2915  0.2601
18691PP      PP28795   8.551   0.547   3.280  0.1749 -0.0356 -0.0564
18692PP      PP28796   7.880  15.771   0.882 -0.5192 -0.3170  0.1457
18693PP      PP28797   8.910   5.110   1.776 -0.1952  0.1455  0.2023
18694PP      PP28798   7.245   7.881   8.152 -0.4232 -0.2404  0.0707
18695PP      PP28799  13.466   2.225  11.806  0.2766 -0.1153 -0.1907
18696PP      PP28800  13.279  14.297   3.930  0.1337  0.0463 -0.2199
18697PP      PP28801  11.550   2.372   3.360  0.0388  0.1471  0.2255
18698PP      PP28802  13.362   0.447   1.503  0.1869 -0.0005 -0.2350
18699PP      PP28803   0.311   8.030   9.363 -0.1113 -0.0273 -0.3446
18700PP      PP28804  12.295  11.033   3.499  0.0854  0.3211 -0.0237
18701PP      PP28805   0.673   8.313   2.692 -0.1300  0.1416 -0.1317
18702PP      PP28806   2.580   6.088   3.064 -0.0744 -0.2928  0.2676
18703PP      PP28807   9.387   4.829   9.408 -0.3464  0.4044 -0.1144
18704PP      PP28808  10.564   7.662   4.102 -0.0651 -0.0618  0.2209
18705PP      PP28809  13.422   0.488   3.109  0.1383 -0.0082  0.0651
18706PP      PP28810   9.792   6.314   3.305 -0.0120 -0.4050  0.0772
18707PP      PP28811  12.138   4.264   9.212  0.0440 -0.0655  0.1314
18708PP      PP28812  15.732  12.593   2.576 -0.0334 -0.0397  0.4071
18709PP      PP28813   5.901  15.429  10.290 -0.2156  0.1322 -0.0048
18710PP      PP28814  12.939   3.866   1.724  0.0145 -0.3436  0.2570
18711PP      PP28815  11.106  15.611   9.334  0.2235  0.0395  0.1194
18712PP      PP28816  11.089   2.612   9.798  0.3275  0.0025  0.1683
18713PP      PP28817  11.210   5.938   1.673  0.0406 -0.1564  0.0878
18714PP      PP28818   9.143  14.035   9.803  0.0618 -0.1924  0.2961
18715PP      PP28819  10.305   9.171   0.446 -0.2756 -0.1163  0.1408
18716PP      PP28820   4.876  11.175  11.436  0.0849  0.1751  0.0661
18717PP      PP28821   0.568  13.683  10.080  0.0439  0.0863 -0.0669
18718PP      PP28822   8.231  15.193  10.729 -0.2037 -0.1553 -0.0174
18719PP      PP28823  12.163   2.393  11.321 -0.2038  0.0097  0.0703
18720PP      PP28824  10.928  12.182   0.307  0.0992  0.1285  0.0848
18721PP      PP28825  12.303   2.918   4.641  0.1435  0.0218  0.3978
18722PP      PP28826   3.094  10.126  10.292 -0.0045  0.0889  0.2253
18723PP      PP28827  10.781   5.768   9.978 -0.1164  0.1610  0.1547
18724PP      PP28828   4.820   4.917  11.977 -0.2246  0.0485 -0.2477
18725PP      PP28829   2.373  14.521  11.186  0.0497  0.4388 -0.1592
18726PP      PP28830  12.009  10.543   3.628 -0.0068 -0.0109 -0.0743
18727PP      PP28831   8.808   5.198  12.098  0.0809 -0.0516  0.0955
18728PP      PP28832   6.684  14.562   3.111  0.0018  0.1627  0.0754
18729PP      PP28833   3.413  12.697   8.993 -0.2265 -0.1424 -0.0682
18730PP      PP28834   2.550   8.470   3.804  0.0713  0.1654 -0.1798
18731PP      PP28835   4.492   3.084   0.094  0.2291 -0.4900  0.4219
18732PP      PP28836   9.960  11.368   3.851  0.0797  0.0581  0.1620
18733PP      PP28837   8.084   8.922  13.379  0.2896 -0.0503  0.0622
18734PP      PP28838  13.864   7.623   1.244  0.0514  0.1736 -0.2908
18735PP      PP28839   8.329   9.965  12.721 -0.1982  0.1673 -0.0249
18736PP      PP28840  11.560   0.373   5.060  0.0182  0.0781  0.0001
18737PP      PP28841  11.472   7.690  10.416 -0.1355  0.0009 -0.2577
18738PP      PP28842   4.820  10.437   3.353  0.0038  0.2357  0.1278
18739PP      PP28843  11.388   1.336  10.358 -0.0599  0.2403 -0.4633
18740PP      PP28844  13.338   6.193  10.719 -0.1516  0.0694 -0.1358
18741PP      PP28845   2.923   1.494   0.777  0.1756 -0.3503  0.0210
18742PP      PP28846  10.018   3.042   1.273 -0.1893  0.5177 -0.4857
18743PP      PP28847  11.926  12.430   4.591 -0.0158  0.1566  0.1155
18744PP      PP28848  11.967   0.061   4.727  0.1408  0.2778  0.1660
18745PP      PP28849  14.042   7.567   2.163 -0.0896 -0.4312 -0.0941
18746PP      PP28850   8.570   7.522   8.371  0.2361  0.3147  0.0401
18747PP      PP28851   0.023   9.190   2.508 -0.2340 -0.0267 -0.1306
18748PP      PP28852   1.368  15.433   4.159 -0.1810 -0.0206  0.2324
18749PP      PP28853  12.382  12.604   1.822 -0.3951 -0.3678  0.1494
18750PP      PP28854  11.989   1.219  10.392 -0.2464  0.2565  0.2103
18751PP      PP28855   1.061   9.083   2.712  0.0282 -0.1132 -0.1039
18752PP      PP28856   6.479   5.132   3.146 -0.1252 -0.1254 -0.2237
18753PP      PP28857   9.290  10.659   3.679  0.1230  0.0251 -0.1737
18754PP      PP28858   5.796   8.176   3.696  0.2011  0.6340  0.0498
18755PP      PP28859   6.778   9.444   2.692 -0.0411  0.1331 -0.1194
18756PP      PP28860   2.555   1.725   3.312  0.4066  0.1251  0.1032
18757PP      PP28861   3.494   1.596  10.126  0.1237  0.3052  0.0418
18758PP      PP28862  14.300  10.739  12.913 -0.2636  0.0995  0.0491
18759PP      PP28863   9.697   7.357  11.461 -0.0253  0.1101  0.1517
18760PP      PP28864   1.193   3.219   1.908  0.1560  0.1329 -0.1816
18761PP      PP28865  13.595  15.782   0.543  0.2109 -0.0157 -0.1077
18762PP      PP28866  11.651   0.478   9.355  0.1616 -0.0670 -0.6006
18763PP      PP28867  11.555   5.815   9.184  0.1095  0.2906  0.0187
18764PP      PP28868  12.169  11.672   9.952  0.4129 -0.1337  0.2835
18765PP      PP28869   1.171   3.975  13.182  0.0504 -0.0997 -0.0731
18766PP      PP28870   3.237   2.692  11.348  0.0592 -0.3179 -0.0098
18767PP      PP28871   0.749  13.845  12.981  0.0653 -0.1099  0.0431
18768PP      PP28872   9.656  13.780   0.982 -0.0584  0.2530  0.3657
18769PP      PP28873  12.635  11.502   4.625 -0.0973  0.1621  0.0166
18770PP      PP28874   3.644   3.818  12.686 -0.2024 -0.1214 -0.1013
18771PP      PP28875   4.891  12.100   0.147  0.2955  0.3152 -0.0395
18772PP      PP28876  10.484  15.425  10.657  0.2525 -0.1336  0.2277
18773PP      PP28877   5.216   9.875   3.551 -0.1155 -0.0942 -0.0829
18774PP      PP28878   7.183  11.055  11.130 -0.1946 -0.4026  0.1792
18775PP      PP28879   9.268   9.530  11.199  0.1640 -0.2426 -0.0813
18776PP      PP28880   0.459   8.650  10.952  0.3115  0.0219 -0.0267
18777PP      PP28881   1.347   4.297  11.910 -0.1446  0.2100 -0.0657
18778PP      PP28882  12.754   6.549  10.347  0.0591  0.0542 -0.1595
18779PP      PP28883   1.249   6.668   9.540 -0.1093 -0.1919  0.0983
18780PP      PP28884  14.890  10.976  12.069 -0.0706 -0.2399 -0.1604
18781PP      PP28885  13.640   6.182   9.074 -0.0627  0.3216  0.1786
18782PP      PP28886  10.409   9.407  12.069  0.0155  0.3785 -0.0651
18783PP      PP28887  11.844  10.075  10.193 -0.3697  0.0446  0.5238
18784PP      PP28888   8.475   2.403   1.556 -0.1433  0.1057  0.1535
18785PP      PP28889  15.799  10.056  13.246 -0.1536  0.0410 -0.0490
18786PP      PP28890  10.083   8.992   0.856 -0.2943 -0.2284  0.0064
18787PP      PP28891   4.409  10.229   0.359  0.2014  0.2563  0.2345
18788PP      PP28892   4.766   6.431  12.282 -0.1551  0.0101 -0.3152
18789PP      PP28893  13.941  10.420  11.893 -0.1262 -0.0941 -0.0504
18790PP      PP28894   8.629   6.420  11.220  0.0236 -0.0083 -0.1284
18791PP      PP28895   0.963  13.853  10.973 -0.2196  0.2114  0.1033
18792PP      PP28896   1.622  11.761   9.766 -0.2039  0.2295 -0.0245
18793PP      PP28897   0.199  13.414   0.851  0.2083 -0.4589 -0.3431
18794PP      PP28898   8.601  12.638   1.326  0.1723 -0.0464  0.3587
18795PP      PP28899   7.898  10.371   3.308  0.3502 -0.1917  0.2595
18796PP      PP28900  13.221   3.337   0.115  0.3709  0.0799  0.2162
18797PP      PP28901  14.170   9.397   1.795  0.3948 -0.3998  0.5019
18798PP      PP28902   3.019  10.521   9.421  0.1578 -0.1957  0.1763
18799PP      PP28903   0.470   6.968   8.322 -0.1029  0.0259 -0.4223
18800PP      PP28904   6.271  11.390   3.151  0.0531 -0.0154 -0.3015
18801PP      PP28905  11.277  10.943  12.770 -0.0723  0.0981 -0.0020
18802PP      PP28906  12.724   0.266   2.816  0.1208 -0.1833  0.0637
18803PP      PP28907   1.413   9.739  12.547 -0.0094  0.2818  0.3808
18804PP      PP28908   0.125   1.515  12.198  0.0567  0.1057 -0.2686
18805PP      PP28909   3.927   6.128   9.908  0.0572  0.2962  0.1413
18806PP      PP28910  15.084   8.905   0.632 -0.0809  0.0504  0.0467
18807PP      PP28911   1.180   7.814   3.315 -0.0648 -0.0880  0.0712
18808PP      PP28912  15.844  14.105   3.009  0.3662 -0.5698  0.2148
18809PP      PP28913   2.953  14.424   4.991  0.0620  0.0714 -0.0649
18810PP      PP28914   2.435   3.613  13.166  0.1542  0.1970  0.2299
18811PP      PP28915   1.868  11.412  11.883  0.0554 -0.1511  0.1061
18812PP      PP28916  13.001  12.357  12.276 -0.0099  0.0147 -0.3920
18813PP      PP28917  12.644  13.373  11.185  0.2226  0.1578 -0.1490
18814PP      PP28918  14.853  10.124  12.484 -0.3689 -0.0113  0.3853
18815PP      PP28919   5.195  11.681  11.196  0.1138  0.0969 -0.0891
18816PP      PP28920   3.805   5.710   3.842 -0.0104 -0.1056 -0.2091
18817PP      PP28921   0.843   4.367  13.132  0.1385  0.2900  0.2334
18818PP      PP28922  14.733   9.238   0.521  0.2445 -0.0977 -0.1485
18819PP      PP28923   0.405  13.122  11.243 -0.0597 -0.1919  0.3129
18820PP      PP28924   3.436   5.144  10.846 -0.1344  0.1733  0.1538
18821PP      PP28925   9.990  12.467   2.313  0.0621  0.2113 -0.1178
18822PP      PP28926   8.575  14.257  11.106 -0.2030 -0.0418  0.0738
18823PP      PP28927   1.153   8.878   3.199 -0.0656 -0.2109  0.1261
18824PP      PP28928   9.138   3.418   0.879 -0.0241 -0.0623  0.1967
18825PP      PP28929   7.742   1.046  13.239  0.1323  0.0749  0.1332
18826PP      PP28930   3.652   6.932  12.452  0.0720  0.1584 -0.2999
18827PP      PP28931  14.349   4.694  10.984  0.0964 -0.0895  0.0126
18828PP      PP28932  12.459   0.267  12.256  0.1693 -0.2847 -0.1617
18829PP      PP28933   0.663   2.156   3.868  0.3789  0.0551 -0.2671
18830PP      PP28934   6.311  12.695   3.001  0.3822  0.0421 -0.0835
18831PP      PP28935   7.150  13.492  12.144 -0.2588 -0.3240  0.1407
18832PP      PP28936   3.666  15.853   0.009  0.0453 -0.1480  0.0469
18833PP      PP28937  11.113   4.572   1.852 -0.0882 -0.0208 -0.0306
18834PP      PP28938   1.837   8.589  10.842 -0.0169 -0.0607 -0.0870
18835PP      PP28939   9.307   4.461  11.832 -0.2026  0.1639 -0.2559
18836PP      PP28940   0.352  11.398   3.756  0.3455  0.1582 -0.1632
18837PP      PP28941  13.440   4.678  10.120  0.0595  0.1341  0.2557
18838PP      PP28942  10.982  14.175   2.378 -0.0965 -0.2009 -0.1532
18839PP      PP28943  11.295   4.980   2.757  0.2162  0.1068  0.1116
18840PP      PP28944   0.786   4.560   0.288 -0.0111 -0.3189 -0.1371
18841PP      PP28945  13.332   6.981  12.373  0.2428 -0.2314  0.0099
18842PP      PP28946  13.371   6.683   3.883 -0.2003 -0.1935 -0.1825
18843PP      PP28947   4.286  15.099   9.565 -0.1443  0.1734 -0.1589
18844PP      PP28948   1.155   5.873   3.811  0.0736  0.0520 -0.0518
18845PP      PP28949  11.136   8.871  10.342  0.1143  0.3923  0.1843
18846PP      PP28950  15.314  15.328   1.840  0.1289 -0.0157 -0.1698
18847PP      PP28951  14.915   0.505   1.636  0.1346 -0.4268 -0.1897
18848PP      PP28952   2.617  15.008   9.921  0.0280  0.2579 -0.2471
18849PP      PP28953  14.923   7.101   3.128 -0.0034 -0.1701 -0.1449
18850PP      PP28954   8.231   0.083  12.235 -0.1294 -0.1167 -0.0784
18851PP      PP28955  15.375   5.078   1.505  0.0234 -0.2658 -0.1155
18852PP      PP28956  11.362  12.508  10.295  0.1358  0.1850 -0.0376
18853PP      PP28957   4.841   3.837  11.718  0.0998  0.0455  0.0881
18854PP      PP28958   9.459   4.084   4.279  0.1300  0.0989  0.3487
18855PP      PP28959  13.160  14.152   1.509 -0.1369 -0.3317 -0.1166
18856PP      PP28960   8.972  12.414  10.196 -0.1771 -0.0750 -0.0353
18857PP      PP28961  10.972   3.425  12.007  0.0366  0.4051  0.0961
18858PP      PP28962  12.468   3.847   1.588  0.1858 -0.1148 -0.1680
18859PP      PP28963   0.817   3.248   0.360 -0.1641 -0.1713 -0.1008
18860PP      PP28964  11.331   3.404  12.445 -0.1098  0.0605 -0.0735
18861PP      PP28965   9.465  14.519   2.135 -0.0457  0.5714  0.2326
18862PP      PP28966  14.302   4.089  12.398  0.0152 -0.3470 -0.0828
18863PP      PP28967  11.943   2.097  10.631 -0.0204  0.2342 -0.1236
18864PP      PP28968   3.408   3.298   0.699 -0.2134 -0.0450  0.2587
18865PP      PP28969  15.638   2.228   0.700 -0.0880 -0.0696  0.1569
18866PP      PP28970  13.570  13.684   0.521  0.0107  0.0078  0.1351
18867PP      PP28971  14.717   0.828   8.524  0.0170  0.1000 -0.3140
18868PP      PP28972   6.923   6.406   9.916  0.1537  0.0051 -0.2222
18869PP      PP28973   1.773   1.853   2.607 -0.1081  0.0648 -0.0846
18870PP      PP28974   0.590  12.543  11.077 -0.2054 -0.1586 -0.2263
18871PP      PP28975  15.028  10.524  12.885  0.2809 -0.0556  0.0314
18872PP      PP28976   9.270   8.174   9.584  0.0386  0.2378  0.0119
18873PP      PP28977  14.840   4.659  12.196 -0.0194 -0.2089  0.3534
18874PP      PP28978  12.850   5.556   0.055 -0.0752 -0.1940  0.1820
18875PP      PP28979   5.732   9.982   9.533 -0.1807 -0.0583 -0.2342
18876PP      PP28980   5.636  12.865  12.490  0.2060 -0.2163 -0.1877
18877PP      PP28981   4.922  13.227   3.865  0.0818 -0.0974 -0.0342
18878PP      PP28982   2.455   3.250   3.588 -0.2842  0.2093 -0.1207
18879PP      PP28983   9.134   0.095   0.884  0.0613  0.1552 -0.0383
18880PP      PP28984  11.100   2.634  10.800 -0.0084 -0.3152 -0.0976
18881PP      PP28985   4.494   2.321   3.293 -0.0261  0.0524 -0.0758
18882PP      PP28986   6.312   3.778   0.747 -0.1876  0.1396 -0.1059
18883PP      PP28987  10.838  15.709   1.968  0.0569 -0.2149  0.1539
18884PP      PP28988  15.366   1.299   0.956 -0.2621 -0.2042 -0.4404
18885PP      PP28989   6.394   9.313  12.911 -0.0463 -0.2007 -0.1436
18886PP      PP28990  11.026  12.969   2.838 -0.1442 -0.0654 -0.3275
18887PP      PP28991   4.541   6.596  13.174 -0.1120 -0.2565  0.0414
18888PP      PP28992   1.232   4.059   2.608  0.2302  0.2746 -0.0835
18889PP      PP28993   8.886  11.570   1.909 -0.0021  0.0334  0.2599
18890PP      PP28994   8.236   9.281  11.774 -0.3808  0.3070 -0.2554
18891PP      PP28995  13.320  12.007   9.415 -0.2715 -0.1495  0.1789
18892PP      PP28996   4.670   4.877   1.453 -0.0105  0.0873  0.3587
18893PP      PP28997   6.555   2.545   0.061  0.0267  0.2322 -0.0699
18894PP      PP28998   5.036  13.887   9.595 -0.0445 -0.5946  0.0459
18895PP      PP28999  12.836   5.100  11.792  0.2401 -0.1800  0.2964
18896PP      PP29000   1.252  10.963   2.704  0.1354 -0.0151  0.3257
18897PP      PP29001  11.206   5.130   2.264  0.1107 -0.1869 -0.2459
18898PP      PP29002   5.553  13.770   9.642 -0.1669  0.2293 -0.2383
18899PP      PP29003   8.628   8.341   3.837 -0.1536  0.0426 -0.0157
18900PP      PP29004   8.038   3.865   2.442  0.2722 -0.1099  0.2079
18901PP      PP29005  14.895   9.468  11.750 -0.0651 -0.0937 -0.3385
18902PP      PP29006   3.270   0.695   4.725  0.0874  0.0249 -0.1277
18903PP      PP29007   4.921  11.067  12.688  0.0751  0.2488 -0.1844
18904PP      PP29008   6.607   7.426   1.678 -0.1540 -0.1318 -0.5514
18905PP      PP29009  14.655   6.050   0.793  0.0139 -0.1187  0.0810
18906PP      PP29010  11.219   1.783  10.469 -0.1077  0.0143 -0.0050
18907PP      PP29011   7.956  15.671   5.033 -0.2134  0.3107  0.0681
18908PP      PP29012   2.214  13.594  10.575 -0.2642 -0.2025 -0.0264
18909PP      PP29013   8.577   1.428   3.767 -0.2360  0.1760 -0.1840
18910PP      PP29014   2.622   1.379  11.735  0.0752 -0.2250  0.0139
18911PP      PP29015  14.517   4.221  13.157  0.0222 -0.3159 -0.2536
18912PP      PP29016  13.217  14.638  13.188 -0.0637  0.2032 -0.1826
18913PP      PP29017   0.283  15.192   8.855  0.1068 -0.0504  0.0316
18914PP      PP29018   4.530  11.317  11.973 -0.1522 -0.3177  0.2543
18915PP      PP29019   8.433   7.448  13.308  0.1140 -0.2106  0.0746
18916PP      PP29020   9.136  11.669   3.806 -0.0288 -0.2276  0.0729
18917PP      PP29021   3.561   5.618   0.924  0.0873 -0.0681 -0.1425
18918PP      PP29022   7.711   2.393   1.945  0.2212  0.0849 -0.0608
18919PP      PP29023   5.562   3.984   8.855  0.2708  0.1562  0.0073
18920PP      PP29024   4.032  12.044   9.861  0.0986  0.1244 -0.1545
18921PP      PP29025   6.646   9.397   1.595 -0.0981  0.0464  0.2518
18922PP      PP29026   9.054  10.415  13.272  0.0635  0.0658  0.2810
18923PP      PP29027  13.320  11.976  12.732 -0.0498 -0.0091  0.0813
18924PP      PP29028   4.972   0.317   1.456  0.0821  0.0059  0.1259
18925PP      PP29029   0.031   4.415  13.431 -0.0161 -0.1974 -0.0169
18926PP      PP29030  11.525   9.793   9.371 -0.1379  0.0058  0.0809
18927PP      PP29031  12.923   5.405   3.788 -0.1696  0.1077 -0.0668
18928PP      PP29032  13.569  15.206   2.560 -0.0555 -0.2776 -0.4244
18929PP      PP29033   8.757   3.288  12.906 -0.0993 -0.0748  0.4822
18930PP      PP29034   9.720  12.442  12.677 -0.0970 -0.2260  0.3365
18931PP      PP29035   1.175   6.877   1.278 -0.1844  0.0680  0.2587
18932PP      PP29036   5.477   3.147   3.633  0.1279  0.4353  0.1194
18933PP      PP29037   6.976   4.785  11.633  0.0498 -0.0201 -0.3412
18934PP      PP29038   3.131  10.485   3.444  0.0528  0.2301 -0.0108
18935PP      PP29039  15.121   0.419  12.817  0.1214 -0.2593 -0.1457
18936PP      PP29040   2.443   9.418   1.411 -0.2002 -0.0990  0.0788
18937PP      PP29041   2.935  11.490   3.542  0.2434  0.0113 -0.1086
18938PP      PP29042   7.158   0.286  11.289 -0.1579  0.0431 -0.5311
18939PP      PP29043   6.587   8.307   0.132 -0.0877  0.1059  0.0643
18940PP      PP29044   9.005   6.055  12.250 -0.1215 -0.1039 -0.1232
18941PP      PP29045  12.547   5.161   4.032 -0.2127 -0.1225 -0.2306
18942PP      PP29046   5.487  13.368   5.111  0.0246 -0.2896 -0.0562
18943PP      PP29047   1.472   6.798  11.590  0.0648 -0.0761  0.1056
18944PP      PP29048   5.468   0.502  12.172  0.2260 -0.0213  0.2063
18945PP      PP29049  12.952   2.740   3.129 -0.0597 -0.0201 -0.1603
18946PP      PP29050   0.119  14.570  11.803  0.3384 -0.0436  0.0479
18947PP      PP29051   8.402   2.959  11.207  0.1965  0.0620 -0.1772
18948PP      PP29052  13.182  11.658   4.483  0.1020 -0.1110  0.1768
18949PP      PP29053   8.936   0.296  11.521  0.0765  0.2113 -0.0144
18950PP      PP29054   6.512  13.129   1.712 -0.0072  0.0344 -0.1873
18951PP      PP29055  11.535  11.475   9.796  0.1116  0.1384 -0.0985
18952PP      PP29056   8.171  13.207   2.488 -0.1374 -0.0074 -0.1663
18953PP      PP29057   2.145   6.149   3.380 -0.1576 -0.0823  0.0993
18954PP      PP29058   1.667  14.455   4.162  0.2014 -0.3841 -0.2681
18955PP      PP29059  13.792   2.181  10.062  0.1005  0.1458  0.0154
18956PP      PP29060   2.678   1.060   3.207  0.1156  0.3262  0.0224
18957PP      PP29061   4.162   2.272   0.138  0.1655 -0.1288 -0.1420
18958PP      PP29062   1.549  14.646  10.976 -0.2285  0.0428 -0.1007
18959PP      PP29063   4.319   2.645   9.383 -0.0867 -0.1208  0.2444
18960PP      PP29064   7.892   2.911  13.040 -0.0212  0.0432  0.1134
18961PP      PP29065   3.101   7.068   3.003 -0.2488 -0.1245 -0.0358
18962PP      PP29066   7.364  15.125  10.937 -0.1118  0.2023  0.1938
18963PP      PP29067   4.921   7.231  11.030  0.2055  0.3433  0.0647
18964PP      PP29068   5.387   2.824   0.030 -0.2692  0.0544  0.0953
18965PP      PP29069  11.416  13.922   8.468  0.0498  0.3946 -0.0121
18966PP      PP29070   6.154  14.110  10.664 -0.2977  0.2186  0.0111
18967PP      PP29071  13.402   7.963   1.423  0.1308  0.0576 -0.0997
18968PP      PP29072  13.984   1.836  13.086  0.0485 -0.0610  0.0292
18969PP      PP29073   2.111   6.221   9.116 -0.2155 -0.1620 -0.0444
18970PP      PP29074   0.756  12.651   1.929 -0.0625  0.0143  0.0325
18971PP      PP29075  13.002   7.206   0.152 -0.4100 -0.0381 -0.0171
18972PP      PP29076  14.196   2.380   1.248  0.1732 -0.1265  0.1374
18973PP      PP29077   2.473   1.634  12.142  0.2168 -0.2104 -0.3778
18974PP      PP29078   2.518   0.272  10.694  0.1726 -0.2347 -0.1003
18975PP      PP29079   1.945  11.324   8.250 -0.0613  0.0028  0.0989
18976PP      PP29080  10.714   7.016   1.574 -0.1284 -0.1461  0.0914
18977PP      PP29081   7.677   9.692  11.097  0.3058  0.0413  0.0128
18978PP      PP29082   3.311  10.645   8.943  0.1467 -0.0750 -0.1273
18979PP      PP29083  10.728  11.675  12.522 -0.1908 -0.0441 -0.1554
18980PP      PP29084   8.436   1.365   1.570  0.0704 -0.0575  0.0883
18981PP      PP29085   0.520  15.837  10.103  0.0535 -0.2612 -0.1272
18982PP      PP29086  11.574  10.162   0.798 -0.3677 -0.0590  0.0025
18983PP      PP29087   1.872  11.507  11.365 -0.0518 -0.0910  0.0750
18984PP      PP29088  12.560   0.369  11.499  0.1589 -0.1611 -0.0147
18985PP      PP29089   8.416   9.237   2.555  0.4468 -0.2445 -0.2735
18986PP      PP29090   7.732   7.854   1.811  0.4436 -0.1790  0.0734
18987PP      PP29091   6.115   9.629   3.838  0.0191  0.0935  0.0217
18988PP      PP29092   6.487   5.286   9.260 -0.5187  0.0921  0.0084
18989PP      PP29093  12.848  11.828   3.057  0.1862  0.1875  0.0247
18990PP      PP29094  15.701   7.193   9.556 -0.0821  0.0682 -0.0721
18991PP      PP29095   4.123   7.161   4.255  0.3826 -0.0774  0.0782
18992PP      PP29096   4.529   0.285   1.060 -0.2809  0.2470 -0.1914
18993PP      PP29097   2.580  10.060   1.656  0.0208 -0.1720 -0.2884
18994PP      PP29098   3.887  11.447  11.548  0.0616  0.1554 -0.0022
18995PP      PP29099  12.829   0.466   4.861  0.0790  0.1713  0.0708
18996PP      PP29100  11.590   3.141   0.904 -0.1106 -0.0399  0.1166
18997PP      PP29101   1.063   0.578  10.544  0.0419  0.1803 -0.0110
18998PP      PP29102   4.474   9.782  11.345  0.1506  0.1794 -0.1639
18999PP      PP29103   9.748   7.293   9.257  0.3954  0.1650  0.0218
19000PP      PP29104  10.052   7.099  11.753 -0.3509  0.1782  0.0976
19001PP      PP29105   9.791   9.703   2.184 -0.3278  0.1279  0.1263
19002PP      PP29106  15.716   4.415   8.646 -0.0882 -0.1720 -0.1669
19003PP      PP29107   0.220   7.005   0.076 -0.0018 -0.0150  0.0012
19004PP      PP29108  12.818   7.202  11.270 -0.1954  0.0127 -0.1004
19005PP      PP29109  14.011   1.316   3.265 -0.3096 -0.1495  0.2407
19006PP      PP29110   7.760  15.776   3.005  0.2279 -0.0121 -0.1393
19007PP      PP29111   6.877  12.271   4.581 -0.0253  0.0373  0.0656
19008PP      PP29112   2.842   5.978  13.442 -0.1811 -0.0907  0.1967
19009PP      PP29113   2.790  15.066   4.816  0.1065  0.3524 -0.2193
19010PP      PP29114   7.305  11.343   3.036 -0.0686 -0.1181  0.0673
19011PP      PP29115   0.133   8.477  12.742 -0.1590 -0.1439  0.0793
19012PP      PP29116   7.590  13.134   3.118  0.3251 -0.3012 -0.1655
19013PP      PP29117   4.878   7.544   9.300  0.0403 -0.0523 -0.2565
19014PP      PP29118  13.824   4.743   4.444  0.0721 -0.0745  0.0440
19015PP      PP29119  15.456   0.146  11.015  0.0417 -0.2039  0.2854
19016PP      PP29120   9.432   7.759  11.169  0.0281 -0.1714 -0.1080
19017PP      PP29121  10.653  15.829   3.291 -0.0072  0.0526 -0.1046
19018PP      PP29122   0.183   7.685   3.831  0.2897 -0.0135  0.2146
19019PP      PP29123   2.265  14.943  13.247  0.0225 -0.0235 -0.1228
19020PP      PP29124  11.308   4.001   3.363 -0.0647 -0.1484  0.1160
19021PP      PP29125   1.197   8.284   0.958 -0.1982  0.2896 -0.1782
19022PP      PP29126   1.715  14.150  11.965 -0.4085 -0.1764 -0.0176
19023PP      PP29127  10.771   4.041   0.988 -0.0016 -0.0602  0.1845
19024PP      PP29128  13.105  15.406   2.372 -0.0448  0.3359  0.3012
19025PP      PP29129   9.076   8.198   2.237 -0.1313 -0.3751  0.1069
19026PP      PP29130   3.537   7.272  10.724 -0.1808  0.1734  0.0019
19027PP      PP29131  10.788   7.280   8.234 -0.1844  0.1465 -0.1155
19028PP      PP29132  12.127   7.202   9.853 -0.1065  0.0284  0.1331
19029PP      PP29133   9.493   6.009   4.015 -0.0210 -0.2997 -0.1883
19030PP      PP29134   0.439   2.914   8.892  0.1011  0.2248 -0.3050
19031PP      PP29135  11.843   6.545   2.203 -0.1701 -0.0812 -0.1564
19032PP      PP29136  11.787   3.103  12.933 -0.4082 -0.0397  0.1290
19033PP      PP29137  14.725   7.872   2.760 -0.0376 -0.0825 -0.1329
19034PP      PP29138   0.939   4.420   2.485 -0.0836 -0.3425 -0.0923
19035PP      PP29139   8.196   8.705   1.459 -0.2604  0.1066  0.3322
19036PP      PP29140   7.358   8.052  13.437 -0.0729  0.1557 -0.0840
19037PP      PP29141  11.931  11.840   0.174  0.0348  0.0508  0.2209
19038PP      PP29142  15.146   5.295  12.525 -0.3359 -0.1358 -0.0469
19039PP      PP29143   4.240  14.715  13.530 -0.2845  0.2123  0.1091
19040PP      PP29144   3.093   7.720   3.351  0.0328 -0.1075 -0.1323
19041PP      PP29145   4.708  12.558   0.043  0.0001  0.0617  0.1844
19042PP      PP29146  11.395  15.596  11.198  0.0884 -0.2944  0.1582
19043PP      PP29147  13.969  12.104  10.083 -0.2345 -0.2460  0.2994
19044PP      PP29148  14.008   6.134   3.291 -0.1897 -0.0187 -0.0306
19045PP      PP29149  15.061   9.310  13.244  0.0060 -0.0652  0.1651
19046PP      PP29150   2.094   3.750  11.393  0.0019 -0.0015 -0.0226
19047PP      PP29151  13.499   3.829   3.067 -0.1777  0.2168  0.0332
19048PP      PP29152   0.954   0.340   2.876 -0.2808 -0.2435  0.0457
19049PP      PP29153   9.276  13.337   3.454  0.3435 -0.2281  0.3018
19050PP      PP29154   6.729   6.916  13.295  0.1059 -0.1840  0.1755
19051PP      PP29155   0.185   1.328   9.380  0.1464  0.0967  0.2333
19052PP      PP29156  12.898   7.087  11.881  0.3629  0.3034  0.0044
19053PP      PP29157   8.310   5.165  10.391 -0.2135  0.2109  0.5340
19054PP      PP29158  10.403  12.680  12.378 -0.0805  0.3153 -0.1051
19055PP      PP29159   2.467  10.953   8.090  0.0697 -0.0008 -0.0198
19056PP      PP29160  13.480   8.557   9.643 -0.0345 -0.3887 -0.0978
19057PP      PP29161  15.152   3.325  11.103  0.0622  0.2685 -0.1360
19058PP      PP29162   7.404  10.349   2.245 -0.2440 -0.0286 -0.1853
19059PP      PP29163  10.862   6.519   1.289 -0.1463  0.1645  0.1636
19060PP      PP29164   3.739  12.273   3.998 -0.2552  0.0937 -0.0174
19061PP      PP29165  13.169   3.344  12.394 -0.0297 -0.0169  0.0091
19062PP      PP29166   2.332  15.321   4.206 -0.1901 -0.0715 -0.0938
19063PP      PP29167   1.256   4.073   9.675  0.0945  0.1424  0.2075
19064PP      PP29168   0.003   0.108   1.533 -0.2829  0.0676  0.1469
19065PP      PP29169   6.000  12.928   0.396 -0.1207 -0.0259 -0.2097
19066PP      PP29170  12.376   0.075  12.745  0.3682 -0.1296  0.1859
19067PP      PP29171  11.610  14.515  12.924  0.0245 -0.1697 -0.1711
19068PP      PP29172   7.183   2.863   9.958  0.2129  0.0449 -0.1137
19069PP      PP29173  15.362  12.235  10.544 -0.0835 -0.3045  0.2381
19070PP      PP29174  15.430  15.020   1.088  0.2417  0.0147  0.1033
19071PP      PP29175  12.571   9.206   1.437  0.1602  0.1904 -0.0453
19072PP      PP29176   9.832   8.332  10.174 -0.1626  0.1215 -0.0937
19073PP      PP29177  14.846   7.578   1.428 -0.0293 -0.4762 -0.0751
19074PP      PP29178   5.169  11.119   2.084 -0.1782  0.1118 -0.0216
19075PP      PP29179   9.128   5.232  10.079 -0.2037  0.0773  0.2786
19076PP      PP29180  12.214   1.952  13.178 -0.2477  0.2196 -0.1113
19077PP      PP29181   1.495   2.662   9.186 -0.1838 -0.1783 -0.0127
19078PP      PP29182  12.161   0.414   0.432  0.3332  0.0450 -0.1487
19079PP      PP29183   3.623   2.013   4.358 -0.0349 -0.1086 -0.0952
19080PP      PP29184   0.837   6.994   0.965 -0.1589 -0.2607 -0.2370
19081PP      PP29185   7.905   9.711  11.783 -0.0961 -0.1853  0.1360
19082PP      PP29186  15.079   4.188  13.352  0.0369  0.2374 -0.2131
19083PP      PP29187   6.540   2.236   3.966  0.2314 -0.0419  0.3049
19084PP      PP29188  11.463   8.778  10.011 -0.2720 -0.0659 -0.1422
19085PP      PP29189  15.681  15.754   4.902  0.0409  0.3269  0.0976
19086PP      PP29190   0.745   2.506   5.068 -0.0092 -0.1361  0.0462
19087PP      PP29191  14.876   2.372   0.221  0.2341 -0.4010 -0.3297
19088PP      PP29192   7.536   6.961   3.930 -0.3787 -0.0946  0.0800
19089PP      PP29193  15.294   6.158  10.738 -0.2111  0.2719 -0.2119
19090PP      PP29194   6.348   6.314  11.728  0.2981  0.0546  0.0413
19091PP      PP29195   2.639  10.933  12.053  0.1313 -0.0456  0.1237
19092PP      PP29196   0.543   6.105  10.804  0.1255 -0.0319  0.2099
19093PP      PP29197  11.162  14.938   0.053  0.0868  0.2828  0.4345
19094PP      PP29198  11.503  13.796  12.771  0.0492  0.2858  0.0185
19095PP      PP29199   1.481   3.043   4.437  0.0567  0.1532  0.0561
19096PP      PP29200   9.574   9.292   9.115  0.2543  0.1818  0.0155
19097PP      PP29201   8.283   1.074  13.126  0.1644 -0.2343 -0.3265
19098PP      PP29202  10.897  13.181   4.691 -0.0289 -0.0027 -0.3049
19099PP      PP29203   6.708  12.049   0.702  0.2327 -0.0206  0.1237
19100PP      PP29204   9.710   3.653  12.121  0.2013 -0.2126  0.3459
19101PP      PP29205   0.418   9.452  12.310 -0.2183  0.2145 -0.1767
19102PP      PP29206   7.820   7.240   9.351  0.2713  0.0334 -0.2006
19103PP      PP29207   5.592   6.396   4.054 -0.0795  0.1119 -0.2293
19104PP      PP29208   9.667   8.823   1.158  0.2010 -0.0202 -0.0366
19105PP      PP29209   9.464   6.520   1.375 -0.0242  0.0227  0.0344
19106PP      PP29210  12.575   3.183  10.916 -0.1718 -0.3351  0.3135
19107PP      PP29211   2.214   4.023  12.915 -0.0809  0.1556  0.0495
19108PP      PP29212   2.757   3.480   4.069 -0.1251 -0.1625  0.0267
19109PP      PP29213   9.392  14.053   1.554 -0.1205  0.2756 -0.1895
19110PP      PP29214  12.882   5.645   0.967 -0.2613 -0.2262 -0.0793
19111PP      PP29215   1.203   4.508   2.052 -0.0759  0.1716  0.1904
19112PP      PP29216  11.461  12.051  11.424  0.0462 -0.0972 -0.2164
19113PP      PP29217   4.495   6.037  10.354  0.0875  0.1989  0.1228
19114PP      PP29218   0.791  12.654  13.010 -0.2778  0.2001 -0.0007
19115PP      PP29219   6.711   7.317   3.088  0.0948  0.1543  0.0738
19116PP      PP29220   2.329   6.854  13.309 -0.1220  0.1228 -0.4778
19117PP      PP29221   1.442   6.978   3.245  0.3906 -0.3061  0.1523
19118PP      PP29222   4.223  14.750  11.027  0.1333  0.1277  0.0196
19119PP      PP29223   0.727   4.622   2.064  0.0056 -0.1305  0.3385
19120PP      PP29224   0.079   5.681   2.545  0.3936  0.2166 -0.1883
19121PP      PP29225   3.743  10.001  13.214 -0.1060 -0.1494  0.2934
19122PP      PP29226   3.434  12.045  10.576 -0.0359 -0.0497 -0.0830
19123PP      PP29227   1.406  13.247   0.078 -0.1816  0.1773 -0.3799
19124PP      PP29228   8.519   7.685  12.860 -0.2820  0.4723 -0.2091
19125PP      PP29229   5.765   1.581   0.779 -0.0824 -0.1047  0.1131
19126PP      PP29230   0.529   7.890  13.435 -0.0334  0.3040  0.3559
19127PP      PP29231  10.733  15.110  10.112 -0.0011 -0.1315 -0.3626
19128PP      PP29232  15.339  13.922  13.136 -0.1689 -0.2405 -0.2691
19129PP      PP29233  14.781  12.844   9.841 -0.1516 -0.0120 -0.3416
19130PP      PP29234   1.985   6.778   9.339 -0.2349  0.1515 -0.0620
19131PP      PP29235   7.631   3.665   0.920  0.0952 -0.1092 -0.1640
19132PP      PP29236  14.003  12.068   8.682  0.1045 -0.1076 -0.0341
19133PP      PP29237  15.542  11.656  12.179 -0.0952 -0.1991  0.0365
19134PP      PP29238   4.712   5.038   3.432 -0.1211  0.0189 -0.0733
19135PP      PP29239   5.902   8.187  10.503  0.1140 -0.1381  0.0225
19136PP      PP29240  10.710   8.358  11.478  0.0021  0.1480 -0.1511
19137PP      PP29241   9.184   8.041   8.681 -0.0917  0.2708  0.0285
19138PP      PP29242  11.922   0.934   3.006 -0.0400  0.0603  0.0274
19139PP      PP29243   5.879  14.037   1.918 -0.2223 -0.1035 -0.1748
19140PP      PP29244  10.740  12.080   4.220 -0.0062 -0.2428 -0.2619
19141PP      PP29245  13.878  13.039   4.117  0.0186 -0.0739 -0.3893
19142PP      PP29246   5.545  10.598   4.487 -0.0438  0.0062  0.2029
19143PP      PP29247   7.993   5.160   1.333  0.0365  0.2901  0.0661
19144PP      PP29248   3.934  15.494   0.211 -0.3123  0.0284  0.4483
19145PP      PP29249  15.792  15.306  13.204  0.0581 -0.1470  0.1017
19146PP      PP29250  12.293   7.450  12.180  0.0576 -0.0451  0.0890
19147PP      PP29251  15.579  11.250   4.286  0.1932 -0.0739  0.5565
19148PP      PP29252   5.480   8.614  12.123 -0.2175  0.3015 -0.3046
19149PP      PP29253   4.231   1.426   1.404 -0.0080  0.4139  0.0750
19150PP      PP29254   4.415   1.852  13.385  0.1440 -0.2389  0.1392
19151PP      PP29255   8.486   3.578   0.127  0.3794 -0.0582  0.2923
19152PP      PP29256   9.072  14.252   4.893  0.4163  0.0080  0.1305
19153PP      PP29257  12.227  13.774   2.100 -0.0893 -0.0555  0.2801
19154PP      PP29258  15.810   8.204   8.689 -0.0117  0.4850  0.1046
19155PP      PP29259   9.943   9.399  11.713  0.0818  0.0871  0.4808
19156PP      PP29260   4.822  14.763   1.975 -0.0233  0.0006  0.0008
19157PP      PP29261   9.965   1.981  10.927  0.0115  0.0474  0.2816
19158PP      PP29262   4.179   0.875  13.495 -0.0855  0.2756  0.1240
19159PP      PP29263   8.155   1.692  13.498 -0.1071 -0.2672 -0.0857
19160PP      PP29264   6.184  13.951   0.149  0.0383  0.1782  0.0230
19161PP      PP29265   7.889   6.155   1.623  0.0129 -0.1818 -0.0647
19162PP      PP29266   4.867  11.942   8.897 -0.0451  0.1142 -0.1524
19163PP      PP29267  13.985   7.618   3.042  0.0725 -0.0566  0.1257
19164PP      PP29268  11.472   9.420   1.385 -0.3295  0.0488  0.0364
19165PP      PP29269  15.132  15.673   2.565 -0.0790  0.1716  0.0347
19166PP      PP29270   5.960  14.729  11.906 -0.0308  0.2821  0.0415
19167PP      PP29271   8.406   7.255   0.950 -0.1168 -0.0002  0.2159
19168PP      PP29272  11.753   1.109   1.378 -0.0176 -0.1362 -0.1126
19169PP      PP29273   7.142  14.801   5.325  0.1257  0.0131  0.0551
19170PP      PP29274  14.305   6.909  13.025  0.4201 -0.0751  0.1696
19171PP      PP29275  13.586   5.173  10.809 -0.1689  0.0030 -0.0676
19172PP      PP29276  10.826   0.636   9.642 -0.1828 -0.0782  0.0149
19173PP      PP29277   3.589   0.593  11.891 -0.0871  0.1796 -0.0191
19174PP      PP29278   0.588  13.649   1.207  0.2157  0.2696 -0.2798
19175PP      PP29279   9.561   3.533  11.590 -0.0178 -0.1944 -0.3881
19176PP      PP29280  14.741   4.221   9.628  0.1155  0.0190 -0.1409
19177PP      PP29281   5.214  14.837   3.488 -0.0674  0.2118 -0.0044
19178PP      PP29282   4.837   4.964   1.923 -0.2327 -0.0999 -0.0695
19179PP      PP29283   5.229  13.493  10.421 -0.2445 -0.0135 -0.1029
19180PP      PP29284  12.385  13.092   1.594  0.3166  0.1563 -0.1874
19181PP      PP29285   4.562   1.032  11.061 -0.0449 -0.1482  0.1831
19182PP      PP29286   5.125   0.518  12.658 -0.0294  0.0932 -0.0192
19183PP      PP29287   0.236   4.606  10.749 -0.1636 -0.2023 -0.1935
19184PP      PP29288  13.220   6.882   2.559 -0.0128 -0.0654 -0.0714
19185PP      PP29289  11.456  12.657   1.897 -0.1738  0.0852 -0.1659
19186PP      PP29290   5.981   9.610   9.276 -0.2080 -0.1055 -0.1046
19187PP      PP29291  12.725  10.802  10.222  0.0170 -0.3381  0.0560
19188PP      PP29292  11.844  12.453   3.886  0.0851 -0.0725 -0.1494
19189PP      PP29293   4.063  11.912   8.488 -0.0057 -0.0558 -0.1014
19190PP      PP29294  14.365   9.796  10.693  0.3532  0.0857  0.1081
19191PP      PP29295  11.610   5.678  10.629  0.1669 -0.1882 -0.2526
19192PP      PP29296  13.910  15.117  11.146 -0.0235 -0.0158  0.1575
19193PP      PP29297   8.848   7.345  10.410 -0.0406  0.0301 -0.1216
19194PP      PP29298  10.191  13.347   2.510  0.2114  0.1619 -0.0781
19195PP      PP29299   6.880   1.247   1.150  0.2490  0.0905 -0.1835
19196PP      PP29300   4.625   4.179   3.723 -0.1744  0.2439 -0.1968
19197PP      PP29301  13.216  15.237   1.351 -0.1288  0.3892 -0.0043
19198PP      PP29302   4.597  12.984   4.208 -0.2012  0.0498  0.1077
19199PP      PP29303   5.619   3.713  11.419  0.1068 -0.0372 -0.1636
19200PP      PP29304   0.880   4.704   8.782 -0.2506  0.1596  0.2366
19201PP      PP29305  11.441  10.929   4.024 -0.0553  0.2653 -0.0155
19202PP      PP29306   4.496   1.306   9.567  0.2224  0.0748 -0.0650
19203PP      PP29307   4.448   6.047   3.200  0.1703 -0.5635  0.1219
19204PP      PP29308   1.542  12.165   3.719  0.2756  0.0296  0.2829
19205PP      PP29309  12.638  11.231  11.396 -0.0804  0.1855  0.2590
19206PP      PP29310   2.610   7.706  12.079 -0.0282  0.1309  0.2351
19207PP      PP29311  14.683  13.187   9.334 -0.2347 -0.2097 -0.1089
19208PP      PP29312   2.879  13.153   0.920 -0.4089 -0.4573 -0.0795
19209PP      PP29313   3.501  15.494   3.958 -0.1866  0.1620 -0.1797
19210PP      PP29314  14.281  10.674   1.313 -0.2095  0.2821 -0.0277
19211PP      PP29315   6.028   8.753  11.783  0.0188 -0.0619  0.0582
19212PP      PP29316   4.059  13.029   0.541  0.0745  0.0122  0.1155
19213PP      PP29317   1.171   4.513   9.241 -0.0989  0.1108 -0.2464
19214PP      PP29318   8.323   9.257  10.008  0.0635  0.0763  0.2190
19215PP      PP29319  12.242   9.026   9.407 -0.2410 -0.1394 -0.1770
19216PP      PP29320   0.601   3.364   9.353  0.1756  0.2350 -0.1008
19217PP      PP29321  14.576   3.440   3.578 -0.1420 -0.0957 -0.1427
19218PP      PP29322   0.671   2.422   2.347  0.0839  0.1275  0.0653
19219PP      PP29323   4.774  15.238   5.019 -0.3304  0.1929  0.3373
19220PP      PP29324   8.902   4.132   9.083 -0.0264 -0.0647  0.0305
19221PP      PP29325   6.991   5.060   0.791 -0.2097  0.3034  0.0047
19222PP      PP29326  10.428   7.531  11.741  0.3028  0.0932  0.1588
19223PP      PP29327  12.198   2.453  10.780 -0.0834  0.1601 -0.0314
19224PP      PP29328   0.197   1.954   2.956  0.0364  0.0875  0.1421
19225PP      PP29329   1.728   0.807  13.397 -0.2053 -0.0548  0.3321
19226PP      PP29330   5.221   7.697   1.752 -0.0929  0.0241 -0.1012
19227PP      PP29331   9.035   5.745   2.165  0.0220 -0.0376 -0.0612
19228PP      PP29332   2.756  15.118   1.229 -0.2320 -0.2787 -0.2913
19229PP      PP29333   5.535   9.560   0.540  0.0648  0.2393 -0.0118
19230PP      PP29334  15.013  11.618  10.929 -0.0795  0.0031 -0.0488
19231PP      PP29335  14.962   3.045  12.071  0.0347  0.0766 -0.1975
19232PP      PP29336   4.635   4.496  11.385  0.2680 -0.2227 -0.1251
19233PP      PP29337   6.715   0.551  10.347 -0.3074 -0.2629  0.1555
19234PP      PP29338   5.343  15.341  13.296 -0.1711  0.0848  0.0950
19235PP      PP29339  15.821  14.759   4.617 -0.2236  0.1603  0.0968
19236PP      PP29340   0.992   0.832  10.113  0.0294  0.0115  0.0351
19237PP      PP29341   9.416  15.011  10.202  0.1320 -0.0078 -0.2020
19238PP      PP29342   0.441  14.138  12.770  0.0488 -0.1483  0.0280
19239PP      PP29343   4.288   7.625   0.408  0.1691 -0.0961  0.2013
19240PP      PP29344   6.915   9.849   3.022  0.0668 -0.1895  0.1067
19241PP      PP29345  13.284   6.024  12.838  0.0997  0.1323  0.0041
19242PP      PP29346  11.651   2.078   9.411  0.1820 -0.0090 -0.1970
19243PP      PP29347   0.849  10.078  10.513 -0.1552 -0.3809  0.0516
19244PP      PP29348  11.943   2.903  11.980  0.0753 -0.1415  0.1042
19245PP      PP29349   0.120  12.254   3.131 -0.0180  0.0002  0.2501
19246PP      PP29350  11.514   6.316   9.271  0.0303  0.0359 -0.0457
19247PP      PP29351   8.058   1.325   3.914 -0.0637 -0.2240 -0.1804
19248PP      PP29352  13.232   6.106  11.851  0.1231  0.2322 -0.1200
19249PP      PP29353   1.638  14.891   2.161 -0.3222  0.0552  0.1832
19250PP      PP29354  13.118  12.036   1.119  0.1084  0.0906  0.2140
19251PP      PP29355   4.152   0.924   2.756  0.1167 -0.1150 -0.0164
19252PP      PP29356   9.300  13.116   1.617  0.0472 -0.2370 -0.1774
19253PP      PP29357   8.513  11.011  10.833  0.3272  0.1799  0.1762
19254PP      PP29358   4.873   7.647   1.420  0.1642  0.0982  0.1054
19255PP      PP29359   5.996  12.545   2.625 -0.0230  0.0287 -0.0070
19256PP      PP29360  12.624  11.383   9.508  0.0774 -0.4214 -0.1717
19257PP      PP29361   8.610   5.294   9.875 -0.0713 -0.2165  0.0485
19258PP      PP29362   9.847   7.737   1.474  0.0599  0.1500 -0.0730
19259PP      PP29363   6.225  13.418   4.171  0.1291 -0.1660  0.0833
19260PP      PP29364   1.426   6.091  11.301  0.1236 -0.1808 -0.4586
19261PP      PP29365   3.342  14.879   1.982  0.0797  0.0832 -0.0937
19262PP      PP29366   7.119   7.041   4.235 -0.0723 -0.0569 -0.3587
19263PP      PP29367   0.916   0.617   0.332 -0.1099  0.1100  0.0532
19264PP      PP29368   3.971   0.072   1.438  0.3505 -0.1305 -0.0457
19265PP      PP29369  10.637   4.557  11.893 -0.3485 -0.0042  0.0464
19266PP      PP29370   9.043   5.450  11.502  0.1100 -0.2106 -0.3117
19267PP      PP29371   8.575  13.830  13.310  0.0611 -0.1187 -0.0152
19268PP      PP29372   5.347  11.755  11.754 -0.2003 -0.1007 -0.0339
19269PP      PP29373   1.555  10.247   9.482  0.2295  0.1530 -0.1990
19270PP      PP29374   1.562   1.558   9.274  0.1564  0.1446 -0.0777
19271PP      PP29375   3.902   5.681   0.410  0.0527 -0.2946  0.1336
19272PP      PP29376   5.621   0.105   0.612  0.4224 -0.2931  0.1190
19273PP      PP29377   0.421  15.450  11.060 -0.1472 -0.0558 -0.1855
19274PP      PP29378   1.328  14.903   0.661 -0.0961  0.1261  0.0087
19275PP      PP29379  14.709   3.377   0.246  0.1943  0.1014 -0.0793
19276PP      PP29380   3.902   7.612   9.591 -0.1966 -0.0726  0.2010
19277PP      PP29381  11.945   8.042  11.386 -0.0547 -0.1796  0.0348
19278PP      PP29382   9.936   0.772   5.086  0.2527  0.1437  0.1576
19279PP      PP29383   4.794   4.440   0.345  0.0415  0.1050  0.1304
19280PP      PP29384  14.662   4.274   0.158 -0.3238  0.2337  0.3172
19281PP      PP29385  12.833   5.326   0.590 -0.1544  0.3504 -0.4394
19282PP      PP29386  13.348  10.314  13.525  0.4243 -0.1756  0.2101
19283PP      PP29387  11.784  13.312   9.725  0.1117  0.0447 -0.0665
19284PP      PP29388  11.224   8.865   4.317  0.0407 -0.2416 -0.1825
19285PP      PP29389   3.067   5.933   8.616  0.3145  0.1933  0.1488
19286PP      PP29390   9.349   3.744   3.351  0.0636 -0.2706 -0.2269
19287PP      PP29391   2.973   8.798   3.914  0.1456  0.1940  0.0843
19288PP      PP29392  10.643   9.863  12.190 -0.0236 -0.2177  0.0859
19289PP      PP29393   6.014   5.016  12.085 -0.3390 -0.0328 -0.1084
19290PP      PP29394   7.735   2.007  13.460 -0.2174 -0.0299 -0.4101
19291PP      PP29395   0.677   9.623   9.595 -0.0439 -0.3974 -0.1829
19292PP      PP29396  11.314   3.029  13.031  0.0865 -0.1345 -0.0428
19293PP      PP29397   6.986  15.152  12.386 -0.0158 -0.0240 -0.1106
19294PP      PP29398  13.563  12.465  10.857 -0.2229 -0.0128 -0.0705
19295PP      PP29399  15.334  10.864  10.256 -0.1489 -0.0561 -0.3587
19296PP      PP29400   2.265   2.298  11.672 -0.1609  0.1875  0.0493
19297PP      PP29401   2.116   1.729   8.606 -0.2228  0.0451 -0.3159
19298PP      PP29402  12.314   6.305   3.234 -0.2971 -0.2791 -0.2446
19299PP      PP29403  10.903   6.118  10.352  0.0362 -0.3125 -0.1979
19300PP      PP29404   8.754   0.316   0.575 -0.0265 -0.1058  0.2657
19301PP      PP29405  15.016   5.183   4.243 -0.0027  0.1377 -0.0395
19302PP      PP29406  13.157   3.476   3.993  0.3874  0.1668  0.1214
19303PP      PP29407   2.887  11.102  10.890  0.1065  0.0619 -0.1081
19304PP      PP29408  11.642  13.568   3.701 -0.2007 -0.2571  0.0790
19305PP      PP29409   2.676   6.714  10.742 -0.0966 -0.2607  0.1523
19306PP      PP29410   8.490  12.248  11.831  0.0616 -0.2181 -0.0240
19307PP      PP29411   1.327  10.601  12.244 -0.1670 -0.1101  0.2496
19308PP      PP29412   1.138  14.555   3.520  0.0059 -0.0739 -0.1478
19309PP      PP29413   4.606  13.663   2.933 -0.2240  0.0280  0.1832
19310PP      PP29414   4.239  13.506  12.637 -0.1047  0.3185  0.1897
19311PP      PP29415   1.897   0.819   2.090  0.2021  0.1193  0.0920
19312PP      PP29416  10.426  14.737   2.256 -0.0848  0.0602 -0.0512
19313PP      PP29417   4.793   0.175   9.939  0.1119  0.1432 -0.0641
19314PP      PP29418   8.876  12.059   1.255  0.1916  0.0480  0.1221
19315PP      PP29419   0.766   9.170  10.215  0.0586 -0.2477 -0.0937
19316PP      PP29420   7.281   4.570   2.693  0.1420  0.2575 -0.0996
19317PP      PP29421   4.590   7.348  13.505 -0.0415 -0.1123  0.3021
19318PP      PP29422  11.618   6.805   8.366 -0.1869 -0.1711  0.2293
19319PP      PP29423  10.047  10.109   2.383  0.1701 -0.1467 -0.2041
19320PP      PP29424  15.264  12.853   8.897 -0.3884 -0.0664 -0.1660
19321PP      PP29425   9.568  12.152   4.148  0.3826 -0.0950  0.2876
19322PP      PP29426  10.250   4.580  12.374  0.1028 -0.1258  0.1105
19323PP      PP29427  10.305   0.256   5.051 -0.1804  0.1726  0.1249
19324PP      PP29428   7.658  12.640  11.911  0.1039 -0.0624 -0.0977
19325PP      PP29429  12.973  12.579  10.090  0.1532 -0.0431  0.0359
19326PP      PP29430   7.146  11.111   4.071  0.0104  0.0000  0.1592
19327PP      PP29431   8.476   3.789   1.519  0.0865 -0.2603  0.3238
19328PP      PP29432  15.118   8.824   1.159 -0.3904 -0.2634  0.2132
19329PP      PP29433   2.908   6.048   4.114  0.1227  0.0542 -0.0793
19330PP      PP29434   1.620   4.064   8.924 -0.1985  0.1274  0.1061
19331PP      PP29435  10.943  11.481   1.959  0.0812 -0.0216 -0.1227
19332PP      PP29436   5.793   1.096   0.973 -0.0778 -0.1227  0.1190
19333PP      PP29437   5.293  12.132   1.245 -0.0002 -0.0443  0.5000
19334PP      PP29438  14.867   1.490  10.829  0.5274 -0.1964 -0.1124
19335PP      PP29439   9.316   9.659  13.522  0.1971  0.2790  0.1315
19336PP      PP29440   5.382   7.091   0.978  0.4714  0.5484  0.3687
19337PP      PP29441  11.778  11.470   0.512 -0.0107 -0.1777 -0.2766
19338PP      PP29442  14.974   9.327   8.899 -0.1661 -0.0765  0.2515
19339PP      PP29443   3.255   4.759  11.353 -0.1274  0.3164  0.1819
19340PP      PP29444  10.152   7.523  10.059 -0.0961 -0.1841  0.0090
19341PP      PP29445  11.701   8.899   2.863 -0.1384  0.2483  0.1703
19342PP      PP29446   9.354  10.452   2.661 -0.1788  0.2666  0.1390
19343PP      PP29447  11.748   2.076   0.824  0.1693 -0.0888 -0.2356
19344PP      PP29448   6.500   9.644  11.016  0.2983  0.0069  0.3761
19345PP      PP29449   2.116   6.767   0.327 -0.0686 -0.1943 -0.2499
19346PP      PP29450   8.897  12.718   3.010  0.0084 -0.1250  0.0550
19347PP      PP29451   0.342  10.440  13.176  0.0646  0.2082  0.0592
19348PP      PP29452   8.464  10.226   3.353 -0.2163 -0.0926  0.2545
19349PP      PP29453   4.885   6.254   3.483 -0.0927 -0.3535 -0.0620
19350PP      PP29454  10.429  13.571   1.268  0.2447  0.1959 -0.0851
19351PP      PP29455   2.772   2.015   4.503  0.3864  0.0678 -0.3047
19352PP      PP29456  14.830   9.107   1.474  0.0873 -0.1642  0.3036
19353PP      PP29457   3.945   4.114  12.185  0.0209  0.1708 -0.0978
19354PP      PP29458   9.661   7.345   0.677 -0.0386  0.0703  0.0694
19355PP      PP29459   3.313   4.845   2.898  0.1425 -0.0439  0.1533
19356PP      PP29460  12.818  10.345  10.046  0.0638  0.1360  0.0129
19357PP      PP29461   0.014   9.625  10.589  0.0851 -0.1996  0.2416
19358PP      PP29462  12.377  15.525  10.926  0.0993 -0.0376  0.0661
19359PP      PP29463   5.351   9.531   4.762  0.2050 -0.3242 -0.4431
19360PP      PP29464   3.713   4.067  10.222  0.0655  0.1443  0.2469
19361PP      PP29465  14.205   0.496   9.762  0.0583 -0.2253  0.0356
19362PP      PP29466   4.337   4.634   0.562 -0.0228  0.0381 -0.1151
19363PP      PP29467  14.999   0.173  10.766  0.2039  0.1034  0.2389
19364PP      PP29468   8.299   0.850  10.807  0.1438  0.3777 -0.0624
19365PP      PP29469   8.884  13.318   9.686 -0.1288 -0.0066 -0.0268
19366PP      PP29470   6.469  13.849  12.394  0.0472 -0.0319 -0.2079
19367PP      PP29471  14.466  15.604   1.598  0.2668  0.0564  0.0912
19368PP      PP29472   4.352   9.017  13.488  0.0348 -0.2290  0.0784
19369PP      PP29473  13.916  13.065   0.964 -0.1628 -0.0821 -0.1827
19370PP      PP29474  12.964   7.634  11.774 -0.2120 -0.1194  0.2118
19371PP      PP29475  13.139   8.301   8.772 -0.1265 -0.1582  0.2487
19372PP      PP29476   8.820  13.059   1.520 -0.1341 -0.0011 -0.1306
19373PP      PP29477   0.021   0.368  11.851 -0.1675  0.0891  0.0462
19374PP      PP29478   1.612   2.261   0.858 -0.1437 -0.0930 -0.1840
19375PP      PP29479   9.799   7.245   1.240 -0.1934  0.0463 -0.6302
19376PP      PP29480  13.797   1.178   9.853  0.1090 -0.2095 -0.0980
19377PP      PP29481   4.170   8.140  13.025  0.0102 -0.2445  0.2769
19378PP      PP29482   3.762  13.818   2.428  0.0296 -0.1155 -0.3135
19379PP      PP29483   5.134  12.208   8.034  0.1130 -0.1816 -0.1531
19380PP      PP29484   2.771   9.638   8.367  0.0758  0.3206  0.1710
19381PP      PP29485   1.996  13.104   2.177 -0.4029 -0.0845 -0.1201
19382PP      PP29486   9.841  10.448  10.560  0.0749  0.1112  0.0743
19383PP      PP29487   3.978   9.865  11.240 -0.2880 -0.0583  0.0502
19384PP      PP29488  11.853  12.545  13.227 -0.2519 -0.0637  0.2435
19385PP      PP29489   7.432  11.252  13.386  0.0180  0.0561  0.0284
19386PP      PP29490   9.685  15.073  10.647  0.3093 -0.3339 -0.2232
19387PP      PP29491   7.334   3.536  11.414 -0.4282 -0.1946  0.1187
19388PP      PP29492  15.412  14.269  10.197  0.0908  0.0252  0.3124
19389PP      PP29493   2.498   2.708   0.922  0.3092  0.0776  0.0477
19390PP      PP29494   6.251  12.051   8.988 -0.0926  0.1115  0.0627
19391PP      PP29495   7.731   7.406  12.521  0.2000 -0.1090  0.0602
19392PP      PP29496   6.499   5.848   0.385  0.2813 -0.1228  0.2679
19393PP      PP29497   7.350  13.504   9.062  0.3221  0.0978  0.0521
19394PP      PP29498   0.230   1.577  12.684  0.3881  0.0864 -0.1302
19395PP      PP29499  14.459   1.038  13.464 -0.1268  0.0543  0.2215
19396PP      PP29500   7.309  13.239  10.152  0.0079 -0.1094 -0.2416
19397PP      PP29501   4.011  15.287   2.570  0.0827  0.1477 -0.0581
19398PP      PP29502   8.808   1.104  12.239  0.1809  0.3016 -0.0786
19399PP      PP29503  13.671   0.943   1.009 -0.1669 -0.3004 -0.0947
19400PP      PP29504   1.203  12.514   3.430 -0.0557  0.2516  0.1165
19401PP      PP29505  12.824  14.275  10.695  0.0882  0.0288 -0.3044
19402PP      PP29506   8.792   0.210  10.875 -0.1512  0.1063  0.2917
19403PP      PP29507   6.907   7.991  11.193 -0.2087 -0.0766 -0.1298
19404PP      PP29508  15.271  14.590  12.193  0.1097  0.0888  0.1710
19405PP      PP29509  12.571   3.065  10.459  0.2963  0.1639 -0.0584
19406PP      PP29510   4.136   6.966  12.343  0.2617 -0.2161 -0.2163
19407PP      PP29511  12.994   4.474  12.528  0.2916  0.0020  0.2790
19408PP      PP29512  11.739   4.627   9.833 -0.1479 -0.1050 -0.4331
19409PP      PP29513   5.666   2.708   9.962  0.0815  0.1651  0.1370
19410PP      PP29514   4.457   5.254   2.655 -0.2653 -0.1424 -0.0992
19411PP      PP29515   1.418  13.638   8.641  0.0513  0.0516 -0.3116
19412PP      PP29516   6.072   9.729  10.709 -0.3291  0.0873  0.0437
19413PP      PP29517   1.250   4.865   2.369  0.0967 -0.2859  0.0274
19414PP      PP29518  15.017   4.132   8.963  0.0994  0.1174 -0.3697
19415PP      PP29519  11.180  15.827   0.085  0.1142 -0.2947 -0.2106
19416PP      PP29520  12.330   9.554   2.570 -0.0611 -0.1602 -0.1189
19417PP      PP29521  15.762   4.007   9.969 -0.1843  0.0973 -0.3595
19418PP      PP29522   4.273  15.842   4.001 -0.1659  0.2173  0.0039
19419PP      PP29523   3.170   5.190   3.250 -0.2484  0.5004  0.1920
19420PP      PP29524  11.695  13.471  10.215 -0.1152  0.0323  0.1561
19421PP      PP29525  10.084  14.277   2.183 -0.4326 -0.0322  0.3114
19422PP      PP29526   8.977   0.171   4.886 -0.1809  0.0042  0.1876
19423PP      PP29527   5.792  11.246  10.898 -0.2483 -0.1658  0.0129
19424PP      PP29528   6.813   9.400  13.231  0.0154 -0.2573 -0.0477
19425PP      PP29529   7.727   9.007   9.072 -0.1897  0.0368 -0.3050
19426PP      PP29530   3.592  12.558  10.536 -0.1823 -0.1168 -0.1011
19427PP      PP29531   5.708   4.072   3.161 -0.0892  0.0182  0.2792
19428PP      PP29532   5.618   2.496   3.958  0.1853 -0.1376 -0.2273
19429PP      PP29533   1.895   9.124   3.900 -0.3020  0.2150  0.0852
19430PP      PP29534   5.812  10.601   3.978  0.1633  0.0454  0.0150
19431PP      PP29535  12.327  10.116  12.747 -0.3266  0.1807  0.0325
19432PP      PP29536  15.845   2.472  11.259 -0.0243  0.1126 -0.1103
19433PP      PP29537  11.921   5.233  10.024  0.0929 -0.0083 -0.5640
19434PP      PP29538   0.224  14.788  11.363  0.0473  0.1665  0.1149
19435PP      PP29539  15.073   8.859   8.535  0.3087 -0.1201 -0.1439
19436PP      PP29540   8.300   0.066   4.091  0.2086 -0.1145  0.2307
19437PP      PP29541   1.598  11.217  10.966  0.2914 -0.0884  0.0257
19438PP      PP29542   5.445   7.311   0.068 -0.3259  0.1346  0.3095
19439PP      PP29543  10.383   5.854  10.168  0.1062 -0.1625  0.2757
19440PP      PP29544  15.198  11.587   9.514  0.1267 -0.1219 -0.0108
19441PP      PP29545   5.769  15.554   0.938 -0.1045 -0.0871 -0.0557
19442PP      PP29546   6.181   1.093   5.042 -0.2374  0.0698  0.0589
19443PP      PP29547   9.180   0.636   9.969 -0.3181  0.1216  0.3057
19444PP      PP29548  13.060  13.613   0.524  0.0102 -0.2540 -0.1402
19445PP      PP29549  10.256  13.877   9.794  0.0639 -0.1803  0.0041
19446PP      PP29550  12.839   7.090   2.962 -0.1812 -0.0418  0.2144
19447PP      PP29551  14.003   8.886  10.754 -0.1105 -0.0156  0.0050
19448PP      PP29552  14.638   5.172   0.622  0.0210 -0.1949 -0.0607
19449PP      PP29553   8.798   5.846   8.965  0.0946 -0.1883 -0.1497
19450PP      PP29554  11.538   3.474   4.261  0.1054  0.1945  0.0097
19451PP      PP29555   2.609   7.692  11.141  0.0794  0.3066  0.1316
19452PP      PP29556  12.660   9.905   1.708  0.0521 -0.0977 -0.3128
19453PP      PP29557   7.807  10.342  13.414  0.0665  0.1080  0.1200
19454PP      PP29558  13.530  11.773   0.002 -0.0521  0.1156 -0.0937
19455PP      PP29559  15.554   3.118  13.385 -0.1079 -0.1366 -0.2030
19456PP      PP29560   8.471   7.497   2.854  0.0096 -0.3801 -0.3800
19457PP      PP29561   3.988  14.468   0.981 -0.1547  0.4013 -0.0497
19458PP      PP29562   5.306  10.333  12.658  0.1579  0.3547  0.1268
19459PP      PP29563   6.758   1.531   4.356 -0.2383  0.0627 -0.1628
19460PP      PP29564   2.717  14.036   1.631  0.0563 -0.4059 -0.0849
19461PP      PP29565   0.791   5.674  13.036  0.1675  0.1533 -0.1162
19462PP      PP29566   1.224   8.316   9.761 -0.1473 -0.0186 -0.0343
19463PP      PP29567   8.002   9.429   3.348 -0.1374  0.0732 -0.1929
19464PP      PP29568   1.351  13.816  11.257  0.1821 -0.4290  0.0334
19465PP      PP29569   0.025   6.640  11.597 -0.0201  0.3667  0.2826
19466PP      PP29570   9.377   8.467   1.379 -0.0257 -0.1732  0.2072
19467PP      PP29571  10.817  13.177   0.403  0.1247 -0.2787  0.0490
19468PP      PP29572  11.101   0.183  12.179  0.0220 -0.2735 -0.1288
19469PP      PP29573   9.852   0.231   3.737  0.0202 -0.2712 -0.0180
19470PP      PP29574   7.213  10.187   1.303  0.0938  0.4199  0.1880
19471PP      PP29575   6.979   7.353  11.236 -0.3116  0.0744 -0.0356
19472PP      PP29576   0.497   6.926  12.869 -0.1024 -0.2964  0.2963
19473PP      PP29577   8.208  12.480   9.978 -0.1772 -0.1546  0.2404
19474PP      PP29578  12.055   4.265  10.255  0.0074 -0.1902 -0.0949
19475PP      PP29579   3.455   9.378   9.309  0.1204 -0.2223 -0.0851
19476PP      PP29580  11.072  11.361   1.306 -0.0446 -0.2770  0.0942
19477PP      PP29581  11.822  13.818   0.644 -0.2097 -0.1233 -0.0511
19478PP      PP29582  12.864   1.358  13.014  0.0617  0.4221 -0.2600
19479PP      PP29583  15.857   6.847   4.470  0.3784  0.0065 -0.1332
19480PP      PP29584  14.993   1.074   2.262 -0.1639 -0.2616  0.0211
19481PP      PP29585  14.338   1.019   8.797  0.0854 -0.0337 -0.0083
19482PP      PP29586   1.078   8.865  10.455  0.1937 -0.1869 -0.0574
19483PP      PP29587  15.657  14.726   0.691 -0.0815 -0.2886  0.0098
19484PP      PP29588  15.193  11.457  12.558  0.2906 -0.0120 -0.0394
19485PP      PP29589   3.850   7.963  10.171  0.0241  0.0982 -0.1031
19486PP      PP29590  11.235   3.517  11.548  0.1130 -0.2035 -0.0135
19487PP      PP29591   1.944   3.774  13.340 -0.2008 -0.1001 -0.1892
19488PP      PP29592   7.648   2.318  12.578 -0.0851 -0.1335  0.1970
19489PP      PP29593  11.444   6.864  13.256  0.1056 -0.1117 -0.0363
19490PP      PP29594  13.127   2.676  12.292  0.1152 -0.0405 -0.0555
19491PP      PP29595   5.842  11.867  11.846  0.0252 -0.3008 -0.0578
19492PP      PP29596  12.832   1.429  11.529 -0.1757 -0.0039  0.0898
19493PP      PP29597  13.358  12.992   4.284  0.0455 -0.2105  0.0344
19494PP      PP29598  15.721  10.996   3.863 -0.0918  0.0587 -0.0991
19495PP      PP29599  15.829   7.748  11.397  0.2080  0.2529 -0.1481
19496PP      PP29600   5.466   3.299  13.426  0.0978 -0.0858 -0.1871
19497PP      PP29601  15.593  10.028   8.579 -0.3415  0.0273 -0.0392
19498PP      PP29602   7.438  14.415   3.620 -0.0012 -0.0789  0.0784
19499PP      PP29603   5.046   4.064   1.050 -0.1746  0.0275 -0.0461
19500PP      PP29604   8.245   4.025   1.943 -0.4129  0.1011 -0.0024
19501PP      PP29605   6.317   3.209  12.248 -0.2129  0.1397  0.1158
19502PP      PP29606  10.460   0.951   4.218 -0.0649  0.4143 -0.2416
19503PP      PP29607   7.750  14.784  11.337 -0.0027 -0.0926  0.2308
19504PP      PP29608   0.666  14.967   2.788  0.3245 -0.0432  0.1593
19505PP      PP29609   3.498   7.027  10.014 -0.1366 -0.1816 -0.1053
19506PP      PP29610   4.550  15.165   1.933 -0.0573  0.0067 -0.1117
19507PP      PP29611  13.303   6.813   2.040 -0.0116  0.0812  0.1400
19508PP      PP29612   4.865   6.973   1.457  0.1554 -0.0301 -0.1638
19509PP      PP29613   2.042   4.457  12.628 -0.3093 -0.4680 -0.1120
19510PP      PP29614   1.224  13.870  10.543 -0.2919 -0.1433 -0.2645
19511PP      PP29615  11.118  15.215  11.346  0.1120  0.2754  0.4308
19512PP      PP29616   1.623   8.581   2.477  0.1611 -0.3268  0.0480
19513PP      PP29617   1.441   2.905  13.298 -0.0046  0.2112  0.1699
19514PP      PP29618   8.646   3.870  11.274 -0.0452  0.1679 -0.0553
19515PP      PP29619  14.188   3.488   0.367 -0.2384 -0.3652  0.2872
19516PP      PP29620  10.835   6.781   0.745  0.1652  0.1143  0.1509
19517PP      PP29621  12.649   5.412  10.898 -0.1405  0.1293 -0.0838
19518PP      PP29622  12.190   2.343   1.830 -0.2608  0.0744  0.0498
19519PP      PP29623   0.232   2.770  10.373 -0.1205  0.1368 -0.1064
19520PP      PP29624   6.817   1.545  12.548  0.0508  0.0051  0.0437
19521PP      PP29625   4.316  13.484   9.849 -0.0896 -0.0846  0.3610
19522PP      PP29626   7.189   0.240  10.218  0.1955 -0.2458  0.1806
19523PP      PP29627   2.025   8.442   4.596  0.1346 -0.0553 -0.2145
19524PP      PP29628   7.892  13.764  11.135  0.0482  0.0507 -0.3540
19525PP      PP29629  10.076   1.205  10.010  0.0955 -0.2580 -0.1181
19526PP      PP29630  14.761   3.389  10.786 -0.3324  0.1036  0.1065
19527PP      PP29631  11.838  13.560  13.082 -0.0939  0.0358 -0.1456
19528PP      PP29632  12.350   9.852   0.244  0.1935  0.0476 -0.0836
19529PP      PP29633   6.330   9.902  13.083  0.0640 -0.1370 -0.2116
19530PP      PP29634   0.735  14.804  11.359  0.0733  0.3075 -0.2345
19531PP      PP29635  15.084   3.594   8.788 -0.1881  0.2991 -0.2119
19532PP      PP29636   0.632   4.814  12.063 -0.1177 -0.0477  0.1879
19533PP      PP29637  14.363  15.074   1.687 -0.0888 -0.0783 -0.6917
19534PP      PP29638   5.164  13.865   8.628  0.2918 -0.4375  0.1557
19535PP      PP29639   7.050   7.363   9.939  0.2975  0.2770 -0.0326
19536PP      PP29640   8.073   3.340   0.970  0.2258 -0.2670  0.1910
19537PP      PP29641  10.123   4.723   9.868  0.0312  0.0777  0.0077
19538PP      PP29642   1.847   5.164   0.251 -0.0370  0.2071 -0.0112
19539PP      PP29643  10.576   4.646  12.710  0.0697 -0.3556 -0.4521
19540PP      PP29644   9.571   5.793   3.488 -0.1270 -0.1235 -0.0328
19541PP      PP29645  13.722   5.100   1.185  0.1286  0.0141  0.1783
19542PP      PP29646   0.173   1.136   1.579 -0.0884 -0.1874 -0.3480
19543PP      PP29647  15.125  13.148   9.661  0.0019 -0.1835 -0.0013
19544PP      PP29648   5.846   3.599   0.052 -0.0439 -0.2715 -0.0417
19545PP      PP29649  14.205   5.801   2.600  0.1137 -0.0325 -0.0698
19546PP      PP29650   2.591   4.445   9.671  0.3020  0.1924 -0.1429
19547PP      PP29651   4.405   5.086   1.812 -0.1651 -0.1243 -0.1117
19548PP      PP29652  11.818  10.585  10.456  0.0686  0.1478 -0.0597
19549PP      PP29653   5.089  10.775   3.616  0.2194 -0.0844  0.2073
19550PP      PP29654   5.844  13.138   4.749  0.1493  0.0142 -0.1384
19551PP      PP29655   5.173  13.732  10.849 -0.0406  0.2877  0.1431
19552PP      PP29656  14.854   7.798   2.225  0.1819 -0.0687  0.0485
19553PP      PP29657   6.000   9.053  12.921 -0.2829  0.2779  0.2532
19554PP      PP29658  10.548   7.168  10.384 -0.0468  0.2091  0.3897
19555PP      PP29659   7.293  15.621  12.376  0.3223 -0.2425  0.2524
19556PP      PP29660   2.467   2.848   9.734  0.0095 -0.0433 -0.3250
19557PP      PP29661   6.141   6.447   9.152 -0.1972 -0.0227  0.1652
19558PP      PP29662   8.799  10.594   3.643  0.2998  0.0739  0.2759
19559PP      PP29663  14.706  12.568  11.404 -0.1483 -0.0981  0.0955
19560PP      PP29664   8.157   6.958   1.289  0.1028  0.0077 -0.1170
19561PP      PP29665  13.361   7.924   9.707  0.1225 -0.0400  0.0202
19562PP      PP29666  11.101  15.408   0.251  0.3752  0.1735 -0.1693
19563PP      PP29667  13.872  10.556   8.909 -0.1335 -0.0633 -0.2203
19564PP      PP29668   7.082  14.733   9.577 -0.0317 -0.1638  0.3475
19565PP      PP29669  11.673   9.809   1.853 -0.0942  0.0085 -0.0815
19566PP      PP29670   2.030   3.213   1.050 -0.0211  0.0208 -0.0637
19567PP      PP29671   0.514   2.127   0.051 -0.0861  0.2143  0.0103
19568PP      PP29672  15.689  15.596   4.432  0.2205 -0.3409 -0.0998
19569PP      PP29673   0.640  15.018  11.913  0.2037  0.0239 -0.1595
19570PP      PP29674   3.759   1.376   0.252 -0.0869 -0.1100 -0.4347
19571PP      PP29675   0.474  14.004   8.891  0.3758  0.0299  0.2478
19572PP      PP29676   9.338  11.520  11.210  0.2868  0.0713 -0.2710
19573PP      PP29677  15.007  13.927   2.121  0.2346  0.0347 -0.1445
19574PP      PP29678   1.479   3.159   9.348 -0.1171 -0.1585 -0.3276
19575PP      PP29679  11.702   1.105  11.884 -0.2049  0.0428 -0.4028
19576PP      PP29680   5.665  11.277  10.057  0.0021 -0.0417 -0.1729
19577PP      PP29681   3.658  15.360  10.239 -0.1232  0.1788  0.2674
19578PP      PP29682   6.921   0.412   0.098 -0.0619  0.2993  0.5040
19579PP      PP29683   2.910   6.381   0.814 -0.0965 -0.1905  0.2170
19580PP      PP29684  14.900   6.152  11.927 -0.4004  0.2532  0.1533
19581PP      PP29685  11.773  12.357   0.142  0.0146  0.0296 -0.1906
19582PP      PP29686   7.045   6.689  12.903  0.2570  0.1970  0.2190
19583PP      PP29687  15.564  15.185  12.135  0.0764  0.0839 -0.0588
19584PP      PP29688   2.056   3.519  10.706 -0.1294 -0.1406 -0.0149
19585PP      PP29689   5.013  13.310   0.347  0.2485  0.1155  0.2153
19586PP      PP29690   6.840  13.292   9.163 -0.0180  0.0308 -0.2044
19587PP      PP29691  12.391  12.101   1.358  0.0357 -0.2048  0.0149
19588PP      PP29692   6.875   6.617   9.075  0.1013 -0.2906 -0.0556
19589PP      PP29693   3.574   6.238   1.863 -0.2117 -0.2210  0.0628
19590PP      PP29694   2.770   5.004  11.315  0.1074  0.0033  0.0820
19591PP      PP29695   6.831   5.662   1.586 -0.0593 -0.1950  0.0820
19592PP      PP29696   2.082  13.332  12.580 -0.2570 -0.2825  0.2176
19593PP      PP29697  15.449  10.565   0.468 -0.0309  0.1737 -0.0870
19594PP      PP29698  13.732  12.549   5.424 -0.2894 -0.1728 -0.2101
19595PP      PP29699  10.607   1.353   1.424  0.0453  0.4147  0.1508
19596PP      PP29700   9.075  10.148   4.532 -0.1709  0.0612  0.1712
19597PP      PP29701   1.509  13.900  12.359  0.4784 -0.0644  0.3886
19598PP      PP29702   5.272   3.778  12.182 -0.5911 -0.0767  0.0917
19599PP      PP29703   3.935  12.359  12.381 -0.0446 -0.1601 -0.0783
19600PP      PP29704   2.803  10.220   8.420 -0.5300 -0.0262 -0.3090
19601PP      PP29705  11.250   3.927   2.779 -0.1783  0.1330  0.1208
19602PP      PP29706   8.353   2.246   3.354  0.2267 -0.1862  0.0798
19603PP      PP29707  10.046   9.552   0.617  0.0305  0.0314  0.3435
19604PP      PP29708  14.788   5.630  12.894  0.2578  0.2256  0.3585
19605PP      PP29709  10.699  12.324  13.308 -0.0009  0.0829 -0.3922
19606PP      PP29710   7.184  11.766   2.536 -0.3396 -0.3288 -0.2484
19607PP      PP29711   8.386  14.750  13.081 -0.1589 -0.2289  0.0698
19608PP      PP29712  14.241  12.195  10.703 -0.3451  0.2486 -0.1628
19609PP      PP29713  10.911   5.191   1.134  0.2494 -0.1578 -0.1271
19610PP      PP29714  11.915   8.909  10.803  0.2792 -0.0969  0.1112
19611PP      PP29715  14.839  15.386  13.493 -0.5368 -0.2868  0.1838
19612PP      PP29716   9.479   8.761   4.080  0.2001  0.0061 -0.0876
19613PP      PP29717   0.587   7.341  12.117  0.2444 -0.0514 -0.1273
19614PP      PP29718   8.291   8.005   0.168 -0.0004  0.0370 -0.0472
19615PP      PP29719  12.472   2.964   0.832 -0.0541  0.1186  0.0717
19616PP      PP29720   9.722   7.434  10.914  0.0971 -0.1570 -0.0154
19617PP      PP29721   6.081  11.207   3.908  0.0225  0.4055 -0.1880
19618PP      PP29722  11.982   2.378  13.457  0.1934  0.0887 -0.2077
19619PP      PP29723   6.743  11.393  10.153  0.0345 -0.1902 -0.1810
19620PP      PP29724   2.160   4.273  11.368 -0.2404 -0.0712  0.0972
19621PP      PP29725   2.619   4.328   1.191  0.1935 -0.1556 -0.0748
19622PP      PP29726   8.554  15.668   1.332 -0.2794  0.1530 -0.0337
19623PP      PP29727   6.080  13.039  10.952 -0.4387 -0.1609 -0.1884
19624PP      PP29728  11.799  13.778  10.602 -0.0754  0.2586  0.1401
19625PP      PP29729   1.523   3.370   2.826  0.4141  0.0437  0.2938
19626PP      PP29730   1.997   9.510   3.562  0.1097 -0.1817 -0.0793
19627PP      PP29731   7.630   6.062   1.209  0.1023  0.1809 -0.1549
19628PP      PP29732   7.407  15.831   3.407 -0.1008  0.1868 -0.1516
19629PP      PP29733   8.183   4.188   3.288 -0.1470  0.0208 -0.1385
19630PP      PP29734  13.507  10.989   3.826  0.4090 -0.2967  0.0339
19631PP      PP29735   0.660  14.694  10.165 -0.0622  0.1317  0.1302
19632PP      PP29736  13.827   6.626  12.766 -0.1405 -0.1181  0.2272
19633PP      PP29737   2.126   7.164  10.756  0.6809  0.1328  0.1490
19634PP      PP29738  13.317   5.175  11.922  0.0862 -0.0655  0.0949
19635PP      PP29739  13.575   5.829   3.108 -0.1566  0.0669 -0.0645
19636PP      PP29740   2.860   2.439  12.428 -0.3262 -0.1741  0.2341
19637PP      PP29741   6.495   8.017  10.835 -0.3825 -0.0635  0.0728
19638PP      PP29742  11.433   4.725   3.992  0.0838 -0.1475  0.3477
19639PP      PP29743   6.676  13.201   4.130  0.5910 -0.3603 -0.0651
19640PP      PP29744   8.121   8.941   3.051 -0.0209 -0.0813  0.1599
19641PP      PP29745   5.199  13.414   9.690 -0.0148  0.4479 -0.2148
19642PP      PP29746  12.725  10.261   3.925  0.3257 -0.1825 -0.0933
19643PP      PP29747   2.372   9.857   3.669  0.0828  0.0237  0.1862
19644PP      PP29748  15.612   2.177  10.821  0.2509  0.2531 -0.2097
19645PP      PP29749   8.220   3.949   3.924  0.2184  0.1734 -0.2602
19646PP      PP29750  11.620  10.676   9.032 -0.1112 -0.2959 -0.1348
19647PP      PP29751   2.025   3.137   1.736 -0.2127  0.0761 -0.0448
19648PP      PP29752  14.223   7.972  10.184  0.0545 -0.1512  0.1473
19649PP      PP29753   1.984  15.861   2.369  0.0505 -0.2080  0.0791
19650PP      PP29754  14.260  11.170  12.694 -0.2985  0.1131  0.3264
19651PP      PP29755   2.953   4.386   8.224  0.1929  0.3411  0.1494
19652PP      PP29756   6.968   2.644   3.105 -0.2178  0.1174  0.0453
19653PP      PP29757   5.233   9.436   4.221  0.2389 -0.1362 -0.2501
19654PP      PP29758   9.563  12.707   1.889  0.1835  0.2629 -0.2958
19655PP      PP29759  13.875   9.815   9.170  0.0174 -0.1309  0.1136
19656PP      PP29760   5.396  11.740   2.735  0.2862 -0.1040 -0.2008
19657PP      PP29761  11.696   7.521   1.621 -0.2926  0.3772 -0.3576
19658PP      PP29762   2.189   4.485  10.577 -0.2866 -0.2385  0.0794
19659PP      PP29763   0.578  12.565   3.490  0.1274  0.3197  0.1022
19660PP      PP29764   8.792  15.161   2.963 -0.4170  0.0032  0.0630
19661PP      PP29765  11.618   0.473   4.481 -0.3278 -0.5941  0.3829
19662PP      PP29766   3.419   4.200   4.495  0.6638  0.0342  0.0617
19663PP      PP29767   1.140  11.367   0.319  0.3237 -0.2474 -0.1845
19664PP      PP29768  11.397  10.104   1.622  0.2292 -0.1769  0.2282
19665PP      PP29769   9.450   1.712   5.295 -0.0277 -0.1346  0.2029
19666PP      PP29770   0.807   8.628   2.327 -0.2097 -0.1413  0.0404
19667PP      PP29771  15.164   5.569   3.963 -0.0851 -0.1561 -0.2115
19668PP      PP29772  14.750   9.384   0.089 -0.0437 -0.4540  0.0886
19669PP      PP29773  12.679   1.371  10.009 -0.2826 -0.1011 -0.0850
19670PP      PP29774   9.152   0.050   4.440 -0.0209 -0.1246 -0.0796
19671PP      PP29775  12.171   2.794   2.697 -0.0428 -0.3453  0.0667
19672PP      PP29776  13.392  15.660   4.395 -0.0060  0.1054 -0.1238
19673PP      PP29777   7.104   7.471   3.301  0.0192  0.1757  0.1721
19674PP      PP29778   6.171   9.434  10.341  0.0356 -0.0200  0.0513
19675PP      PP29779   0.273  10.579  12.287  0.0049  0.0742 -0.5177
19676PP      PP29780  12.667   0.195   3.974 -0.1347  0.0638  0.1122
19677PP      PP29781  14.733   1.911   4.354  0.1087  0.1260  0.1713
19678PP      PP29782   7.813  14.602  10.180 -0.2442 -0.1300 -0.0300
19679PP      PP29783   3.843  14.445   4.022 -0.0490  0.0432 -0.0803
19680PP      PP29784   3.031   3.345  11.650  0.1172  0.0123 -0.1812
19681PP      PP29785   1.784   1.961  10.758 -0.0563  0.2638 -0.0752
19682PP      PP29786   6.427   3.560  10.301  0.0787 -0.0180  0.0727
19683PP      PP29787  13.988  11.444   0.896  0.0588 -0.0829 -0.1772
19684PP      PP29788   7.127  12.880   0.316  0.1456 -0.0685  0.0875
19685PP      PP29789  13.915   3.625   1.278  0.1502  0.0779  0.0868
19686PP      PP29790   4.476  15.132  10.843  0.2522  0.1710  0.0959
19687PP      PP29791   1.858   3.191   4.201  0.0425 -0.0439  0.3889
19688PP      PP29792   5.317  13.318   3.305  0.0134 -0.1254 -0.0657
19689PP      PP29793  12.193  12.228  13.439 -0.4381 -0.0109  0.4462
19690PP      PP29794   2.330  10.941   0.069 -0.1501  0.1421 -0.0099
19691PP      PP29795   7.270   0.570   1.804 -0.0650 -0.3639 -0.1603
19692PP      PP29796  13.331  11.675   2.872  0.0539 -0.0655  0.0487
19693PP      PP29797   3.853   2.569  13.019 -0.0851  0.1022  0.0720
19694PP      PP29798  11.568   0.418   1.165 -0.1817  0.0220 -0.2150
19695PP      PP29799   7.591  14.192  12.250  0.1775 -0.1474  0.1602
19696PP      PP29800  15.565   0.993  11.688 -0.1582 -0.1533 -0.1368
19697PP      PP29801   6.312  14.152   9.763  0.0051  0.2290 -0.0525
19698PP      PP29802  10.546  14.614  13.066  0.4021 -0.2281  0.0269
19699PP      PP29803   6.363  10.302   1.274 -0.1304 -0.1250  0.2291
19700PP      PP29804   1.410  13.029  11.101  0.1276 -0.2663 -0.0212
19701PP      PP29805  14.591  11.473   0.847 -0.0025 -0.0482  0.0088
19702PP      PP29806  10.026  11.109   0.506  0.4235  0.1406 -0.1694
19703PP      PP29807   2.091  11.726  12.259 -0.3728  0.4163 -0.1414
19704PP      PP29808  10.050   5.136   2.255  0.2580  0.0892  0.4267
19705PP      PP29809   2.211   0.281  11.112 -0.0786  0.1921 -0.2214
19706PP      PP29810  12.222  11.118   4.494  0.0522  0.1839 -0.0222
19707PP      PP29811  12.450   4.092   1.069 -0.1787 -0.0212  0.0229
19708PP      PP29812  12.757  10.978   3.703  0.0327  0.1625  0.0866
19709PP      PP29813   6.366  15.234   9.037  0.1443 -0.0946 -0.1182
19710PP      PP29814   7.167  10.722   3.730 -0.1299  0.1085  0.0148
19711PP      PP29815  14.868  13.346  12.958 -0.0153  0.0022  0.1406
19712PP      PP29816   5.832   0.490   9.732 -0.0755 -0.1611 -0.2828
19713PP      PP29817   3.285  15.468   8.677  0.1989 -0.0714  0.2574
19714PP      PP29818  14.835  13.922  13.212  0.2674 -0.2509 -0.3389
19715PP      PP29819   7.812  10.988  11.429 -0.0610 -0.0888  0.0291
19716PP      PP29820   4.781   6.169   9.350  0.0299  0.0636 -0.0784
19717PP      PP29821  13.146   8.487  10.920 -0.1968  0.0852 -0.2090
19718PP      PP29822  15.540   9.773   1.962 -0.1465 -0.0017  0.4923
19719PP      PP29823   6.958  11.035   1.575  0.0386 -0.0903  0.2418
19720PP      PP29824   5.435  10.703  12.367 -0.2625  0.2801  0.1681
19721PP      PP29825  10.905   9.223  11.180 -0.2276  0.1008  0.0991
19722PP      PP29826  14.237   3.681  11.434  0.0278 -0.0636  0.1042
19723PP      PP29827  10.326  15.578   2.889  0.0416 -0.1356  0.0025
19724PP      PP29828   5.293  10.241   3.198 -0.0870  0.1225 -0.0801
19725PP      PP29829   1.387   1.421   0.312 -0.2180  0.0976 -0.0171
19726PP      PP29830  12.970   9.398  12.956 -0.0215 -0.1407 -0.2273
19727PP      PP29831   6.723   6.682  11.290 -0.0743  0.0110  0.2273
19728PP      PP29832  13.128  15.377   4.739 -0.0140 -0.1342  0.0247
19729PP      PP29833   6.579   0.950   3.694  0.3435 -0.2299  0.0214
19730PP      PP29834  10.789   7.672   2.971  0.0747  0.0341  0.2512
19731PP      PP29835   8.927   0.791   4.721  0.0579 -0.4246  0.3062
19732PP      PP29836   6.694   4.033   0.898  0.0752 -0.2181 -0.0408
19733PP      PP29837  13.178  12.249  11.798 -0.3507 -0.0046  0.3694
19734PP      PP29838  13.176   6.901   8.012 -0.2684  0.1032 -0.1219
19735PP      PP29839   3.285  11.053  10.145 -0.1501 -0.0517  0.1633
19736PP      PP29840   9.411  11.228   3.835  0.1584 -0.0331  0.0729
19737PP      PP29841   0.708   0.559   4.674  0.1245  0.1395 -0.0906
19738PP      PP29842  14.017   2.223  11.865  0.2061 -0.0770  0.0748
19739PP      PP29843  13.883   8.637   2.907  0.1598  0.0441  0.0883
19740PP      PP29844   2.254   3.437   4.043 -0.1235 -0.2981 -0.0731
19741PP      PP29845   9.031   5.285   2.259 -0.1498  0.0848 -0.0934
19742PP      PP29846   1.172  14.177  12.115  0.0976  0.0646  0.1301
19743PP      PP29847  10.622  10.780   9.366 -0.0358  0.2478  0.1503
19744PP      PP29848   7.340  12.037   0.153 -0.0990 -0.7991 -0.0967
19745PP      PP29849   3.366   8.870   1.677  0.0546 -0.0296 -0.1541
19746PP      PP29850  14.230   3.611   0.841  0.0131 -0.0618  0.0641
19747PP      PP29851  10.998  13.931   1.912  0.1883  0.3230  0.2666
19748PP      PP29852   4.486  12.220  11.611 -0.1674  0.2942  0.1606
19749PP      PP29853  12.546   2.147   8.930  0.1964 -0.0780 -0.2733
19750PP      PP29854  11.021   9.717  11.887 -0.0548  0.1368 -0.1525
19751PP      PP29855   3.215   0.636  12.618  0.1321 -0.1030 -0.0241
19752PP      PP29856  15.508   0.037   9.081  0.2508 -0.0808 -0.0472
19753PP      PP29857  11.223   7.875   3.470 -0.0786  0.2142 -0.0998
19754PP      PP29858   3.707   2.830  11.315 -0.0842 -0.0767 -0.1665
19755PP      PP29859   7.008   9.543   2.286 -0.2927 -0.1198 -0.1056
19756PP      PP29860   6.490   3.332   2.154 -0.0162  0.1284  0.1333
19757PP      PP29861   4.835  10.935  11.848  0.1479  0.0080  0.0920
19758PP      PP29862  13.459  10.889  13.024 -0.0213  0.1975  0.4374
19759PP      PP29863  10.390  12.548   1.459 -0.0479 -0.0628  0.1622
19760PP      PP29864   2.318   6.812  11.875  0.2479  0.1741  0.2308
19761PP      PP29865  15.813   0.876   5.044 -0.1303  0.0678 -0.1933
19762PP      PP29866   2.925   4.142   0.801 -0.1782  0.1351  0.1289
19763PP      PP29867   9.072   1.258  10.030  0.2524 -0.2835 -0.1696
19764PP      PP29868   9.859   8.224   8.632 -0.0211  0.3211 -0.0130
19765PP      PP29869   2.441   8.476   3.284  0.2888 -0.0715  0.2297
19766PP      PP29870  11.630  13.290   0.463 -0.0413  0.2460 -0.0265
19767PP      PP29871   0.176  15.195  12.443  0.1842  0.1896  0.4159
19768PP      PP29872  12.381   3.160   2.329  0.2103 -0.1122 -0.0723
19769PP      PP29873   3.682   1.101  10.917  0.2052 -0.1452  0.0537
19770PP      PP29874  12.954   4.353   0.301 -0.2694 -0.2249 -0.0871
19771PP      PP29875   1.357   1.981   9.633 -0.0340 -0.4525  0.1482
19772PP      PP29876   0.250  15.619   5.090 -0.2155  0.1508 -0.1230
19773PP      PP29877  14.760  10.354   2.812  0.1041  0.1389  0.2149
19774PP      PP29878   2.157   6.018  13.267  0.0193 -0.2862  0.1042
19775PP      PP29879  11.391   4.228  11.999 -0.1567  0.1828  0.0588
19776CNL    PA129880  11.735   8.734   8.094  0.0701 -0.0047 -0.2365
19776CNL    PA229881  11.520   8.514   7.979  0.0670  0.2300  0.2758
19776CNL    PA329882  11.516   8.744   8.148  0.0267  0.0170 -0.2965
19776CNL    PA429883  11.508   8.744   7.913  0.4341  0.4908 -0.2102
19777CNL    PA129884  15.107   9.255   4.057 -0.2930 -0.0321 -0.3477
19777CNL    PA229885  14.807   9.151   4.045  0.0415  0.1204  0.2634
19777CNL    PA329886  15.048   9.025   4.064 -0.0964 -0.1538 -0.0727
19777CNL    PA429887  14.932   9.101   4.230  0.2811  0.4728 -0.0740
19778CNL    PA129888   1.520  11.289   4.823 -0.3717 -0.0950  0.4367
19778CNL    PA229889   1.834  11.260   4.820 -0.0096 -0.1064 -0.1539
19778CNL    PA329890   1.669  11.386   4.681  0.2795 -0.0867  0.2288
19778CNL    PA429891   1.745  11.492   4.869  0.1401 -0.0741  0.2297
19779CNL    PA129892  10.050   7.190   8.373 -0.0394  0.0028  0.0108
19779CNL    PA229893  10.280   7.138   8.183  0.0052  0.3893  0.2931
19779CNL    PA329894  10.102   6.982   8.304  0.0419  0.0095 -0.0029
19779CNL    PA429895  10.088   7.054   8.103 -0.2784 -0.1515 -0.0673
19780CNL    PA129896  15.232  13.974   4.841  0.0223 -0.0206 -0.0382
19780CNL    PA229897  15.179  14.247   5.007 -0.2976 -0.0750  0.4347
19780CNL    PA329898  15.327  14.023   5.062 -0.0373  0.2415  0.1719
19780CNL    PA429899  15.403  14.201   4.983  0.6055  0.2916 -0.0947
19781CNL    PA129900   8.495   9.787   8.099  0.4282 -0.0054 -0.2129
19781CNL    PA229901   8.451   9.491   8.154  0.0024  0.0199 -0.4082
19781CNL    PA329902   8.673   9.632   8.149 -0.2568 -0.4417  0.2132
19781CNL    PA429903   8.573   9.638   8.313 -0.2913  0.2118 -0.0480
19782CNL    PA129904   3.676   2.058   8.820 -0.2284 -0.1065  0.2467
19782CNL    PA229905   3.424   1.907   8.697 -0.3631 -0.0285  0.1540
19782CNL    PA329906   3.503   2.166   8.686  0.3512  0.2804 -0.3742
19782CNL    PA429907   3.585   2.030   8.548  0.1490 -0.0684 -0.0009
19783CNL    PA129908   9.805   0.813   9.112  0.0736  0.0563  0.2281
19783CNL    PA229909   9.837   0.690   8.827 -0.1131 -0.1539 -0.3283
19783CNL    PA329910   9.636   0.669   9.010 -0.2604 -0.3533 -0.4593
19783CNL    PA429911   9.624   0.834   8.846  0.1815 -0.0715 -0.3807
19784CNL    PA129912   5.550   5.475   4.485  0.2994  0.2698 -0.4053
19784CNL    PA229913   5.729   5.637   4.703 -0.7048 -0.1221  0.1910
19784CNL    PA329914   5.776   5.562   4.430 -0.0535  0.3983 -0.3782
19784CNL    PA429915   5.652   5.736   4.477 -0.0922 -0.0627 -0.3248
19785CNL    PA129916   8.525  15.184   6.863  0.0657 -0.1281 -0.0858
19785CNL    PA229917   8.602  15.442   7.020  0.3921 -0.0471 -0.3453
19785CNL    PA329918   8.416  15.251   7.070  0.1179  0.1224 -0.0198
19785CNL    PA429919   8.608  15.212   7.154 -0.0032  0.0544 -0.0053
19786CNL    PA129920  15.321   0.319   8.595  0.0457 -0.0398 -0.0204
19786CNL    PA229921  15.377   0.612   8.518  0.1519 -0.1718  0.1980
19786CNL    PA329922  15.218   0.438   8.391  0.2440  0.3312 -0.0129
19786CNL    PA429923  15.155   0.539   8.528  0.3086 -0.1969 -0.4225
19787CNL    PA129924   6.590  10.010   8.659  0.0839  0.1447 -0.0605
19787CNL    PA229925   6.772   9.957   8.427  0.0912 -0.3789  0.0324
19787CNL    PA329926   6.801  10.051   8.672  0.0427  0.1560  0.2128
19787CNL    PA429927   6.804   9.850   8.616 -0.1366  0.3677 -0.2579
19788CNL    PA129928  10.245  10.575   8.736  0.0674  0.1506  0.3380
19788CNL    PA229929  10.195  10.781   8.971 -0.0413  0.0032 -0.0433
19788CNL    PA329930  10.379  10.571   8.918  0.3193  0.0431 -0.0771
19788CNL    PA429931  10.407  10.772   8.839  0.4047  0.3223 -0.1815
19789CNL    PA129932   4.298   8.767   8.752  0.0803  0.1666  0.3459
19789CNL    PA229933   4.327   8.703   8.427  0.1804 -0.0435  0.0514
19789CNL    PA329934   4.194   8.920   8.557 -0.4445  0.2746 -0.4384
19789CNL    PA429935   4.413   8.906   8.514  0.4050  0.2681 -0.3175
19790CNL    PA129936  13.057   9.463   4.351 -0.0629 -0.0333  0.0825
19790CNL    PA229937  13.308   9.646   4.420 -0.0862  0.1958 -0.1600
19790CNL    PA329938  13.169   9.617   4.192  0.1830 -0.0973 -0.6833
19790CNL    PA429939  13.105   9.750   4.336 -0.2703 -0.1065  0.1728
19791CNL    PA129940  12.933   1.829   9.012 -0.1962 -0.6508 -0.0388
19791CNL    PA229941  13.126   1.797   8.748  0.0825  0.1718  0.0772
19791CNL    PA329942  12.861   1.831   8.794 -0.3081 -0.3072  0.0784
19791CNL    PA429943  13.014   1.983   8.786  0.1955 -0.2061  0.3819
19792CNL    PA129944  13.043   3.185  10.361 -0.2606 -0.1072  0.3362
19792CNL    PA229945  13.036   3.368  10.094 -0.0821  0.3183  0.0637
19792CNL    PA329946  12.844   3.203  10.231 -0.2691  0.2582  0.1538
19792CNL    PA429947  12.907   3.412  10.264 -0.6055 -0.0965  0.5508
19793CNL    PA129948  12.895   4.445   2.749  0.0721  0.1444 -0.1994
19793CNL    PA229949  12.758   4.723   2.683 -0.0143 -0.2075  0.0680
19793CNL    PA329950  12.977   4.625   2.811 -0.1989  0.1090 -0.0038
19793CNL    PA429951  12.974   4.667   2.580 -0.1567  0.0440 -0.2087
19794CNL    PA129952  10.535   4.835   4.335  0.1279 -0.1964 -0.1893
19794CNL    PA229953  10.550   5.158   4.347 -0.0189 -0.0414  0.0422
19794CNL    PA329954  10.390   4.972   4.446 -0.3007  0.3589  0.1599
19794CNL    PA429955  10.563   5.037   4.552 -0.3322  0.1745 -0.0881
19795CNL    PA129956  14.695   1.685   6.471  0.1550 -0.1732 -0.2036
19795CNL    PA229957  14.448   1.536   6.494 -0.0841  0.1315  0.1685
19795CNL    PA329958  14.644   1.529   6.307 -0.0901  0.1786 -0.1968
19795CNL    PA429959  14.662   1.398   6.509 -0.3303  0.0568  0.2591
19796CNL    PA129960   5.439   6.102   4.548  0.0736 -0.0398  0.0055
19796CNL    PA229961   5.294   5.902   4.355 -0.2393 -0.0911  0.0978
19796CNL    PA329962   5.389   5.857   4.606 -0.1516 -0.5451 -0.0312
19796CNL    PA429963   5.176   5.920   4.550  0.0795 -0.1792 -0.4448
19797CNL    PA129964  13.274   0.340   9.165 -0.1256  0.0073 -0.0810
19797CNL    PA229965  13.203   0.089   8.978  0.2303  0.0945  0.2847
19797CNL    PA329966  13.449   0.183   9.095  0.2502  0.1115 -0.2883
19797CNL    PA429967  13.266   0.039   9.163  0.3675  0.4251 -0.2882
19798CNL    PA129968   4.658  11.263   5.175  0.0446  0.0760  0.3376
19798CNL    PA229969   4.828  11.508   5.285  0.0968 -0.0956 -0.3813
19798CNL    PA329970   4.555  11.437   5.299  0.2191 -0.1300  0.5453
19798CNL    PA429971   4.697  11.369   5.450  0.4959 -0.3264  0.7121
19799CNL    PA129972  10.635   0.271   5.519  0.1115  0.0509 -0.2303
19799CNL    PA229973  10.865   0.441   5.636  0.2321  0.0515  0.0498
19799CNL    PA329974  10.683   0.243   5.738 -0.2239 -0.2373  0.2665
19799CNL    PA429975  10.872   0.200   5.637 -0.0417 -0.2924 -0.5022
19800CNL    PA129976   0.806   1.146   8.755  0.0359 -0.0562 -0.2608
19800CNL    PA229977   0.616   1.067   8.512 -0.0889  0.0271  0.2500
19800CNL    PA329978   0.678   1.313   8.605 -0.0684  0.0739 -0.0681
19800CNL    PA429979   0.804   1.245   8.467  0.0438 -0.0307  0.2293
19801CNL    PA129980  13.411   8.662   8.458  0.4177  0.0356  0.0614
19801CNL    PA229981  13.388   8.808   8.150 -0.0408 -0.1101 -0.0826
19801CNL    PA329982  13.351   8.574   8.262  0.1134  0.3245  0.2694
19801CNL    PA429983  13.197   8.734   8.251 -0.2534  0.2987  0.4759
19802CNL    PA129984   5.915   4.193   4.564  0.1775 -0.1483 -0.1640
19802CNL    PA229985   6.080   4.394   4.395 -0.0212 -0.2211 -0.0329
19802CNL    PA329986   6.093   4.341   4.653  0.2984 -0.1170  0.4749
19802CNL    PA429987   6.209   4.250   4.510 -0.1618  0.0450  0.1519
19803CNL    PA129988  14.292  13.591   4.742  0.0896  0.2415  0.1349
19803CNL    PA229989  14.531  13.438   4.860  0.1824 -0.2192 -0.0887
19803CNL    PA329990  14.448  13.694   4.890 -0.0232  0.1391 -0.1683
19803CNL    PA429991  14.369  13.511   5.006 -0.1006  0.0246 -0.1767
19804CNL    PA129992   4.732   2.237   9.029 -0.1688 -0.1692  0.2007
19804CNL    PA229993   4.515   2.062   9.093 -0.1238  0.2324 -0.3497
19804CNL    PA329994   4.784   2.040   9.174  0.2385  0.2109  0.3784
19804CNL    PA429995   4.634   2.153   9.278  0.2879  0.3198 -0.0871
19805CNL    PA129996   7.617   6.345  10.309 -0.1438  0.0298 -0.2644
19805CNL    PA229997   7.888   6.495  10.317 -0.1500 -0.3517 -0.0576
19805CNL    PA329998   7.690   6.473  10.137 -0.0932 -0.5318  0.0326
19805CNL    PA429999   7.697   6.623  10.269  0.0637  0.0136 -0.2480
19806CNL    PA130000   9.667  14.261   7.661  0.1345 -0.1323 -0.1270
19806CNL    PA230001   9.507  14.048   7.530  0.1530 -0.2855 -0.0171
19806CNL    PA330002   9.749  14.054   7.629  0.2110  0.2296  0.3704
19806CNL    PA430003   9.579  14.001   7.737 -0.3645 -0.1082  0.0396
19807CNL    PA130004   4.676   2.405   8.524 -0.1139  0.3743  0.1413
19807CNL    PA230005   4.923   2.559   8.429  0.1492  0.1034 -0.3939
19807CNL    PA330006   4.756   2.383   8.324  0.2424  0.4960  0.0393
19807CNL    PA430007   4.726   2.573   8.298 -0.1575 -0.2159  0.0764
19808CNL    PA130008   8.354  12.249   0.615  0.3442 -0.1435  0.2589
19808CNL    PA230009   8.601  12.106   0.744 -0.0333  0.0811  0.2360
19808CNL    PA330010   8.419  12.274   0.830  0.0226 -0.4079  0.3829
19808CNL    PA430011   8.382  12.060   0.864  0.0674 -0.0097 -0.2848
19809CNL    PA130012   9.134   3.120   5.296  0.2428  0.1916 -0.1360
19809CNL    PA230013   9.172   2.988   5.563  0.1547 -0.1934 -0.1825
19809CNL    PA330014   8.975   3.086   5.424  0.7217  0.3069 -0.0975
19809CNL    PA430015   9.005   2.873   5.429  0.0395 -0.0284 -0.0895
19810CNL    PA130016  13.109   5.390   4.219 -0.1888  0.0506 -0.1597
19810CNL    PA230017  12.997   5.614   4.381 -0.0540  0.0413  0.1380
19810CNL    PA330018  13.169   5.408   4.455  0.0887 -0.3545  0.3508
19810CNL    PA430019  13.239   5.598   4.398  0.4413 -0.4570 -0.0173
19811CNL    PA130020  15.218   8.053   8.676  0.2715 -0.2096 -0.2671
19811CNL    PA230021  15.174   8.338   8.534 -0.0054 -0.1915  0.2690
19811CNL    PA330022  15.380   8.215   8.651 -0.2921  0.0107  0.3725
19811CNL    PA430023  15.343   8.205   8.468  0.1957  0.0163  0.4095
19812CNL    PA130024   1.291   8.745   5.193 -0.0839  0.5232  0.1622
19812CNL    PA230025   1.167   8.745   5.476 -0.1733 -0.0464 -0.2283
19812CNL    PA330026   1.408   8.693   5.378  0.1336  0.1503 -0.2746
19812CNL    PA430027   1.365   8.893   5.443  0.2524  0.1688 -0.1347
19813CNL    PA130028   4.884   2.029  11.952  0.2430  0.0186  0.0499
19813CNL    PA230029   4.816   1.897  12.228 -0.0644  0.0629  0.0922
19813CNL    PA330030   4.865   1.800  11.966  0.4461  0.2748 -0.3387
19813CNL    PA430031   5.030   1.860  12.126 -0.3928  0.0420  0.0854
19814CNL    PA130032   5.368  14.796  10.051 -0.2356  0.1920 -0.1612
19814CNL    PA230033   5.553  14.630   9.857  0.2255 -0.1604 -0.3977
19814CNL    PA330034   5.280  14.682   9.854  0.1583  0.0542 -0.1505
19814CNL    PA430035   5.436  14.814   9.786  0.0791 -0.1305  0.0219
19815CNL    PA130036  15.323   9.693   3.569 -0.3667  0.1119  0.1582
19815CNL    PA230037  15.555   9.544   3.742  0.0685 -0.2399  0.3175
19815CNL    PA330038  15.294   9.483   3.667 -0.1844  0.1524  0.1266
19815CNL    PA430039  15.498   9.439   3.548  0.1677  0.1594  0.2561
19816CNL    PA130040  15.041   0.891   0.593  0.1934  0.0803 -0.2272
19816CNL    PA230041  14.906   0.844   0.289  0.1051 -0.2467 -0.1542
19816CNL    PA330042  15.055   0.690   0.463 -0.5199 -0.0212 -0.2170
19816CNL    PA430043  14.840   0.681   0.456 -0.2525 -0.0196 -0.0917
19817CNL    PA130044   8.964  12.106   8.742  0.3100 -0.1282  0.0007
19817CNL    PA230045   8.710  12.236   8.596 -0.0672  0.1602  0.2531
19817CNL    PA330046   8.934  12.356   8.690 -0.1838  0.1037 -0.3054
19817CNL    PA430047   8.905  12.272   8.493  0.0380  0.3208 -0.2360
19818CNL    PA130048  12.282   2.226   9.635  0.2281 -0.2918  0.1954
19818CNL    PA230049  12.335   2.160   9.345  0.0187  0.0356  0.1187
19818CNL    PA330050  12.185   2.352   9.461  0.1431  0.1231  0.2724
19818CNL    PA430051  12.422   2.364   9.431  0.2115  0.2112 -0.1964
19819CNL    PA130052   4.409   3.674   6.552  0.2661 -0.1757  0.0523
19819CNL    PA230053   4.118   3.776   6.506 -0.2219 -0.1926  0.3095
19819CNL    PA330054   4.232   3.532   6.478  0.4204  0.2202 -0.1356
19819CNL    PA430055   4.124   3.612   6.639 -0.3532 -0.3101  0.1845
19820CNL    PA130056   0.307   0.337   7.092  0.0806 -0.0876  0.1035
19820CNL    PA230057   0.206   0.214   6.823 -0.1885 -0.2543  0.4112
19820CNL    PA330058   0.084   0.372   6.996  0.2670 -0.1427 -0.1046
19820CNL    PA430059   0.183   0.464   6.826  0.1845 -0.1234 -0.2410
19821CNL    PA130060   6.459  13.176   4.724  0.2590  0.1307 -0.1967
19821CNL    PA230061   6.730  13.082   4.610  0.1022 -0.2017  0.2188
19821CNL    PA330062   6.643  13.333   4.730  0.2373  0.4136  0.2647
19821CNL    PA430063   6.716  13.164   4.826  0.3504 -0.1805  0.2134
19822CNL    PA130064  14.352  12.542   4.532  0.1512  0.3650 -0.0455
19822CNL    PA230065  14.446  12.559   4.828 -0.2232  0.1038 -0.4892
19822CNL    PA330066  14.567  12.518   4.603 -0.3820  0.1448  0.0443
19822CNL    PA430067  14.534  12.714   4.648  0.4242 -0.3957  0.2536
19823CNL    PA130068  14.728  13.806   6.039 -0.0409  0.0533 -0.0776
19823CNL    PA230069  15.018  13.782   6.083  0.0446  0.0714 -0.0656
19823CNL    PA330070  14.832  13.624   5.939 -0.1694  0.0500  0.4109
19823CNL    PA430071  14.951  13.822   5.854 -0.0575  0.0725 -0.0043
19824CNL    PA130072   8.013   7.246   7.748  0.0171  0.5911 -0.1323
19824CNL    PA230073   7.925   7.517   7.623 -0.0116  0.0241  0.1277
19824CNL    PA330074   8.056   7.279   7.516 -0.1014 -0.4004 -0.2561
19824CNL    PA430075   7.879   7.289   7.504  0.3547 -0.2091 -0.0801
19825CNL    PA130076   8.774   7.031   8.048 -0.2692 -0.3334 -0.0417
19825CNL    PA230077   8.670   6.807   7.873  0.0735 -0.0840  0.3917
19825CNL    PA330078   8.721   7.068   7.838  0.0849  0.3428  0.3601
19825CNL    PA430079   8.858   6.931   7.791  0.0717 -0.3012 -0.4315
19826CNL    PA130080   7.752   1.452   9.379  0.1898 -0.0073 -0.2692
19826CNL    PA230081   7.501   1.436   9.182  0.2185 -0.1875 -0.0981
19826CNL    PA330082   7.682   1.261   9.261 -0.6921 -0.0095 -0.2439
19826CNL    PA430083   7.488   1.268   9.388 -0.2315 -0.5763 -0.1823
19827CNL    PA130084   1.356  10.375   3.536 -0.2095 -0.0583 -0.1151
19827CNL    PA230085   1.344  10.188   3.799  0.2473 -0.1572  0.1355
19827CNL    PA330086   1.445  10.409   3.764  0.3758 -0.0564 -0.0971
19827CNL    PA430087   1.263  10.402   3.804 -0.0081  0.4146 -0.2057
19828CNL    PA130088   7.060   1.056   8.990 -0.0034 -0.1674 -0.0439
19828CNL    PA230089   7.273   1.131   8.772 -0.0565  0.0956 -0.0065
19828CNL    PA330090   7.231   1.183   9.047 -0.2421  0.6497 -0.5031
19828CNL    PA430091   7.347   0.992   8.982 -0.3064  0.0641  0.2842
19829CNL    PA130092   3.229   1.636  11.202  0.0424  0.2380 -0.1098
19829CNL    PA230093   3.425   1.632  10.941  0.3891 -0.0156 -0.2795
19829CNL    PA330094   3.302   1.443  11.118 -0.1407  0.1401 -0.1078
19829CNL    PA430095   3.218   1.517  10.943 -0.2884  0.1407  0.3913
19830CNL    PA130096   8.519   9.189   8.457  0.1680  0.2071 -0.1163
19830CNL    PA230097   8.808   9.275   8.519 -0.0198  0.2476  0.0861
19830CNL    PA330098   8.590   9.327   8.653 -0.2012 -0.0238 -0.0951
19830CNL    PA430099   8.706   9.177   8.719 -0.0085  0.0056  0.1738
19831CNL    PA130100   5.478   1.883   8.504  0.2565  0.0760  0.1994
19831CNL    PA230101   5.402   1.671   8.702 -0.1524  0.2314  0.1311
19831CNL    PA330102   5.497   1.915   8.725 -0.0040  0.2869 -0.1283
19831CNL    PA430103   5.285   1.877   8.725  0.2960 -0.2016  0.0604
19832CNL    PA130104   4.814  10.905   8.670  0.0805  0.1069  0.1166
19832CNL    PA230105   5.069  10.945   8.488  0.0920 -0.0454 -0.2124
19832CNL    PA330106   4.990  10.714   8.659  0.1247 -0.2529 -0.2877
19832CNL    PA430107   4.921  10.743   8.426 -0.1001 -0.0672 -0.4383
19833CNL    PA130108  13.290   7.457   7.822 -0.1297  0.0840 -0.0504
19833CNL    PA230109  13.280   7.679   7.612  0.0985  0.3771 -0.1097
19833CNL    PA330110  13.085   7.539   7.712  0.0688 -0.0143 -0.3599
19833CNL    PA430111  13.172   7.715   7.795 -0.2203  0.0640 -0.0566
19834CNL    PA130112  14.968   9.904   3.968 -0.0272  0.0872  0.1304
19834CNL    PA230113  14.773   9.738   4.099 -0.3326  0.0037 -0.1094
19834CNL    PA330114  15.032   9.748   4.119  0.3155 -0.0977 -0.0889
19834CNL    PA430115  14.916   9.908   4.255  0.1845  0.1749  0.5730
19835CNL    PA130116   1.278   2.631   2.211 -0.3197 -0.1708 -0.1341
19835CNL    PA230117   1.121   2.672   1.947 -0.2862  0.1730 -0.2021
19835CNL    PA330118   1.066   2.642   2.189 -0.0296 -0.1128 -0.3661
19835CNL    PA430119   1.092   2.862   2.111 -0.1255  0.2540  0.1796
19836CNL    PA130120   9.735  12.443   4.691  0.0777 -0.3390  0.0428
19836CNL    PA230121   9.603  12.291   4.922  0.2538  0.2268 -0.3155
19836CNL    PA330122   9.756  12.216   4.720  0.1309  0.1173 -0.0095
19836CNL    PA430123   9.859  12.319   4.911  0.3810 -0.0211 -0.0785
19837CNL    PA130124   1.355  13.251   8.247  0.1915 -0.2995 -0.0281
19837CNL    PA230125   1.391  13.297   7.923 -0.1442  0.5805 -0.2366
19837CNL    PA330126   1.479  13.097   8.136  0.2024 -0.1325  0.1949
19837CNL    PA430127   1.290  13.086   7.995 -0.2231  0.3354  0.1997
19838CNL    PA130128  10.090  15.465  11.763  0.0649 -0.0224  0.2329
19838CNL    PA230129  10.302  15.470  11.542 -0.4529 -0.2423 -0.0952
19838CNL    PA330130  10.053  15.357  11.543  0.1164  0.1634 -0.3406
19838CNL    PA430131  10.098  15.556  11.496 -0.1627  0.2827  0.4685
19839CNL    PA130132  14.139   4.135   4.767 -0.1198  0.1820 -0.1695
19839CNL    PA230133  14.339   3.977   4.571  0.0038  0.0173  0.0630
19839CNL    PA330134  14.366   4.134   4.790  0.3971  0.4227  0.3267
19839CNL    PA430135  14.345   3.914   4.798  0.3087  0.2231  0.5316
19840CNL    PA130136   2.426  14.325   4.679  0.2513 -0.0353 -0.0584
19840CNL    PA230137   2.539  14.555   4.854 -0.1227  0.1026 -0.1991
19840CNL    PA330138   2.362  14.382   4.885 -0.3487 -0.1032  0.2528
19840CNL    PA430139   2.548  14.301   4.927 -0.6027 -0.2017 -0.2798
19841CNL    PA130140  15.233  12.299   7.847 -0.4571 -0.0094 -0.1303
19841CNL    PA230141  15.254  12.518   8.077  0.3807  0.1780 -0.7797
19841CNL    PA330142  15.290  12.517   7.829 -0.3416  0.0558 -0.1567
19841CNL    PA430143  15.095  12.576   7.916  0.2580  0.5578 -0.0566
19842CNL    PA130144  13.168   3.222   8.788  0.0389 -0.1699 -0.1485
19842CNL    PA230145  13.114   3.207   8.474  0.1530 -0.0044  0.0360
19842CNL    PA330146  12.970   3.132   8.698 -0.2261  0.0637  0.0531
19842CNL    PA430147  12.935   3.348   8.604 -0.3485 -0.3750  0.3871
19843CNL    PA130148  14.069   4.018  13.259  0.0404 -0.0689 -0.0179
19843CNL    PA230149  14.000   3.753  13.428  0.1718 -0.0773 -0.1183
19843CNL    PA330150  13.919   3.987  13.440  0.1158 -0.0950 -0.0266
19843CNL    PA430151  13.833   3.827  13.298 -0.3376 -0.6804 -0.0675
19844CNL    PA130152  13.074  10.134   4.241 -0.0440 -0.1803 -0.1167
19844CNL    PA230153  13.281  10.115   4.465  0.1426 -0.0742 -0.1984
19844CNL    PA330154  13.080  10.278   4.423  0.4345 -0.3937 -0.5072
19844CNL    PA430155  13.029  10.100   4.525  0.1110 -0.2267 -0.2722
19845CNL    PA130156   2.265   3.796   7.725  0.1360 -0.0082 -0.0079
19845CNL    PA230157   2.481   3.971   7.637 -0.3990  0.4031  0.3696
19845CNL    PA330158   2.247   4.040   7.718 -0.2189 -0.0179 -0.0226
19845CNL    PA430159   2.403   4.005   7.874 -0.0525  0.5258  0.2118
19846CNL    PA130160  10.644  11.313   0.715  0.3097  0.0101  0.1171
19846CNL    PA230161  10.343  11.379   0.809  0.1861 -0.1963 -0.0172
19846CNL    PA330162  10.530  11.530   0.667  0.3257 -0.1295  0.2037
19846CNL    PA430163  10.400  11.400   0.565  0.1567  0.1075  0.1247
19847CNL    PA130164   1.531   8.010   3.958 -0.1351  0.0329 -0.3568
19847CNL    PA230165   1.360   8.200   4.124 -0.2135  0.3063 -0.0416
19847CNL    PA330166   1.325   8.018   3.936  0.2119  0.1310  0.0584
19847CNL    PA430167   1.314   7.940   4.133 -0.0074  0.3609 -0.2079
19848CNL    PA130168  14.981  12.342   1.112  0.1654  0.1390  0.0110
19848CNL    PA230169  15.125  12.163   1.314  0.2075  0.2339 -0.4755
19848CNL    PA330170  15.020  12.389   1.325 -0.2588  0.0736  0.4850
19848CNL    PA430171  14.901  12.223   1.384  0.4845  0.1416 -0.0782
19849CNL    PA130172   1.670   1.388   5.182 -0.4047 -0.0363  0.1909
19849CNL    PA230173   1.471   1.217   5.368  0.0303 -0.4922 -0.3321
19849CNL    PA330174   1.618   1.423   5.418 -0.4001  0.1573  0.2615
19849CNL    PA430175   1.452   1.468   5.354 -0.0328 -0.1702 -0.1166
19850CNL    PA130176  14.641   0.538   7.268 -0.2791  0.2211  0.0811
19850CNL    PA230177  14.777   0.609   7.002  0.1225 -0.2136 -0.2533
19850CNL    PA330178  14.546   0.502   7.073  0.1352 -0.3873 -0.0636
19850CNL    PA430179  14.575   0.710   7.058  0.0415 -0.0070  0.2085
19851CNL    PA130180   5.539  10.605   9.220 -0.0036  0.0281 -0.0100
19851CNL    PA230181   5.627  10.895   9.253 -0.4767  0.0503 -0.0078
19851CNL    PA330182   5.672  10.713   9.065 -0.1324 -0.3338  0.1768
19851CNL    PA430183   5.469  10.830   9.082  0.3125  0.0249 -0.0881
19852CNL    PA130184   1.884   8.708   5.041  0.1922  0.0064  0.0358
19852CNL    PA230185   1.779   8.788   5.319  0.0730  0.1144  0.1838
19852CNL    PA330186   1.998   8.835   5.195 -0.0734 -0.3545 -0.3908
19852CNL    PA430187   1.838   8.967   5.168 -0.0042 -0.2133 -0.1808
19853CNL    PA130188   7.445  11.180   5.085  0.2096 -0.1024  0.2545
19853CNL    PA230189   7.473  11.303   5.358  0.0274  0.1933 -0.0431
19853CNL    PA330190   7.541  11.383   5.095  0.0593  0.4236  0.1091
19853CNL    PA430191   7.357  11.432   5.190  0.1598  0.1074  0.1107
19854CNL    PA130192   4.781   9.974   8.448  0.1150 -0.0097 -0.1450
19854CNL    PA230193   4.651  10.073   8.184 -0.2537  0.1481 -0.2439
19854CNL    PA330194   4.820  10.199   8.331  0.3836  0.4418 -0.0768
19854CNL    PA430195   4.881  10.050   8.187 -0.0094  0.1899  0.2865
19855CNL    PA130196   1.199   7.835   4.562 -0.2799  0.1257 -0.0255
19855CNL    PA230197   0.895   7.770   4.521 -0.3485  0.0320 -0.5253
19855CNL    PA330198   1.051   7.993   4.556 -0.0547  0.0824  0.3683
19855CNL    PA430199   1.003   7.906   4.367  0.0477  0.4248 -0.0180
19856OST    PA130200  13.767  15.028  10.091 -0.1362 -0.3349 -0.1837
19856OST    PA230201  14.028  15.260  10.001 -0.1675  0.1394  0.1290
19856OST    PA330202  13.920  15.435  10.204 -0.1584  0.2842  0.4311
19856OST    PA430203  14.191  15.363   9.979 -0.1755 -0.1764 -0.0257
19856OST    PA530204  14.245  15.206   9.696  0.5812  0.0140 -0.6492
19856OST    PA630205  14.063  15.052   9.693 -0.0107  0.1085 -0.0499
19857OST    PA130206   7.058   5.963   4.173  0.1454 -0.1188  0.1954
19857OST    PA230207   7.097   5.642   4.002  0.1013 -0.2905 -0.0044
19857OST    PA330208   7.319   5.618   4.171  0.1528  0.0246  0.3500
19857OST    PA430209   7.004   5.443   4.055  0.0057 -0.2335  0.0774
19857OST    PA530210   6.845   5.488   3.776  0.1050 -0.0402 -0.2957
19857OST    PA630211   6.924   5.675   3.698  0.0714 -0.1370  0.2057
19858OST    PA130212   8.692  14.958  10.732 -0.0877  0.0098 -0.0488
19858OST    PA230213   8.591  14.975  11.087  0.0659  0.2545 -0.2273
19858OST    PA330214   8.586  14.670  11.116 -0.0493 -0.3372  0.3182
19858OST    PA430215   8.650  14.983  11.276  0.0896 -0.0296 -0.3634
19858OST    PA530216   8.489  15.241  11.352 -0.4501 -0.2641 -0.1400
19858OST    PA630217   8.401  15.280  11.135  0.2254 -0.1268 -0.1213
19859OST    PA130218  12.681  15.230   4.916 -0.0027 -0.2232 -0.1239
19859OST    PA230219  12.735  15.146   4.557 -0.1123 -0.0170  0.0435
19859OST    PA330220  12.634  14.884   4.580  0.0403 -0.1108  0.2559
19859OST    PA430221  12.836  15.106   4.358 -0.1997 -0.7164 -0.1269
19859OST    PA530222  12.900  15.413   4.279 -0.0980 -0.3766 -0.0509
19859OST    PA630223  12.769  15.502   4.467 -0.7283  0.3103 -0.3730
19860OST    PA130224  12.974   9.859   3.878  0.3444 -0.2331  0.0287
19860OST    PA230225  13.226   9.630   3.794 -0.0986  0.2953 -0.3634
19860OST    PA330226  12.956   9.488   3.770  0.0335 -0.1890 -0.3448
19860OST    PA430227  13.317   9.466   3.879  0.2166  0.0467 -0.0398
19860OST    PA530228  13.492   9.691   4.077  0.2499 -0.0043  0.2161
19860OST    PA630229  13.421   9.856   3.942  0.2694  0.0599  0.0536
19861OST    PA130230  10.758   6.158  11.820 -0.0961 -0.0672  0.1428
19861OST    PA230231  10.921   6.287  11.530  0.0219 -0.1795 -0.0282
19861OST    PA330232  10.678   6.478  11.542 -0.3117  0.1259 -0.2475
19861OST    PA430233  10.975   6.327  11.348 -0.4520  0.2449  0.0706
19861OST    PA530234  11.229   6.147  11.419  0.0437  0.3138 -0.1542
19861OST    PA630235  11.204   6.113  11.648  0.0014  0.1366 -0.0553
19862OST    PA130236   8.669  10.325   8.432 -0.1619 -0.2729 -0.1545
19862OST    PA230237   8.785   9.994   8.428 -0.2830  0.0112  0.0572
19862OST    PA330238   9.012  10.086   8.281  0.0899 -0.0500  0.7297
19862OST    PA430239   8.874   9.841   8.530 -0.2021 -0.1774 -0.0053
19862OST    PA530240   8.572   9.708   8.623  0.4812 -0.1939  0.2286
19862OST    PA630241   8.467   9.926   8.565  0.1129 -0.1322  0.0653
19863OST    PA130242  12.028   1.144   4.846 -0.1791 -0.1430  0.0043
19863OST    PA230243  11.862   1.447   4.942 -0.1998 -0.1876 -0.1017
19863OST    PA330244  11.659   1.298   4.768 -0.3182  0.2311 -0.1793
19863OST    PA430245  11.773   1.613   4.941  0.1189  0.0518  0.1225
19863OST    PA530246  11.938   1.693   5.238 -0.2604  0.0848  0.0646
19863OST    PA630247  12.054   1.460   5.230  0.1881  0.2564  0.2349
19864OST    PA130248   3.350   7.689   4.315  0.1671 -0.4784  0.0721
19864OST    PA230249   3.071   7.549   4.118  0.0030  0.0967  0.3556
19864OST    PA330250   3.011   7.855   4.080 -0.2213  0.2536 -0.3383
19864OST    PA430251   2.883   7.494   4.195  0.0758 -0.0157  0.1665
19864OST    PA530252   2.992   7.203   4.274  0.0444  0.1349  0.3230
19864OST    PA630253   3.214   7.263   4.286 -0.1121  0.0106  0.2570
19865OST    PA130254  12.544  11.954   8.931  0.1691  0.0993 -0.1398
19865OST    PA230255  12.234  11.789   8.984  0.0598  0.0688 -0.0232
19865OST    PA330256  12.404  11.575   9.145  0.6957 -0.2217  0.7204
19865OST    PA430257  12.077  11.639   8.927 -0.1542 -0.0034 -0.1723
19865OST    PA530258  11.982  11.822   8.704 -0.1964  0.0644 -0.4204
19865OST    PA630259  12.097  12.014   8.778  0.3238  0.1524  0.2333
19866OST    PA130260   7.570  12.177   3.626  0.1442 -0.1519 -0.2183
19866OST    PA230261   7.850  11.995   3.734 -0.2219  0.0246  0.0379
19866OST    PA330262   8.015  12.250   3.787  0.5721  0.1031 -0.1100
19866OST    PA430263   8.016  11.879   3.811 -0.0092  0.0158 -0.1971
19866OST    PA530264   7.825  11.662   3.949  0.0123 -0.1742 -0.0811
19866OST    PA630265   7.614  11.740   3.881 -0.5280  0.0372  0.0706
19867OST    PA130266  10.531  11.065   3.097  0.1730  0.0676  0.3122
19867OST    PA230267  10.620  10.838   3.313 -0.1661 -0.1656  0.1004
19867OST    PA330268  10.714  10.627   3.155 -0.3978  0.0202  0.4206
19867OST    PA430269  10.563  10.728   3.488 -0.2363 -0.0992  0.3408
19867OST    PA530270  10.652  10.968   3.672  0.4456 -0.3742  0.6009
19867OST    PA630271  10.739  11.117   3.509 -0.1801  0.1797  0.1396
19868OST    PA130272   9.270   1.039  11.614  0.3809 -0.2953 -0.0543
19868OST    PA230273   9.545   0.823  11.740 -0.1655  0.1155  0.0911
19868OST    PA330274   9.737   1.083  11.729 -0.2614  0.4954 -0.4762
19868OST    PA430275   9.686   0.700  11.829  0.0214 -0.4761  0.3770
19868OST    PA530276   9.595   0.438  11.680 -0.1942  0.2708  0.0738
19868OST    PA630277   9.417   0.541  11.543 -0.1946 -0.3581 -0.2708
19869OST    PA130278   6.318   2.391  10.065 -0.3650 -0.0630 -0.0435
19869OST    PA230279   6.190   2.628   9.850  0.1887  0.1810  0.0387
19869OST    PA330280   6.000   2.386   9.844  0.2128  0.0175  0.2267
19869OST    PA430281   6.131   2.689   9.668  0.2262 -0.0285 -0.2161
19869OST    PA530282   6.406   2.835   9.650  0.4937  0.1739 -0.2312
19869OST    PA630283   6.451   2.878   9.884 -0.0608  0.0894 -0.1142
19870OST    PA130284   1.630   9.817   3.906  0.0443  0.1331 -0.4614
19870OST    PA230285   1.678   9.826   3.549 -0.0417 -0.0730 -0.0814
19870OST    PA330286   1.921   9.918   3.636 -0.0296 -0.2733  0.0742
19870OST    PA430287   1.676   9.919   3.351 -0.1425 -0.1304 -0.2228
19870OST    PA530288   1.473   9.712   3.211  0.0610 -0.3688  0.2321
19870OST    PA630289   1.471   9.573   3.418  0.7322  0.1786 -0.4007
19871OST    PA130290   0.614   5.045   4.055 -0.3805 -0.2440 -0.1563
19871OST    PA230291   0.705   4.923   3.713  0.1538 -0.0343 -0.2881
19871OST    PA330292   0.572   4.660   3.764 -0.3735 -0.0380  0.1224
19871OST    PA430293   0.899   4.855   3.658  0.0094 -0.1004 -0.1014
19871OST    PA530294   0.973   5.157   3.567  0.1946  0.1445  0.0629
19871OST    PA630295   0.785   5.281   3.659  0.0792  0.1576 -0.1145
19872OST    PA130296   6.256   1.202  13.123  0.1514 -0.1057 -0.2988
19872OST    PA230297   6.062   1.504  13.166  0.1218 -0.3092 -0.0742
19872OST    PA330298   6.097   1.538  12.863 -0.0818  0.2129 -0.2162
19872OST    PA430299   6.033   1.720  13.194 -0.0515 -0.2699 -0.2308
19872OST    PA530300   6.114   1.671  13.505  0.1286 -0.0544 -0.4368
19872OST    PA630301   6.170   1.427  13.507  0.1674 -0.2329 -0.1486
19873OST    PA130302   1.174   5.764   9.199  0.1733 -0.1230 -0.1534
19873OST    PA230303   1.425   5.632   9.435 -0.0091  0.0514  0.1001
19873OST    PA330304   1.661   5.806   9.491  0.1438 -0.1906  0.4579
19873OST    PA430305   1.442   5.540   9.576 -0.0859  0.2465 -0.1336
19873OST    PA530306   1.358   5.249   9.549  0.2377  0.1956 -0.5212
19873OST    PA630307   1.339   5.289   9.297  0.1713  0.1778 -0.4843
19874OST    PA130308   2.953   5.527  12.079 -0.0952 -0.1332  0.1293
19874OST    PA230309   3.149   5.785  11.955  0.3200  0.1398  0.2403
19874OST    PA330310   2.985   5.646  11.733 -0.3247 -0.2243  0.0194
19874OST    PA430311   3.175   5.948  11.864 -0.6878 -0.2452 -0.1746
19874OST    PA530312   3.130   6.120  12.144  0.1196  0.2777  0.0541
19874OST    PA630313   3.135   5.937  12.302  0.0973 -0.0051  0.1961
19875OST    PA130314  10.564  12.206   1.720  0.4034 -0.1221 -0.4139
19875OST    PA230315  10.564  11.871   1.843 -0.0568 -0.0547  0.0790
19875OST    PA330316  10.749  11.892   2.047 -0.0063 -0.4206  0.4226
19875OST    PA430317  10.507  11.670   1.898 -0.0040 -0.2729  0.0576
19875OST    PA530318  10.258  11.682   1.711  0.3579 -0.4923 -0.4476
19875OST    PA630319  10.221  11.912   1.696  0.0292  0.0943  0.1173
19876OST    PA130320   8.508   9.142  13.330 -0.2602  0.0991  0.1132
19876OST    PA230321   8.503   9.478  13.159 -0.0253  0.2466 -0.1568
19876OST    PA330322   8.629   9.594  13.403  0.3953  0.1786  0.2582
19876OST    PA430323   8.577   9.612  13.022 -0.1432 -0.2758 -0.0759
19876OST    PA530324   8.372   9.488  12.798 -0.4123  0.1640  0.3071
19876OST    PA630325   8.283   9.315  12.904 -0.1679 -0.1307  0.3614
19877OST    PA130326   8.361   9.325   4.219 -0.1021  0.3009  0.2243
19877OST    PA230327   8.594   9.327   4.498 -0.0220 -0.2464 -0.1042
19877OST    PA330328   8.473   9.582   4.587  0.1585  0.1736 -0.0303
19877OST    PA430329   8.777   9.374   4.586 -0.1828  0.0064 -0.2053
19877OST    PA530330   8.921   9.101   4.452  0.2648  0.0975 -0.0568
19877OST    PA630331   8.706   9.038   4.368 -0.2649  0.5981  0.1288
19878OST    PA130332   2.881  10.524   1.875 -0.1054 -0.3047 -0.2460
19878OST    PA230333   2.910  10.877   1.950  0.0057  0.0433 -0.2204
19878OST    PA330334   3.133  10.865   1.763  0.7971 -0.0873 -0.1422
19878OST    PA430335   2.837  11.079   1.915 -0.2278  0.1954 -0.0531
19878OST    PA530336   2.575  10.984   2.064  0.4780  0.1788 -0.2282
19878OST    PA630337   2.616  10.753   2.106 -0.0178 -0.1717  0.1430
19879OST    PA130338  13.208  13.522  11.829  0.0834  0.2569  0.0803
19879OST    PA230339  13.448  13.632  11.585  0.3808 -0.2819  0.1572
19879OST    PA330340  13.200  13.781  11.526  0.1507  0.0618  0.1208
19879OST    PA430341  13.578  13.797  11.534  0.2361 -0.0568 -0.0735
19879OST    PA530342  13.822  13.681  11.689  0.5647  0.2623  0.2775
19879OST    PA630343  13.674  13.504  11.802  0.0080  0.1152 -0.2894
19880OST    PA130344   6.684  14.920  13.255 -0.0663  0.0776  0.4132
19880OST    PA230345   6.546  15.226  13.242  0.1854  0.1135 -0.5074
19880OST    PA330346   6.714  15.308  13.482 -0.2906  0.2714 -0.3101
19880OST    PA430347   6.365  15.253  13.335  0.2743 -0.1390 -0.3347
19880OST    PA530348   6.177  15.181  13.072 -0.1234  0.0362  0.0259
19880OST    PA630349   6.354  15.126  12.945 -0.0304  0.1339 -0.1449
19881OST    PA130350   9.137   9.775  12.762 -0.0183  0.3060  0.2345
19881OST    PA230351   8.978   9.469  12.652 -0.0957 -0.0111 -0.4372
19881OST    PA330352   9.254   9.359  12.612 -0.4503 -0.2486 -0.4381
19881OST    PA430353   8.887   9.325  12.520  0.0487 -0.2856  0.5147
19881OST    PA530354   8.628   9.527  12.514  0.1819 -0.0299  0.1361
19881OST    PA630355   8.693   9.675  12.650  0.1822 -0.1048 -0.0906
19882OST    PA130356   3.658  13.087  10.593 -0.0592 -0.0885  0.0156
19882OST    PA230357   3.971  13.009  10.481 -0.1062 -0.1623 -0.1610
19882OST    PA330358   4.086  12.807  10.627 -0.0212 -0.1619  0.1419
19882OST    PA430359   4.058  12.940  10.303 -0.1346 -0.0123  0.1755
19882OST    PA530360   4.079  13.255  10.189 -0.2171  0.0752 -0.6546
19882OST    PA630361   3.998  13.361  10.367  0.4122 -0.1488 -0.2539
19883OST    PA130362   6.762   1.344   3.298 -0.1562 -0.1721  0.1446
19883OST    PA230363   6.987   1.527   3.532 -0.1019  0.1211 -0.2279
19883OST    PA330364   7.192   1.606   3.336 -0.2345  0.1096 -0.7443
19883OST    PA430365   6.994   1.704   3.633 -0.1244  0.0966 -0.2404
19883OST    PA530366   6.798   1.570   3.872 -0.5542 -0.1289 -0.1090
19883OST    PA630367   6.760   1.368   3.780  0.3233  0.0788 -0.2816
19884OST    PA130368   5.642   6.690   2.272 -0.0169 -0.0041 -0.1772
19884OST    PA230369   5.534   6.831   2.587 -0.0603  0.1427  0.1372
19884OST    PA330370   5.297   6.691   2.470  0.0514 -0.2924  0.3577
19884OST    PA430371   5.472   6.817   2.795  0.3070  0.1219  0.3195
19884OST    PA530372   5.790   6.949   2.849 -0.0266  0.2766  0.1641
19884OST    PA630373   5.853   6.962   2.615  0.1728 -0.0452 -0.2055
19885OST    PA130374   7.909  13.172   1.170  0.2168  0.0207 -0.1431
19885OST    PA230375   8.039  12.928   1.364  0.1303 -0.1237  0.0886
19885OST    PA330376   8.202  13.156   1.411  0.2967 -0.2095 -0.0045
19885OST    PA430377   8.142  12.807   1.499  0.0341 -0.0133 -0.3081
19885OST    PA530378   7.887  12.620   1.432 -0.1784  0.3577  0.1351
19885OST    PA630379   7.756  12.752   1.290  0.1236  0.4265 -0.0507
19886OST    PA130380  14.448   5.832  10.452  0.1475  0.2135  0.3561
19886OST    PA230381  14.501   5.778  10.102 -0.2543 -0.0569 -0.2861
19886OST    PA330382  14.798   5.752  10.079  0.2562  0.1368  0.1311
19886OST    PA430383  14.449   5.655   9.951 -0.2359  0.0459  0.1558
19886OST    PA530384  14.183   5.824   9.902  0.2368  0.2156  0.0113
19886OST    PA630385  14.223   6.007  10.047  0.4042  0.2900 -0.1725
19887OST    PA130386   0.125   0.288  10.261 -0.2113  0.0351 -0.0365
19887OST    PA230387  -0.116   0.101  10.414  0.1293  0.2869 -0.1069
19887OST    PA330388   0.006  -0.164  10.404  0.5739  0.3196 -0.1955
19887OST    PA430389  -0.270   0.057  10.588 -0.4395 -0.1128  0.3385
19887OST    PA530390  -0.485   0.278  10.561 -0.2651 -0.3740  0.0636
19887OST    PA630391  -0.329   0.349  10.342  0.1820 -0.0908  0.1540
19888OST    PA130392   2.525  14.487   0.131  0.0097 -0.2612  0.0643
19888OST    PA230393   2.365  14.451  -0.176  0.0272  0.2915  0.0178
19888OST    PA330394   2.500  14.569  -0.419  0.2865  0.2866 -0.0771
19888OST    PA430395   2.263  14.311  -0.285 -0.1518 -0.0072  0.0702
19888OST    PA530396   1.983  14.318  -0.164  0.2016  0.3331 -0.1064
19888OST    PA630397   2.078  14.448   0.027  0.0362  0.2805  0.0427
19889OST    PA130398   4.715   1.658   3.849 -0.0883 -0.3567 -0.0238
19889OST    PA230399   5.005   1.552   3.701 -0.3052  0.2838  0.0853
19889OST    PA330400   4.973   1.515   3.401 -0.1699  0.1521 -0.1499
19889OST    PA430401   5.204   1.606   3.697  0.1122 -0.0595 -0.2399
19889OST    PA530402   5.270   1.520   3.994  0.4132 -0.0744  0.3059
19889OST    PA630403   5.066   1.465   4.049 -0.0673  0.3664 -0.0713
19890OST    PA130404   6.530  13.195  11.352  0.0839  0.0535  0.1358
19890OST    PA230405   6.398  13.349  11.633  0.3490 -0.0906  0.1624
19890OST    PA330406   6.568  13.609  11.623 -0.1009  0.5958 -0.0867
19890OST    PA430407   6.275  13.406  11.801 -0.0883  0.1625 -0.0107
19890OST    PA530408   6.259  13.122  11.930 -0.3473 -0.3917  0.1144
19890OST    PA630409   6.444  13.014  11.791  0.3026  0.1744 -0.0101
19891OST    PA130410   9.359   7.273   8.961 -0.1358  0.3617  0.3107
19891OST    PA230411   9.207   6.959   9.008 -0.4444 -0.0911  0.2249
19891OST    PA330412   8.984   7.149   8.979  0.2556 -0.2705  0.2008
19891OST    PA430413   9.122   6.839   9.160  0.0663  0.1191  0.4721
19891OST    PA530414   9.373   6.775   9.337 -0.0772  0.4798  0.5720
19891OST    PA630415   9.503   6.848   9.172  0.0167 -0.0618 -0.2911
19892OST    PA130416  10.533  12.952   4.333 -0.2610  0.0557  0.0085
19892OST    PA230417  10.713  12.726   4.134  0.3465  0.4839  0.0348
19892OST    PA330418  10.609  12.482   4.282  0.3928  0.0060 -0.1355
19892OST    PA430419  10.904  12.650   4.091  0.0963  0.4402  0.0788
19892OST    PA530420  11.054  12.913   3.986  0.1502  0.6738 -0.3605
19892OST    PA630421  10.861  13.065   4.066  0.1822  0.1600 -0.1577
19893OST    PA130422  13.412   3.377   2.097 -0.0591  0.1391  0.2865
19893OST    PA230423  13.106   3.267   2.206  0.2487  0.1117 -0.1100
19893OST    PA330424  13.013   3.516   2.080 -0.3048 -0.3326  0.1092
19893OST    PA430425  12.975   3.275   2.328 -0.0586 -0.2047  0.0404
19893OST    PA530426  13.131   3.055   2.515 -0.1721 -0.2536  0.5639
19893OST    PA630427  13.244   2.986   2.335  0.2880 -0.0157 -0.1323
19894OST    PA130428   0.047   0.484   9.627  0.1154  0.0466 -0.1231
19894OST    PA230429   0.122   0.164   9.437  0.0664 -0.1210  0.2434
19894OST    PA330430   0.063   0.341   9.200 -0.0439  0.0179 -0.1601
19894OST    PA430431   0.002   0.011   9.385 -0.0334  0.3673  0.0249
19894OST    PA530432   0.114  -0.112   9.655 -0.0310  0.1005  0.1673
19894OST    PA630433   0.294   0.033   9.708  0.1268 -0.3157 -0.1218
19895OST    PA130434   0.863   3.744  10.922 -0.1906  0.1643 -0.2019
19895OST    PA230435   0.677   3.725  11.244 -0.0883 -0.5878 -0.1284
19895OST    PA330436   0.763   4.016  11.274 -0.0647  0.1683 -0.2862
19895OST    PA430437   0.763   3.675  11.413  0.4036  0.0720 -0.1304
19895OST    PA530438   0.619   3.378  11.430  0.1891  0.0006 -0.0471
19895OST    PA630439   0.600   3.377  11.197 -0.0698  0.0636  0.0785
19896OST    PA130440  15.148   1.580  13.400 -0.0948  0.1458  0.0005
19896OST    PA230441  15.512   1.584  13.502  0.0234 -0.0903  0.0506
19896OST    PA330442  15.438   1.835  13.627  0.7675 -0.0994 -0.0961
19896OST    PA430443  15.676   1.559  13.617 -0.0303 -0.0310  0.0073
19896OST    PA530444  15.667   1.247  13.606 -0.3075  0.1320  0.6703
19896OST    PA630445  15.479   1.233  13.489  0.4647 -0.0217 -0.3535
19897OST    PA130446   4.016   2.948   8.508 -0.2589 -0.0842 -0.0876
19897OST    PA230447   3.983   3.114   8.821 -0.1958  0.0275 -0.1068
19897OST    PA330448   4.062   3.362   8.652 -0.4380 -0.1053 -0.2331
19897OST    PA430449   3.870   3.205   8.941  0.1338  0.1520 -0.3003
19897OST    PA530450   3.832   2.944   9.106  0.3028 -0.0434 -0.4167
19897OST    PA630451   3.986   2.808   8.997 -0.0499  0.1247 -0.2240
19898OST    PA130452  11.131  12.090   9.735  0.0552  0.2248 -0.0210
19898OST    PA230453  11.158  11.780   9.939 -0.0279  0.5564  0.0404
19898OST    PA330454  11.287  11.964  10.103 -0.0949  0.0276 -0.3899
19898OST    PA430455  11.073  11.660  10.093 -0.8590  0.4226 -0.2437
19898OST    PA530456  10.990  11.445   9.919  0.0056 -0.0544 -0.0582
19898OST    PA630457  11.058  11.502   9.703  0.2007  0.2913 -0.3006
19899OST    PA130458   0.727   9.069   9.390 -0.1600  0.0084  0.1359
19899OST    PA230459   0.556   8.969   9.084  0.0757 -0.3613  0.1197
19899OST    PA330460   0.799   9.089   8.968  0.1013 -0.5496 -0.5003
19899OST    PA430461   0.483   8.913   8.936 -0.1861 -0.0592  0.1221
19899OST    PA530462   0.191   8.912   9.067  0.1233  0.1953  0.4847
19899OST    PA630463   0.250   9.017   9.286 -0.0415 -0.0273 -0.2246
19900OST    PA130464   0.493   1.395   3.523 -0.1059  0.0605  0.1757
19900OST    PA230465   0.691   1.426   3.784  0.2399 -0.1507 -0.0118
19900OST    PA330466   0.628   1.712   3.726  0.3290 -0.6537  0.2267
19900OST    PA430467   0.880   1.469   3.854 -0.0884  0.0074  0.1408
19900OST    PA530468   0.901   1.160   3.967  0.2076 -0.1843 -0.3113
19900OST    PA630469   0.655   1.120   3.986  0.1900 -0.2943  0.1708
19901OST    PA130470  15.172  12.948   4.762  0.1861 -0.1162 -0.1920
19901OST    PA230471  14.836  13.005   4.669 -0.1856  0.2107 -0.0877
19901OST    PA330472  14.753  13.074   4.930 -0.1067 -0.1644  0.5167
19901OST    PA430473  14.715  13.147   4.574  0.3762 -0.3445  0.3598
19901OST    PA530474  14.797  13.031   4.284 -0.2186 -0.3873 -0.2543
19901OST    PA630475  14.869  12.838   4.362 -0.0438  0.0254 -0.2804
19902OST    PA130476   4.482   8.684  13.007 -0.0700  0.0536 -0.1055
19902OST    PA230477   4.820   8.792  12.937  0.3413  0.3537 -0.3114
19902OST    PA330478   4.732   8.933  13.197  0.0784  0.2400 -0.1604
19902OST    PA430479   5.019   8.781  12.982  0.1883 -0.0432 -0.1704
19902OST    PA530480   5.065   8.521  12.803 -0.1557 -0.0222 -0.2510
19902OST    PA630481   4.839   8.537  12.727 -0.0429 -0.0145  0.0551
19903OST    PA130482  14.952   6.825   2.563  0.1402 -0.0600  0.4111
19903OST    PA230483  14.669   6.808   2.743 -0.1115  0.2559 -0.0882
19903OST    PA330484  14.569   6.552   2.665  0.0077  0.2403  0.2505
19903OST    PA430485  14.566   6.821   2.918 -0.0322 -0.0286 -0.1067
19903OST    PA530486  14.522   7.126   2.931  0.0553  0.3277  0.4200
19903OST    PA630487  14.685   7.167   2.705  0.0906 -0.2305 -0.1432
19904OST    PA130488  12.454  11.703   1.755  0.1476 -0.1711 -0.2354
19904OST    PA230489  12.548  11.816   2.076 -0.1666 -0.1284  0.2806
19904OST    PA330490  12.341  11.997   2.128 -0.2376  0.0093  0.0992
19904OST    PA430491  12.551  11.717   2.268  0.1110  0.1714 -0.3334
19904OST    PA530492  12.860  11.624   2.242  0.1969 -0.2401 -0.0712
19904OST    PA630493  12.875  11.728   2.032 -0.7593 -0.0161 -0.3488
19905OST    PA130494   0.551   9.913   1.008 -0.1611  0.1129 -0.0177
19905OST    PA230495   0.475  10.246   1.125 -0.0484  0.1363  0.6433
19905OST    PA330496   0.388  10.091   1.403  0.4985 -0.8265  0.8458
19905OST    PA430497   0.458  10.431   1.197  0.0281 -0.3046  0.3348
19905OST    PA530498   0.446  10.587   0.928  0.0071  0.1826  0.0437
19905OST    PA630499   0.500  10.381   0.792  0.3456 -0.2259  0.0558
19906OST    PA130500   3.517   1.350   9.708 -0.0366  0.2776  0.0829
19906OST    PA230501   3.872   1.347   9.715  0.0195  0.1019  0.1176
19906OST    PA330502   3.803   1.074   9.801 -0.2965  0.2643  0.0174
19906OST    PA430503   4.053   1.347   9.810  0.4782 -0.2845 -0.3220
19906OST    PA530504   4.176   1.592   9.643 -0.2748 -0.1527  0.0622
19906OST    PA630505   3.981   1.607   9.469 -0.0501 -0.0155 -0.0131
19907OST    PA130506   9.416   8.594  13.303 -0.1739  0.2175  0.4937
19907OST    PA230507   9.297   8.635  12.954  0.0721  0.0212  0.3036
19907OST    PA330508   9.359   8.358  12.956  0.4936  0.0180  0.2478
19907OST    PA430509   9.383   8.689  12.768  0.1399 -0.0037 -0.1644
19907OST    PA530510   9.331   8.995  12.859  0.2290  0.3981  0.1132
19907OST    PA630511   9.184   8.962  13.055 -0.0822  0.3107 -0.0973
19908OST    PA130512  11.408   3.165   4.596  0.0831  0.0371  0.3116
19908OST    PA230513  11.212   2.882   4.543 -0.1130 -0.2992 -0.1596
19908OST    PA330514  11.423   2.689   4.591  0.1643  0.2971  0.2028
19908OST    PA430515  11.106   2.780   4.383 -0.3771 -0.1150  0.0756
19908OST    PA530516  10.870   3.010   4.342 -0.1011  0.0350  0.2747
19908OST    PA630517  10.968   3.166   4.465 -0.0800 -0.0981 -0.2471
19909OST    PA130518   3.547  12.963   0.519 -0.1199  0.2989  0.0207
19909OST    PA230519   3.401  13.280   0.488  0.0193 -0.2960 -0.0806
19909OST    PA330520   3.140  13.166   0.557  0.0868  0.0852 -0.0517
19909OST    PA430521   3.345  13.421   0.406  0.0889 -0.0856 -0.3468
19909OST    PA530522   3.580  13.614   0.525  0.0546  0.3305  0.0820
19909OST    PA630523   3.709  13.422   0.563  0.1838  0.2406  0.0304
19910OST    PA130524   7.515   7.912  10.377  0.0968 -0.1695  0.1421
19910OST    PA230525   7.287   7.937  10.108 -0.1325  0.0870 -0.0372
19910OST    PA330526   7.080   7.761  10.241 -0.0648  0.0739  0.2467
19910OST    PA430527   7.165   7.976   9.951  0.1092  0.0966  0.1317
19910OST    PA530528   7.397   8.023   9.744  0.0474  0.1111  0.2502
19910OST    PA630529   7.566   7.983   9.911 -0.0187 -0.1383 -0.1744
19911OST    PA130530  13.422   1.014   3.303 -0.2328 -0.0911  0.2064
19911OST    PA230531  13.392   0.974   3.641  0.3304 -0.3068 -0.1540
19911OST    PA330532  13.452   1.243   3.698  0.0162  0.0200  0.7952
19911OST    PA430533  13.422   0.915   3.823 -0.1439  0.1556  0.2096
19911OST    PA530534  13.222   0.652   3.736 -0.2230  0.0357 -0.1492
19911OST    PA630535  13.250   0.691   3.501  0.2371 -0.1034 -0.1323
19912OST    PA130536   5.033   1.425  12.239  0.2777 -0.0873  0.0235
19912OST    PA230537   5.366   1.521  12.204  0.3297 -0.1798  0.0574
19912OST    PA330538   5.403   1.346  12.432 -0.1873  0.2623 -0.1850
19912OST    PA430539   5.524   1.486  12.103 -0.1794 -0.1214 -0.3091
19912OST    PA530540   5.424   1.527  11.829 -0.1784  0.1637 -0.7304
19912OST    PA630541   5.235   1.647  11.897 -0.1593 -0.0687  0.0451
19913OST    PA130542   5.340  13.703   1.085  0.2692 -0.1370  0.1101
19913OST    PA230543   5.113  13.622   0.840 -0.3943 -0.2435 -0.2607
19913OST    PA330544   5.044  13.334   0.777  0.4859  0.3038 -0.0697
19913OST    PA430545   5.061  13.673   0.653 -0.2503 -0.1381  0.0872
19913OST    PA530546   4.863  13.885   0.740  0.0475 -0.2433 -0.3690
19913OST    PA630547   4.876  13.888   0.959  0.5805 -0.1562  0.3923
19914OST    PA130548   0.524   1.510  10.519  0.0334 -0.0552  0.2723
19914OST    PA230549   0.289   1.729  10.678  0.0526  0.1569  0.1869
19914OST    PA330550   0.374   1.682  10.946  0.2874  0.1096  0.0606
19914OST    PA430551   0.241   1.924  10.686 -0.0947 -0.2288 -0.0094
19914OST    PA530552   0.161   1.918  10.388  0.1526  0.0684  0.0995
19914OST    PA630553   0.100   1.669  10.365 -0.2803 -0.0236 -0.0910
19915OST    PA130554  14.166   1.935   2.169  0.0117  0.1539 -0.3392
19915OST    PA230555  13.829   1.887   2.039 -0.2908 -0.3812 -0.1342
19915OST    PA330556  13.900   1.705   1.849  0.0294  0.1807 -0.2898
19915OST    PA430557  13.623   1.833   2.048  0.3933 -0.0664 -0.0370
19915OST    PA530558  13.568   2.109   2.218  0.2758 -0.2893  0.2933
19915OST    PA630559  13.769   2.174   2.234  0.2292  0.1363 -0.2145
19916OST    PA130560   3.298   8.642   8.516  0.1534  0.1203 -0.2579
19916OST    PA230561   3.641   8.736   8.553  0.1990 -0.0996  0.3076
19916OST    PA330562   3.540   9.005   8.503  0.3390 -0.2206  0.0421
19916OST    PA430563   3.839   8.771   8.497 -0.0019  0.0678 -0.1630
19916OST    PA530564   3.924   8.649   8.820  0.2738 -0.1208  0.4171
19916OST    PA630565   3.721   8.585   8.837 -0.1193 -0.0431 -0.0731
19917OST    PA130566   2.887  12.076  10.921  0.2030 -0.0449 -0.0559
19917OST    PA230567   2.859  12.394  10.733 -0.2010  0.3385  0.0534
19917OST    PA330568   2.993  12.284  10.500  0.5441 -0.1827 -0.1039
19917OST    PA430569   2.867  12.574  10.666 -0.0981 -0.2724  0.1130
19917OST    PA530570   2.610  12.655  10.826 -0.0984  0.2104 -0.0098
19917OST    PA630571   2.580  12.464  10.961 -0.1921  0.0049  0.3465
19918OST    PA130572  14.436  10.517   3.955 -0.0564 -0.1994 -0.1193
19918OST    PA230573  14.538  10.851   3.854  0.0688  0.1429  0.0734
19918OST    PA330574  14.392  10.713   3.583  0.0136 -0.4085  0.1041
19918OST    PA430575  14.457  11.022   3.826  0.3755 -0.3469  0.0868
19918OST    PA530576  14.586  11.100   4.096 -0.1263  0.0190 -0.1761
19918OST    PA630577  14.712  10.952   4.169 -0.2431  0.0084 -0.1996
19919OST    PA130578   0.053   5.883   3.021 -0.7717 -0.2027  0.1412
19919OST    PA230579   0.216   5.757   3.317  0.3379  0.3958 -0.0901
19919OST    PA330580   0.472   5.757   3.206 -0.1657  0.0054 -0.1063
19919OST    PA430581   0.290   5.826   3.493 -0.0041  0.1592 -0.0660
19919OST    PA530582   0.043   5.899   3.646  0.4804 -0.0348 -0.4699
19919OST    PA630583  -0.107   5.797   3.455  0.2119  0.3485 -0.0902
19920OST    PA130584  10.420   2.152  10.201 -0.1005  0.2267 -0.3096
19920OST    PA230585  10.415   2.423  10.438 -0.1212 -0.0068 -0.3774
19920OST    PA330586  10.424   2.618  10.200  0.0451 -0.1469 -0.4717
19920OST    PA430587  10.526   2.528  10.562 -0.1025  0.2578 -0.1508
19920OST    PA530588  10.445   2.339  10.839 -0.2708  0.4728 -0.3633
19920OST    PA630589  10.268   2.218  10.692  0.2393  0.5495 -0.1449
19921OST    PA130590   4.032   9.567   3.929 -0.0177  0.4495 -0.2829
19921OST    PA230591   4.182   9.592   3.577  0.0941  0.2693 -0.4280
19921OST    PA330592   3.917   9.717   3.511 -0.4989 -0.3634  0.1396
19921OST    PA430593   4.268   9.675   3.432 -0.4812  0.2059 -0.0063
19921OST    PA530594   4.570   9.554   3.528  0.0592  0.3039  0.6074
19921OST    PA630595   4.487   9.472   3.710  0.1294 -0.1831 -0.1223
19922OST    PA130596   3.845  15.647   9.782 -0.0587  0.0559  0.1387
19922OST    PA230597   3.989  15.541   9.475 -0.0906 -0.0620  0.0146
19922OST    PA330598   4.231  15.505   9.628 -0.4808  0.1361 -0.5758
19922OST    PA430599   4.041  15.491   9.320 -0.0602 -0.0115 -0.0477
19922OST    PA530600   3.722  15.489   9.209  0.2302  0.0741 -0.1345
19922OST    PA630601   3.630  15.506   9.414  0.0211 -0.0575 -0.1539
19923OST    PA130602  12.122   3.239  11.109 -0.4184  0.1499 -0.0781
19923OST    PA230603  11.985   3.123  10.798 -0.1057  0.1473  0.1122
19923OST    PA330604  11.768   3.253  10.939 -0.0527  0.3472 -0.2363
19923OST    PA430605  11.891   3.015  10.672  0.1300 -0.2700 -0.3100
19923OST    PA530606  12.154   2.848  10.595 -0.4049 -0.1301 -0.1550
19923OST    PA630607  12.260   2.908  10.794  0.5123  0.4030  0.0885
19924OST    PA130608  12.699   3.793   4.005 -0.2822  0.1444  0.0549
19924OST    PA230609  12.588   3.913   4.322  0.3118  0.0112  0.1103
19924OST    PA330610  12.840   4.029   4.447  0.1263  0.3074  0.0370
19924OST    PA430611  12.478   4.079   4.399  0.5411 -0.0019  0.0077
19924OST    PA530612  12.238   3.877   4.394  0.2830 -0.5640  0.1886
19924OST    PA630613  12.312   3.704   4.357  0.1330 -0.3245 -0.0064
19925OST    PA130614   7.749   7.888   7.838  0.2527  0.1413  0.0969
19925OST    PA230615   7.915   7.876   8.144  0.0709 -0.3674  0.0650
19925OST    PA330616   7.729   7.916   8.345 -0.4342 -0.1385 -0.0896
19925OST    PA430617   8.039   7.739   8.242  0.0152  0.0783 -0.3245
19925OST    PA530618   8.276   7.667   8.050 -0.3380 -0.1590  0.1655
19925OST    PA630619   8.170   7.787   7.899 -0.3296  0.0448 -0.1528
19926OST    PA130620   0.772  13.376   0.253 -0.0384  0.0714  0.1035
19926OST    PA230621   0.638  13.378   0.585 -0.0115  0.0497 -0.1956
19926OST    PA330622   0.831  13.154   0.621 -0.2084 -0.5252 -0.0698
19926OST    PA430623   0.663  13.452   0.780  0.0359  0.2267  0.2656
19926OST    PA530624   0.601  13.756   0.729 -0.3260 -0.1364  0.3181
19926OST    PA630625   0.514  13.703   0.513  0.0475 -0.1662  0.2517
19927OST    PA130626  15.133   6.622  12.041 -0.0976  0.0934 -0.0735
19927OST    PA230627  15.123   6.903  12.265  0.4542 -0.0762 -0.1975
19927OST    PA330628  15.394   6.899  12.313 -0.4599 -0.0024 -0.0767
19927OST    PA430629  15.113   7.128  12.271  0.0780  0.1830 -0.0196
19927OST    PA530630  14.818   7.122  12.304  0.3887 -0.2553  0.2817
19927OST    PA630631  14.789   6.920  12.349  0.1136 -0.2155  0.1099
19928OST    PA130632   2.670   1.756   9.918 -0.1756 -0.0699 -0.0042
19928OST    PA230633   2.967   1.577   9.784  0.1783 -0.1940 -0.3680
19928OST    PA330634   3.123   1.709   9.994 -0.5557 -0.2757  0.1491
19928OST    PA430635   3.046   1.392   9.826  0.0649  0.2166  0.1155
19928OST    PA530636   2.835   1.293   9.597 -0.1773 -0.3087  0.2552
19928OST    PA630637   2.707   1.502   9.537  0.1524 -0.0408 -0.0837
19929OST    PA130638   2.665   1.230   9.994 -0.3350 -0.1096 -0.1669
19929OST    PA230639   2.694   1.203  10.355 -0.1192  0.3311  0.0925
19929OST    PA330640   2.905   1.011  10.268  0.1289 -0.2862 -0.3084
19929OST    PA430641   2.615   1.080  10.469 -0.1363 -0.1064  0.0364
19929OST    PA530642   2.320   1.206  10.425 -0.1973 -0.2005  0.4366
19929OST    PA630643   2.398   1.378  10.292  0.0086 -0.0368 -0.3066
19930OST    PA130644   8.358  15.018   3.242  0.1875  0.2397  0.0195
19930OST    PA230645   8.421  15.338   3.332  0.2405 -0.0395  0.0208
19930OST    PA330646   8.242  15.516   3.168  0.0859  0.1803  0.2267
19930OST    PA430647   8.416  15.450   3.489 -0.1660 -0.1774 -0.2637
19930OST    PA530648   8.706  15.351   3.577  0.3061 -0.2190 -0.3058
19930OST    PA630649   8.728  15.205   3.408 -0.1635  0.2959  0.0109
19931OST    PA130650   6.142  10.198   9.840 -0.2140 -0.0086  0.3173
19931OST    PA230651   6.122  10.204  10.189 -0.0104 -0.0575 -0.1210
19931OST    PA330652   6.058   9.892  10.164  0.0956 -0.1505 -0.2769
19931OST    PA430653   5.996  10.218  10.390 -0.3329 -0.0193  0.0361
19931OST    PA530654   6.036  10.539  10.405 -0.0555 -0.0675 -0.1704
19931OST    PA630655   6.177  10.561  10.222 -0.1302  0.0265 -0.2558
19932OST    PA130656  13.078  11.925   8.666 -0.1651 -0.0073  0.1605
19932OST    PA230657  12.985  12.216   8.774  0.3116 -0.1261  0.0524
19932OST    PA330658  12.894  12.239   8.466  0.3645 -0.0154  0.0965
19932OST    PA430659  12.813  12.339   8.840  0.3179  0.0574 -0.0577
19932OST    PA530660  12.776  12.217   9.129 -0.0048  0.1307  0.3466
19932OST    PA630661  12.954  12.051   9.098  0.2127  0.0072 -0.1573
19933OST    PA130662   9.971   6.938   0.822 -0.1622  0.2214 -0.1340
19933OST    PA230663  10.048   7.030   0.491  0.3959  0.1116  0.2142
19933OST    PA330664   9.827   6.992   0.346 -0.3548 -0.2052 -0.3088
19933OST    PA430665  10.158   7.148   0.342 -0.1104 -0.3325  0.1831
19933OST    PA530666  10.474   7.163   0.389  0.0944  0.0898 -0.1341
19933OST    PA630667  10.432   6.986   0.533 -0.2048  0.2219  0.0702
19934OST    PA130668   7.811  12.496  10.319  0.0053 -0.2287  0.1264
19934OST    PA230669   7.587  12.700  10.542  0.0595 -0.0940 -0.2309
19934OST    PA330670   7.405  12.858  10.387  0.5683  0.0290  0.3840
19934OST    PA430671   7.436  12.696  10.718  0.2047  0.4568  0.0686
19934OST    PA530672   7.641  12.651  10.956 -0.2170  0.4762  0.2054
19934OST    PA630673   7.836  12.579  10.798  0.0934  0.1701  0.1991
19935OST    PA130674   8.194  11.560   4.069 -0.0037  0.1889 -0.2206
19935OST    PA230675   8.159  11.358   4.351  0.2103  0.2126  0.0903
19935OST    PA330676   8.267  11.103   4.224 -0.5036  0.0270  0.2396
19935OST    PA430677   8.250  11.340   4.544  0.2173  0.2977 -0.1258
19935OST    PA530678   7.999  11.526   4.643 -0.2167 -0.5178 -0.0580
19935OST    PA630679   7.872  11.588   4.464 -0.0690 -0.0935  0.0130
19936OST    PA130680  10.847   0.744   4.366  0.0231 -0.0287 -0.1051
19936OST    PA230681  10.616   0.469   4.365  0.0207 -0.2658 -0.4129
19936OST    PA330682  10.499   0.559   4.117 -0.0746 -0.0973  0.1234
19936OST    PA430683  10.412   0.445   4.494  0.3801  0.1748  0.2639
19936OST    PA530684  10.582   0.434   4.772  0.0153  0.0369  0.1255
19936OST    PA630685  10.764   0.374   4.682 -0.1087  0.0319  0.0433
19937OST    PA130686   6.666   1.807   2.889 -0.3285 -0.1530  0.0162
19937OST    PA230687   6.920   1.590   2.932 -0.1702 -0.0790  0.0077
19937OST    PA330688   6.729   1.440   2.770  0.2058  0.1874 -0.0567
19937OST    PA430689   7.083   1.515   2.845  0.2454 -0.4774 -0.2321
19937OST    PA530690   7.283   1.734   2.999 -0.2378  0.1009  0.0722
19937OST    PA630691   7.102   1.831   3.131  0.0153 -0.1677 -0.0139
19938OST    PA130692  12.533   9.752   9.631 -0.0319  0.0661  0.4661
19938OST    PA230693  12.848   9.685   9.802  0.3997  0.0922 -0.0555
19938OST    PA330694  12.793   9.942   9.888 -0.5384  0.0598 -0.1190
19938OST    PA430695  12.869   9.580   9.990 -0.0164 -0.2561  0.0259
19938OST    PA530696  12.830   9.293   9.881 -0.1033 -0.0614  0.1077
19938OST    PA630697  12.857   9.393   9.619 -0.0415 -0.0398 -0.0138
19939OST    PA130698  13.674  14.753   1.891  0.0357 -0.0944 -0.0771
19939OST    PA230699  13.754  15.094   1.969 -0.2251 -0.1040  0.2728
19939OST    PA330700  14.037  14.997   2.003 -0.0205 -0.1333 -0.0475
19939OST    PA430701  13.766  15.236   2.115 -0.0665 -0.0486  0.3700
19939OST    PA530702  13.510  15.361   1.969  0.0159 -0.3927 -0.3599
19939OST    PA630703  13.505  15.215   1.762 -0.2285  0.1827 -0.5323
19940OST    PA130704   4.558   3.110   0.560 -0.2012  0.1694  0.0480
19940OST    PA230705   4.518   3.048   0.903 -0.0778  0.1847 -0.1278
19940OST    PA330706   4.368   2.843   0.758  0.2619 -0.0748 -0.2609
19940OST    PA430707   4.365   3.100   1.034  0.1220  0.2326  0.0465
19940OST    PA530708   4.550   3.272   1.179 -0.2265  0.0228 -0.3401
19940OST    PA630709   4.716   3.322   0.982 -0.1178  0.3522  0.3168
19941OST    PA130710   3.759   3.487   9.421  0.0497 -0.0628 -0.1602
19941OST    PA230711   4.111   3.582   9.381 -0.1258  0.2923  0.1309
19941OST    PA330712   4.173   3.594   9.673  0.0038 -0.0899 -0.1777
19941OST    PA430713   4.270   3.740   9.323  0.0417 -0.0056 -0.2657
19941OST    PA530714   4.241   3.757   9.008  0.2965 -0.3663  0.2084
19941OST    PA630715   4.069   3.581   9.014 -0.3935 -0.1141 -0.3763
19942OST    PA130716  13.737  13.396  11.276 -0.4843 -0.1520 -0.0273
19942OST    PA230717  14.028  13.294  11.452 -0.2754 -0.0807 -0.2509
19942OST    PA330718  14.044  13.582  11.374 -0.3072 -0.2001 -0.0721
19942OST    PA430719  14.077  13.322  11.645  0.1861 -0.2155  0.3404
19942OST    PA530720  13.898  13.090  11.745  0.1089 -0.1690  0.2404
19942OST    PA630721  13.786  13.014  11.530 -0.0774 -0.2117 -0.3285
19943OST    PA130722   2.713  14.800   8.050  0.1995  0.0370  0.0666
19943OST    PA230723   2.889  14.897   8.334 -0.0249  0.1189 -0.1580
19943OST    PA330724   2.867  15.175   8.198  0.1221 -0.3542  0.0879
19943OST    PA430725   2.821  14.971   8.527  0.0395 -0.0280  0.0443
19943OST    PA530726   2.777  14.665   8.629 -0.0477 -0.1588  0.0880
19943OST    PA630727   2.828  14.562   8.430  0.0555 -0.4184  0.2084
19944OST    PA130728  12.845  10.568   0.103 -0.0924 -0.0912  0.1560
19944OST    PA230729  12.592  10.622   0.328  0.2581 -0.2822  0.0526
19944OST    PA330730  12.582  10.902   0.406  0.3935 -0.3291 -0.1001
19944OST    PA430731  12.582  10.554   0.522  0.0004 -0.2308  0.4969
19944OST    PA530732  12.327  10.370   0.449 -0.2281  0.4322 -0.3630
19944OST    PA630733  12.421  10.364   0.205  0.0589 -0.1234 -0.1241
19945OST    PA130734  14.293  14.179  10.641 -0.2635 -0.0827 -0.2232
19945OST    PA230735  14.147  14.041  10.369  0.0556  0.1771 -0.3959
19945OST    PA330736  14.048  13.772  10.533  0.2082 -0.3216  0.1733
19945OST    PA430737  14.080  13.973  10.202  0.3897 -0.3545  0.0317
19945OST    PA530738  14.100  14.234  10.059  0.0123  0.4928 -0.0868
19945OST    PA630739  14.246  14.353  10.208  0.4866  0.1827 -0.3765
19946OST    PA130740   1.467  11.371   4.316  0.2194  0.1519  0.3481
19946OST    PA230741   1.507  11.681   4.178  0.4255 -0.4181 -0.0668
19946OST    PA330742   1.406  11.740   4.437  0.2191 -0.2854 -0.3457
19946OST    PA430743   1.463  11.838   4.097  0.6466 -0.2103  0.0576
19946OST    PA530744   1.630  11.789   3.820  0.2672  0.3230  0.1083
19946OST    PA630745   1.706  11.593   3.907 -0.1787 -0.0947  0.2264
19947OST    PA130746   5.462  15.152   9.549 -0.0574  0.2077 -0.1448
19947OST    PA230747   5.127  15.030   9.630  0.0130  0.2118  0.0564
19947OST    PA330748   5.106  14.923   9.364  0.2543  0.2826  0.3087
19947OST    PA430749   4.977  14.902   9.715 -0.0079  0.1802 -0.0530
19947OST    PA530750   4.934  15.050   9.992  0.1305  0.1419 -0.3582
19947OST    PA630751   5.153  15.182   9.953  0.1021 -0.3619  0.1062
19948OST    PA130752   1.397   0.428   4.093 -0.1574  0.0773  0.1024
19948OST    PA230753   1.726   0.448   3.961 -0.1685  0.0577  0.1300
19948OST    PA330754   1.875   0.602   4.142  0.1773  0.3427 -0.2910
19948OST    PA430755   1.899   0.339   3.882 -0.2685  0.3893  0.3719
19948OST    PA530756   1.754   0.304   3.584 -0.6846  0.0239  0.2663
19948OST    PA630757   1.570   0.404   3.653  0.1574  0.0919 -0.0857
19949OST    PA130758   4.235   4.279   9.284 -0.0752 -0.1463 -0.1700
19949OST    PA230759   4.184   4.051   9.568 -0.2494 -0.0651  0.0076
19949OST    PA330760   4.470   4.009   9.525  0.1472 -0.2149 -0.0312
19949OST    PA430761   4.193   4.011   9.769  0.1936 -0.3888 -0.2579
19949OST    PA530762   3.891   4.149   9.813 -0.1178 -0.1081  0.2110
19949OST    PA630763   3.850   4.104   9.568  0.0408  0.1828  0.3743
19950OST    PA130764   3.242   4.133   2.100 -0.1256  0.1941  0.2797
19950OST    PA230765   3.075   4.445   2.050  0.1049 -0.0306  0.0240
19950OST    PA330766   3.258   4.616   1.868  0.1161  0.1094  0.1225
19950OST    PA430767   2.944   4.585   2.102  0.3546  0.0757  0.1977
19950OST    PA530768   2.686   4.440   2.242  0.2143 -0.2473  0.2209
19950OST    PA630769   2.821   4.224   2.168 -0.2780  0.0768  0.2451
19951OST    PA130770  13.059  12.927  12.979 -0.3761  0.0069  0.0184
19951OST    PA230771  12.703  12.996  12.980  0.0841  0.2617 -0.0376
19951OST    PA330772  12.691  13.117  13.261 -0.0746 -0.2693  0.0556
19951OST    PA430773  12.533  12.930  12.978  0.0913 -0.0888 -0.0573
19951OST    PA530774  12.508  12.944  12.682  0.0890  0.1223  0.0249
19951OST    PA630775  12.723  13.019  12.624  0.0853  0.1799  0.0129
19952OST    PA130776   3.524   9.008   3.243 -0.1221 -0.0935 -0.1000
19952OST    PA230777   3.450   9.142   2.916 -0.0904  0.3103  0.5639
19952OST    PA330778   3.439   8.886   2.738  0.3237 -0.1238 -0.2759
19952OST    PA430779   3.546   9.238   2.780 -0.1873  0.3909  0.0458
19952OST    PA530780   3.465   9.505   2.871  0.0066 -0.1477  0.0131
19952OST    PA630781   3.324   9.437   3.028  0.1511 -0.2887 -0.2719
19953OST    PA130782   2.913   2.306  13.372 -0.2288 -0.2751 -0.0639
19953OST    PA230783   2.746   2.289  13.059 -0.3811  0.1893  0.4563
19953OST    PA330784   2.584   2.524  13.125  0.0235  0.1143  0.3828
19953OST    PA430785   2.698   2.304  12.851 -0.2715  0.0009  0.2069
19953OST    PA530786   2.934   2.100  12.747 -0.1706 -0.2458  0.1715
19953OST    PA630787   3.003   2.041  12.970 -0.0289  0.1174 -0.0507
19954OST    PA130788   0.146  13.265   4.316 -0.1558 -0.2006 -0.0103
19954OST    PA230789   0.394  13.276   4.057  0.0522 -0.2929  0.3811
19954OST    PA330790   0.419  13.544   4.099  0.0713 -0.0706 -0.2833
19954OST    PA430791   0.512  13.249   3.889 -0.0211 -0.0176 -0.2570
19954OST    PA530792   0.670  12.985   3.983  0.1521  0.2027 -0.2985
19954OST    PA630793   0.516  12.972   4.158 -0.1681  0.0766 -0.0823
19955OST    PA130794  12.927  15.115   3.922  0.1840  0.1400 -0.2974
19955OST    PA230795  12.763  15.030   3.594 -0.2598  0.2111  0.3896
19955OST    PA330796  12.920  15.279   3.522  0.1327 -0.0264 -0.1803
19955OST    PA430797  12.713  14.989   3.391 -0.5921  0.2828  0.0036
19955OST    PA530798  12.560  14.700   3.424 -0.5141  0.0955 -0.0331
19955OST    PA630799  12.588  14.700   3.679  0.0242 -0.0966  0.0217
19956OST    PA130800   7.282   9.225   9.333  0.3289 -0.0898  0.0722
19956OST    PA230801   7.012   9.203   9.054 -0.3968  0.4856 -0.2917
19956OST    PA330802   6.885   9.268   9.318  0.0530  0.0068  0.1681
19956OST    PA430803   6.864   9.136   8.970  0.1864 -0.0354  0.0395
19956OST    PA530804   7.044   9.006   8.741  0.1752 -0.1464 -0.1733
19956OST    PA630805   7.255   9.050   8.832 -0.3757  0.1554  0.2428
19957OST    PA130806   9.342   5.002  13.509  0.0492  0.0978 -0.2346
19957OST    PA230807   9.593   4.985  13.772  0.1064  0.0917 -0.1536
19957OST    PA330808   9.602   4.701  13.691 -0.1108  0.3383 -0.2512
19957OST    PA430809   9.624   4.948  13.961 -0.0411 -0.1311 -0.3824
19957OST    PA530810   9.661   5.232  14.036 -0.1628  0.0475 -0.4441
19957OST    PA630811   9.694   5.338  13.846 -0.0888  0.5278 -0.1288
19958OST    PA130812  12.306   5.210   8.721  0.1811 -0.3240  0.1781
19958OST    PA230813  12.027   5.021   8.742 -0.2528  0.3644  0.1155
19958OST    PA330814  12.098   4.982   8.451  0.1107  0.2447  0.4333
19958OST    PA430815  11.845   4.993   8.717  0.2330 -0.1283 -0.1532
19958OST    PA530816  11.796   4.897   9.010  0.2638 -0.1437  0.3128
19958OST    PA630817  12.026   4.961   9.102 -0.4917 -0.1391 -0.0106
19959OST    PA130818   3.932   5.021   1.558 -0.1431  0.1809 -0.0976
19959OST    PA230819   3.859   5.389   1.613  0.2524  0.3606  0.1667
19959OST    PA330820   3.953   5.434   1.881  0.1189  0.4107 -0.0490
19959OST    PA430821   3.747   5.533   1.599  0.1237  0.0252 -0.1259
19959OST    PA530822   3.652   5.489   1.291  0.1366  0.1473 -0.0851
19959OST    PA630823   3.759   5.305   1.281  0.0966  0.1925  0.0668
19960OST    PA130824   7.217  11.509  11.478 -0.1876  0.0731 -0.1389
19960OST    PA230825   7.481  11.296  11.626 -0.0241 -0.0437 -0.1345
19960OST    PA330826   7.350  11.046  11.582  0.0593  0.1415 -0.0034
19960OST    PA430827   7.616  11.219  11.778 -0.1860  0.0379  0.0449
19960OST    PA530828   7.788  11.476  11.671 -0.1650  0.0689 -0.3289
19960OST    PA630829   7.648  11.587  11.553  0.1035 -0.3849  0.1320
19961OST    PA130830  14.738   7.287  10.580 -0.0225 -0.1137  0.5732
19961OST    PA230831  14.528   7.452  10.333  0.0188  0.3611  0.1137
19961OST    PA330832  14.321   7.384  10.481  0.1248  0.0987  0.0995
19961OST    PA430833  14.414   7.498  10.151  0.0203  0.4684 -0.1933
19961OST    PA530834  14.618   7.723  10.079 -0.0665 -0.1265 -0.2580
19961OST    PA630835  14.757   7.700  10.275  0.2100  0.2931  0.2022
19962OST    PA130836  13.230  13.473  11.207 -0.0404  0.0764 -0.0500
19962OST    PA230837  12.963  13.675  11.058 -0.0716  0.5505 -0.0362
19962OST    PA330838  13.027  13.415  10.892  0.0455  0.1100 -0.0114
19962OST    PA430839  12.895  13.759  10.897 -0.4220 -0.0792  0.0212
19962OST    PA530840  12.936  14.045  11.026 -0.2597 -0.3154 -0.0579
19962OST    PA630841  13.085  13.989  11.181 -0.2103 -0.4345 -0.0539
19963OST    PA130842   9.062  12.255   4.039  0.1356 -0.1257 -0.1766
19963OST    PA230843   8.731  12.373   3.881  0.2507 -0.3212  0.0548
19963OST    PA330844   8.959  12.575   3.845  0.5449 -0.2112  0.0581
19963OST    PA430845   8.643  12.428   3.706  0.0964 -0.2415  0.2360
19963OST    PA530846   8.420  12.187   3.776  0.2679  0.7113 -0.0133
19963OST    PA630847   8.505  12.112   3.954  0.3213 -0.0052 -0.4057
19964OST    PA130848   9.412  11.477   1.508  0.1656  0.2017  0.0903
19964OST    PA230849   9.306  11.338   1.205  0.2998 -0.2367  0.5071
19964OST    PA330850   9.596  11.278   1.123  0.3371 -0.4375  0.2207
19964OST    PA430851   9.209  11.186   1.104  0.4086 -0.2198  0.2340
19964OST    PA530852   8.935  11.323   1.093  0.0353  0.0435  0.1434
19964OST    PA630853   8.995  11.511   1.207  0.2978 -0.2086  0.1633
19965OST    PA130854   9.873   0.995  12.144 -0.1579 -0.2847  0.0091
19965OST    PA230855   9.509   1.042  12.116 -0.0687 -0.1734  0.2038
19965OST    PA330856   9.469   0.752  12.191 -0.1545  0.1697 -0.0668
19965OST    PA430857   9.367   1.101  12.182  0.2771 -0.5739  0.1672
19965OST    PA530858   9.421   1.373  12.053  0.3833 -0.3859  0.3098
19965OST    PA630859   9.599   1.366  11.955  0.0114 -0.0983  0.0330
19966OST    PA130860   8.001  11.661   3.084 -0.1474 -0.0062  0.2788
19966OST    PA230861   7.971  11.647   3.432 -0.2872 -0.0192  0.0374
19966OST    PA330862   8.228  11.501   3.499  0.0860  0.3577  0.2572
19966OST    PA430863   7.859  11.557   3.574 -0.0397 -0.4362  0.0304
19966OST    PA530864   7.591  11.702   3.463  0.0484  0.2593 -0.0825
19966OST    PA630865   7.667  11.815   3.331  0.2062  0.2800 -0.5650
19967OST    PA130866  14.080   5.585  10.215  0.0659  0.0112 -0.0482
19967OST    PA230867  14.226   5.329  10.420  0.1446 -0.1283 -0.0930
19967OST    PA330868  14.002   5.157  10.532 -0.0284  0.2298 -0.2394
19967OST    PA430869  14.335   5.322  10.575 -0.0895 -0.0607 -0.1350
19967OST    PA530870  14.600   5.299  10.421  0.0599  0.3162 -0.1290
19967OST    PA630871  14.523   5.374  10.211 -0.0356  0.3025 -0.1767
19968OST    PA130872   9.678   1.882   0.104 -0.0861 -0.1799  0.2838
19968OST    PA230873   9.428   1.856   0.316  0.2811 -0.3359  0.1904
19968OST    PA330874   9.631   1.778   0.541  0.2738 -0.1597 -0.0765
19968OST    PA430875   9.271   1.847   0.447  0.1446  0.1153 -0.1783
19968OST    PA530876   9.102   2.102   0.312 -0.3290  0.0261 -0.2860
19968OST    PA630877   9.255   2.124   0.145  0.2077 -0.1798 -0.1125
19969OST    PA130878   2.334   6.772   1.564  0.2536  0.2344  0.1576
19969OST    PA230879   2.368   6.406   1.551  0.0085  0.0961 -0.2064
19969OST    PA330880   2.135   6.419   1.371  0.2396  0.0771  0.2910
19969OST    PA430881   2.368   6.194   1.571 -0.2162 -0.0981  0.2150
19969OST    PA530882   2.637   6.214   1.720 -0.4087  0.0060 -0.1164
19969OST    PA630883   2.591   6.419   1.865  0.2053  0.0790  0.0088
19970OST    PA130884  10.695  14.627   3.496  0.1113 -0.2784  0.0597
19970OST    PA230885  10.442  14.894   3.501 -0.0656 -0.2417 -0.0880
19970OST    PA330886  10.406  14.853   3.776 -0.1769 -0.2181 -0.2595
19970OST    PA430887  10.227  14.970   3.462  0.1150  0.2311 -0.2179
19970OST    PA530888  10.381  15.089   3.191  0.0430 -0.1226 -0.1100
19970OST    PA630889  10.585  14.968   3.231  0.3051  0.1518  0.0260
19971OST    PA130890  13.809  13.409  12.630  0.0018 -0.0380 -0.0709
19971OST    PA230891  14.042  13.558  12.845  0.1164 -0.2324  0.3291
19971OST    PA330892  14.050  13.812  12.652  0.4367  0.4959  0.1325
19971OST    PA430893  14.184  13.629  12.958 -0.1227 -0.3357  0.1180
19971OST    PA530894  14.091  13.459  13.210 -0.2773 -0.0819 -0.1338
19971OST    PA630895  13.898  13.361  13.079  0.2959  0.1960  0.1395
19972OST    PA130896  10.227   0.228  12.481 -0.1746  0.1754 -0.0155
19972OST    PA230897  10.426   0.011  12.324 -0.3409 -0.0527  0.2908
19972OST    PA330898  10.690   0.062  12.351 -0.2420  0.0489 -0.1000
19972OST    PA430899  10.454  -0.158  12.259 -0.2954  0.4815 -0.0219
19972OST    PA530900  10.201  -0.222  12.095 -0.0353  0.2468 -0.3303
19972OST    PA630901  10.172   0.016  12.070  0.2141 -0.0535  0.1575
19973OST    PA130902   3.462   5.649  11.569  0.2209  0.0066  0.4776
19973OST    PA230903   3.774   5.642  11.747  0.3150  0.5526  0.1148
19973OST    PA330904   3.926   5.531  11.543  0.2916  0.0595 -0.0516
19973OST    PA430905   3.862   5.563  11.900  0.0011 -0.1455 -0.3844
19973OST    PA530906   3.684   5.591  12.119  0.2950  0.2671  0.2030
19973OST    PA630907   3.567   5.771  12.047  0.1394  0.3239 -0.0958
19974OST    PA130908   0.064   1.314   9.887  0.0875  0.3656  0.0427
19974OST    PA230909  -0.262   1.191   9.825  0.0542 -0.1290  0.3722
19974OST    PA330910  -0.352   1.472   9.845  0.1366  0.2793  0.2791
19974OST    PA430911  -0.415   1.120   9.722 -0.2593  0.0431 -0.2557
19974OST    PA530912  -0.267   0.845   9.598  0.1775  0.0363 -0.0992
19974OST    PA630913  -0.066   0.938   9.662 -0.2142  0.1224  0.0006
19975OST    PA130914  13.234   8.971   9.562  0.0998  0.1841 -0.4199
19975OST    PA230915  13.206   9.118   9.889 -0.2076 -0.2696  0.4560
19975OST    PA330916  13.174   9.419   9.834 -0.2807  0.4481 -0.1235
19975OST    PA430917  13.143   9.140  10.070  0.1957  0.0203 -0.0960
19975OST    PA530918  13.267   8.897  10.216 -0.4900  0.1954 -0.1202
19975OST    PA630919  13.386   8.850  10.027  0.0299  0.0307  0.1187
19976OST    PA130920   3.685   8.562   3.159  0.0194  0.3317  0.0184
19976OST    PA230921   3.914   8.741   3.375 -0.0688 -0.1757  0.3873
19976OST    PA330922   3.721   8.732   3.619  0.4613 -0.5721 -0.0759
19976OST    PA430923   4.042   8.870   3.457 -0.1904 -0.1321 -0.2232
19976OST    PA530924   4.283   8.758   3.272  0.4958  0.2926 -0.0283
19976OST    PA630925   4.130   8.623   3.132 -0.5005 -0.2804  0.4971
19977OST    PA130926   0.287   2.022   1.851 -0.0728 -0.2252  0.0654
19977OST    PA230927   0.332   1.717   2.058  0.1877 -0.0834  0.0569
19977OST    PA330928   0.187   1.493   1.934  0.1409  0.1847 -0.2674
19977OST    PA430929   0.453   1.584   2.176  0.0026  0.1359  0.2158
19977OST    PA530930   0.637   1.840   2.277  0.1784 -0.0089 -0.5221
19977OST    PA630931   0.671   1.874   2.045  0.1390 -0.3950 -0.0179
19978OST    PA130932   2.713  13.052   4.217  0.1164 -0.0760 -0.1387
19978OST    PA230933   2.400  13.250   4.158  0.2682 -0.1769 -0.2757
19978OST    PA330934   2.340  13.187   4.443 -0.3362 -0.1559 -0.1308
19978OST    PA430935   2.207  13.265   4.107 -0.2911 -0.1449  0.3544
19978OST    PA530936   2.251  13.373   3.810  0.2101 -0.1657 -0.3993
19978OST    PA630937   2.478  13.369   3.834 -0.2407 -0.0553 -0.0392
19979OST    PA130938   6.038   9.793   0.030 -0.1701 -0.1251  0.1458
19979OST    PA230939   5.727   9.994   0.038  0.0008 -0.2255 -0.0043
19979OST    PA330940   5.658   9.789   0.209 -0.2281  0.1242  0.4151
19979OST    PA430941   5.588  10.119   0.109 -0.2290  0.1545  0.3142
19979OST    PA530942   5.779  10.375  -0.049  0.0442  0.1503 -0.2523
19979OST    PA630943   5.833  10.196  -0.233 -0.1654 -0.0480 -0.0975
19980OST    PA130944   9.526  10.795   9.835 -0.2334  0.0128  0.0037
19980OST    PA230945   9.404  10.746  10.170 -0.2571  0.3568  0.1161
19980OST    PA330946   9.639  10.564  10.215  0.0694 -0.0196  0.0145
19980OST    PA430947   9.312  10.693  10.338  0.1729 -0.0678 -0.0468
19980OST    PA530948   9.165  10.992  10.391  0.2398 -0.0222 -0.1896
19980OST    PA630949   9.261  11.055  10.193  0.2738 -0.0630  0.2346
19981OST    PA130950   5.371   6.324   3.590 -0.3337  0.1179 -0.0010
19981OST    PA230951   5.697   6.167   3.463 -0.0790  0.1775  0.1429
19981OST    PA330952   5.519   6.108   3.232 -0.3042 -0.0671 -0.3416
19981OST    PA430953   5.828   6.251   3.350  0.1122 -0.1120 -0.0461
19981OST    PA530954   6.006   6.245   3.610 -0.1717 -0.0881 -0.0333
19981OST    PA630955   5.864   6.143   3.757  0.0531  0.2089 -0.0541
19982OST    PA130956   4.947  15.692   9.123  0.2597 -0.2183 -0.0127
19982OST    PA230957   5.169  15.611   9.375  0.1848  0.2974  0.2578
19982OST    PA330958   5.348  15.682   9.163 -0.2406 -0.1517  0.3857
19982OST    PA430959   5.289  15.698   9.539 -0.0851  0.0310 -0.0857
19982OST    PA530960   5.169  15.472   9.728 -0.0902  0.1573  0.1461
19982OST    PA630961   5.004  15.397   9.580  0.0417  0.1468 -0.0958
19983OST    PA130962   5.528   0.933   3.816 -0.3545  0.1573 -0.2831
19983OST    PA230963   5.304   1.105   3.603 -0.5331  0.0576  0.0629
19983OST    PA330964   5.176   1.235   3.823 -0.0000 -0.3632  0.3839
19983OST    PA430965   5.278   1.258   3.461  0.0679  0.1664  0.2096
19983OST    PA530966   5.374   1.047   3.227 -0.0588  0.2908 -0.4273
19983OST    PA630967   5.413   0.857   3.381  0.3697 -0.0884  0.1797
19984OST    PA130968   3.639   9.911   3.130 -0.1684 -0.3362 -0.2934
19984OST    PA230969   3.962  10.042   3.297  0.0247  0.1081 -0.3592
19984OST    PA330970   4.028   9.784   3.169  0.0228 -0.1722 -0.0359
19984OST    PA430971   4.169  10.065   3.380  0.1698 -0.1758  0.1756
19984OST    PA530972   4.223  10.352   3.304 -0.1013  0.3398  0.1029
19984OST    PA630973   3.985  10.418   3.264  0.2012 -0.0816 -0.0080
19985OST    PA130974   1.988  13.862  13.205  0.0927 -0.2099 -0.0405
19985OST    PA230975   1.899  13.788  13.537 -0.4700 -0.4446 -0.0628
19985OST    PA330976   1.961  14.075  13.626  0.2560  0.0216  0.1686
19985OST    PA430977   1.888  13.723  13.712 -0.0293 -0.1750 -0.1408
19985OST    PA530978   1.750  13.438  13.686 -0.6444 -0.0557 -0.0100
19985OST    PA630979   1.770  13.447  13.464 -0.0722  0.0437  0.0161
19986OST    PA130980   1.716   6.337  11.648 -0.1762 -0.0575 -0.0793
19986OST    PA230981   1.951   6.580  11.567 -0.0413  0.1026  0.1853
19986OST    PA330982   1.743   6.629  11.356 -0.0624  0.2730 -0.1092
19986OST    PA430983   2.094   6.677  11.481  0.3474 -0.1036 -0.5530
19986OST    PA530984   2.295   6.418  11.514 -0.2008 -0.6090 -0.1271
19986OST    PA630985   2.201   6.365  11.729  0.2930 -0.0627 -0.3431
19987OST    PA130986   7.587  11.033   3.693  0.0795 -0.0803  0.4231
19987OST    PA230987   7.609  10.810   3.432  0.3210  0.1090 -0.0530
19987OST    PA330988   7.813  10.666   3.578  0.4673  0.2781  0.2609
19987OST    PA430989   7.650  10.748   3.263 -0.1185  0.1838 -0.1031
19987OST    PA530990   7.401  10.869   3.159 -0.6609 -0.3451 -0.1615
19987OST    PA630991   7.301  10.979   3.330  0.0450  0.3568  0.1399
19988OST    PA130992   7.888  11.984  13.522 -0.0870 -0.1366 -0.1090
19988OST    PA230993   7.880  12.224  13.755 -0.4448 -0.2713 -0.1368
19988OST    PA330994   8.005  12.014  13.923  0.2354 -0.2545 -0.4183
19988OST    PA430995   7.982  12.365  13.847  0.1338 -0.1188 -0.0131
19988OST    PA530996   7.965  12.577  13.620  0.4597 -0.2736  0.5480
19988OST    PA630997   7.794  12.458  13.495 -0.1357 -0.1164  0.2588
19989OST    PA130998   0.839   0.057   0.388 -0.2311 -0.2325  0.3437
19989OST    PA230999   0.966   0.157   0.047  0.0288  0.2449  0.1888
19989OST    PA331000   1.249   0.202   0.166  0.4498 -0.2444 -0.0100
19989OST    PA431001   0.951   0.314  -0.065  0.0272 -0.1995  0.1892
19989OST    PA531002   0.653   0.218  -0.163  0.1545  0.2630  0.0648
19989OST    PA631003   0.622   0.042  -0.026  0.2655  0.2561  0.0268
19990OST    PA131004  10.387   6.791   2.333 -0.1101 -0.3711 -0.1567
19990OST    PA231005  10.409   7.096   2.152 -0.2792  0.2243 -0.1890
19990OST    PA331006  10.655   6.983   1.982 -0.2157  0.1085 -0.1529
19990OST    PA431007  10.403   7.271   2.042 -0.1075 -0.1830  0.1978
19990OST    PA531008  10.105   7.329   2.140  0.5637  0.4632  0.0051
19990OST    PA631009  10.059   7.111   2.169 -0.1228  0.0401  0.2482
19991OST    PA131010   3.119   2.441  11.939  0.0038  0.1920  0.2040
19991OST    PA231011   3.389   2.620  12.087  0.3508  0.1016  0.1359
19991OST    PA331012   3.230   2.557  12.322 -0.2523  0.2189  0.0090
19991OST    PA431013   3.588   2.610  12.178  0.2996 -0.1398 -0.1398
19991OST    PA531014   3.664   2.771  11.904 -0.0315  0.1772  0.5530
19991OST    PA631015   3.471   2.721  11.771  0.2736 -0.1414 -0.1518
19992OST    PA131016  11.962   3.382   3.344 -0.0257 -0.0341  0.1484
19992OST    PA231017  12.204   3.626   3.345 -0.3972 -0.3125 -0.0298
19992OST    PA331018  12.250   3.632   3.054 -0.3489 -0.1001 -0.0581
19992OST    PA431019  12.244   3.798   3.377  0.2629 -0.2160  0.1981
19992OST    PA531020  12.265   3.760   3.687 -0.1649 -0.0942 -0.0636
19992OST    PA631021  12.200   3.542   3.701  0.1753  0.0107  0.1273
19993OST    PA131022   4.412  11.033   8.400  0.0389 -0.1741  0.1070
19993OST    PA231023   4.206  11.331   8.433 -0.3658  0.0395  0.1882
19993OST    PA331024   4.400  11.484   8.266  0.1132  0.1951 -0.3579
19993OST    PA431025   4.063  11.461   8.397  0.1480 -0.3042  0.0351
19993OST    PA531026   3.854  11.245   8.470  0.3576  0.3574  0.2352
19993OST    PA631027   3.973  11.063   8.508  0.0213  0.3800 -0.0605
19994OST    PA131028   4.343   2.715  12.153 -0.2839  0.1827 -0.1430
19994OST    PA231029   4.087   2.712  12.402 -0.0569  0.0293 -0.2534
19994OST    PA331030   4.233   2.518  12.559  0.5757  0.4435 -0.3510
19994OST    PA431031   3.898   2.692  12.510 -0.0763  0.0027  0.2954
19994OST    PA531032   3.812   3.008  12.487  0.0672  0.1038  0.0616
19994OST    PA631033   4.043   3.068  12.428  0.1888  0.2979 -0.1344
19995OST    PA131034  13.008   9.494   8.413 -0.2111 -0.1411 -0.3361
19995OST    PA231035  13.090   9.416   8.776  0.0711  0.2278 -0.1797
19995OST    PA331036  12.978   9.649   8.870  0.0596  0.0991  0.1331
19995OST    PA431037  13.244   9.430   8.881  0.0462 -0.0155  0.0553
19995OST    PA531038  13.425   9.238   8.732 -0.0035 -0.0070  0.4936
19995OST    PA631039  13.260   9.139   8.609 -0.1583 -0.4367  0.0253
19996OST    PA131040   9.605  12.801   5.143 -0.0561  0.1434  0.2491
19996OST    PA231041   9.820  12.858   4.895  0.0975 -0.0654 -0.4148
19996OST    PA331042   9.989  12.653   4.990  0.0942  0.2911 -0.1573
19996OST    PA431043   9.947  12.880   4.702  0.2081 -0.3158 -0.1281
19996OST    PA531044   9.843  13.142   4.621 -0.2431 -0.1347  0.2280
19996OST    PA631045   9.704  13.187   4.788  0.0937  0.1418  0.0876
19997OST    PA131046  12.762   3.565   3.050 -0.1354 -0.2552 -0.0658
19997OST    PA231047  13.091   3.490   2.956  0.0397  0.2493 -0.0934
19997OST    PA331048  12.973   3.303   3.161 -0.3631  0.4684 -0.3632
19997OST    PA431049  13.164   3.343   2.827 -0.0019  0.4468  0.0077
19997OST    PA531050  13.163   3.529   2.582  0.2534 -0.1913  0.1393
19997OST    PA631051  13.087   3.723   2.724  0.1500  0.2295 -0.1622
19998OST    PA131052   2.211  13.871   2.741  0.2492  0.0155 -0.2234
19998OST    PA231053   2.341  14.164   2.744 -0.0526 -0.1401  0.3266
19998OST    PA331054   2.169  14.220   2.972  0.0972 -0.2820 -0.2891
19998OST    PA431055   2.488  14.261   2.813 -0.0119 -0.0950  0.0754
19998OST    PA531056   2.635  14.246   2.514  0.4970  0.0723 -0.0854
19998OST    PA631057   2.449  14.121   2.398 -0.2263  0.1382  0.0531
19999OST    PA131058   9.312   0.754  13.335  0.3313  0.0388 -0.0503
19999OST    PA231059   9.038   0.974  13.317  0.3173  0.0412 -0.1043
19999OST    PA331060   9.205   1.175  13.446  0.1472  0.2083  0.6476
19999OST    PA431061   8.855   1.081  13.354 -0.1577 -0.3298  0.3907
19999OST    PA531062   8.688   0.885  13.205 -0.0428 -0.1692 -0.3100
19999OST    PA631063   8.870   0.741  13.160 -0.0520 -0.2490  0.2557
20000OST    PA131064  13.365   9.361   1.276 -0.0015 -0.0575  0.0676
20000OST    PA231065  13.061   9.372   1.074  0.2912  0.0246  0.0476
20000OST    PA331066  13.093   9.235   0.835  0.2963  0.0482 -0.2520
20000OST    PA431067  12.862   9.298   1.108  0.0605 -0.0112 -0.0337
20000OST    PA531068  12.833   9.521   1.313  0.3058 -0.5873 -0.0488
20000OST    PA631069  13.023   9.631   1.306 -0.5556  0.0348  0.3287
20001OST    PA131070   7.011   2.216   9.404  0.0552  0.0362  0.2928
20001OST    PA231071   6.710   2.358   9.556 -0.0283  0.1813  0.1114
20001OST    PA331072   6.599   2.052   9.590 -0.1607 -0.0214 -0.0668
20001OST    PA431073   6.606   2.414   9.684  0.2129 -0.0557 -0.2151
20001OST    PA531074   6.757   2.672   9.799  0.3640  0.2684 -0.2681
20001OST    PA631075   6.927   2.609   9.663 -0.2403 -0.0985 -0.1870
20002OST    PA131076  12.295  12.378   4.886  0.2522 -0.0690 -0.0430
20002OST    PA231077  12.559  12.560   5.048 -0.4764  0.0542  0.1851
20002OST    PA331078  12.478  12.410   5.278 -0.0596  0.0875 -0.0637
20002OST    PA431079  12.607  12.687   5.139  0.1869 -0.2362  0.1135
20002OST    PA531080  12.597  12.950   4.957 -0.4243 -0.1055  0.1915
20002OST    PA631081  12.547  12.813   4.769  0.1864 -0.0015  0.0546
20003OST    PA131082   9.129   0.908   2.055  0.1451  0.2845  0.1073
20003OST    PA231083   9.345   1.079   1.811 -0.1100  0.4003 -0.1835
20003OST    PA331084   9.061   1.121   1.693 -0.0068 -0.0648 -0.0973
20003OST    PA431085   9.450   1.087   1.614  0.1795 -0.3509 -0.0061
20003OST    PA531086   9.697   0.895   1.742  0.0554  0.1382  0.3903
20003OST    PA631087   9.585   0.849   1.931  0.3715 -0.0582  0.0937
20004OST    PA131088   9.411  11.809   9.610 -0.0875 -0.0784 -0.3605
20004OST    PA231089   9.716  11.980   9.511  0.1493  0.0211  0.0616
20004OST    PA331090   9.869  11.785   9.380  0.0464 -0.0217  0.0782
20004OST    PA431091   9.849  12.119   9.517 -0.1848 -0.3220  0.0791
20004OST    PA531092   9.681  12.392   9.501  0.1293 -0.1120 -0.3593
20004OST    PA631093   9.480  12.268   9.483  0.1923  0.1956 -0.2673
20005OST    PA131094  14.718  10.470   1.220 -0.1463  0.1753 -0.0931
20005OST    PA231095  14.690  10.155   1.310 -0.0108 -0.3235  0.0389
20005OST    PA331096  14.973  10.037   1.241 -0.1544  0.3457  0.6008
20005OST    PA431097  14.639  10.016   1.437 -0.0979  0.2525  0.2943
20005OST    PA531098  14.362   9.979   1.332  0.0434  0.4206 -0.0752
20005OST    PA631099  14.345  10.188   1.193 -0.0948 -0.3553 -0.1256
20006OST    PA131100  12.716   3.482   3.628  0.0499 -0.0081  0.2020
20006OST    PA231101  12.767   3.843   3.579  0.1603  0.0309 -0.1119
20006OST    PA331102  12.599   3.766   3.368 -0.4311  0.1864  0.1347
20006OST    PA431103  12.706   4.033   3.575  0.0293 -0.3455 -0.2519
20006OST    PA531104  13.018   4.078   3.698  0.0454 -0.3231 -0.3607
20006OST    PA631105  13.082   3.837   3.726 -0.3294  0.0951 -0.1206
20007OST    PA131106  15.694  15.494   1.477 -0.0716 -0.1093 -0.0849
20007OST    PA231107  15.613  15.522   1.128  0.0490 -0.0493  0.0972
20007OST    PA331108  15.759  15.270   1.053 -0.1481 -0.2138 -0.0213
20007OST    PA431109  15.456  15.466   1.031  0.2144  0.0502 -0.0367
20007OST    PA531110  15.384  15.783   0.973 -0.1254 -0.1941 -0.2262
20007OST    PA631111  15.513  15.873   1.148  0.2596 -0.1588 -0.2155
20008OST    PA131112   0.836  11.132   3.837  0.1535 -0.0512  0.2960
20008OST    PA231113   1.105  11.361   3.866  0.0235 -0.1265  0.1399
20008OST    PA331114   1.246  11.154   4.006  0.1243  0.3387  0.0216
20008OST    PA431115   1.306  11.497   3.844  0.1411  0.3186  0.2034
20008OST    PA531116   1.140  11.687   3.646  0.6130 -0.0636  0.2300
20008OST    PA631117   0.955  11.561   3.616  0.1949 -0.0195  0.0498
20009OST    PA131118  10.383  13.173  12.365  0.0626  0.0557 -0.2696
20009OST    PA231119  10.719  13.028  12.273 -0.1175 -0.0770  0.3701
20009OST    PA331120  10.781  13.248  12.459  0.1017  0.0092 -0.2689
20009OST    PA431121  10.918  12.991  12.233  0.1864  0.0045  0.4792
20009OST    PA531122  10.844  12.958  11.904  0.0197  0.1823 -0.2182
20009OST    PA631123  10.645  12.914  11.950 -0.3321  0.1929 -0.0340
20010OST    PA131124   4.350   0.066   9.379 -0.0236  0.0537 -0.0267
20010OST    PA231125   4.651  -0.091   9.450 -0.2597  0.4110 -0.2490
20010OST    PA331126   4.494  -0.352   9.456  0.5663 -0.1323 -0.3729
20010OST    PA431127   4.751  -0.109   9.610  0.1946  0.4192  0.1928
20010OST    PA531128   4.902   0.126   9.551 -0.9379 -0.1543 -0.4391
20010OST    PA631129   4.837   0.218   9.338 -0.0944  0.1675  0.2075
20011OST    PA131130   1.973  11.410   9.472  0.1941 -0.1346  0.0292
20011OST    PA231131   2.202  11.693   9.503  0.1798 -0.1949 -0.2740
20011OST    PA331132   2.392  11.682   9.317  0.0875  0.4025  0.4914
20011OST    PA431133   2.179  11.922   9.485 -0.4365  0.1346  0.2115
20011OST    PA531134   1.983  11.911   9.719 -0.3528  0.0530  0.4463
20011OST    PA631135   2.067  11.718   9.819 -0.2855  0.4413 -0.0153
20012OST    PA131136   3.872  15.553  12.321 -0.1704  0.4277 -0.3782
20012OST    PA231137   3.633  15.388  12.103  0.1182 -0.0252  0.1392
20012OST    PA331138   3.829  15.223  11.983  0.1472 -0.0406  0.1223
20012OST    PA431139   3.489  15.205  12.120  0.2551  0.0018  0.0431
20012OST    PA531140   3.292  15.414  12.270 -0.2317  0.6353 -0.1084
20012OST    PA631141   3.411  15.610  12.261  0.2884 -0.4670  0.1027
20013OST    PA131142   4.061   3.593   3.777 -0.0661  0.0098 -0.0388
20013OST    PA231143   4.013   3.584   3.435  0.2994 -0.1032  0.1914
20013OST    PA331144   3.976   3.904   3.492 -0.2812  0.0897  0.1005
20013OST    PA431145   4.016   3.603   3.262  0.0200  0.2411  0.1182
20013OST    PA531146   4.245   3.377   3.215  0.0197  0.2022  0.5142
20013OST    PA631147   4.278   3.340   3.464  0.2103  0.2304  0.0814
20014OST    PA131148  10.714   4.562  11.218  0.3528  0.1364 -0.2206
20014OST    PA231149  10.468   4.798  11.110  0.2193 -0.1673  0.2167
20014OST    PA331150  10.663   4.965  11.236  0.2173 -0.1175  0.1496
20014OST    PA431151  10.335   4.942  11.057  0.0462 -0.2031  0.1843
20014OST    PA531152  10.165   4.722  10.899  0.1481  0.0227  0.2851
20014OST    PA631153  10.305   4.529  10.952 -0.1286 -0.0497 -0.1070
20015OST    PA131154   2.299  15.628   3.717  0.0534 -0.0885 -0.1896
20015OST    PA231155   2.286  15.505   3.390  0.0309 -0.0119  0.2467
20015OST    PA331156   2.530  15.359   3.519 -0.1705 -0.2625  0.1581
20015OST    PA431157   2.378  15.534   3.232  0.2638 -0.0824 -0.0342
20015OST    PA531158   2.189  15.797   3.159 -0.2127  0.6186  0.3865
20015OST    PA631159   2.053  15.785   3.337  0.0353 -0.1805  0.3080
  15.86564  15.86564  13.53036
