[ moleculetype ]
; molname        nrexcl
OST               1


[ atoms ] 
; id type   resnr   residue  atom   cgnr    charge

 1      C4     1      OST     PA1    1      0.00000
 2     SC5     1      OST     PA2    2      0.00000
 3    TN1a     1      OST     PA3    3      0.00000
 4     SC5     1      OST     PA4    4      0.00000
 5     TC5     1      OST     PA5    5      0.00000
 6    SN2a     1      OST     PA6    6      0.00000


[ bonds ]
;   i     j   funct   length   force.c.

; bond group 1
    1     2       1        0         0           ; 

; bond group 2
    2     3       1        0         0           ; 

; bond group 3
    2     4       1        0         0         ; 

; bond group 4
    4     5       1        0         0       ; 

; bond group 5
    5     6       1        0          0        ; 

; bond group 6
    2     6       1        0         0         ; 




[ angles ]
;   i     j     k          funct     angle   force.c.

; angle type 1
    1     2     4            2      0         0           ; 1

; angle type 2
    1     2     6            2      0         0           ; 1

; angle type 3
    3     2     4            2      0         0           ; 1

; angle type 4
    3     2     6            2      0         0           ; 1
	
	
	
	
[ dihedrals ]
;   i     j     k      l    funct     angle   force.c.

; dihedral type 1
    2     4     6      5      2      0         0           ; 1
	