Martini system
31159
    1CHOL   ROH    1  14.751   8.498   8.653 -0.1382 -0.0648 -0.0301
    1CHOL    R1    2  14.692   8.277   8.485  0.0547 -0.0869 -0.0726
    1CHOL    R2    3  14.483   8.279   8.305 -0.0333 -0.2832  0.0193
    1CHOL    R3    4  14.678   8.213   8.127 -0.0261  0.0120 -0.0867
    1CHOL    R4    5  14.431   8.108   8.009  0.0560 -0.2734 -0.0019
    1CHOL    R5    6  14.614   7.997   8.047  0.2166 -0.0496 -0.1147
    1CHOL    C1    7  14.583   7.947   7.670  0.1149  0.0094 -0.1135
    1CHOL    C2    8  14.589   7.877   7.350  0.0032  0.0627 -0.2068
    2XCA    COO    9   2.230   4.501   5.871 -0.1001 -0.5885 -0.2850
    2XCA     C1   10   2.489   4.433   6.123  0.0999 -0.0699  0.1670
    2XCA     C2   11   3.032   4.529   6.254 -0.1335  0.2386 -0.0196
    2XCA     C3   12   3.443   4.520   6.166 -0.4028 -0.1404 -0.0475
    2XCA     C4   13   3.720   4.929   5.922  0.1781 -0.1123  0.1037
    2XCA     C5   14   3.844   5.420   5.991  0.0454 -0.0598  0.0274
    2XCA     C6   15   3.827   5.809   5.933 -0.0201  0.0552 -0.2322
    3XCA    COO   16   6.445   5.745   8.347 -0.1054  0.0361  0.0589
    3XCA     C1   17   6.245   5.895   7.962 -0.1925  0.3012  0.0725
    3XCA     C2   18   5.824   5.839   7.841  0.0886  0.0492  0.1846
    3XCA     C3   19   5.877   5.609   7.518  0.1504  0.0171 -0.2284
    3XCA     C4   20   6.048   5.545   7.180  0.1197 -0.1211 -0.1132
    3XCA     C5   21   6.196   5.476   6.746  0.1780  0.2195 -0.0617
    3XCA     C6   22   6.534   5.534   6.408 -0.1954 -0.0882 -0.0134
    4XCA    COO   23  14.605   3.158   8.429 -0.3255 -0.1631  0.3480
    4XCA     C1   24  14.719   3.384   8.021  0.0806  0.3568  0.1832
    4XCA     C2   25  14.726   3.495   7.631 -0.2710 -0.3511  0.1601
    4XCA     C3   26  14.885   3.793   7.302  0.3408 -0.0961 -0.1076
    4XCA     C4   27  15.033   3.937   6.872 -0.1329 -0.4111 -0.1403
    4XCA     C5   28  15.147   4.112   6.395 -0.2650 -0.1007 -0.1639
    4XCA     C6   29  15.391   3.975   6.136  0.2392 -0.0958 -0.0162
    5CHOL   ROH   30   4.728   4.630   5.927 -0.2109  0.0073  0.3327
    5CHOL    R1   31   4.610   4.439   5.755 -0.0781  0.0450  0.1987
    5CHOL    R2   32   4.566   4.177   5.831 -0.0271 -0.0020  0.0644
    5CHOL    R3   33   4.311   4.232   5.754 -0.0133 -0.0518 -0.0189
    5CHOL    R4   34   4.304   3.952   5.840  0.0196 -0.0611 -0.0337
    5CHOL    R5   35   4.236   4.031   5.648  0.0669 -0.0651 -0.0548
    5CHOL    C1   36   3.912   3.872   5.773  0.0598 -0.1424 -0.1690
    5CHOL    C2   37   3.590   3.881   5.618 -0.0681  0.2875  0.2596
    6CHOL   ROH   38   5.893   6.684   8.378 -0.1465  0.0900 -0.1291
    6CHOL    R1   39   6.046   6.893   8.263 -0.0381 -0.0218 -0.1917
    6CHOL    R2   40   6.168   6.869   8.016 -0.1768 -0.1041 -0.2567
    6CHOL    R3   41   6.029   7.096   7.962 -0.0287  0.0074 -0.1716
    6CHOL    R4   42   6.218   7.070   7.740 -0.1059 -0.0741 -0.2216
    6CHOL    R5   43   6.192   7.244   7.868  0.0499 -0.0858 -0.1776
    6CHOL    C1   44   6.118   7.401   7.528  0.0745  0.0480 -0.1212
    6CHOL    C2   45   6.058   7.609   7.263 -0.0151  0.0974 -0.0592
    7XCA    COO   46  12.193   1.220   4.116 -0.2616  0.0886  0.0471
    7XCA     C1   47  12.032   1.546   4.468 -0.1421 -0.0114 -0.1993
    7XCA     C2   48  12.101   2.032   4.620 -0.4719  0.1944 -0.4247
    7XCA     C3   49  11.907   2.120   4.971 -0.2474  0.0295  0.0614
    7XCA     C4   50  11.935   2.292   5.410  0.1067 -0.0658 -0.2124
    7XCA     C5   51  11.641   2.579   5.627 -0.1562 -0.4340 -0.2429
    7XCA     C6   52  11.441   2.618   6.073 -0.0004  0.1665  0.2355
    8CHOL   ROH   53  12.403   7.095   8.999  0.1197  0.2297  0.1841
    8CHOL    R1   54  12.462   7.140   8.725 -0.0690 -0.0976  0.0848
    8CHOL    R2   55  12.271   7.219   8.543 -0.1004  0.1875  0.2368
    8CHOL    R3   56  12.446   7.420   8.493  0.2977 -0.2203 -0.0963
    8CHOL    R4   57  12.263   7.421   8.263 -0.2241  0.2622  0.2931
    8CHOL    R5   58  12.481   7.410   8.256 -0.2427 -0.2689 -0.1865
    8CHOL    C1   59  12.423   7.728   8.053  0.0775 -0.0772  0.0130
    8CHOL    C2   60  12.305   7.751   7.690 -0.0691  0.2843 -0.3513
    9PNCE   AM1   61   3.095   8.083   8.551  0.0531  0.0777 -0.3078
    9PNCE   AM2   62   2.819   8.098   8.696 -0.3835  0.3618 -0.1312
    9PNCE   T1A   63   3.236   8.281   8.204 -0.3199 -0.0965  0.0187
    9PNCE   C2A   64   3.370   8.280   7.751 -0.1030 -0.5153  0.2073
    9PNCE   C3A   65   3.589   8.001   7.594  0.0089 -0.2820  0.0070
    9PNCE   C1B   66   2.708   8.264   8.235  0.0669  0.1196  0.0028
    9PNCE   C2B   67   2.427   8.337   7.817 -0.0494  0.2757  0.0274
    9PNCE   C3B   68   2.240   7.931   7.630  0.0127 -0.0651  0.0363
    9PNCE   D4B   69   2.095   7.721   7.347  0.2947  0.0534 -0.0665
    9PNCE   C5B   70   2.106   7.831   6.923 -0.2594 -0.2005  0.7094
    9PNCE   C6B   71   1.822   7.960   6.496  0.0342 -0.3862  0.1539
   10PNCE   AM1   72   9.800   1.599   8.127 -0.0293  0.1695  0.0523
   10PNCE   AM2   73   9.789   1.230   8.066  0.2055  0.0026 -0.1252
   10PNCE   T1A   74   9.469   1.624   7.786  0.0969 -0.1122 -0.0102
   10PNCE   C2A   75   9.319   1.485   7.281  0.2312 -0.0964  0.2904
   10PNCE   C3A   76   9.365   1.180   6.996  0.3066  0.2441  0.0399
   10PNCE   C1B   77   9.739   1.197   7.723 -0.2011  0.2542  0.2116
   10PNCE   C2B   78   9.798   1.276   7.228 -0.0788 -0.1646  0.0835
   10PNCE   C3B   79   9.696   1.604   6.838 -0.0912 -0.1966 -0.1184
   10PNCE   D4B   80   9.323   1.892   6.731  0.1410  0.0238 -0.2404
   10PNCE   C5B   81   9.439   2.312   6.681  0.0036  0.1328 -0.4629
   10PNCE   C6B   82   9.643   2.556   6.367  0.0952 -0.0528  0.2455
   11XCA    COO   83  12.870  11.113   9.551 -0.1436  0.1866  0.1364
   11XCA     C1   84  12.941  10.909   9.137  0.1649 -0.2203  0.0505
   11XCA     C2   85  12.622  10.919   8.732 -0.0870 -0.0181 -0.0969
   11XCA     C3   86  12.853  10.843   8.341  0.0771  0.0962 -0.1111
   11XCA     C4   87  13.250  10.831   7.989 -0.1476 -0.0217 -0.0622
   11XCA     C5   88  13.436  10.951   7.566  0.0022 -0.1519 -0.1947
   11XCA     C6   89  13.259  10.845   7.134 -0.1837 -0.1679 -0.1081
   12CHOL   ROH   90  11.459  14.094   9.231  0.2107 -0.0159 -0.1218
   12CHOL    R1   91  11.479  14.110   8.949  0.0917 -0.0625 -0.1338
   12CHOL    R2   92  11.656  13.956   8.803  0.0317 -0.0872 -0.1848
   12CHOL    R3   93  11.431  13.884   8.667 -0.0270 -0.1100 -0.0757
   12CHOL    R4   94  11.652  13.776   8.508 -0.0885  0.0292 -0.2551
   12CHOL    R5   95  11.492  13.905   8.437 -0.1769  0.0022 -0.1053
   12CHOL    C1   96  11.439  13.603   8.209 -0.2136  0.0756 -0.1937
   12CHOL    C2   97  11.339  13.369   7.868  0.2375  0.1389  0.0231
   13PNCE   AM1   98  13.456   9.720   8.103 -0.2003  0.1625 -0.0375
   13PNCE   AM2   99  13.364   9.948   8.402 -0.0064  0.0497  0.1336
   13PNCE   T1A  100  13.488   9.574   7.784 -0.5496  0.0393  0.0936
   13PNCE   C2A  101  13.596   9.480   7.346 -0.0156  0.0111 -0.0826
   13PNCE   C3A  102  13.646   9.354   7.028  0.0049  0.2737 -0.0431
   13PNCE   C1B  103  13.225  10.452   8.443  0.0921 -0.0999 -0.0555
   13PNCE   C2B  104  13.406  10.938   8.487  0.0085  0.0567  0.0094
   13PNCE   C3B  105  13.679  11.218   8.338  0.1488  0.3256 -0.0700
   13PNCE   D4B  106  14.013  11.444   8.366 -0.1202  0.3901  0.3072
   13PNCE   C5B  107  14.075  11.891   8.220  0.0696 -0.2886  0.4225
   13PNCE   C6B  108  13.898  12.091   7.820 -0.1779  0.0479  0.0484
   14XCA    COO  109  11.006   6.517   3.992  0.0381 -0.1902  0.2227
   14XCA     C1  110  10.970   6.704   4.389 -0.2821 -0.2141  0.2017
   14XCA     C2  111  11.306   6.860   4.813  0.2232 -0.3607  0.0589
   14XCA     C3  112  11.274   7.023   5.159 -0.2124 -0.4179 -0.0134
   14XCA     C4  113  11.159   6.997   5.537 -0.0759  0.1172  0.2007
   14XCA     C5  114  11.140   7.004   5.920 -0.0540 -0.1731  0.3543
   14XCA     C6  115  11.042   6.923   6.298  0.0509 -0.2492  0.1013
   15CHOL   ROH  116  11.006   1.728   7.856 -0.3528 -0.1375  0.0037
   15CHOL    R1  117  10.957   1.797   7.586 -0.3388 -0.3353 -0.0514
   15CHOL    R2  118  11.153   1.896   7.419 -0.4040 -0.1320 -0.0131
   15CHOL    R3  119  11.076   1.690   7.260 -0.0444 -0.3240  0.0497
   15CHOL    R4  120  11.247   1.856   7.089 -0.3503 -0.0603 -0.0065
   15CHOL    R5  121  11.044   1.790   7.045 -0.2397 -0.4413  0.0225
   15CHOL    C1  122  11.228   1.640   6.747  0.0186 -0.1987  0.0562
   15CHOL    C2  123  11.069   1.870   6.528  0.0276  0.1671 -0.1082
   16PNCE   AM1  124  11.162   3.192   8.294 -0.0414 -0.0216  0.1604
   16PNCE   AM2  125  10.875   3.255   8.470  0.1860  0.0070  0.1946
   16PNCE   T1A  126  11.194   3.340   7.901  0.0848  0.1242 -0.0629
   16PNCE   C2A  127  11.094   3.321   7.498  0.1741 -0.1077 -0.1121
   16PNCE   C3A  128  11.182   3.561   7.132 -0.0647  0.2824 -0.0164
   16PNCE   C1B  129  10.735   3.136   8.042  0.0086  0.0640 -0.0917
   16PNCE   C2B  130  10.655   2.998   7.591  0.1008  0.1108 -0.3930
   16PNCE   C3B  131  10.419   2.976   7.166  0.0434  0.3118 -0.3119
   16PNCE   D4B  132  10.398   3.095   6.679  0.1653 -0.0958 -0.0909
   16PNCE   C5B  133  10.310   2.714   6.413 -0.2859 -0.5714 -0.3851
   16PNCE   C6B  134  10.194   2.350   6.443  0.0524 -0.1578 -0.1383
   17XCA    COO  135   2.671   6.177   4.449  0.1435  0.1810  0.1172
   17XCA     C1  136   2.686   6.311   4.916  0.0254  0.0507  0.1712
   17XCA     C2  137   2.980   6.390   5.314  0.0939  0.0488  0.0992
   17XCA     C3  138   3.184   6.386   5.747  0.0050  0.0057 -0.1496
   17XCA     C4  139   3.521   6.594   5.953 -0.0159 -0.0788 -0.0490
   17XCA     C5  140   3.893   6.862   6.145  0.2093 -0.1838 -0.0391
   17XCA     C6  141   3.930   7.136   6.031 -0.1706 -0.2414  0.0694
   18PNCE   AM1  142  11.243  13.273   8.832 -0.2293 -0.2145  0.1707
   18PNCE   AM2  143  10.896  13.039   8.790 -0.1577 -0.0232  0.0517
   18PNCE   T1A  144  11.077  13.533   8.530 -0.0007 -0.1527 -0.2834
   18PNCE   C2A  145  10.872  13.535   8.160 -0.0024 -0.2147 -0.0176
   18PNCE   C3A  146  10.490  13.547   8.031 -0.0862  0.1691 -0.0055
   18PNCE   C1B  147  10.677  13.022   8.326 -0.0178 -0.1415  0.1822
   18PNCE   C2B  148  10.871  13.127   7.898 -0.0185  0.1852 -0.2001
   18PNCE   C3B  149  11.137  12.856   7.629  0.2292 -0.0802 -0.2934
   18PNCE   D4B  150  11.222  12.526   7.390 -0.0943 -0.0234  0.0431
   18PNCE   C5B  151  11.359  12.183   7.399  0.1370  0.0206 -0.1575
   18PNCE   C6B  152  11.617  11.920   7.442 -0.1617  0.3156  0.0576
   19PNCE   AM1  153  10.348   2.505   8.312 -0.0842  0.0564 -0.0227
   19PNCE   AM2  154  10.449   2.717   8.205 -0.0909  0.1702  0.1281
   19PNCE   T1A  155  10.239   2.217   7.978 -0.3258  0.0634  0.2221
   19PNCE   C2A  156  10.392   2.170   7.558  0.1761 -0.1612 -0.0509
   19PNCE   C3A  157  10.551   2.148   7.182 -0.1468  0.1629  0.3356
   19PNCE   C1B  158  10.558   2.528   7.790  0.1578 -0.1539  0.3790
   19PNCE   C2B  159  10.762   2.528   7.433  0.0706  0.2388 -0.0077
   19PNCE   C3B  160  11.000   2.364   7.038 -0.2600  0.0132  0.2380
   19PNCE   D4B  161  11.277   2.315   6.680 -0.0185  0.1942  0.0638
   19PNCE   C5B  162  11.065   2.226   6.188 -0.0633  0.3130  0.0987
   19PNCE   C6B  163  10.833   2.426   5.959 -0.0556  0.0541  0.1454
   20PNCE   AM1  164  13.738  11.151   8.866 -0.1238 -0.0587 -0.0853
   20PNCE   AM2  165  13.916  11.454   9.035 -0.1340 -0.2338  0.0206
   20PNCE   T1A  166  13.418  11.023   9.028  0.1100 -0.0388 -0.1788
   20PNCE   C2A  167  13.302  10.575   9.095 -0.1499 -0.0698 -0.0745
   20PNCE   C3A  168  12.902  10.450   8.898 -0.2157  0.1424  0.1871
   20PNCE   C1B  169  14.023  11.720   8.806 -0.1660  0.1179 -0.0485
   20PNCE   C2B  170  13.913  12.173   8.591 -0.1772  0.3690 -0.2450
   20PNCE   C3B  171  14.041  12.473   8.214  0.0021 -0.2728 -0.2209
   20PNCE   D4B  172  14.209  12.560   7.823  0.1155  0.1740 -0.0932
   20PNCE   C5B  173  14.429  12.338   7.888 -0.4912 -0.3439 -0.2363
   20PNCE   C6B  174  14.419  11.900   7.783  0.0710 -0.2234  0.0881
   21XCA    COO  175   2.660   7.940   7.332 -0.3477  0.3892  0.0696
   21XCA     C1  176   2.926   7.719   7.022 -0.3180 -0.1758  0.2733
   21XCA     C2  177   3.030   7.603   6.589  0.2256  0.1382 -0.2233
   21XCA     C3  178   3.285   7.329   6.366 -0.0967  0.0072  0.1087
   21XCA     C4  179   3.100   7.098   6.452 -0.0934 -0.0908  0.0951
   21XCA     C5  180   2.869   7.212   6.866 -0.3617  0.0387 -0.1965
   21XCA     C6  181   2.681   7.059   7.250 -0.2333  0.1305 -0.0973
   22PNCE   AM1  182  12.220   4.297   8.293  0.1113  0.0516 -0.1872
   22PNCE   AM2  183  11.922   4.035   8.354  0.2412  0.0568 -0.1544
   22PNCE   T1A  184  11.939   4.515   8.227  0.1621  0.1040  0.0456
   22PNCE   C2A  185  11.705   4.565   7.877 -0.3522 -0.0080  0.1968
   22PNCE   C3A  186  11.301   4.336   7.772 -0.2158  0.1551 -0.2187
   22PNCE   C1B  187  11.614   3.985   8.138  0.1019 -0.2676  0.1576
   22PNCE   C2B  188  11.672   4.070   7.709  0.0611 -0.1300 -0.0284
   22PNCE   C3B  189  11.484   4.529   7.370  0.1718 -0.2099 -0.1059
   22PNCE   D4B  190  11.688   4.674   6.911  0.1902 -0.0941 -0.3447
   22PNCE   C5B  191  11.504   4.456   6.589 -0.1594 -0.1500  0.0664
   22PNCE   C6B  192  11.573   4.362   6.164 -0.0438 -0.1135  0.0827
   23PNCE   AM1  193   6.760   2.572   8.247  0.2971 -0.0594 -0.1373
   23PNCE   AM2  194   6.490   2.715   8.075 -0.4185  0.1952 -0.0886
   23PNCE   T1A  195   6.791   2.450   7.834 -0.1149 -0.1969  0.2478
   23PNCE   C2A  196   6.763   2.510   7.407  0.0358 -0.1031 -0.0788
   23PNCE   C3A  197   6.396   2.476   7.061  0.1760  0.1557  0.3110
   23PNCE   C1B  198   6.276   2.489   7.628  0.0644  0.0560 -0.0094
   23PNCE   C2B  199   6.164   2.205   7.416 -0.1320 -0.0654  0.2448
   23PNCE   C3B  200   5.989   2.081   7.025  0.2208  0.0148 -0.0337
   23PNCE   D4B  201   5.732   1.813   6.870 -0.2298  0.0353 -0.1542
   23PNCE   C5B  202   5.616   1.512   7.153  0.2314 -0.1258  0.0712
   23PNCE   C6B  203   5.421   1.586   7.628  0.3985 -0.3179  0.0740
   24PNCE   AM1  204  14.543   7.142   8.249 -0.0336  0.0273  0.1833
   24PNCE   AM2  205  14.528   7.343   8.579  0.1326  0.0112 -0.0510
   24PNCE   T1A  206  14.243   7.064   8.001 -0.1520 -0.0567  0.3108
   24PNCE   C2A  207  14.046   7.040   7.626  0.0296  0.1479  0.0203
   24PNCE   C3A  208  14.077   6.997   7.174 -0.2083 -0.2400 -0.2386
   24PNCE   C1B  209  14.550   7.596   8.325 -0.0963  0.1496 -0.0387
   24PNCE   C2B  210  14.798   7.611   7.933  0.0712  0.0929  0.2128
   24PNCE   C3B  211  15.040   7.939   7.683  0.1897 -0.0431 -0.2841
   24PNCE   D4B  212  15.375   7.938   7.460 -0.3819 -0.0909  0.2183
   24PNCE   C5B  213  15.510   7.738   7.166 -0.0610 -0.0385 -0.2243
   24PNCE   C6B  214  15.743   7.442   6.921 -0.1016 -0.0868  0.1774
   25XCA    COO  215   8.461   4.199   4.642  0.1965  0.3164  0.2594
   25XCA     C1  216   8.421   4.432   5.025 -0.0153  0.3566  0.0975
   25XCA     C2  217   8.045   4.662   5.026  0.0199  0.1556 -0.1034
   25XCA     C3  218   7.575   4.680   5.205 -0.2459  0.2618  0.0974
   25XCA     C4  219   7.435   4.487   5.578 -0.1407  0.0973 -0.0775
   25XCA     C5  220   7.372   4.251   5.968  0.1724 -0.1545 -0.2425
   25XCA     C6  221   7.531   4.139   6.381  0.0434  0.0290 -0.0689
   26CHOL   ROH  222   1.142   6.802   4.888  0.0646 -0.2382  0.1379
   26CHOL    R1  223   0.902   6.928   4.968  0.2056  0.0338  0.1519
   26CHOL    R2  224   0.661   6.792   4.983 -0.0596  0.4093 -0.3200
   26CHOL    R3  225   0.660   6.888   5.237 -0.1016 -0.0640 -0.1334
   26CHOL    R4  226   0.377   6.867   5.165 -0.0799  0.2430 -0.2834
   26CHOL    R5  227   0.478   7.044   5.242 -0.0045  0.0400  0.0901
   26CHOL    C1  228   0.211   7.000   5.510 -0.1311 -0.2981 -0.0869
   26CHOL    C2  229  -0.179   6.844   5.527  0.2610  0.2521  0.0836
   27PNCE   AM1  230   6.612   1.072   8.452 -0.1529  0.0642 -0.3210
   27PNCE   AM2  231   6.640   0.718   8.219 -0.0453 -0.0621  0.3158
   27PNCE   T1A  232   6.236   0.938   8.098  0.3643  0.0623  0.0594
   27PNCE   C2A  233   5.934   0.809   7.691  0.2053  0.0905  0.0766
   27PNCE   C3A  234   5.816   0.707   7.217 -0.0137  0.0674 -0.0797
   27PNCE   C1B  235   6.542   0.762   7.793 -0.0793  0.1541 -0.3264
   27PNCE   C2B  236   6.382   0.935   7.415 -0.2586 -0.0693 -0.1023
   27PNCE   C3B  237   6.543   0.832   6.929 -0.1214 -0.1350 -0.1587
   27PNCE   D4B  238   6.973   0.977   6.786 -0.0713 -0.0786  0.0870
   27PNCE   C5B  239   7.473   1.002   6.739  0.2822  0.0082  0.0793
   27PNCE   C6B  240   7.674   1.049   6.324  0.1553  0.1125  0.0527
   28CHOL   ROH  241  14.412   1.337   8.267 -0.0815 -0.3348  0.1500
   28CHOL    R1  242  14.396   1.206   8.017 -0.0728 -0.2262  0.0911
   28CHOL    R2  243  14.311   0.944   7.992 -0.3030 -0.1426 -0.0527
   28CHOL    R3  244  14.136   1.052   7.814 -0.1120  0.0904 -0.1040
   28CHOL    R4  245  14.275   0.843   7.663 -0.5377 -0.2917  0.0166
   28CHOL    R5  246  14.254   1.053   7.606 -0.1291 -0.2818 -0.1190
   28CHOL    C1  247  14.089   0.886   7.305 -0.4949 -0.1599  0.0089
   28CHOL    C2  248  14.122   0.756   6.966  0.0375 -0.0859 -0.0589
   29PNCE   AM1  249  10.397   8.399   8.864  0.1402 -0.2775  0.0190
   29PNCE   AM2  250  10.612   8.488   8.588 -0.0657 -0.0854 -0.0343
   29PNCE   T1A  251  10.141   8.462   8.454  0.0671  0.0080 -0.1106
   29PNCE   C2A  252  10.130   8.779   8.104 -0.1575  0.2768 -0.2933
   29PNCE   C3A  253  10.385   8.891   7.737 -0.0264  0.1063 -0.0279
   29PNCE   C1B  254  10.566   8.335   8.134  0.0439  0.2714 -0.0797
   29PNCE   C2B  255  10.427   8.369   7.662  0.0977  0.0133 -0.1370
   29PNCE   C3B  256  10.260   8.327   7.296  0.0231  0.0975 -0.0281
   29PNCE   D4B  257   9.908   8.195   7.094 -0.1477  0.1314  0.1307
   29PNCE   C5B  258   9.745   7.945   7.411 -0.0027  0.0809 -0.1820
   29PNCE   C6B  259   9.910   7.677   7.789 -0.2735 -0.1248  0.1123
   30XCA    COO  260   7.250   6.379   8.020 -0.0541 -0.2330 -0.2537
   30XCA     C1  261   7.022   6.388   7.615 -0.2607  0.0734  0.0664
   30XCA     C2  262   6.850   6.271   7.168  0.0236  0.1074 -0.2014
   30XCA     C3  263   6.731   6.347   6.702  0.0741  0.2364 -0.0525
   30XCA     C4  264   6.483   6.619   6.351  0.0606 -0.2862 -0.3255
   30XCA     C5  265   6.689   7.038   6.156  0.0194 -0.2150  0.0985
   30XCA     C6  266   6.936   7.213   5.813  0.0628 -0.1931  0.1150
   31PNCE   AM1  267  14.736  14.155   5.190  0.0622  0.1619 -0.2878
   31PNCE   AM2  268  14.804  14.038   4.949  0.2262 -0.1860  0.2929
   31PNCE   T1A  269  14.573  14.243   5.586  0.0742 -0.3359  0.0278
   31PNCE   C2A  270  14.577  14.250   5.974 -0.4672 -0.0679 -0.0058
   31PNCE   C3A  271  14.603  14.325   6.467 -0.0304  0.1356  0.2492
   31PNCE   C1B  272  15.209  13.799   4.957 -0.4449 -0.0948  0.1835
   31PNCE   C2B  273  15.434  13.573   5.404 -0.0270 -0.0357 -0.0151
   31PNCE   C3B  274  15.294  13.528   5.856  0.0353  0.1036 -0.1099
   31PNCE   D4B  275  15.546  13.530   6.278 -0.1390  0.4602  0.0397
   31PNCE   C5B  276  15.700  13.869   6.476  0.0660  0.1673  0.1724
   31PNCE   C6B  277  15.606  14.185   6.730 -0.0969  0.1235  0.0807
   32XCA    COO  278  14.255   7.727   4.518  0.2520 -0.0616 -0.3303
   32XCA     C1  279  14.127   7.331   4.778  0.0821  0.1679  0.0389
   32XCA     C2  280  14.186   7.093   5.087 -0.1082  0.0066  0.0731
   32XCA     C3  281  14.193   7.112   5.489  0.2042 -0.1423 -0.1909
   32XCA     C4  282  14.177   6.915   5.941 -0.0959  0.0463 -0.0624
   32XCA     C5  283  14.480   6.599   6.081  0.1231  0.1756  0.0744
   32XCA     C6  284  14.804   6.385   6.236  0.0217 -0.0816  0.0154
   33CHOL   ROH  285  14.801   2.604   8.198 -0.1340 -0.2398 -0.0974
   33CHOL    R1  286  14.786   2.554   7.919 -0.0063 -0.2151 -0.1099
   33CHOL    R2  287  14.864   2.740   7.730 -0.0907 -0.1262 -0.0616
   33CHOL    R3  288  15.020   2.536   7.641  0.0992  0.0060 -0.0372
   33CHOL    R4  289  14.961   2.695   7.402 -0.0281 -0.0672 -0.0511
   33CHOL    R5  290  14.928   2.481   7.427  0.1633 -0.0943 -0.0374
   33CHOL    C1  291  15.164   2.477   7.127  0.1866  0.0912 -0.0221
   33CHOL    C2  292  15.342   2.534   6.806  0.0477  0.0665  0.0476
   34PNCE   AM1  293  14.517   9.698   8.788  0.1716  0.1547 -0.2564
   34PNCE   AM2  294  14.308   9.863   8.564 -0.0696 -0.0550  0.2637
   34PNCE   T1A  295  14.775   9.741   8.393 -0.2892  0.0419  0.0280
   34PNCE   C2A  296  14.823   9.878   7.959  0.1340  0.3930  0.1352
   34PNCE   C3A  297  14.847  10.084   7.570  0.2597 -0.0757  0.1258
   34PNCE   C1B  298  14.280   9.949   8.164 -0.1107 -0.2290  0.1749
   34PNCE   C2B  299  14.378  10.067   7.678 -0.0546  0.2041  0.2851
   34PNCE   C3B  300  14.543  10.356   7.376  0.0467 -0.1080 -0.0840
   34PNCE   D4B  301  14.839  10.509   7.140 -0.3289  0.1865  0.1903
   34PNCE   C5B  302  14.757  10.777   6.909 -0.1207 -0.1451  0.1820
   34PNCE   C6B  303  14.679  11.156   6.893 -0.0705  0.1799  0.1483
   35PNCE   AM1  304  14.543   3.837   7.983  0.0990 -0.1803  0.1677
   35PNCE   AM2  305  14.322   4.124   8.118 -0.0308 -0.1290 -0.0066
   35PNCE   T1A  306  14.452   3.915   7.515 -0.1711  0.0335 -0.1343
   35PNCE   C2A  307  14.433   3.934   7.050 -0.0488 -0.1611  0.0747
   35PNCE   C3A  308  14.203   3.880   6.616  0.4473 -0.1425  0.1455
   35PNCE   C1B  309  13.951   3.876   7.879  0.0869  0.1094 -0.2972
   35PNCE   C2B  310  13.743   3.797   7.538 -0.3898  0.2604 -0.2554
   35PNCE   C3B  311  13.624   3.750   7.143  0.4013 -0.0314 -0.2730
   35PNCE   D4B  312  13.745   3.497   6.702 -0.1142 -0.1821 -0.1505
   35PNCE   C5B  313  13.631   3.036   6.629  0.1237 -0.4508  0.2825
   35PNCE   C6B  314  13.294   2.774   6.771  0.3171 -0.0716  0.0536
   36PNCE   AM1  315   0.792   2.894   8.847 -0.0712  0.0417  0.1257
   36PNCE   AM2  316   0.943   2.667   8.780 -0.2102 -0.0639 -0.1836
   36PNCE   T1A  317   1.019   3.123   8.479  0.0872 -0.0126  0.0981
   36PNCE   C2A  318   1.217   3.470   8.307 -0.0715 -0.0649 -0.0907
   36PNCE   C3A  319   1.455   3.753   8.131 -0.1815 -0.0319 -0.0502
   36PNCE   C1B  320   0.838   2.511   8.376 -0.0888 -0.0685 -0.1312
   36PNCE   C2B  321   0.876   2.434   7.966  0.0156  0.0867  0.0941
   36PNCE   C3B  322   0.962   2.407   7.565  0.2820 -0.0881  0.0177
   36PNCE   D4B  323   0.963   2.725   7.217 -0.0471  0.5738 -0.0552
   36PNCE   C5B  324   0.588   2.815   6.912  0.0537  0.0050  0.2554
   36PNCE   C6B  325   0.331   2.932   6.559  0.0911  0.2458  0.2387
   37XCA    COO  326   8.369   3.580   4.436 -0.2347  0.2558 -0.3538
   37XCA     C1  327   8.341   3.745   4.829  0.0078  0.0472 -0.2101
   37XCA     C2  328   8.378   3.976   5.174  0.1485 -0.0187 -0.1745
   37XCA     C3  329   8.132   4.175   5.610 -0.0375 -0.0646  0.1071
   37XCA     C4  330   7.978   4.569   5.734  0.1273 -0.1833 -0.1771
   37XCA     C5  331   7.946   5.017   5.801 -0.2143 -0.2075  0.1622
   37XCA     C6  332   7.723   5.411   5.668 -0.0663  0.0488  0.0690
   38CHOL   ROH  333   7.134   5.291   8.085 -0.0742 -0.1129  0.0613
   38CHOL    R1  334   7.092   5.352   7.812 -0.0593  0.1106  0.1065
   38CHOL    R2  335   6.982   5.171   7.634  0.3317  0.1018 -0.1384
   38CHOL    R3  336   6.807   5.373   7.586 -0.0049 -0.1447  0.0102
   38CHOL    R4  337   6.820   5.226   7.334  0.4019  0.1700 -0.1638
   38CHOL    R5  338   6.852   5.439   7.361  0.0093  0.2048  0.1100
   38CHOL    C1  339   6.562   5.448   7.114  0.1267 -0.0217 -0.0390
   38CHOL    C2  340   6.696   5.363   6.859 -0.1357 -0.1590 -0.0581
   39PNCE   AM1  341  12.608  11.936   5.043 -0.0609 -0.0760 -0.1039
   39PNCE   AM2  342  12.728  11.677   4.980  0.2399 -0.1726 -0.1696
   39PNCE   T1A  343  12.605  11.817   5.460  0.1849  0.1614 -0.0162
   39PNCE   C2A  344  12.414  11.716   5.880  0.1699 -0.0188 -0.2266
   39PNCE   C3A  345  12.081  11.759   6.094  0.0122 -0.1028  0.0783
   39PNCE   C1B  346  12.569  11.344   5.205  0.1263 -0.0153 -0.0233
   39PNCE   C2B  347  12.352  11.292   5.581 -0.2429  0.0639 -0.2058
   39PNCE   C3B  348  12.398  11.141   5.961  0.1050 -0.1375  0.0660
   39PNCE   D4B  349  12.392  10.698   6.191  0.2773 -0.2869 -0.0613
   39PNCE   C5B  350  12.725  10.590   6.506 -0.0418  0.0928 -0.1863
   39PNCE   C6B  351  12.824  10.138   6.678  0.2676  0.3245 -0.0928
   40PNCE   AM1  352  13.001  15.097   9.033 -0.1909 -0.0825 -0.1947
   40PNCE   AM2  353  13.080  15.010   9.325  0.0335  0.1165 -0.0297
   40PNCE   T1A  354  13.016  14.940   8.629 -0.0599  0.2000 -0.1977
   40PNCE   C2A  355  13.067  14.785   8.118 -0.0643  0.2183 -0.1053
   40PNCE   C3A  356  13.201  14.712   7.751  0.0440 -0.1374 -0.1936
   40PNCE   C1B  357  13.047  14.586   9.014  0.1074 -0.3978  0.0360
   40PNCE   C2B  358  12.839  14.425   8.667  0.0594 -0.0195 -0.3855
   40PNCE   C3B  359  12.777  14.332   8.186 -0.1489  0.4740  0.0567
   40PNCE   D4B  360  12.809  14.383   7.824  0.1199  0.0766 -0.2403
   40PNCE   C5B  361  12.849  13.910   7.760 -0.2601 -0.1255  0.1654
   40PNCE   C6B  362  12.622  13.493   7.634 -0.3844  0.0712 -0.0867
   41CHOL   ROH  363  15.487  14.952   8.590  0.1983 -0.4061 -0.0050
   41CHOL    R1  364  15.611  15.047   8.354  0.2925 -0.4184  0.0369
   41CHOL    R2  365  15.649  14.888   8.132  0.1558 -0.3638 -0.0350
   41CHOL    R3  366  15.518  15.089   8.005  0.3370 -0.1900  0.0524
   41CHOL    R4  367  15.651  14.938   7.790  0.0136 -0.3562 -0.0333
   41CHOL    R5  368  15.667  15.153   7.827  0.3126 -0.3765 -0.0342
   41CHOL    C1  369  15.529  15.157   7.471  0.1010 -0.1887  0.0499
   41CHOL    C2  370  15.836  14.970   7.228  0.0935  0.1205  0.1948
   42PNCE   AM1  371   9.069  14.198   7.719 -0.1463  0.4227 -0.1464
   42PNCE   AM2  372   9.485  14.291   7.814 -0.2051  0.0289  0.0995
   42PNCE   T1A  373   8.759  14.316   7.563  0.1013 -0.0814  0.1305
   42PNCE   C2A  374   8.501  14.644   7.283  0.1291 -0.1901  0.1137
   42PNCE   C3A  375   8.156  14.708   6.949 -0.0530 -0.0041 -0.0687
   42PNCE   C1B  376   9.467  14.271   7.434 -0.0198  0.3326  0.2583
   42PNCE   C2B  377   9.095  13.994   7.300  0.1834 -0.0626  0.1357
   42PNCE   C3B  378   9.008  13.897   6.854  0.1427  0.1465 -0.0271
   42PNCE   D4B  379   9.275  14.033   6.550 -0.0067 -0.0928 -0.0445
   42PNCE   C5B  380   9.710  14.146   6.446 -0.0522  0.2562  0.0772
   42PNCE   C6B  381  10.015  14.238   6.148  0.2534  0.2524  0.1848
   43PNCE   AM1  382  13.811   9.820   8.629  0.2695 -0.1900  0.2174
   43PNCE   AM2  383  13.678   9.583   8.543  0.0924  0.1658  0.0768
   43PNCE   T1A  384  13.737  10.271   8.430  0.2154  0.1152 -0.1895
   43PNCE   C2A  385  13.742  10.633   8.115  0.2346  0.1217  0.0217
   43PNCE   C3A  386  14.031  10.905   7.943  0.1396  0.3311  0.2429
   43PNCE   C1B  387  14.080   9.505   8.288  0.5039 -0.1893  0.3194
   43PNCE   C2B  388  14.377   9.617   7.818 -0.4368 -0.0264 -0.1477
   43PNCE   C3B  389  14.512   9.704   7.377 -0.3193  0.1416 -0.1581
   43PNCE   D4B  390  14.918   9.545   7.076  0.0037  0.0348 -0.0970
   43PNCE   C5B  391  15.067   9.152   6.989 -0.0069  0.2600  0.1079
   43PNCE   C6B  392  15.370   8.926   6.669  0.0806  0.0994  0.2914
   44XCA    COO  393  13.159   6.705   8.410 -0.2067  0.0472 -0.4903
   44XCA     C1  394  13.123   6.923   8.048  0.0215 -0.2417  0.1266
   44XCA     C2  395  13.031   7.036   7.542  0.0732 -0.1912 -0.1397
   44XCA     C3  396  13.082   6.804   7.183  0.1638 -0.2130 -0.1702
   44XCA     C4  397  13.058   6.718   6.729 -0.0481  0.2496  0.1483
   44XCA     C5  398  12.831   6.440   6.497  0.0729 -0.3890 -0.1933
   44XCA     C6  399  12.736   6.127   6.290 -0.2411  0.1064  0.0944
   45CHOL   ROH  400   3.892   4.846   8.058 -0.0498 -0.1482 -0.0466
   45CHOL    R1  401   3.733   4.935   7.841 -0.0900 -0.1484 -0.0171
   45CHOL    R2  402   3.826   4.938   7.581 -0.0938 -0.0281 -0.0158
   45CHOL    R3  403   3.601   4.792   7.533 -0.0326 -0.1088 -0.0612
   45CHOL    R4  404   3.645   4.945   7.286 -0.1970  0.1316  0.0500
   45CHOL    R5  405   3.461   4.939   7.405 -0.1555 -0.0682  0.1119
   45CHOL    C1  406   3.329   4.812   7.071 -0.1997  0.1488  0.0457
   45CHOL    C2  407   3.216   5.001   6.738  0.1067  0.1491  0.1398
   46CHOL   ROH  408  13.834   3.828   4.279  0.2500  0.1409 -0.1063
   46CHOL    R1  409  13.947   3.959   4.504  0.1120  0.1865 -0.0626
   46CHOL    R2  410  13.793   4.088   4.693 -0.0178  0.0634 -0.0843
   46CHOL    R3  411  13.927   3.926   4.866  0.0459  0.1295 -0.0704
   46CHOL    R4  412  13.848   4.158   5.027  0.0577  0.1719 -0.1184
   46CHOL    R5  413  14.049   4.077   5.006  0.0643  0.1888 -0.1464
   46CHOL    C1  414  14.005   4.046   5.384  0.1615  0.2971 -0.1252
   46CHOL    C2  415  14.199   4.105   5.730  0.1373 -0.1660  0.2316
   47XCA    COO  416   7.711   0.279   8.151  0.2082  0.0123 -0.0354
   47XCA     C1  417   7.732   0.219   7.722 -0.2636 -0.0211  0.0598
   47XCA     C2  418   7.639   0.240   7.266  0.1451  0.2593 -0.1020
   47XCA     C3  419   7.528   0.047   6.886  0.0945 -0.1859 -0.0472
   47XCA     C4  420   7.404   0.163   6.477  0.0418  0.3632 -0.1943
   47XCA     C5  421   7.153   0.097   6.118  0.0008 -0.1040  0.0483
   47XCA     C6  422   7.021   0.308   5.733 -0.0393  0.0649 -0.0386
   48CHOL   ROH  423   1.694   8.937   8.595 -0.0245  0.2271  0.0495
   48CHOL    R1  424   1.558   9.065   8.383  0.1424  0.2350 -0.0542
   48CHOL    R2  425   1.374   9.267   8.424  0.0432  0.1733 -0.1847
   48CHOL    R3  426   1.534   9.403   8.251  0.1732  0.2576 -0.0026
   48CHOL    R4  427   1.323   9.594   8.322  0.1625  0.2488 -0.0087
   48CHOL    R5  428   1.381   9.535   8.121  0.2743  0.3671 -0.0119
   48CHOL    C1  429   1.442   9.911   8.100  0.3540  0.3717  0.2648
   48CHOL    C2  430   1.747  10.278   8.014 -0.0095  0.0126 -0.1946
   49PNCE   AM1  431  10.159   6.177   8.441 -0.1909  0.1193  0.3296
   49PNCE   AM2  432  10.331   6.428   8.374 -0.0749 -0.1829  0.1405
   49PNCE   T1A  433  10.358   6.053   7.992  0.0102 -0.0804  0.0931
   49PNCE   C2A  434  10.569   6.036   7.691 -0.2101  0.0233  0.2705
   49PNCE   C3A  435  10.977   6.116   7.470 -0.2143  0.0295 -0.4082
   49PNCE   C1B  436  10.417   6.501   7.984 -0.3000 -0.1910 -0.0327
   49PNCE   C2B  437  10.600   6.459   7.545 -0.1987 -0.1636  0.2533
   49PNCE   C3B  438  10.740   6.530   7.117 -0.0685 -0.0069 -0.1005
   49PNCE   D4B  439  10.784   6.677   6.762 -0.3788 -0.0721  0.1837
   49PNCE   C5B  440  10.588   6.573   6.396 -0.1201  0.3897  0.1553
   49PNCE   C6B  441  10.580   6.163   6.117 -0.0380 -0.1623 -0.0104
   50PNCE   AM1  442  13.229   2.546   8.803 -0.3004 -0.3487  0.3267
   50PNCE   AM2  443  13.152   2.597   8.439 -0.1676 -0.3313  0.0670
   50PNCE   T1A  444  13.097   2.143   8.615 -0.0349 -0.1951  0.0262
   50PNCE   C2A  445  13.153   1.809   8.399  0.1690  0.2029 -0.2586
   50PNCE   C3A  446  13.396   1.580   8.091  0.0536 -0.3570  0.1638
   50PNCE   C1B  447  13.116   2.641   8.081 -0.1980  0.1632  0.1996
   50PNCE   C2B  448  13.083   2.397   7.646  0.1062  0.1935 -0.1991
   50PNCE   C3B  449  13.207   2.422   7.186 -0.1633  0.1823 -0.1832
   50PNCE   D4B  450  13.315   2.273   6.775 -0.1275  0.0332 -0.0493
   50PNCE   C5B  451  13.051   2.347   6.395 -0.1519 -0.0968  0.0651
   50PNCE   C6B  452  12.737   2.539   6.074 -0.0011  0.1802 -0.3584
   51CHOL   ROH  453  13.088   6.372   4.150  0.2984  0.0599  0.1696
   51CHOL    R1  454  12.892   6.326   4.350  0.1368  0.0476  0.0100
   51CHOL    R2  455  12.833   6.073   4.444  0.1557  0.0561  0.0408
   51CHOL    R3  456  12.885   6.187   4.686 -0.1090  0.1585  0.0529
   51CHOL    R4  457  12.697   5.969   4.745  0.2311 -0.1616  0.0018
   51CHOL    R5  458  12.675   6.179   4.801 -0.1390 -0.1884 -0.0133
   51CHOL    C1  459  12.666   6.016   5.146  0.0265 -0.1924 -0.0097
   51CHOL    C2  460  12.893   5.796   5.395  0.1229  0.0400  0.1120
   52PNCE   AM1  461   1.319   3.184   8.952 -0.2036 -0.2542  0.1774
   52PNCE   AM2  462   1.550   2.956   8.942  0.0779  0.0223 -0.0585
   52PNCE   T1A  463   1.486   3.604   8.731 -0.2792  0.3801  0.0911
   52PNCE   C2A  464   1.667   3.972   8.594  0.0753 -0.1734  0.0261
   52PNCE   C3A  465   1.745   4.454   8.559 -0.1229  0.0618 -0.2536
   52PNCE   C1B  466   1.451   2.801   8.547  0.4383 -0.0937  0.0652
   52PNCE   C2B  467   1.131   2.874   8.120 -0.4723  0.0175  0.0123
   52PNCE   C3B  468   1.066   2.841   7.692 -0.1945 -0.1301  0.3227
   52PNCE   D4B  469   1.427   2.876   7.338 -0.0470 -0.0444 -0.2078
   52PNCE   C5B  470   1.343   2.402   7.212 -0.0831 -0.1348 -0.2480
   52PNCE   C6B  471   1.018   2.104   7.228  0.1358 -0.1634  0.2357
   53PNCE   AM1  472  13.459   5.287   8.278 -0.0988 -0.0802 -0.2071
   53PNCE   AM2  473  13.423   5.671   8.236  0.3869  0.0584 -0.0595
   53PNCE   T1A  474  13.426   5.086   7.904 -0.1994 -0.1699 -0.1019
   53PNCE   C2A  475  13.449   4.789   7.633 -0.3035  0.0243  0.3192
   53PNCE   C3A  476  13.843   4.730   7.384  0.0613  0.2217  0.1651
   53PNCE   C1B  477  13.385   5.799   7.827  0.4819 -0.1069 -0.1005
   53PNCE   C2B  478  13.298   5.940   7.445  0.0662  0.0985  0.1835
   53PNCE   C3B  479  13.270   5.858   6.950  0.1693 -0.2305 -0.1653
   53PNCE   D4B  480  12.997   5.865   6.646 -0.2780  0.0422  0.1091
   53PNCE   C5B  481  12.881   5.644   6.254  0.1368  0.0276  0.2250
   53PNCE   C6B  482  13.098   5.518   5.903  0.3164 -0.0796 -0.3760
   54CHOL   ROH  483   0.643   1.633   4.905  0.1013 -0.2702  0.0831
   54CHOL    R1  484   0.646   1.754   5.161  0.0833 -0.1197  0.0132
   54CHOL    R2  485   0.435   1.905   5.256  0.0070 -0.2002 -0.0260
   54CHOL    R3  486   0.449   1.733   5.466  0.1682 -0.0720  0.0718
   54CHOL    R4  487   0.272   1.948   5.558  0.0685 -0.1218 -0.0033
   54CHOL    R5  488   0.450   1.874   5.659  0.1414  0.0414 -0.0101
   54CHOL    C1  489   0.189   1.810   5.930  0.2557  0.0441  0.1018
   54CHOL    C2  490  -0.151   1.876   6.274 -0.0274 -0.0525 -0.1606
   55XCA    COO  491  13.690  11.601   4.763  0.1536 -0.0056 -0.1939
   55XCA     C1  492  14.113  11.776   5.075 -0.0474 -0.1454  0.3187
   55XCA     C2  493  14.190  11.826   5.444  0.0045 -0.0442  0.1719
   55XCA     C3  494  14.188  11.828   5.924  0.0604 -0.0652 -0.2134
   55XCA     C4  495  14.461  11.638   6.153 -0.1265 -0.0390 -0.1734
   55XCA     C5  496  14.587  11.167   6.276 -0.2652 -0.0161 -0.2381
   55XCA     C6  497  14.705  10.732   6.378 -0.1331 -0.0468 -0.1571
   56XCA    COO  498  14.505  13.774   8.869  0.0167  0.1763 -0.0559
   56XCA     C1  499  14.360  13.697   8.404 -0.2077 -0.1654 -0.2744
   56XCA     C2  500  14.127  13.792   7.969 -0.1022  0.1017 -0.2340
   56XCA     C3  501  14.034  13.708   7.621 -0.2506 -0.0036 -0.1844
   56XCA     C4  502  14.339  13.785   7.363  0.2711  0.1527 -0.0383
   56XCA     C5  503  14.622  13.561   7.052  0.1111  0.0501 -0.0061
   56XCA     C6  504  14.755  13.327   6.637  0.0304  0.4877 -0.1852
   57CHOL   ROH  505   1.126   6.066   8.156  0.3929 -0.0998  0.1128
   57CHOL    R1  506   1.282   6.037   7.921  0.2057 -0.0666 -0.0171
   57CHOL    R2  507   1.188   5.909   7.695 -0.0445  0.1311 -0.0278
   57CHOL    R3  508   1.257   6.142   7.574  0.0259  0.1570  0.0599
   57CHOL    R4  509   1.201   5.957   7.353  0.1273  0.2068 -0.0119
   57CHOL    R5  510   1.383   6.074   7.382  0.1200  0.1942  0.1060
   57CHOL    C1  511   1.274   6.205   7.040  0.2934  0.2753  0.0797
   57CHOL    C2  512   1.389   6.268   6.754  0.0830  0.2145 -0.1653
   58CHOL   ROH  513   3.852  11.758   9.495  0.1687 -0.2736  0.1831
   58CHOL    R1  514   3.805  11.518   9.353  0.2044 -0.2353  0.1068
   58CHOL    R2  515   3.576  11.475   9.204  0.1620 -0.2634  0.1832
   58CHOL    R3  516   3.754  11.422   9.006  0.1021 -0.1182  0.0884
   58CHOL    R4  517   3.502  11.301   8.915  0.0926 -0.1281  0.1180
   58CHOL    R5  518   3.696  11.201   8.932  0.1236 -0.0944 -0.0057
   58CHOL    C1  519   3.626  11.149   8.560 -0.0041  0.0872 -0.0090
   58CHOL    C2  520   3.340  11.282   8.233 -0.1200 -0.0160 -0.4367
   59CHOL   ROH  521  15.339   4.970   7.701  0.2210 -0.0100 -0.1843
   59CHOL    R1  522  15.406   4.849   7.454  0.2568 -0.0584 -0.1519
   59CHOL    R2  523  15.580   4.635   7.436  0.0873 -0.2106 -0.0627
   59CHOL    R3  524  15.372   4.520   7.303  0.0584 -0.0249 -0.1795
   59CHOL    R4  525  15.612   4.406   7.179  0.0218 -0.2734 -0.0149
   59CHOL    R5  526  15.448   4.506   7.076  0.1842 -0.1261 -0.1294
   59CHOL    C1  527  15.436   4.166   6.904 -0.0437 -0.1356 -0.0968
   59CHOL    C2  528  15.525   3.917   6.634  0.2111 -0.0205 -0.2813
   60PNCE   AM1  529   4.981   5.395   8.245  0.2101 -0.1766 -0.1798
   60PNCE   AM2  530   4.624   5.280   8.282 -0.3079  0.0354 -0.1420
   60PNCE   T1A  531   4.622   5.761   8.259 -0.0372 -0.0612  0.2362
   60PNCE   C2A  532   4.172   5.763   8.178 -0.1922  0.0035  0.0080
   60PNCE   C3A  533   4.078   6.025   7.870  0.0040  0.0720  0.0567
   60PNCE   C1B  534   4.394   5.307   7.958  0.2367 -0.0474  0.1452
   60PNCE   C2B  535   4.410   5.633   7.695  0.1450  0.2125 -0.1892
   60PNCE   C3B  536   4.434   5.929   7.468 -0.1053 -0.1696  0.0020
   60PNCE   D4B  537   4.480   6.111   7.109 -0.2981  0.2047  0.2630
   60PNCE   C5B  538   4.413   6.498   6.976  0.2662 -0.0207 -0.0992
   60PNCE   C6B  539   4.572   6.923   6.838  0.1458 -0.0500  0.0916
   61PNCE   AM1  540   0.205   2.132   8.455 -0.2181  0.0268 -0.1057
   61PNCE   AM2  541  -0.064   2.309   8.501  0.1572  0.1588 -0.2406
   61PNCE   T1A  542   0.232   2.274   8.085 -0.1080  0.0675 -0.1835
   61PNCE   C2A  543   0.278   2.108   7.637  0.0777  0.1064  0.4026
   61PNCE   C3A  544   0.371   1.924   7.228 -0.2279  0.0220 -0.0800
   61PNCE   C1B  545  -0.218   2.111   8.087 -0.3871  0.1901 -0.0115
   61PNCE   C2B  546  -0.361   1.711   7.810  0.1866 -0.4644  0.0894
   61PNCE   C3B  547  -0.390   1.473   7.475 -0.2041 -0.0694  0.0787
   61PNCE   D4B  548  -0.665   1.510   7.135 -0.0855  0.3579 -0.0393
   61PNCE   C5B  549  -0.727   1.026   7.073 -0.2623  0.0097 -0.1568
   61PNCE   C6B  550  -0.485   0.717   6.925 -0.0350  0.2582  0.1532
   62PNCE   AM1  551   6.494   9.423   9.072  0.0881 -0.2154  0.0978
   62PNCE   AM2  552   6.326   9.214   9.043 -0.3531  0.0131 -0.4491
   62PNCE   T1A  553   6.244   9.560   8.633 -0.2008 -0.3088 -0.1421
   62PNCE   C2A  554   6.002   9.694   8.272  0.0789  0.0002 -0.1464
   62PNCE   C3A  555   5.801   9.914   7.834  0.0936 -0.0834 -0.3186
   62PNCE   C1B  556   6.169   9.052   8.675  0.0502 -0.0135 -0.0232
   62PNCE   C2B  557   6.050   8.674   8.333  0.1303 -0.2738  0.0699
   62PNCE   C3B  558   5.815   8.784   7.983  0.0538 -0.0801  0.0575
   62PNCE   D4B  559   5.390   9.087   7.830 -0.1066 -0.1058  0.0717
   62PNCE   C5B  560   5.310   9.069   7.368 -0.4027 -0.1799 -0.0991
   62PNCE   C6B  561   5.341   9.239   6.951  0.1252  0.3428 -0.0093
   63PNCE   AM1  562  13.181  14.181   9.367 -0.0450  0.1577  0.1421
   63PNCE   AM2  563  13.531  14.414   9.408 -0.3123  0.3146  0.3455
   63PNCE   T1A  564  13.168  14.122   8.898  0.1463  0.0877 -0.0439
   63PNCE   C2A  565  13.051  14.004   8.529  0.2010  0.0945 -0.0458
   63PNCE   C3A  566  12.819  13.794   8.293 -0.2360  0.0569 -0.4062
   63PNCE   C1B  567  13.710  14.408   8.999  0.2684  0.0677  0.1725
   63PNCE   C2B  568  13.916  14.663   8.612 -0.2125 -0.1075 -0.1588
   63PNCE   C3B  569  14.204  14.942   8.359 -0.0806 -0.1156 -0.2255
   63PNCE   D4B  570  14.103  15.273   8.083  0.0603 -0.2699 -0.3711
   63PNCE   C5B  571  14.216  15.197   7.666  0.0670 -0.0355 -0.2350
   63PNCE   C6B  572  14.158  14.902   7.321  0.3244 -0.1307  0.2090
   64PNCE   AM1  573  11.918  11.182   8.949 -0.1395  0.2448  0.3556
   64PNCE   AM2  574  11.715  10.946   8.758  0.2140  0.1417  0.1183
   64PNCE   T1A  575  12.205  11.184   8.673 -0.0514 -0.0720  0.0882
   64PNCE   C2A  576  12.333  11.022   8.273 -0.2162  0.0142  0.1828
   64PNCE   C3A  577  12.508  10.692   8.051  0.1020 -0.0905 -0.2294
   64PNCE   C1B  578  11.726  11.195   8.301  0.0281 -0.1037 -0.1277
   64PNCE   C2B  579  11.893  11.246   7.944  0.0131  0.2118 -0.2126
   64PNCE   C3B  580  11.531  11.451   7.723  0.2737  0.0260  0.0123
   64PNCE   D4B  581  11.306  11.459   7.332 -0.0035 -0.0246 -0.3531
   64PNCE   C5B  582  11.284  11.796   7.059  0.1834  0.0932  0.0401
   64PNCE   C6B  583  11.506  11.694   6.643  0.3459  0.0285  0.1299
   65PNCE   AM1  584  12.570   6.064   8.648 -0.1207 -0.1156 -0.3080
   65PNCE   AM2  585  12.905   6.308   8.623  0.0816 -0.0216 -0.1703
   65PNCE   T1A  586  12.293   6.422   8.575 -0.1238  0.0735 -0.0537
   65PNCE   C2A  587  12.104   6.851   8.705  0.0318 -0.0223  0.2003
   65PNCE   C3A  588  11.826   7.198   8.581 -0.3410 -0.1714 -0.0655
   65PNCE   C1B  589  12.959   6.083   8.298  0.1569  0.2192  0.0993
   65PNCE   C2B  590  12.872   5.774   7.879  0.0957  0.1541  0.1535
   65PNCE   C3B  591  12.787   5.809   7.550  0.1741  0.0898 -0.1571
   65PNCE   D4B  592  12.723   5.714   7.163  0.0447 -0.1738 -0.0209
   65PNCE   C5B  593  12.978   5.436   6.890  0.0609  0.0402 -0.0428
   65PNCE   C6B  594  13.398   5.389   6.722  0.2279 -0.0992 -0.0645
   66CHOL   ROH  595   6.477   7.380   8.477  0.2000  0.0559  0.0211
   66CHOL    R1  596   6.416   7.428   8.205  0.1438 -0.0907  0.0072
   66CHOL    R2  597   6.451   7.675   8.086 -0.1695 -0.0712 -0.0533
   66CHOL    R3  598   6.597   7.532   7.907  0.0215  0.0692 -0.0135
   66CHOL    R4  599   6.442   7.717   7.743 -0.1640 -0.1218 -0.0598
   66CHOL    R5  600   6.450   7.501   7.721  0.0823 -0.1180 -0.0333
   66CHOL    C1  601   6.573   7.607   7.376  0.0184 -0.0195 -0.0263
   66CHOL    C2  602   6.486   7.354   7.101  0.0421  0.2994 -0.1181
   67PNCE   AM1  603  13.297  12.462   9.019 -0.1018  0.0618 -0.0679
   67PNCE   AM2  604  13.657  12.362   9.138 -0.0304  0.3936  0.0835
   67PNCE   T1A  605  13.061  12.464   8.753  0.0181  0.1692 -0.2387
   67PNCE   C2A  606  12.600  12.474   8.520 -0.0616  0.1726  0.2170
   67PNCE   C3A  607  12.314  12.604   8.282 -0.2285 -0.0599 -0.0326
   67PNCE   C1B  608  13.731  12.716   8.708 -0.1116  0.3950 -0.0880
   67PNCE   C2B  609  13.979  13.032   8.378  0.0501  0.0298  0.0310
   67PNCE   C3B  610  13.977  12.982   7.976 -0.2777  0.5670  0.1696
   67PNCE   D4B  611  13.886  13.009   7.551 -0.2756  0.1063 -0.0960
   67PNCE   C5B  612  13.628  13.326   7.482 -0.1587 -0.1184 -0.1249
   67PNCE   C6B  613  13.472  13.730   7.554  0.1755 -0.0473 -0.1121
   68CHOL   ROH  614   6.879   2.559   4.430  0.2164 -0.0449  0.0494
   68CHOL    R1  615   6.777   2.667   4.671  0.2908 -0.0805  0.0973
   68CHOL    R2  616   6.507   2.672   4.730  0.2805  0.1931  0.0428
   68CHOL    R3  617   6.587   2.544   4.956  0.0891 -0.0463 -0.0210
   68CHOL    R4  618   6.372   2.723   5.043  0.3870  0.2758  0.0758
   68CHOL    R5  619   6.573   2.711   5.127  0.3799 -0.0963  0.0570
   68CHOL    C1  620   6.368   2.632   5.439  0.2693  0.0993  0.0351
   68CHOL    C2  621   6.310   2.745   5.738  0.1381 -0.6925  0.3019
   69CHOL   ROH  622   4.577  15.447   5.287  0.0269 -0.1336 -0.1444
   69CHOL    R1  623   4.560  15.607   5.520 -0.1504 -0.1548 -0.1409
   69CHOL    R2  624   4.477  15.506   5.764 -0.0538 -0.2496 -0.1456
   69CHOL    R3  625   4.714  15.609   5.850 -0.1631 -0.0010 -0.1354
   69CHOL    R4  626   4.546  15.599   6.090 -0.1737 -0.1506 -0.1481
   69CHOL    R5  627   4.651  15.773   6.013 -0.3435 -0.0482 -0.1547
   69CHOL    C1  628   4.807  15.749   6.360 -0.3462  0.1404 -0.1400
   69CHOL    C2  629   4.666  15.789   6.655 -0.1747  0.1374  0.2771
   70PNCE   AM1  630  11.874  14.161   9.604 -0.0164 -0.4859  0.0904
   70PNCE   AM2  631  11.698  14.472   9.388  0.1220 -0.1832 -0.0293
   70PNCE   T1A  632  11.896  13.977   9.249 -0.0109  0.1995 -0.1053
   70PNCE   C2A  633  12.138  13.828   8.906 -0.0860 -0.1842 -0.2330
   70PNCE   C3A  634  12.383  13.518   8.748 -0.1714 -0.1737  0.1683
   70PNCE   C1B  635  11.865  14.388   8.925  0.3226 -0.4431 -0.3102
   70PNCE   C2B  636  11.997  14.239   8.656  0.0170  0.0527  0.2067
   70PNCE   C3B  637  12.024  14.061   8.258 -0.0702  0.0311  0.1325
   70PNCE   D4B  638  11.866  13.785   7.933  0.0272 -0.0042 -0.0512
   70PNCE   C5B  639  12.193  13.759   7.584  0.1673  0.0314 -0.3486
   70PNCE   C6B  640  12.464  14.097   7.435  0.3469 -0.0395 -0.0196
   71PNCE   AM1  641  14.481   9.348   8.489 -0.0652  0.3933 -0.2338
   71PNCE   AM2  642  14.493   8.987   8.491 -0.0028  0.1459 -0.0977
   71PNCE   T1A  643  14.722   9.332   8.092 -0.3026  0.1060 -0.2156
   71PNCE   C2A  644  14.780   9.370   7.633 -0.1386  0.2332  0.0888
   71PNCE   C3A  645  15.207   9.393   7.411  0.0378 -0.1719 -0.1924
   71PNCE   C1B  646  14.730   8.746   8.227 -0.2950  0.1487  0.1445
   71PNCE   C2B  647  14.755   8.456   7.796 -0.0880 -0.0789  0.2312
   71PNCE   C3B  648  14.532   8.397   7.365  0.0563  0.0789  0.1782
   71PNCE   D4B  649  14.534   8.204   6.914  0.0872  0.1780  0.4350
   71PNCE   C5B  650  14.465   7.869   6.798 -0.1437  0.1295 -0.1476
   71PNCE   C6B  651  14.699   7.556   6.651  0.0228 -0.2618 -0.0752
   72PNCE   AM1  652   7.616   9.421   8.745  0.0377 -0.0647 -0.1042
   72PNCE   AM2  653   7.968   9.464   8.481  0.1316  0.1241  0.0246
   72PNCE   T1A  654   7.314   9.425   8.351  0.1114 -0.4098 -0.0258
   72PNCE   C2A  655   7.068   9.584   8.161 -0.0011 -0.1034 -0.0277
   72PNCE   C3A  656   6.812   9.677   7.876  0.3102  0.0523 -0.2792
   72PNCE   C1B  657   7.808   9.671   8.095 -0.1511 -0.1413 -0.1373
   72PNCE   C2B  658   7.893   9.762   7.632 -0.1799  0.1377  0.0443
   72PNCE   C3B  659   7.830   9.861   7.189 -0.0880 -0.1093 -0.2566
   72PNCE   D4B  660   7.769   9.875   6.783 -0.0141  0.2513 -0.6094
   72PNCE   C5B  661   7.444  10.164   6.640 -0.2872  0.3218 -0.2165
   72PNCE   C6B  662   7.230  10.552   6.417  0.1169  0.2074 -0.2581
   73CHOL   ROH  663  15.215   8.538   6.818 -0.0155 -0.0421 -0.0244
   73CHOL    R1  664  15.279   8.475   6.550  0.0075 -0.0428 -0.0185
   73CHOL    R2  665  15.194   8.628   6.336 -0.0028 -0.0632 -0.0279
   73CHOL    R3  666  15.459   8.635   6.276 -0.0005 -0.0278 -0.0153
   73CHOL    R4  667  15.333   8.808   6.076  0.0026  0.0722  0.0673
   73CHOL    R5  668  15.466   8.639   6.037  0.0075  0.0936 -0.0138
   73CHOL    C1  669  15.663   8.919   5.868  0.0079  0.1844  0.1344
   73CHOL    C2  670  15.605   9.243   5.654  0.1413  0.2684 -0.2935
   74CHOL   ROH  671   6.597   6.174   5.548 -0.0462 -0.0526  0.1938
   74CHOL    R1  672   6.847   6.049   5.593 -0.0498 -0.0931  0.1016
   74CHOL    R2  673   7.052   6.172   5.732  0.0736 -0.0675 -0.1027
   74CHOL    R3  674   7.043   5.945   5.882  0.1124  0.0200  0.0342
   74CHOL    R4  675   7.302   6.065   5.945  0.0693  0.1371  0.0074
   74CHOL    R5  676   7.267   5.862   5.877  0.1400  0.0826  0.1242
   74CHOL    C1  677   7.439   5.791   6.210  0.1032  0.3384  0.2001
   74CHOL    C2  678   7.781   5.782   6.095 -0.0470 -0.2668 -0.1320
   75PNCE   AM1  679   6.593   4.213   7.477  0.2142  0.1217 -0.1889
   75PNCE   AM2  680   6.590   4.444   7.582 -0.1046  0.0021 -0.0340
   75PNCE   T1A  681   6.459   3.908   7.248 -0.0596  0.2334 -0.2444
   75PNCE   C2A  682   6.119   3.662   7.182  0.0368 -0.0988 -0.1435
   75PNCE   C3A  683   6.004   3.396   6.802 -0.2544  0.0240 -0.1326
   75PNCE   C1B  684   6.849   4.748   7.322  0.3060 -0.2231 -0.0189
   75PNCE   C2B  685   7.360   4.834   7.370  0.0021  0.0198 -0.2673
   75PNCE   C3B  686   7.794   4.868   7.275  0.1428  0.1571 -0.2160
   75PNCE   D4B  687   7.963   4.767   6.799 -0.0773 -0.1807  0.1649
   75PNCE   C5B  688   8.404   4.917   6.547  0.1150  0.3156  0.0244
   75PNCE   C6B  689   8.596   5.190   6.385  0.1078 -0.1083 -0.0231
   76XCA    COO  690   7.908  14.837   8.791 -0.2200 -0.1347  0.2542
   76XCA     C1  691   7.655  15.031   8.501  0.0610 -0.0495  0.1585
   76XCA     C2  692   7.250  15.026   8.224 -0.1558 -0.2592 -0.0351
   76XCA     C3  693   7.213  15.111   7.790  0.4024 -0.0852 -0.2005
   76XCA     C4  694   6.860  15.131   7.580 -0.1670 -0.0670  0.2287
   76XCA     C5  695   6.769  15.290   7.182 -0.2305  0.0010 -0.0831
   76XCA     C6  696   6.769  15.335   6.746  0.0760  0.0791 -0.1027
   77CHOL   ROH  697   4.050   8.505   5.079 -0.1558  0.1406  0.0605
   77CHOL    R1  698   4.027   8.447   5.355 -0.0589  0.1698  0.0760
   77CHOL    R2  699   3.807   8.519   5.505 -0.0886  0.0308  0.1093
   77CHOL    R3  700   3.803   8.255   5.568  0.1237  0.0366  0.1495
   77CHOL    R4  701   3.611   8.378   5.753 -0.1639 -0.1260 -0.0393
   77CHOL    R5  702   3.780   8.250   5.806 -0.0816  0.0541  0.1292
   77CHOL    C1  703   3.493   8.047   5.955 -0.0084 -0.2118 -0.0881
   77CHOL    C2  704   3.220   7.865   6.133 -0.1236  0.1760 -0.1401
   78PNCE   AM1  705  14.985   9.040   8.624 -0.1163 -0.2594  0.0413
   78PNCE   AM2  706  14.962   9.433   8.825 -0.0146  0.0084 -0.1079
   78PNCE   T1A  707  15.231   9.078   8.191 -0.2490 -0.0766 -0.1731
   78PNCE   C2A  708  15.179   8.985   7.738  0.1272 -0.2443 -0.1467
   78PNCE   C3A  709  15.257   8.863   7.359  0.1745 -0.1044  0.0063
   78PNCE   C1B  710  15.198   9.457   8.479  0.1964 -0.1432  0.0647
   78PNCE   C2B  711  15.250   9.573   8.044 -0.2070 -0.0375  0.4241
   78PNCE   C3B  712  15.347   9.799   7.722  0.0712  0.2638  0.0187
   78PNCE   D4B  713  15.266   9.863   7.280  0.2295 -0.1369 -0.0632
   78PNCE   C5B  714  15.580   9.880   6.946 -0.1142 -0.0094 -0.1479
   78PNCE   C6B  715  15.708   9.760   6.473 -0.1100 -0.0697  0.2079
   79XCA    COO  716  10.699   8.466   4.463 -0.1582 -0.2034  0.0040
   79XCA     C1  717  10.842   8.081   4.687  0.1224 -0.0777  0.2859
   79XCA     C2  718  10.879   8.060   5.129  0.1241  0.0622 -0.1614
   79XCA     C3  719  10.677   8.245   5.619  0.1124 -0.1404 -0.0132
   79XCA     C4  720  10.439   8.538   5.892 -0.0692 -0.1458  0.0803
   79XCA     C5  721  10.201   8.956   5.848 -0.1072  0.2230 -0.1435
   79XCA     C6  722  10.223   9.395   5.842 -0.1826  0.2976 -0.1513
   80PNCE   AM1  723   5.675  14.966   9.164 -0.0631  0.4337 -0.1676
   80PNCE   AM2  724   5.547  15.319   9.167 -0.1550  0.0888 -0.1190
   80PNCE   T1A  725   5.675  14.662   8.925 -0.1752  0.0929  0.2371
   80PNCE   C2A  726   5.719  14.456   8.521  0.1195 -0.1098 -0.0096
   80PNCE   C3A  727   5.468  14.326   8.235 -0.0882 -0.2166  0.1732
   80PNCE   C1B  728   5.299  15.291   8.772 -0.0504  0.0041 -0.1092
   80PNCE   C2B  729   5.046  15.198   8.299  0.1313  0.1166  0.3659
   80PNCE   C3B  730   4.940  15.039   7.887 -0.0332  0.1263 -0.0236
   80PNCE   D4B  731   4.919  15.022   7.539 -0.0461 -0.3025  0.0773
   80PNCE   C5B  732   4.531  15.194   7.355  0.5074  0.0428  0.1928
   80PNCE   C6B  733   4.005  15.223   7.298  0.1047 -0.2556 -0.3206
   81XCA    COO  734   8.873   1.418   4.151 -0.0056  0.1842 -0.4360
   81XCA     C1  735   9.026   1.714   4.521  0.1402  0.0751 -0.0358
   81XCA     C2  736   9.067   1.912   4.896 -0.0490  0.3629 -0.1955
   81XCA     C3  737   8.721   2.168   4.923 -0.0458 -0.3109 -0.2271
   81XCA     C4  738   8.510   2.130   5.335  0.4200 -0.0094  0.1161
   81XCA     C5  739   8.198   2.268   5.593 -0.0799 -0.1990 -0.4429
   81XCA     C6  740   8.039   2.545   5.949  0.4305 -0.0363  0.1179
   82CHOL   ROH  741  13.005   6.461   5.873 -0.2340  0.0252 -0.1440
   82CHOL    R1  742  13.230   6.515   6.036 -0.1745  0.0855 -0.2456
   82CHOL    R2  743  13.331   6.770   6.071 -0.3559  0.1397 -0.1305
   82CHOL    R3  744  13.299   6.712   6.335 -0.1441 -0.0713 -0.1469
   82CHOL    R4  745  13.383   6.992   6.331 -0.3861  0.0130 -0.0136
   82CHOL    R5  746  13.475   6.830   6.444 -0.1738  0.0083 -0.1782
   82CHOL    C1  747  13.384   7.067   6.729 -0.2050 -0.2590  0.0390
   82CHOL    C2  748  13.626   7.252   6.960 -0.1476 -0.0541  0.3527
   83CHOL   ROH  749  10.043  15.565   4.542 -0.3370 -0.1245  0.0776
   83CHOL    R1  750  10.014  15.512   4.819 -0.0554 -0.2104  0.0926
   83CHOL    R2  751  10.211  15.389   4.968  0.2200  0.0110 -0.0832
   83CHOL    R3  752  10.186  15.609   5.125  0.0641 -0.0476 -0.0230
   83CHOL    R4  753  10.328  15.415   5.292  0.1567 -0.0147 -0.0574
   83CHOL    R5  754  10.145  15.521   5.344  0.0823 -0.1375 -0.0532
   83CHOL    C1  755  10.372  15.637   5.629 -0.0265 -0.0845  0.0142
   83CHOL    C2  756  10.694  15.478   5.893 -0.2469 -0.1220  0.1680
   84PNCE   AM1  757   9.729   4.439   8.574  0.0181 -0.1236  0.1235
   84PNCE   AM2  758   9.674   4.648   8.293 -0.1261 -0.0808  0.0678
   84PNCE   T1A  759   9.908   4.235   8.204 -0.1505 -0.3147  0.1430
   84PNCE   C2A  760  10.026   4.270   7.815 -0.1155  0.0958  0.0213
   84PNCE   C3A  761  10.062   4.465   7.349  0.2248 -0.1634  0.1033
   84PNCE   C1B  762  10.064   4.805   7.992  0.3677 -0.2328 -0.3121
   84PNCE   C2B  763  10.049   4.963   7.663 -0.2190 -0.1652  0.0735
   84PNCE   C3B  764  10.145   4.986   7.308  0.0711 -0.3955  0.0516
   84PNCE   D4B  765  10.152   5.181   7.025  0.0244 -0.0373  0.2363
   84PNCE   C5B  766  10.372   4.943   6.670  0.0360  0.2046  0.0152
   84PNCE   C6B  767  10.606   4.829   6.296 -0.3506 -0.2534  0.1407
   85PNCE   AM1  768   7.911   7.238   8.593 -0.0270 -0.0833  0.1348
   85PNCE   AM2  769   7.884   6.811   8.508 -0.0457 -0.0645  0.0378
   85PNCE   T1A  770   7.667   7.232   8.109  0.2461  0.4107 -0.1410
   85PNCE   C2A  771   7.464   7.215   7.642 -0.0052 -0.1386 -0.1835
   85PNCE   C3A  772   7.397   7.027   7.178 -0.0902  0.1128  0.1174
   85PNCE   C1B  773   7.704   6.647   8.132 -0.1231 -0.0052  0.2493
   85PNCE   C2B  774   7.671   6.679   7.658  0.1659  0.1857  0.0219
   85PNCE   C3B  775   7.753   6.685   7.200  0.2271 -0.2573  0.0105
   85PNCE   D4B  776   7.754   6.924   6.861  0.1974 -0.1903  0.2481
   85PNCE   C5B  777   7.718   7.389   6.777  0.0256 -0.3040 -0.3177
   85PNCE   C6B  778   7.752   7.850   6.851  0.1932  0.1241 -0.0025
   86CHOL   ROH  779   5.404  13.645   7.294  0.1396 -0.0009  0.1077
   86CHOL    R1  780   5.170  13.487   7.291  0.1279  0.0177  0.0202
   86CHOL    R2  781   5.127  13.288   7.104  0.1825  0.0217  0.0048
   86CHOL    R3  782   5.089  13.133   7.325  0.0866  0.0240 -0.0092
   86CHOL    R4  783   4.944  12.995   7.112  0.1609  0.0330 -0.0679
   86CHOL    R5  784   4.864  13.056   7.305  0.0884  0.0383 -0.0981
   86CHOL    C1  785   4.801  12.680   7.323  0.0582  0.0417 -0.1233
   86CHOL    C2  786   4.442  12.636   7.173  0.1134 -0.0217 -0.1100
   87PNCE   AM1  787   4.074   3.144   8.216  0.0998  0.2988  0.0932
   87PNCE   AM2  788   4.286   2.976   8.518  0.1483 -0.1107 -0.4031
   87PNCE   T1A  789   4.151   2.924   7.731  0.1508  0.1341  0.1009
   87PNCE   C2A  790   3.998   2.909   7.356  0.3839  0.0009  0.0407
   87PNCE   C3A  791   3.979   3.329   7.061 -0.1337  0.4491  0.0864
   87PNCE   C1B  792   4.524   2.794   8.149 -0.1588 -0.0192 -0.0065
   87PNCE   C2B  793   4.668   2.688   7.723 -0.1790  0.0746 -0.2408
   87PNCE   C3B  794   4.452   2.626   7.421  0.0944 -0.2995  0.1057
   87PNCE   D4B  795   4.287   2.464   6.985 -0.2103 -0.0200 -0.0313
   87PNCE   C5B  796   3.979   2.777   6.888 -0.2674  0.0943  0.1087
   87PNCE   C6B  797   3.596   3.002   7.043  0.0501 -0.0351  0.0588
   88XCA    COO  798  10.808   2.255   8.596 -0.1230 -0.1012  0.0638
   88XCA     C1  799  10.932   2.522   8.201  0.3378 -0.1663  0.3793
   88XCA     C2  800  11.130   2.810   7.961 -0.1377 -0.0001  0.1448
   88XCA     C3  801  11.186   2.796   7.538 -0.2693  0.0713  0.0844
   88XCA     C4  802  10.917   2.939   7.139  0.0496  0.0246 -0.1614
   88XCA     C5  803  10.672   2.714   6.825  0.0515  0.3142 -0.0292
   88XCA     C6  804  10.780   2.482   6.486 -0.1399  0.0251  0.2751
   89CHOL   ROH  805  11.785   3.269   8.577 -0.2693  0.0765  0.1385
   89CHOL    R1  806  11.631   3.170   8.360 -0.1920  0.0486  0.0957
   89CHOL    R2  807  11.647   3.276   8.105 -0.2368  0.1395  0.1288
   89CHOL    R3  808  11.697   3.018   8.037 -0.0710  0.1904  0.0530
   89CHOL    R4  809  11.622   3.148   7.785 -0.3554  0.1683  0.1259
   89CHOL    R5  810  11.534   2.968   7.869 -0.1477  0.0812  0.1606
   89CHOL    C1  811  11.655   2.831   7.535 -0.2688  0.2328  0.0533
   89CHOL    C2  812  11.629   2.653   7.159  0.2230  0.2314  0.1314
   90CHOL   ROH  813  15.553   0.762   8.616  0.3002  0.0144 -0.1512
   90CHOL    R1  814  15.776   0.824   8.454  0.2965  0.1129 -0.1180
   90CHOL    R2  815  15.953   1.027   8.516  0.2791  0.0947 -0.0146
   90CHOL    R3  816  16.138   0.829   8.493  0.2962  0.1211 -0.1132
   90CHOL    R4  817  16.295   1.072   8.535  0.2767  0.1177 -0.0149
   90CHOL    R5  818  16.318   0.930   8.372  0.2802  0.1913 -0.0801
   90CHOL    C1  819  16.668   0.913   8.524  0.2913  0.1558 -0.1077
   90CHOL    C2  820  16.920   0.574   8.401 -0.3143 -0.0028 -0.0539
   91CHOL   ROH  821  15.084  14.414   5.577  0.2709 -0.1655  0.0100
   91CHOL    R1  822  14.938  14.493   5.806  0.0175 -0.0833 -0.1768
   91CHOL    R2  823  15.020  14.434   6.063 -0.2618  0.0134 -0.0655
   91CHOL    R3  824  14.996  14.703   6.098 -0.3081  0.0262 -0.1850
   91CHOL    R4  825  14.948  14.589   6.364 -0.0674  0.1421 -0.0824
   91CHOL    R5  826  14.818  14.726   6.256 -0.1936  0.0531 -0.0536
   91CHOL    C1  827  14.884  14.931   6.571  0.0022  0.2293 -0.2045
   91CHOL    C2  828  14.523  15.164   6.699  0.0584  0.0741 -0.0977
   92PNCE   AM1  829   9.012   4.214   8.218  0.4653  0.1764  0.0283
   92PNCE   AM2  830   9.274   4.325   8.297 -0.2071  0.0247  0.2423
   92PNCE   T1A  831   9.107   4.166   7.785  0.0439  0.0220  0.1090
   92PNCE   C2A  832   9.244   4.310   7.371 -0.1414  0.1236  0.3380
   92PNCE   C3A  833   9.176   4.692   7.037  0.3736  0.0655 -0.0194
   92PNCE   C1B  834   9.528   4.302   7.895  0.0565  0.0346  0.0250
   92PNCE   C2B  835   9.631   4.574   7.562 -0.0451  0.2242 -0.0396
   92PNCE   C3B  836   9.620   4.827   7.220  0.1907  0.1224 -0.1894
   92PNCE   D4B  837   9.877   4.778   6.859  0.0651  0.1816 -0.1050
   92PNCE   C5B  838   9.894   5.083   6.521 -0.2013  0.2849  0.0052
   92PNCE   C6B  839   9.786   5.163   6.124  0.0430  0.2429  0.3927
   93CHOL   ROH  840   4.490   8.402   5.589  0.0491 -0.1831  0.0398
   93CHOL    R1  841   4.594   8.467   5.844  0.0653 -0.0152 -0.0089
   93CHOL    R2  842   4.631   8.727   5.928 -0.1762  0.0441 -0.0852
   93CHOL    R3  843   4.479   8.648   6.138 -0.0272 -0.0626 -0.0148
   93CHOL    R4  844   4.656   8.855   6.248 -0.1963  0.1484 -0.1241
   93CHOL    R5  845   4.629   8.652   6.325  0.0350  0.1352 -0.0649
   93CHOL    C1  846   4.527   8.854   6.632 -0.0681  0.1091 -0.0806
   93CHOL    C2  847   4.840   8.728   6.804  0.0057  0.2706  0.0094
   94XCA    COO  848  11.098   7.371   4.221 -0.2176  0.2127 -0.0085
   94XCA     C1  849  11.359   7.371   4.733 -0.0949 -0.0234 -0.0285
   94XCA     C2  850  11.661   7.268   5.011 -0.1984 -0.0469 -0.2137
   94XCA     C3  851  11.806   7.214   5.343  0.0774 -0.0441 -0.0405
   94XCA     C4  852  12.143   7.041   5.442 -0.2418 -0.2237 -0.0998
   94XCA     C5  853  12.502   6.746   5.278  0.1634  0.1026  0.2507
   94XCA     C6  854  12.849   6.577   4.910 -0.0681  0.2782  0.2621
   95CHOL   ROH  855  11.902   6.445   8.407  0.2120 -0.0272 -0.0135
   95CHOL    R1  856  11.828   6.620   8.197  0.2338 -0.0944 -0.0780
   95CHOL    R2  857  11.753   6.883   8.242 -0.0486 -0.1595 -0.1388
   95CHOL    R3  858  11.949   6.936   8.061  0.0671  0.0184  0.0333
   95CHOL    R4  859  11.838   7.198   8.131 -0.1933 -0.0789 -0.0261
   95CHOL    R5  860  11.861   7.116   7.930  0.0417 -0.0337 -0.0175
   95CHOL    C1  861  12.071   7.432   7.895 -0.1689  0.1351  0.2012
   95CHOL    C2  862  11.847   7.708   8.026 -0.1332 -0.0682  0.2279
   96XCA    COO  863  13.887   4.367   8.184 -0.2621  0.2291  0.2890
   96XCA     C1  864  13.726   4.362   7.817  0.0763 -0.0299  0.2420
   96XCA     C2  865  13.581   4.277   7.345  0.0232 -0.1770  0.3923
   96XCA     C3  866  13.500   4.530   6.955 -0.0372  0.0309  0.3023
   96XCA     C4  867  13.323   4.873   6.663  0.1863  0.1535  0.1168
   96XCA     C5  868  13.002   5.139   6.340  0.0418  0.1259  0.1049
   96XCA     C6  869  12.745   5.140   6.036 -0.1618  0.1145  0.0895
   97PNCE   AM1  870   6.985  13.452   9.563 -0.0527  0.1935  0.1191
   97PNCE   AM2  871   6.946  13.096   9.448  0.1832 -0.4256  0.1664
   97PNCE   T1A  872   6.539  13.346   9.497 -0.0494  0.1890 -0.1344
   97PNCE   C2A  873   6.115  13.356   9.443  0.1675 -0.4438  0.0171
   97PNCE   C3A  874   5.636  13.239   9.255 -0.1829  0.0831  0.3352
   97PNCE   C1B  875   6.757  13.110   9.099  0.0256 -0.0361 -0.1697
   97PNCE   C2B  876   6.778  13.342   8.825  0.2503  0.4145 -0.0365
   97PNCE   C3B  877   6.593  13.623   8.647  0.6902  0.2077  0.0643
   97PNCE   D4B  878   6.544  13.841   8.139 -0.3250  0.0223  0.1153
   97PNCE   C5B  879   6.557  13.548   7.763  0.1916  0.1093  0.0484
   97PNCE   C6B  880   6.724  13.725   7.351 -0.0671  0.1225  0.2070
   98PNCE   AM1  881   7.803   3.493   8.006 -0.1279  0.1409 -0.1814
   98PNCE   AM2  882   8.110   3.450   7.907 -0.0178 -0.0398  0.2137
   98PNCE   T1A  883   7.796   3.572   7.509 -0.0088  0.0962  0.1575
   98PNCE   C2A  884   7.995   3.511   7.051  0.0569  0.0572 -0.1483
   98PNCE   C3A  885   8.352   3.522   6.671 -0.0842  0.0641  0.4206
   98PNCE   C1B  886   8.347   3.264   7.536  0.4552 -0.0444 -0.0857
   98PNCE   C2B  887   8.374   3.138   7.132  0.1160  0.0342 -0.2815
   98PNCE   C3B  888   8.346   3.001   6.751 -0.3842 -0.0734 -0.3145
   98PNCE   D4B  889   8.165   2.761   6.480 -0.2624 -0.0173 -0.1994
   98PNCE   C5B  890   7.866   2.446   6.613 -0.1625 -0.0162 -0.1053
   98PNCE   C6B  891   7.508   2.338   6.385  0.1459  0.0460 -0.0763
   99PNCE   AM1  892  15.603   6.102   8.028  0.0232 -0.3256  0.1374
   99PNCE   AM2  893  15.168   6.100   8.137  0.0941  0.0261 -0.1016
   99PNCE   T1A  894  15.605   6.182   7.611 -0.1110 -0.1166  0.1050
   99PNCE   C2A  895  15.704   6.364   7.192 -0.1655  0.0765  0.0864
   99PNCE   C3A  896  15.780   6.402   6.691 -0.0980  0.0779  0.1614
   99PNCE   C1B  897  14.758   6.052   8.304 -0.2722 -0.0407  0.0040
   99PNCE   C2B  898  14.407   6.165   7.999 -0.2375  0.2793  0.0849
   99PNCE   C3B  899  14.297   6.149   7.464 -0.4443 -0.0743 -0.4303
   99PNCE   D4B  900  14.407   6.078   7.029  0.1105  0.2558 -0.1051
   99PNCE   C5B  901  14.135   5.969   6.752  0.3487  0.3592 -0.1041
   99PNCE   C6B  902  13.742   6.010   6.740 -0.0313 -0.0690 -0.1012
  100CHOL   ROH  903   4.028  13.419   5.045  0.1275 -0.1401 -0.0029
  100CHOL    R1  904   4.144  13.405   5.303  0.0615  0.0285  0.0389
  100CHOL    R2  905   4.056  13.559   5.514 -0.0722  0.0908 -0.0470
  100CHOL    R3  906   4.033  13.319   5.638 -0.0027  0.1298  0.0399
  100CHOL    R4  907   4.001  13.515   5.853 -0.3594  0.1738 -0.0807
  100CHOL    R5  908   4.142  13.349   5.849 -0.2344  0.2911  0.1278
  100CHOL    C1  909   3.948  13.264   6.166 -0.4612  0.2587 -0.0188
  100CHOL    C2  910   3.793  13.015   6.412 -0.0379 -0.1512  0.1941
  101XCA    COO  911   0.186  13.125   8.993 -0.1735  0.0526 -0.2100
  101XCA     C1  912   0.012  12.971   8.683 -0.1498  0.1031  0.3364
  101XCA     C2  913   0.010  12.983   8.321  0.0687  0.0647 -0.1026
  101XCA     C3  914   0.057  12.948   7.897  0.1889 -0.2232  0.2047
  101XCA     C4  915   0.213  12.561   7.678  0.0386  0.0751  0.0370
  101XCA     C5  916   0.271  12.264   7.396 -0.1493 -0.0611 -0.1608
  101XCA     C6  917   0.549  12.370   7.065  0.0996 -0.1204 -0.1482
  102PNCE   AM1  918   3.557   3.620   8.099  0.2119  0.1828  0.1752
  102PNCE   AM2  919   3.750   3.771   7.902  0.0289  0.1180  0.1604
  102PNCE   T1A  920   3.392   3.262   8.213 -0.1902 -0.0720  0.0701
  102PNCE   C2A  921   3.180   2.919   8.271  0.2829 -0.0056 -0.1064
  102PNCE   C3A  922   2.865   2.567   8.293  0.0376 -0.2832 -0.1606
  102PNCE   C1B  923   3.394   3.835   7.584  0.2336 -0.0226 -0.0392
  102PNCE   C2B  924   3.146   3.832   7.177 -0.3468  0.0067 -0.0883
  102PNCE   C3B  925   2.798   3.676   6.826  0.1101 -0.0718  0.1213
  102PNCE   D4B  926   2.829   3.404   6.461 -0.1214 -0.2557 -0.1333
  102PNCE   C5B  927   3.206   3.380   6.377 -0.0145 -0.0511 -0.1993
  102PNCE   C6B  928   3.592   3.136   6.546  0.4543 -0.0892 -0.1098
  103PNCE   AM1  929  11.930   9.840   8.712  0.0653  0.0726  0.1345
  103PNCE   AM2  930  12.279   9.979   8.916  0.0083  0.3558  0.0817
  103PNCE   T1A  931  11.451   9.655   8.520  0.2650  0.2256  0.1013
  103PNCE   C2A  932  11.284   9.781   8.271 -0.1728  0.0233  0.3621
  103PNCE   C3A  933  11.133  10.242   8.073  0.3671 -0.3306 -0.0903
  103PNCE   C1B  934  12.369   9.654   8.578 -0.3266  0.1860  0.0698
  103PNCE   C2B  935  12.333   9.579   8.150 -0.0087 -0.2860 -0.0769
  103PNCE   C3B  936  12.411   9.592   7.687 -0.1064  0.0696 -0.2212
  103PNCE   D4B  937  12.271   9.757   7.313  0.0342  0.0863  0.0030
  103PNCE   C5B  938  11.834   9.723   7.164 -0.1223  0.2316  0.1986
  103PNCE   C6B  939  11.415   9.728   7.021 -0.1002  0.1582 -0.1642
  104PNCE   AM1  940  14.653  13.016   4.763  0.0971  0.3910  0.1608
  104PNCE   AM2  941  14.684  13.129   5.090 -0.1104  0.4145  0.1034
  104PNCE   T1A  942  14.950  12.766   4.703 -0.0927  0.0934 -0.1344
  104PNCE   C2A  943  15.010  12.359   4.874  0.0446  0.1675 -0.0663
  104PNCE   C3A  944  14.950  11.932   4.711 -0.2203  0.2068  0.1008
  104PNCE   C1B  945  14.594  13.097   5.605 -0.0370 -0.0551 -0.0859
  104PNCE   C2B  946  14.331  13.041   5.974  0.2833  0.4525 -0.2773
  104PNCE   C3B  947  14.342  13.232   6.337 -0.2920 -0.0192 -0.0880
  104PNCE   D4B  948  14.209  13.595   6.686 -0.1859  0.3166 -0.1716
  104PNCE   C5B  949  13.827  13.603   6.902  0.0814 -0.1773  0.1721
  104PNCE   C6B  950  13.417  13.722   7.026  0.0617  0.1285  0.1770
  105CHOL   ROH  951   9.199   2.605   7.139  0.1278  0.0943 -0.0702
  105CHOL    R1  952   9.247   2.348   7.250  0.0060  0.1101  0.0196
  105CHOL    R2  953   9.354   2.140   7.103 -0.0031  0.0371  0.1186
  105CHOL    R3  954   9.536   2.133   7.304 -0.0812  0.0335  0.1902
  105CHOL    R4  955   9.565   1.875   7.170  0.1908  0.1579 -0.0030
  105CHOL    R5  956   9.530   1.907   7.382  0.0732 -0.0358  0.0110
  105CHOL    C1  957   9.859   1.714   7.398  0.2305  0.2248 -0.0065
  105CHOL    C2  958  10.022   1.622   7.742 -0.1764 -0.1790 -0.2286
  106PNCE   AM1  959  10.375   4.441   8.283  0.0972 -0.0955 -0.1159
  106PNCE   AM2  960  10.565   4.679   8.496  0.1012  0.1083  0.0400
  106PNCE   T1A  961  10.462   4.567   7.804 -0.2047  0.2213 -0.3084
  106PNCE   C2A  962  10.516   4.709   7.549 -0.2023  0.2724  0.1503
  106PNCE   C3A  963  10.575   4.672   7.143 -0.1071 -0.2049  0.3266
  106PNCE   C1B  964  10.686   4.898   8.146 -0.3305 -0.2188 -0.1334
  106PNCE   C2B  965  10.590   5.096   7.867  0.1897  0.0042  0.3443
  106PNCE   C3B  966  10.629   5.170   7.536 -0.2289 -0.0287 -0.2578
  106PNCE   D4B  967  10.658   5.126   7.008  0.0047 -0.5215  0.1276
  106PNCE   C5B  968  10.599   5.459   6.691 -0.0401  0.1385  0.2361
  106PNCE   C6B  969  10.496   5.779   6.401  0.1695  0.1328 -0.0444
  107PNCE   AM1  970  14.557  11.631   9.030  0.0425 -0.0048 -0.1532
  107PNCE   AM2  971  14.805  11.446   9.195  0.2504  0.1806 -0.2346
  107PNCE   T1A  972  14.464  11.616   8.514  0.0947  0.2861  0.1877
  107PNCE   C2A  973  14.715  11.935   8.256 -0.2319  0.4973  0.0391
  107PNCE   C3A  974  14.871  12.060   7.835  0.1473  0.2902 -0.0265
  107PNCE   C1B  975  15.037  11.836   9.151  0.1066  0.3556  0.0554
  107PNCE   C2B  976  15.349  11.869   8.836  0.0360 -0.0372  0.0628
  107PNCE   C3B  977  15.689  11.812   8.562  0.3324  0.2334  0.1276
  107PNCE   D4B  978  15.777  12.029   8.240  0.3899 -0.2427 -0.3471
  107PNCE   C5B  979  16.182  12.243   8.082  0.0397 -0.1278  0.1211
  107PNCE   C6B  980  16.443  12.004   7.828  0.0072 -0.2122 -0.1109
  108PNCE   AM1  981  13.213   7.691   8.666  0.1250  0.3067  0.1209
  108PNCE   AM2  982  13.124   7.947   8.659 -0.1555  0.2603 -0.0332
  108PNCE   T1A  983  13.212   7.600   8.163 -0.0212 -0.0199 -0.0694
  108PNCE   C2A  984  13.352   7.350   7.798  0.1233 -0.1077 -0.0591
  108PNCE   C3A  985  13.236   7.462   7.372 -0.0928  0.1003  0.2379
  108PNCE   C1B  986  13.019   8.280   8.509  0.0531  0.2117 -0.1947
  108PNCE   C2B  987  12.546   8.431   8.298  0.1122 -0.0011 -0.3502
  108PNCE   C3B  988  12.393   8.795   8.074  0.0093 -0.0618  0.2194
  108PNCE   D4B  989  12.156   9.193   7.934 -0.0682 -0.0117  0.0182
  108PNCE   C5B  990  11.901   9.300   7.568  0.1770  0.2346  0.2073
  108PNCE   C6B  991  11.589   9.237   7.167  0.0129 -0.0620  0.0477
  109CHOL   ROH  992   9.755  13.405   5.086 -0.2699 -0.2328  0.2624
  109CHOL    R1  993   9.746  13.571   5.315 -0.0977 -0.0917  0.1694
  109CHOL    R2  994   9.762  13.471   5.573 -0.0436  0.0535  0.2228
  109CHOL    R3  995   9.966  13.648   5.594  0.0516 -0.0316  0.0371
  109CHOL    R4  996   9.932  13.542   5.865  0.2036  0.0290  0.0870
  109CHOL    R5  997   9.933  13.752   5.807  0.2526  0.0208  0.0470
  109CHOL    C1  998  10.223  13.750   6.055  0.4368 -0.0653 -0.1662
  109CHOL    C2  999   9.955  13.749   6.370 -0.0251  0.0618 -0.2869
  110CHOL   ROH 1000  11.483   5.552   6.553  0.0308 -0.0687  0.1543
  110CHOL    R1 1001  11.404   5.401   6.780 -0.0189 -0.1607  0.0782
  110CHOL    R2 1002  11.498   5.146   6.829  0.2248 -0.0648  0.1640
  110CHOL    R3 1003  11.568   5.253   7.069 -0.1217  0.0224  0.2302
  110CHOL    R4 1004  11.504   4.974   7.128  0.3667 -0.1052  0.1375
  110CHOL    R5 1005  11.421   5.149   7.226 -0.0225 -0.2815  0.1211
  110CHOL    C1 1006  11.574   4.974   7.528  0.1240 -0.0468  0.1842
  110CHOL    C2 1007  11.597   5.048   7.940  0.0804  0.2550  0.1174
  111PNCE   AM1 1008   4.398   2.259   8.598  0.1432  0.0952  0.0055
  111PNCE   AM2 1009   4.228   1.909   8.566 -0.1768  0.2450 -0.0828
  111PNCE   T1A 1010   4.437   2.072   8.141  0.0408  0.0129  0.3239
  111PNCE   C2A 1011   4.188   1.860   7.979  0.3464  0.0723 -0.1270
  111PNCE   C3A 1012   4.080   1.474   8.249 -0.3308  0.0918 -0.0013
  111PNCE   C1B 1013   4.538   1.629   8.511  0.2473 -0.0628  0.0828
  111PNCE   C2B 1014   4.541   1.484   8.107  0.3931  0.2648 -0.2093
  111PNCE   C3B 1015   4.543   1.045   7.926 -0.0589 -0.4358  0.2119
  111PNCE   D4B 1016   4.563   1.057   7.439  0.1309 -0.1396 -0.0460
  111PNCE   C5B 1017   4.781   1.293   7.155  0.1056 -0.0437 -0.1282
  111PNCE   C6B 1018   4.719   1.766   6.915 -0.2282  0.0828 -0.2379
  112CHOL   ROH 1019  12.671   9.287   4.412 -0.4765  0.1352 -0.0166
  112CHOL    R1 1020  12.650   9.313   4.693 -0.2151  0.0511  0.0135
  112CHOL    R2 1021  12.737   9.118   4.868  0.0440  0.0421 -0.1197
  112CHOL    R3 1022  12.879   9.322   4.975  0.0584  0.0775 -0.2055
  112CHOL    R4 1023  12.817   9.149   5.203  0.1177  0.1379 -0.1458
  112CHOL    R5 1024  12.776   9.363   5.187  0.1049  0.1307 -0.1938
  112CHOL    C1 1025  12.997   9.360   5.498  0.1741  0.2269 -0.2415
  112CHOL    C2 1026  12.937   9.488   5.802 -0.2083 -0.0197 -0.1400
  113CHOL   ROH 1027  13.431   0.152   8.868 -0.2147  0.1495 -0.0674
  113CHOL    R1 1028  13.543   0.087   8.616 -0.1824  0.1329 -0.0489
  113CHOL    R2 1029  13.648  -0.162   8.561 -0.1532  0.1363 -0.0115
  113CHOL    R3 1030  13.475  -0.154   8.352 -0.1330  0.0983 -0.0299
  113CHOL    R4 1031  13.724  -0.258   8.238 -0.1309  0.0576  0.0165
  113CHOL    R5 1032  13.610  -0.087   8.165 -0.1133  0.0470 -0.0332
  113CHOL    C1 1033  13.605  -0.306   7.853 -0.0991 -0.0238  0.0157
  113CHOL    C2 1034  13.595  -0.716   7.605 -0.0131 -0.0864  0.0163
  114XCA    COO 1035   3.956  15.622   4.737  0.2088  0.0314  0.1341
  114XCA     C1 1036   4.170  15.512   5.144 -0.0904  0.1074  0.0777
  114XCA     C2 1037   4.076  15.361   5.590  0.3640  0.2844 -0.0145
  114XCA     C3 1038   4.167  15.311   5.997 -0.0517  0.2880  0.0428
  114XCA     C4 1039   4.015  15.055   6.355  0.2151 -0.2656  0.1859
  114XCA     C5 1040   3.915  15.225   6.772 -0.0314 -0.1747  0.4355
  114XCA     C6 1041   3.568  15.086   7.050  0.0103 -0.1674 -0.0138
  115XCA    COO 1042   6.100   7.001   9.117  0.3092  0.0389  0.2581
  115XCA     C1 1043   5.936   7.051   8.703 -0.0282 -0.0530  0.2556
  115XCA     C2 1044   5.977   7.342   8.374  0.2562  0.0672  0.5765
  115XCA     C3 1045   5.993   7.664   7.955 -0.1185  0.0772 -0.1431
  115XCA     C4 1046   6.083   7.980   7.646  0.0305  0.0471  0.0499
  115XCA     C5 1047   5.885   8.034   7.356  0.1496 -0.2063 -0.0293
  115XCA     C6 1048   5.730   8.362   7.097  0.1380  0.0384 -0.1197
  116XCA    COO 1049   2.567  12.411   5.096 -0.1794  0.0413 -0.1285
  116XCA     C1 1050   2.747  12.158   5.481  0.1433 -0.1059 -0.3697
  116XCA     C2 1051   2.959  11.985   5.859 -0.0503  0.0551 -0.1267
  116XCA     C3 1052   3.011  11.860   6.216  0.0904  0.2528 -0.3534
  116XCA     C4 1053   2.912  11.984   6.646 -0.2229  0.2622  0.2167
  116XCA     C5 1054   2.592  12.070   6.721 -0.0374  0.2594  0.0502
  116XCA     C6 1055   2.078  12.053   6.826 -0.0886 -0.2525 -0.1458
  117CHOL   ROH 1056  14.197  12.575   5.097 -0.0808 -0.1995  0.2201
  117CHOL    R1 1057  14.476  12.618   5.126 -0.0414 -0.2078 -0.0973
  117CHOL    R2 1058  14.589  12.696   5.366  0.1850  0.2069 -0.3252
  117CHOL    R3 1059  14.745  12.477   5.326  0.0918  0.0886 -0.0638
  117CHOL    R4 1060  14.906  12.652   5.496  0.1335  0.1835 -0.2067
  117CHOL    R5 1061  14.967  12.565   5.306  0.1380 -0.0402 -0.1019
  117CHOL    C1 1062  15.238  12.422   5.534  0.0160  0.0589  0.1077
  117CHOL    C2 1063  15.311  12.813   5.555 -0.1493 -0.0521 -0.0412
  118CHOL   ROH 1064  15.569   6.974   6.933  0.0175  0.2232  0.0058
  118CHOL    R1 1065  15.785   7.044   7.103  0.0376  0.0538  0.0512
  118CHOL    R2 1066  15.747   7.155   7.353  0.0711  0.0055  0.0767
  118CHOL    R3 1067  15.903   6.947   7.434 -0.0552 -0.1053  0.0392
  118CHOL    R4 1068  15.986   7.172   7.603  0.0738 -0.1849  0.0886
  118CHOL    R5 1069  16.116   7.047   7.480  0.0042 -0.2390  0.0662
  118CHOL    C1 1070  16.271   6.987   7.823 -0.0432 -0.3997  0.0603
  118CHOL    C2 1071  16.489   7.360   7.846 -0.0037  0.2863  0.2619
  119CHOL   ROH 1072  14.024  12.653   5.453  0.1008  0.1568 -0.2164
  119CHOL    R1 1073  14.225  12.733   5.635 -0.0461  0.0531 -0.0039
  119CHOL    R2 1074  14.296  12.582   5.856 -0.0048 -0.2366 -0.2106
  119CHOL    R3 1075  14.545  12.603   5.750  0.0238  0.1560 -0.0801
  119CHOL    R4 1076  14.588  12.511   6.025 -0.0176 -0.3209 -0.2234
  119CHOL    R5 1077  14.679  12.685   5.931 -0.1133 -0.0676  0.1298
  119CHOL    C1 1078  14.993  12.489   6.025  0.0019 -0.0014 -0.1084
  119CHOL    C2 1079  15.216  12.612   6.250  0.1668 -0.0529  0.3667
  120PNCE   AM1 1080   8.274  15.283   8.740 -0.3101 -0.2781 -0.0264
  120PNCE   AM2 1081   8.519  15.111   8.810 -0.0170 -0.0852  0.1595
  120PNCE   T1A 1082   8.064  15.353   8.379 -0.2444  0.1449  0.1968
  120PNCE   C2A 1083   7.839  15.154   8.049  0.4245  0.0153 -0.1433
  120PNCE   C3A 1084   7.788  14.787   7.891 -0.0038 -0.2562 -0.2014
  120PNCE   C1B 1085   8.609  15.398   8.424  0.1530  0.0412 -0.0358
  120PNCE   C2B 1086   8.536  15.633   7.984 -0.1276  0.2829 -0.0854
  120PNCE   C3B 1087   8.812  15.709   7.670  0.2233 -0.0472  0.4185
  120PNCE   D4B 1088   8.989  15.635   7.184  0.0974  0.2412  0.0110
  120PNCE   C5B 1089   8.983  15.414   6.725 -0.0909 -0.2414 -0.0427
  120PNCE   C6B 1090   8.951  15.081   6.432 -0.1942 -0.0367 -0.1374
  121CHOL   ROH 1091  12.033   8.532   8.177  0.0131 -0.0760  0.1682
  121CHOL    R1 1092  11.890   8.597   7.941 -0.0016 -0.2697  0.1234
  121CHOL    R2 1093  11.963   8.806   7.775 -0.1696 -0.2391  0.0925
  121CHOL    R3 1094  11.961   8.613   7.584  0.0556 -0.2849  0.1330
  121CHOL    R4 1095  11.833   8.844   7.457  0.1242 -0.3355 -0.0430
  121CHOL    R5 1096  11.752   8.642   7.472  0.1518 -0.3527 -0.0743
  121CHOL    C1 1097  11.756   8.684   7.093  0.5068 -0.4344 -0.0840
  121CHOL    C2 1098  11.440   8.519   6.865  0.0441  0.1108  0.3604
  122XCA    COO 1099   8.687  12.369   8.984 -0.1829  0.0209 -0.2224
  122XCA     C1 1100   8.391  12.370   8.641 -0.0635  0.2709 -0.0600
  122XCA     C2 1101   8.414  12.282   8.149 -0.0327  0.0247 -0.1549
  122XCA     C3 1102   8.238  12.266   7.768 -0.1253 -0.3046 -0.2438
  122XCA     C4 1103   8.411  12.128   7.297  0.0797  0.0429  0.3430
  122XCA     C5 1104   8.415  12.009   6.797  0.0366 -0.3269 -0.1433
  122XCA     C6 1105   8.461  12.350   6.468  0.1031  0.0230  0.1096
  123XCA    COO 1106   9.954   2.997   8.223  0.0183  0.1759 -0.1336
  123XCA     C1 1107  10.272   3.179   7.896  0.1810 -0.3809  0.3149
  123XCA     C2 1108  10.198   3.269   7.530 -0.0351 -0.0837 -0.3604
  123XCA     C3 1109  10.290   3.416   7.069  0.3025  0.0226 -0.0366
  123XCA     C4 1110  10.362   3.727   6.841 -0.1038  0.3235 -0.4289
  123XCA     C5 1111  10.509   4.016   6.466  0.0551 -0.3276 -0.1497
  123XCA     C6 1112  10.566   4.399   6.103  0.0162  0.2540  0.0607
  124PNCE   AM1 1113  14.515  12.354   9.439  0.1928 -0.3222  0.0652
  124PNCE   AM2 1114  14.564  12.097   9.171  0.0886  0.2180 -0.2351
  124PNCE   T1A 1115  14.905  12.417   9.177  0.4188  0.2532 -0.1104
  124PNCE   C2A 1116  15.282  12.358   8.897 -0.0354 -0.1797 -0.0324
  124PNCE   C3A 1117  15.459  12.601   8.609  0.0353 -0.1961  0.1561
  124PNCE   C1B 1118  14.840  12.045   8.743 -0.5861  0.1768  0.2141
  124PNCE   C2B 1119  15.196  12.116   8.444 -0.0056 -0.0070  0.1635
  124PNCE   C3B 1120  15.277  12.056   8.073 -0.4565  0.3010 -0.1084
  124PNCE   D4B 1121  15.620  12.196   7.778  0.0086 -0.2006  0.0326
  124PNCE   C5B 1122  15.492  12.306   7.310 -0.1030 -0.1477 -0.1540
  124PNCE   C6B 1123  15.254  11.967   7.086 -0.1870 -0.0791  0.5065
  125CHOL   ROH 1124   2.708  13.178   8.493  0.0752  0.1024 -0.1455
  125CHOL    R1 1125   2.607  13.024   8.278  0.0533  0.0895 -0.1260
  125CHOL    R2 1126   2.427  12.818   8.314  0.2064 -0.0374 -0.0725
  125CHOL    R3 1127   2.282  12.956   8.130  0.0118 -0.0860  0.0425
  125CHOL    R4 1128   2.129  12.710   8.177  0.2362 -0.2339  0.0140
  125CHOL    R5 1129   2.195  12.787   7.984  0.0904 -0.1023  0.0145
  125CHOL    C1 1130   1.818  12.777   7.924  0.0708 -0.3939  0.1723
  125CHOL    C2 1131   1.666  12.876   7.600 -0.2218  0.1414 -0.0575
  126CHOL   ROH 1132   0.399   2.746   8.529 -0.0633 -0.2913 -0.2621
  126CHOL    R1 1133   0.598   2.926   8.442  0.0807 -0.5072 -0.3847
  126CHOL    R2 1134   0.690   2.931   8.181 -0.4421 -0.2791 -0.5743
  126CHOL    R3 1135   0.623   3.194   8.197  0.0434 -0.1681 -0.0277
  126CHOL    R4 1136   0.797   3.175   7.960 -0.6597 -0.1854 -0.5797
  126CHOL    R5 1137   0.823   3.310   8.130  0.0697 -0.4346 -0.4549
  126CHOL    C1 1138   0.797   3.564   7.847 -0.3306 -0.0267 -0.0697
  126CHOL    C2 1139   0.726   3.632   7.489 -0.1355  0.1739 -0.1068
  127CHOL   ROH 1140   4.102  11.649   8.156  0.1251 -0.1072 -0.2002
  127CHOL    R1 1141   3.926  11.745   7.955  0.0790  0.0261 -0.0985
  127CHOL    R2 1142   3.816  11.998   7.962  0.1616  0.0611  0.0398
  127CHOL    R3 1143   3.924  12.017   7.714  0.0755  0.1196  0.0070
  127CHOL    R4 1144   3.887  12.295   7.801  0.0551  0.0975  0.0597
  127CHOL    R5 1145   3.814  12.206   7.616  0.0104  0.1139  0.0718
  127CHOL    C1 1146   4.030  12.486   7.473 -0.0878  0.1735  0.0406
  127CHOL    C2 1147   3.851  12.795   7.432  0.2197  0.3184 -0.2335
  128PNCE   AM1 1148   1.315  14.191   8.121 -0.2186 -0.1216 -0.4618
  128PNCE   AM2 1149   1.512  14.164   8.251 -0.1167  0.3181 -0.0046
  128PNCE   T1A 1150   1.218  14.298   7.706 -0.3998  0.0934 -0.0131
  128PNCE   C2A 1151   1.100  14.655   7.535  0.1733 -0.2632 -0.6189
  128PNCE   C3A 1152   1.239  14.854   7.251  0.0007 -0.0086  0.1215
  128PNCE   C1B 1153   1.684  14.672   8.285 -0.0552  0.1239 -0.1776
  128PNCE   C2B 1154   1.531  15.063   8.201 -0.1078 -0.2888 -0.0436
  128PNCE   C3B 1155   1.406  15.492   8.022  0.0554 -0.2686 -0.0787
  128PNCE   D4B 1156   1.538  15.809   7.860 -0.0775 -0.3178 -0.0347
  128PNCE   C5B 1157   1.547  16.169   8.064 -0.1385  0.1041 -0.1083
  128PNCE   C6B 1158   1.390  16.589   8.049 -0.0330 -0.0821 -0.3515
  129PNCE   AM1 1159  14.179   3.131   7.903  0.3649  0.1809  0.2290
  129PNCE   AM2 1160  14.475   3.001   7.919 -0.0228 -0.1060  0.0894
  129PNCE   T1A 1161  14.262   3.375   7.644 -0.2723  0.0009 -0.0360
  129PNCE   C2A 1162  14.396   3.430   7.206 -0.1651 -0.2715 -0.2578
  129PNCE   C3A 1163  14.080   3.583   7.118  0.0976  0.0011 -0.0476
  129PNCE   C1B 1164  14.499   2.703   7.527  0.0071 -0.1833 -0.2226
  129PNCE   C2B 1165  14.563   2.520   7.085 -0.1784  0.1111  0.2131
  129PNCE   C3B 1166  14.799   2.524   6.756 -0.1756 -0.1268  0.0564
  129PNCE   D4B 1167  14.979   2.653   6.350 -0.1465  0.1549 -0.2016
  129PNCE   C5B 1168  15.284   2.937   6.260  0.0316 -0.2578  0.0162
  129PNCE   C6B 1169  15.669   3.042   6.208 -0.2962  0.1884  0.0560
  130XCA    COO 1170  15.626   1.735   8.501 -0.0193  0.0444  0.1882
  130XCA     C1 1171  15.918   1.805   8.119 -0.2206 -0.3322  0.2440
  130XCA     C2 1172  16.000   1.619   7.701 -0.2998 -0.0266  0.1198
  130XCA     C3 1173  16.015   1.443   7.261  0.1568  0.0074  0.1075
  130XCA     C4 1174  16.234   1.486   6.896  0.0535 -0.0538  0.2058
  130XCA     C5 1175  16.376   1.787   6.646 -0.0211  0.1691 -0.0750
  130XCA     C6 1176  16.763   1.962   6.599 -0.2581  0.2190  0.1025
  131PNCE   AM1 1177   5.245   4.892   7.828 -0.1445  0.2994 -0.4563
  131PNCE   AM2 1178   5.361   5.102   8.084  0.0879 -0.1643 -0.0737
  131PNCE   T1A 1179   4.843   4.729   7.644  0.0062 -0.2022 -0.0745
  131PNCE   C2A 1180   4.513   4.612   7.450  0.1940  0.0125 -0.3353
  131PNCE   C3A 1181   4.314   4.273   7.208 -0.0460  0.1338  0.0265
  131PNCE   C1B 1182   5.723   5.229   7.810 -0.1395 -0.1278 -0.1686
  131PNCE   C2B 1183   5.864   5.125   7.385  0.4275 -0.3875 -0.0414
  131PNCE   C3B 1184   5.840   4.778   7.122 -0.0161 -0.1738  0.1862
  131PNCE   D4B 1185   5.977   4.731   6.796 -0.0781  0.0235 -0.0670
  131PNCE   C5B 1186   6.163   4.394   6.573 -0.3031  0.0467  0.2534
  131PNCE   C6B 1187   6.381   4.263   6.342  0.2332  0.2685 -0.1262
  132PNCE   AM1 1188   3.231   0.997   9.055  0.0252  0.3161  0.0173
  132PNCE   AM2 1189   3.529   0.786   9.028 -0.0724  0.2022  0.3674
  132PNCE   T1A 1190   3.054   0.923   8.550  0.1847  0.1758 -0.0097
  132PNCE   C2A 1191   3.100   1.132   8.223 -0.1405  0.1313 -0.2502
  132PNCE   C3A 1192   3.297   1.282   7.818  0.2936  0.3798  0.3808
  132PNCE   C1B 1193   3.490   0.809   8.634 -0.0954  0.0873 -0.0774
  132PNCE   C2B 1194   3.396   0.486   8.377 -0.0360 -0.2291  0.0285
  132PNCE   C3B 1195   3.038   0.489   8.066 -0.2583 -0.2857  0.0794
  132PNCE   D4B 1196   2.924   0.401   7.648 -0.2323 -0.0343  0.0025
  132PNCE   C5B 1197   2.968   0.188   7.239  0.0853  0.0205 -0.2354
  132PNCE   C6B 1198   3.277  -0.085   7.215  0.2332  0.1354  0.0661
  133PNCE   AM1 1199   1.106   4.867   8.473  0.1562  0.2792 -0.3021
  133PNCE   AM2 1200   1.176   5.134   8.348 -0.2495  0.1193  0.0290
  133PNCE   T1A 1201   1.169   4.599   8.059  0.2036 -0.3260  0.2364
  133PNCE   C2A 1202   1.477   4.556   7.748 -0.1670  0.3431 -0.0809
  133PNCE   C3A 1203   1.736   4.658   7.373 -0.0437 -0.0480  0.0480
  133PNCE   C1B 1204   1.254   5.332   7.955 -0.1246 -0.2109  0.3541
  133PNCE   C2B 1205   1.147   5.412   7.511  0.2107  0.2091 -0.2946
  133PNCE   C3B 1206   1.293   5.551   7.204  0.2169  0.0426 -0.0104
  133PNCE   D4B 1207   1.509   5.759   6.862 -0.0951  0.1003  0.4030
  133PNCE   C5B 1208   1.443   5.663   6.464 -0.1694 -0.0963 -0.5645
  133PNCE   C6B 1209   1.443   5.720   6.127 -0.2978  0.1816 -0.2335
  134CHOL   ROH 1210   9.086  13.871   5.117 -0.0222  0.1528  0.0407
  134CHOL    R1 1211   8.858  13.801   5.269  0.0026  0.1225  0.0635
  134CHOL    R2 1212   8.862  13.602   5.461  0.0386  0.0980  0.0342
  134CHOL    R3 1213   8.765  13.799   5.621  0.0509  0.0702  0.0769
  134CHOL    R4 1214   8.730  13.553   5.776 -0.0520  0.0205 -0.0150
  134CHOL    R5 1215   8.576  13.700   5.729 -0.0037  0.0793 -0.0046
  134CHOL    C1 1216   8.561  13.710   6.110 -0.0933 -0.0508 -0.0036
  134CHOL    C2 1217   8.634  13.899   6.461  0.1239  0.0804  0.1605
  135CHOL   ROH 1218   4.529   7.999   7.266 -0.1137  0.1789  0.0074
  135CHOL    R1 1219   4.628   7.948   7.006 -0.1075  0.1347  0.0181
  135CHOL    R2 1220   4.585   7.707   6.875  0.0079  0.0624  0.1090
  135CHOL    R3 1221   4.485   7.868   6.680 -0.0935 -0.0603  0.0589
  135CHOL    R4 1222   4.579   7.629   6.539  0.1199 -0.0153  0.1245
  135CHOL    R5 1223   4.633   7.835   6.495 -0.0402  0.0189  0.0882
  135CHOL    C1 1224   4.481   7.734   6.160  0.0900 -0.1756  0.0865
  135CHOL    C2 1225   4.323   7.582   5.796 -0.0096  0.1402  0.0388
  136CHOL   ROH 1226  11.922   8.671   4.770 -0.1031 -0.0277  0.0533
  136CHOL    R1 1227  12.079   8.620   4.999  0.0139  0.1388  0.0117
  136CHOL    R2 1228  12.011   8.713   5.250  0.0167  0.1216  0.0174
  136CHOL    R3 1229  12.035   8.451   5.318  0.2572  0.1504  0.0542
  136CHOL    R4 1230  12.008   8.593   5.574 -0.2159  0.1387  0.0237
  136CHOL    R5 1231  12.167   8.454   5.518  0.0249  0.3258  0.2122
  136CHOL    C1 1232  12.029   8.278   5.827 -0.1255  0.1758  0.0619
  136CHOL    C2 1233  11.647   8.238   6.036 -0.2604  0.1755 -0.0180
  137XCA    COO 1234   3.495   4.619   4.567  0.1380 -0.2625 -0.1063
  137XCA     C1 1235   3.513   4.519   4.988 -0.0239  0.2097  0.0927
  137XCA     C2 1236   3.646   4.675   5.326 -0.0579 -0.3424 -0.1267
  137XCA     C3 1237   3.501   5.077   5.445  0.1933 -0.1711 -0.1226
  137XCA     C4 1238   3.345   5.379   5.822  0.0680 -0.1748  0.4399
  137XCA     C5 1239   3.378   5.576   6.227 -0.2189  0.1915  0.0363
  137XCA     C6 1240   3.297   5.489   6.675 -0.0122 -0.2456 -0.0390
  138CHOL   ROH 1241  15.432   7.177   4.649  0.1187  0.2715  0.0699
  138CHOL    R1 1242  15.255   7.197   4.869  0.0402  0.0339  0.0301
  138CHOL    R2 1243  15.156   6.976   5.002  0.3040 -0.0965 -0.0008
  138CHOL    R3 1244  15.257   7.103   5.220  0.0821  0.0319  0.0318
  138CHOL    R4 1245  15.084   6.893   5.330  0.1418 -0.0679 -0.0276
  138CHOL    R5 1246  15.075   7.106   5.376 -0.0315 -0.0512 -0.0869
  138CHOL    C1 1247  15.136   6.964   5.725 -0.1612  0.0692 -0.0126
  138CHOL    C2 1248  15.118   6.767   6.184  0.2564 -0.1600  0.2349
  139PNCE   AM1 1249   1.497   6.647   8.311 -0.1920 -0.4374  0.1940
  139PNCE   AM2 1250   1.411   6.579   8.011  0.0124  0.2607 -0.1872
  139PNCE   T1A 1251   1.698   6.223   8.108 -0.1776  0.0061 -0.0092
  139PNCE   C2A 1252   1.737   6.137   7.670 -0.0772 -0.1183 -0.0208
  139PNCE   C3A 1253   1.762   6.274   7.139 -0.0890  0.0628  0.1239
  139PNCE   C1B 1254   1.443   6.573   7.477 -0.3052  0.2306  0.1131
  139PNCE   C2B 1255   1.336   6.717   6.972  0.2683 -0.1737  0.1577
  139PNCE   C3B 1256   1.421   6.929   6.662  0.0410  0.2445  0.0920
  139PNCE   D4B 1257   1.827   7.028   6.586  0.3184 -0.0677  0.0797
  139PNCE   C5B 1258   2.063   7.473   6.539 -0.2691 -0.1340 -0.1866
  139PNCE   C6B 1259   2.311   7.658   6.257  0.0271  0.0804  0.3860
  140PNCE   AM1 1260  13.005   1.442   8.734  0.0073  0.2371 -0.3560
  140PNCE   AM2 1261  13.272   1.228   8.695  0.0756 -0.0779  0.0472
  140PNCE   T1A 1262  13.059   1.192   8.252  0.2454  0.0458  0.3446
  140PNCE   C2A 1263  13.092   1.126   7.875 -0.2465 -0.0993 -0.2809
  140PNCE   C3A 1264  13.265   1.212   7.602  0.0251  0.1489  0.0189
  140PNCE   C1B 1265  13.550   1.081   8.302  0.0282  0.0145 -0.1416
  140PNCE   C2B 1266  13.529   0.880   7.904 -0.1556 -0.2387  0.0147
  140PNCE   C3B 1267  13.642   0.633   7.518  0.1824 -0.1746  0.0897
  140PNCE   D4B 1268  13.568   0.743   7.085 -0.1294  0.0400 -0.0543
  140PNCE   C5B 1269  13.563   0.946   6.720  0.0575 -0.0656  0.3426
  140PNCE   C6B 1270  13.570   1.029   6.324  0.0516  0.4012  0.2725
  141CHOL   ROH 1271   3.365   7.339   7.751  0.1773  0.1396 -0.0365
  141CHOL    R1 1272   3.555   7.295   7.546  0.0615  0.0547 -0.1261
  141CHOL    R2 1273   3.613   7.043   7.449 -0.0000  0.0176 -0.0584
  141CHOL    R3 1274   3.553   7.157   7.209 -0.1283 -0.0777 -0.0734
  141CHOL    R4 1275   3.711   6.920   7.141  0.1848  0.1077 -0.0376
  141CHOL    R5 1276   3.750   7.124   7.077 -0.0693  0.1582 -0.0535
  141CHOL    C1 1277   3.712   6.954   6.737  0.1721  0.0708 -0.0394
  141CHOL    C2 1278   3.758   7.288   6.531 -0.2573 -0.1420  0.1293
  142CHOL   ROH 1279   2.206  10.049   5.961  0.1327 -0.1254  0.0093
  142CHOL    R1 1280   1.963  10.044   6.106  0.2090 -0.2218  0.1351
  142CHOL    R2 1281   1.952   9.985   6.376  0.4146  0.1175  0.2202
  142CHOL    R3 1282   1.820  10.223   6.389  0.1401 -0.0147 -0.0274
  142CHOL    R4 1283   1.796  10.111   6.658  0.1288  0.1573  0.0496
  142CHOL    R5 1284   1.633  10.180   6.532  0.1111 -0.1184 -0.0911
  142CHOL    C1 1285   1.582  10.407   6.834 -0.2954  0.0563 -0.2822
  142CHOL    C2 1286   1.423  10.611   7.043  0.1131  0.1378 -0.1090
  143CHOL   ROH 1287  11.217   5.513   8.391 -0.3374 -0.1751 -0.0153
  143CHOL    R1 1288  11.345   5.415   8.158 -0.2215 -0.0497 -0.0046
  143CHOL    R2 1289  11.205   5.341   7.932 -0.1117  0.0109 -0.0877
  143CHOL    R3 1290  11.373   5.517   7.810 -0.1032  0.0971  0.0449
  143CHOL    R4 1291  11.228   5.387   7.590  0.0821  0.0555 -0.0701
  143CHOL    R5 1292  11.445   5.403   7.612  0.0698  0.1428  0.0734
  143CHOL    C1 1293  11.399   5.579   7.276  0.2030  0.1624  0.0646
  143CHOL    C2 1294  11.667   5.697   7.030  0.0859 -0.0078 -0.1642
  144PNCE   AM1 1295   4.276   3.964   7.743 -0.3666 -0.3060  0.1534
  144PNCE   AM2 1296   4.538   3.815   7.864 -0.2385  0.2927  0.2112
  144PNCE   T1A 1297   3.882   3.945   7.458 -0.3566  0.4478  0.5506
  144PNCE   C2A 1298   3.657   3.770   7.152 -0.1221 -0.2072 -0.3038
  144PNCE   C3A 1299   3.794   3.539   6.640 -0.2979  0.2580  0.2595
  144PNCE   C1B 1300   4.742   3.627   7.428  0.3027  0.0150  0.0601
  144PNCE   C2B 1301   4.756   3.444   6.978 -0.1250 -0.2199  0.0380
  144PNCE   C3B 1302   4.527   3.479   6.520  0.1906 -0.3633 -0.1715
  144PNCE   D4B 1303   4.193   3.710   6.342 -0.0709 -0.0585 -0.3384
  144PNCE   C5B 1304   4.123   4.166   6.223  0.2984  0.3997  0.0165
  144PNCE   C6B 1305   3.896   4.340   5.953  0.2394  0.2923 -0.2443
  145PNCE   AM1 1306   6.640   7.162   8.849 -0.0051 -0.2765 -0.0826
  145PNCE   AM2 1307   6.447   6.949   8.747 -0.4735  0.3764  0.0445
  145PNCE   T1A 1308   6.910   7.225   8.634 -0.1644 -0.2551  0.1934
  145PNCE   C2A 1309   6.946   7.462   8.289  0.1687  0.1975 -0.0870
  145PNCE   C3A 1310   7.130   7.472   7.929  0.0590 -0.1735  0.0298
  145PNCE   C1B 1311   6.635   6.989   8.240  0.0166 -0.2348  0.0495
  145PNCE   C2B 1312   6.680   7.096   7.763 -0.0456  0.0216 -0.1849
  145PNCE   C3B 1313   6.961   7.255   7.550 -0.0621 -0.1583  0.1570
  145PNCE   D4B 1314   7.108   7.578   7.332  0.1514  0.0286  0.1843
  145PNCE   C5B 1315   6.891   7.787   7.100  0.0989  0.0730  0.1657
  145PNCE   C6B 1316   6.426   7.822   6.932 -0.0736 -0.3755  0.2539
  146CHOL   ROH 1317  11.224  10.053   6.801 -0.0226  0.0781  0.1024
  146CHOL    R1 1318  11.450   9.991   6.643 -0.0421 -0.0599  0.1263
  146CHOL    R2 1319  11.663  10.165   6.613 -0.1250 -0.0056 -0.1969
  146CHOL    R3 1320  11.808   9.951   6.697 -0.0072  0.1804  0.0854
  146CHOL    R4 1321  11.967  10.068   6.480 -0.3232 -0.3108 -0.4402
  146CHOL    R5 1322  11.902   9.861   6.496 -0.3111 -0.2855  0.1375
  146CHOL    C1 1323  12.280   9.811   6.481 -0.3282 -0.3139 -0.3170
  146CHOL    C2 1324  12.506   9.807   6.158 -0.0618 -0.0541 -0.0331
  147XCA    COO 1325  10.766   5.511   8.547  0.1511  0.3823 -0.1800
  147XCA     C1 1326  10.834   5.361   8.145  0.2039 -0.0459 -0.1594
  147XCA     C2 1327  10.788   5.581   7.775  0.3272  0.0590 -0.1711
  147XCA     C3 1328  10.873   5.681   7.354 -0.2504 -0.3868 -0.1295
  147XCA     C4 1329  10.708   5.953   7.008 -0.0878 -0.3716 -0.1236
  147XCA     C5 1330  10.701   6.167   6.706 -0.0833 -0.1031 -0.1416
  147XCA     C6 1331  11.013   6.259   6.365 -0.1001  0.1828  0.2200
  148PNCE   AM1 1332  12.918  10.049   8.151 -0.0623  0.1377  0.1422
  148PNCE   AM2 1333  12.991   9.701   8.185  0.4257  0.1681 -0.2822
  148PNCE   T1A 1334  13.341  10.146   7.939  0.0285 -0.0666  0.2745
  148PNCE   C2A 1335  13.479  10.409   7.537 -0.2438 -0.2929 -0.0963
  148PNCE   C3A 1336  13.583  10.354   7.105  0.0796 -0.1723  0.2923
  148PNCE   C1B 1337  13.044   9.784   7.763  0.1604 -0.1872 -0.1018
  148PNCE   C2B 1338  13.292   9.939   7.417  0.1970 -0.0755 -0.3130
  148PNCE   C3B 1339  13.664   9.889   7.069  0.2245  0.0361 -0.0528
  148PNCE   D4B 1340  14.105   9.678   7.013 -0.0548 -0.3586 -0.1636
  148PNCE   C5B 1341  14.510   9.992   6.995 -0.4626  0.0166 -0.0920
  148PNCE   C6B 1342  14.894  10.004   7.033 -0.0334  0.2094 -0.1789
  149PNCE   AM1 1343   9.421   9.511   8.537  0.4352 -0.0485  0.1733
  149PNCE   AM2 1344   9.384   9.200   8.659  0.1308 -0.0559  0.1795
  149PNCE   T1A 1345   9.632   9.690   8.160 -0.0179  0.3021 -0.0202
  149PNCE   C2A 1346   9.825   9.763   7.707  0.1323 -0.0406  0.3174
  149PNCE   C3A 1347   9.866   9.896   7.296 -0.0829 -0.0388 -0.2183
  149PNCE   C1B 1348   9.469   9.172   8.182 -0.4528  0.0777 -0.1049
  149PNCE   C2B 1349   9.360   9.355   7.755 -0.2641  0.3341 -0.1761
  149PNCE   C3B 1350   9.580   9.398   7.383  0.1647  0.2142  0.0030
  149PNCE   D4B 1351   9.714   9.410   6.960 -0.0981  0.1325  0.0533
  149PNCE   C5B 1352   9.401   9.427   6.720 -0.1776  0.1464  0.1819
  149PNCE   C6B 1353   9.154   9.454   6.375  0.1306  0.1381 -0.1425
  150XCA    COO 1354   9.723   1.595   4.491  0.1250  0.0877 -0.0358
  150XCA     C1 1355   9.824   1.903   4.795  0.1596 -0.3004  0.0809
  150XCA     C2 1356   9.961   1.850   5.214 -0.0463 -0.2101  0.1497
  150XCA     C3 1357  10.134   1.758   5.509 -0.0113 -0.1860  0.1297
  150XCA     C4 1358  10.256   1.591   5.892 -0.2264 -0.0542  0.2419
  150XCA     C5 1359  10.506   1.826   6.226 -0.3125 -0.0291 -0.1536
  150XCA     C6 1360  10.598   2.049   6.609  0.1184 -0.1493 -0.1154
  151PNCE   AM1 1361  15.654  13.725   8.899  0.2740  0.0930 -0.2409
  151PNCE   AM2 1362  15.489  13.998   8.892 -0.1416  0.0491 -0.1462
  151PNCE   T1A 1363  15.476  13.400   8.779 -0.1024  0.0446  0.1358
  151PNCE   C2A 1364  15.280  13.059   8.611  0.1466 -0.2815  0.0334
  151PNCE   C3A 1365  14.935  12.646   8.559  0.1121 -0.1365 -0.0893
  151PNCE   C1B 1366  15.825  13.970   8.481  0.0801  0.0286 -0.0748
  151PNCE   C2B 1367  16.063  14.099   8.193 -0.0763  0.0681 -0.1585
  151PNCE   C3B 1368  15.974  14.089   7.816 -0.1357  0.0218  0.0874
  151PNCE   D4B 1369  15.762  14.178   7.410 -0.3413  0.1659  0.0761
  151PNCE   C5B 1370  15.859  14.402   7.094 -0.4142  0.1090 -0.1005
  151PNCE   C6B 1371  15.850  14.570   6.608 -0.0162 -0.1948 -0.2509
  152PNCE   AM1 1372  11.720  13.200   9.112 -0.1886 -0.1065  0.1748
  152PNCE   AM2 1373  11.849  12.994   9.062  0.0937 -0.1549  0.1011
  152PNCE   T1A 1374  11.791  13.403   8.682 -0.1497  0.3103 -0.0912
  152PNCE   C2A 1375  12.030  13.549   8.374  0.1183  0.0142 -0.2312
  152PNCE   C3A 1376  12.231  13.459   7.978 -0.1994  0.0663 -0.0824
  152PNCE   C1B 1377  12.140  12.950   8.651 -0.2261 -0.1231 -0.0343
  152PNCE   C2B 1378  12.365  13.199   8.370  0.0791 -0.0343 -0.2511
  152PNCE   C3B 1379  12.451  12.977   7.936  0.2627  0.4614 -0.3433
  152PNCE   D4B 1380  12.730  12.597   7.967 -0.0613  0.1335  0.0975
  152PNCE   C5B 1381  13.138  12.671   7.961 -0.0135  0.0561 -0.1363
  152PNCE   C6B 1382  13.487  13.012   7.939  0.1364 -0.1040  0.1853
  153XCA    COO 1383   7.400  12.817   8.520  0.0330  0.3051 -0.2981
  153XCA     C1 1384   7.143  13.167   8.229  0.0197 -0.0764 -0.2222
  153XCA     C2 1385   6.729  13.349   8.245 -0.4434 -0.0809 -0.1575
  153XCA     C3 1386   6.292  13.396   8.273  0.1323  0.2907  0.0963
  153XCA     C4 1387   6.029  13.200   8.325 -0.0270  0.1651  0.0424
  153XCA     C5 1388   5.605  13.195   8.070 -0.0924  0.1938  0.2138
  153XCA     C6 1389   5.222  13.001   7.794  0.0548  0.0741 -0.2514
  154CHOL   ROH 1390   4.977  11.755   6.155  0.1588  0.0970 -0.0598
  154CHOL    R1 1391   4.956  11.566   6.365  0.0998 -0.0586 -0.2033
  154CHOL    R2 1392   4.821  11.619   6.600  0.2933 -0.1164 -0.0767
  154CHOL    R3 1393   4.688  11.390   6.538  0.0275  0.0639 -0.1897
  154CHOL    R4 1394   4.566  11.481   6.789  0.1850  0.0432 -0.1038
  154CHOL    R5 1395   4.650  11.284   6.749 -0.0381 -0.0276 -0.2464
  154CHOL    C1 1396   4.293  11.186   6.840 -0.1276  0.3054 -0.2257
  154CHOL    C2 1397   4.125  11.105   7.224  0.1990 -0.1875  0.2771
  155PNCE   AM1 1398   3.954   0.416   9.032  0.2033 -0.0725 -0.0374
  155PNCE   AM2 1399   4.146   0.180   9.027  0.0101  0.0242 -0.2454
  155PNCE   T1A 1400   3.897   0.423   8.580 -0.0875  0.0862 -0.0295
  155PNCE   C2A 1401   4.250   0.500   8.235  0.0857  0.1165  0.1357
  155PNCE   C3A 1402   4.316   0.186   8.000  0.0108 -0.2508  0.0595
  155PNCE   C1B 1403   4.340   0.167   8.638 -0.2129  0.0486 -0.1451
  155PNCE   C2B 1404   4.695   0.145   8.376  0.3139 -0.1396  0.2348
  155PNCE   C3B 1405   4.948   0.135   8.004  0.1778 -0.0118 -0.1261
  155PNCE   D4B 1406   5.238   0.186   7.602 -0.1112 -0.1585  0.0634
  155PNCE   C5B 1407   4.866   0.362   7.327 -0.0105 -0.1306 -0.0393
  155PNCE   C6B 1408   4.619   0.649   7.042 -0.0503  0.0478  0.1475
  156PNCE   AM1 1409   9.579   0.388   8.530  0.1131 -0.1410  0.0515
  156PNCE   AM2 1410   9.307   0.524   8.597 -0.1466 -0.2845 -0.0036
  156PNCE   T1A 1411   9.704   0.177   8.148 -0.0229  0.0256 -0.0073
  156PNCE   C2A 1412   9.861  -0.127   7.965  0.1813 -0.1021 -0.1164
  156PNCE   C3A 1413  10.128  -0.147   7.610  0.1855  0.1399 -0.0361
  156PNCE   C1B 1414   8.876   0.376   8.381 -0.2803 -0.2757  0.0886
  156PNCE   C2B 1415   8.508   0.419   8.194  0.1124 -0.2651 -0.2364
  156PNCE   C3B 1416   8.168   0.204   8.036  0.2791 -0.0209 -0.0681
  156PNCE   D4B 1417   8.041  -0.138   7.974  0.3424 -0.0267  0.2288
  156PNCE   C5B 1418   8.140  -0.322   7.539  0.0491  0.1460 -0.4008
  156PNCE   C6B 1419   8.029  -0.629   7.226  0.0360  0.1852 -0.0593
  157CHOL   ROH 1420  14.636  14.638   5.324  0.0945 -0.0742  0.1827
  157CHOL    R1 1421  14.675  14.747   5.583 -0.0498  0.0772  0.1425
  157CHOL    R2 1422  14.801  14.989   5.625 -0.3396  0.2472  0.0546
  157CHOL    R3 1423  14.573  15.047   5.762 -0.4202  0.0323  0.0173
  157CHOL    R4 1424  14.791  15.110   5.948 -0.5085  0.1635  0.0823
  157CHOL    R5 1425  14.621  14.980   5.987 -0.4152  0.0152  0.0124
  157CHOL    C1 1426  14.572  15.236   6.265 -0.6826 -0.0870  0.0634
  157CHOL    C2 1427  14.595  15.600   6.341 -0.2974 -0.1858 -0.0386
  158XCA    COO 1428   5.640  11.326   9.730 -0.0309 -0.2870  0.0076
  158XCA     C1 1429   5.586  11.471   9.307  0.1757 -0.0672 -0.0282
  158XCA     C2 1430   5.549  11.533   8.892 -0.0390 -0.0507 -0.0579
  158XCA     C3 1431   5.467  11.443   8.480 -0.0641 -0.0226  0.0104
  158XCA     C4 1432   5.320  11.193   8.151 -0.1413 -0.0542 -0.2479
  158XCA     C5 1433   4.995  10.998   7.922  0.0348  0.0186  0.2266
  158XCA     C6 1434   4.628  11.171   7.887  0.0816 -0.0360  0.5423
  159PNCE   AM1 1435   2.478   7.569   7.957 -0.1476 -0.2384 -0.0509
  159PNCE   AM2 1436   2.437   7.866   8.174 -0.1384  0.2702 -0.2312
  159PNCE   T1A 1437   2.615   7.486   7.550  0.1382  0.2323  0.4057
  159PNCE   C2A 1438   2.431   7.469   7.120  0.2811 -0.1490 -0.0588
  159PNCE   C3A 1439   2.555   7.652   6.691  0.3497  0.1936 -0.0602
  159PNCE   C1B 1440   2.744   7.910   7.826 -0.1092 -0.3424 -0.0281
  159PNCE   C2B 1441   3.093   7.852   7.582 -0.2634 -0.2591 -0.0714
  159PNCE   C3B 1442   3.398   7.703   7.238  0.0684 -0.3389  0.0246
  159PNCE   D4B 1443   3.617   7.950   7.069  0.2986 -0.1614 -0.0109
  159PNCE   C5B 1444   3.710   8.397   7.257 -0.0750 -0.1457 -0.1682
  159PNCE   C6B 1445   3.648   8.803   7.165 -0.0967  0.1433 -0.0773
  160XCA    COO 1446   8.297   1.402   4.267 -0.0270 -0.0892  0.1947
  160XCA     C1 1447   8.498   1.430   4.572 -0.1140  0.0671 -0.0898
  160XCA     C2 1448   8.630   1.676   4.995  0.2440 -0.2155 -0.0384
  160XCA     C3 1449   8.329   1.679   5.330  0.0729  0.0090 -0.2017
  160XCA     C4 1450   8.177   1.789   5.774 -0.0926 -0.0563 -0.2235
  160XCA     C5 1451   8.158   1.760   6.228 -0.0528  0.0427 -0.0910
  160XCA     C6 1452   8.412   1.758   6.543  0.3290  0.0265 -0.1133
  161CHOL   ROH 1453  11.084   9.387   4.843 -0.3421  0.0295 -0.2728
  161CHOL    R1 1454  11.199   9.584   5.012 -0.1503 -0.1392 -0.2018
  161CHOL    R2 1455  11.147   9.854   4.982  0.0558 -0.0795 -0.0625
  161CHOL    R3 1456  11.078   9.836   5.245  0.0958 -0.1523 -0.0570
  161CHOL    R4 1457  11.259  10.066   5.231 -0.2037  0.0840 -0.0821
  161CHOL    R5 1458  11.277   9.894   5.363  0.0295  0.1162 -0.0728
  161CHOL    C1 1459  11.259  10.173   5.622 -0.3174  0.1108 -0.0884
  161CHOL    C2 1460  11.138  10.401   5.864  0.0281  0.0077  0.2177
  162CHOL   ROH 1461  11.041   6.313   4.639 -0.1276 -0.0802  0.0779
  162CHOL    R1 1462  11.099   6.463   4.872 -0.0036  0.0041 -0.0065
  162CHOL    R2 1463  10.987   6.406   5.117  0.0003  0.1950  0.0384
  162CHOL    R3 1464  11.246   6.397   5.198  0.0079  0.0846  0.0056
  162CHOL    R4 1465  11.092   6.437   5.445  0.0606  0.3331  0.0071
  162CHOL    R5 1466  11.258   6.559   5.375  0.1297  0.1894 -0.0940
  162CHOL    C1 1467  11.396   6.447   5.712  0.1027  0.3098 -0.0418
  162CHOL    C2 1468  11.358   6.474   6.094  0.0693  0.1194  0.0973
  163CHOL   ROH 1469  12.323  13.157   6.465 -0.3323  0.0954 -0.1584
  163CHOL    R1 1470  12.219  13.092   6.720 -0.2324  0.1071 -0.1142
  163CHOL    R2 1471  12.093  12.852   6.772 -0.0999  0.0575 -0.0207
  163CHOL    R3 1472  12.277  12.836   6.972 -0.0385  0.1981 -0.0649
  163CHOL    R4 1473  12.026  12.747   7.094  0.0121  0.2277  0.0597
  163CHOL    R5 1474  12.157  12.905   7.168  0.0095  0.2898 -0.0674
  163CHOL    C1 1475  12.159  12.672   7.470  0.1351  0.4589  0.0649
  163CHOL    C2 1476  12.173  12.506   7.826 -0.0354 -0.0215  0.0844
  164CHOL   ROH 1477  10.043  10.816   8.358  0.1427 -0.0630 -0.0416
  164CHOL    R1 1478  10.089  10.762   8.084  0.1980  0.0630 -0.0575
  164CHOL    R2 1479   9.885  10.716   7.905  0.2428 -0.1339 -0.0602
  164CHOL    R3 1480  10.005  10.917   7.766  0.0018  0.0483 -0.0141
  164CHOL    R4 1481   9.781  10.834   7.597  0.2403 -0.3549 -0.1459
  164CHOL    R5 1482   9.990  10.848   7.537  0.2606 -0.0178 -0.0148
  164CHOL    C1 1483   9.833  11.090   7.287  0.0127 -0.3124 -0.1525
  164CHOL    C2 1484   9.735  11.053   6.961  0.1927  0.2397 -0.2914
  165CHOL   ROH 1485   9.530   9.858   6.600  0.1537  0.1987  0.0970
  165CHOL    R1 1486   9.406  10.112   6.599 -0.0641  0.0988 -0.2676
  165CHOL    R2 1487   9.178  10.166   6.454 -0.3189 -0.4065 -0.0757
  165CHOL    R3 1488   9.082  10.249   6.694 -0.0538  0.0143 -0.1052
  165CHOL    R4 1489   8.881  10.338   6.500 -0.3963 -0.5495 -0.0334
  165CHOL    R5 1490   8.982  10.462   6.648 -0.2850 -0.1528 -0.4177
  165CHOL    C1 1491   8.619  10.515   6.753 -0.1924 -0.2377 -0.0365
  165CHOL    C2 1492   8.325  10.543   7.173 -0.1033 -0.1936  0.2703
  166CHOL   ROH 1493  12.063   2.512   4.520 -0.0776  0.1714 -0.1530
  166CHOL    R1 1494  11.908   2.575   4.749  0.0033 -0.0090 -0.0465
  166CHOL    R2 1495  12.021   2.621   4.997  0.1130  0.0321 -0.1041
  166CHOL    R3 1496  11.882   2.854   4.982 -0.0951 -0.0803  0.0291
  166CHOL    R4 1497  11.813   2.743   5.244  0.4551 -0.0153  0.2167
  166CHOL    R5 1498  11.673   2.806   5.089  0.1245 -0.1937  0.4281
  166CHOL    C1 1499  11.561   3.033   5.374  0.4588 -0.1483  0.5285
  166CHOL    C2 1500  11.424   2.985   5.659  0.0142 -0.1034 -0.0403
  167PNCE   AM1 1501   7.048   9.496   8.861  0.0619  0.0873 -0.0918
  167PNCE   AM2 1502   7.144   9.178   8.862 -0.0751 -0.0417 -0.0539
  167PNCE   T1A 1503   6.758   9.409   8.482 -0.1397 -0.0571  0.0144
  167PNCE   C2A 1504   6.512   9.340   8.140 -0.1148  0.0040 -0.1543
  167PNCE   C3A 1505   6.137   9.202   8.160  0.4028  0.2416  0.0298
  167PNCE   C1B 1506   7.142   8.954   8.450 -0.1077 -0.0386 -0.0220
  167PNCE   C2B 1507   6.980   9.024   8.154 -0.0917  0.2166 -0.0244
  167PNCE   C3B 1508   6.858   9.153   7.776 -0.0301  0.1062  0.0138
  167PNCE   D4B 1509   6.475   9.257   7.580 -0.2661 -0.0450 -0.1582
  167PNCE   C5B 1510   6.268   8.959   7.308 -0.2405 -0.2973  0.1702
  167PNCE   C6B 1511   6.008   8.903   7.076 -0.1315  0.4024 -0.0285
  168CHOL   ROH 1512   9.586   8.795   8.505  0.0732  0.0155 -0.1681
  168CHOL    R1 1513   9.633   8.716   8.237 -0.0235 -0.0083 -0.1762
  168CHOL    R2 1514   9.430   8.632   8.068 -0.1203  0.2446 -0.1728
  168CHOL    R3 1515   9.527   8.828   7.907  0.0976  0.1470 -0.1674
  168CHOL    R4 1516   9.364   8.661   7.731 -0.2882  0.4352 -0.1273
  168CHOL    R5 1517   9.572   8.717   7.699 -0.1995  0.1204 -0.2317
  168CHOL    C1 1518   9.417   8.861   7.382 -0.1816  0.4546 -0.0957
  168CHOL    C2 1519   9.460   9.018   7.054  0.0995 -0.0179 -0.2765
  169XCA    COO 1520  15.214   5.391   4.333 -0.2154 -0.0210  0.2282
  169XCA     C1 1521  14.840   5.281   4.447 -0.1431 -0.0664  0.0838
  169XCA     C2 1522  14.568   5.614   4.423  0.0715  0.0541  0.2185
  169XCA     C3 1523  14.534   5.737   4.792 -0.1057 -0.3090  0.0210
  169XCA     C4 1524  14.524   5.812   5.288 -0.0926 -0.2068 -0.2171
  169XCA     C5 1525  14.719   5.665   5.690 -0.3114  0.0622 -0.0277
  169XCA     C6 1526  14.774   5.263   5.853  0.1183  0.2121  0.3134
  170CHOL   ROH 1527  11.163   4.791   4.359  0.1004  0.0140 -0.0934
  170CHOL    R1 1528  11.294   4.807   4.609  0.0691  0.0807 -0.0817
  170CHOL    R2 1529  11.430   5.033   4.691 -0.1115  0.1720 -0.0416
  170CHOL    R3 1530  11.268   5.011   4.909 -0.1093  0.0200 -0.0535
  170CHOL    R4 1531  11.499   5.164   5.004 -0.1275  0.0077  0.0322
  170CHOL    R5 1532  11.418   4.982   5.093 -0.0992 -0.0610 -0.0702
  170CHOL    C1 1533  11.387   5.220   5.389 -0.1348 -0.2306  0.0641
  170CHOL    C2 1534  11.551   5.317   5.686 -0.0046 -0.0071 -0.0688
  171XCA    COO 1535  10.769   2.087   7.997  0.0855  0.0546  0.1324
  171XCA     C1 1536  11.067   2.238   7.714 -0.0263 -0.3442  0.0798
  171XCA     C2 1537  11.365   2.337   7.441  0.2355  0.0033  0.1058
  171XCA     C3 1538  11.544   2.180   7.042 -0.1878 -0.4193  0.2166
  171XCA     C4 1539  11.898   2.301   6.888  0.3457  0.0565  0.1628
  171XCA     C5 1540  12.395   2.450   6.955 -0.0860  0.2205 -0.2149
  171XCA     C6 1541  12.448   2.855   7.076  0.2522 -0.0670 -0.1497
  172PNCE   AM1 1542   9.710  10.872   8.809 -0.1897 -0.1608  0.1554
  172PNCE   AM2 1543   9.563  10.663   8.708  0.2377  0.1305 -0.0393
  172PNCE   T1A 1544   9.597  11.060   8.428 -0.0122  0.1387 -0.0605
  172PNCE   C2A 1545   9.489  11.284   8.195 -0.0622 -0.0111 -0.2580
  172PNCE   C3A 1546   9.440  11.020   7.911 -0.0930  0.0927  0.1968
  172PNCE   C1B 1547   9.550  10.602   8.295  0.0036 -0.3348 -0.2432
  172PNCE   C2B 1548   9.435  10.510   7.859  0.1645  0.1396  0.0973
  172PNCE   C3B 1549   9.259  10.306   7.465 -0.2707  0.1464  0.0073
  172PNCE   D4B 1550   9.450  10.245   7.072 -0.1134  0.4170 -0.1131
  172PNCE   C5B 1551   9.443  10.548   6.821  0.0915 -0.0682  0.1932
  172PNCE   C6B 1552   9.694  10.798   6.544  0.2432 -0.1646 -0.2919
  173PNCE   AM1 1553  14.487   6.816   8.685 -0.0583  0.1116  0.1041
  173PNCE   AM2 1554  14.161   6.932   8.662  0.0668 -0.3126 -0.2289
  173PNCE   T1A 1555  14.477   6.690   8.261  0.0423 -0.2252  0.3636
  173PNCE   C2A 1556  14.716   6.666   7.854  0.1147 -0.0153  0.1864
  173PNCE   C3A 1557  14.942   6.795   7.550 -0.0820 -0.3521 -0.0805
  173PNCE   C1B 1558  14.047   7.245   8.433  0.1960 -0.4120 -0.2193
  173PNCE   C2B 1559  14.100   7.655   8.097  0.0883 -0.0644  0.2357
  173PNCE   C3B 1560  14.021   7.873   7.724  0.1265  0.0146  0.1336
  173PNCE   D4B 1561  14.150   8.100   7.267 -0.0762 -0.2093 -0.1455
  173PNCE   C5B 1562  13.999   8.108   6.981 -0.1555  0.0467 -0.3891
  173PNCE   C6B 1563  13.855   8.108   6.551  0.1578  0.0575  0.0532
  174CHOL   ROH 1564   1.635   3.699   4.757 -0.0219  0.0868  0.1973
  174CHOL    R1 1565   1.585   3.531   4.979  0.0197  0.0112  0.1493
  174CHOL    R2 1566   1.783   3.381   5.099  0.0751  0.1008  0.1651
  174CHOL    R3 1567   1.698   3.508   5.324 -0.0533  0.0025  0.1735
  174CHOL    R4 1568   1.763   3.236   5.413  0.0719  0.0113  0.1241
  174CHOL    R5 1569   1.574   3.341   5.443  0.0042 -0.0963  0.1002
  174CHOL    C1 1570   1.670   3.271   5.806 -0.0504 -0.1331  0.1081
  174CHOL    C2 1571   1.899   3.436   6.131  0.2601  0.3678 -0.0382
  175XCA    COO 1572  12.341  14.283   4.731 -0.1390 -0.1397 -0.0267
  175XCA     C1 1573  12.461  14.108   5.110  0.1922 -0.1823  0.1281
  175XCA     C2 1574  12.493  13.915   5.560  0.1000 -0.1369 -0.3231
  175XCA     C3 1575  12.408  14.102   5.929  0.0912  0.1163  0.1253
  175XCA     C4 1576  12.021  14.249   6.253  0.1544  0.0268 -0.1235
  175XCA     C5 1577  11.713  14.109   6.536 -0.1449  0.2054  0.1127
  175XCA     C6 1578  11.548  13.728   6.515  0.2333 -0.0693  0.0478
  176CHOL   ROH 1579   3.739  13.162   8.561  0.0162  0.1203 -0.0134
  176CHOL    R1 1580   3.703  13.060   8.299  0.1766  0.1346 -0.0412
  176CHOL    R2 1581   3.499  13.145   8.133  0.0609 -0.1172 -0.0243
  176CHOL    R3 1582   3.703  13.194   7.961 -0.0009  0.2238 -0.0091
  176CHOL    R4 1583   3.465  13.172   7.790  0.0503 -0.3290 -0.0413
  176CHOL    R5 1584   3.652  13.061   7.769  0.2900  0.0293  0.0369
  176CHOL    C1 1585   3.638  13.233   7.429 -0.0140 -0.1323 -0.0369
  176CHOL    C2 1586   3.788  13.294   7.073  0.0160  0.3438 -0.0723
  177CHOL   ROH 1587  12.478  14.811   9.109  0.1898 -0.3682  0.0746
  177CHOL    R1 1588  12.339  14.759   8.868 -0.0045 -0.3577  0.1831
  177CHOL    R2 1589  12.446  14.813   8.619 -0.3002 -0.1160  0.1022
  177CHOL    R3 1590  12.388  14.551   8.573 -0.1056 -0.1458  0.0137
  177CHOL    R4 1591  12.419  14.668   8.306 -0.1295 -0.0456  0.0534
  177CHOL    R5 1592  12.248  14.554   8.379 -0.0664 -0.1885 -0.0160
  177CHOL    C1 1593  12.348  14.338   8.081  0.1527 -0.0325 -0.0582
  177CHOL    C2 1594  12.430  13.964   8.038 -0.4103 -0.1569  0.1178
  178CHOL   ROH 1595   8.540   7.650   8.267 -0.0596 -0.2161  0.0180
  178CHOL    R1 1596   8.664   7.780   8.048 -0.1056 -0.1064  0.0563
  178CHOL    R2 1597   8.902   7.919   8.072 -0.0342 -0.2265  0.0506
  178CHOL    R3 1598   8.981   7.755   7.870 -0.1977 -0.1118 -0.1093
  178CHOL    R4 1599   9.051   8.025   7.780 -0.0990 -0.0737  0.0723
  178CHOL    R5 1600   8.931   7.879   7.671 -0.2170  0.0692  0.0051
  178CHOL    C1 1601   9.213   7.934   7.419 -0.2902  0.1230 -0.0651
  178CHOL    C2 1602   9.336   8.018   7.066 -0.2546  0.0509 -0.2398
  179XCA    COO 1603   9.291   1.326   4.550 -0.0011 -0.0011  0.1521
  179XCA     C1 1604   8.979   1.331   4.822  0.0810  0.1885  0.1937
  179XCA     C2 1605   8.926   1.397   5.296 -0.0341 -0.2777  0.2577
  179XCA     C3 1606   8.761   1.719   5.559 -0.0434 -0.0893  0.0811
  179XCA     C4 1607   8.765   1.738   6.046 -0.0680  0.1691 -0.2890
  179XCA     C5 1608   9.177   1.626   6.160 -0.0538 -0.1775 -0.2614
  179XCA     C6 1609   9.543   1.791   6.308 -0.1708  0.1760 -0.1760
  180XCA    COO 1610  13.968   8.578   4.548  0.2766 -0.1946 -0.3363
  180XCA     C1 1611  13.878   8.598   4.996 -0.3633 -0.0071 -0.0577
  180XCA     C2 1612  14.053   8.567   5.388  0.0252 -0.0902 -0.1873
  180XCA     C3 1613  14.065   8.532   5.806 -0.0823 -0.0720  0.1753
  180XCA     C4 1614  14.319   8.753   6.085  0.0400  0.0277  0.0386
  180XCA     C5 1615  14.500   9.000   6.378 -0.1566  0.1201 -0.0162
  180XCA     C6 1616  14.424   8.892   6.872  0.1277 -0.1768  0.1274
  181CHOL   ROH 1617   1.594   5.263   8.392  0.0794 -0.5173  0.0295
  181CHOL    R1 1618   1.778   5.188   8.191  0.0718 -0.3212 -0.0535
  181CHOL    R2 1619   1.760   5.280   7.931 -0.0584 -0.2265 -0.0145
  181CHOL    R3 1620   2.017   5.358   7.975 -0.0948 -0.0824 -0.0533
  181CHOL    R4 1621   2.003   5.310   7.686 -0.0700 -0.2384 -0.0268
  181CHOL    R5 1622   2.146   5.223   7.825 -0.0301 -0.0981  0.0182
  181CHOL    C1 1623   2.385   5.400   7.585 -0.1109 -0.1099 -0.0705
  181CHOL    C2 1624   2.224   5.402   7.185  0.0018 -0.2956  0.4569
  182CHOL   ROH 1625  10.588   8.346   4.912  0.0642  0.0730  0.1086
  182CHOL    R1 1626  10.363   8.256   5.058 -0.0093  0.1448  0.0415
  182CHOL    R2 1627  10.385   8.107   5.290 -0.1282 -0.0071 -0.0401
  182CHOL    R3 1628  10.229   8.304   5.393  0.0038  0.0456  0.0604
  182CHOL    R4 1629  10.226   8.093   5.596 -0.0910 -0.0287 -0.0221
  182CHOL    R5 1630  10.052   8.188   5.505 -0.0481  0.1091  0.0418
  182CHOL    C1 1631   9.986   8.270   5.871  0.0546  0.0082  0.0828
  182CHOL    C2 1632   9.646   8.186   6.138  0.1810  0.2032  0.0170
  183PNCE   AM1 1633  10.139  13.024   8.493  0.1608  0.2590 -0.0069
  183PNCE   AM2 1634  10.146  13.258   8.194 -0.1341  0.1191 -0.1793
  183PNCE   T1A 1635  10.156  12.744   8.203  0.0564  0.2974 -0.0631
  183PNCE   C2A 1636  10.412  12.344   8.124 -0.0036  0.1501  0.1711
  183PNCE   C3A 1637  10.600  12.084   7.882 -0.0087  0.1214  0.2452
  183PNCE   C1B 1638  10.421  13.011   7.865  0.0152  0.0477  0.0191
  183PNCE   C2B 1639  10.655  12.948   7.451 -0.1050  0.2943  0.1549
  183PNCE   C3B 1640  10.938  12.806   7.101  0.3222  0.0145  0.2712
  183PNCE   D4B 1641  11.239  12.656   6.863  0.0561  0.0817  0.0016
  183PNCE   C5B 1642  11.653  12.672   6.741 -0.0176  0.2671 -0.0989
  183PNCE   C6B 1643  11.934  12.577   6.387  0.0278 -0.2017  0.0837
  184PNCE   AM1 1644   2.450   1.746   9.046 -0.0004 -0.2615  0.1195
  184PNCE   AM2 1645   2.640   2.007   8.913 -0.1013  0.2199  0.4481
  184PNCE   T1A 1646   2.461   1.548   8.708  0.0829 -0.0727  0.1956
  184PNCE   C2A 1647   2.518   1.032   8.678  0.2090 -0.0810  0.0468
  184PNCE   C3A 1648   2.704   0.610   8.476  0.0334 -0.1796  0.0498
  184PNCE   C1B 1649   2.349   2.000   8.532  0.0700  0.0437 -0.0068
  184PNCE   C2B 1650   2.373   1.892   8.066 -0.4046  0.3884  0.2875
  184PNCE   C3B 1651   2.211   1.950   7.581 -0.0633  0.4834  0.2766
  184PNCE   D4B 1652   2.126   1.752   7.173 -0.2342  0.1359 -0.3110
  184PNCE   C5B 1653   2.361   1.860   6.788 -0.0035  0.2268  0.1250
  184PNCE   C6B 1654   2.693   1.723   6.481  0.0341  0.3599  0.2408
  185PNCE   AM1 1655  15.541  11.348   9.669  0.0008  0.4691  0.0023
  185PNCE   AM2 1656  15.717  11.662   9.603 -0.0805 -0.0673  0.1199
  185PNCE   T1A 1657  15.434  11.379   9.236  0.1062 -0.0805 -0.1732
  185PNCE   C2A 1658  15.110  11.188   8.942  0.3682  0.5133  0.0951
  185PNCE   C3A 1659  14.798  11.108   8.479  0.1740 -0.0624  0.0330
  185PNCE   C1B 1660  15.739  11.871   9.150 -0.0001 -0.0341  0.0518
  185PNCE   C2B 1661  15.758  12.215   8.846 -0.2055  0.2564  0.0486
  185PNCE   C3B 1662  15.902  12.364   8.543  0.1817  0.1773 -0.0938
  185PNCE   D4B 1663  15.689  12.485   8.128  0.0483 -0.2489 -0.0062
  185PNCE   C5B 1664  15.362  12.759   8.124 -0.3767 -0.0778  0.0836
  185PNCE   C6B 1665  15.090  13.059   8.085 -0.1486  0.0892  0.2720
  186PNCE   AM1 1666   0.928   4.408   8.465 -0.0233 -0.0832  0.1107
  186PNCE   AM2 1667   0.859   4.140   8.302 -0.0621  0.0124  0.0057
  186PNCE   T1A 1668   1.328   4.289   8.411 -0.0006  0.0719 -0.0548
  186PNCE   C2A 1669   1.627   4.200   8.072  0.1409  0.1415 -0.0360
  186PNCE   C3A 1670   1.819   4.032   7.707 -0.0123 -0.1594 -0.0521
  186PNCE   C1B 1671   1.077   4.087   7.927  0.1190  0.2358 -0.0326
  186PNCE   C2B 1672   1.262   3.789   7.645  0.0831  0.0651 -0.0125
  186PNCE   C3B 1673   1.445   3.602   7.287 -0.1337  0.0801  0.1004
  186PNCE   D4B 1674   1.600   3.280   7.053  0.2462 -0.1350  0.0371
  186PNCE   C5B 1675   1.444   3.160   6.631  0.1254 -0.0128 -0.0153
  186PNCE   C6B 1676   1.400   3.228   6.214 -0.0524 -0.0500  0.2237
  187PNCE   AM1 1677  12.645   6.501   8.207 -0.2488 -0.0413 -0.3511
  187PNCE   AM2 1678  12.286   6.571   8.127  0.0398 -0.0296 -0.1317
  187PNCE   T1A 1679  12.763   6.652   7.842  0.0636  0.1604 -0.2486
  187PNCE   C2A 1680  12.750   6.626   7.488  0.1907 -0.2832  0.2932
  187PNCE   C3A 1681  12.508   6.854   7.283 -0.1801  0.0093  0.0718
  187PNCE   C1B 1682  12.254   6.665   7.714 -0.0555  0.1773 -0.2605
  187PNCE   C2B 1683  11.913   6.750   7.609 -0.4319 -0.0900 -0.0320
  187PNCE   C3B 1684  11.690   7.117   7.466  0.1892 -0.1313 -0.0483
  187PNCE   D4B 1685  11.576   7.253   7.154 -0.1421 -0.2092 -0.0012
  187PNCE   C5B 1686  11.207   7.440   6.936 -0.2610 -0.0916 -0.0639
  187PNCE   C6B 1687  10.810   7.543   7.144 -0.0284 -0.3132 -0.0473
  188XCA    COO 1688  10.097  10.521   8.784 -0.1569 -0.1207  0.0601
  188XCA     C1 1689  10.035  10.314   8.402  0.2766  0.0824  0.1947
  188XCA     C2 1690   9.830  10.151   8.055  0.1539 -0.1909 -0.0980
  188XCA     C3 1691   9.787  10.289   7.597 -0.1906  0.0833  0.0169
  188XCA     C4 1692   9.554  10.694   7.264  0.2624  0.1263  0.0816
  188XCA     C5 1693   9.266  10.994   7.169  0.0820 -0.0431  0.0789
  188XCA     C6 1694   8.995  11.290   7.288 -0.0886  0.1577  0.0250
  189PNCE   AM1 1695  11.180   7.819   8.789 -0.0707  0.0264 -0.0353
  189PNCE   AM2 1696  11.172   8.114   8.880  0.0703 -0.0213  0.0325
  189PNCE   T1A 1697  11.134   7.807   8.375 -0.0915 -0.2767 -0.0488
  189PNCE   C2A 1698  11.332   7.845   7.963 -0.1282 -0.1753 -0.1138
  189PNCE   C3A 1699  11.659   7.801   7.600  0.1133  0.0209  0.0118
  189PNCE   C1B 1700  11.511   8.207   8.576 -0.4025 -0.0233  0.2410
  189PNCE   C2B 1701  11.664   8.187   8.095 -0.0305 -0.0698 -0.0646
  189PNCE   C3B 1702  11.408   8.374   7.731 -0.5409  0.2895 -0.4239
  189PNCE   D4B 1703  11.443   8.204   7.324 -0.1508  0.0301 -0.0137
  189PNCE   C5B 1704  11.839   8.169   7.346  0.0329 -0.2758  0.0081
  189PNCE   C6B 1705  12.274   8.120   7.360 -0.2489 -0.1430  0.2570
  190PNCE   AM1 1706   0.847   5.071   7.955 -0.0146 -0.0791 -0.2583
  190PNCE   AM2 1707   0.771   5.292   7.800 -0.0114  0.4309  0.3242
  190PNCE   T1A 1708   0.969   4.784   7.558 -0.2879 -0.2177  0.0267
  190PNCE   C2A 1709   0.940   4.569   7.121  0.0878 -0.2056  0.1292
  190PNCE   C3A 1710   0.579   4.516   6.690  0.1050 -0.1345 -0.0596
  190PNCE   C1B 1711   0.461   5.429   7.435 -0.0224 -0.0408 -0.1153
  190PNCE   C2B 1712   0.401   5.571   7.060 -0.0042  0.0709  0.1022
  190PNCE   C3B 1713   0.523   5.500   6.725  0.1874  0.0095  0.0413
  190PNCE   D4B 1714   0.821   5.488   6.542  0.0861  0.6048 -0.1413
  190PNCE   C5B 1715   1.111   5.202   6.468 -0.2928  0.1113 -0.0945
  190PNCE   C6B 1716   1.472   5.160   6.724  0.3383  0.3621 -0.3451
  191CHOL   ROH 1717  10.851  15.631   4.824 -0.1408  0.1399  0.1595
  191CHOL    R1 1718  11.061  15.728   4.986 -0.0094  0.1123  0.0099
  191CHOL    R2 1719  11.095  15.997   5.042 -0.0200  0.1012  0.1086
  191CHOL    R3 1720  11.092  15.910   5.300  0.2350 -0.0304  0.0692
  191CHOL    R4 1721  11.236  16.165   5.309 -0.1872  0.2003  0.1345
  191CHOL    R5 1722  11.305  15.974   5.386  0.1642  0.2802  0.0107
  191CHOL    C1 1723  11.315  16.182   5.706 -0.0451  0.1344  0.1125
  191CHOL    C2 1724  11.549  16.244   6.048  0.0190  0.0604  0.0002
  192CHOL   ROH 1725   1.175   7.465   7.643 -0.0593  0.1899  0.0464
  192CHOL    R1 1726   1.108   7.648   7.437 -0.0708  0.2226  0.0790
  192CHOL    R2 1727   1.052   7.914   7.487 -0.0163  0.2273  0.1182
  192CHOL    R3 1728   1.247   7.956   7.301 -0.0468  0.2135  0.0832
  192CHOL    R4 1729   1.085   8.200   7.296 -0.0355  0.2205  0.1049
  192CHOL    R5 1730   1.136   8.075   7.125 -0.0713  0.2141  0.0994
  192CHOL    C1 1731   1.286   8.406   7.011 -0.0752  0.2036  0.0642
  192CHOL    C2 1732   1.494   8.367   6.745 -0.0288  0.3066  0.0110
  193XCA    COO 1733  10.543   0.124   8.684 -0.2025  0.1295 -0.1061
  193XCA     C1 1734  10.213   0.239   8.367  0.1776 -0.0193  0.1251
  193XCA     C2 1735  10.227   0.360   7.933 -0.3558 -0.0357 -0.4655
  193XCA     C3 1736  10.607   0.269   7.599  0.0004 -0.3138  0.2332
  193XCA     C4 1737  10.740   0.369   7.189  0.2506 -0.2680  0.0742
  193XCA     C5 1738  10.983   0.502   6.852  0.2755 -0.2719 -0.0551
  193XCA     C6 1739  11.098   0.493   6.301  0.1780  0.0260 -0.2868
  194CHOL   ROH 1740   4.503  11.895   9.340  0.0527 -0.3241  0.1003
  194CHOL    R1 1741   4.744  11.787   9.239  0.1402 -0.1431  0.1122
  194CHOL    R2 1742   4.755  11.645   9.002  0.2426 -0.2065  0.1577
  194CHOL    R3 1743   4.946  11.827   8.939  0.0792 -0.0573  0.0812
  194CHOL    R4 1744   4.906  11.672   8.693  0.0496 -0.0495  0.0744
  194CHOL    R5 1745   5.096  11.708   8.795  0.0850  0.0690 -0.0231
  194CHOL    C1 1746   5.174  11.859   8.453 -0.2163  0.1819 -0.0459
  194CHOL    C2 1747   5.472  11.845   8.125 -0.2108 -0.1340  0.1130
  195PNCE   AM1 1748   5.992   2.440   8.351 -0.1242 -0.1909 -0.0484
  195PNCE   AM2 1749   6.211   2.242   8.283 -0.1391 -0.0422  0.0266
  195PNCE   T1A 1750   5.839   2.288   7.938  0.0134 -0.2592  0.1004
  195PNCE   C2A 1751   5.660   2.168   7.551  0.3580 -0.2581  0.1382
  195PNCE   C3A 1752   5.481   2.284   7.112 -0.0223 -0.6094 -0.1454
  195PNCE   C1B 1753   6.378   2.086   7.857  0.2642  0.1623  0.0601
  195PNCE   C2B 1754   6.577   1.943   7.485  0.1295 -0.0077  0.0473
  195PNCE   C3B 1755   6.453   1.971   7.067  0.0912 -0.1238 -0.0873
  195PNCE   D4B 1756   6.267   1.869   6.659 -0.3346  0.0460  0.1015
  195PNCE   C5B 1757   6.264   2.103   6.331  0.1043  0.4488  0.0539
  195PNCE   C6B 1758   6.184   2.564   6.171  0.0917 -0.1264 -0.0748
  196XCA    COO 1759  13.542   9.059   8.302 -0.4235 -0.2421  0.0150
  196XCA     C1 1760  13.217   9.069   7.981  0.1655 -0.0934 -0.1253
  196XCA     C2 1761  13.196   9.235   7.595  0.2372 -0.0730  0.1765
  196XCA     C3 1762  12.806   9.533   7.407 -0.0589  0.0175  0.0901
  196XCA     C4 1763  12.462   9.237   7.243 -0.2377  0.0716  0.0833
  196XCA     C5 1764  12.553   9.079   6.796 -0.2015 -0.0374  0.0593
  196XCA     C6 1765  12.955   8.954   6.619 -0.4230 -0.0336 -0.0252
  197CHOL   ROH 1766  13.661  14.445   6.622  0.0116 -0.0085  0.0266
  197CHOL    R1 1767  13.492  14.591   6.796 -0.0556 -0.0522 -0.0016
  197CHOL    R2 1768  13.277  14.738   6.705 -0.0856 -0.1171 -0.0366
  197CHOL    R3 1769  13.139  14.589   6.886 -0.0679 -0.1520 -0.0518
  197CHOL    R4 1770  12.944  14.783   6.785 -0.1444 -0.2927 -0.1759
  197CHOL    R5 1771  12.994  14.745   6.994 -0.2025 -0.2095 -0.1471
  197CHOL    C1 1772  12.620  14.668   7.001 -0.1620 -0.4276 -0.2712
  197CHOL    C2 1773  12.332  14.983   7.089 -0.1548 -0.0289  0.2310
  198CHOL   ROH 1774   0.596  13.295   8.732  0.0237 -0.0201 -0.1655
  198CHOL    R1 1775   0.479  13.220   8.485 -0.0402  0.1467 -0.1880
  198CHOL    R2 1776   0.494  13.379   8.259  0.1734  0.1584 -0.1717
  198CHOL    R3 1777   0.595  13.153   8.147 -0.0803  0.0476 -0.1815
  198CHOL    R4 1778   0.516  13.320   7.919  0.0645  0.1248 -0.1725
  198CHOL    R5 1779   0.455  13.114   7.956 -0.1479  0.1893 -0.1604
  198CHOL    C1 1780   0.624  13.074   7.616 -0.2371  0.0014 -0.1824
  198CHOL    C2 1781   0.503  12.846   7.347  0.0441  0.2697  0.3455
  199PNCE   AM1 1782   2.228  11.909   9.563  0.0121  0.0042 -0.2028
  199PNCE   AM2 1783   2.057  11.638   9.465  0.0354  0.0784  0.2710
  199PNCE   T1A 1784   2.502  11.976   9.163  0.1077  0.0516 -0.1194
  199PNCE   C2A 1785   2.805  12.105   8.861  0.2022  0.0335  0.2961
  199PNCE   C3A 1786   3.180  12.341   8.733 -0.3155  0.1445 -0.0960
  199PNCE   C1B 1787   2.082  11.704   9.049 -0.0039  0.1734 -0.2693
  199PNCE   C2B 1788   2.335  11.678   8.689  0.1639  0.0453 -0.0466
  199PNCE   C3B 1789   2.604  11.652   8.411  0.0774 -0.1552  0.1715
  199PNCE   D4B 1790   2.984  11.650   8.221 -0.3140  0.1699  0.1056
  199PNCE   C5B 1791   3.026  11.897   7.918 -0.0284  0.1213  0.0924
  199PNCE   C6B 1792   3.103  12.123   7.548  0.0880 -0.2909 -0.0431
  200PNCE   AM1 1793  14.902  15.581   8.619 -0.0750  0.0613 -0.0008
  200PNCE   AM2 1794  14.999  15.746   8.871 -0.1748  0.3262  0.4738
  200PNCE   T1A 1795  15.126  15.453   8.239 -0.0700  0.2193 -0.0857
  200PNCE   C2A 1796  15.203  15.372   7.786  0.1508  0.1772 -0.1668
  200PNCE   C3A 1797  15.091  15.230   7.466  0.1562 -0.3186  0.1187
  200PNCE   C1B 1798  15.148  16.148   8.637  0.0833  0.0383  0.0103
  200PNCE   C2B 1799  15.151  16.345   8.255 -0.1798 -0.2059  0.1694
  200PNCE   C3B 1800  15.147  16.338   7.778 -0.2211 -0.1217  0.1337
  200PNCE   D4B 1801  15.147  16.137   7.303  0.2869 -0.0060  0.1138
  200PNCE   C5B 1802  14.828  16.272   7.065  0.1644  0.2258  0.0681
  200PNCE   C6B 1803  14.575  16.059   7.236  0.0933 -0.1929 -0.0237
  201CHOL   ROH 1804   9.774   7.935   8.592 -0.0140 -0.0577  0.0933
  201CHOL    R1 1805   9.925   8.057   8.386 -0.0492 -0.0007  0.1013
  201CHOL    R2 1806   9.860   8.032   8.119 -0.0208 -0.0326  0.0978
  201CHOL    R3 1807   9.866   8.304   8.125 -0.1309 -0.0295  0.0924
  201CHOL    R4 1808   9.925   8.234   7.846  0.0419 -0.0162  0.1244
  201CHOL    R5 1809  10.044   8.362   7.976 -0.0756  0.0357  0.1828
  201CHOL    C1 1810   9.968   8.606   7.692 -0.0250 -0.0037  0.1348
  201CHOL    C2 1811   9.873   8.991   7.514 -0.0684 -0.0268 -0.1772
  202CHOL   ROH 1812  15.642   5.441   4.565 -0.3363 -0.1258 -0.0187
  202CHOL    R1 1813  15.562   5.503   4.829 -0.1903 -0.2833  0.0646
  202CHOL    R2 1814  15.668   5.375   5.051  0.1748 -0.1912 -0.0482
  202CHOL    R3 1815  15.722   5.629   5.131 -0.0897 -0.1307 -0.0510
  202CHOL    R4 1816  15.834   5.459   5.342  0.0340 -0.0090 -0.0182
  202CHOL    R5 1817  15.694   5.623   5.369 -0.1338 -0.1432 -0.0568
  202CHOL    C1 1818  15.982   5.746   5.587 -0.2962  0.1539 -0.0034
  202CHOL    C2 1819  16.068   5.848   5.834  0.1096 -0.3322 -0.0075
  203CHOL   ROH 1820   3.710   1.725   8.696 -0.1982 -0.0142  0.1626
  203CHOL    R1 1821   3.716   1.538   8.484 -0.1920  0.2010 -0.0304
  203CHOL    R2 1822   3.740   1.265   8.526  0.0112  0.1717 -0.3158
  203CHOL    R3 1823   3.514   1.255   8.375 -0.0667  0.1751 -0.2012
  203CHOL    R4 1824   3.670   1.022   8.291 -0.2269  0.0265 -0.1001
  203CHOL    R5 1825   3.588   1.177   8.162 -0.2066 -0.0271 -0.1800
  203CHOL    C1 1826   3.417   0.870   8.013 -0.4387 -0.0550  0.1331
  203CHOL    C2 1827   3.251   0.779   7.637 -0.0600  0.0986 -0.1378
  204PNCE   AM1 1828   2.128   8.524   8.127 -0.0237 -0.0756 -0.2172
  204PNCE   AM2 1829   1.771   8.588   8.217  0.1437  0.1530  0.1158
  204PNCE   T1A 1830   2.008   8.984   8.129  0.1800 -0.0032  0.5097
  204PNCE   C2A 1831   1.818   9.234   7.936  0.1626  0.1131  0.1289
  204PNCE   C3A 1832   1.709   9.679   7.812  0.1365 -0.0117  0.0198
  204PNCE   C1B 1833   1.653   8.752   7.802  0.1355  0.0457  0.5521
  204PNCE   C2B 1834   1.601   9.070   7.480 -0.1069 -0.3134 -0.0084
  204PNCE   C3B 1835   1.677   9.323   7.142  0.1504  0.3219 -0.0047
  204PNCE   D4B 1836   1.898   9.678   6.818 -0.0658 -0.1347  0.1198
  204PNCE   C5B 1837   2.171   9.603   6.454  0.1007  0.0668 -0.1424
  204PNCE   C6B 1838   2.151   9.619   5.940  0.0273  0.0308  0.2334
  205CHOL   ROH 1839  14.387   8.614   4.840  0.0386  0.1190  0.0093
  205CHOL    R1 1840  14.542   8.573   5.074  0.0399 -0.0930 -0.0266
  205CHOL    R2 1841  14.495   8.710   5.309  0.2643 -0.0480 -0.0095
  205CHOL    R3 1842  14.482   8.460   5.414 -0.0286 -0.0408 -0.0195
  205CHOL    R4 1843  14.510   8.638   5.646  0.3978 -0.0775 -0.0216
  205CHOL    R5 1844  14.635   8.466   5.598  0.1182 -0.2676 -0.1244
  205CHOL    C1 1845  14.507   8.361   5.942  0.2004 -0.0879 -0.0379
  205CHOL    C2 1846  14.688   8.430   6.162  0.1934 -0.0981 -0.1101
  206XCA    COO 1847  10.262  10.970   8.698 -0.0582  0.0600  0.0552
  206XCA     C1 1848  10.442  11.021   8.327 -0.2394  0.1372 -0.3645
  206XCA     C2 1849  10.508  10.969   7.921 -0.1858  0.3665  0.3146
  206XCA     C3 1850  10.388  11.246   7.590 -0.1130  0.0833 -0.0706
  206XCA     C4 1851  10.318  11.328   7.203  0.0089 -0.0216  0.0329
  206XCA     C5 1852  10.554  11.441   6.743  0.2753 -0.0774  0.3019
  206XCA     C6 1853  10.510  11.661   6.390 -0.2016  0.0231  0.3793
  207CHOL   ROH 1854   3.577  12.847   7.100  0.0296 -0.2226  0.0214
  207CHOL    R1 1855   3.774  12.823   6.898  0.0507 -0.1958  0.0397
  207CHOL    R2 1856   4.021  12.708   6.944  0.0235 -0.2483  0.0371
  207CHOL    R3 1857   3.952  12.552   6.732  0.0286 -0.1759 -0.0188
  207CHOL    R4 1858   4.242  12.587   6.707  0.0712 -0.3576  0.1358
  207CHOL    R5 1859   4.092  12.628   6.554  0.1724 -0.2393  0.0623
  207CHOL    C1 1860   4.305  12.370   6.370  0.1039 -0.3533  0.1408
  207CHOL    C2 1861   4.439  12.416   6.005 -0.1870 -0.1069  0.1370
  208CHOL   ROH 1862   0.088   2.707   8.236 -0.1391  0.1987 -0.0322
  208CHOL    R1 1863   0.246   2.780   8.012  0.1224 -0.0088  0.0800
  208CHOL    R2 1864   0.435   2.611   7.902 -0.2328 -0.3840  0.0369
  208CHOL    R3 1865   0.296   2.658   7.673 -0.0406  0.1137  0.0081
  208CHOL    R4 1866   0.529   2.501   7.588 -0.3995 -0.4817  0.0194
  208CHOL    R5 1867   0.465   2.693   7.507  0.1349 -0.2463  0.0910
  208CHOL    C1 1868   0.453   2.481   7.190 -0.3161 -0.0713 -0.0177
  208CHOL    C2 1869   0.576   2.220   6.881  0.0974  0.2965  0.1013
  209PNCE   AM1 1870   9.439   8.473   8.812 -0.3445  0.0751 -0.3219
  209PNCE   AM2 1871   9.220   8.735   8.816  0.0167  0.1595  0.0763
  209PNCE   T1A 1872   9.521   8.296   8.404 -0.1842 -0.2005 -0.1101
  209PNCE   C2A 1873   9.353   7.967   8.161  0.0678  0.1908  0.1410
  209PNCE   C3A 1874   9.418   7.672   7.783  0.1882 -0.2499 -0.1831
  209PNCE   C1B 1875   9.087   8.703   8.382 -0.1201 -0.0599 -0.1670
  209PNCE   C2B 1876   9.037   8.936   8.019 -0.1409  0.1204  0.0644
  209PNCE   C3B 1877   9.022   8.947   7.581  0.2947  0.2416 -0.0637
  209PNCE   D4B 1878   8.995   8.950   7.131 -0.2400 -0.0236 -0.0113
  209PNCE   C5B 1879   9.170   8.594   6.968 -0.0129 -0.0274  0.2313
  209PNCE   C6B 1880   8.986   8.429   6.631 -0.0582 -0.0168 -0.0802
  210CHOL   ROH 1881   0.941   4.482   5.900  0.2010  0.1660  0.0547
  210CHOL    R1 1882   1.197   4.399   5.987  0.1228 -0.0907  0.0471
  210CHOL    R2 1883   1.251   4.330   6.249  0.0471 -0.2044  0.0308
  210CHOL    R3 1884   1.342   4.100   6.136 -0.1546 -0.2630 -0.0193
  210CHOL    R4 1885   1.390   4.066   6.423  0.2115 -0.1809 -0.0622
  210CHOL    R5 1886   1.537   4.045   6.263  0.0027 -0.2671 -0.2517
  210CHOL    C1 1887   1.558   3.697   6.419  0.1179 -0.2224 -0.1634
  210CHOL    C2 1888   1.742   3.589   6.718 -0.0635  0.1439  0.2657
  211PNCE   AM1 1889   7.462   1.838   8.179 -0.0879 -0.1699  0.3610
  211PNCE   AM2 1890   7.271   2.156   8.348 -0.5046 -0.1096 -0.1141
  211PNCE   T1A 1891   7.361   1.670   7.874 -0.1511  0.3616 -0.1544
  211PNCE   C2A 1892   7.582   1.549   7.449  0.1771 -0.1117 -0.0293
  211PNCE   C3A 1893   7.797   1.653   7.066 -0.0394 -0.2715 -0.1333
  211PNCE   C1B 1894   7.283   2.209   7.880 -0.1608 -0.2777 -0.0280
  211PNCE   C2B 1895   7.107   2.057   7.510  0.2439  0.1336 -0.1310
  211PNCE   C3B 1896   6.933   2.143   7.070 -0.2762  0.2002  0.1327
  211PNCE   D4B 1897   7.069   2.237   6.703  0.0957 -0.0935 -0.4343
  211PNCE   C5B 1898   7.014   2.625   6.437 -0.4678  0.1692  0.0100
  211PNCE   C6B 1899   7.168   3.006   6.261 -0.1591  0.1580 -0.2434
  212CHOL   ROH 1900   0.632  11.468   7.080 -0.0653  0.0713 -0.1168
  212CHOL    R1 1901   0.378  11.579   7.020 -0.0422  0.1094 -0.1445
  212CHOL    R2 1902   0.262  11.777   7.173 -0.0742  0.0547 -0.0979
  212CHOL    R3 1903   0.246  11.907   6.935  0.0001  0.1510 -0.0509
  212CHOL    R4 1904   0.020  12.009   7.091 -0.2056 -0.1064 -0.1722
  212CHOL    R5 1905   0.011  11.922   6.891  0.0178 -0.0235 -0.2212
  212CHOL    C1 1906  -0.136  12.267   6.820 -0.2123 -0.1099 -0.1713
  212CHOL    C2 1907  -0.483  12.356   6.745  0.3702  0.0931 -0.2092
  213PNCE   AM1 1908   6.615   0.178   8.369  0.1173  0.1305 -0.0723
  213PNCE   AM2 1909   6.800   0.252   8.163  0.1569  0.4431  0.0023
  213PNCE   T1A 1910   6.574  -0.215   8.198 -0.1244  0.1019 -0.0486
  213PNCE   C2A 1911   6.641  -0.514   7.991  0.0560  0.2128 -0.0641
  213PNCE   C3A 1912   6.817  -0.928   8.095 -0.2171 -0.2029  0.0942
  213PNCE   C1B 1913   6.839   0.413   7.727 -0.1625  0.1723 -0.0745
  213PNCE   C2B 1914   6.778   0.448   7.253 -0.0288  0.1415  0.1925
  213PNCE   C3B 1915   6.881   0.457   6.857 -0.0509 -0.1617  0.0466
  213PNCE   D4B 1916   6.724   0.709   6.448 -0.0690 -0.0833  0.3376
  213PNCE   C5B 1917   6.839   0.891   6.103  0.1927 -0.1261 -0.0052
  213PNCE   C6B 1918   6.692   0.810   5.752 -0.2596 -0.1280 -0.0784
  214CHOL   ROH 1919   2.757  12.132   7.243 -0.0697  0.2199  0.2324
  214CHOL    R1 1920   2.480  12.150   7.191 -0.0594  0.2076  0.1706
  214CHOL    R2 1921   2.314  11.929   7.190 -0.0205  0.1756 -0.0398
  214CHOL    R3 1922   2.172  12.074   7.371 -0.0940  0.0159  0.0331
  214CHOL    R4 1923   2.013  11.832   7.329  0.0457 -0.0594 -0.0556
  214CHOL    R5 1924   1.944  12.038   7.310 -0.0770 -0.0924  0.0370
  214CHOL    C1 1925   1.704  11.913   7.579  0.0154 -0.3460  0.0038
  214CHOL    C2 1926   1.363  11.826   7.668  0.1744 -0.2953 -0.3094
  215CHOL   ROH 1927  13.443   4.157   8.136  0.2188  0.0311 -0.0573
  215CHOL    R1 1928  13.422   3.971   7.924  0.1116 -0.0259  0.0031
  215CHOL    R2 1929  13.188   3.933   7.783  0.0929  0.0705  0.0133
  215CHOL    R3 1930  13.346   3.985   7.568  0.1281 -0.0978 -0.0042
  215CHOL    R4 1931  13.075   3.965   7.457  0.0446  0.4501  0.0629
  215CHOL    R5 1932  13.251   3.855   7.391 -0.1666  0.1629 -0.0493
  215CHOL    C1 1933  13.159   4.033   7.067  0.0495  0.5131  0.0754
  215CHOL    C2 1934  13.209   3.888   6.767 -0.0910 -0.1787 -0.1530
  216PNCE   AM1 1935   3.830   2.217   8.671 -0.1175 -0.1358 -0.0298
  216PNCE   AM2 1936   3.413   2.092   8.807 -0.0944 -0.2676 -0.1620
  216PNCE   T1A 1937   3.794   2.135   8.209 -0.0459  0.2023  0.0396
  216PNCE   C2A 1938   3.635   2.038   7.802  0.0087  0.0373 -0.0772
  216PNCE   C3A 1939   3.633   2.046   7.364  0.2356  0.1024  0.3215
  216PNCE   C1B 1940   3.273   1.847   8.471 -0.2792  0.1344  0.0303
  216PNCE   C2B 1941   3.426   1.662   8.128 -0.0349 -0.1362  0.0194
  216PNCE   C3B 1942   3.740   1.509   7.833  0.3457 -0.0187  0.0546
  216PNCE   D4B 1943   4.036   1.814   7.520 -0.3869 -0.0778 -0.1230
  216PNCE   C5B 1944   4.087   1.948   6.995 -0.0392  0.1427  0.0487
  216PNCE   C6B 1945   3.901   2.222   6.783 -0.2796  0.0991  0.2909
  217PNCE   AM1 1946  11.621   6.091   8.689 -0.3244  0.0729  0.3859
  217PNCE   AM2 1947  11.315   6.284   8.470 -0.1958  0.0618  0.2648
  217PNCE   T1A 1948  11.616   5.838   8.240 -0.2962 -0.0929  0.1851
  217PNCE   C2A 1949  11.778   5.738   7.822  0.1807 -0.2669  0.2502
  217PNCE   C3A 1950  11.848   5.524   7.439 -0.0105  0.1456  0.1298
  217PNCE   C1B 1951  11.429   6.408   8.093 -0.4997  0.1199 -0.1753
  217PNCE   C2B 1952  11.419   6.863   7.883  0.1097 -0.0492 -0.2879
  217PNCE   C3B 1953  11.427   7.263   8.113  0.3175 -0.0936 -0.2320
  217PNCE   D4B 1954  11.553   7.547   8.476  0.0865  0.2630  0.2382
  217PNCE   C5B 1955  12.035   7.710   8.568  0.1188  0.2377  0.2496
  217PNCE   C6B 1956  12.172   8.025   8.276 -0.0336 -0.0734  0.1180
  218PNCE   AM1 1957   7.265   4.083   7.669 -0.2806  0.1119  0.2358
  218PNCE   AM2 1958   7.169   4.442   7.609  0.2194  0.0046 -0.0114
  218PNCE   T1A 1959   6.958   3.872   7.228  0.4089 -0.1239 -0.3819
  218PNCE   C2A 1960   6.773   3.878   6.788  0.2270 -0.2061 -0.0065
  218PNCE   C3A 1961   6.651   3.822   6.350 -0.2177  0.1026  0.3794
  218PNCE   C1B 1962   7.198   4.311   7.157  0.2192 -0.4428  0.0101
  218PNCE   C2B 1963   7.256   4.078   6.842 -0.1011  0.2046 -0.2663
  218PNCE   C3B 1964   7.117   3.802   6.451 -0.0965  0.4180  0.0985
  218PNCE   D4B 1965   7.053   3.689   6.040  0.0183  0.0246 -0.2353
  218PNCE   C5B 1966   6.874   3.375   5.726 -0.2349  0.0375  0.0866
  218PNCE   C6B 1967   6.679   3.058   5.481  0.1496 -0.1611  0.0506
  219CHOL   ROH 1968   6.137   1.384   8.215 -0.1472  0.1517 -0.1141
  219CHOL    R1 1969   6.154   1.418   7.934  0.1230  0.1945 -0.0956
  219CHOL    R2 1970   6.372   1.534   7.811  0.3780 -0.0543  0.1047
  219CHOL    R3 1971   6.374   1.303   7.667  0.1978 -0.0275  0.0586
  219CHOL    R4 1972   6.490   1.504   7.487  0.0822 -0.0204 -0.0082
  219CHOL    R5 1973   6.321   1.372   7.444  0.0130  0.0260  0.1172
  219CHOL    C1 1974   6.559   1.270   7.164 -0.2593  0.0246 -0.1173
  219CHOL    C2 1975   6.450   1.290   6.763  0.3789 -0.2759  0.0206
  220PNCE   AM1 1976  11.109  12.357   8.796  0.0400  0.0950 -0.0141
  220PNCE   AM2 1977  11.380  12.247   8.821  0.1644  0.2559  0.2217
  220PNCE   T1A 1978  10.914  12.542   8.403  0.2850  0.1311 -0.1408
  220PNCE   C2A 1979  10.759  12.665   7.948  0.0466  0.1172  0.1048
  220PNCE   C3A 1980  10.351  12.554   7.672 -0.2737 -0.1110 -0.0643
  220PNCE   C1B 1981  11.604  12.218   8.456  0.1860  0.1312 -0.2069
  220PNCE   C2B 1982  11.993  12.108   8.250  0.1161  0.1585 -0.4583
  220PNCE   C3B 1983  12.273  11.987   8.010  0.0238  0.1586  0.0309
  220PNCE   D4B 1984  12.642  12.107   7.821  0.0652  0.2254  0.0422
  220PNCE   C5B 1985  12.844  11.767   7.507 -0.0096 -0.2399 -0.4030
  220PNCE   C6B 1986  12.974  11.449   7.297 -0.1386  0.3555  0.1809
  221CHOL   ROH 1987   9.175  13.654   7.844  0.1675 -0.0692 -0.0653
  221CHOL    R1 1988   9.106  13.644   7.570  0.0745 -0.0331 -0.0431
  221CHOL    R2 1989   8.962  13.435   7.460  0.0348 -0.0140 -0.0193
  221CHOL    R3 1990   8.800  13.636   7.375  0.0083 -0.0020  0.0568
  221CHOL    R4 1991   8.745  13.413   7.192  0.1063  0.0816 -0.0865
  221CHOL    R5 1992   8.801  13.616   7.136  0.0738  0.1315  0.0423
  221CHOL    C1 1993   8.466  13.588   6.956  0.1231  0.1487 -0.0542
  221CHOL    C2 1994   8.166  13.504   6.758  0.1765 -0.0761  0.0343
  222CHOL   ROH 1995  15.726   9.139   7.180  0.1620 -0.0146  0.0544
  222CHOL    R1 1996  15.515   9.199   7.001  0.1037 -0.0212  0.1211
  222CHOL    R2 1997  15.407   9.452   6.978  0.2579  0.0308 -0.0208
  222CHOL    R3 1998  15.466   9.418   6.714  0.0910 -0.2172 -0.0296
  222CHOL    R4 1999  15.250   9.617   6.718  0.3061  0.0269 -0.0532
  222CHOL    R5 2000  15.253   9.431   6.604  0.0448 -0.0607  0.0708
  222CHOL    C1 2001  15.213   9.681   6.319  0.1777 -0.2083 -0.0803
  222CHOL    C2 2002  15.077   9.845   6.022 -0.1565 -0.0285 -0.0759
  223PNCE   AM1 2003   3.619   5.459   8.403  0.1091  0.0837 -0.1250
  223PNCE   AM2 2004   3.453   5.146   8.284  0.1005 -0.2947  0.1335
  223PNCE   T1A 2005   3.661   5.765   8.094  0.0679 -0.0017  0.0129
  223PNCE   C2A 2006   3.594   5.954   7.741  0.3730 -0.1470 -0.0529
  223PNCE   C3A 2007   3.476   6.023   7.391 -0.0564 -0.2306 -0.0545
  223PNCE   C1B 2008   3.281   4.928   7.947 -0.6241  0.3347  0.1995
  223PNCE   C2B 2009   3.032   4.744   7.568 -0.0674 -0.0038 -0.2513
  223PNCE   C3B 2010   2.879   4.661   7.202 -0.1629  0.0113 -0.3315
  223PNCE   D4B 2011   2.624   4.825   6.859  0.2878 -0.1441 -0.1260
  223PNCE   C5B 2012   2.257   4.599   6.604  0.1455 -0.2513 -0.0718
  223PNCE   C6B 2013   2.068   4.377   6.378 -0.0987  0.0364 -0.2317
  224XCA    COO 2014  11.974  12.489   8.609 -0.1008  0.2244  0.0239
  224XCA     C1 2015  11.793  12.550   8.168 -0.0730 -0.4753  0.0310
  224XCA     C2 2016  11.711  12.666   7.710  0.0846  0.0608  0.1081
  224XCA     C3 2017  11.741  12.452   7.289  0.0302  0.0293 -0.1714
  224XCA     C4 2018  11.959  12.271   7.010 -0.0785  0.0779  0.1173
  224XCA     C5 2019  12.255  12.337   6.774  0.2043 -0.0244 -0.2597
  224XCA     C6 2020  12.689  12.243   6.651 -0.2452  0.0983 -0.1825
  225CHOL   ROH 2021  14.724   0.404   8.530  0.0152  0.2154 -0.1721
  225CHOL    R1 2022  14.788   0.236   8.312  0.1210  0.0408 -0.0099
  225CHOL    R2 2023  14.785   0.324   8.050 -0.1110 -0.2603 -0.1150
  225CHOL    R3 2024  15.039   0.229   8.049  0.0100  0.0522 -0.1168
  225CHOL    R4 2025  14.958   0.227   7.767 -0.1659 -0.4847 -0.0731
  225CHOL    R5 2026  15.038   0.059   7.880  0.1136 -0.2159  0.1445
  225CHOL    C1 2027  15.297   0.081   7.601 -0.0844 -0.3220 -0.0503
  225CHOL    C2 2028  15.392  -0.084   7.356  0.1153 -0.1711  0.1461
  226PNCE   AM1 2029  12.865   5.251   8.618  0.1938  0.0134 -0.0142
  226PNCE   AM2 2030  12.673   5.480   8.773  0.1136 -0.0634  0.0098
  226PNCE   T1A 2031  12.975   5.254   8.203  0.0611 -0.1497 -0.0315
  226PNCE   C2A 2032  13.016   5.332   7.765 -0.0037  0.1065 -0.3921
  226PNCE   C3A 2033  13.160   5.453   7.384 -0.0318  0.0985  0.0628
  226PNCE   C1B 2034  12.584   5.598   8.299 -0.0189 -0.0170 -0.2595
  226PNCE   C2B 2035  12.512   5.280   7.951 -0.0208 -0.1600  0.0494
  226PNCE   C3B 2036  12.590   5.270   7.484 -0.1096  0.1458  0.1766
  226PNCE   D4B 2037  12.444   5.244   7.047  0.2586 -0.3098  0.1749
  226PNCE   C5B 2038  12.022   5.355   6.872 -0.0043  0.1383 -0.0475
  226PNCE   C6B 2039  11.896   5.219   6.556  0.2093 -0.1814  0.2103
  227XCA    COO 2040   3.343   3.135   8.782  0.0351 -0.1331  0.0409
  227XCA     C1 2041   2.960   3.267   8.708  0.0827  0.0466  0.0212
  227XCA     C2 2042   2.814   3.210   8.307 -0.0414 -0.1037  0.0556
  227XCA     C3 2043   2.627   3.248   7.831 -0.0078  0.1595 -0.1964
  227XCA     C4 2044   2.360   3.222   7.402 -0.2367  0.1131  0.2399
  227XCA     C5 2045   2.089   3.516   7.127  0.4291  0.2376  0.0624
  227XCA     C6 2046   2.189   3.883   6.901 -0.1177  0.4396  0.3687
  228PNCE   AM1 2047   8.130   9.018   8.676 -0.1409 -0.0062 -0.2802
  228PNCE   AM2 2048   7.946   8.684   8.699 -0.1105 -0.1546  0.0008
  228PNCE   T1A 2049   8.080   9.093   8.143 -0.3963 -0.1263  0.0702
  228PNCE   C2A 2050   8.009   9.131   7.631  0.3434 -0.0515 -0.0657
  228PNCE   C3A 2051   7.920   8.906   7.331 -0.1737 -0.0680 -0.0130
  228PNCE   C1B 2052   7.715   8.547   8.286  0.2467  0.0578  0.2605
  228PNCE   C2B 2053   7.654   8.555   7.837 -0.0047 -0.1051  0.0850
  228PNCE   C3B 2054   7.468   8.867   7.565 -0.0859 -0.3964 -0.2035
  228PNCE   D4B 2055   7.513   8.849   7.100  0.2209 -0.0234  0.1852
  228PNCE   C5B 2056   7.713   9.113   6.801 -0.0403  0.1891  0.1537
  228PNCE   C6B 2057   7.906   9.420   6.662 -0.1162  0.2110 -0.3379
  229CHOL   ROH 2058   3.706   2.728   7.960  0.2037 -0.2033  0.0439
  229CHOL    R1 2059   3.725   2.590   7.714 -0.0816 -0.1917  0.0133
  229CHOL    R2 2060   3.502   2.498   7.578 -0.2753  0.2449  0.0227
  229CHOL    R3 2061   3.608   2.642   7.373 -0.0327  0.0934  0.0365
  229CHOL    R4 2062   3.417   2.462   7.244 -0.0682  0.1630 -0.0231
  229CHOL    R5 2063   3.627   2.486   7.193 -0.0097  0.0022  0.1133
  229CHOL    C1 2064   3.467   2.577   6.859  0.2801 -0.0270 -0.0368
  229CHOL    C2 2065   3.340   2.396   6.540 -0.0620  0.4278  0.0943
  230XCA    COO 2066   6.874  12.923   5.588 -0.3826  0.0016  0.1640
  230XCA     C1 2067   7.152  12.675   5.936 -0.3845 -0.1927 -0.0312
  230XCA     C2 2068   7.367  12.820   6.206 -0.0485 -0.2051  0.0218
  230XCA     C3 2069   7.540  12.673   6.600  0.1613  0.0787  0.3759
  230XCA     C4 2070   7.891  12.342   6.897  0.1170  0.1352 -0.1244
  230XCA     C5 2071   7.901  12.078   7.216 -0.1517 -0.1150  0.0723
  230XCA     C6 2072   7.728  11.722   7.217 -0.0359 -0.0766  0.3169
  231CHOL   ROH 2073   5.710   8.736   9.095 -0.0780  0.1205  0.0471
  231CHOL    R1 2074   5.795   8.905   8.884 -0.0602  0.1412  0.0710
  231CHOL    R2 2075   5.738   8.852   8.619 -0.0568  0.1792  0.0638
  231CHOL    R3 2076   5.636   9.104   8.624 -0.0383  0.1864  0.0914
  231CHOL    R4 2077   5.714   9.062   8.345 -0.0397  0.2088  0.0848
  231CHOL    R5 2078   5.774   9.228   8.473 -0.0271  0.1917  0.1041
  231CHOL    C1 2079   5.605   9.420   8.191 -0.0123  0.2327  0.1229
  231CHOL    C2 2080   5.512   9.565   7.873 -0.0328  0.0906  0.4227
  232PNCE   AM1 2081   0.369   6.258   8.459  0.0434 -0.2355 -0.0181
  232PNCE   AM2 2082   0.590   6.199   8.181  0.0028 -0.4014  0.3104
  232PNCE   T1A 2083   0.199   6.601   8.174  0.0304 -0.1100 -0.3237
  232PNCE   C2A 2084   0.009   6.720   7.792  0.1844  0.1721 -0.3727
  232PNCE   C3A 2085  -0.289   6.817   7.501  0.0152  0.0727  0.0441
  232PNCE   C1B 2086   0.414   6.195   7.779  0.0723  0.0388  0.0299
  232PNCE   C2B 2087   0.412   6.576   7.562  0.1952 -0.3537 -0.2624
  232PNCE   C3B 2088   0.370   6.692   7.084 -0.0016 -0.0878  0.3927
  232PNCE   D4B 2089   0.189   6.884   6.695  0.0825  0.2037  0.0194
  232PNCE   C5B 2090   0.189   7.107   6.427 -0.5174  0.0380 -0.1238
  232PNCE   C6B 2091   0.139   7.485   6.399 -0.1696 -0.0680  0.1105
  233PNCE   AM1 2092   2.260   0.188   9.156 -0.0872  0.1240  0.2231
  233PNCE   AM2 2093   2.343  -0.166   9.238  0.0029  0.0163 -0.1256
  233PNCE   T1A 2094   2.623   0.154   8.800  0.2463 -0.0891  0.2394
  233PNCE   C2A 2095   2.998   0.217   8.514  0.5017 -0.2537  0.1433
  233PNCE   C3A 2096   3.391   0.013   8.332  0.1629  0.0645 -0.2473
  233PNCE   C1B 2097   2.257  -0.329   8.864 -0.1071 -0.2152  0.1136
  233PNCE   C2B 2098   2.542  -0.549   8.489 -0.2755 -0.2367 -0.1285
  233PNCE   C3B 2099   2.810  -0.265   8.324  0.2367 -0.2461 -0.1445
  233PNCE   D4B 2100   2.798   0.090   7.997 -0.0522 -0.0474 -0.2222
  233PNCE   C5B 2101   2.542   0.410   8.071  0.0969  0.1238  0.1214
  233PNCE   C6B 2102   2.385   0.600   7.703 -0.3468  0.1301  0.0531
  234CHOL   ROH 2103   7.141  13.666   8.752  0.1505  0.3436  0.1291
  234CHOL    R1 2104   7.059  13.590   8.492  0.1238  0.1565  0.1894
  234CHOL    R2 2105   6.996  13.775   8.296 -0.1090  0.0197  0.1247
  234CHOL    R3 2106   7.180  13.637   8.152 -0.0348  0.1175  0.1275
  234CHOL    R4 2107   6.995  13.744   7.952 -0.3036 -0.3020  0.1504
  234CHOL    R5 2108   7.054  13.536   7.975 -0.0277 -0.2059  0.3046
  234CHOL    C1 2109   7.168  13.597   7.616 -0.3473 -0.3975  0.1680
  234CHOL    C2 2110   7.320  13.418   7.328  0.2096 -0.1345  0.1252
  235PNCE   AM1 2111   6.188   9.035   9.504  0.0823 -0.0598  0.1032
  235PNCE   AM2 2112   5.999   9.275   9.454 -0.0970  0.1526  0.1186
  235PNCE   T1A 2113   6.184   8.751   9.139 -0.2360 -0.1362  0.0330
  235PNCE   C2A 2114   5.935   8.456   8.792 -0.2869  0.0288  0.2775
  235PNCE   C3A 2115   5.527   8.146   8.760 -0.2015  0.0261  0.0201
  235PNCE   C1B 2116   5.844   9.414   8.922  0.3047 -0.0084  0.2865
  235PNCE   C2B 2117   5.665   9.616   8.650 -0.2451  0.2107  0.0917
  235PNCE   C3B 2118   5.602   9.941   8.353 -0.6220 -0.0754 -0.2086
  235PNCE   D4B 2119   5.328  10.158   7.987 -0.2069 -0.0924  0.1928
  235PNCE   C5B 2120   5.619  10.305   7.657  0.0702  0.4441 -0.0451
  235PNCE   C6B 2121   5.668  10.554   7.334  0.4386  0.0706 -0.1961
  236XCA    COO 2122  15.728  15.054   5.348 -0.1051  0.0141  0.2438
  236XCA     C1 2123  15.950  15.131   5.666  0.0732 -0.1524 -0.2403
  236XCA     C2 2124  16.222  15.251   5.986 -0.0818  0.1108  0.0856
  236XCA     C3 2125  16.501  15.000   6.334 -0.0343 -0.1326  0.1781
  236XCA     C4 2126  16.463  14.674   6.591 -0.0116  0.1272  0.1862
  236XCA     C5 2127  16.847  14.486   6.942  0.1755  0.2774  0.1539
  236XCA     C6 2128  16.965  14.066   7.091 -0.3364 -0.1402 -0.1596
  237CHOL   ROH 2129   3.832   2.268   4.958  0.0662  0.0979  0.0151
  237CHOL    R1 2130   3.835   2.289   5.240  0.0618  0.1419  0.0123
  237CHOL    R2 2131   4.000   2.135   5.399 -0.0558  0.0499  0.0495
  237CHOL    R3 2132   4.078   2.376   5.497  0.1077  0.0126  0.0132
  237CHOL    R4 2133   4.104   2.192   5.724  0.0375  0.0188  0.0251
  237CHOL    R5 2134   3.993   2.380   5.721  0.1504  0.0855  0.0278
  237CHOL    C1 2135   4.238   2.453   6.004  0.2454 -0.0344 -0.0232
  237CHOL    C2 2136   4.282   2.485   6.460 -0.0307  0.1424  0.1922
  238CHOL   ROH 2137  13.194  15.304   4.630  0.0364 -0.0321 -0.0330
  238CHOL    R1 2138  13.021  15.309   4.853 -0.0335  0.0580 -0.0884
  238CHOL    R2 2139  13.108  15.258   5.111 -0.1591 -0.0760 -0.0718
  238CHOL    R3 2140  12.994  15.499   5.163  0.0229  0.0078 -0.0521
  238CHOL    R4 2141  12.997  15.361   5.421 -0.0358  0.0003 -0.0526
  238CHOL    R5 2142  12.824  15.450   5.325  0.0120  0.1275 -0.0254
  238CHOL    C1 2143  12.826  15.647   5.651  0.2070  0.1234 -0.0229
  238CHOL    C2 2144  12.966  15.741   5.890 -0.0542 -0.1450 -0.3108
  239CHOL   ROH 2145  12.394   7.848   6.202  0.0396 -0.0339  0.0534
  239CHOL    R1 2146  12.167   7.739   6.071  0.0115 -0.0404  0.1092
  239CHOL    R2 2147  11.910   7.778   6.164  0.0117  0.2172 -0.0034
  239CHOL    R3 2148  11.867   7.869   5.911  0.1322 -0.0344 -0.1189
  239CHOL    R4 2149  11.600   7.799   6.011  0.0226  0.4812  0.0045
  239CHOL    R5 2150  11.693   7.728   5.826 -0.0878  0.1068  0.0765
  239CHOL    C1 2151  11.380   7.896   5.685  0.1421  0.3987 -0.0993
  239CHOL    C2 2152  11.032   7.894   5.570  0.2263 -0.1072 -0.1109
  240XCA    COO 2153   7.937   2.626   3.949  0.0371 -0.1249 -0.0937
  240XCA     C1 2154   8.253   2.710   4.321  0.3081  0.0740  0.4633
  240XCA     C2 2155   8.576   2.661   4.695 -0.2355  0.0401  0.4148
  240XCA     C3 2156   8.782   2.915   5.115  0.0256 -0.3049  0.2606
  240XCA     C4 2157   8.838   3.029   5.503  0.0682 -0.1722 -0.0039
  240XCA     C5 2158   9.184   2.927   5.645 -0.2157 -0.0497  0.1123
  240XCA     C6 2159   9.569   2.710   5.447 -0.1663 -0.2375 -0.3210
  241PNCE   AM1 2160   0.245   5.359   8.078 -0.1964 -0.0782  0.3286
  241PNCE   AM2 2161   0.562   5.492   8.255 -0.0580  0.1117 -0.3032
  241PNCE   T1A 2162   0.307   5.749   7.927  0.1408 -0.0239 -0.0394
  241PNCE   C2A 2163   0.216   5.840   7.460  0.1106  0.0813 -0.1119
  241PNCE   C3A 2164   0.130   5.948   7.081  0.3224  0.1517  0.0852
  241PNCE   C1B 2165   0.797   5.786   7.933 -0.3563  0.0144  0.1483
  241PNCE   C2B 2166   0.766   5.983   7.497  0.2125 -0.0725  0.2510
  241PNCE   C3B 2167   0.617   6.182   7.269 -0.0098 -0.0451  0.1312
  241PNCE   D4B 2168   0.497   6.266   6.914  0.0530 -0.2714 -0.1335
  241PNCE   C5B 2169   0.593   6.411   6.574 -0.3200  0.0973  0.3112
  241PNCE   C6B 2170   0.559   6.774   6.261  0.0296 -0.1430  0.0571
  242CHOL   ROH 2171   5.031   3.812   7.780  0.0615  0.0267  0.0237
  242CHOL    R1 2172   5.095   3.946   7.539 -0.0023  0.0867  0.0398
  242CHOL    R2 2173   5.244   3.829   7.338  0.0159  0.1659  0.0053
  242CHOL    R3 2174   5.031   3.897   7.184 -0.0204  0.1255  0.0380
  242CHOL    R4 2175   5.219   3.770   6.998 -0.0868  0.0368  0.0347
  242CHOL    R5 2176   5.127   3.966   6.976 -0.0738  0.0354 -0.0161
  242CHOL    C1 2177   5.003   3.800   6.656 -0.1807 -0.0763  0.0826
  242CHOL    C2 2178   5.180   4.101   6.498 -0.4267  0.0601  0.0942
  243XCA    COO 2179   7.700   4.613   4.447 -0.0030  0.0375 -0.2566
  243XCA     C1 2180   7.640   4.895   4.768  0.1715  0.1823  0.4037
  243XCA     C2 2181   7.350   5.093   5.021 -0.1176 -0.1867 -0.1466
  243XCA     C3 2182   6.967   5.200   5.364 -0.1292 -0.3256 -0.0173
  243XCA     C4 2183   6.847   5.175   5.841 -0.1527  0.0329  0.0098
  243XCA     C5 2184   7.043   5.529   6.149 -0.0339 -0.1660 -0.2800
  243XCA     C6 2185   7.155   5.543   6.516  0.2207 -0.0195 -0.4834
  244PNCE   AM1 2186   4.344   0.784   8.860  0.0512 -0.0868 -0.0446
  244PNCE   AM2 2187   4.345   1.078   8.950 -0.2114  0.0164  0.2221
  244PNCE   T1A 2188   4.132   0.921   8.495  0.1993  0.1646 -0.1184
  244PNCE   C2A 2189   4.097   0.990   8.108 -0.1913  0.0341 -0.1520
  244PNCE   C3A 2190   4.141   1.237   7.723  0.1180  0.1101  0.3053
  244PNCE   C1B 2191   4.654   1.124   8.548  0.1469 -0.2924 -0.1943
  244PNCE   C2B 2192   4.941   1.046   8.213  0.2015  0.0371 -0.1224
  244PNCE   C3B 2193   5.359   1.121   7.951 -0.1499  0.0050  0.1129
  244PNCE   D4B 2194   5.706   1.211   7.776  0.0336  0.0834  0.1197
  244PNCE   C5B 2195   5.879   1.208   7.427  0.3321  0.0280  0.0627
  244PNCE   C6B 2196   6.086   1.134   7.038 -0.1225  0.2781  0.0913
  245PNCE   AM1 2197   1.412   7.154   7.352 -0.0498 -0.0594  0.1379
  245PNCE   AM2 2198   1.590   7.450   7.370 -0.1938 -0.3205  0.0822
  245PNCE   T1A 2199   1.761   6.932   7.155  0.1104  0.0905  0.0407
  245PNCE   C2A 2200   1.999   6.718   6.936 -0.0798 -0.0851 -0.0474
  245PNCE   C3A 2201   2.260   6.377   6.960 -0.1584  0.0896 -0.3131
  245PNCE   C1B 2202   1.897   7.377   7.019  0.0181 -0.2703 -0.0207
  245PNCE   C2B 2203   2.356   7.150   6.775 -0.1857 -0.2255  0.1263
  245PNCE   C3B 2204   2.475   6.795   6.741  0.0454 -0.0870  0.0738
  245PNCE   D4B 2205   2.604   6.318   6.619  0.3887 -0.0921 -0.1093
  245PNCE   C5B 2206   2.713   6.086   7.051  0.2107 -0.2921  0.1115
  245PNCE   C6B 2207   2.929   6.220   7.415  0.0676  0.1552  0.1119
  246CHOL   ROH 2208  12.779  13.302   9.098 -0.2041  0.0252  0.1171
  246CHOL    R1 2209  12.897  13.316   8.841 -0.1429  0.0486  0.1470
  246CHOL    R2 2210  12.977  13.555   8.727  0.0439  0.0373  0.2621
  246CHOL    R3 2211  13.214  13.426   8.701 -0.0373 -0.1144  0.2518
  246CHOL    R4 2212  13.176  13.561   8.445  0.0861  0.0175  0.2907
  246CHOL    R5 2213  13.217  13.349   8.475 -0.0599 -0.0287  0.2176
  246CHOL    C1 2214  13.515  13.443   8.256  0.0346 -0.1363  0.2977
  246CHOL    C2 2215  13.743  13.482   7.972 -0.0043  0.1264  0.2021
  247XCA    COO 2216  15.226  14.221   5.141 -0.0635  0.2043 -0.3699
  247XCA     C1 2217  15.414  14.093   5.474 -0.0679 -0.1745 -0.3534
  247XCA     C2 2218  15.459  14.383   5.798  0.0571 -0.2454  0.0784
  247XCA     C3 2219  15.416  14.672   6.208 -0.3020 -0.0763  0.3708
  247XCA     C4 2220  15.350  14.641   6.614 -0.0554 -0.0140 -0.3430
  247XCA     C5 2221  15.376  14.623   7.027 -0.1389  0.2078 -0.0284
  247XCA     C6 2222  15.464  14.686   7.423 -0.2072  0.0423  0.1954
  248CHOL   ROH 2223   7.866   0.627   4.191 -0.2371  0.1138 -0.1270
  248CHOL    R1 2224   7.726   0.732   4.414 -0.1476  0.0817 -0.0535
  248CHOL    R2 2225   7.771   0.645   4.672 -0.0811  0.0043 -0.0853
  248CHOL    R3 2226   7.811   0.910   4.720 -0.0142 -0.0161 -0.0346
  248CHOL    R4 2227   7.688   0.808   4.965 -0.2163  0.0147 -0.1297
  248CHOL    R5 2228   7.620   0.977   4.846 -0.0709  0.0478 -0.1592
  248CHOL    C1 2229   7.678   1.150   5.181 -0.2322  0.0016 -0.1080
  248CHOL    C2 2230   7.510   1.139   5.454  0.3489  0.2433  0.0623
  249XCA    COO 2231   1.764   2.431   5.086 -0.3270  0.0266  0.1417
  249XCA     C1 2232   1.465   2.367   5.291 -0.1363 -0.0323 -0.1236
  249XCA     C2 2233   1.319   2.371   5.761  0.0001  0.0282 -0.0379
  249XCA     C3 2234   1.591   2.273   6.052  0.1544 -0.2594  0.1068
  249XCA     C4 2235   1.430   2.247   6.512  0.0375 -0.0683  0.1112
  249XCA     C5 2236   1.432   2.020   6.919  0.0824 -0.0091  0.1925
  249XCA     C6 2237   1.382   1.630   7.243  0.2244  0.3535 -0.1151
  250CHOL   ROH 2238   2.541   3.158   9.464  0.0529  0.1080  0.0958
  250CHOL    R1 2239   2.598   3.147   9.187  0.0063  0.0684  0.0880
  250CHOL    R2 2240   2.457   2.985   9.012 -0.0167  0.0369  0.1369
  250CHOL    R3 2241   2.420   3.218   8.878 -0.0484  0.0148  0.1069
  250CHOL    R4 2242   2.411   3.012   8.671 -0.0721 -0.0174  0.1397
  250CHOL    R5 2243   2.538   3.189   8.672 -0.0795 -0.0113  0.0925
  250CHOL    C1 2244   2.349   3.247   8.346 -0.1341 -0.0697  0.1131
  250CHOL    C2 2245   2.100   3.305   8.022 -0.2283  0.0590 -0.0437
  251XCA    COO 2246   1.962  13.419   8.858 -0.1590 -0.0384  0.1920
  251XCA     C1 2247   1.848  13.240   8.430 -0.0797  0.0017 -0.0678
  251XCA     C2 2248   1.951  13.284   7.995 -0.1915 -0.1014  0.1947
  251XCA     C3 2249   2.209  13.293   7.755 -0.2223 -0.3330  0.2979
  251XCA     C4 2250   2.419  13.450   7.425 -0.2211  0.1400 -0.2392
  251XCA     C5 2251   2.812  13.528   7.245  0.1539 -0.3120 -0.0404
  251XCA     C6 2252   3.307  13.415   7.140 -0.0085 -0.0418  0.0101
  252XCA    COO 2253   7.216   0.004   8.655  0.2764  0.0881 -0.0374
  252XCA     C1 2254   7.088  -0.215   8.316  0.2151  0.1114 -0.0586
  252XCA     C2 2255   6.979  -0.141   7.892 -0.0615 -0.1771  0.2445
  252XCA     C3 2256   6.761  -0.033   7.517  0.1375  0.2671 -0.1155
  252XCA     C4 2257   6.531   0.054   7.225  0.0435 -0.2254  0.1206
  252XCA     C5 2258   6.390  -0.078   6.866  0.0155  0.0593 -0.2634
  252XCA     C6 2259   6.274  -0.535   6.801 -0.0281 -0.0314  0.0102
  253PNCE   AM1 2260   1.011  11.170   8.657  0.0690  0.3294 -0.0371
  253PNCE   AM2 2261   1.079  11.444   8.875 -0.0637  0.0774 -0.0123
  253PNCE   T1A 2262   0.662  11.292   8.519 -0.2172 -0.2505  0.0348
  253PNCE   C2A 2263   0.206  11.439   8.316 -0.0617  0.0213  0.2640
  253PNCE   C3A 2264  -0.171  11.647   8.026  0.2406  0.0387  0.1437
  253PNCE   C1B 2265   0.940  11.741   8.554 -0.4133  0.3944 -0.0467
  253PNCE   C2B 2266   1.024  11.771   8.110 -0.3949 -0.1717 -0.3302
  253PNCE   C3B 2267   0.910  11.573   7.708  0.2972  0.1420  0.0505
  253PNCE   D4B 2268   0.979  11.669   7.339  0.2302 -0.3257 -0.0322
  253PNCE   C5B 2269   0.713  11.894   7.031  0.0456  0.2830 -0.1297
  253PNCE   C6B 2270   0.663  12.004   6.678 -0.0670  0.1591  0.0857
  254XCA    COO 2271  13.219   9.433   8.538  0.0760  0.2972  0.0226
  254XCA     C1 2272  13.077   8.978   8.480 -0.3008  0.2475  0.0248
  254XCA     C2 2273  12.935   8.682   8.222  0.4517 -0.1322 -0.1820
  254XCA     C3 2274  12.782   8.676   7.782 -0.2141  0.2501  0.0284
  254XCA     C4 2275  12.711   8.346   7.465  0.0578 -0.1951  0.0837
  254XCA     C5 2276  12.603   8.224   7.015 -0.0112  0.1980 -0.3107
  254XCA     C6 2277  12.417   8.114   6.611  0.2191 -0.1474  0.3285
  255CHOL   ROH 2278  10.653   1.820   4.507  0.2003 -0.0914  0.3673
  255CHOL    R1 2279  10.642   2.019   4.709  0.1945 -0.0795  0.3561
  255CHOL    R2 2280  10.867   2.115   4.836  0.2217  0.1499  0.1437
  255CHOL    R3 2281  10.770   2.356   4.756 -0.0801  0.0496  0.2007
  255CHOL    R4 2282  10.984   2.422   4.945  0.0202  0.2737  0.0147
  255CHOL    R5 2283  10.778   2.492   4.953 -0.0440  0.0754  0.1814
  255CHOL    C1 2284  10.960   2.826   4.933 -0.3804  0.2517 -0.0068
  255CHOL    C2 2285  11.210   2.780   5.201  0.2030 -0.2086  0.0743
  256PNCE   AM1 2286   5.674  12.385   9.378  0.0129 -0.1075  0.0038
  256PNCE   AM2 2287   5.659  12.017   9.240  0.1119  0.1227  0.2030
  256PNCE   T1A 2288   5.487  12.486   9.049 -0.2032  0.4928  0.4024
  256PNCE   C2A 2289   5.330  12.665   8.659  0.1548  0.1972  0.0371
  256PNCE   C3A 2290   5.289  12.761   8.288 -0.0490 -0.0642  0.3249
  256PNCE   C1B 2291   5.407  12.046   8.813 -0.0626 -0.1466  0.0886
  256PNCE   C2B 2292   5.459  12.241   8.477  0.0759 -0.5258  0.1575
  256PNCE   C3B 2293   5.479  12.356   8.013  0.2090  0.1319  0.1081
  256PNCE   D4B 2294   5.242  12.493   7.764 -0.0244 -0.0449 -0.1418
  256PNCE   C5B 2295   5.269  12.636   7.283 -0.0519  0.0209  0.0237
  256PNCE   C6B 2296   5.136  12.601   6.854 -0.0926 -0.0735  0.2821
  257PNCE   AM1 2297   3.914  13.178   9.109 -0.3226  0.2094 -0.0888
  257PNCE   AM2 2298   3.723  12.972   9.007 -0.1790 -0.3955  0.0388
  257PNCE   T1A 2299   4.186  12.815   9.047  0.3220  0.1321  0.1218
  257PNCE   C2A 2300   4.309  12.517   8.703 -0.0518 -0.1169 -0.1358
  257PNCE   C3A 2301   4.433  12.460   8.374 -0.1005 -0.3480 -0.1175
  257PNCE   C1B 2302   3.888  12.686   8.681  0.1695 -0.1424 -0.2771
  257PNCE   C2B 2303   3.961  12.576   8.260  0.0618 -0.2783  0.3093
  257PNCE   C3B 2304   3.969  12.821   7.949 -0.0361 -0.2784 -0.1911
  257PNCE   D4B 2305   4.160  13.211   7.883 -0.1251 -0.1131 -0.1188
  257PNCE   C5B 2306   4.091  13.375   8.183  0.1049  0.3738  0.4544
  257PNCE   C6B 2307   4.002  13.571   8.509 -0.1403  0.1089 -0.0983
  258PNCE   AM1 2308   9.743  13.632   8.022  0.0316 -0.1108  0.1584
  258PNCE   AM2 2309   9.708  13.801   7.753 -0.1297  0.0473 -0.1397
  258PNCE   T1A 2310  10.094  13.498   7.710 -0.1761  0.0415 -0.2787
  258PNCE   C2A 2311  10.229  13.645   7.208  0.0585 -0.2719  0.1714
  258PNCE   C3A 2312  10.279  13.578   6.755  0.1821  0.0758 -0.2341
  258PNCE   C1B 2313   9.639  13.712   7.407  0.0880  0.0599  0.3652
  258PNCE   C2B 2314   9.320  13.473   7.192 -0.0422  0.1470  0.2456
  258PNCE   C3B 2315   9.203  13.477   6.842  0.0200  0.1504 -0.1332
  258PNCE   D4B 2316   9.255  13.239   6.522  0.0535 -0.0945  0.1404
  258PNCE   C5B 2317   9.058  13.510   6.221 -0.2250  0.0893  0.4032
  258PNCE   C6B 2318   9.029  13.882   6.032  0.0179 -0.0617 -0.0007
  259CHOL   ROH 2319  14.689   6.654   4.492  0.2998 -0.0361  0.0556
  259CHOL    R1 2320  14.646   6.601   4.766  0.1173 -0.0019  0.0356
  259CHOL    R2 2321  14.824   6.679   4.963  0.1565 -0.2679  0.1154
  259CHOL    R3 2322  14.604   6.797   5.070  0.2751  0.0348  0.0335
  259CHOL    R4 2323  14.738   6.671   5.298 -0.0513 -0.2635  0.0629
  259CHOL    R5 2324  14.530   6.644   5.239 -0.0621  0.0830 -0.0660
  259CHOL    C1 2325  14.482   6.777   5.593 -0.0609  0.0232 -0.0445
  259CHOL    C2 2326  14.700   7.033   5.882 -0.1768 -0.0136 -0.3034
  260XCA    COO 2327   6.781  10.948   9.595  0.0370 -0.2579  0.0836
  260XCA     C1 2328   6.441  11.201   9.371 -0.2718  0.1120  0.2517
  260XCA     C2 2329   6.058  11.214   9.100  0.1366 -0.0357 -0.1120
  260XCA     C3 2330   5.956  11.289   8.651 -0.1985  0.1627 -0.1746
  260XCA     C4 2331   5.808  11.138   8.234  0.0786  0.0031 -0.2767
  260XCA     C5 2332   6.001  11.009   7.752 -0.0247 -0.1097  0.1355
  260XCA     C6 2333   6.103  11.334   7.595  0.3640 -0.0944  0.3283
  261PNCE   AM1 2334   4.968   7.149   8.676 -0.1491  0.2409  0.0547
  261PNCE   AM2 2335   4.981   7.346   8.864 -0.4755  0.0695  0.0955
  261PNCE   T1A 2336   5.230   7.366   8.372  0.2604 -0.1324  0.2093
  261PNCE   C2A 2337   5.623   7.393   8.042  0.1248 -0.2627  0.1416
  261PNCE   C3A 2338   5.686   7.152   7.611 -0.2124 -0.0602 -0.1781
  261PNCE   C1B 2339   5.180   7.654   8.789 -0.2808  0.3304  0.0704
  261PNCE   C2B 2340   5.174   7.849   8.366  0.0443  0.3572 -0.1742
  261PNCE   C3B 2341   5.318   7.932   7.913 -0.0479 -0.1660 -0.1574
  261PNCE   D4B 2342   5.145   8.037   7.593 -0.0626  0.1518  0.1126
  261PNCE   C5B 2343   5.373   8.053   7.191  0.0139  0.2215 -0.0990
  261PNCE   C6B 2344   5.519   8.103   6.724  0.2305 -0.4498  0.0878
  262CHOL   ROH 2345   9.233  14.621   7.585  0.1243 -0.1320 -0.1912
  262CHOL    R1 2346   9.175  14.639   7.309 -0.0319  0.0030 -0.1518
  262CHOL    R2 2347   9.107  14.418   7.157  0.1129  0.0369 -0.2708
  262CHOL    R3 2348   8.890  14.569   7.094 -0.0725 -0.1331 -0.0540
  262CHOL    R4 2349   8.942  14.408   6.853  0.0881  0.2290 -0.2645
  262CHOL    R5 2350   8.922  14.625   6.863 -0.1652  0.1975  0.0108
  262CHOL    C1 2351   8.642  14.544   6.617 -0.1005  0.1814 -0.0574
  262CHOL    C2 2352   8.749  14.671   6.130  0.1779 -0.3353 -0.1973
  263PNCE   AM1 2353  11.312   2.180   8.309  0.0589 -0.1195  0.0317
  263PNCE   AM2 2354  11.343   2.436   8.467  0.0385 -0.0905 -0.5694
  263PNCE   T1A 2355  11.464   2.003   7.920 -0.0877 -0.2768  0.0279
  263PNCE   C2A 2356  11.455   1.589   7.716 -0.0903  0.0434 -0.0704
  263PNCE   C3A 2357  11.798   1.629   7.533 -0.1554 -0.0090  0.1395
  263PNCE   C1B 2358  11.483   2.611   8.184 -0.0172  0.1430 -0.0043
  263PNCE   C2B 2359  11.706   2.399   7.862 -0.0953 -0.0601 -0.1138
  263PNCE   C3B 2360  11.840   2.150   7.495  0.1623 -0.2794 -0.2554
  263PNCE   D4B 2361  12.310   2.138   7.333 -0.0046  0.1165 -0.1901
  263PNCE   C5B 2362  12.453   1.967   6.973  0.1376 -0.2187 -0.1791
  263PNCE   C6B 2363  12.546   1.633   6.659 -0.3432 -0.0897  0.0108
  264CHOL   ROH 2364  14.122  12.225   5.302 -0.0045 -0.0946 -0.1245
  264CHOL    R1 2365  14.331  12.312   5.471  0.0714 -0.0041 -0.2631
  264CHOL    R2 2366  14.420  12.163   5.687  0.0644  0.1781 -0.1325
  264CHOL    R3 2367  14.662  12.192   5.566  0.0472 -0.0392 -0.2233
  264CHOL    R4 2368  14.724  12.083   5.830  0.0607  0.0829 -0.1769
  264CHOL    R5 2369  14.808  12.263   5.741  0.1427 -0.0205 -0.3104
  264CHOL    C1 2370  15.128  12.063   5.800  0.0423 -0.1766 -0.2880
  264CHOL    C2 2371  15.464  12.246   5.871  0.1705  0.1518  0.3155
  265XCA    COO 2372   6.442   4.105   4.498 -0.0158 -0.1081  0.1421
  265XCA     C1 2373   6.158   4.154   4.866  0.0676 -0.1883 -0.0154
  265XCA     C2 2374   5.863   4.044   5.219  0.0002 -0.0330  0.2026
  265XCA     C3 2375   5.604   3.946   5.514 -0.3969 -0.3627 -0.1345
  265XCA     C4 2376   5.497   4.112   5.807 -0.0638  0.0598 -0.0358
  265XCA     C5 2377   5.632   4.180   6.255 -0.2323 -0.0736 -0.0034
  265XCA     C6 2378   5.841   4.014   6.559  0.1459  0.0637 -0.1661
  266PNCE   AM1 2379  12.139   0.718   8.967 -0.1326  0.0093  0.2356
  266PNCE   AM2 2380  12.408   0.648   8.946 -0.1507 -0.0054  0.0756
  266PNCE   T1A 2381  12.096   0.379   8.594 -0.2771 -0.0072  0.3565
  266PNCE   C2A 2382  12.310   0.254   8.236  0.1249  0.1604  0.0402
  266PNCE   C3A 2383  12.242   0.042   7.832  0.0984 -0.2681 -0.1179
  266PNCE   C1B 2384  12.637   0.479   8.567  0.0096  0.3782  0.1317
  266PNCE   C2B 2385  12.777   0.476   8.182 -0.1572  0.1534  0.0034
  266PNCE   C3B 2386  13.098   0.566   7.884 -0.2348 -0.2947 -0.1809
  266PNCE   D4B 2387  13.083   0.359   7.401 -0.2826  0.0320 -0.0461
  266PNCE   C5B 2388  12.900   0.692   7.280 -0.2031 -0.2330 -0.0687
  266PNCE   C6B 2389  12.793   1.082   7.476  0.1306  0.0595  0.2128
  267PNCE   AM1 2390   5.126  10.625   9.940 -0.0008  0.0910  0.1191
  267PNCE   AM2 2391   4.852  10.501   9.808 -0.1818  0.2291  0.1620
  267PNCE   T1A 2392   5.218  10.947   9.733 -0.0910  0.2693 -0.4384
  267PNCE   C2A 2393   5.276  11.017   9.373  0.0215 -0.1293 -0.0763
  267PNCE   C3A 2394   5.118  10.843   8.932  0.3580  0.1542  0.1404
  267PNCE   C1B 2395   4.523  10.373   9.437  0.0139 -0.1700 -0.0839
  267PNCE   C2B 2396   4.090  10.400   9.088  0.0630 -0.1627 -0.0793
  267PNCE   C3B 2397   3.779  10.261   9.158  0.0704  0.1423 -0.2528
  267PNCE   D4B 2398   3.491   9.924   9.030  0.0523 -0.1177  0.4230
  267PNCE   C5B 2399   3.550   9.975   8.528  0.0421 -0.1610 -0.3611
  267PNCE   C6B 2400   3.529   9.790   8.250 -0.0043  0.1962 -0.1758
  268CHOL   ROH 2401   2.272   1.184   5.445  0.1691 -0.0066 -0.0792
  268CHOL    R1 2402   2.249   1.153   5.726  0.1967 -0.0409 -0.0823
  268CHOL    R2 2403   2.467   1.103   5.888  0.2321  0.1067 -0.0951
  268CHOL    R3 2404   2.377   1.322   6.022  0.0786  0.0319 -0.0699
  268CHOL    R4 2405   2.503   1.155   6.228  0.2308  0.0998 -0.0924
  268CHOL    R5 2406   2.300   1.236   6.232  0.1628 -0.0505 -0.0664
  268CHOL    C1 2407   2.439   1.392   6.551  0.0859  0.0255 -0.0671
  268CHOL    C2 2408   2.287   1.401   6.905 -0.1115  0.2790 -0.0171
  269XCA    COO 2409   5.246   4.973   4.179 -0.1180  0.0787  0.0929
  269XCA     C1 2410   4.890   4.864   4.529  0.1595  0.3818  0.3894
  269XCA     C2 2411   4.596   4.838   4.837 -0.2578 -0.4295  0.2707
  269XCA     C3 2412   4.641   5.265   5.073 -0.0768 -0.1764 -0.2517
  269XCA     C4 2413   4.514   5.348   5.476 -0.1453  0.2790 -0.1096
  269XCA     C5 2414   4.367   5.564   5.799 -0.0088  0.4979  0.1465
  269XCA     C6 2415   4.460   5.860   6.093  0.0644  0.0479  0.0126
  270CHOL   ROH 2416  14.564   4.328   7.782 -0.1678 -0.1339 -0.0913
  270CHOL    R1 2417  14.732   4.273   7.562 -0.0050  0.1160 -0.0311
  270CHOL    R2 2418  14.641   4.271   7.301  0.0684 -0.1060 -0.0479
  270CHOL    R3 2419  14.843   4.449   7.263 -0.2287  0.2482 -0.0415
  270CHOL    R4 2420  14.808   4.318   7.002  0.2589 -0.1280  0.0519
  270CHOL    R5 2421  14.994   4.336   7.115  0.1349  0.3554  0.2227
  270CHOL    C1 2422  15.095   4.512   6.792  0.0911  0.1917  0.1161
  270CHOL    C2 2423  14.983   4.548   6.361  0.1769 -0.0340 -0.2182
  271XCA    COO 2424   5.462   9.515   9.523 -0.2389  0.0378  0.0736
  271XCA     C1 2425   5.485   9.697   9.144  0.3942 -0.2168  0.3704
  271XCA     C2 2426   5.410  10.034   8.871  0.0214  0.1182  0.0421
  271XCA     C3 2427   5.288  10.255   8.533  0.0207 -0.0579 -0.3779
  271XCA     C4 2428   5.219  10.659   8.391  0.1900 -0.0468 -0.2209
  271XCA     C5 2429   5.482  10.990   8.571 -0.0293  0.1338  0.1124
  271XCA     C6 2430   5.614  11.075   8.951  0.0571  0.3823 -0.2172
  272PNCE   AM1 2431  12.785   0.005   8.787 -0.2421  0.2190 -0.3321
  272PNCE   AM2 2432  13.042  -0.107   8.953  0.1821 -0.0464 -0.2021
  272PNCE   T1A 2433  13.062   0.143   8.425  0.0088 -0.1931  0.0100
  272PNCE   C2A 2434  13.135   0.074   8.022  0.1067  0.0508 -0.0153
  272PNCE   C3A 2435  13.186  -0.104   7.587  0.0004  0.0078  0.0539
  272PNCE   C1B 2436  13.139  -0.321   8.604  0.3569 -0.3141 -0.1865
  272PNCE   C2B 2437  13.197  -0.494   8.172  0.3553 -0.0468  0.1827
  272PNCE   C3B 2438  13.022  -0.519   7.796  0.2782 -0.2676 -0.4818
  272PNCE   D4B 2439  13.076  -0.541   7.344 -0.0049  0.0635 -0.1839
  272PNCE   C5B 2440  12.824  -0.499   7.057 -0.2466  0.0428  0.1686
  272PNCE   C6B 2441  12.657  -0.561   6.725  0.0678  0.1461 -0.0697
  273CHOL   ROH 2442  11.133  11.325   4.591 -0.1205  0.3288  0.1025
  273CHOL    R1 2443  11.149  11.318   4.874 -0.1518  0.2809  0.1027
  273CHOL    R2 2444  11.001  11.487   5.035 -0.4594 -0.0032  0.1246
  273CHOL    R3 2445  10.920  11.254   5.150 -0.0927 -0.1723  0.0544
  273CHOL    R4 2446  10.988  11.428   5.376 -0.4424 -0.0962  0.1101
  273CHOL    R5 2447  11.065  11.228   5.339 -0.0880  0.0349  0.0839
  273CHOL    C1 2448  10.905  11.175   5.681 -0.0883 -0.3092  0.0357
  273CHOL    C2 2449  10.874  11.104   6.014 -0.1059 -0.1365  0.0253
  274CHOL   ROH 2450   0.055   8.047   4.252  0.0319 -0.4192 -0.1197
  274CHOL    R1 2451  -0.043   7.972   4.507  0.1545 -0.2319 -0.0171
  274CHOL    R2 2452   0.117   7.852   4.698  0.2514 -0.0609  0.0026
  274CHOL    R3 2453   0.030   8.057   4.853  0.2955  0.0471 -0.1108
  274CHOL    R4 2454   0.113   7.850   5.043  0.1881  0.1009  0.0051
  274CHOL    R5 2455  -0.081   7.950   5.036  0.2210  0.1697 -0.0786
  274CHOL    C1 2456   0.028   8.042   5.390  0.1927  0.2964 -0.0998
  274CHOL    C2 2457   0.042   7.847   5.705  0.2377  0.0383  0.1342
  275CHOL   ROH 2458   5.986   5.117   4.915 -0.1283 -0.0542  0.1027
  275CHOL    R1 2459   5.918   4.989   5.159 -0.2359  0.1304  0.1712
  275CHOL    R2 2460   6.108   4.916   5.346 -0.2475 -0.2854  0.0258
  275CHOL    R3 2461   5.951   5.062   5.514  0.2157  0.1059  0.1416
  275CHOL    R4 2462   6.106   4.887   5.691 -0.2506 -0.4873  0.0108
  275CHOL    R5 2463   5.890   4.908   5.687 -0.2128  0.1722  0.0634
  275CHOL    C1 2464   5.958   5.008   6.048  0.1824 -0.2374  0.1108
  275CHOL    C2 2465   6.196   5.033   6.427 -0.3461  0.2741  0.0843
  276PNCE   AM1 2466  15.437   7.397   8.383  0.3487  0.1302  0.1683
  276PNCE   AM2 2467  15.589   7.036   8.308  0.2906  0.0460 -0.1502
  276PNCE   T1A 2468  15.402   7.619   7.851 -0.2386  0.2544 -0.0654
  276PNCE   C2A 2469  15.782   7.788   7.613 -0.0580  0.0308  0.0218
  276PNCE   C3A 2470  16.033   7.660   7.291  0.0746 -0.0514  0.3480
  276PNCE   C1B 2471  15.428   7.133   7.846 -0.0251 -0.1245  0.0237
  276PNCE   C2B 2472  15.330   7.286   7.470  0.2163 -0.3104  0.3459
  276PNCE   C3B 2473  14.992   7.584   7.302  0.1474 -0.2046 -0.1174
  276PNCE   D4B 2474  14.921   7.951   7.037 -0.3443  0.0823  0.0227
  276PNCE   C5B 2475  15.045   8.305   7.300 -0.2389  0.0196 -0.2684
  276PNCE   C6B 2476  15.251   8.444   7.594  0.2613  0.3397 -0.3276
  277PNCE   AM1 2477   8.525  10.752   8.632 -0.5856  0.3718 -0.0995
  277PNCE   AM2 2478   8.372  10.519   8.587 -0.1433  0.1850  0.1429
  277PNCE   T1A 2479   8.476  10.676   8.143 -0.0664 -0.0899  0.3347
  277PNCE   C2A 2480   8.565  10.723   7.673  0.1222  0.1007  0.1133
  277PNCE   C3A 2481   8.604  10.940   7.378 -0.1194  0.0307  0.0639
  277PNCE   C1B 2482   7.960  10.733   8.600  0.1095 -0.0284  0.0030
  277PNCE   C2B 2483   7.612  10.870   8.190 -0.1528 -0.1721  0.2717
  277PNCE   C3B 2484   7.349  10.842   7.715  0.0163  0.0310  0.0700
  277PNCE   D4B 2485   7.241  10.756   7.297 -0.0727  0.0853  0.1546
  277PNCE   C5B 2486   7.405  10.792   7.009 -0.1918 -0.0052 -0.0045
  277PNCE   C6B 2487   7.679  10.757   6.568 -0.1952  0.1002 -0.1030
  278PNCE   AM1 2488   5.474   2.735   8.372  0.0001 -0.0231  0.2719
  278PNCE   AM2 2489   5.432   2.603   8.633  0.0539 -0.1069 -0.4088
  278PNCE   T1A 2490   5.450   2.597   7.940  0.1581  0.1182 -0.2402
  278PNCE   C2A 2491   5.308   2.556   7.512  0.0796  0.1518  0.3951
  278PNCE   C3A 2492   4.969   2.389   7.405  0.1896  0.1244 -0.0009
  278PNCE   C1B 2493   5.433   2.227   8.447 -0.1323  0.0126 -0.0326
  278PNCE   C2B 2494   5.374   2.012   8.002 -0.1141 -0.1349 -0.3118
  278PNCE   C3B 2495   5.211   2.038   7.645 -0.0699  0.0069 -0.0612
  278PNCE   D4B 2496   5.030   1.718   7.337  0.2705 -0.0714  0.0118
  278PNCE   C5B 2497   4.973   1.335   7.740 -0.1201  0.2263 -0.1516
  278PNCE   C6B 2498   4.999   0.891   7.576  0.1864  0.2307 -0.1887
  279CHOL   ROH 2499   5.794   2.882   7.993  0.0676  0.1147 -0.0821
  279CHOL    R1 2500   5.922   2.769   7.767  0.0988  0.1470 -0.0795
  279CHOL    R2 2501   5.797   2.587   7.601  0.2096 -0.0180  0.0260
  279CHOL    R3 2502   5.867   2.764   7.407 -0.0019 -0.0295 -0.0649
  279CHOL    R4 2503   5.843   2.507   7.268  0.3439 -0.1590  0.0766
  279CHOL    R5 2504   6.015   2.641   7.265  0.1784  0.0718  0.0218
  279CHOL    C1 2505   5.935   2.626   6.892  0.2236 -0.2518  0.0208
  279CHOL    C2 2506   5.945   2.365   6.600  0.3780  0.2040 -0.0470
  280PNCE   AM1 2507   9.478   3.806   8.356  0.0080  0.1771 -0.1605
  280PNCE   AM2 2508   9.078   3.660   8.361  0.2006 -0.2169  0.1115
  280PNCE   T1A 2509   9.731   3.886   7.848 -0.1407 -0.1714 -0.0908
  280PNCE   C2A 2510   9.711   4.071   7.439 -0.0095 -0.3425 -0.1194
  280PNCE   C3A 2511   9.658   4.291   7.104  0.0150 -0.2931 -0.2018
  280PNCE   C1B 2512   9.327   3.639   7.950  0.2155  0.1322  0.0760
  280PNCE   C2B 2513   9.344   3.780   7.533 -0.5073 -0.0277 -0.1492
  280PNCE   C3B 2514   9.385   3.907   7.105  0.1995  0.3830  0.1696
  280PNCE   D4B 2515   9.228   4.179   6.843 -0.1674  0.0023  0.1038
  280PNCE   C5B 2516   9.678   4.348   6.610  0.0087 -0.0681 -0.1412
  280PNCE   C6B 2517   9.613   4.653   6.227  0.1087 -0.2467  0.1481
  281XCA    COO 2518   2.988   2.868   9.201  0.1238  0.0141  0.0712
  281XCA     C1 2519   2.799   2.816   8.795 -0.0357 -0.1926  0.1105
  281XCA     C2 2520   2.426   2.539   8.569  0.0458 -0.5145  0.0245
  281XCA     C3 2521   2.395   2.354   8.196  0.1423 -0.1315  0.3133
  281XCA     C4 2522   2.669   2.331   7.853  0.0314  0.1569 -0.2844
  281XCA     C5 2523   2.660   2.397   7.525  0.3168  0.1745  0.1171
  281XCA     C6 2524   2.641   2.788   7.233  0.0301 -0.2399 -0.0078
  282CHOL   ROH 2525   2.353   6.307   5.202  0.0469 -0.0632  0.0118
  282CHOL    R1 2526   2.371   6.427   5.457  0.0002  0.0681 -0.0459
  282CHOL    R2 2527   2.217   6.646   5.529 -0.2037 -0.0538 -0.0980
  282CHOL    R3 2528   2.146   6.486   5.738  0.0210 -0.0385 -0.0066
  282CHOL    R4 2529   2.003   6.738   5.784  0.0635 -0.0397  0.1258
  282CHOL    R5 2530   2.134   6.635   5.925  0.2166 -0.0246 -0.0041
  282CHOL    C1 2531   1.811   6.642   6.128  0.4299 -0.0171  0.3417
  282CHOL    C2 2532   1.566   6.960   6.145  0.0609 -0.1435 -0.2877
  283CHOL   ROH 2533   9.272  13.022   6.059  0.5259 -0.0228  0.2368
  283CHOL    R1 2534   9.106  12.797   6.106  0.3316  0.0811  0.0663
  283CHOL    R2 2535   9.201  12.563   6.218  0.1079 -0.0511 -0.0091
  283CHOL    R3 2536   8.998  12.604   6.395  0.0739  0.0237 -0.0661
  283CHOL    R4 2537   9.115  12.347   6.474 -0.0637 -0.0320 -0.0501
  283CHOL    R5 2538   8.905  12.387   6.430 -0.0324  0.0631 -0.1088
  283CHOL    C1 2539   8.875  12.260   6.789 -0.1955  0.0493 -0.1274
  283CHOL    C2 2540   8.857  11.969   7.010  0.1234  0.1357  0.2568
  284CHOL   ROH 2541  10.094   3.244   6.299 -0.0212 -0.0025 -0.1212
  284CHOL    R1 2542  10.325   3.398   6.242 -0.0227  0.0103 -0.0901
  284CHOL    R2 2543  10.509   3.468   6.437  0.0018 -0.0722 -0.0862
  284CHOL    R3 2544  10.686   3.352   6.266 -0.0208 -0.0119 -0.1523
  284CHOL    R4 2545  10.850   3.526   6.436  0.0112 -0.1229 -0.0637
  284CHOL    R5 2546  10.844   3.524   6.218  0.0047 -0.0089 -0.0666
  284CHOL    C1 2547  11.214   3.450   6.275 -0.0047 -0.0958 -0.1126
  284CHOL    C2 2548  11.495   3.332   6.055  0.3116  0.2667 -0.1027
  285PNCE   AM1 2549   9.294  12.934   8.644 -0.0804 -0.0328 -0.2011
  285PNCE   AM2 2550   9.620  13.151   8.497  0.0725 -0.3978 -0.0478
  285PNCE   T1A 2551   9.192  12.879   8.285  0.1544 -0.4631 -0.0949
  285PNCE   C2A 2552   8.881  12.841   7.894 -0.0737 -0.4704 -0.1738
  285PNCE   C3A 2553   8.651  12.679   7.528  0.1651  0.1349  0.1303
  285PNCE   C1B 2554   9.608  13.144   8.076 -0.0142  0.1765  0.0611
  285PNCE   C2B 2555   9.959  12.875   7.808  0.4473 -0.1603 -0.2033
  285PNCE   C3B 2556   9.845  12.804   7.389  0.0284 -0.2205  0.0066
  285PNCE   D4B 2557   9.595  12.685   7.124 -0.3474 -0.3327 -0.4175
  285PNCE   C5B 2558   9.498  13.081   6.966  0.1321  0.2477 -0.3580
  285PNCE   C6B 2559   9.805  13.436   6.903 -0.0818 -0.0438  0.1808
  286CHOL   ROH 2560   0.312   3.636   8.310  0.0268  0.0573 -0.0466
  286CHOL    R1 2561   0.200   3.651   8.050 -0.0201  0.0064 -0.0298
  286CHOL    R2 2562   0.348   3.600   7.822 -0.0711 -0.0781 -0.0455
  286CHOL    R3 2563   0.148   3.423   7.772 -0.1096 -0.0596  0.0408
  286CHOL    R4 2564   0.260   3.486   7.508 -0.2358 -0.0521 -0.0095
  286CHOL    R5 2565   0.050   3.500   7.567 -0.2051 -0.0402  0.0941
  286CHOL    C1 2566   0.021   3.253   7.278 -0.3678 -0.0195  0.0924
  286CHOL    C2 2567   0.129   2.939   7.178  0.0636  0.2490  0.0505
  287PNCE   AM1 2568   3.314  13.865   8.767  0.0018 -0.2396  0.0864
  287PNCE   AM2 2569   2.974  14.063   8.859 -0.0675  0.1538  0.1921
  287PNCE   T1A 2570   3.386  14.059   8.365  0.1227  0.2021 -0.0156
  287PNCE   C2A 2571   3.570  14.154   8.033  0.0522  0.5847 -0.0489
  287PNCE   C3A 2572   3.675  14.559   7.890  0.2694 -0.0482 -0.5057
  287PNCE   C1B 2573   2.815  13.935   8.400  0.0221 -0.1170 -0.1383
  287PNCE   C2B 2574   2.772  13.923   7.918 -0.1338 -0.0113  0.0197
  287PNCE   C3B 2575   3.023  14.180   7.595  0.0588 -0.1200 -0.1415
  287PNCE   D4B 2576   3.403  14.349   7.459  0.2161 -0.0489  0.2576
  287PNCE   C5B 2577   3.856  14.280   7.178 -0.0817  0.2234 -0.1514
  287PNCE   C6B 2578   4.372  14.393   7.166 -0.0212  0.0805  0.2211
  288XCA    COO 2579   0.882   2.230   9.068 -0.0339  0.1626  0.0547
  288XCA     C1 2580   1.003   1.798   8.837  0.2086 -0.2001 -0.0028
  288XCA     C2 2581   0.924   1.470   8.541 -0.3226 -0.1041 -0.1527
  288XCA     C3 2582   0.915   1.252   8.169  0.0335  0.1937  0.1181
  288XCA     C4 2583   0.801   1.263   7.716 -0.0948 -0.2782 -0.1846
  288XCA     C5 2584   0.700   1.209   7.285  0.2815 -0.1745 -0.1888
  288XCA     C6 2585   0.466   0.990   7.058 -0.0059 -0.0271  0.1107
  289CHOL   ROH 2586  13.005  13.898   7.338  0.1120  0.0569 -0.0380
  289CHOL    R1 2587  12.960  13.619   7.327 -0.1341  0.0878  0.1172
  289CHOL    R2 2588  13.154  13.440   7.247 -0.4574 -0.0767 -0.3353
  289CHOL    R3 2589  13.098  13.322   7.486  0.0329  0.0098 -0.1659
  289CHOL    R4 2590  13.134  13.099   7.299 -0.4120 -0.0577 -0.1867
  289CHOL    R5 2591  12.962  13.134   7.429 -0.1352  0.0159  0.1820
  289CHOL    C1 2592  13.069  12.790   7.553  0.0748  0.0345  0.0588
  289CHOL    C2 2593  13.033  12.391   7.549  0.2548  0.2758  0.3837
  290PNCE   AM1 2594   4.147   9.518   9.637 -0.4031  0.0798  0.0290
  290PNCE   AM2 2595   4.326   9.911   9.577  0.0707  0.0572  0.1327
  290PNCE   T1A 2596   4.324   9.418   9.270  0.0212 -0.1429  0.3911
  290PNCE   C2A 2597   4.294   9.604   8.803 -0.0407 -0.0833  0.2774
  290PNCE   C3A 2598   4.421   9.799   8.428  0.0501  0.1636  0.0252
  290PNCE   C1B 2599   4.438   9.907   9.144 -0.3091  0.2979  0.0845
  290PNCE   C2B 2600   4.484  10.075   8.807  0.2220  0.1156  0.0332
  290PNCE   C3B 2601   4.781  10.215   8.397  0.2156 -0.0222 -0.2123
  290PNCE   D4B 2602   4.904  10.515   8.085 -0.0111 -0.1484  0.1719
  290PNCE   C5B 2603   4.690  10.664   7.686 -0.2207 -0.0657 -0.2067
  290PNCE   C6B 2604   4.372  10.717   7.419 -0.1695 -0.3949 -0.0522
  291XCA    COO 2605   0.832   5.427   4.171 -0.1356  0.1275 -0.0926
  291XCA     C1 2606   0.687   5.171   4.606  0.0067 -0.3168  0.2037
  291XCA     C2 2607   0.568   5.047   5.009  0.3253  0.1156 -0.0888
  291XCA     C3 2608   0.410   5.080   5.368 -0.3060 -0.0358  0.1908
  291XCA     C4 2609   0.257   5.036   5.767 -0.1499 -0.0811 -0.1673
  291XCA     C5 2610   0.021   5.420   5.822  0.4341  0.2200 -0.0802
  291XCA     C6 2611  -0.002   5.809   6.152  0.4580 -0.1750  0.0761
  292CHOL   ROH 2612   9.860   5.603   4.920 -0.1753 -0.0473 -0.1051
  292CHOL    R1 2613   9.856   5.614   5.203 -0.0900 -0.0514 -0.1033
  292CHOL    R2 2614   9.824   5.389   5.360 -0.0551 -0.0523 -0.0965
  292CHOL    R3 2615  10.054   5.476   5.475 -0.0156 -0.0663 -0.1646
  292CHOL    R4 2616   9.914   5.331   5.688 -0.1102  0.2110 -0.0330
  292CHOL    R5 2617   9.989   5.536   5.698  0.0001  0.1818 -0.2231
  292CHOL    C1 2618  10.182   5.380   5.988 -0.1052  0.3513 -0.0599
  292CHOL    C2 2619  10.433   5.282   6.198 -0.1029 -0.4085 -0.1752
  293CHOL   ROH 2620  14.313  15.274   5.542  0.2594  0.1360  0.0238
  293CHOL    R1 2621  14.193  15.186   5.783  0.3992  0.0303  0.0561
  293CHOL    R2 2622  14.276  15.273   6.032  0.3238  0.1837  0.0291
  293CHOL    R3 2623  14.014  15.338   6.061  0.2414 -0.1378  0.0484
  293CHOL    R4 2624  14.114  15.309   6.335  0.3284  0.0987  0.0422
  293CHOL    R5 2625  13.940  15.209   6.248  0.4381 -0.1578  0.1130
  293CHOL    C1 2626  13.773  15.392   6.538  0.2537 -0.2527  0.0679
  293CHOL    C2 2627  13.543  15.684   6.709 -0.1399 -0.1711 -0.1105
  294PNCE   AM1 2628  10.621   9.010   8.594 -0.2282  0.0396  0.0932
  294PNCE   AM2 2629  10.279   8.893   8.636  0.1516 -0.0225 -0.0364
  294PNCE   T1A 2630  11.003   8.961   8.473  0.2200 -0.1951 -0.3978
  294PNCE   C2A 2631  11.443   9.061   8.553  0.0464  0.0297 -0.0104
  294PNCE   C3A 2632  11.666   9.098   8.841  0.1925  0.0051 -0.0446
  294PNCE   C1B 2633  10.332   9.196   8.197 -0.2182 -0.3772  0.0455
  294PNCE   C2B 2634  10.084   9.363   7.848  0.0145  0.1375  0.0216
  294PNCE   C3B 2635  10.109   9.422   7.419 -0.0194  0.0097 -0.1835
  294PNCE   D4B 2636  10.164   9.499   6.966  0.0295  0.0763  0.4757
  294PNCE   C5B 2637  10.485   9.579   6.712  0.0802 -0.1194 -0.0524
  294PNCE   C6B 2638  10.525   9.531   6.240 -0.1188 -0.0157 -0.1338
  295CHOL   ROH 2639  10.103   2.002   4.382  0.2846 -0.2368  0.1373
  295CHOL    R1 2640  10.246   2.165   4.563  0.0551 -0.0000  0.1150
  295CHOL    R2 2641  10.124   2.304   4.767 -0.1586 -0.0654  0.0454
  295CHOL    R3 2642  10.305   2.173   4.922 -0.0388  0.1920  0.1246
  295CHOL    R4 2643  10.189   2.377   5.099 -0.3488  0.0586  0.0561
  295CHOL    R5 2644  10.402   2.346   5.059 -0.3007  0.3270  0.1328
  295CHOL    C1 2645  10.398   2.297   5.437 -0.3470  0.3723  0.1367
  295CHOL    C2 2646  10.381   2.234   5.969 -0.1883  0.1899  0.3037
  296PNCE   AM1 2647   2.442  14.665   5.412  0.1984 -0.1941  0.0766
  296PNCE   AM2 2648   2.435  14.369   5.378  0.1466  0.2148  0.0864
  296PNCE   T1A 2649   2.471  14.823   5.846 -0.1560  0.2564 -0.6302
  296PNCE   C2A 2650   2.707  14.732   6.243 -0.0583 -0.1451  0.0327
  296PNCE   C3A 2651   2.940  14.969   6.459 -0.1566 -0.0351  0.2046
  296PNCE   C1B 2652   2.352  14.362   5.952  0.2393 -0.0863 -0.2334
  296PNCE   C2B 2653   2.425  14.330   6.372  0.2016 -0.0648  0.0292
  296PNCE   C3B 2654   2.509  14.572   6.779  0.3459  0.2713  0.1190
  296PNCE   D4B 2655   2.790  14.825   6.971  0.0666  0.3238  0.0867
  296PNCE   C5B 2656   2.987  15.196   7.249 -0.2682  0.0753 -0.1208
  296PNCE   C6B 2657   3.265  15.155   7.466 -0.3043  0.1164 -0.1279
  297XCA    COO 2658   8.936  10.300   4.879 -0.1399 -0.0589  0.0017
  297XCA     C1 2659   9.146  10.268   5.286 -0.0638 -0.1225 -0.4723
  297XCA     C2 2660   9.167   9.962   5.648  0.1134 -0.0938  0.0036
  297XCA     C3 2661   9.307   9.657   5.811 -0.0367  0.0992 -0.0759
  297XCA     C4 2662   9.576   9.654   6.096 -0.0425 -0.0526 -0.1533
  297XCA     C5 2663   9.787   9.971   6.275  0.1105  0.2131 -0.1215
  297XCA     C6 2664   9.905  10.133   6.725  0.3951 -0.2744 -0.0494
  298CHOL   ROH 2665  12.204   5.612   4.192 -0.2141  0.2561  0.0604
  298CHOL    R1 2666  12.160   5.618   4.471  0.0423  0.0394  0.1115
  298CHOL    R2 2667  12.269   5.433   4.644  0.3332 -0.0071 -0.1086
  298CHOL    R3 2668  12.363   5.654   4.771  0.3033 -0.0253 -0.0566
  298CHOL    R4 2669  12.343   5.451   4.981  0.2510 -0.0441 -0.0891
  298CHOL    R5 2670  12.256   5.650   4.984  0.2540 -0.0479 -0.0854
  298CHOL    C1 2671  12.474   5.669   5.296  0.1750 -0.0827 -0.0290
  298CHOL    C2 2672  12.616   5.506   5.641  0.0021  0.0436 -0.0341
  299PNCE   AM1 2673   9.244   2.189   8.266  0.0196  0.0740 -0.1796
  299PNCE   AM2 2674   9.500   2.110   8.135  0.1441 -0.0864  0.0049
  299PNCE   T1A 2675   9.187   2.168   7.772 -0.0462 -0.2905  0.2422
  299PNCE   C2A 2676   9.065   1.924   7.368 -0.0637  0.1691  0.1079
  299PNCE   C3A 2677   8.908   1.653   6.984  0.2758  0.0106  0.0505
  299PNCE   C1B 2678   9.834   2.075   7.766  0.2804  0.2123 -0.2908
  299PNCE   C2B 2679   9.992   2.156   7.308 -0.0420 -0.0999 -0.0965
  299PNCE   C3B 2680   9.854   2.142   6.927 -0.1171  0.0744  0.4000
  299PNCE   D4B 2681  10.017   1.888   6.536  0.0537  0.1520 -0.0945
  299PNCE   C5B 2682   9.844   2.132   6.119 -0.0571 -0.1055 -0.0084
  299PNCE   C6B 2683   9.932   2.174   5.667  0.2700  0.2834  0.3981
  300XCA    COO 2684   7.730  10.416   8.292 -0.2786  0.1541  0.0234
  300XCA     C1 2685   7.366  10.449   7.973  0.0264  0.2179  0.0644
  300XCA     C2 2686   7.151  10.357   7.597  0.1855 -0.0492  0.3112
  300XCA     C3 2687   6.760  10.106   7.457  0.0512 -0.0412  0.0040
  300XCA     C4 2688   6.621  10.008   7.044 -0.0585 -0.1153  0.0335
  300XCA     C5 2689   6.384  10.113   6.746 -0.1648  0.1621  0.1560
  300XCA     C6 2690   6.171  10.107   6.386 -0.0253  0.0500  0.1678
  301CHOL   ROH 2691   7.432  10.011   8.140 -0.0258 -0.1593  0.0101
  301CHOL    R1 2692   7.415   9.867   7.897  0.1551 -0.0702 -0.0564
  301CHOL    R2 2693   7.195   9.880   7.731  0.0677 -0.3849  0.0262
  301CHOL    R3 2694   7.381   9.947   7.544 -0.1098  0.0501 -0.0053
  301CHOL    R4 2695   7.180   9.792   7.397  0.1620 -0.3170  0.0035
  301CHOL    R5 2696   7.395   9.755   7.402  0.2460  0.1154 -0.0658
  301CHOL    C1 2697   7.346   9.804   7.027  0.0502  0.1312 -0.0393
  301CHOL    C2 2698   7.402   9.537   6.718 -0.0448  0.0744 -0.1793
  302CHOL   ROH 2699   3.138  12.569   6.715  0.2292 -0.4531  0.0158
  302CHOL    R1 2700   3.299  12.691   6.517  0.1858 -0.2938  0.0773
  302CHOL    R2 2701   3.540  12.584   6.433  0.1492 -0.2496 -0.0911
  302CHOL    R3 2702   3.426  12.603   6.187  0.0778 -0.0138 -0.0419
  302CHOL    R4 2703   3.706  12.536   6.134 -0.0053 -0.2563 -0.1766
  302CHOL    R5 2704   3.594  12.704   6.051  0.1253 -0.1058 -0.0503
  302CHOL    C1 2705   3.695  12.526   5.728 -0.1622 -0.0386 -0.1802
  302CHOL    C2 2706   4.064  12.434   5.689 -0.3278 -0.0077 -0.0325
  303XCA    COO 2707  15.550   0.876   5.052  0.0957  0.2708 -0.0413
  303XCA     C1 2708  15.450   1.186   5.277 -0.2713  0.0212 -0.5034
  303XCA     C2 2709  15.198   1.033   5.536  0.2425  0.2680  0.0819
  303XCA     C3 2710  15.167   1.128   5.949 -0.0013  0.0175  0.1774
  303XCA     C4 2711  15.219   0.985   6.365 -0.2078 -0.0581  0.0593
  303XCA     C5 2712  14.938   0.616   6.402 -0.0315  0.0336 -0.2591
  303XCA     C6 2713  14.838   0.209   6.577  0.0584 -0.0045 -0.0012
  304PNCE   AM1 2714   9.934   4.079   4.749  0.0566 -0.0393  0.0383
  304PNCE   AM2 2715   9.827   4.355   4.663  0.1297  0.0250 -0.1240
  304PNCE   T1A 2716   9.891   4.108   5.166  0.1907 -0.0285  0.0026
  304PNCE   C2A 2717   9.835   4.027   5.592  0.0924 -0.2886 -0.1744
  304PNCE   C3A 2718   9.602   3.689   5.758 -0.0809  0.2166 -0.2089
  304PNCE   C1B 2719   9.737   4.580   4.888  0.1070  0.2117 -0.0437
  304PNCE   C2B 2720   9.731   4.545   5.294  0.2795 -0.0589  0.1257
  304PNCE   C3B 2721   9.906   4.749   5.665 -0.0013  0.0590  0.1140
  304PNCE   D4B 2722  10.163   4.876   5.986  0.1564 -0.0580  0.0297
  304PNCE   C5B 2723  10.159   4.656   6.316 -0.0009 -0.3002  0.1783
  304PNCE   C6B 2724  10.416   4.454   6.607  0.0169  0.1257 -0.4241
  305CHOL   ROH 2725   2.486   4.799   8.560  0.0270 -0.1941 -0.0710
  305CHOL    R1 2726   2.449   4.626   8.339  0.0129 -0.1462 -0.1060
  305CHOL    R2 2727   2.205   4.513   8.278  0.0086 -0.1244 -0.1200
  305CHOL    R3 2728   2.251   4.625   8.034  0.0016 -0.0768 -0.0999
  305CHOL    R4 2729   2.081   4.392   7.978 -0.0066 -0.0679 -0.1369
  305CHOL    R5 2730   2.273   4.437   7.886 -0.0067 -0.0520 -0.1361
  305CHOL    C1 2731   2.052   4.426   7.575 -0.0220  0.0097 -0.1278
  305CHOL    C2 2732   2.237   4.151   7.282  0.1503 -0.1723 -0.2147
  306CHOL   ROH 2733  13.860   9.879   8.151  0.1187 -0.0393 -0.0810
  306CHOL    R1 2734  13.915  10.030   7.918  0.0512  0.0070 -0.0667
  306CHOL    R2 2735  13.794  10.273   7.866  0.0372  0.0144  0.0177
  306CHOL    R3 2736  14.051  10.360   7.843  0.0297  0.0226 -0.0432
  306CHOL    R4 2737  13.900  10.526   7.656 -0.0436  0.0749  0.0490
  306CHOL    R5 2738  14.077  10.408   7.610 -0.0533  0.0859 -0.0434
  306CHOL    C1 2739  14.202  10.755   7.512 -0.0977  0.1178  0.0100
  306CHOL    C2 2740  14.421  10.887   7.272 -0.2516 -0.0349  0.1206
  307CHOL   ROH 2741  15.479  15.569   5.232  0.1199  0.1638  0.0688
  307CHOL    R1 2742  15.385  15.781   5.394 -0.0243  0.1637 -0.0140
  307CHOL    R2 2743  15.118  15.812   5.456 -0.0438 -0.0032 -0.0139
  307CHOL    R3 2744  15.211  15.814   5.712 -0.0306  0.1705 -0.0180
  307CHOL    R4 2745  14.931  15.899   5.734 -0.1696 -0.2628 -0.0146
  307CHOL    R5 2746  15.105  16.004   5.812 -0.3255  0.0213 -0.0344
  307CHOL    C1 2747  14.909  15.950   6.135 -0.2305 -0.2509 -0.0189
  307CHOL    C2 2748  14.499  16.060   6.295 -0.1064 -0.1379 -0.0354
  308XCA    COO 2749  10.662   9.762   8.856 -0.1980 -0.0800  0.0165
  308XCA     C1 2750  10.808   9.480   8.408  0.3863  0.1076  0.3052
  308XCA     C2 2751  10.795   9.556   8.046 -0.2443  0.2080  0.1095
  308XCA     C3 2752  10.677   9.502   7.648 -0.2566  0.0978 -0.1830
  308XCA     C4 2753  10.626   9.456   7.263 -0.0561  0.0449 -0.0428
  308XCA     C5 2754  10.716   9.258   6.894  0.1285  0.2019 -0.0763
  308XCA     C6 2755  10.834   9.230   6.545 -0.1024 -0.0916 -0.1330
  309CHOL   ROH 2756   9.536   4.930   7.939  0.1395 -0.0821 -0.2326
  309CHOL    R1 2757   9.483   4.991   7.667 -0.1070 -0.1650 -0.2063
  309CHOL    R2 2758   9.260   4.897   7.534 -0.3136 -0.0805  0.0660
  309CHOL    R3 2759   9.220   5.160   7.481 -0.1976 -0.0766 -0.0005
  309CHOL    R4 2760   9.024   5.022   7.314 -0.0265 -0.0440 -0.2275
  309CHOL    R5 2761   9.171   5.167   7.247  0.0837 -0.0795 -0.0619
  309CHOL    C1 2762   8.850   5.342   7.136  0.2493 -0.0189 -0.4609
  309CHOL    C2 2763   8.583   5.408   6.958 -0.1227 -0.0741 -0.2037
  310CHOL   ROH 2764   6.799   3.127   7.621 -0.0232 -0.1290 -0.0469
  310CHOL    R1 2765   6.855   2.980   7.385  0.0050 -0.0102 -0.1136
  310CHOL    R2 2766   6.909   3.103   7.143  0.1872  0.1145 -0.0076
  310CHOL    R3 2767   7.134   2.951   7.153  0.0986 -0.0202 -0.0031
  310CHOL    R4 2768   7.066   2.966   6.868  0.2559  0.2488 -0.0369
  310CHOL    R5 2769   7.100   2.785   6.984  0.0912  0.1313 -0.1586
  310CHOL    C1 2770   7.370   2.743   6.716  0.2125  0.2006 -0.0498
  310CHOL    C2 2771   7.678   2.889   6.476  0.1209  0.2434 -0.2565
  311XCA    COO 2772  10.996   8.275   8.405 -0.0388 -0.0918 -0.1033
  311XCA     C1 2773  10.905   8.075   7.975 -0.0449  0.0359 -0.1184
  311XCA     C2 2774  11.042   8.075   7.558 -0.1780 -0.0794 -0.0475
  311XCA     C3 2775  11.258   7.687   7.407  0.0468  0.1962  0.2058
  311XCA     C4 2776  11.695   7.747   7.106 -0.2966  0.2516  0.1073
  311XCA     C5 2777  11.985   7.939   6.854  0.1274 -0.0610  0.3303
  311XCA     C6 2778  12.223   7.663   6.619 -0.0964  0.0105  0.1471
  312PNCE   AM1 2779   6.362   6.573   8.426 -0.0433 -0.0930 -0.0923
  312PNCE   AM2 2780   6.305   6.290   8.475 -0.2531 -0.2088  0.1220
  312PNCE   T1A 2781   6.572   6.514   7.974 -0.3123  0.0135  0.2444
  312PNCE   C2A 2782   6.578   6.635   7.589 -0.3610  0.1751  0.0267
  312PNCE   C3A 2783   6.789   6.926   7.255 -0.2573 -0.0761  0.0364
  312PNCE   C1B 2784   6.072   6.364   8.078  0.0358 -0.1323 -0.0312
  312PNCE   C2B 2785   6.056   6.655   7.633  0.1550  0.0986  0.1001
  312PNCE   C3B 2786   6.098   6.957   7.328 -0.2452 -0.0426  0.0645
  312PNCE   D4B 2787   5.885   7.199   7.147 -0.3871 -0.2415  0.2407
  312PNCE   C5B 2788   6.019   7.238   6.800  0.0576  0.3682 -0.0384
  312PNCE   C6B 2789   6.399   7.170   6.620 -0.4161  0.3387  0.0033
  313PNCE   AM1 2790   0.982   2.788   4.580 -0.0307  0.3061 -0.0021
  313PNCE   AM2 2791   0.888   2.494   4.736  0.2096 -0.1560 -0.1815
  313PNCE   T1A 2792   0.724   3.078   4.772 -0.0636 -0.1396  0.2436
  313PNCE   C2A 2793   0.667   3.334   5.063  0.0537 -0.4086  0.0152
  313PNCE   C3A 2794   0.464   3.153   5.337 -0.2310  0.1855 -0.0671
  313PNCE   C1B 2795   1.056   2.675   5.133  0.0027  0.1842 -0.1777
  313PNCE   C2B 2796   0.970   2.648   5.447 -0.1592 -0.0549 -0.1161
  313PNCE   C3B 2797   0.518   2.772   5.625  0.1189 -0.4474 -0.3985
  313PNCE   D4B 2798   0.362   2.856   6.039  0.2145 -0.1341 -0.3230
  313PNCE   C5B 2799   0.350   3.303   6.211  0.2923  0.1477  0.0566
  313PNCE   C6B 2800   0.250   3.642   6.616  0.0173  0.2653 -0.0865
  314PNCE   AM1 2801  14.926   5.263   7.752  0.0761  0.2154  0.0181
  314PNCE   AM2 2802  14.663   5.455   7.651 -0.0475  0.2414  0.0288
  314PNCE   T1A 2803  15.156   5.359   7.335  0.2859  0.0389  0.0674
  314PNCE   C2A 2804  15.052   5.329   6.837 -0.0757 -0.0662  0.0940
  314PNCE   C3A 2805  15.003   4.990   6.590  0.0591 -0.1446  0.3001
  314PNCE   C1B 2806  14.810   5.740   7.407  0.4458  0.2226  0.0397
  314PNCE   C2B 2807  14.743   5.666   6.948 -0.0342  0.0759  0.2630
  314PNCE   C3B 2808  14.647   5.884   6.585  0.2594  0.0958 -0.0086
  314PNCE   D4B 2809  14.431   6.064   6.360  0.0549  0.3155 -0.0058
  314PNCE   C5B 2810  14.295   5.771   6.228 -0.0246 -0.3677  0.2036
  314PNCE   C6B 2811  14.340   5.313   6.062  0.1006 -0.0648  0.0526
  315XCA    COO 2812   8.025  11.499   8.825  0.0836  0.1154 -0.2361
  315XCA     C1 2813   8.213  11.385   8.441  0.0197 -0.2313 -0.2427
  315XCA     C2 2814   8.094  11.005   8.205 -0.1762 -0.2826 -0.1126
  315XCA     C3 2815   7.943  10.700   7.865  0.1590  0.1422  0.0178
  315XCA     C4 2816   8.199  10.388   7.638  0.0072  0.1631  0.0779
  315XCA     C5 2817   8.653  10.203   7.598 -0.2089 -0.3506 -0.1750
  315XCA     C6 2818   8.805   9.953   7.914  0.1990  0.0321 -0.2475
  316PNCE   AM1 2819   5.084   9.184   9.326  0.1778  0.1361 -0.1520
  316PNCE   AM2 2820   4.807   9.248   9.353 -0.0445 -0.0891  0.2525
  316PNCE   T1A 2821   5.207   9.226   8.914  0.2641 -0.1308 -0.2675
  316PNCE   C2A 2822   5.251   9.325   8.483 -0.1085 -0.0941  0.0239
  316PNCE   C3A 2823   5.025   9.186   8.190  0.2570  0.3032 -0.4686
  316PNCE   C1B 2824   4.656   9.283   8.923 -0.4463 -0.0537 -0.1970
  316PNCE   C2B 2825   4.648   9.341   8.450  0.1071 -0.2074 -0.3912
  316PNCE   C3B 2826   4.225   9.321   8.178  0.0954  0.1616 -0.3492
  316PNCE   D4B 2827   4.059   9.363   7.751 -0.0892  0.1048  0.0358
  316PNCE   C5B 2828   4.095   9.282   7.309  0.1758 -0.2742  0.0569
  316PNCE   C6B 2829   3.750   9.279   7.102 -0.0485 -0.0780  0.0234
  317XCA    COO 2830   8.857  12.538   8.581 -0.1860 -0.3286 -0.0711
  317XCA     C1 2831   8.939  12.383   8.216 -0.2614 -0.0619 -0.0516
  317XCA     C2 2832   8.799  12.220   7.788 -0.3380  0.0815 -0.0347
  317XCA     C3 2833   8.898  12.199   7.478 -0.2615  0.3509 -0.4455
  317XCA     C4 2834   8.895  12.472   7.169 -0.0343  0.0395  0.1618
  317XCA     C5 2835   9.181  12.667   6.795 -0.0184 -0.0261  0.0062
  317XCA     C6 2836   9.468  12.819   6.442  0.1597 -0.4450 -0.0755
  318PNCE   AM1 2837   0.192   0.295   9.133 -0.1900  0.0301  0.2093
  318PNCE   AM2 2838   0.016   0.011   9.053  0.0410 -0.0604  0.0160
  318PNCE   T1A 2839   0.237   0.747   8.913  0.2633  0.0272 -0.0712
  318PNCE   C2A 2840   0.379   1.272   8.942  0.1484  0.1935  0.1835
  318PNCE   C3A 2841   0.777   1.416   9.099  0.1288 -0.0754  0.0967
  318PNCE   C1B 2842  -0.261  -0.002   8.714  0.3954 -0.0353  0.1141
  318PNCE   C2B 2843  -0.293   0.174   8.224 -0.1000 -0.0737  0.0587
  318PNCE   C3B 2844  -0.121   0.395   7.849  0.0180  0.1200  0.0176
  318PNCE   D4B 2845  -0.125   0.651   7.590 -0.0337  0.2504  0.2990
  318PNCE   C5B 2846  -0.332   0.944   7.476  0.1316  0.0411 -0.1803
  318PNCE   C6B 2847  -0.168   1.212   7.122  0.0276  0.0347 -0.2853
  319PNCE   AM1 2848   0.939  14.333   9.003  0.1127 -0.2036  0.0988
  319PNCE   AM2 2849   1.096  14.502   8.832 -0.1859  0.0906 -0.0168
  319PNCE   T1A 2850   0.688  14.674   8.694 -0.2788 -0.0342  0.1081
  319PNCE   C2A 2851   0.711  14.778   8.242 -0.0498 -0.1893  0.4327
  319PNCE   C3A 2852   0.675  14.862   7.842 -0.0565  0.1905  0.1518
  319PNCE   C1B 2853   1.154  14.692   8.466 -0.0758 -0.2440 -0.1114
  319PNCE   C2B 2854   1.209  14.726   8.071  0.1076  0.2490  0.1071
  319PNCE   C3B 2855   1.365  14.999   7.739  0.2841 -0.2117 -0.1556
  319PNCE   D4B 2856   1.729  14.979   7.448  0.1833  0.0427 -0.0599
  319PNCE   C5B 2857   1.955  15.277   7.430 -0.1508  0.0079  0.2299
  319PNCE   C6B 2858   1.888  15.775   7.485 -0.2735 -0.0849  0.1234
  320CHOL   ROH 2859   0.302   0.755   5.116  0.2179 -0.1225  0.1584
  320CHOL    R1 2860   0.289   0.895   5.361  0.1352 -0.1481  0.1693
  320CHOL    R2 2861   0.051   0.943   5.493  0.0765 -0.0704  0.0429
  320CHOL    R3 2862   0.179   0.824   5.701 -0.0848 -0.1501  0.0982
  320CHOL    R4 2863  -0.062   0.940   5.820 -0.1057 -0.0895 -0.0191
  320CHOL    R5 2864   0.143   0.972   5.886 -0.1356 -0.1733  0.1031
  320CHOL    C1 2865  -0.007   0.827   6.205 -0.3632 -0.1755 -0.0033
  320CHOL    C2 2866  -0.130   0.781   6.595 -0.1395 -0.1902  0.1090
  321CHOL   ROH 2867   4.933  13.880   7.362 -0.2240 -0.0033 -0.0356
  321CHOL    R1 2868   4.894  13.699   7.577 -0.0145 -0.0253 -0.0143
  321CHOL    R2 2869   4.671  13.538   7.597 -0.0455  0.0468  0.2461
  321CHOL    R3 2870   4.855  13.340   7.616 -0.0905 -0.0165 -0.0226
  321CHOL    R4 2871   4.613  13.226   7.734  0.0014  0.0126  0.1880
  321CHOL    R5 2872   4.810  13.235   7.827  0.0978 -0.0838 -0.0165
  321CHOL    C1 2873   4.753  12.858   7.832 -0.0136 -0.0667 -0.0980
  321CHOL    C2 2874   4.845  12.576   8.065  0.2712 -0.1517 -0.0240
  322CHOL   ROH 2875   9.406   0.857   8.117 -0.1200  0.1074  0.2317
  322CHOL    R1 2876   9.552   0.762   7.895 -0.1514  0.1866  0.1764
  322CHOL    R2 2877   9.738   0.558   7.915 -0.0061  0.3082  0.1140
  322CHOL    R3 2878   9.589   0.446   7.718 -0.0199  0.1955  0.1880
  322CHOL    R4 2879   9.836   0.288   7.722  0.0539  0.3187  0.1297
  322CHOL    R5 2880   9.748   0.387   7.549 -0.0540  0.2401  0.1433
  322CHOL    C1 2881   9.753   0.026   7.424  0.0758  0.2191  0.2083
  322CHOL    C2 2882   9.804  -0.015   7.110  0.1048 -0.0540 -0.0498
  323XCA    COO 2883   4.625  10.958   7.016 -0.1243  0.4473 -0.0573
  323XCA     C1 2884   4.828  10.947   7.320 -0.0082  0.0344  0.0930
  323XCA     C2 2885   5.001  11.300   7.451 -0.3860 -0.2083  0.3364
  323XCA     C3 2886   5.347  11.532   7.256 -0.0641  0.1684 -0.3724
  323XCA     C4 2887   5.629  11.926   7.067 -0.2953 -0.2446 -0.4182
  323XCA     C5 2888   5.686  12.432   7.071  0.0215 -0.0645 -0.0506
  323XCA     C6 2889   6.019  12.825   6.961 -0.1812 -0.2111  0.0092
  324XCA    COO 2890  12.330  10.479   8.761 -0.2292 -0.1098  0.1943
  324XCA     C1 2891  12.487  10.316   8.413 -0.2058  0.2413 -0.0417
  324XCA     C2 2892  12.417  10.034   8.068  0.3135  0.1347 -0.3954
  324XCA     C3 2893  12.593  10.047   7.660  0.0887 -0.1534  0.0154
  324XCA     C4 2894  12.676   9.980   7.273  0.0520  0.2386  0.0411
  324XCA     C5 2895  12.607   9.658   6.937 -0.0585  0.1205  0.1599
  324XCA     C6 2896  12.679   9.591   6.569 -0.0445  0.2527  0.1516
  325CHOL   ROH 2897   3.748  10.268   8.204  0.0616 -0.0140 -0.0675
  325CHOL    R1 2898   3.472  10.299   8.149  0.1456  0.0643 -0.4738
  325CHOL    R2 2899   3.343  10.159   7.948  0.2292 -0.6007 -0.0864
  325CHOL    R3 2900   3.176  10.087   8.150 -0.0685  0.3427  0.0588
  325CHOL    R4 2901   3.021  10.040   7.907  0.2481 -0.6826 -0.0064
  325CHOL    R5 2902   2.960  10.159   8.079  0.0421  0.1271 -0.5716
  325CHOL    C1 2903   2.678   9.903   8.073 -0.0202  0.1552  0.1764
  325CHOL    C2 2904   2.464   9.879   8.367  0.2149 -0.0058 -0.0824
  326PNCE   AM1 2905  10.241  14.366   7.907 -0.0098  0.2716  0.1697
  326PNCE   AM2 2906  10.085  14.107   8.003 -0.0998  0.0107  0.0704
  326PNCE   T1A 2907  10.374  14.356   7.468 -0.0153 -0.1220 -0.0835
  326PNCE   C2A 2908  10.517  14.121   7.228 -0.0967  0.1376  0.2687
  326PNCE   C3A 2909  10.675  14.185   6.773  0.3663 -0.0231  0.1108
  326PNCE   C1B 2910  10.338  13.927   7.696  0.1114  0.1413  0.3326
  326PNCE   C2B 2911  10.583  13.497   7.561  0.2304  0.0841  0.1762
  326PNCE   C3B 2912  10.958  13.342   7.436 -0.0641 -0.1370  0.2868
  326PNCE   D4B 2913  11.274  13.546   7.346  0.1334 -0.1177 -0.1599
  326PNCE   C5B 2914  11.276  13.699   6.915 -0.0049  0.0082 -0.0090
  326PNCE   C6B 2915  11.215  14.041   6.620  0.1308 -0.0298 -0.4988
  327PNCE   AM1 2916  11.466  11.406   9.096  0.1440 -0.3155 -0.4029
  327PNCE   AM2 2917  11.533  11.637   8.978 -0.5504 -0.2077  0.1526
  327PNCE   T1A 2918  11.368  11.266   8.665  0.0643  0.0180  0.0335
  327PNCE   C2A 2919  11.249  10.944   8.391  0.0709  0.1378 -0.0890
  327PNCE   C3A 2920  10.907  10.778   8.266 -0.0827  0.0677  0.1859
  327PNCE   C1B 2921  11.491  11.752   8.512 -0.0532  0.0062  0.0849
  327PNCE   C2B 2922  11.272  11.624   8.097 -0.1614  0.1710  0.2421
  327PNCE   C3B 2923  11.137  11.850   7.656  0.0223 -0.0162 -0.1461
  327PNCE   D4B 2924  10.930  11.974   7.412  0.0252 -0.0183  0.0277
  327PNCE   C5B 2925  10.828  11.610   7.219 -0.2409 -0.1442  0.0823
  327PNCE   C6B 2926  10.989  11.362   6.999  0.1228 -0.0206  0.1165
  328CHOL   ROH 2927  14.184  15.591   5.256 -0.1580  0.0769 -0.2183
  328CHOL    R1 2928  14.260  15.665   5.519 -0.0011  0.0796 -0.2639
  328CHOL    R2 2929  14.118  15.849   5.668  0.0804  0.0669 -0.1774
  328CHOL    R3 2930  14.112  15.648   5.851  0.2059  0.0689 -0.1694
  328CHOL    R4 2931  14.066  15.892   6.007 -0.1447  0.0411 -0.2059
  328CHOL    R5 2932  14.219  15.741   6.044  0.0080  0.2055 -0.1178
  328CHOL    C1 2933  14.032  15.728   6.376 -0.1580  0.0278 -0.2151
  328CHOL    C2 2934  14.091  15.616   6.754 -0.0663 -0.3260 -0.3009
  329CHOL   ROH 2935   1.397  15.647   5.910 -0.1145  0.0355  0.2019
  329CHOL    R1 2936   1.438  15.692   6.186 -0.1306  0.1675  0.1829
  329CHOL    R2 2937   1.654  15.589   6.324 -0.2106  0.1210  0.2716
  329CHOL    R3 2938   1.692  15.849   6.394 -0.0724  0.1400  0.1338
  329CHOL    R4 2939   1.905  15.703   6.532 -0.1399  0.0975  0.2004
  329CHOL    R5 2940   1.761  15.840   6.623 -0.0668  0.2217  0.1374
  329CHOL    C1 2941   2.087  16.013   6.720  0.0309  0.1016  0.0295
  329CHOL    C2 2942   2.072  16.036   7.177  0.0888 -0.0203  0.1223
  330PNCE   AM1 2943  12.696  11.754   9.104 -0.0243  0.0720  0.2872
  330PNCE   AM2 2944  12.488  11.659   8.916 -0.2224 -0.0752 -0.0617
  330PNCE   T1A 2945  13.015  11.744   8.804  0.0731 -0.1151 -0.1202
  330PNCE   C2A 2946  13.120  11.727   8.423 -0.1086  0.4571 -0.0704
  330PNCE   C3A 2947  12.948  11.764   7.980 -0.1477  0.1699  0.0142
  330PNCE   C1B 2948  12.677  11.424   8.614  0.0167 -0.0060 -0.0772
  330PNCE   C2B 2949  12.721  11.393   8.265  0.0003  0.2433  0.1340
  330PNCE   C3B 2950  12.775  11.186   7.954  0.0105 -0.0166 -0.0943
  330PNCE   D4B 2951  12.945  10.873   7.552  0.5399 -0.2137  0.0042
  330PNCE   C5B 2952  12.520  10.570   7.492 -0.1325 -0.0455 -0.0137
  330PNCE   C6B 2953  12.202  10.275   7.366 -0.1577 -0.2660  0.1255
  331PNCE   AM1 2954   9.012   5.459   8.282 -0.0401 -0.0769  0.1061
  331PNCE   AM2 2955   9.013   5.280   8.051  0.0542  0.3439  0.2001
  331PNCE   T1A 2956   8.972   5.846   8.032  0.2545  0.0554  0.0331
  331PNCE   C2A 2957   9.077   6.108   7.624 -0.0412  0.1692  0.0194
  331PNCE   C3A 2958   9.115   6.473   7.428 -0.1717 -0.2114  0.2992
  331PNCE   C1B 2959   8.793   5.433   7.601 -0.0903  0.1858 -0.0568
  331PNCE   C2B 2960   8.713   5.821   7.491 -0.2564 -0.1059  0.2526
  331PNCE   C3B 2961   8.638   6.243   7.244 -0.1066  0.3647  0.0984
  331PNCE   D4B 2962   8.343   6.499   7.154 -0.0910 -0.2167  0.1496
  331PNCE   C5B 2963   8.182   6.733   7.418 -0.2310 -0.2282 -0.2851
  331PNCE   C6B 2964   8.130   6.650   7.862  0.1398 -0.1421  0.0278
  332PNCE   AM1 2965   5.373   8.425   9.313 -0.0397  0.1974  0.2908
  332PNCE   AM2 2966   5.177   8.696   9.314 -0.2947  0.0097  0.2042
  332PNCE   T1A 2967   5.063   8.136   9.056 -0.1503  0.1613 -0.1093
  332PNCE   C2A 2968   4.832   8.075   8.734  0.2635  0.3102 -0.0411
  332PNCE   C3A 2969   4.571   8.074   8.416 -0.0705 -0.0754  0.2870
  332PNCE   C1B 2970   5.331   8.667   8.836  0.0336  0.2305  0.1371
  332PNCE   C2B 2971   5.199   8.343   8.493  0.0577  0.0541 -0.4361
  332PNCE   C3B 2972   4.919   8.192   8.046 -0.1079 -0.1206 -0.0484
  332PNCE   D4B 2973   4.635   8.146   7.706  0.2893  0.0353 -0.1570
  332PNCE   C5B 2974   4.470   8.522   7.500 -0.1769 -0.0800  0.0929
  332PNCE   C6B 2975   4.065   8.850   7.503  0.2278 -0.0095  0.0909
  333PNCE   AM1 2976   4.490   7.628   8.838 -0.0229 -0.0017 -0.1614
  333PNCE   AM2 2977   4.202   7.543   8.910 -0.0542  0.3415 -0.0625
  333PNCE   T1A 2978   4.766   7.591   8.489  0.1514 -0.2449 -0.3246
  333PNCE   C2A 2979   4.734   7.632   8.029  0.0300  0.0754  0.3192
  333PNCE   C3A 2980   4.492   7.623   7.658 -0.2641  0.6529  0.0345
  333PNCE   C1B 2981   4.016   7.598   8.516 -0.1298  0.5764 -0.2721
  333PNCE   C2B 2982   3.706   7.446   8.256  0.2125 -0.0228 -0.1124
  333PNCE   C3B 2983   3.687   7.093   7.920 -0.1827  0.0230 -0.1581
  333PNCE   D4B 2984   3.326   6.888   7.791  0.1885  0.0539 -0.1674
  333PNCE   C5B 2985   3.025   7.086   7.636  0.0732 -0.2066  0.1147
  333PNCE   C6B 2986   3.159   7.325   7.324 -0.1048 -0.1111  0.2702
  334PNCE   AM1 2987  15.453   3.421   8.627  0.0485 -0.0184  0.1103
  334PNCE   AM2 2988  15.717   3.290   8.645  0.0229  0.0667 -0.1402
  334PNCE   T1A 2989  15.542   3.560   8.244  0.3421 -0.0848 -0.3119
  334PNCE   C2A 2990  15.496   3.788   7.947 -0.0686 -0.2777  0.0017
  334PNCE   C3A 2991  15.083   3.876   7.778  0.0279 -0.1976  0.0455
  334PNCE   C1B 2992  15.874   3.203   8.197  0.3205 -0.0710 -0.1540
  334PNCE   C2B 2993  15.629   3.033   7.856 -0.0360  0.0946  0.0084
  334PNCE   C3B 2994  15.385   3.017   7.532 -0.2569  0.0545 -0.0051
  334PNCE   D4B 2995  15.276   2.991   7.058  0.2288  0.0389 -0.3355
  334PNCE   C5B 2996  15.079   2.965   6.733  0.0538  0.0683  0.5137
  334PNCE   C6B 2997  14.846   3.204   6.430 -0.1332  0.0305 -0.1142
  335PNCE   AM1 2998   4.965  14.198   9.539 -0.1945 -0.1738  0.1704
  335PNCE   AM2 2999   5.298  14.385   9.459 -0.0873 -0.2307 -0.2073
  335PNCE   T1A 3000   4.973  13.964   9.194 -0.0951 -0.0830 -0.1490
  335PNCE   C2A 3001   5.037  13.710   8.794 -0.0850 -0.1546  0.0814
  335PNCE   C3A 3002   4.713  13.438   8.624  0.1411  0.2573 -0.2943
  335PNCE   C1B 3003   5.188  14.491   9.067  0.0491 -0.0737 -0.0802
  335PNCE   C2B 3004   5.256  14.749   8.655  0.0803  0.3011 -0.0639
  335PNCE   C3B 3005   5.103  14.680   8.215  0.0836 -0.1973 -0.2403
  335PNCE   D4B 3006   5.139  14.554   7.761 -0.5195 -0.1932 -0.0457
  335PNCE   C5B 3007   5.574  14.434   7.762 -0.0469 -0.1583  0.0761
  335PNCE   C6B 3008   5.955  14.364   7.944  0.1766  0.2102 -0.3379
  336CHOL   ROH 3009   4.332  10.238   8.119  0.0394  0.0268  0.1547
  336CHOL    R1 3010   4.476  10.080   7.934  0.0441  0.0609  0.1298
  336CHOL    R2 3011   4.632  10.190   7.734  0.1031  0.0976  0.1988
  336CHOL    R3 3012   4.826  10.033   7.843  0.0532  0.0220  0.1809
  336CHOL    R4 3013   4.917  10.083   7.570  0.0697  0.0300  0.1835
  336CHOL    R5 3014   4.894   9.889   7.665  0.0072  0.0226  0.1599
  336CHOL    C1 3015   5.264   9.874   7.577  0.0033 -0.0803  0.1578
  336CHOL    C2 3016   5.261   9.547   7.360 -0.0355 -0.1914 -0.0229
  337XCA    COO 3017   7.435   9.355   9.262  0.2477 -0.1161  0.2353
  337XCA     C1 3018   7.456   9.822   8.974  0.0100 -0.1341  0.0131
  337XCA     C2 3019   7.154   9.921   8.556 -0.2003  0.0592  0.1044
  337XCA     C3 3020   6.970  10.094   8.159  0.2010  0.1121 -0.0574
  337XCA     C4 3021   6.710  10.375   7.819  0.1187 -0.0122 -0.2893
  337XCA     C5 3022   6.474  10.685   7.895  0.2103  0.0450 -0.1667
  337XCA     C6 3023   6.173  10.730   8.263 -0.0015  0.0668 -0.1206
  338PNCE   AM1 3024  15.243  14.741   9.069  0.1487  0.2066  0.2147
  338PNCE   AM2 3025  14.878  14.815   9.065  0.3916 -0.3214 -0.0071
  338PNCE   T1A 3026  15.308  14.514   8.675 -0.1122  0.2335  0.2256
  338PNCE   C2A 3027  15.321  14.383   8.295 -0.1793  0.2093 -0.1224
  338PNCE   C3A 3028  15.572  14.472   7.860 -0.0552 -0.1908 -0.0227
  338PNCE   C1B 3029  14.751  14.726   8.623 -0.0146  0.0547 -0.0473
  338PNCE   C2B 3030  14.690  14.577   8.251  0.3531 -0.0576 -0.2700
  338PNCE   C3B 3031  14.853  14.380   7.848  0.0245 -0.1477 -0.1410
  338PNCE   D4B 3032  14.670  14.133   7.551 -0.3708 -0.2500 -0.0716
  338PNCE   C5B 3033  14.595  13.774   7.798  0.0920  0.2589  0.1289
  338PNCE   C6B 3034  14.818  13.432   7.998 -0.0634 -0.1328 -0.2715
  339CHOL   ROH 3035   2.941   5.122   5.381 -0.1073  0.0164  0.0125
  339CHOL    R1 3036   2.943   5.323   5.580 -0.2548  0.0812 -0.0510
  339CHOL    R2 3037   2.725   5.375   5.742 -0.2008 -0.2222  0.1166
  339CHOL    R3 3038   2.905   5.336   5.942  0.0358  0.1273 -0.0177
  339CHOL    R4 3039   2.713   5.528   6.051 -0.3810 -0.3645  0.1831
  339CHOL    R5 3040   2.929   5.552   6.043 -0.4235  0.1644  0.0461
  339CHOL    C1 3041   2.875   5.582   6.419 -0.2639 -0.1194  0.0958
  339CHOL    C2 3042   2.808   5.745   6.697  0.0460  0.2291 -0.0747
  340PNCE   AM1 3043   1.685   2.569   9.363  0.1484  0.2446  0.0410
  340PNCE   AM2 3044   1.884   2.544   9.171  0.1520 -0.0977  0.0800
  340PNCE   T1A 3045   1.411   2.443   8.981 -0.2107  0.1173  0.1414
  340PNCE   C2A 3046   1.253   2.263   8.555  0.0935  0.1882 -0.3676
  340PNCE   C3A 3047   1.262   2.213   8.146  0.5109 -0.1591 -0.0299
  340PNCE   C1B 3048   2.094   2.755   8.849  0.2673 -0.0542  0.0556
  340PNCE   C2B 3049   2.036   2.868   8.428  0.1335 -0.0712  0.0656
  340PNCE   C3B 3050   2.019   2.657   8.002 -0.0261  0.0430 -0.3340
  340PNCE   D4B 3051   2.211   2.472   7.727 -0.3471  0.1974 -0.0718
  340PNCE   C5B 3052   2.224   2.418   7.304 -0.0333  0.1271 -0.0378
  340PNCE   C6B 3053   2.395   2.412   6.859 -0.0670  0.1664 -0.1514
  341PNCE   AM1 3054   6.571   4.976   7.805 -0.0827  0.2013  0.2799
  341PNCE   AM2 3055   6.655   5.268   8.169  0.1719 -0.0544 -0.1532
  341PNCE   T1A 3056   6.373   5.018   7.421  0.0671  0.1357  0.1078
  341PNCE   C2A 3057   6.284   5.076   7.009 -0.1265  0.0036 -0.0920
  341PNCE   C3A 3058   6.523   4.837   6.695 -0.1222 -0.0584  0.0150
  341PNCE   C1B 3059   6.834   5.664   8.027 -0.1459 -0.4201  0.1642
  341PNCE   C2B 3060   6.702   6.025   7.780  0.0084 -0.0490  0.3937
  341PNCE   C3B 3061   6.395   6.174   7.567  0.2984  0.0954  0.2872
  341PNCE   D4B 3062   6.046   6.018   7.380  0.0320 -0.1170 -0.1459
  341PNCE   C5B 3063   5.917   6.251   7.065 -0.1025  0.1191 -0.0553
  341PNCE   C6B 3064   5.734   6.210   6.706 -0.0248 -0.0088 -0.1550
  342PNCE   AM1 3065  12.585   2.876   8.083 -0.4347  0.1696 -0.1239
  342PNCE   AM2 3066  12.550   3.189   7.922 -0.0664  0.3664  0.1272
  342PNCE   T1A 3067  12.669   2.552   7.858  0.0748 -0.1104 -0.1877
  342PNCE   C2A 3068  12.657   2.520   7.344 -0.1178 -0.1099 -0.1536
  342PNCE   C3A 3069  12.831   2.487   6.800  0.1289  0.1310 -0.0151
  342PNCE   C1B 3070  12.525   3.142   7.444  0.0534  0.1580 -0.1180
  342PNCE   C2B 3071  12.381   3.394   7.089  0.1555  0.0494 -0.1851
  342PNCE   C3B 3072  12.400   3.325   6.696 -0.0900 -0.1248 -0.0593
  342PNCE   D4B 3073  12.528   3.449   6.264 -0.0083 -0.0577  0.2349
  342PNCE   C5B 3074  12.655   3.760   6.006  0.1399  0.0686  0.0377
  342PNCE   C6B 3075  12.692   3.685   5.528 -0.0092 -0.2354 -0.3198
  343CHOL   ROH 3076   4.477   2.599   5.638 -0.1622  0.0145  0.0087
  343CHOL    R1 3077   4.571   2.818   5.791 -0.1635  0.0489 -0.0397
  343CHOL    R2 3078   4.835   2.843   5.868 -0.2029 -0.0359  0.1237
  343CHOL    R3 3079   4.813   3.086   5.748 -0.0093 -0.0843 -0.0149
  343CHOL    R4 3080   5.068   3.098   5.892 -0.1630 -0.0850  0.2690
  343CHOL    R5 3081   4.904   3.240   5.908 -0.1487 -0.0349  0.0199
  343CHOL    C1 3082   5.183   3.474   5.793  0.0420 -0.1590  0.2236
  343CHOL    C2 3083   5.125   3.716   5.520 -0.3024  0.3531  0.3878
  344CHOL   ROH 3084   6.850   4.093   6.066 -0.0710 -0.1823  0.1074
  344CHOL    R1 3085   6.902   4.055   5.790 -0.0657 -0.1634  0.1060
  344CHOL    R2 3086   6.858   4.252   5.602 -0.0321 -0.1405  0.1236
  344CHOL    R3 3087   7.118   4.205   5.539 -0.0360 -0.1693  0.1276
  344CHOL    R4 3088   7.000   4.312   5.293  0.0063 -0.0431  0.1595
  344CHOL    R5 3089   7.112   4.126   5.313 -0.0341 -0.0760  0.0934
  344CHOL    C1 3090   7.328   4.303   5.053  0.0249 -0.0134  0.1844
  344CHOL    C2 3091   7.350   4.537   4.756  0.0162  0.2845 -0.1075
  345PNCE   AM1 3092   5.823  14.102   9.472  0.0061 -0.0913  0.1064
  345PNCE   AM2 3093   5.824  14.345   9.343 -0.0190 -0.3439  0.1010
  345PNCE   T1A 3094   5.868  13.741   9.233 -0.0662  0.2287  0.0814
  345PNCE   C2A 3095   5.806  13.762   8.793 -0.3499 -0.0467 -0.1058
  345PNCE   C3A 3096   5.766  13.538   8.417 -0.0649 -0.0674  0.1401
  345PNCE   C1B 3097   5.621  14.184   8.995  0.1626  0.2239  0.2118
  345PNCE   C2B 3098   5.418  14.055   8.671 -0.0656  0.3058  0.1552
  345PNCE   C3B 3099   5.409  13.819   8.199 -0.1529  0.2927 -0.3013
  345PNCE   D4B 3100   5.289  14.080   7.844 -0.2940  0.0023  0.2040
  345PNCE   C5B 3101   5.278  14.110   7.503 -0.0124  0.0594 -0.1395
  345PNCE   C6B 3102   5.447  14.130   7.029 -0.1711  0.0799 -0.2456
  346PNCE   AM1 3103   0.579   9.972   9.269 -0.2155  0.1030 -0.2005
  346PNCE   AM2 3104   0.778  10.238   9.205  0.2897 -0.1437 -0.0694
  346PNCE   T1A 3105   0.288  10.330   9.026 -0.2054 -0.0569 -0.1838
  346PNCE   C2A 3106   0.257  10.581   8.661 -0.0207  0.0805 -0.0813
  346PNCE   C3A 3107   0.404  10.894   8.437 -0.0102  0.0345 -0.5396
  346PNCE   C1B 3108   0.695  10.299   8.710  0.0399  0.0426  0.0518
  346PNCE   C2B 3109   0.716  10.286   8.294  0.0135  0.0623 -0.2378
  346PNCE   C3B 3110   0.867  10.302   7.845  0.0792  0.0255 -0.1433
  346PNCE   D4B 3111   0.801  10.625   7.613  0.2249 -0.1366 -0.3920
  346PNCE   C5B 3112   0.845  10.948   7.733  0.0991 -0.1456  0.4632
  346PNCE   C6B 3113   0.624  11.205   8.017  0.0689 -0.0586 -0.0060
  347PNCE   AM1 3114   8.839  13.139   8.564 -0.0834  0.1873 -0.0639
  347PNCE   AM2 3115   8.638  13.198   8.918  0.1677  0.1249  0.3744
  347PNCE   T1A 3116   8.626  13.071   8.268 -0.0436  0.2989 -0.1275
  347PNCE   C2A 3117   8.362  12.773   7.924 -0.0994 -0.3297 -0.0469
  347PNCE   C3A 3118   7.937  12.655   7.803  0.0343 -0.4976 -0.1481
  347PNCE   C1B 3119   8.407  12.893   8.763 -0.0192 -0.1672 -0.2744
  347PNCE   C2B 3120   8.162  12.745   8.386 -0.1286 -0.1357  0.1658
  347PNCE   C3B 3121   7.709  12.890   8.115 -0.2388  0.1651  0.0446
  347PNCE   D4B 3122   7.288  12.700   7.985 -0.2428  0.0911 -0.1506
  347PNCE   C5B 3123   6.854  12.729   8.187 -0.3172 -0.1455  0.0581
  347PNCE   C6B 3124   6.675  12.371   8.376  0.1092  0.1047 -0.4285
  348XCA    COO 3125  10.790   0.265   8.051 -0.2664  0.0560 -0.3485
  348XCA     C1 3126  11.012   0.568   7.739  0.3204 -0.0791 -0.1906
  348XCA     C2 3127  11.106   0.805   7.367  0.0947  0.2172 -0.3259
  348XCA     C3 3128  11.311   0.969   6.982 -0.0459 -0.1726 -0.0302
  348XCA     C4 3129  11.376   1.203   6.728  0.1766 -0.2426  0.0587
  348XCA     C5 3130  11.618   1.357   6.446 -0.1787  0.0228 -0.0194
  348XCA     C6 3131  11.791   1.545   6.221 -0.3031  0.2345 -0.0479
  349XCA    COO 3132   8.385   5.585   7.862 -0.2645 -0.3770  0.2322
  349XCA     C1 3133   8.328   5.514   7.389 -0.1894 -0.0279  0.1964
  349XCA     C2 3134   8.091   5.598   7.176  0.0819  0.0271 -0.0337
  349XCA     C3 3135   7.723   5.397   7.134  0.2235  0.2992 -0.0406
  349XCA     C4 3136   7.584   5.080   6.833 -0.1327 -0.1318  0.5040
  349XCA     C5 3137   7.701   4.939   6.404  0.1115 -0.0954  0.3253
  349XCA     C6 3138   7.867   4.562   6.240  0.3359 -0.1010 -0.0003
  350XCA    COO 3139  12.131   5.269   8.507 -0.0545 -0.0443 -0.2198
  350XCA     C1 3140  11.952   5.335   8.035  0.1596  0.2785 -0.2459
  350XCA     C2 3141  11.991   5.108   7.639 -0.1043  0.0765  0.0459
  350XCA     C3 3142  11.980   4.953   7.201  0.1202  0.0653  0.1733
  350XCA     C4 3143  12.148   4.855   6.771 -0.0365 -0.2770 -0.5263
  350XCA     C5 3144  11.899   4.774   6.320  0.1272  0.1943 -0.0631
  350XCA     C6 3145  11.526   5.085   6.290 -0.0532  0.5254 -0.2759
  351CHOL   ROH 3146   1.172  15.160   8.751 -0.2582 -0.0765 -0.0088
  351CHOL    R1 3147   1.054  15.131   8.495 -0.3931  0.0739  0.0349
  351CHOL    R2 3148   0.866  15.308   8.397 -0.0912  0.4066  0.0445
  351CHOL    R3 3149   1.039  15.323   8.187 -0.1185  0.0216 -0.0150
  351CHOL    R4 3150   0.776  15.281   8.064 -0.2107  0.2469  0.0882
  351CHOL    R5 3151   0.956  15.163   8.030 -0.3611 -0.0094  0.1359
  351CHOL    C1 3152   0.885  15.280   7.674 -0.3059 -0.2075  0.0576
  351CHOL    C2 3153   0.740  15.110   7.297  0.1974 -0.0864  0.0444
  352PNCE   AM1 3154  11.944   8.710   9.090  0.2254 -0.0489 -0.1903
  352PNCE   AM2 3155  12.094   8.988   9.082  0.2460  0.1402  0.0642
  352PNCE   T1A 3156  12.292   8.393   8.965  0.3364  0.0581 -0.1397
  352PNCE   C2A 3157  12.589   8.138   8.746 -0.3386 -0.0343  0.0946
  352PNCE   C3A 3158  12.593   7.865   8.460  0.2668  0.0813 -0.0330
  352PNCE   C1B 3159  12.113   9.305   8.853 -0.2362  0.1216  0.1999
  352PNCE   C2B 3160  11.954   9.384   8.422 -0.1168  0.2151  0.0197
  352PNCE   C3B 3161  11.632   9.460   8.070 -0.0638 -0.1387 -0.2276
  352PNCE   D4B 3162  11.254   9.285   8.115 -0.0965 -0.0585 -0.0214
  352PNCE   C5B 3163  10.924   9.077   7.969 -0.0580  0.0539  0.1672
  352PNCE   C6B 3164  10.622   8.779   8.168 -0.0685 -0.3746 -0.2894
  353PNCE   AM1 3165   9.272  14.588   8.150  0.0938  0.0850 -0.0111
  353PNCE   AM2 3166   9.057  14.360   8.235  0.1159  0.0034 -0.3327
  353PNCE   T1A 3167   9.559  14.798   7.882 -0.0322 -0.0669 -0.0003
  353PNCE   C2A 3168   9.872  14.698   7.585 -0.1038  0.0735 -0.0008
  353PNCE   C3A 3169   9.810  14.524   7.251 -0.0843  0.0972  0.4207
  353PNCE   C1B 3170   8.811  13.991   8.072 -0.0911  0.2166  0.2539
  353PNCE   C2B 3171   8.747  13.688   7.895  0.1953 -0.5838 -0.2470
  353PNCE   C3B 3172   8.390  13.523   7.756 -0.1246 -0.1085 -0.1489
  353PNCE   D4B 3173   8.249  13.564   7.398 -0.1076  0.2976 -0.0709
  353PNCE   C5B 3174   8.054  13.882   7.065  0.3884 -0.1501 -0.0882
  353PNCE   C6B 3175   8.084  14.282   7.216 -0.0282 -0.1038  0.2274
  354PNCE   AM1 3176   7.966   4.851   7.895  0.1842 -0.1823  0.2289
  354PNCE   AM2 3177   7.576   4.924   7.834  0.0464 -0.2648  0.1721
  354PNCE   T1A 3178   7.930   5.223   7.724 -0.1603  0.0004 -0.0374
  354PNCE   C2A 3179   7.871   5.673   7.711 -0.0085  0.1646 -0.0976
  354PNCE   C3A 3180   7.696   5.836   7.405 -0.5151  0.1621 -0.2835
  354PNCE   C1B 3181   7.492   5.334   7.554  0.3637  0.0901 -0.0575
  354PNCE   C2B 3182   7.236   5.344   7.157 -0.1002 -0.0348 -0.2164
  354PNCE   C3B 3183   7.113   4.978   6.924  0.2220 -0.3678  0.0832
  354PNCE   D4B 3184   7.154   4.960   6.407 -0.2160  0.0351 -0.3399
  354PNCE   C5B 3185   6.743   5.008   6.310  0.0416 -0.1207 -0.0120
  354PNCE   C6B 3186   6.402   5.297   6.040  0.2159 -0.1034  0.0707
  355XCA    COO 3187   9.052   9.853   5.090 -0.0581  0.2854 -0.1056
  355XCA     C1 3188   9.124   9.478   5.271 -0.2538  0.0044 -0.2179
  355XCA     C2 3189   8.921   9.390   5.661  0.3026  0.0123 -0.4376
  355XCA     C3 3190   8.700   9.300   6.060  0.0925  0.1927  0.0100
  355XCA     C4 3191   8.684   9.391   6.477  0.2395  0.1780 -0.0779
  355XCA     C5 3192   8.332   9.680   6.795 -0.0339  0.1002  0.0143
  355XCA     C6 3193   8.187   9.530   7.245 -0.0699 -0.1502  0.0958
  356CHOL   ROH 3194  10.728   6.199   4.221 -0.0404 -0.2953  0.0803
  356CHOL    R1 3195  10.671   6.370   4.439  0.1348 -0.1160 -0.0112
  356CHOL    R2 3196  10.475   6.312   4.626  0.0892  0.1763  0.0312
  356CHOL    R3 3197  10.679   6.347   4.802  0.1310  0.0810  0.0035
  356CHOL    R4 3198  10.441   6.322   4.970  0.1382  0.1466  0.0374
  356CHOL    R5 3199  10.586   6.483   4.975  0.2015  0.0969  0.0342
  356CHOL    C1 3200  10.612   6.360   5.335  0.2061  0.0399  0.0150
  356CHOL    C2 3201  10.506   6.418   5.705 -0.0239 -0.4628  0.0503
  357PNCE   AM1 3202   1.646  10.076   9.041 -0.1316  0.1140 -0.2019
  357PNCE   AM2 3203   1.339  10.087   9.087 -0.1456 -0.0594  0.0993
  357PNCE   T1A 3204   1.676  10.447   8.698 -0.2088 -0.1364  0.3641
  357PNCE   C2A 3205   1.743  10.647   8.371 -0.4182 -0.0443 -0.1208
  357PNCE   C3A 3206   1.766  10.763   7.982  0.1077 -0.3264 -0.1163
  357PNCE   C1B 3207   1.111  10.486   8.871  0.1087  0.0263  0.2558
  357PNCE   C2B 3208   0.708  10.776   8.865  0.0647 -0.1908  0.0781
  357PNCE   C3B 3209   0.276  11.046   9.022 -0.1715  0.0785  0.0712
  357PNCE   D4B 3210  -0.075  11.263   8.723  0.1283  0.1884  0.0748
  357PNCE   C5B 3211  -0.411  11.348   8.583  0.2216 -0.1102  0.4321
  357PNCE   C6B 3212  -0.645  11.641   8.402  0.1615  0.0917  0.1583
  358CHOL   ROH 3213   6.030  10.218   8.288  0.0736 -0.0065 -0.0257
  358CHOL    R1 3214   5.862  10.340   8.096  0.0674  0.0278  0.0006
  358CHOL    R2 3215   5.624  10.463   8.163  0.0708  0.0230  0.0308
  358CHOL    R3 3216   5.733  10.674   8.030  0.0719  0.0408  0.0608
  358CHOL    R4 3217   5.445  10.702   7.989  0.0784  0.0254  0.0272
  358CHOL    R5 3218   5.598  10.697   7.834  0.0961  0.0484  0.0469
  358CHOL    C1 3219   5.443  11.038   7.763  0.0838  0.0434  0.0532
  358CHOL    C2 3220   5.449  11.364   7.706  0.0742  0.3011  0.0458
  359XCA    COO 3221   1.855   2.008   9.157 -0.2536 -0.1071  0.1400
  359XCA     C1 3222   1.587   1.884   8.906  0.1165 -0.0805  0.1371
  359XCA     C2 3223   1.431   1.759   8.440  0.1777 -0.0721 -0.3218
  359XCA     C3 3224   1.116   1.693   8.140 -0.1010 -0.0982 -0.4961
  359XCA     C4 3225   1.262   1.769   7.776  0.4698 -0.0371  0.0310
  359XCA     C5 3226   1.442   2.028   7.504  0.3610  0.0856 -0.0197
  359XCA     C6 3227   1.725   1.988   7.353 -0.0748 -0.4833 -0.0493
  360PNCE   AM1 3228  10.239   7.020   8.305  0.3006 -0.0791  0.0500
  360PNCE   AM2 3229  10.073   6.840   8.046  0.0645  0.0894 -0.1132
  360PNCE   T1A 3230  10.635   7.225   8.258 -0.0272 -0.0253  0.0162
  360PNCE   C2A 3231  10.910   7.424   7.986  0.1001  0.2763  0.2592
  360PNCE   C3A 3232  10.805   7.553   7.616 -0.1711 -0.1588  0.5738
  360PNCE   C1B 3233  10.192   6.875   7.579  0.1267 -0.1282 -0.0558
  360PNCE   C2B 3234  10.336   6.813   7.154 -0.0949 -0.0164  0.1986
  360PNCE   C3B 3235  10.254   6.641   6.825 -0.0069 -0.1622 -0.1615
  360PNCE   D4B 3236   9.876   6.592   6.673  0.4640 -0.0884 -0.0346
  360PNCE   C5B 3237   9.475   6.661   6.575  0.0195 -0.0071 -0.0497
  360PNCE   C6B 3238   9.112   7.002   6.716 -0.1008 -0.3226  0.2687
  361XCA    COO 3239   3.448   6.189   8.202 -0.1295  0.1646 -0.1098
  361XCA     C1 3240   3.912   6.248   8.276  0.0572  0.2479 -0.2299
  361XCA     C2 3241   4.276   6.474   8.116  0.1343  0.1338 -0.2113
  361XCA     C3 3242   4.327   6.927   8.101 -0.0461  0.0119 -0.0884
  361XCA     C4 3243   4.286   7.356   8.094 -0.1980  0.1314 -0.0999
  361XCA     C5 3244   4.251   7.702   8.110  0.0669 -0.2047  0.1370
  361XCA     C6 3245   4.207   8.096   8.018  0.0736 -0.0598  0.3566
  362CHOL   ROH 3246   2.418   0.162   5.394  0.0513 -0.1371 -0.1696
  362CHOL    R1 3247   2.461   0.096   5.666 -0.0053 -0.0132 -0.1305
  362CHOL    R2 3248   2.704   0.007   5.761 -0.0935 -0.2058 -0.0889
  362CHOL    R3 3249   2.675   0.213   5.936  0.1278 -0.0662 -0.2111
  362CHOL    R4 3250   2.824   0.008   6.085 -0.2918 -0.2467 -0.0140
  362CHOL    R5 3251   2.639   0.106   6.147 -0.1813  0.0889 -0.1776
  362CHOL    C1 3252   2.866   0.203   6.438 -0.1994 -0.1395 -0.0851
  362CHOL    C2 3253   3.074   0.090   6.759  0.1407  0.0623  0.1532
  363CHOL   ROH 3254   0.487  12.165   8.780  0.1156  0.0513  0.0223
  363CHOL    R1 3255   0.594  12.278   8.543  0.0895  0.0536  0.0119
  363CHOL    R2 3256   0.861  12.345   8.517  0.1122 -0.0554 -0.0577
  363CHOL    R3 3257   0.846  12.187   8.296 -0.0272 -0.0064 -0.0846
  363CHOL    R4 3258   1.080  12.357   8.249  0.0101 -0.0873 -0.1441
  363CHOL    R5 3259   0.910  12.330   8.116 -0.0473  0.0002 -0.0825
  363CHOL    C1 3260   1.193  12.215   7.887 -0.1802 -0.0599 -0.2198
  363CHOL    C2 3261   1.638  12.322   7.858 -0.0887  0.2294 -0.2637
  364CHOL   ROH 3262   7.224  11.520   8.716 -0.1960  0.0947  0.0089
  364CHOL    R1 3263   7.307  11.466   8.451 -0.0623 -0.0791  0.0830
  364CHOL    R2 3264   7.256  11.225   8.326 -0.1790 -0.0942  0.1417
  364CHOL    R3 3265   7.146  11.384   8.135  0.0762 -0.0703  0.0124
  364CHOL    R4 3266   7.273  11.166   7.985  0.1198 -0.1271  0.1611
  364CHOL    R5 3267   7.305  11.380   7.955  0.2402 -0.1533  0.1658
  364CHOL    C1 3268   7.181  11.281   7.608  0.5333 -0.1238  0.0510
  364CHOL    C2 3269   7.321  11.476   7.273  0.0444 -0.0667 -0.2347
  365CHOL   ROH 3270   9.893   9.642   8.640 -0.2750 -0.1618 -0.1006
  365CHOL    R1 3271  10.053   9.779   8.451 -0.0993 -0.1385  0.0613
  365CHOL    R2 3272  10.213   9.648   8.268 -0.1687 -0.1250 -0.0113
  365CHOL    R3 3273  10.075   9.800   8.089  0.0126  0.1584  0.0825
  365CHOL    R4 3274  10.329   9.738   7.955 -0.1482 -0.2605 -0.0430
  365CHOL    R5 3275  10.242   9.936   7.985  0.2102 -0.1101  0.0390
  365CHOL    C1 3276  10.268   9.933   7.605  0.0339 -0.0733  0.0265
  365CHOL    C2 3277  10.389   9.958   7.163  0.1022  0.0485 -0.2038
  366PNCE   AM1 3278  15.471   5.583   8.186  0.0816  0.0666  0.0944
  366PNCE   AM2 3279  15.185   5.478   8.134 -0.1257  0.1263 -0.1277
  366PNCE   T1A 3280  15.321   5.757   7.736  0.1159 -0.1062 -0.2125
  366PNCE   C2A 3281  15.269   5.860   7.310 -0.0663 -0.2747  0.0760
  366PNCE   C3A 3282  15.373   6.064   6.922  0.1243 -0.0441 -0.1002
  366PNCE   C1B 3283  14.856   5.790   7.899  0.0971  0.0317 -0.0737
  366PNCE   C2B 3284  14.754   6.185   7.603 -0.1244 -0.1364  0.2270
  366PNCE   C3B 3285  14.754   6.411   7.234 -0.2041  0.2052 -0.1455
  366PNCE   D4B 3286  14.888   6.257   6.853  0.2023 -0.0247  0.2600
  366PNCE   C5B 3287  14.624   6.422   6.651  0.1142  0.2899  0.0114
  366PNCE   C6B 3288  14.203   6.456   6.457  0.1634 -0.2292  0.1366
  367CHOL   ROH 3289   7.544   4.422   7.913  0.2743 -0.0642  0.1879
  367CHOL    R1 3290   7.687   4.380   7.673  0.1418 -0.3419  0.1520
  367CHOL    R2 3291   7.602   4.203   7.478 -0.2542 -0.1785  0.1589
  367CHOL    R3 3292   7.625   4.421   7.317  0.1359 -0.2070  0.1695
  367CHOL    R4 3293   7.613   4.193   7.133 -0.3038 -0.1814  0.1592
  367CHOL    R5 3294   7.766   4.348   7.138 -0.0128 -0.4622  0.1540
  367CHOL    C1 3295   7.641   4.391   6.781  0.0336 -0.2099  0.1692
  367CHOL    C2 3296   7.411   4.587   6.577 -0.0661  0.1320 -0.2965
  368CHOL   ROH 3297   3.382   3.264   4.835 -0.2189  0.2246 -0.0611
  368CHOL    R1 3298   3.280   3.317   5.094 -0.1165  0.3946 -0.0554
  368CHOL    R2 3299   3.353   3.170   5.315 -0.4596  0.1691 -0.0911
  368CHOL    R3 3300   3.416   3.414   5.417  0.0902  0.0117 -0.0203
  368CHOL    R4 3301   3.351   3.250   5.652 -0.8655  0.2092 -0.0981
  368CHOL    R5 3302   3.264   3.443   5.600 -0.1960  0.4892 -0.3089
  368CHOL    C1 3303   3.408   3.525   5.943 -0.5857  0.0849 -0.0356
  368CHOL    C2 3304   3.696   3.775   6.218 -0.0783  0.1405 -0.3399
  369PNCE   AM1 3305   5.768  15.503   8.524  0.0103 -0.2134 -0.1584
  369PNCE   AM2 3306   6.172  15.563   8.551  0.1287 -0.0858 -0.1701
  369PNCE   T1A 3307   5.574  15.388   8.199  0.0877 -0.4448 -0.0507
  369PNCE   C2A 3308   5.215  15.451   7.824  0.0843 -0.0441 -0.0094
  369PNCE   C3A 3309   4.822  15.510   7.654 -0.0939 -0.0183 -0.2215
  369PNCE   C1B 3310   6.137  15.267   8.209  0.0652  0.1049  0.1309
  369PNCE   C2B 3311   5.965  14.979   7.977 -0.1474 -0.3267 -0.0539
  369PNCE   C3B 3312   5.969  14.889   7.493  0.0462  0.2326 -0.0192
  369PNCE   D4B 3313   6.134  14.733   7.100 -0.2992 -0.0845  0.1564
  369PNCE   C5B 3314   6.133  14.316   6.987 -0.0352 -0.0986  0.2081
  369PNCE   C6B 3315   5.886  14.030   6.796  0.1310 -0.2903  0.0400
  370PNCE   AM1 3316   4.236  13.968   9.395  0.3854  0.1920  0.1357
  370PNCE   AM2 3317   4.528  13.871   9.352  0.0410 -0.1827  0.2059
  370PNCE   T1A 3318   4.179  14.176   8.950  0.0826 -0.1913  0.2409
  370PNCE   C2A 3319   3.934  14.078   8.490 -0.2030  0.1448 -0.0451
  370PNCE   C3A 3320   4.058  14.299   8.092  0.2451  0.1057 -0.1282
  370PNCE   C1B 3321   4.551  13.848   8.982 -0.2381  0.0028 -0.0103
  370PNCE   C2B 3322   4.440  13.840   8.511  0.0566  0.0247  0.2975
  370PNCE   C3B 3323   4.323  13.921   8.213 -0.2144 -0.0871  0.1668
  370PNCE   D4B 3324   4.250  13.742   7.844 -0.2058  0.1099 -0.1433
  370PNCE   C5B 3325   4.450  13.860   7.373  0.0099 -0.3491 -0.1317
  370PNCE   C6B 3326   4.490  13.913   6.977 -0.1647  0.0838  0.2250
  371CHOL   ROH 3327   9.050  11.703   8.416  0.2243  0.0814  0.1602
  371CHOL    R1 3328   9.085  11.573   8.167  0.0752  0.1439  0.1049
  371CHOL    R2 3329   9.082  11.709   7.927  0.1973  0.2468  0.1566
  371CHOL    R3 3330   9.323  11.588   7.891  0.0745  0.0139  0.0980
  371CHOL    R4 3331   9.221  11.633   7.619  0.2661  0.5529  0.1089
  371CHOL    R5 3332   9.290  11.443   7.703 -0.0008  0.3389 -0.1451
  371CHOL    C1 3333   9.529  11.475   7.408  0.1910  0.5126  0.0262
  371CHOL    C2 3334   9.818  11.541   7.100 -0.1403 -0.0513  0.0882
  372CHOL   ROH 3335  13.984   1.858   4.534  0.0170  0.0190 -0.0209
  372CHOL    R1 3336  13.969   1.700   4.768  0.0463  0.0358 -0.0072
  372CHOL    R2 3337  14.085   1.775   5.007 -0.0138  0.1029  0.0008
  372CHOL    R3 3338  13.834   1.737   5.104 -0.0117  0.0174 -0.0278
  372CHOL    R4 3339  14.012   1.629   5.311  0.0031 -0.0235 -0.0558
  372CHOL    R5 3340  13.846   1.525   5.215  0.0276 -0.0228 -0.1044
  372CHOL    C1 3341  13.734   1.508   5.580  0.0149 -0.1773 -0.1156
  372CHOL    C2 3342  13.669   1.632   5.976  0.0254 -0.2143 -0.1072
  373CHOL   ROH 3343   5.267   0.524   4.828  0.0185 -0.1519  0.2317
  373CHOL    R1 3344   5.293   0.747   5.001  0.0857 -0.1804  0.2593
  373CHOL    R2 3345   5.117   0.960   4.997  0.2968 -0.0017  0.1044
  373CHOL    R3 3346   5.094   0.904   5.262  0.0039  0.0105  0.0841
  373CHOL    R4 3347   4.944   1.152   5.226  0.1791  0.0937 -0.0628
  373CHOL    R5 3348   5.104   1.117   5.370  0.0184  0.0028  0.0945
  373CHOL    C1 3349   4.821   1.211   5.608 -0.1643  0.1606 -0.1793
  373CHOL    C2 3350   4.640   1.251   5.993 -0.0562 -0.0069 -0.2089
  374XCA    COO 3351  12.759  12.899   5.336 -0.0835  0.3156 -0.1569
  374XCA     C1 3352  12.701  12.435   5.510  0.1179  0.2478 -0.1007
  374XCA     C2 3353  12.636  12.192   5.806 -0.2716 -0.2355 -0.1222
  374XCA     C3 3354  12.806  12.068   6.219  0.0752 -0.0253  0.1935
  374XCA     C4 3355  13.152  12.074   6.426 -0.2345 -0.1949  0.4511
  374XCA     C5 3356  13.361  12.209   6.750  0.0401  0.0453  0.3517
  374XCA     C6 3357  13.546  12.196   7.172 -0.0707  0.1194  0.3629
  375CHOL   ROH 3358   6.090   5.011   7.812  0.0755  0.0377  0.0634
  375CHOL    R1 3359   6.140   5.279   7.736  0.1120  0.0605  0.1642
  375CHOL    R2 3360   6.387   5.400   7.772  0.1989 -0.0588  0.0032
  375CHOL    R3 3361   6.364   5.450   7.505 -0.0323  0.0932  0.0485
  375CHOL    R4 3362   6.529   5.669   7.608  0.0982  0.0032  0.0171
  375CHOL    R5 3363   6.346   5.688   7.490 -0.0027  0.1029  0.1923
  375CHOL    C1 3364   6.590   5.873   7.262 -0.1773  0.1820  0.0678
  375CHOL    C2 3365   6.280   5.930   7.001  0.0197 -0.2083 -0.2661
  376PNCE   AM1 3366   7.478   8.706   8.893 -0.2872 -0.3341  0.1339
  376PNCE   AM2 3367   7.246   8.565   8.752 -0.0103  0.0580 -0.0124
  376PNCE   T1A 3368   7.626   9.006   8.501 -0.2507 -0.2508 -0.1070
  376PNCE   C2A 3369   7.591   9.120   7.975 -0.2046  0.0639 -0.4478
  376PNCE   C3A 3370   7.399   9.407   7.693 -0.2873  0.0892 -0.0608
  376PNCE   C1B 3371   6.976   8.438   8.444  0.2239  0.0731  0.2350
  376PNCE   C2B 3372   6.905   8.426   8.026  0.2825  0.2498  0.2497
  376PNCE   C3B 3373   7.121   8.607   7.743  0.1535 -0.1986  0.2578
  376PNCE   D4B 3374   7.251   8.425   7.280  0.0550  0.3022  0.0220
  376PNCE   C5B 3375   7.143   8.632   6.848 -0.0188 -0.1932 -0.4860
  376PNCE   C6B 3376   6.926   8.866   6.463 -0.1653  0.1571  0.2881
  377XCA    COO 3377  13.736   2.072   4.207  0.0277  0.1681 -0.0172
  377XCA     C1 3378  13.583   2.035   4.623 -0.4038  0.0316 -0.7107
  377XCA     C2 3379  13.600   2.082   4.989  0.3368 -0.1726  0.2321
  377XCA     C3 3380  13.627   2.052   5.363  0.0354 -0.0931 -0.1406
  377XCA     C4 3381  13.781   2.067   5.787  0.0189 -0.0185  0.2641
  377XCA     C5 3382  14.140   1.830   5.765  0.2915 -0.2162 -0.1333
  377XCA     C6 3383  14.226   1.318   5.619  0.1544 -0.2052 -0.0030
  378PNCE   AM1 3384   8.044   2.507   8.232 -0.4910 -0.0595  0.1398
  378PNCE   AM2 3385   7.709   2.423   8.114  0.1019  0.0557  0.0458
  378PNCE   T1A 3386   8.440   2.522   8.081 -0.2645 -0.0574 -0.2936
  378PNCE   C2A 3387   8.690   2.633   7.856 -0.0329  0.1530 -0.4664
  378PNCE   C3A 3388   9.096   2.659   7.638  0.1117 -0.0620  0.1013
  378PNCE   C1B 3389   7.673   2.597   7.728 -0.1141  0.3507 -0.0309
  378PNCE   C2B 3390   7.883   2.683   7.342 -0.0831  0.2632 -0.0775
  378PNCE   C3B 3391   7.697   2.537   7.061 -0.1819  0.0792  0.0026
  378PNCE   D4B 3392   7.558   2.200   6.862 -0.1482  0.4182 -0.1071
  378PNCE   C5B 3393   7.315   1.864   6.987 -0.2191  0.0017 -0.0493
  378PNCE   C6B 3394   6.842   1.678   6.890 -0.2829  0.2358 -0.0005
  379CHOL   ROH 3395  11.182  15.100   4.942  0.1069 -0.0736 -0.0567
  379CHOL    R1 3396  11.164  14.948   5.181  0.2904  0.0774  0.0571
  379CHOL    R2 3397  11.165  15.064   5.431 -0.0375  0.2868 -0.0296
  379CHOL    R3 3398  10.934  14.923   5.462  0.2063 -0.1291 -0.0287
  379CHOL    R4 3399  10.954  15.088   5.704 -0.1631  0.0244 -0.1009
  379CHOL    R5 3400  10.927  14.872   5.696  0.2378 -0.0350 -0.0084
  379CHOL    C1 3401  10.614  14.970   5.891 -0.0076 -0.5188 -0.1415
  379CHOL    C2 3402  10.824  14.966   6.167  0.1800 -0.1283 -0.0500
  380CHOL   ROH 3403   4.749  14.573   5.688 -0.3169  0.1757 -0.2242
  380CHOL    R1 3404   4.580  14.677   5.890 -0.2029  0.0096 -0.0391
  380CHOL    R2 3405   4.504  14.530   6.111  0.0870 -0.1054 -0.0130
  380CHOL    R3 3406   4.604  14.744   6.247  0.0759 -0.0847 -0.0375
  380CHOL    R4 3407   4.373  14.655   6.406  0.0255 -0.0282 -0.0724
  380CHOL    R5 3408   4.410  14.857   6.331  0.0642 -0.0470 -0.1104
  380CHOL    C1 3409   4.391  14.928   6.705 -0.0207  0.0363 -0.1300
  380CHOL    C2 3410   4.151  14.824   7.035 -0.0211 -0.0271 -0.1758
  381CHOL   ROH 3411   7.838  12.271   8.437  0.0659 -0.0575 -0.0279
  381CHOL    R1 3412   7.703  12.350   8.201 -0.0576 -0.0365  0.0488
  381CHOL    R2 3413   7.780  12.266   7.949 -0.0517  0.1602 -0.0209
  381CHOL    R3 3414   7.521  12.185   7.932  0.0075 -0.0389  0.0078
  381CHOL    R4 3415   7.609  12.211   7.654 -0.1211  0.2609  0.0005
  381CHOL    R5 3416   7.434  12.304   7.744 -0.1629  0.0419  0.1402
  381CHOL    C1 3417   7.266  12.103   7.467 -0.1060  0.1326  0.0399
  381CHOL    C2 3418   7.203  11.962   7.151 -0.2342  0.0673  0.2899
  382PNCE   AM1 3419   2.347  10.024   9.484 -0.3808  0.0562 -0.4040
  382PNCE   AM2 3420   2.114   9.874   9.332  0.1553  0.2319 -0.0327
  382PNCE   T1A 3421   2.676  10.346   9.416  0.2522 -0.2587 -0.0067
  382PNCE   C2A 3422   2.920  10.689   9.323  0.0600 -0.1040 -0.0473
  382PNCE   C3A 3423   3.241  11.087   9.247 -0.1854 -0.2694 -0.0712
  382PNCE   C1B 3424   2.229  10.098   9.029 -0.2387  0.0246  0.1257
  382PNCE   C2B 3425   2.195  10.456   8.638 -0.1366  0.1080  0.1386
  382PNCE   C3B 3426   2.511  10.675   8.250 -0.0282 -0.2101  0.1796
  382PNCE   D4B 3427   2.659  10.870   7.801 -0.1652 -0.0174  0.0299
  382PNCE   C5B 3428   2.887  11.372   7.733  0.0601 -0.0573  0.1105
  382PNCE   C6B 3429   3.168  11.600   7.525  0.1567  0.1845  0.1234
  383PNCE   AM1 3430  10.304   5.660   8.293  0.1390 -0.0827 -0.0660
  383PNCE   AM2 3431  10.028   5.683   8.474 -0.1092 -0.0029  0.3814
  383PNCE   T1A 3432  10.294   5.504   7.912  0.2862 -0.0630 -0.1464
  383PNCE   C2A 3433  10.214   5.462   7.428  0.0865  0.1351  0.2046
  383PNCE   C3A 3434  10.436   5.635   7.152  0.1213  0.2233 -0.0013
  383PNCE   C1B 3435   9.854   5.778   8.020  0.2287  0.2117  0.1676
  383PNCE   C2B 3436  10.007   5.848   7.657  0.0396  0.0396  0.1073
  383PNCE   C3B 3437   9.946   5.876   7.184 -0.1226  0.2492 -0.3644
  383PNCE   D4B 3438   9.657   5.889   6.979 -0.1994 -0.1732 -0.0386
  383PNCE   C5B 3439   9.238   6.102   7.119  0.0747 -0.1568 -0.0738
  383PNCE   C6B 3440   8.928   5.951   7.053 -0.0250  0.0414 -0.2763
  384PNCE   AM1 3441   7.494  14.578   8.680 -0.2207 -0.0202 -0.2097
  384PNCE   AM2 3442   7.635  14.289   8.788 -0.0388 -0.2089  0.1071
  384PNCE   T1A 3443   7.383  14.519   8.262 -0.0127 -0.0665 -0.1363
  384PNCE   C2A 3444   7.343  14.610   7.896  0.1723  0.2730  0.2573
  384PNCE   C3A 3445   6.950  14.661   7.610  0.0927  0.0666 -0.1034
  384PNCE   C1B 3446   7.893  14.568   8.359  0.0058  0.2330  0.2079
  384PNCE   C2B 3447   8.165  14.874   8.207 -0.1679  0.0318  0.1648
  384PNCE   C3B 3448   8.332  15.147   7.937  0.2254  0.1829  0.0439
  384PNCE   D4B 3449   8.510  15.123   7.492 -0.3972 -0.1658 -0.2273
  384PNCE   C5B 3450   8.417  15.364   7.125 -0.2096  0.0726 -0.0470
  384PNCE   C6B 3451   8.538  15.745   7.070  0.3072  0.0212 -0.0334
  385CHOL   ROH 3452   0.080  11.281   7.716  0.4139  0.1225  0.1945
  385CHOL    R1 3453  -0.047  11.110   7.903  0.1899  0.0825  0.0114
  385CHOL    R2 3454   0.093  10.975   8.100 -0.0209 -0.0911  0.0486
  385CHOL    R3 3455  -0.086  11.096   8.264 -0.0859 -0.0904 -0.0228
  385CHOL    R4 3456  -0.053  10.827   8.375 -0.1202 -0.0827  0.0003
  385CHOL    R5 3457  -0.241  10.923   8.321 -0.1017 -0.0911 -0.0731
  385CHOL    C1 3458  -0.307  10.854   8.690 -0.2390 -0.0771 -0.0949
  385CHOL    C2 3459  -0.154  10.769   8.842 -0.1532 -0.0312 -0.2958
  386PNCE   AM1 3460   2.027   0.917   9.286  0.0778 -0.0911  0.1353
  386PNCE   AM2 3461   1.903   0.638   9.272  0.0320 -0.3370 -0.1223
  386PNCE   T1A 3462   1.623   0.999   9.231 -0.0196 -0.3971 -0.3218
  386PNCE   C2A 3463   1.185   0.978   8.990 -0.1444 -0.1365 -0.2038
  386PNCE   C3A 3464   0.690   0.901   8.945  0.2740  0.3518  0.2000
  386PNCE   C1B 3465   1.936   0.570   8.803 -0.1679  0.2128 -0.1177
  386PNCE   C2B 3466   2.212   0.695   8.425 -0.1404 -0.0488 -0.2601
  386PNCE   C3B 3467   2.501   0.899   8.159  0.1157 -0.1964 -0.2073
  386PNCE   D4B 3468   2.824   0.937   7.858  0.1455 -0.2532 -0.0901
  386PNCE   C5B 3469   2.759   0.943   7.469 -0.0755  0.1069  0.2275
  386PNCE   C6B 3470   2.634   1.084   7.141  0.0931 -0.1522  0.1628
  387CHOL   ROH 3471   3.973  13.819   7.079 -0.1093  0.0565  0.1291
  387CHOL    R1 3472   3.708  13.806   7.178 -0.0885 -0.1957  0.1543
  387CHOL    R2 3473   3.636  13.647   7.391  0.1433 -0.0631  0.3256
  387CHOL    R3 3474   3.538  13.880   7.491 -0.1752 -0.0849  0.0845
  387CHOL    R4 3475   3.438  13.671   7.673  0.3907 -0.0334  0.5027
  387CHOL    R5 3476   3.319  13.823   7.569 -0.0027 -0.3883  0.3935
  387CHOL    C1 3477   3.230  13.904   7.931  0.2359 -0.0367  0.3795
  387CHOL    C2 3478   3.124  13.555   8.143  0.0360  0.0325  0.1963
  388CHOL   ROH 3479   2.959   5.980   8.525 -0.0396  0.0423 -0.0738
  388CHOL    R1 3480   3.051   6.012   8.259  0.0807 -0.0666 -0.0463
  388CHOL    R2 3481   3.175   5.808   8.119 -0.0551 -0.1942  0.0149
  388CHOL    R3 3482   2.982   5.862   7.935  0.0536 -0.0353 -0.0546
  388CHOL    R4 3483   3.205   5.756   7.779  0.0451 -0.1597  0.0185
  388CHOL    R5 3484   3.101   5.945   7.745  0.1846 -0.0848  0.0060
  388CHOL    C1 3485   3.042   5.777   7.408  0.2055  0.0095 -0.0446
  388CHOL    C2 3486   3.166   5.840   7.054  0.0936 -0.2819  0.0219
  389PNCE   AM1 3487   7.921  15.053   4.603 -0.2075 -0.2124  0.1957
  389PNCE   AM2 3488   8.052  15.437   4.466  0.1240  0.1655  0.3102
  389PNCE   T1A 3489   7.616  15.134   4.977  0.4887  0.1265 -0.0803
  389PNCE   C2A 3490   7.664  15.050   5.390  0.2729 -0.2338 -0.0072
  389PNCE   C3A 3491   7.570  15.193   5.784 -0.1768 -0.0401 -0.2954
  389PNCE   C1B 3492   7.677  15.554   4.659  0.1848  0.0632 -0.1405
  389PNCE   C2B 3493   7.252  15.678   4.830 -0.0235 -0.1895  0.0158
  389PNCE   C3B 3494   7.046  15.866   5.236  0.2496  0.3401  0.1130
  389PNCE   D4B 3495   6.881  16.318   5.329 -0.0274  0.1790  0.0235
  389PNCE   C5B 3496   6.435  16.410   5.248 -0.0302 -0.0862  0.3116
  389PNCE   C6B 3497   6.044  16.643   5.292 -0.2404  0.0649 -0.0391
  390CHOL   ROH 3498  13.598  12.800   5.657  0.0779  0.1406  0.1819
  390CHOL    R1 3499  13.795  12.767   5.858  0.0742  0.1049  0.1798
  390CHOL    R2 3500  13.838  12.956   6.055  0.1337  0.1133  0.1598
  390CHOL    R3 3501  13.800  12.743   6.221  0.0768  0.1406  0.1820
  390CHOL    R4 3502  14.009  12.902   6.351  0.1978  0.0386  0.1096
  390CHOL    R5 3503  14.019  12.690   6.301  0.0741  0.0317  0.1167
  390CHOL    C1 3504  14.073  12.671   6.678  0.1816  0.0209  0.1012
  390CHOL    C2 3505  14.135  12.769   7.031  0.0345 -0.2879  0.0280
  391XCA    COO 3506   9.533   5.525   8.580  0.0577 -0.2382  0.0255
  391XCA     C1 3507   9.456   5.533   8.166  0.2688  0.1236  0.1366
  391XCA     C2 3508   9.279   5.529   7.721  0.2302  0.0902 -0.0030
  391XCA     C3 3509   9.216   5.632   7.349 -0.3637  0.0117 -0.1949
  391XCA     C4 3510   9.154   5.529   6.918  0.1244 -0.0053  0.1360
  391XCA     C5 3511   8.979   5.700   6.556 -0.0170 -0.1481 -0.3874
  391XCA     C6 3512   9.137   5.797   6.203  0.3150  0.3022  0.2564
  392CHOL   ROH 3513   4.799   7.282   6.597  0.1528  0.0144 -0.1649
  392CHOL    R1 3514   5.008   7.441   6.493  0.1803  0.0486 -0.0587
  392CHOL    R2 3515   4.989   7.574   6.251  0.2853  0.0388 -0.0754
  392CHOL    R3 3516   5.054   7.791   6.402  0.1653  0.0536 -0.0447
  392CHOL    R4 3517   5.193   7.832   6.147  0.3378  0.0492  0.0522
  392CHOL    R5 3518   5.282   7.836   6.346  0.1996  0.0693  0.1121
  392CHOL    C1 3519   5.373   8.187   6.227  0.2557  0.0692  0.1553
  392CHOL    C2 3520   5.592   8.296   5.974 -0.0717 -0.2124 -0.0317
  393XCA    COO 3521  11.896   0.920   4.449 -0.1038 -0.1241 -0.0440
  393XCA     C1 3522  11.481   1.066   4.588 -0.0943 -0.1234 -0.3470
  393XCA     C2 3523  11.427   1.566   4.625 -0.3389 -0.0624  0.0505
  393XCA     C3 3524  11.451   1.824   4.969 -0.1138 -0.0915 -0.3425
  393XCA     C4 3525  11.195   2.088   5.228 -0.0737 -0.3631  0.0608
  393XCA     C5 3526  10.863   2.424   5.401 -0.0237 -0.2047  0.0832
  393XCA     C6 3527  10.855   2.770   5.595 -0.3295 -0.1875 -0.0898
  394PNCE   AM1 3528   2.442   7.331   8.428 -0.1004 -0.1385  0.1968
  394PNCE   AM2 3529   2.734   7.447   8.418 -0.0282  0.1474 -0.1437
  394PNCE   T1A 3530   2.250   7.047   8.180 -0.0103 -0.0017  0.0699
  394PNCE   C2A 3531   2.270   6.892   7.750  0.1109  0.5691 -0.0872
  394PNCE   C3A 3532   2.157   6.647   7.393 -0.0244  0.2461  0.0360
  394PNCE   C1B 3533   3.087   7.577   8.071  0.0281 -0.0891  0.0100
  394PNCE   C2B 3534   3.412   7.767   7.959  0.1147 -0.3027  0.0644
  394PNCE   C3B 3535   3.814   7.599   7.779  0.1413  0.0416 -0.2939
  394PNCE   D4B 3536   3.974   7.610   7.385  0.0973  0.1043 -0.0470
  394PNCE   C5B 3537   3.908   7.574   6.968  0.1124 -0.1846  0.0682
  394PNCE   C6B 3538   4.033   7.707   6.537  0.0105 -0.2230  0.0214
  395CHOL   ROH 3539   3.021  13.449   5.335 -0.1132 -0.1826  0.0898
  395CHOL    R1 3540   3.148  13.496   5.584 -0.0095 -0.1261  0.0293
  395CHOL    R2 3541   3.027  13.636   5.790  0.0737 -0.0696  0.0555
  395CHOL    R3 3542   3.086  13.412   5.932  0.1239 -0.0444  0.0698
  395CHOL    R4 3543   2.994  13.606   6.132  0.2266 -0.0287  0.0727
  395CHOL    R5 3544   3.181  13.494   6.136  0.2117 -0.0299  0.0118
  395CHOL    C1 3545   3.030  13.378   6.466  0.3628  0.0189  0.0961
  395CHOL    C2 3546   2.853  13.477   6.721  0.4051 -0.0737 -0.4175
  396CHOL   ROH 3547  13.974   2.719   8.019 -0.2339 -0.1491  0.1479
  396CHOL    R1 3548  13.888   2.705   7.749 -0.0657  0.0045  0.0859
  396CHOL    R2 3549  14.049   2.783   7.538  0.1854 -0.1729  0.2121
  396CHOL    R3 3550  13.995   2.533   7.447 -0.0812 -0.0908  0.1328
  396CHOL    R4 3551  14.143   2.661   7.229  0.0078 -0.1537  0.1480
  396CHOL    R5 3552  13.949   2.563   7.214 -0.0977  0.0414  0.1493
  396CHOL    C1 3553  14.147   2.355   6.963 -0.3459 -0.0656  0.0363
  396CHOL    C2 3554  14.023   2.155   6.585  0.0841 -0.0890  0.1339
  397PNCE   AM1 3555  13.439   6.202   8.454 -0.0343  0.3038 -0.0540
  397PNCE   AM2 3556  13.641   6.445   8.522  0.4300 -0.0940 -0.1937
  397PNCE   T1A 3557  13.337   6.293   8.025  0.0991 -0.0867 -0.0725
  397PNCE   C2A 3558  13.409   6.450   7.550  0.2299 -0.0151  0.3253
  397PNCE   C3A 3559  13.835   6.434   7.433 -0.1129 -0.2993 -0.1865
  397PNCE   C1B 3560  13.709   6.778   8.248  0.0527  0.0773  0.2096
  397PNCE   C2B 3561  13.653   6.848   7.855  0.1954 -0.0466  0.1691
  397PNCE   C3B 3562  13.606   7.029   7.427  0.0038 -0.0673  0.0953
  397PNCE   D4B 3563  13.521   6.736   7.072 -0.1557  0.0493  0.1105
  397PNCE   C5B 3564  13.505   6.272   7.086 -0.4113 -0.1597 -0.1136
  397PNCE   C6B 3565  13.866   5.954   7.268  0.0882 -0.0690 -0.0661
  398CHOL   ROH 3566   6.619   7.704   8.686  0.3355  0.3182  0.2005
  398CHOL    R1 3567   6.379   7.768   8.551  0.1824  0.3850  0.4947
  398CHOL    R2 3568   6.266   8.020   8.559  0.5448  0.5681  0.2267
  398CHOL    R3 3569   6.276   7.998   8.289  0.0558  0.0358  0.2285
  398CHOL    R4 3570   6.107   8.233   8.338  0.3617  0.2979  0.0931
  398CHOL    R5 3571   6.056   8.060   8.216 -0.0224  0.0975  0.4989
  398CHOL    C1 3572   6.024   8.336   7.955 -0.2040 -0.3593  0.0170
  398CHOL    C2 3573   6.099   8.479   7.580 -0.2746 -0.1084  0.3407
  399CHOL   ROH 3574  14.242  11.849   6.586  0.0814 -0.0213 -0.0263
  399CHOL    R1 3575  13.993  11.730   6.649  0.0909 -0.0775 -0.0967
  399CHOL    R2 3576  13.889  11.728   6.905  0.0416 -0.1413 -0.1198
  399CHOL    R3 3577  13.673  11.840   6.784  0.0423 -0.1608 -0.1406
  399CHOL    R4 3578  13.568  11.730   7.034  0.0909  0.1047  0.0049
  399CHOL    R5 3579  13.492  11.692   6.833 -0.0013 -0.0461  0.0642
  399CHOL    C1 3580  13.179  11.837   6.995  0.1202  0.2297  0.0581
  399CHOL    C2 3581  12.841  12.122   7.152  0.4407 -0.2474  0.2606
  400XCA    COO 3582  14.150  12.337   8.999 -0.1501  0.0172  0.0259
  400XCA     C1 3583  14.515  12.428   8.721  0.1469  0.1332 -0.2623
  400XCA     C2 3584  14.494  12.356   8.419 -0.1747  0.2035 -0.0130
  400XCA     C3 3585  14.853  12.425   8.159 -0.0417 -0.0801 -0.1830
  400XCA     C4 3586  15.049  12.586   7.688  0.2248 -0.1424 -0.2744
  400XCA     C5 3587  15.345  12.846   7.552  0.1341 -0.0419 -0.1205
  400XCA     C6 3588  15.714  12.895   7.425  0.2147  0.2166  0.1106
  401CHOL   ROH 3589   4.245   0.831   7.147  0.1439  0.1199 -0.1459
  401CHOL    R1 3590   4.030   1.001   7.218  0.1152  0.0590 -0.0852
  401CHOL    R2 3591   3.823   1.060   7.045  0.1046  0.0876 -0.0656
  401CHOL    R3 3592   3.669   0.971   7.250  0.1204 -0.0138 -0.0974
  401CHOL    R4 3593   3.512   1.186   7.127  0.1753  0.1479  0.1161
  401CHOL    R5 3594   3.566   1.169   7.337  0.2216 -0.0424  0.0886
  401CHOL    C1 3595   3.186   1.176   7.366  0.2315  0.0879  0.1919
  401CHOL    C2 3596   2.937   1.462   7.389  0.0721  0.0642 -0.1726
  402CHOL   ROH 3597  15.007   3.107   7.648 -0.1285 -0.0065  0.0122
  402CHOL    R1 3598  14.809   3.088   7.446 -0.0788 -0.1185 -0.0279
  402CHOL    R2 3599  14.847   3.186   7.191 -0.1440  0.0560  0.0244
  402CHOL    R3 3600  14.780   2.933   7.118  0.1441  0.0150 -0.1118
  402CHOL    R4 3601  14.642   3.106   6.925 -0.3212 -0.0201  0.1821
  402CHOL    R5 3602  14.551   2.951   7.048  0.0381 -0.2590  0.1542
  402CHOL    C1 3603  14.459   2.822   6.701 -0.1538 -0.1029  0.1462
  402CHOL    C2 3604  14.310   2.591   6.506 -0.0524  0.0436  0.2236
  403XCA    COO 3605  13.546  11.117   4.749  0.1809  0.1947  0.0297
  403XCA     C1 3606  13.492  11.170   5.259 -0.2612 -0.0461  0.3460
  403XCA     C2 3607  13.351  11.281   5.726 -0.1129  0.1804  0.2254
  403XCA     C3 3608  13.423  11.336   6.092  0.0900 -0.0258  0.2116
  403XCA     C4 3609  13.172  11.578   6.458  0.1282 -0.0274  0.0051
  403XCA     C5 3610  12.810  11.751   6.721  0.0035 -0.2101  0.1124
  403XCA     C6 3611  12.465  11.867   6.984  0.1317  0.3241 -0.1064
  404XCA    COO 3612   1.410   4.430   4.838  0.1055 -0.2250 -0.1597
  404XCA     C1 3613   1.233   4.540   5.224  0.1062  0.2607 -0.1084
  404XCA     C2 3614   1.069   4.173   5.560 -0.0392 -0.0066  0.1674
  404XCA     C3 3615   1.042   3.903   5.897  0.0399  0.0833  0.0274
  404XCA     C4 3616   0.857   4.120   6.214  0.3661  0.2974  0.0262
  404XCA     C5 3617   0.645   3.975   6.574 -0.0374 -0.1328  0.3922
  404XCA     C6 3618   0.256   4.063   6.884  0.3294  0.0828 -0.1253
  405PNCE   AM1 3619   4.060  11.652   5.492  0.1680 -0.0669  0.0935
  405PNCE   AM2 3620   3.842  11.364   5.582  0.1122 -0.0800 -0.2231
  405PNCE   T1A 3621   3.786  11.951   5.635  0.2493  0.0371 -0.3214
  405PNCE   C2A 3622   3.504  12.096   6.045  0.0938 -0.1025  0.1379
  405PNCE   C3A 3623   3.396  12.159   6.419  0.0621  0.0905 -0.1447
  405PNCE   C1B 3624   3.635  11.155   5.957 -0.2893  0.2072  0.4106
  405PNCE   C2B 3625   3.833  11.135   6.287  0.0063 -0.0123  0.0493
  405PNCE   C3B 3626   3.843  11.142   6.662  0.0199  0.3223 -0.1360
  405PNCE   D4B 3627   3.656  11.211   7.049  0.2841  0.0466 -0.1591
  405PNCE   C5B 3628   3.164  11.302   6.909 -0.1716 -0.1436 -0.1948
  405PNCE   C6B 3629   2.872  11.653   7.063 -0.5517 -0.1709  0.1738
  406PNCE   AM1 3630   0.084   8.463   8.412 -0.3766 -0.2163 -0.0728
  406PNCE   AM2 3631  -0.210   8.290   8.294 -0.1565  0.0045 -0.1016
  406PNCE   T1A 3632  -0.107   8.663   8.015 -0.0917 -0.1654 -0.0925
  406PNCE   C2A 3633  -0.049   8.842   7.606 -0.3256 -0.1079 -0.0221
  406PNCE   C3A 3634   0.178   8.732   7.205  0.2268 -0.1403 -0.1937
  406PNCE   C1B 3635  -0.260   8.131   7.900  0.0355 -0.0166  0.1443
  406PNCE   C2B 3636   0.049   8.274   7.520  0.1698 -0.0785 -0.0128
  406PNCE   C3B 3637   0.425   8.223   7.228  0.3654  0.0357 -0.3596
  406PNCE   D4B 3638   0.651   8.200   6.857 -0.2931 -0.1686  0.3179
  406PNCE   C5B 3639   0.389   8.193   6.445 -0.4920  0.0844  0.0764
  406PNCE   C6B 3640   0.197   7.932   6.154  0.3224 -0.1224  0.3609
  407PNCE   AM1 3641   3.632  12.501   9.202  0.2935 -0.1340 -0.0529
  407PNCE   AM2 3642   3.523  12.254   9.476  0.1503 -0.2326  0.0798
  407PNCE   T1A 3643   3.672  12.285   8.803  0.1672 -0.3531  0.4023
  407PNCE   C2A 3644   3.574  12.130   8.345  0.2488  0.1128 -0.0709
  407PNCE   C3A 3645   3.419  12.164   7.894 -0.0348  0.0379 -0.1236
  407PNCE   C1B 3646   3.496  11.913   9.242  0.0351 -0.1452 -0.2107
  407PNCE   C2B 3647   3.535  11.804   8.799  0.3327 -0.2234  0.2802
  407PNCE   C3B 3648   3.778  11.601   8.474 -0.1855  0.0643  0.1707
  407PNCE   D4B 3649   4.301  11.527   8.543  0.0585 -0.0353  0.0192
  407PNCE   C5B 3650   4.552  11.282   8.784 -0.2259 -0.1599 -0.5201
  407PNCE   C6B 3651   4.624  10.925   9.017 -0.0082  0.2039  0.0472
  408XCA    COO 3652   0.825   8.760   8.676  0.1342  0.1018  0.0388
  408XCA     C1 3653   0.874   9.037   8.389  0.1802 -0.0814  0.2086
  408XCA     C2 3654   0.962   9.331   8.177 -0.1815  0.2798 -0.2054
  408XCA     C3 3655   0.853   9.341   7.703  0.0196  0.1233  0.0153
  408XCA     C4 3656   0.898   9.495   7.346 -0.1791 -0.1287  0.0271
  408XCA     C5 3657   1.260   9.571   7.074 -0.0233 -0.1656  0.0668
  408XCA     C6 3658   1.539  10.006   7.025 -0.2390 -0.1606  0.1022
  409XCA    COO 3659   5.566   0.237   8.874 -0.2907 -0.2344  0.0009
  409XCA     C1 3660   5.601   0.240   8.527 -0.1852  0.2117  0.0906
  409XCA     C2 3661   5.523   0.106   8.103 -0.0690 -0.0732 -0.0794
  409XCA     C3 3662   5.674  -0.129   7.712 -0.3318  0.0658 -0.2414
  409XCA     C4 3663   5.673  -0.421   7.403 -0.1037  0.0807 -0.0812
  409XCA     C5 3664   5.701  -0.760   7.030  0.1767  0.0539  0.1105
  409XCA     C6 3665   5.738  -1.160   6.824  0.1549 -0.1398  0.0422
  410CHOL   ROH 3666   3.193   2.799   4.777 -0.0155  0.3173 -0.0591
  410CHOL    R1 3667   3.182   2.911   5.036 -0.0250  0.2312 -0.0198
  410CHOL    R2 3668   2.993   2.837   5.224 -0.0042  0.1275 -0.0255
  410CHOL    R3 3669   3.212   2.790   5.378  0.0200  0.1201 -0.0656
  410CHOL    R4 3670   2.988   2.800   5.567  0.0629  0.0573 -0.0335
  410CHOL    R5 3671   3.172   2.916   5.578  0.0443  0.0689 -0.0367
  410CHOL    C1 3672   3.190   2.734   5.912  0.1247  0.0096 -0.0757
  410CHOL    C2 3673   3.377   2.818   6.191  0.0608 -0.0352  0.1777
  411PNCE   AM1 3674  13.348  13.239   9.704 -0.2399  0.3279  0.0404
  411PNCE   AM2 3675  13.695  13.055   9.534  0.2745  0.0255 -0.3165
  411PNCE   T1A 3676  13.235  13.175   9.260  0.0598 -0.1100 -0.0958
  411PNCE   C2A 3677  13.242  12.978   8.816  0.2621 -0.0418  0.0902
  411PNCE   C3A 3678  13.321  12.912   8.445  0.1619  0.1014 -0.0729
  411PNCE   C1B 3679  13.726  13.002   9.104 -0.2985 -0.1940 -0.2054
  411PNCE   C2B 3680  13.655  13.287   8.715 -0.0792  0.3954  0.0211
  411PNCE   C3B 3681  13.477  13.770   8.697 -0.1073 -0.0473 -0.1016
  411PNCE   D4B 3682  13.604  14.037   8.715 -0.1330 -0.2032 -0.2721
  411PNCE   C5B 3683  13.857  14.166   8.378 -0.0125 -0.0642 -0.1305
  411PNCE   C6B 3684  13.990  14.494   8.169  0.0261  0.0077 -0.0852
  412CHOL   ROH 3685  13.664   8.389   6.144  0.3050 -0.1277  0.1498
  412CHOL    R1 3686  13.828   8.573   6.283  0.2308 -0.0624  0.1539
  412CHOL    R2 3687  13.876   8.829   6.190  0.2578 -0.0902  0.0743
  412CHOL    R3 3688  13.787   8.901   6.437  0.1356 -0.0053  0.0056
  412CHOL    R4 3689  14.034   9.055   6.399  0.3504 -0.2985  0.2318
  412CHOL    R5 3690  13.987   8.925   6.567  0.0518 -0.2559  0.1792
  412CHOL    C1 3691  14.042   9.254   6.752  0.2896 -0.3402  0.2590
  412CHOL    C2 3692  14.245   9.447   6.479 -0.2544  0.0232  0.4280
  413CHOL   ROH 3693  11.776   0.012   6.047 -0.0026  0.0173 -0.0748
  413CHOL    R1 3694  11.775   0.149   6.294 -0.0115  0.0125 -0.0727
  413CHOL    R2 3695  11.546   0.260   6.402 -0.0269 -0.0499 -0.0470
  413CHOL    R3 3696  11.614   0.110   6.618  0.0345 -0.0338 -0.0545
  413CHOL    R4 3697  11.499   0.354   6.732 -0.0450 -0.0705 -0.0434
  413CHOL    R5 3698  11.694   0.268   6.779 -0.0110 -0.0075 -0.0546
  413CHOL    C1 3699  11.536   0.267   7.126  0.0019 -0.0674 -0.0483
  413CHOL    C2 3700  11.568   0.619   7.420  0.0255  0.0556  0.1213
  414CHOL   ROH 3701   1.951   1.196   8.865  0.0814 -0.0509  0.0140
  414CHOL    R1 3702   2.061   1.159   8.607 -0.1506 -0.1501 -0.0761
  414CHOL    R2 3703   1.923   1.222   8.376 -0.2327  0.1099  0.0217
  414CHOL    R3 3704   2.144   1.370   8.322 -0.0508 -0.1923 -0.0723
  414CHOL    R4 3705   2.017   1.327   8.061 -0.2518  0.0800  0.0079
  414CHOL    R5 3706   2.224   1.282   8.114 -0.2947 -0.2310 -0.1376
  414CHOL    C1 3707   2.280   1.526   7.826 -0.0923 -0.2212 -0.0885
  414CHOL    C2 3708   2.419   1.473   7.466 -0.1438 -0.0665  0.0373
  415XCA    COO 3709   0.850  10.723   4.757  0.3506  0.2009  0.2738
  415XCA     C1 3710   0.736  10.968   5.089 -0.0202 -0.0850  0.0490
  415XCA     C2 3711   0.810  11.104   5.528  0.2772 -0.0890  0.1544
  415XCA     C3 3712   0.566  11.155   5.834  0.0866 -0.1468  0.2021
  415XCA     C4 3713   0.592  10.999   6.158 -0.2514 -0.2485  0.0580
  415XCA     C5 3714   0.283  10.816   6.476 -0.2884  0.4147 -0.0813
  415XCA     C6 3715   0.155  10.786   6.929  0.2213 -0.0716  0.0205
  416PNCE   AM1 3716   8.134  14.172   8.690 -0.0890  0.3076 -0.0870
  416PNCE   AM2 3717   8.356  14.017   8.653  0.2057  0.1484 -0.3077
  416PNCE   T1A 3718   7.982  14.115   8.329 -0.3244 -0.1507 -0.0695
  416PNCE   C2A 3719   7.849  14.293   7.902 -0.0557  0.1051 -0.0106
  416PNCE   C3A 3720   7.854  14.131   7.601  0.3508  0.2608 -0.0398
  416PNCE   C1B 3721   8.346  13.791   8.218  0.2485  0.3221 -0.0915
  416PNCE   C2B 3722   7.967  13.738   7.934  0.0209  0.0368 -0.0393
  416PNCE   C3B 3723   7.776  13.602   7.511 -0.1547  0.2248 -0.0951
  416PNCE   D4B 3724   7.480  13.907   7.323 -0.0084  0.0043 -0.1944
  416PNCE   C5B 3725   7.070  13.962   7.010  0.3129 -0.2116 -0.0524
  416PNCE   C6B 3726   7.015  13.498   6.941 -0.2014 -0.0320 -0.1073
  417CHOL   ROH 3727  11.184   8.118   6.488 -0.1589  0.0320  0.0533
  417CHOL    R1 3728  11.278   7.854   6.529 -0.0460  0.0867  0.1447
  417CHOL    R2 3729  11.520   7.766   6.429 -0.0948  0.1054  0.0204
  417CHOL    R3 3730  11.566   7.698   6.689  0.1227  0.2713  0.0292
  417CHOL    R4 3731  11.774   7.558   6.537 -0.3740 -0.3372 -0.1475
  417CHOL    R5 3732  11.634   7.469   6.679 -0.3813  0.0995  0.1467
  417CHOL    C1 3733  11.965   7.373   6.844 -0.3324 -0.4392 -0.2369
  417CHOL    C2 3734  12.258   7.230   6.967 -0.5272 -0.0859 -0.0651
  418CHOL   ROH 3735  12.234  11.773   4.819 -0.0134  0.3190  0.0911
  418CHOL    R1 3736  12.103  11.664   5.046 -0.1000  0.1737 -0.0257
  418CHOL    R2 3737  12.200  11.696   5.303 -0.1126 -0.1212  0.0224
  418CHOL    R3 3738  11.951  11.793   5.350 -0.0655 -0.0286  0.0781
  418CHOL    R4 3739  12.042  11.694   5.610 -0.1191 -0.2280  0.0179
  418CHOL    R5 3740  11.857  11.641   5.509 -0.1420 -0.0765 -0.0154
  418CHOL    C1 3741  11.716  11.784   5.833 -0.0787 -0.2033  0.0675
  418CHOL    C2 3742  11.509  11.691   6.126  0.1943 -0.0333 -0.0219
  419XCA    COO 3743  10.609  11.158   4.802 -0.1693 -0.0482  0.1979
  419XCA     C1 3744  10.510  11.018   5.268  0.0139  0.2025  0.3781
  419XCA     C2 3745  10.449  11.062   5.628  0.3784 -0.0737  0.0186
  419XCA     C3 3746  10.389  11.175   6.012 -0.0508  0.1646  0.5111
  419XCA     C4 3747  10.380  11.023   6.452 -0.1925  0.0821  0.4288
  419XCA     C5 3748  10.169  10.952   6.811 -0.1116  0.0237  0.3178
  419XCA     C6 3749   9.930  10.574   6.941 -0.0131  0.0762 -0.1617
  420PNCE   AM1 3750   5.432   4.186   7.815 -0.0859 -0.0558  0.0817
  420PNCE   AM2 3751   5.735   4.366   7.975 -0.0916 -0.1455 -0.0710
  420PNCE   T1A 3752   5.170   4.364   7.455 -0.1737  0.0231  0.2527
  420PNCE   C2A 3753   4.951   4.519   7.155  0.1985  0.2748  0.1239
  420PNCE   C3A 3754   4.865   4.383   6.738 -0.2275  0.0763 -0.3911
  420PNCE   C1B 3755   5.653   4.740   7.638  0.0267 -0.0531  0.0319
  420PNCE   C2B 3756   5.386   4.830   7.345  0.0396 -0.1062 -0.0619
  420PNCE   C3B 3757   5.160   4.936   6.904  0.3627  0.2160  0.0831
  420PNCE   D4B 3758   5.109   5.289   6.762 -0.1108  0.0724  0.1058
  420PNCE   C5B 3759   5.385   5.541   6.656  0.2844  0.0754  0.0011
  420PNCE   C6B 3760   5.786   5.695   6.649  0.0433 -0.2064 -0.3756
  421CHOL   ROH 3761   2.355   6.247   8.578 -0.0018  0.1574 -0.0758
  421CHOL    R1 3762   2.315   6.017   8.419  0.0351  0.0897  0.0119
  421CHOL    R2 3763   2.082   5.974   8.276  0.0069 -0.0436  0.0950
  421CHOL    R3 3764   2.255   5.945   8.068 -0.0449 -0.0477  0.0529
  421CHOL    R4 3765   2.001   5.832   7.971 -0.0074 -0.2638  0.1991
  421CHOL    R5 3766   2.196   5.734   7.971  0.0563 -0.1398  0.1889
  421CHOL    C1 3767   2.116   5.723   7.598 -0.0644 -0.3959  0.2203
  421CHOL    C2 3768   1.888   5.804   7.242 -0.0233 -0.0464 -0.2736
  422PNCE   AM1 3769   6.315  12.042   9.012 -0.2091 -0.1608 -0.2163
  422PNCE   AM2 3770   6.373  11.717   9.185  0.3593 -0.0343 -0.1231
  422PNCE   T1A 3771   6.277  12.145   8.446 -0.1698  0.1822  0.1188
  422PNCE   C2A 3772   6.244  12.413   8.073  0.0583 -0.0853  0.0429
  422PNCE   C3A 3773   6.352  12.373   7.647 -0.2395 -0.0120  0.2631
  422PNCE   C1B 3774   6.016  11.696   8.992  0.1125 -0.1503 -0.1133
  422PNCE   C2B 3775   5.818  11.817   8.581 -0.4026 -0.1107 -0.2569
  422PNCE   C3B 3776   5.881  12.081   8.181 -0.1054  0.0022 -0.0190
  422PNCE   D4B 3777   5.895  12.236   7.764  0.1333  0.5052  0.1610
  422PNCE   C5B 3778   5.524  12.180   7.488 -0.3630  0.0441 -0.1460
  422PNCE   C6B 3779   5.200  11.933   7.602 -0.1898 -0.0381 -0.1388
  423PNCE   AM1 3780  15.198   2.973   8.415 -0.0325 -0.3994  0.0328
  423PNCE   AM2 3781  15.090   3.365   8.317 -0.3312  0.1706  0.1485
  423PNCE   T1A 3782  15.312   2.682   8.085 -0.1160 -0.0621  0.1941
  423PNCE   C2A 3783  15.492   2.527   7.697  0.0661 -0.1995 -0.2996
  423PNCE   C3A 3784  15.626   2.480   7.308 -0.1970 -0.0825 -0.2400
  423PNCE   C1B 3785  15.246   3.415   7.859  0.0989 -0.3691  0.1759
  423PNCE   C2B 3786  15.236   3.483   7.324  0.4673 -0.0800 -0.1379
  423PNCE   C3B 3787  15.085   3.462   6.872  0.0303 -0.2017  0.0589
  423PNCE   D4B 3788  14.668   3.570   6.768  0.0936  0.1457 -0.0420
  423PNCE   C5B 3789  14.544   3.619   6.367 -0.0231  0.1379  0.1926
  423PNCE   C6B 3790  14.377   3.783   6.062 -0.2066 -0.2934  0.0967
  424CHOL   ROH 3791   4.910   5.699   6.650 -0.1877  0.1782 -0.0076
  424CHOL    R1 3792   4.848   5.634   6.382 -0.0477  0.0991 -0.0217
  424CHOL    R2 3793   4.989   5.444   6.238  0.0581  0.0908  0.0919
  424CHOL    R3 3794   4.741   5.338   6.199  0.0970  0.0324  0.0001
  424CHOL    R4 3795   4.907   5.220   5.988  0.2120  0.0425  0.0838
  424CHOL    R5 3796   4.719   5.326   5.961  0.1998 -0.0015 -0.0086
  424CHOL    C1 3797   4.627   4.990   5.806  0.3381 -0.0405 -0.0070
  424CHOL    C2 3798   4.571   4.797   5.377  0.2290  0.1075  0.3448
  425PNCE   AM1 3799   0.493   9.593   8.938 -0.0558  0.0403  0.0277
  425PNCE   AM2 3800   0.458   9.301   8.823 -0.3276  0.1426 -0.2937
  425PNCE   T1A 3801   0.473   9.857   8.672 -0.1984  0.0882  0.3131
  425PNCE   C2A 3802   0.402   9.875   8.181  0.1571  0.1389 -0.1764
  425PNCE   C3A 3803   0.120   9.770   7.898  0.4392 -0.0567  0.1524
  425PNCE   C1B 3804   0.508   9.401   8.438  0.0229 -0.2297  0.4431
  425PNCE   C2B 3805   0.503   9.398   8.029 -0.1970  0.0717  0.1951
  425PNCE   C3B 3806   0.399   9.174   7.608  0.1892 -0.2433 -0.0223
  425PNCE   D4B 3807   0.503   9.223   7.145  0.2364  0.1266 -0.1035
  425PNCE   C5B 3808   0.740   9.019   6.928  0.1868 -0.0396 -0.0402
  425PNCE   C6B 3809   1.125   9.193   6.763  0.1287 -0.1591 -0.0600
  426PNCE   AM1 3810   1.071  12.629   9.117 -0.0670  0.2604  0.3135
  426PNCE   AM2 3811   0.799  12.479   8.929 -0.1914 -0.0024  0.3982
  426PNCE   T1A 3812   1.079  12.724   8.611 -0.1610  0.0023 -0.2522
  426PNCE   C2A 3813   0.976  12.845   8.219 -0.0731  0.1027  0.0453
  426PNCE   C3A 3814   1.233  12.648   7.907 -0.3413  0.0074 -0.2089
  426PNCE   C1B 3815   0.526  12.693   8.705  0.2400  0.1205 -0.0072
  426PNCE   C2B 3816   0.511  12.719   8.255  0.3665 -0.1596  0.0617
  426PNCE   C3B 3817   0.662  12.701   7.884  0.3144  0.1205 -0.3135
  426PNCE   D4B 3818   0.834  12.450   7.575 -0.1288  0.3947  0.0584
  426PNCE   C5B 3819   1.071  12.194   7.382  0.1686 -0.1527  0.0106
  426PNCE   C6B 3820   1.181  12.349   6.963 -0.0335  0.1927 -0.0863
  427PNCE   AM1 3821  15.473   9.201   8.757 -0.0239 -0.2330 -0.0226
  427PNCE   AM2 3822  15.712   9.406   8.971  0.1278  0.1891  0.2513
  427PNCE   T1A 3823  15.909   9.036   8.516 -0.0237 -0.2693  0.1381
  427PNCE   C2A 3824  16.042   8.860   8.133  0.0400 -0.2269 -0.0338
  427PNCE   C3A 3825  16.480   8.868   7.918 -0.2950 -0.0273  0.0019
  427PNCE   C1B 3826  15.765   9.571   8.554  0.1651  0.0817  0.2686
  427PNCE   C2B 3827  15.723   9.331   8.170  0.2550  0.0872 -0.0227
  427PNCE   C3B 3828  15.645   9.358   7.734 -0.1209  0.0814  0.3761
  427PNCE   D4B 3829  15.757   9.609   7.309  0.1586  0.3395  0.2335
  427PNCE   C5B 3830  15.954   9.444   6.832 -0.1515 -0.1656  0.0595
  427PNCE   C6B 3831  16.205   9.277   6.459 -0.0658 -0.2233  0.1717
  428PNCE   AM1 3832   0.976  13.212   5.145  0.1304  0.0870 -0.1815
  428PNCE   AM2 3833   0.982  12.905   4.969  0.0522 -0.0110 -0.0268
  428PNCE   T1A 3834   0.949  13.312   5.563 -0.2407 -0.0624 -0.2504
  428PNCE   C2A 3835   0.799  13.347   6.029  0.3896  0.0285 -0.1439
  428PNCE   C3A 3836   0.716  13.009   6.290 -0.2089  0.1892  0.1173
  428PNCE   C1B 3837   0.979  12.560   5.302  0.0782  0.0600  0.0656
  428PNCE   C2B 3838   0.941  12.422   5.659 -0.0989  0.2228 -0.0973
  428PNCE   C3B 3839   0.829  12.335   6.095 -0.5240 -0.0870 -0.2563
  428PNCE   D4B 3840   0.573  12.490   6.394  0.0336 -0.0086  0.3011
  428PNCE   C5B 3841   0.320  12.299   6.610 -0.3348  0.1321  0.1948
  428PNCE   C6B 3842   0.032  11.940   6.359  0.1087  0.0335  0.1587
  429CHOL   ROH 3843   1.952   1.706   8.789  0.1223  0.1346 -0.0567
  429CHOL    R1 3844   1.849   1.791   8.539  0.2805  0.0756 -0.1441
  429CHOL    R2 3845   2.006   1.813   8.314  0.3624 -0.2781 -0.1299
  429CHOL    R3 3846   1.817   1.652   8.205  0.1921 -0.1357 -0.0486
  429CHOL    R4 3847   1.954   1.772   7.974  0.4094 -0.4959 -0.1113
  429CHOL    R5 3848   1.739   1.772   8.013  0.3974 -0.1972 -0.1718
  429CHOL    C1 3849   1.746   1.596   7.675  0.2770 -0.4889 -0.0242
  429CHOL    C2 3850   1.949   1.413   7.481 -0.1897 -0.2160  0.1812
  430PNCE   AM1 3851   6.690  11.415   8.980 -0.2745 -0.0317 -0.0172
  430PNCE   AM2 3852   7.026  11.111   8.958 -0.0702 -0.2692  0.0446
  430PNCE   T1A 3853   6.458  11.618   8.666  0.1282  0.1260 -0.1259
  430PNCE   C2A 3854   6.192  11.652   8.310 -0.0970  0.0115 -0.0096
  430PNCE   C3A 3855   5.832  11.554   8.013  0.0167 -0.0636  0.3076
  430PNCE   C1B 3856   7.148  10.796   8.537  0.0629  0.0797  0.0519
  430PNCE   C2B 3857   7.019  10.803   8.112 -0.0179 -0.1268  0.1788
  430PNCE   C3B 3858   6.801  11.105   7.898  0.1156 -0.0670 -0.1714
  430PNCE   D4B 3859   6.562  11.234   7.512  0.5087 -0.1412 -0.2890
  430PNCE   C5B 3860   6.358  11.021   7.220 -0.0734  0.0035  0.1404
  430PNCE   C6B 3861   5.991  10.890   7.197 -0.0337 -0.0889  0.3286
  431PNCE   AM1 3862   0.351   4.122   8.267  0.1193 -0.1385  0.4631
  431PNCE   AM2 3863   0.149   4.152   8.207 -0.1091 -0.0281  0.0301
  431PNCE   T1A 3864   0.576   4.046   7.924 -0.0755  0.2751 -0.3877
  431PNCE   C2A 3865   0.779   4.214   7.558 -0.2261  0.0714  0.1897
  431PNCE   C3A 3866   1.184   4.179   7.262 -0.1950 -0.0007  0.3976
  431PNCE   C1B 3867   0.143   4.033   7.729  0.0211  0.2432 -0.2345
  431PNCE   C2B 3868   0.221   3.984   7.377 -0.2905  0.3718 -0.1010
  431PNCE   C3B 3869   0.413   3.677   7.128  0.0007  0.2017  0.2171
  431PNCE   D4B 3870   0.521   3.305   6.834  0.0415  0.4095 -0.5104
  431PNCE   C5B 3871   0.763   3.402   6.537  0.3395 -0.2085 -0.0223
  431PNCE   C6B 3872   1.053   3.628   6.313  0.1631 -0.3061 -0.1761
  432XCA    COO 3873  14.658   9.036   4.761 -0.0357  0.2885 -0.0856
  432XCA     C1 3874  14.389   9.077   5.082  0.2865 -0.0078  0.0563
  432XCA     C2 3875  14.493   9.178   5.496 -0.3264 -0.4231  0.1413
  432XCA     C3 3876  14.479   9.231   5.905 -0.0132 -0.1025 -0.2398
  432XCA     C4 3877  14.604   9.627   6.197 -0.1729  0.1158 -0.2592
  432XCA     C5 3878  14.778   9.837   6.545  0.1165  0.1713  0.0857
  432XCA     C6 3879  15.179  10.117   6.648  0.1607 -0.1276 -0.2496
  433XCA    COO 3880   9.323   6.678   4.529  0.0334  0.2810  0.1076
  433XCA     C1 3881   9.175   6.746   4.991  0.1224  0.1258  0.0435
  433XCA     C2 3882   8.804   6.830   5.212  0.1007 -0.0031  0.0981
  433XCA     C3 3883   8.674   6.864   5.628  0.0997 -0.2480  0.0600
  433XCA     C4 3884   8.867   6.972   5.952 -0.4129  0.2057 -0.1410
  433XCA     C5 3885   8.810   7.168   6.324 -0.2033  0.0852  0.2434
  433XCA     C6 3886   8.659   7.255   6.795 -0.1590 -0.3895  0.2295
  434CHOL   ROH 3887   9.861   5.267   8.073 -0.1732 -0.2575  0.0190
  434CHOL    R1 3888   9.699   5.305   7.844 -0.1181 -0.0333  0.0153
  434CHOL    R2 3889   9.758   5.492   7.649  0.0724 -0.0236  0.0826
  434CHOL    R3 3890   9.739   5.277   7.483 -0.1118  0.0464  0.0091
  434CHOL    R4 3891   9.693   5.509   7.310  0.0031  0.1424  0.1025
  434CHOL    R5 3892   9.563   5.335   7.331 -0.1108  0.2207  0.0701
  434CHOL    C1 3893   9.638   5.316   6.957 -0.2102  0.3047  0.0451
  434CHOL    C2 3894   9.476   5.031   6.799  0.0200 -0.2719  0.2946
  435CHOL   ROH 3895   2.250   9.019   8.743  0.1398 -0.3466 -0.2084
  435CHOL    R1 3896   2.242   9.177   8.508  0.0551 -0.1030 -0.0479
  435CHOL    R2 3897   2.458   9.325   8.421  0.0903 -0.1461 -0.0717
  435CHOL    R3 3898   2.418   9.187   8.190 -0.1820  0.0964 -0.1724
  435CHOL    R4 3899   2.550   9.435   8.107 -0.0993  0.0734 -0.0513
  435CHOL    R5 3900   2.363   9.355   8.029 -0.2034  0.2703  0.0250
  435CHOL    C1 3901   2.566   9.369   7.707 -0.4654  0.4287 -0.1338
  435CHOL    C2 3902   2.577   9.436   7.296 -0.1342 -0.0707 -0.1010
  436XCA    COO 3903   5.176  12.383   9.667  0.2247  0.1387  0.0778
  436XCA     C1 3904   5.043  12.538   9.292  0.0083  0.0170  0.2244
  436XCA     C2 3905   4.961  12.365   8.901  0.0908 -0.0213 -0.0242
  436XCA     C3 3906   4.948  12.301   8.477 -0.1499  0.0671 -0.0246
  436XCA     C4 3907   5.000  12.133   8.074  0.0968 -0.2569  0.0553
  436XCA     C5 3908   4.872  12.286   7.598  0.1740 -0.0123 -0.1989
  436XCA     C6 3909   4.430  12.159   7.399  0.1858 -0.0741 -0.0100
  437CHOL   ROH 3910  10.702   0.524   5.138  0.2376 -0.2171 -0.0280
  437CHOL    R1 3911  10.747   0.497   5.416  0.3594 -0.1536 -0.0436
  437CHOL    R2 3912  10.931   0.651   5.552 -0.0258  0.3135 -0.0528
  437CHOL    R3 3913  10.717   0.707   5.711 -0.1563 -0.2835  0.0115
  437CHOL    R4 3914  10.950   0.742   5.885 -0.1623  0.3093 -0.0413
  437CHOL    R5 3915  10.776   0.617   5.925  0.1587 -0.1815 -0.0148
  437CHOL    C1 3916  10.760   0.848   6.228 -0.3643 -0.2537  0.0258
  437CHOL    C2 3917  10.877   0.940   6.643 -0.2854 -0.0055 -0.1168
  438PNCE   AM1 3918  11.079   5.951   8.264  0.1282 -0.2000  0.3359
  438PNCE   AM2 3919  10.764   6.038   8.301 -0.1298  0.2461  0.2595
  438PNCE   T1A 3920  11.300   5.985   7.824  0.1025  0.1414  0.0050
  438PNCE   C2A 3921  11.475   6.003   7.356  0.0182 -0.1590  0.1112
  438PNCE   C3A 3922  11.206   6.174   7.044 -0.2011  0.0502  0.0503
  438PNCE   C1B 3923  10.908   6.366   7.940 -0.1643 -0.1776  0.0589
  438PNCE   C2B 3924  11.122   6.603   7.615  0.0360 -0.1240  0.1911
  438PNCE   C3B 3925  11.440   6.500   7.311 -0.2135  0.2493 -0.0789
  438PNCE   D4B 3926  11.686   6.704   7.099  0.0149  0.1767  0.2396
  438PNCE   C5B 3927  11.878   6.893   6.756 -0.1179  0.1999 -0.2248
  438PNCE   C6B 3928  11.965   7.161   6.446  0.1754  0.1907 -0.0561
  439XCA    COO 3929   1.395   5.025   7.566  0.1283  0.0571 -0.0864
  439XCA     C1 3930   1.247   5.000   7.193 -0.0458  0.0042  0.1494
  439XCA     C2 3931   0.941   5.288   6.954 -0.0289  0.0442 -0.2431
  439XCA     C3 3932   0.700   5.034   6.656 -0.1839 -0.1720 -0.1993
  439XCA     C4 3933   0.412   4.890   6.326 -0.0577  0.1525 -0.1690
  439XCA     C5 3934   0.061   4.789   6.269  0.0023 -0.0732  0.0181
  439XCA     C6 3935  -0.338   4.830   6.076  0.0736  0.0524  0.0891
  440CHOL   ROH 3936  12.603   1.389   8.411  0.1528 -0.0711 -0.0276
  440CHOL    R1 3937  12.642   1.526   8.167  0.1864 -0.0230  0.0054
  440CHOL    R2 3938  12.892   1.562   8.055  0.1761 -0.2099 -0.0691
  440CHOL    R3 3939  12.776   1.447   7.838 -0.0035 -0.0302 -0.0732
  440CHOL    R4 3940  13.008   1.591   7.731  0.2207 -0.3555 -0.0671
  440CHOL    R5 3941  12.801   1.609   7.663  0.2353 -0.0462 -0.0629
  440CHOL    C1 3942  12.967   1.499   7.338  0.0783 -0.2715 -0.0699
  440CHOL    C2 3943  13.000   1.549   6.959 -0.0877 -0.1480 -0.0618
  441CHOL   ROH 3944   2.346  11.119   9.616  0.1878 -0.1028 -0.0602
  441CHOL    R1 3945   2.372  11.209   9.349  0.0621 -0.0633 -0.0594
  441CHOL    R2 3946   2.605  11.178   9.204  0.0046 -0.0067 -0.1594
  441CHOL    R3 3947   2.440  11.058   9.025 -0.0490 -0.0080 -0.1101
  441CHOL    R4 3948   2.614  11.230   8.862  0.0871 -0.2054 -0.1890
  441CHOL    R5 3949   2.396  11.228   8.862  0.0809 -0.0682 -0.2145
  441CHOL    C1 3950   2.463  11.147   8.495  0.0847 -0.3223 -0.1601
  441CHOL    C2 3951   2.233  11.038   8.302  0.0674  0.3104  0.1065
  442CHOL   ROH 3952   9.720  12.714   8.419 -0.0727  0.0005 -0.0089
  442CHOL    R1 3953   9.664  12.649   8.149 -0.0112  0.0236 -0.0272
  442CHOL    R2 3954   9.416  12.560   8.066  0.0341 -0.0567 -0.0755
  442CHOL    R3 3955   9.436  12.767   7.891 -0.0207 -0.0203 -0.0394
  442CHOL    R4 3956   9.253  12.579   7.761  0.0173 -0.0425 -0.0656
  442CHOL    R5 3957   9.434  12.663   7.675 -0.0046  0.0158 -0.0580
  442CHOL    C1 3958   9.178  12.784   7.420 -0.0440 -0.0000 -0.0260
  442CHOL    C2 3959   9.029  13.033   7.157  0.1670 -0.3022  0.1947
  443CHOL   ROH 3960   6.161   8.397   7.069 -0.0745  0.3119 -0.2973
  443CHOL    R1 3961   6.334   8.258   6.894 -0.0987  0.3143 -0.3247
  443CHOL    R2 3962   6.533   8.385   6.749  0.0591  0.2816 -0.1499
  443CHOL    R3 3963   6.693   8.201   6.867 -0.1272  0.0790 -0.2091
  443CHOL    R4 3964   6.836   8.278   6.624  0.0329  0.1377 -0.0893
  443CHOL    R5 3965   6.784   8.075   6.685 -0.1428  0.1358 -0.2519
  443CHOL    C1 3966   7.164   8.042   6.663 -0.1574 -0.1363 -0.1095
  443CHOL    C2 3967   7.285   7.617   6.672  0.1844  0.0826 -0.1716
  444CHOL   ROH 3968   9.023   0.861   4.760 -0.2114  0.0671  0.0844
  444CHOL    R1 3969   9.164   0.917   4.998 -0.1410  0.0404  0.0495
  444CHOL    R2 3970   9.423   1.012   4.998 -0.0891 -0.0964 -0.0131
  444CHOL    R3 3971   9.318   1.210   5.152  0.0400 -0.0089 -0.0357
  444CHOL    R4 3972   9.605   1.205   5.220 -0.0245 -0.4232  0.2266
  444CHOL    R5 3973   9.437   1.192   5.360 -0.1720 -0.2494  0.0681
  444CHOL    C1 3974   9.611   1.504   5.494  0.1343 -0.5314  0.3450
  444CHOL    C2 3975   9.775   1.609   5.878 -0.2406  0.0652 -0.1389
  445CHOL   ROH 3976  12.549   4.447   7.956  0.0407 -0.0361  0.1619
  445CHOL    R1 3977  12.676   4.352   7.722 -0.0195 -0.0167  0.1236
  445CHOL    R2 3978  12.630   4.099   7.621 -0.1613  0.0546  0.0328
  445CHOL    R3 3979  12.572   4.235   7.393 -0.0875  0.1650  0.0765
  445CHOL    R4 3980  12.705   3.990   7.301 -0.3336  0.0384 -0.0048
  445CHOL    R5 3981  12.760   4.195   7.250 -0.1466  0.0097  0.0266
  445CHOL    C1 3982  12.694   4.056   6.901 -0.3648  0.1327  0.0142
  445CHOL    C2 3983  12.721   3.989   6.489 -0.2244  0.0224 -0.0322
  446XCA    COO 3984   4.045   4.401   8.055 -0.3481  0.0935 -0.1714
  446XCA     C1 3985   4.025   4.384   7.665 -0.1658  0.1145 -0.1679
  446XCA     C2 3986   4.067   4.695   7.278  0.3425 -0.1335 -0.1159
  446XCA     C3 3987   4.069   5.079   7.101 -0.0546  0.1426  0.2664
  446XCA     C4 3988   4.165   5.338   6.796  0.1400  0.0229  0.1061
  446XCA     C5 3989   4.363   5.732   6.588  0.0612  0.1704 -0.3065
  446XCA     C6 3990   4.563   6.118   6.654  0.0512  0.1148  0.3424
  447PNCE   AM1 3991   0.945   8.415   8.262 -0.1837 -0.0691  0.0560
  447PNCE   AM2 3992   0.601   8.332   8.208 -0.0509  0.1073 -0.5416
  447PNCE   T1A 3993   1.194   8.644   8.017  0.2984  0.0350  0.1081
  447PNCE   C2A 3994   1.302   9.090   7.873  0.2580  0.1366 -0.1038
  447PNCE   C3A 3995   1.301   9.500   7.624  0.0042 -0.1096 -0.0804
  447PNCE   C1B 3996   0.459   8.482   7.855  0.1535 -0.0722  0.1185
  447PNCE   C2B 3997   0.706   8.659   7.459 -0.3878  0.0301  0.0452
  447PNCE   C3B 3998   0.846   8.563   7.089 -0.0423 -0.1233 -0.1129
  447PNCE   D4B 3999   0.985   8.674   6.664  0.1133 -0.3769  0.1194
  447PNCE   C5B 4000   1.031   8.362   6.475 -0.0735  0.3916  0.4893
  447PNCE   C6B 4001   0.850   8.121   6.078 -0.0329  0.3348 -0.1858
  448PNCE   AM1 4002  14.219   1.019   8.742  0.1262  0.0048  0.0848
  448PNCE   AM2 4003  14.159   1.045   8.450 -0.2461 -0.1726 -0.0429
  448PNCE   T1A 4004  14.367   0.657   8.600 -0.0580 -0.0776 -0.1299
  448PNCE   C2A 4005  14.325   0.407   8.217  0.2036 -0.1046 -0.3593
  448PNCE   C3A 4006  14.409   0.341   7.779 -0.0128  0.0418  0.0366
  448PNCE   C1B 4007  13.952   0.811   8.277  0.4830  0.2705 -0.0860
  448PNCE   C2B 4008  13.959   0.531   7.908 -0.0476 -0.1489  0.2491
  448PNCE   C3B 4009  14.106   0.483   7.434  0.2439  0.1512 -0.1850
  448PNCE   D4B 4010  14.082   0.254   7.113 -0.2586  0.0987 -0.1369
  448PNCE   C5B 4011  14.333   0.388   6.808 -0.1331  0.0447 -0.0459
  448PNCE   C6B 4012  14.545   0.825   6.649 -0.0561  0.1756  0.0187
  449CHOL   ROH 4013   2.974   4.736   5.165  0.0058  0.3196 -0.1210
  449CHOL    R1 4014   2.958   4.722   5.447  0.1390 -0.1309 -0.1276
  449CHOL    R2 4015   3.182   4.736   5.609  0.1856  0.0137 -0.2015
  449CHOL    R3 4016   3.044   4.938   5.727 -0.1254 -0.3917  0.1619
  449CHOL    R4 4017   3.251   4.865   5.922  0.3465 -0.0810 -0.1972
  449CHOL    R5 4018   3.036   4.877   5.959  0.3546 -0.6074  0.1337
  449CHOL    C1 4019   3.162   5.130   6.215  0.1482 -0.5167  0.1464
  449CHOL    C2 4020   3.414   5.038   6.318  0.0508  0.0658 -0.1718
  450PNCE   AM1 4021   4.192   3.483   7.776  0.2320  0.1319  0.0419
  450PNCE   AM2 4022   4.588   3.283   7.768  0.1248 -0.0716 -0.0734
  450PNCE   T1A 4023   3.828   3.439   7.524  0.0458  0.1637 -0.2708
  450PNCE   C2A 4024   3.332   3.383   7.424 -0.0926  0.1856  0.0980
  450PNCE   C3A 4025   3.174   2.856   7.261 -0.1443 -0.2767  0.1844
  450PNCE   C1B 4026   4.399   3.159   7.299 -0.0394  0.1169  0.0167
  450PNCE   C2B 4027   4.386   3.161   6.861 -0.0848  0.0215 -0.0098
  450PNCE   C3B 4028   4.116   3.179   6.495  0.1147 -0.2509  0.1348
  450PNCE   D4B 4029   3.870   2.754   6.374  0.0644 -0.0388 -0.1788
  450PNCE   C5B 4030   3.674   2.392   6.109 -0.1960 -0.0772  0.1691
  450PNCE   C6B 4031   3.208   2.299   6.059  0.0953  0.2275 -0.0840
  451PNCE   AM1 4032  13.433  11.505   9.114  0.2297  0.1487  0.0811
  451PNCE   AM2 4033  13.062  11.394   9.128  0.3018  0.1627 -0.0323
  451PNCE   T1A 4034  13.570  11.609   8.633 -0.0049 -0.1178  0.0389
  451PNCE   C2A 4035  13.589  11.785   8.249  0.0929  0.0727 -0.3637
  451PNCE   C3A 4036  13.457  11.896   7.846  0.2315  0.1133  0.1033
  451PNCE   C1B 4037  13.139  11.240   8.703  0.2056 -0.1495 -0.2517
  451PNCE   C2B 4038  13.243  11.301   8.187  0.2417 -0.1594  0.1938
  451PNCE   C3B 4039  13.222  11.388   7.773  0.2255  0.1399 -0.2148
  451PNCE   D4B 4040  13.457  11.539   7.458 -0.2205 -0.0260 -0.1409
  451PNCE   C5B 4041  13.815  11.724   7.428  0.1313  0.0796  0.1495
  451PNCE   C6B 4042  14.075  11.950   7.374  0.0500 -0.0364  0.0404
  452PNCE   AM1 4043   8.742   7.971   8.742  0.0287 -0.3485  0.0626
  452PNCE   AM2 4044   8.817   7.675   8.769 -0.0034 -0.1127  0.1418
  452PNCE   T1A 4045   8.898   8.185   8.417 -0.0615 -0.1426 -0.0971
  452PNCE   C2A 4046   9.096   8.377   8.030 -0.1149  0.1006 -0.0110
  452PNCE   C3A 4047   9.473   8.212   7.769 -0.0178  0.3546  0.2329
  452PNCE   C1B 4048   8.819   7.367   8.420  0.2343  0.2326  0.2378
  452PNCE   C2B 4049   8.709   7.227   7.983 -0.0230  0.1724  0.1596
  452PNCE   C3B 4050   8.429   7.077   7.690 -0.2048  0.3024 -0.1397
  452PNCE   D4B 4051   8.539   7.028   7.223 -0.0884  0.1028 -0.2140
  452PNCE   C5B 4052   8.761   6.790   7.053 -0.0077  0.1865 -0.2221
  452PNCE   C6B 4053   8.936   6.471   6.962  0.1322  0.2639  0.4141
  453PNCE   AM1 4054   2.437  13.267   9.062  0.0421  0.2599  0.0668
  453PNCE   AM2 4055   2.743  13.167   8.994  0.2855 -0.1437  0.0020
  453PNCE   T1A 4056   2.297  12.946   8.755  0.1163  0.0846 -0.2119
  453PNCE   C2A 4057   1.880  12.797   8.579 -0.0872  0.2002 -0.0852
  453PNCE   C3A 4058   1.479  12.597   8.351 -0.0797 -0.2892  0.2587
  453PNCE   C1B 4059   2.752  12.718   8.653 -0.4380 -0.3087  0.1270
  453PNCE   C2B 4060   2.951  12.613   8.309 -0.0261  0.2226 -0.0747
  453PNCE   C3B 4061   2.854  12.405   7.879  0.1341  0.1691  0.1326
  453PNCE   D4B 4062   2.749  12.555   7.502  0.0225 -0.0837  0.3801
  453PNCE   C5B 4063   3.016  12.520   7.155  0.0382 -0.1583  0.0411
  453PNCE   C6B 4064   3.179  12.082   7.076 -0.4205  0.2590 -0.1265
  454CHOL   ROH 4065   7.792  13.338   5.864  0.3949 -0.0491 -0.0354
  454CHOL    R1 4066   7.857  13.495   6.090  0.1047  0.2447 -0.1452
  454CHOL    R2 4067   7.739  13.741   6.141 -0.5338 -0.0222 -0.2036
  454CHOL    R3 4068   7.681  13.625   6.380 -0.1024 -0.0825 -0.1226
  454CHOL    R4 4069   7.694  13.910   6.439 -0.2386 -0.0965 -0.1146
  454CHOL    R5 4070   7.803  13.753   6.540  0.0243 -0.0133 -0.2844
  454CHOL    C1 4071   7.614  13.901   6.837  0.3383 -0.1962  0.0133
  454CHOL    C2 4072   7.626  14.233   7.024 -0.2230 -0.0919 -0.1159
  455PNCE   AM1 4073  10.953  15.478   8.310  0.0308  0.1499 -0.1100
  455PNCE   AM2 4074  10.900  15.258   8.557  0.1960  0.3220  0.0970
  455PNCE   T1A 4075  11.293  15.853   8.223 -0.3487  0.0601 -0.4389
  455PNCE   C2A 4076  11.359  16.226   8.142  0.0451  0.1012 -0.1420
  455PNCE   C3A 4077  11.646  16.428   7.873  0.1094  0.2323 -0.1378
  455PNCE   C1B 4078  11.324  14.907   8.434  0.0531 -0.2592 -0.1089
  455PNCE   C2B 4079  11.635  14.926   8.091 -0.2511  0.0185 -0.1188
  455PNCE   C3B 4080  11.567  15.056   7.620 -0.1387 -0.1771  0.1921
  455PNCE   D4B 4081  11.393  15.270   7.189  0.0318  0.1314 -0.3063
  455PNCE   C5B 4082  11.410  15.421   6.753  0.0950 -0.4531 -0.0709
  455PNCE   C6B 4083  11.160  15.710   6.516 -0.1787  0.0557 -0.1350
  456PNCE   AM1 4084  11.820   1.659   8.270 -0.0225 -0.4175 -0.1236
  456PNCE   AM2 4085  12.199   1.771   8.384 -0.1151 -0.2322  0.1560
  456PNCE   T1A 4086  12.038   1.765   7.942 -0.1464 -0.0660 -0.0034
  456PNCE   C2A 4087  12.380   1.710   7.586  0.2115  0.0203  0.2134
  456PNCE   C3A 4088  12.562   1.414   7.162  0.1295  0.2388  0.3069
  456PNCE   C1B 4089  12.478   1.984   8.098 -0.1544  0.2066  0.0700
  456PNCE   C2B 4090  12.736   2.083   7.729 -0.0916  0.0307  0.1230
  456PNCE   C3B 4091  12.845   1.985   7.307  0.2218  0.0333  0.0582
  456PNCE   D4B 4092  13.262   1.874   7.228  0.1035  0.1341 -0.1368
  456PNCE   C5B 4093  13.467   1.772   6.870  0.0465  0.2320  0.2149
  456PNCE   C6B 4094  13.784   1.498   6.634 -0.2391  0.1494 -0.1487
  457PNCE   AM1 4095  14.459  10.102   9.061  0.0577  0.1116  0.1071
  457PNCE   AM2 4096  14.694  10.243   9.015  0.1202 -0.0743  0.0135
  457PNCE   T1A 4097  14.237  10.315   8.765 -0.0258  0.2504  0.0906
  457PNCE   C2A 4098  14.201  10.482   8.326 -0.2734  0.1570  0.2250
  457PNCE   C3A 4099  14.461  10.593   7.884 -0.1235  0.0004 -0.2659
  457PNCE   C1B 4100  14.710  10.220   8.618 -0.0944  0.0780 -0.3994
  457PNCE   C2B 4101  14.629  10.307   8.249  0.1013 -0.0325  0.1797
  457PNCE   C3B 4102  14.947  10.380   7.977  0.2692  0.2283  0.2034
  457PNCE   D4B 4103  14.993  10.531   7.589  0.0080 -0.0409 -0.1507
  457PNCE   C5B 4104  15.010  10.887   7.506  0.1248 -0.0148 -0.0363
  457PNCE   C6B 4105  15.342  11.227   7.550  0.0754 -0.3738 -0.0442
  458PNCE   AM1 4106   8.346  11.924   8.944 -0.0223 -0.0547 -0.2527
  458PNCE   AM2 4107   7.914  12.031   8.889  0.0673  0.2556  0.2742
  458PNCE   T1A 4108   8.243  11.866   8.505 -0.4594  0.2957 -0.1066
  458PNCE   C2A 4109   8.025  11.952   8.196  0.2585 -0.1262  0.2459
  458PNCE   C3A 4110   7.899  11.825   7.838  0.2032 -0.1835  0.3854
  458PNCE   C1B 4111   7.666  11.803   8.548 -0.0170  0.0540 -0.0943
  458PNCE   C2B 4112   7.546  11.777   8.146 -0.0654 -0.0805  0.0125
  458PNCE   C3B 4113   7.407  11.757   7.690 -0.1518  0.1997 -0.2091
  458PNCE   D4B 4114   7.021  11.690   7.611 -0.0730  0.2038  0.0801
  458PNCE   C5B 4115   6.800  11.612   7.249 -0.0098  0.1041  0.1155
  458PNCE   C6B 4116   6.883  11.634   6.855 -0.1060  0.3054  0.2966
  459XCA    COO 4117   8.015   1.191   8.330  0.0979  0.0943 -0.0036
  459XCA     C1 4118   8.174   0.833   8.166 -0.0612  0.1772 -0.0773
  459XCA     C2 4119   8.387   0.683   7.834  0.2220 -0.1850  0.2503
  459XCA     C3 4120   8.430   0.285   7.633  0.2149  0.1345 -0.0308
  459XCA     C4 4121   8.131   0.131   7.361  0.2875  0.0963  0.3165
  459XCA     C5 4122   8.006  -0.144   6.963 -0.1639  0.2179  0.0499
  459XCA     C6 4123   8.032  -0.590   6.737 -0.1411  0.0718 -0.1960
  460CHOL   ROH 4124   7.593   8.203   8.607 -0.1337  0.1422 -0.0905
  460CHOL    R1 4125   7.410   8.114   8.410 -0.0844  0.1258 -0.1296
  460CHOL    R2 4126   7.379   8.241   8.167  0.1177 -0.0091 -0.2296
  460CHOL    R3 4127   7.428   7.993   8.067  0.0244 -0.1034 -0.0455
  460CHOL    R4 4128   7.359   8.156   7.833  0.1806 -0.2257 -0.1790
  460CHOL    R5 4129   7.267   7.967   7.891  0.0664 -0.1405 -0.0788
  460CHOL    C1 4130   7.394   7.873   7.544  0.1297 -0.4404  0.0233
  460CHOL    C2 4131   7.355   7.955   7.162 -0.1287 -0.0877  0.1855
  461CHOL   ROH 4132   7.133   8.748   4.964  0.2141  0.0496 -0.0260
  461CHOL    R1 4133   7.103   8.952   5.157  0.1113  0.0043  0.0081
  461CHOL    R2 4134   6.881   9.117   5.167  0.1442  0.0673 -0.1301
  461CHOL    R3 4135   6.869   9.031   5.425 -0.0917 -0.0087 -0.1649
  461CHOL    R4 4136   6.752   9.299   5.431 -0.0664 -0.0054 -0.1821
  461CHOL    R5 4137   6.915   9.226   5.555 -0.1862 -0.0585 -0.0620
  461CHOL    C1 4138   6.666   9.325   5.826 -0.4105 -0.1191 -0.2450
  461CHOL    C2 4139   6.451   9.610   6.079  0.0274  0.0529 -0.1864
  462CHOL   ROH 4140   7.534   1.215   7.996  0.1125 -0.0680  0.1798
  462CHOL    R1 4141   7.751   1.269   7.823 -0.2000  0.0996 -0.1741
  462CHOL    R2 4142   7.998   1.148   7.851  0.1833  0.8408 -0.0825
  462CHOL    R3 4143   7.958   1.079   7.591  0.0891  0.0548  0.1152
  462CHOL    R4 4144   8.249   1.081   7.623  0.1260  0.8025 -0.1348
  462CHOL    R5 4145   8.134   1.189   7.473 -0.2616  0.1540 -0.3377
  462CHOL    C1 4146   8.358   0.977   7.247  0.0042  0.0423  0.0205
  462CHOL    C2 4147   8.442   0.558   7.235 -0.0517  0.1454 -0.0536
  463CHOL   ROH 4148   9.401   2.566   7.933 -0.1926  0.1732 -0.0384
  463CHOL    R1 4149   9.557   2.651   7.712 -0.1443  0.1831 -0.0009
  463CHOL    R2 4150   9.643   2.476   7.515 -0.1607  0.2043 -0.0262
  463CHOL    R3 4151   9.521   2.654   7.350 -0.0969  0.2680 -0.0052
  463CHOL    R4 4152   9.696   2.498   7.174 -0.2923  0.0959 -0.0543
  463CHOL    R5 4153   9.690   2.715   7.192 -0.1164  0.1062 -0.0921
  463CHOL    C1 4154   9.612   2.678   6.821 -0.3090  0.0926 -0.0511
  463CHOL    C2 4155   9.782   2.997   6.636  0.0252  0.2702 -0.0276
  464CHOL   ROH 4156  14.700   8.234   4.886  0.0060  0.0947 -0.1002
  464CHOL    R1 4157  14.671   8.174   5.162 -0.0151 -0.0190 -0.1234
  464CHOL    R2 4158  14.755   7.935   5.272  0.1063 -0.0193 -0.1817
  464CHOL    R3 4159  14.892   8.099   5.440 -0.0223  0.0128 -0.1140
  464CHOL    R4 4160  14.758   7.909   5.617 -0.0015 -0.0386 -0.1850
  464CHOL    R5 4161  14.748   8.125   5.629 -0.0881 -0.0571 -0.1667
  464CHOL    C1 4162  14.888   8.047   5.975 -0.1851 -0.0198 -0.1234
  464CHOL    C2 4163  15.043   7.833   6.239  0.1788  0.2871 -0.0021
  465XCA    COO 4164   1.582   3.111   9.439 -0.2721  0.1441  0.0387
  465XCA     C1 4165   1.936   3.092   9.202  0.0180 -0.1808 -0.1846
  465XCA     C2 4166   1.959   3.288   8.857 -0.0233 -0.1094 -0.4932
  465XCA     C3 4167   1.839   3.385   8.445  0.0514  0.2279 -0.0042
  465XCA     C4 4168   1.627   3.288   8.147  0.0204  0.2125  0.3092
  465XCA     C5 4169   1.357   3.275   7.879 -0.0798  0.1719 -0.1264
  465XCA     C6 4170   1.110   3.300   7.557  0.4295  0.3088 -0.1808
  466PNCE   AM1 4171   1.207   0.154   9.187  0.1832 -0.1109 -0.0497
  466PNCE   AM2 4172   1.016  -0.105   9.081  0.1095 -0.1033 -0.3520
  466PNCE   T1A 4173   0.876   0.398   8.951 -0.0649 -0.3597  0.1001
  466PNCE   C2A 4174   0.605   0.451   8.693 -0.0943  0.1661 -0.2284
  466PNCE   C3A 4175   0.730   0.508   8.280  0.2136  0.1646 -0.0342
  466PNCE   C1B 4176   0.949  -0.136   8.756 -0.0220  0.3424  0.0099
  466PNCE   C2B 4177   1.024   0.127   8.577 -0.1648  0.2771 -0.0039
  466PNCE   C3B 4178   1.119   0.129   8.178  0.3368 -0.2322 -0.0205
  466PNCE   D4B 4179   1.064   0.380   7.877 -0.0010  0.0291  0.1500
  466PNCE   C5B 4180   1.336   0.528   7.544  0.1979  0.1553  0.0513
  466PNCE   C6B 4181   1.787   0.502   7.645  0.2058  0.0670  0.0157
  467PNCE   AM1 4182   6.800   1.454   8.189  0.1180 -0.0456 -0.0507
  467PNCE   AM2 4183   6.977   1.723   8.259  0.0207 -0.0311 -0.1727
  467PNCE   T1A 4184   6.849   1.148   7.819 -0.1490  0.1089 -0.3035
  467PNCE   C2A 4185   6.951   0.965   7.425 -0.0581 -0.2063  0.4010
  467PNCE   C3A 4186   7.322   0.700   7.312 -0.0400  0.1486 -0.2710
  467PNCE   C1B 4187   6.855   1.741   7.826  0.2620  0.1026 -0.1811
  467PNCE   C2B 4188   6.991   1.568   7.394 -0.1397  0.0966  0.1342
  467PNCE   C3B 4189   7.193   1.344   7.083 -0.1811 -0.3982 -0.0527
  467PNCE   D4B 4190   7.700   1.208   7.105  0.2106  0.4652 -0.3107
  467PNCE   C5B 4191   7.991   1.048   6.815  0.0652  0.1124 -0.1518
  467PNCE   C6B 4192   8.152   1.263   6.429 -0.1199  0.1232 -0.3532
  468XCA    COO 4193   8.686   4.882   8.263 -0.3174  0.1296  0.0460
  468XCA     C1 4194   8.749   4.968   7.779 -0.0351  0.3039  0.1479
  468XCA     C2 4195   8.912   4.623   7.576  0.0877 -0.2654  0.1734
  468XCA     C3 4196   8.770   4.351   7.174  0.0676 -0.0207 -0.1833
  468XCA     C4 4197   8.626   4.122   6.997 -0.1770  0.2244  0.0687
  468XCA     C5 4198   8.578   3.957   6.680 -0.2201 -0.1925 -0.1110
  468XCA     C6 4199   8.512   4.176   6.269 -0.0830 -0.1623  0.3699
  469PNCE   AM1 4200   1.553  11.503   9.032  0.0051 -0.0222  0.3592
  469PNCE   AM2 4201   1.302  11.840   9.015  0.1210  0.0286  0.0487
  469PNCE   T1A 4202   1.430  11.444   8.555 -0.1178  0.0841 -0.2225
  469PNCE   C2A 4203   1.263  11.301   8.205 -0.0428  0.2236 -0.0951
  469PNCE   C3A 4204   1.284  11.257   7.841  0.1603 -0.1711 -0.0017
  469PNCE   C1B 4205   1.736  11.932   8.812  0.0893  0.0100 -0.0903
  469PNCE   C2B 4206   1.878  11.742   8.485  0.2975 -0.0559 -0.0669
  469PNCE   C3B 4207   2.132  11.501   8.175  0.0576  0.0130 -0.2689
  469PNCE   D4B 4208   2.444  11.369   8.002  0.0597 -0.0569  0.1003
  469PNCE   C5B 4209   2.158  11.039   7.732 -0.3393 -0.1761  0.1638
  469PNCE   C6B 4210   2.299  10.881   7.455  0.2002 -0.1434 -0.1381
  470XCA    COO 4211  13.549   0.063   4.585  0.1624  0.0969 -0.1478
  470XCA     C1 4212  13.134   0.204   4.806  0.0391 -0.2056 -0.2324
  470XCA     C2 4213  12.783   0.315   5.130  0.2806  0.2119  0.0142
  470XCA     C3 4214  12.629   0.335   5.555 -0.0062 -0.0819  0.0777
  470XCA     C4 4215  12.641   0.396   5.972  0.2756 -0.0084 -0.1873
  470XCA     C5 4216  12.402   0.232   6.289 -0.1227 -0.0806  0.2643
  470XCA     C6 4217  12.221   0.310   6.685  0.0248 -0.1353  0.2999
  471XCA    COO 4218   8.562  11.989   4.835 -0.1522  0.0994 -0.1040
  471XCA     C1 4219   8.483  11.775   5.257  0.0695 -0.1423  0.0477
  471XCA     C2 4220   8.654  11.502   5.545  0.2617 -0.4584 -0.2724
  471XCA     C3 4221   8.964  11.634   5.946 -0.1324 -0.0792 -0.1614
  471XCA     C4 4222   9.190  11.539   6.299  0.0243  0.1638  0.0311
  471XCA     C5 4223   9.262  11.912   6.598  0.0080  0.0146  0.1708
  471XCA     C6 4224   9.330  12.167   6.903  0.1590 -0.0892  0.2646
  472PNCE   AM1 4225  14.391  13.016   9.235 -0.1648 -0.2304  0.0750
  472PNCE   AM2 4226  14.623  12.834   9.197  0.5079 -0.1466  0.0318
  472PNCE   T1A 4227  14.196  13.284   9.001 -0.0260  0.2094  0.2097
  472PNCE   C2A 4228  14.015  13.669   8.831 -0.1248 -0.0291 -0.3609
  472PNCE   C3A 4229  13.884  13.677   8.449  0.0876 -0.1788  0.3133
  472PNCE   C1B 4230  14.717  13.062   8.810  0.0142  0.2131  0.0030
  472PNCE   C2B 4231  14.571  13.282   8.427 -0.3422 -0.3285 -0.0497
  472PNCE   C3B 4232  14.324  13.303   8.090 -0.0111 -0.1545  0.1518
  472PNCE   D4B 4233  14.338  13.263   7.658 -0.0734  0.0584 -0.0303
  472PNCE   C5B 4234  14.389  12.846   7.466  0.0376 -0.4926 -0.0695
  472PNCE   C6B 4235  14.603  12.549   7.489 -0.1621  0.1529 -0.0631
  473PNCE   AM1 4236   1.250  14.031   8.706 -0.0969 -0.1005  0.0353
  473PNCE   AM2 4237   0.936  13.821   8.822 -0.1854 -0.4033 -0.0887
  473PNCE   T1A 4238   1.250  13.775   8.333 -0.2639 -0.1036  0.2316
  473PNCE   C2A 4239   1.192  13.842   7.831 -0.0436  0.1139  0.1350
  473PNCE   C3A 4240   0.987  13.839   7.555 -0.1456 -0.1104  0.2753
  473PNCE   C1B 4241   0.669  13.723   8.471  0.1010  0.1671 -0.0985
  473PNCE   C2B 4242   0.638  13.776   7.996 -0.3484 -0.0192 -0.0712
  473PNCE   C3B 4243   0.546  13.715   7.582 -0.3142  0.0133 -0.2440
  473PNCE   D4B 4244   0.702  13.429   7.320  0.1859  0.1060 -0.2929
  473PNCE   C5B 4245   1.139  13.492   7.255  0.2044  0.0265  0.2808
  473PNCE   C6B 4246   1.499  13.739   7.392 -0.1491  0.1671  0.1270
  474PNCE   AM1 4247   4.851  10.021   9.584  0.0179  0.0243 -0.1886
  474PNCE   AM2 4248   4.971   9.721   9.534 -0.1584  0.0843 -0.0923
  474PNCE   T1A 4249   5.344  10.053   9.550  0.2792  0.1038  0.3215
  474PNCE   C2A 4250   5.756  10.165   9.463  0.2007 -0.1183  0.1285
  474PNCE   C3A 4251   6.148  10.476   9.226 -0.1848 -0.1383  0.2158
  474PNCE   C1B 4252   5.037  10.166   9.178  0.4573  0.0563 -0.1363
  474PNCE   C2B 4253   4.829  10.442   8.869  0.0524  0.1752  0.3903
  474PNCE   C3B 4254   4.388  10.568   8.779 -0.1072  0.2109  0.1169
  474PNCE   D4B 4255   3.991  10.805   8.678  0.0987  0.3102 -0.1308
  474PNCE   C5B 4256   3.734  10.759   8.301 -0.2845  0.0810  0.0077
  474PNCE   C6B 4257   3.275  10.811   8.445  0.4656 -0.0756 -0.0386
  475XCA    COO 4258  11.717  10.674   4.324 -0.1077  0.0307  0.1849
  475XCA     C1 4259  11.760  10.460   4.725  0.0515  0.4338  0.2056
  475XCA     C2 4260  12.161  10.295   5.011 -0.0068  0.1614 -0.0504
  475XCA     C3 4261  12.272  10.029   5.319  0.0795  0.0988  0.1755
  475XCA     C4 4262  12.170   9.930   5.726  0.1462  0.0554 -0.0239
  475XCA     C5 4263  11.993   9.869   6.080  0.0005  0.1920  0.2506
  475XCA     C6 4264  11.648   9.679   6.128 -0.3182  0.0753  0.2942
  476PNCE   AM1 4265   0.184   1.781   9.192 -0.5733  0.3671 -0.4886
  476PNCE   AM2 4266   0.462   1.813   9.060  0.2177  0.1649  0.1990
  476PNCE   T1A 4267  -0.097   1.538   8.936 -0.0145  0.2015 -0.0455
  476PNCE   C2A 4268  -0.110   1.121   8.830 -0.4480  0.0506  0.0792
  476PNCE   C3A 4269  -0.486   1.042   8.462 -0.4170 -0.4254 -0.1471
  476PNCE   C1B 4270   0.411   1.657   8.656  0.1227  0.1902  0.4474
  476PNCE   C2B 4271   0.374   1.421   8.319 -0.1048  0.0266  0.0703
  476PNCE   C3B 4272   0.393   1.143   7.994 -0.0445  0.1378  0.0129
  476PNCE   D4B 4273   0.300   0.744   7.987  0.2589 -0.1017  0.1663
  476PNCE   C5B 4274   0.223   0.446   8.250  0.3930  0.1264  0.1279
  476PNCE   C6B 4275   0.057   0.386   8.580 -0.0156 -0.3803 -0.0638
  477CHOL   ROH 4276   9.501  14.953   7.491  0.1226 -0.3827  0.0280
  477CHOL    R1 4277   9.413  15.003   7.227  0.1380 -0.2212  0.0527
  477CHOL    R2 4278   9.536  14.892   7.005  0.1005 -0.1521 -0.0038
  477CHOL    R3 4279   9.284  14.807   6.949  0.0714 -0.0404 -0.0456
  477CHOL    R4 4280   9.438  14.750   6.706  0.0544  0.0105 -0.0670
  477CHOL    R5 4281   9.252  14.864   6.719  0.0940  0.0697 -0.0217
  477CHOL    C1 4282   9.144  14.587   6.479  0.0001  0.2100 -0.1429
  477CHOL    C2 4283   8.951  14.288   6.313  0.1639  0.0099 -0.0173
  478CHOL   ROH 4284  11.947   9.627   4.564  0.0514 -0.1900  0.0211
  478CHOL    R1 4285  11.885   9.763   4.804  0.0671 -0.1647  0.0109
  478CHOL    R2 4286  11.697   9.669   4.984  0.0835 -0.1496  0.0365
  478CHOL    R3 4287  11.902   9.691   5.161  0.0974 -0.1248  0.0173
  478CHOL    R4 4288  11.667   9.631   5.326  0.1069 -0.0726  0.0473
  478CHOL    R5 4289  11.805   9.798   5.352  0.1194 -0.0768  0.0010
  478CHOL    C1 4290  11.842   9.629   5.692  0.1334 -0.0043  0.0357
  478CHOL    C2 4291  12.098   9.393   5.984 -0.0216  0.0267  0.2250
  479XCA    COO 4292   4.776   1.769   4.041  0.2194  0.0403 -0.1506
  479XCA     C1 4293   4.937   2.165   4.222  0.2463 -0.0192  0.1636
  479XCA     C2 4294   5.082   2.402   4.586 -0.1570 -0.3411 -0.0340
  479XCA     C3 4295   5.161   2.296   4.983 -0.3349  0.0796 -0.1558
  479XCA     C4 4296   5.414   2.372   5.353  0.1285 -0.2514  0.1108
  479XCA     C5 4297   5.451   2.344   5.714  0.3124  0.1018 -0.2008
  479XCA     C6 4298   5.662   2.239   6.007 -0.0391 -0.0186  0.1032
  480CHOL   ROH 4299   5.186  13.460   5.682 -0.0656  0.1993  0.0661
  480CHOL    R1 4300   5.038  13.516   5.916  0.0919  0.1937  0.1679
  480CHOL    R2 4301   4.837  13.351   6.008 -0.0838  0.3712  0.1016
  480CHOL    R3 4302   4.981  13.355   6.238  0.0090 -0.0036  0.0571
  480CHOL    R4 4303   4.725  13.236   6.314 -0.1696  0.3651  0.0684
  480CHOL    R5 4304   4.821  13.407   6.408  0.1463  0.1577  0.1428
  480CHOL    C1 4305   4.795  13.172   6.708 -0.1324  0.0097  0.0073
  480CHOL    C2 4306   4.676  12.909   6.758  0.0438 -0.0624 -0.0023
  481CHOL   ROH 4307   0.568   1.172   5.377 -0.1642 -0.0686  0.0772
  481CHOL    R1 4308   0.483   1.199   5.646 -0.1776 -0.0413  0.0712
  481CHOL    R2 4309   0.646   1.304   5.843 -0.1467 -0.1205  0.0941
  481CHOL    R3 4310   0.436   1.472   5.882 -0.0754 -0.0278  0.0750
  481CHOL    R4 4311   0.533   1.410   6.152 -0.1145 -0.0440  0.0788
  481CHOL    R5 4312   0.329   1.388   6.080 -0.1185  0.0383  0.0764
  481CHOL    C1 4313   0.271   1.630   6.369 -0.0290  0.0876  0.0519
  481CHOL    C2 4314   0.143   1.742   6.659  0.1100 -0.0028  0.0771
  482PNCE   AM1 4315  11.994   3.663   8.065  0.0211  0.1449  0.0012
  482PNCE   AM2 4316  12.316   3.631   8.281 -0.0334 -0.0949  0.4173
  482PNCE   T1A 4317  12.127   4.090   7.842  0.0844 -0.0973  0.0849
  482PNCE   C2A 4318  12.092   4.357   7.534  0.2155  0.0471  0.0092
  482PNCE   C3A 4319  12.324   4.486   7.057  0.0518  0.0228  0.1750
  482PNCE   C1B 4320  12.390   3.634   7.753  0.3434 -0.0974 -0.3054
  482PNCE   C2B 4321  12.352   3.799   7.463  0.1735  0.1141  0.1560
  482PNCE   C3B 4322  12.187   3.965   7.094  0.0017 -0.0891  0.1552
  482PNCE   D4B 4323  12.297   3.832   6.708 -0.0181  0.2256  0.0480
  482PNCE   C5B 4324  11.920   3.624   6.489  0.0094  0.2502 -0.1714
  482PNCE   C6B 4325  11.598   3.817   6.216  0.1744 -0.0837 -0.1300
  483PNCE   AM1 4326   1.114   7.954   7.991  0.1670 -0.1537  0.2544
  483PNCE   AM2 4327   1.396   8.203   8.044 -0.3313  0.0203 -0.0100
  483PNCE   T1A 4328   0.995   8.320   7.719 -0.2235  0.0927 -0.0253
  483PNCE   C2A 4329   1.191   8.642   7.462 -0.0509  0.0545  0.1179
  483PNCE   C3A 4330   1.060   9.013   7.284 -0.3456 -0.0383 -0.4276
  483PNCE   C1B 4331   1.494   8.292   7.630  0.1852  0.0166  0.0581
  483PNCE   C2B 4332   1.674   8.116   7.365  0.2097  0.2115 -0.1109
  483PNCE   C3B 4333   1.602   7.901   6.972  0.1627  0.0649 -0.0305
  483PNCE   D4B 4334   1.450   7.476   6.847  0.0539  0.0007 -0.0669
  483PNCE   C5B 4335   1.073   7.346   7.016  0.1615 -0.2813  0.3669
  483PNCE   C6B 4336   0.751   7.349   7.395  0.0675  0.1263 -0.1144
  484PNCE   AM1 4337   5.764   5.396   8.586 -0.0740 -0.1258  0.4136
  484PNCE   AM2 4338   5.458   5.099   8.600 -0.1653 -0.2150 -0.2161
  484PNCE   T1A 4339   5.733   5.500   8.182  0.0832 -0.1260 -0.2749
  484PNCE   C2A 4340   5.380   5.592   7.893 -0.1370 -0.1090 -0.0529
  484PNCE   C3A 4341   5.363   5.841   7.602  0.0897 -0.1077  0.0074
  484PNCE   C1B 4342   5.317   5.615   8.495  0.2440  0.1627 -0.1203
  484PNCE   C2B 4343   5.094   5.900   8.187 -0.1525  0.1796  0.1038
  484PNCE   C3B 4344   4.900   5.812   7.796 -0.2346  0.4115 -0.4082
  484PNCE   D4B 4345   4.894   5.782   7.384 -0.0059  0.3125  0.0185
  484PNCE   C5B 4346   5.251   5.666   7.137 -0.0164 -0.0737  0.1495
  484PNCE   C6B 4347   5.632   5.778   7.101  0.2052  0.0456 -0.1948
  485PNCE   AM1 4348  12.043  14.873   9.400  0.2236 -0.0217 -0.1325
  485PNCE   AM2 4349  12.057  14.995   9.133  0.0987 -0.0120 -0.0773
  485PNCE   T1A 4350  12.178  14.486   9.241  0.0698  0.1053 -0.1246
  485PNCE   C2A 4351  12.433  14.292   8.950  0.2902  0.3821 -0.0607
  485PNCE   C3A 4352  12.471  14.088   8.555 -0.1639  0.1955 -0.1135
  485PNCE   C1B 4353  11.926  14.886   8.666 -0.1785 -0.0771 -0.0059
  485PNCE   C2B 4354  12.160  15.004   8.210  0.1166  0.3865  0.3853
  485PNCE   C3B 4355  12.451  15.258   7.868 -0.0255 -0.2121  0.3781
  485PNCE   D4B 4356  12.594  15.152   7.454 -0.0004  0.0403  0.1857
  485PNCE   C5B 4357  12.881  14.737   7.454 -0.0349 -0.0485 -0.0781
  485PNCE   C6B 4358  12.868  14.301   7.268 -0.1241 -0.1361  0.3002
  486PNCE   AM1 4359   8.616   9.875   8.421 -0.1735 -0.1115  0.1473
  486PNCE   AM2 4360   8.307  10.055   8.470 -0.0434 -0.2110  0.4246
  486PNCE   T1A 4361   8.761  10.311   8.329  0.1985  0.2188 -0.1803
  486PNCE   C2A 4362   8.956  10.462   7.909  0.3769 -0.1013  0.1514
  486PNCE   C3A 4363   9.048  10.735   7.562 -0.1522  0.0631 -0.2151
  486PNCE   C1B 4364   8.347  10.188   8.074  0.0242  0.3566 -0.0266
  486PNCE   C2B 4365   7.930  10.130   7.944  0.2881  0.1346  0.0637
  486PNCE   C3B 4366   7.681  10.287   7.611 -0.2855  0.0588 -0.2794
  486PNCE   D4B 4367   7.733  10.590   7.440  0.2219  0.2509 -0.1545
  486PNCE   C5B 4368   8.059  10.882   7.358 -0.2076  0.0392  0.2378
  486PNCE   C6B 4369   8.263  11.100   7.000 -0.2682  0.0329  0.0372
  487PNCE   AM1 4370  12.146  12.105   9.017 -0.1722  0.3354  0.2422
  487PNCE   AM2 4371  11.816  12.012   8.927  0.0988 -0.1045  0.0969
  487PNCE   T1A 4372  12.328  12.019   8.601  0.2025 -0.0238 -0.0373
  487PNCE   C2A 4373  12.695  11.974   8.342 -0.1090  0.3951  0.1187
  487PNCE   C3A 4374  13.059  12.195   8.163  0.1192  0.1906  0.2503
  487PNCE   C1B 4375  11.989  11.639   8.691 -0.2073 -0.0380  0.0584
  487PNCE   C2B 4376  12.266  11.564   8.295  0.3555  0.0582  0.2409
  487PNCE   C3B 4377  12.385  11.568   7.828  0.0217  0.0343  0.1522
  487PNCE   D4B 4378  12.510  11.224   7.526  0.0447  0.1560 -0.1000
  487PNCE   C5B 4379  12.223  10.974   7.515  0.1820  0.1585 -0.1501
  487PNCE   C6B 4380  12.103  10.827   7.787  0.2726 -0.3239 -0.0647
  488PNCE   AM1 4381   1.709  14.308   8.826 -0.1353 -0.0582  0.1929
  488PNCE   AM2 4382   1.844  13.914   8.946  0.1873 -0.0592  0.3854
  488PNCE   T1A 4383   1.968  14.325   8.503 -0.3139  0.0382  0.0767
  488PNCE   C2A 4384   1.982  14.306   8.088  0.2898  0.1847  0.0394
  488PNCE   C3A 4385   2.091  14.295   7.666 -0.2083  0.1576  0.0247
  488PNCE   C1B 4386   1.738  13.771   8.579  0.3260  0.4583 -0.1157
  488PNCE   C2B 4387   1.801  13.765   8.200  0.2372 -0.0063 -0.1051
  488PNCE   C3B 4388   1.667  13.954   7.814 -0.2290 -0.2377  0.2094
  488PNCE   D4B 4389   1.673  14.287   7.513  0.2312 -0.1763  0.1350
  488PNCE   C5B 4390   1.572  14.371   7.206 -0.3577 -0.1990 -0.1360
  488PNCE   C6B 4391   1.544  14.373   6.729  0.0648  0.2000  0.2066
  489XCA    COO 4392   2.166  14.308   9.033  0.1573 -0.0763 -0.4826
  489XCA     C1 4393   2.184  14.684   8.785 -0.2323 -0.0530  0.3236
  489XCA     C2 4394   2.025  15.032   8.627 -0.0031  0.0639  0.0188
  489XCA     C3 4395   2.069  15.151   8.237 -0.0711  0.2171 -0.0402
  489XCA     C4 4396   1.919  15.379   7.886  0.0249  0.0605 -0.1181
  489XCA     C5 4397   1.485  15.433   7.541  0.0997 -0.0419  0.3945
  489XCA     C6 4398   1.490  15.273   7.123  0.1974  0.0542 -0.0196
  490CHOL   ROH 4399   2.061   7.629   5.516  0.3367 -0.0226  0.1911
  490CHOL    R1 4400   2.022   7.500   5.765  0.1891 -0.1070  0.1261
  490CHOL    R2 4401   1.942   7.635   5.992  0.3094 -0.1342  0.1869
  490CHOL    R3 4402   1.746   7.446   5.995  0.1169  0.0596  0.0789
  490CHOL    R4 4403   1.694   7.612   6.231  0.2308  0.0314  0.1226
  490CHOL    R5 4404   1.716   7.396   6.227  0.0135  0.0085  0.0545
  490CHOL    C1 4405   1.365   7.422   6.374  0.0043  0.3098 -0.0163
  490CHOL    C2 4406   1.039   7.235   6.506  0.0402  0.1927 -0.0370
  491CHOL   ROH 4407   6.676   8.064   8.932  0.0478 -0.0749  0.0829
  491CHOL    R1 4408   6.728   8.098   8.656  0.0060 -0.0494  0.0780
  491CHOL    R2 4409   6.952   7.992   8.532  0.0217  0.0184  0.0478
  491CHOL    R3 4410   6.767   7.883   8.365  0.0333 -0.0274  0.0651
  491CHOL    R4 4411   6.992   7.955   8.191 -0.0144  0.0641  0.0385
  491CHOL    R5 4412   6.783   8.013   8.165 -0.0386 -0.0024  0.0747
  491CHOL    C1 4413   6.842   7.830   7.836 -0.0245  0.0477  0.0494
  491CHOL    C2 4414   6.913   8.052   7.588  0.0983 -0.0129  0.1088
  492CHOL   ROH 4415   3.366   8.880   5.597 -0.1315 -0.1301 -0.1557
  492CHOL    R1 4416   3.376   8.806   5.870 -0.1259 -0.0136 -0.1232
  492CHOL    R2 4417   3.191   8.635   5.985 -0.1038  0.0057 -0.0538
  492CHOL    R3 4418   3.413   8.497   6.058 -0.0836  0.0708  0.0071
  492CHOL    R4 4419   3.208   8.416   6.251 -0.0829  0.0855  0.0103
  492CHOL    R5 4420   3.406   8.495   6.298 -0.1043  0.1372  0.0058
  492CHOL    C1 4421   3.426   8.159   6.476 -0.0518  0.1930  0.1049
  492CHOL    C2 4422   3.488   7.831   6.609  0.1604  0.0741  0.0189
  493PNCE   AM1 4423  10.600  10.252   8.721  0.1369 -0.2409 -0.0465
  493PNCE   AM2 4424  10.525  10.571   8.501  0.1419 -0.0508  0.1065
  493PNCE   T1A 4425  10.482  10.055   8.341 -0.0050 -0.0149 -0.1129
  493PNCE   C2A 4426  10.679  10.055   7.846 -0.0038  0.0813  0.2975
  493PNCE   C3A 4427  10.734  10.227   7.422  0.0765 -0.0389  0.3132
  493PNCE   C1B 4428  10.471  10.501   8.160 -0.0985  0.3146 -0.2166
  493PNCE   C2B 4429  10.242  10.351   7.808 -0.2387 -0.1249  0.0427
  493PNCE   C3B 4430  10.232  10.415   7.402 -0.0414  0.0716  0.0197
  493PNCE   D4B 4431  10.461  10.547   7.009 -0.1363  0.3553  0.0005
  493PNCE   C5B 4432  10.630  10.909   6.934  0.3698 -0.0561 -0.0814
  493PNCE   C6B 4433  10.844  11.014   6.525 -0.0401  0.2742 -0.1429
  494XCA    COO 4434  14.600   4.693   8.117  0.1863 -0.4038 -0.0423
  494XCA     C1 4435  14.219   4.597   7.837 -0.1780  0.0173  0.0399
  494XCA     C2 4436  14.098   4.234   7.537  0.0233 -0.0387 -0.1816
  494XCA     C3 4437  13.998   4.106   7.146 -0.0510  0.0757 -0.0451
  494XCA     C4 4438  13.691   4.107   6.808  0.4403 -0.0576 -0.1144
  494XCA     C5 4439  13.729   3.877   6.393  0.1535  0.0034  0.0372
  494XCA     C6 4440  13.816   3.940   6.000  0.2345 -0.0695  0.2452
  495CHOL   ROH 4441  14.600  11.444   4.812  0.1628  0.0686 -0.0485
  495CHOL    R1 4442  14.685  11.619   5.017 -0.1483  0.1070  0.0569
  495CHOL    R2 4443  14.537  11.663   5.246 -0.1703 -0.4081  0.1707
  495CHOL    R3 4444  14.768  11.592   5.370  0.0536 -0.0018 -0.0011
  495CHOL    R4 4445  14.611  11.731   5.576  0.0682 -0.1154  0.0584
  495CHOL    R5 4446  14.816  11.777   5.515 -0.0622  0.1417 -0.1581
  495CHOL    C1 4447  14.872  11.705   5.885  0.4173  0.4364 -0.1683
  495CHOL    C2 4448  14.953  11.597   6.224 -0.0750  0.0343 -0.1009
  496XCA    COO 4449  13.285   4.078   4.386 -0.1166 -0.0207  0.1017
  496XCA     C1 4450  12.885   3.889   4.560 -0.3610 -0.4302  0.0954
  496XCA     C2 4451  12.845   3.689   4.886  0.0248  0.2819  0.3069
  496XCA     C3 4452  13.095   3.584   5.277 -0.3044  0.1352  0.2955
  496XCA     C4 4453  13.464   3.484   5.570  0.4034 -0.2155  0.3978
  496XCA     C5 4454  13.847   3.477   5.760  0.0836 -0.0457  0.1213
  496XCA     C6 4455  14.314   3.357   5.649  0.0286  0.0437 -0.0159
  497PNCE   AM1 4456   5.119  14.960   9.120  0.1702  0.0782  0.2183
  497PNCE   AM2 4457   4.894  15.267   9.035  0.0037 -0.1144  0.0869
  497PNCE   T1A 4458   4.777  14.869   8.723 -0.1016  0.2409 -0.1741
  497PNCE   C2A 4459   4.631  14.942   8.324  0.1687  0.2790  0.0316
  497PNCE   C3A 4460   4.665  14.607   7.984 -0.1628  0.0149 -0.0897
  497PNCE   C1B 4461   4.746  15.356   8.673  0.0845 -0.1205  0.1568
  497PNCE   C2B 4462   4.647  15.409   8.111  0.1688  0.0030 -0.1497
  497PNCE   C3B 4463   4.463  15.144   7.809 -0.1557 -0.0465  0.2295
  497PNCE   D4B 4464   4.343  14.746   7.534  0.0887  0.0920 -0.2631
  497PNCE   C5B 4465   4.116  14.383   7.619 -0.1913  0.2432 -0.1582
  497PNCE   C6B 4466   3.942  13.995   7.589 -0.1269 -0.0105 -0.0220
  498CHOL   ROH 4467   4.580  12.075   7.938  0.0669  0.0031  0.2217
  498CHOL    R1 4468   4.377  11.877   7.932  0.0558  0.0168  0.0507
  498CHOL    R2 4469   4.288  11.762   7.697  0.1591  0.1086 -0.0394
  498CHOL    R3 4470   4.350  11.531   7.826  0.0875  0.0596 -0.0937
  498CHOL    R4 4471   4.179  11.448   7.602 -0.0128  0.1699 -0.0476
  498CHOL    R5 4472   4.150  11.400   7.813  0.0276  0.1532 -0.0513
  498CHOL    C1 4473   4.174  11.048   7.668 -0.1801  0.1597 -0.1033
  498CHOL    C2 4474   3.904  10.976   7.632  0.3467 -0.0422 -0.1135
  499PNCE   AM1 4475   9.707   0.919   8.489  0.1154 -0.1685 -0.1097
  499PNCE   AM2 4476   9.338   1.089   8.566  0.1964 -0.0666 -0.1916
  499PNCE   T1A 4477  10.042   0.803   8.167 -0.1629  0.2968  0.1458
  499PNCE   C2A 4478  10.103   0.798   7.699 -0.0795  0.1718  0.2180
  499PNCE   C3A 4479  10.166   0.544   7.327  0.1902 -0.1157  0.1139
  499PNCE   C1B 4480   9.145   1.272   8.092  0.1711  0.0618 -0.3026
  499PNCE   C2B 4481   9.256   1.112   7.627  0.0901 -0.0035 -0.1728
  499PNCE   C3B 4482   9.506   0.861   7.369 -0.1167  0.1024  0.2789
  499PNCE   D4B 4483   9.743   0.451   7.127  0.3607  0.0820  0.2060
  499PNCE   C5B 4484   9.767   0.251   6.710 -0.3557 -0.4358  0.1839
  499PNCE   C6B 4485  10.072   0.248   6.463 -0.0237 -0.2782  0.1221
  500PNCE   AM1 4486  10.543  11.457   8.603  0.1215  0.0415  0.0487
  500PNCE   AM2 4487  10.526  11.708   8.424  0.0000  0.4383  0.0684
  500PNCE   T1A 4488  10.109  11.434   8.569 -0.2176  0.0830  0.2914
  500PNCE   C2A 4489   9.997  11.270   8.234 -0.2628 -0.2103 -0.0850
  500PNCE   C3A 4490   9.856  11.405   7.776 -0.0161  0.0306  0.1216
  500PNCE   C1B 4491  10.596  11.635   7.992  0.0977  0.2797  0.0511
  500PNCE   C2B 4492  10.834  11.512   7.689  0.1604  0.3117  0.2987
  500PNCE   C3B 4493  10.930  11.140   7.409  0.2101  0.0582 -0.1007
  500PNCE   D4B 4494  11.231  10.947   7.299 -0.0814 -0.0722 -0.2623
  500PNCE   C5B 4495  11.245  10.535   7.315 -0.1915  0.3202 -0.1214
  500PNCE   C6B 4496  11.529  10.429   7.634  0.3317  0.0399 -0.1722
  501PNCE   AM1 4497  10.047   7.417   8.483  0.0552 -0.0018  0.3118
  501PNCE   AM2 4498  10.279   7.594   8.347 -0.3941 -0.0685  0.1909
  501PNCE   T1A 4499   9.618   7.517   8.274 -0.1735  0.0955 -0.1107
  501PNCE   C2A 4500   9.301   7.412   8.291 -0.1135  0.1187 -0.1043
  501PNCE   C3A 4501   9.131   6.999   8.196  0.3874 -0.1646  0.1081
  501PNCE   C1B 4502  10.338   7.923   8.024  0.0301  0.0088  0.0010
  501PNCE   C2B 4503  10.371   7.880   7.643 -0.0344  0.1446  0.0652
  501PNCE   C3B 4504  10.608   7.995   7.266 -0.0436 -0.0338 -0.0267
  501PNCE   D4B 4505  10.843   8.409   7.186 -0.1743  0.0621 -0.2620
  501PNCE   C5B 4506  10.580   8.732   7.009  0.3680 -0.0732 -0.0308
  501PNCE   C6B 4507  10.228   8.970   7.151  0.0285  0.0306  0.2488
  502PNCE   AM1 4508   7.544   3.096   7.830  0.1822  0.1593  0.0482
  502PNCE   AM2 4509   7.238   3.084   7.800  0.1827  0.2431 -0.2498
  502PNCE   T1A 4510   7.548   3.154   7.390 -0.0007  0.1475 -0.0423
  502PNCE   C2A 4511   7.523   3.160   6.873  0.1355  0.1190 -0.2489
  502PNCE   C3A 4512   7.343   3.354   6.551  0.1024  0.0059  0.1118
  502PNCE   C1B 4513   7.185   2.724   7.632  0.3371  0.2494  0.0775
  502PNCE   C2B 4514   7.261   2.490   7.327  0.3583  0.2902 -0.1341
  502PNCE   C3B 4515   7.554   2.106   7.340  0.1649 -0.1071  0.0050
  502PNCE   D4B 4516   7.856   2.104   7.714  0.1165  0.3004  0.0818
  502PNCE   C5B 4517   8.179   2.344   7.532 -0.1552  0.2603 -0.2085
  502PNCE   C6B 4518   8.426   2.659   7.403 -0.0357  0.1463 -0.0957
  503CHOL   ROH 4519  12.883   2.047   6.685 -0.0979 -0.1282 -0.2565
  503CHOL    R1 4520  12.679   2.105   6.497 -0.1435  0.0349 -0.1575
  503CHOL    R2 4521  12.421   2.167   6.573 -0.1355 -0.0811 -0.0407
  503CHOL    R3 4522  12.463   2.388   6.420 -0.2025  0.0856  0.1742
  503CHOL    R4 4523  12.172   2.377   6.456 -0.2106 -0.0999  0.0813
  503CHOL    R5 4524  12.279   2.389   6.266 -0.1595  0.1311  0.1207
  503CHOL    C1 4525  12.067   2.706   6.244 -0.3173  0.0457  0.3542
  503CHOL    C2 4526  11.941   2.906   5.846 -0.0840 -0.0111 -0.0572
  504CHOL   ROH 4527  13.415   8.064   8.343 -0.1442 -0.3249  0.1166
  504CHOL    R1 4528  13.224   8.076   8.134 -0.0216 -0.1069  0.0121
  504CHOL    R2 4529  12.972   7.965   8.156  0.0368 -0.3359 -0.3333
  504CHOL    R3 4530  12.891   8.215   8.087 -0.0939 -0.2675  0.0495
  504CHOL    R4 4531  12.673   8.041   8.000  0.0677 -0.2677 -0.3577
  504CHOL    R5 4532  12.779   8.187   7.878  0.0333  0.0133 -0.0591
  504CHOL    C1 4533  12.423   8.320   7.845 -0.0370 -0.1637 -0.0125
  504CHOL    C2 4534  12.060   8.163   7.792 -0.0552  0.0309  0.0773
  505CHOL   ROH 4535   4.822   0.594   4.962  0.2503  0.3363 -0.0729
  505CHOL    R1 4536   4.639   0.645   5.172  0.2528  0.2413 -0.0475
  505CHOL    R2 4537   4.720   0.738   5.420  0.2440  0.2405 -0.0449
  505CHOL    R3 4538   4.538   0.934   5.370  0.1646  0.1788 -0.0009
  505CHOL    R4 4539   4.529   0.896   5.661  0.1489  0.0810 -0.0137
  505CHOL    R5 4540   4.359   0.890   5.523  0.1662  0.0521 -0.0339
  505CHOL    C1 4541   4.247   1.172   5.754  0.0191 -0.0698  0.0458
  505CHOL    C2 4542   4.170   1.401   5.961  0.1431  0.1331 -0.1142
  506CHOL   ROH 4543   5.948  12.285   8.986  0.2154  0.1297  0.1477
  506CHOL    R1 4544   5.862  12.350   8.725  0.1686  0.0356  0.1395
  506CHOL    R2 4545   5.792  12.607   8.651  0.0993 -0.0026  0.0758
  506CHOL    R3 4546   5.975  12.566   8.455  0.0847 -0.0137  0.0640
  506CHOL    R4 4547   5.770  12.736   8.331  0.0940  0.0142  0.0826
  506CHOL    R5 4548   5.845  12.545   8.255  0.0703  0.0086  0.0700
  506CHOL    C1 4549   5.931  12.772   7.960  0.0772  0.0137  0.0756
  506CHOL    C2 4550   5.681  12.726   7.728  0.1214  0.0943  0.2240
  507CHOL   ROH 4551   9.536   6.033   6.573  0.1108 -0.0947 -0.0337
  507CHOL    R1 4552   9.537   6.120   6.304 -0.0528  0.0441  0.0077
  507CHOL    R2 4553   9.644   6.362   6.226  0.2440 -0.0746  0.0219
  507CHOL    R3 4554   9.789   6.208   6.056 -0.1809 -0.2207 -0.2200
  507CHOL    R4 4555   9.833   6.483   5.963  0.3565 -0.2116  0.0393
  507CHOL    R5 4556   9.763   6.314   5.843 -0.0770  0.0537 -0.0972
  507CHOL    C1 4557  10.078   6.407   5.649  0.0230 -0.4285 -0.1776
  507CHOL    C2 4558  10.158   6.353   5.294 -0.0838  0.3237  0.0438
  508PNCE   AM1 4559  14.012   8.841   8.533  0.1246  0.0887 -0.2476
  508PNCE   AM2 4560  13.803   8.574   8.712 -0.0253  0.1730 -0.1056
  508PNCE   T1A 4561  13.890   8.769   8.077 -0.0664 -0.0035  0.2095
  508PNCE   C2A 4562  13.576   8.707   7.731 -0.3592 -0.1277 -0.1668
  508PNCE   C3A 4563  13.595   8.936   7.364  0.0581 -0.1070 -0.0546
  508PNCE   C1B 4564  13.453   8.554   8.462  0.0846 -0.0566  0.0312
  508PNCE   C2B 4565  13.368   8.515   8.145  0.0776 -0.0471 -0.0234
  508PNCE   C3B 4566  13.224   8.363   7.808 -0.0651 -0.2951 -0.1638
  508PNCE   D4B 4567  13.228   8.233   7.411  0.2581  0.1742 -0.0348
  508PNCE   C5B 4568  13.054   8.400   7.130 -0.2250  0.2876 -0.1005
  508PNCE   C6B 4569  12.720   8.686   7.072  0.0194 -0.1512 -0.0244
  509CHOL   ROH 4570   6.392   0.097   4.554  0.1228 -0.0749 -0.0203
  509CHOL    R1 4571   6.440   0.331   4.706 -0.0694 -0.0161 -0.0461
  509CHOL    R2 4572   6.686   0.386   4.821 -0.1793  0.0815  0.1546
  509CHOL    R3 4573   6.662   0.619   4.684 -0.1220  0.0315  0.0596
  509CHOL    R4 4574   6.839   0.683   4.908  0.1436  0.0102 -0.1496
  509CHOL    R5 4575   6.656   0.788   4.853  0.1775  0.1271 -0.0245
  509CHOL    C1 4576   6.906   1.075   4.829  0.3855 -0.0783 -0.4161
  509CHOL    C2 4577   7.236   1.188   4.844  0.2839 -0.2912 -0.0790
  510PNCE   AM1 4578   3.395   8.851   9.202 -0.0981 -0.1578 -0.3916
  510PNCE   AM2 4579   3.272   9.140   9.230  0.2970 -0.0257  0.0681
  510PNCE   T1A 4580   3.624   8.817   8.794 -0.0279  0.0381 -0.1708
  510PNCE   C2A 4581   3.810   8.904   8.414 -0.0763 -0.2811 -0.1673
  510PNCE   C3A 4582   3.962   8.899   8.009 -0.2667  0.3110 -0.1911
  510PNCE   C1B 4583   3.422   9.409   9.038 -0.2014 -0.0021 -0.0099
  510PNCE   C2B 4584   3.646   9.551   8.699  0.1936  0.0583  0.1075
  510PNCE   C3B 4585   3.950   9.661   8.440  0.2352  0.1683 -0.3352
  510PNCE   D4B 4586   4.080   9.822   8.056  0.3694 -0.4270 -0.0060
  510PNCE   C5B 4587   3.727   9.978   7.816 -0.0128 -0.1770  0.2872
  510PNCE   C6B 4588   3.553  10.167   7.428  0.0189 -0.0718 -0.0061
  511PNCE   AM1 4589  15.020  13.564   8.935 -0.0172 -0.1113  0.0393
  511PNCE   AM2 4590  15.008  13.890   8.905 -0.2233  0.0452  0.3572
  511PNCE   T1A 4591  15.119  13.439   8.445  0.1395  0.1580  0.2840
  511PNCE   C2A 4592  15.342  13.503   8.060  0.0452  0.0657  0.0444
  511PNCE   C3A 4593  15.256  13.387   7.718 -0.0267  0.0536  0.2563
  511PNCE   C1B 4594  15.299  13.900   8.477  0.0073  0.0144 -0.1935
  511PNCE   C2B 4595  15.534  13.975   8.080 -0.1364 -0.0887 -0.2597
  511PNCE   C3B 4596  15.479  13.811   7.651  0.1545  0.0025 -0.2336
  511PNCE   D4B 4597  15.779  13.710   7.329  0.2362  0.0646 -0.3573
  511PNCE   C5B 4598  15.503  13.329   7.271  0.0122 -0.3645  0.2875
  511PNCE   C6B 4599  15.222  13.405   6.849  0.2492  0.1157 -0.2986
  512CHOL   ROH 4600   1.494  14.389   6.257  0.2427 -0.0600 -0.0846
  512CHOL    R1 4601   1.682  14.595   6.303  0.2323 -0.0535 -0.0717
  512CHOL    R2 4602   1.629  14.861   6.246  0.2551 -0.0653 -0.1465
  512CHOL    R3 4603   1.700  14.897   6.506  0.1755 -0.0084 -0.1327
  512CHOL    R4 4604   1.659  15.168   6.402  0.1865 -0.0305 -0.2015
  512CHOL    R5 4605   1.837  15.093   6.504  0.1626  0.0017 -0.1333
  512CHOL    C1 4606   1.743  15.380   6.737  0.0719  0.0434 -0.2205
  512CHOL    C2 4607   1.857  15.609   7.029  0.1544 -0.3358 -0.0708
  513CHOL   ROH 4608   5.432   5.291   7.391 -0.2153  0.0680  0.0807
  513CHOL    R1 4609   5.457   5.314   7.110 -0.0309  0.0684  0.0958
  513CHOL    R2 4610   5.702   5.304   6.981  0.0341 -0.2092  0.2301
  513CHOL    R3 4611   5.581   5.107   6.838 -0.1244 -0.0534  0.1458
  513CHOL    R4 4612   5.831   5.158   6.696 -0.0838 -0.1981  0.1706
  513CHOL    R5 4613   5.631   5.159   6.610 -0.0819 -0.0010  0.1685
  513CHOL    C1 4614   5.793   4.888   6.395 -0.3013 -0.0455  0.0570
  513CHOL    C2 4615   5.885   4.579   6.156  0.4609  0.0980 -0.2686
  514PNCE   AM1 4616  11.065  11.601   8.759 -0.0613  0.0325 -0.0075
  514PNCE   AM2 4617  10.958  11.892   8.614  0.1076  0.0162  0.1217
  514PNCE   T1A 4618  10.938  11.355   8.339  0.1224  0.1955  0.4639
  514PNCE   C2A 4619  11.161  11.147   7.896 -0.0601 -0.0303  0.4814
  514PNCE   C3A 4620  11.070  10.691   7.740  0.3930  0.0360 -0.1898
  514PNCE   C1B 4621  11.015  12.037   8.268  0.0805  0.0885  0.0959
  514PNCE   C2B 4622  11.441  12.073   8.006  0.5735 -0.2595  0.1342
  514PNCE   C3B 4623  11.846  12.149   7.811  0.0717 -0.0670  0.1851
  514PNCE   D4B 4624  12.155  11.985   7.471 -0.0316  0.2603  0.0081
  514PNCE   C5B 4625  12.405  12.286   7.394  0.0077 -0.0275 -0.1945
  514PNCE   C6B 4626  12.651  12.663   7.510 -0.1060  0.1797 -0.2724
  515CHOL   ROH 4627   6.056   8.839   6.213  0.1351 -0.0111  0.0445
  515CHOL    R1 4628   6.158   8.759   6.464 -0.0083  0.1360  0.1524
  515CHOL    R2 4629   6.429   8.736   6.513 -0.0420 -0.0687  0.2444
  515CHOL    R3 4630   6.372   8.902   6.721  0.0564  0.1883  0.0704
  515CHOL    R4 4631   6.631   8.782   6.790 -0.1929 -0.2029  0.3797
  515CHOL    R5 4632   6.452   8.785   6.914 -0.3025  0.1933  0.2303
  515CHOL    C1 4633   6.696   8.965   7.146 -0.1885 -0.0397  0.2951
  515CHOL    C2 4634   7.035   8.907   7.320 -0.1729  0.0273  0.2305
  516CHOL   ROH 4635  12.798  14.362   6.747 -0.3171 -0.2079 -0.1016
  516CHOL    R1 4636  12.795  14.082   6.786 -0.1385 -0.2004 -0.0289
  516CHOL    R2 4637  12.899  13.905   6.601 -0.1615 -0.1882 -0.0510
  516CHOL    R3 4638  13.043  13.817   6.814  0.0261 -0.0596 -0.1209
  516CHOL    R4 4639  12.990  13.576   6.655 -0.1163 -0.1577  0.0645
  516CHOL    R5 4640  12.946  13.604   6.867  0.0684 -0.0307  0.0906
  516CHOL    C1 4641  13.177  13.301   6.886  0.0860 -0.0192  0.0660
  516CHOL    C2 4642  13.501  13.189   7.035  0.0718 -0.2316  0.0365
  517PNCE   AM1 4643   7.139  12.381   8.831  0.0653 -0.2266  0.4462
  517PNCE   AM2 4644   7.453  12.273   8.676  0.0179  0.1775  0.4310
  517PNCE   T1A 4645   6.939  12.676   8.634  0.0674  0.0281 -0.1125
  517PNCE   C2A 4646   6.612  12.916   8.533  0.1257 -0.1465 -0.0108
  517PNCE   C3A 4647   6.342  12.804   8.297  0.3824 -0.0701  0.2979
  517PNCE   C1B 4648   7.275  12.119   8.307  0.1161 -0.0335  0.2229
  517PNCE   C2B 4649   7.021  11.942   8.045  0.1287 -0.2054  0.1697
  517PNCE   C3B 4650   6.657  11.651   7.957  0.4511  0.5066 -0.0406
  517PNCE   D4B 4651   6.311  11.723   7.797  0.0340  0.0532  0.0273
  517PNCE   C5B 4652   6.302  11.659   7.326  0.1609 -0.0811  0.1598
  517PNCE   C6B 4653   6.092  11.774   6.923 -0.0536  0.1911  0.0024
  518PNCE   AM1 4654   8.520   4.336   8.022 -0.1033 -0.4368  0.0057
  518PNCE   AM2 4655   8.420   4.670   7.896 -0.0817  0.0433 -0.2385
  518PNCE   T1A 4656   8.610   4.192   7.667  0.3012 -0.0244  0.0824
  518PNCE   C2A 4657   8.662   3.951   7.444  0.1293  0.1517  0.0107
  518PNCE   C3A 4658   8.559   3.661   7.077  0.0356 -0.0581  0.2414
  518PNCE   C1B 4659   8.287   4.960   7.560  0.0852 -0.0744  0.1204
  518PNCE   C2B 4660   8.194   5.114   7.108  0.2457 -0.0957  0.3274
  518PNCE   C3B 4661   8.083   5.301   6.737  0.3837 -0.2274  0.1001
  518PNCE   D4B 4662   7.673   5.504   6.539 -0.0289 -0.3839  0.0927
  518PNCE   C5B 4663   7.499   5.305   6.125 -0.0524  0.2756 -0.0218
  518PNCE   C6B 4664   7.408   4.767   5.970  0.1542  0.1353  0.0258
  519XCA    COO 4665   9.121  11.732   5.422  0.1373 -0.0294 -0.2422
  519XCA     C1 4666   9.412  11.484   5.741 -0.0986  0.1668 -0.1810
  519XCA     C2 4667   9.637  11.037   5.725 -0.1292  0.3811  0.2137
  519XCA     C3 4668   9.911  10.661   5.700  0.0803 -0.0444 -0.2347
  519XCA     C4 4669  10.043  10.231   5.732  0.1244  0.4625 -0.0169
  519XCA     C5 4670  10.211   9.883   5.999  0.1546 -0.0206 -0.1147
  519XCA     C6 4671  10.254   9.944   6.450 -0.3281  0.1079 -0.1445
  520XCA    COO 4672  10.928  14.681   8.673 -0.0408 -0.2359 -0.1236
  520XCA     C1 4673  10.963  14.384   8.414 -0.0154 -0.0615 -0.0842
  520XCA     C2 4674  11.094  14.038   8.181  0.0404 -0.3290  0.1494
  520XCA     C3 4675  11.298  13.926   7.873  0.3138 -0.1735  0.5269
  520XCA     C4 4676  11.613  13.935   7.519 -0.0049  0.1208 -0.2755
  520XCA     C5 4677  11.733  13.609   7.336  0.0489 -0.0061 -0.0771
  520XCA     C6 4678  12.014  13.585   6.974 -0.3630 -0.2066  0.2224
  521XCA    COO 4679  15.278  11.058   4.831  0.1511  0.0503 -0.1382
  521XCA     C1 4680  14.885  11.066   5.130 -0.1824 -0.2206 -0.0471
  521XCA     C2 4681  14.459  11.115   5.285  0.2892 -0.4733  0.1257
  521XCA     C3 4682  14.053  10.890   5.546 -0.1017 -0.1129 -0.1126
  521XCA     C4 4683  13.721  11.000   5.787  0.1325 -0.1323 -0.2211
  521XCA     C5 4684  13.333  10.764   5.826  0.0077 -0.2547  0.0656
  521XCA     C6 4685  12.888  10.582   5.972 -0.0644  0.0158 -0.1172
  522PNCE   AM1 4686  12.136   1.249   8.515 -0.0688 -0.1884  0.1689
  522PNCE   AM2 4687  12.188   0.926   8.561 -0.1836  0.1661  0.2627
  522PNCE   T1A 4688  12.243   1.295   8.166 -0.1590 -0.0817  0.2256
  522PNCE   C2A 4689  12.368   1.224   7.709  0.1977  0.0670 -0.1946
  522PNCE   C3A 4690  12.318   0.949   7.402 -0.3586  0.1631  0.4654
  522PNCE   C1B 4691  12.190   0.704   8.178  0.2093  0.1867 -0.1344
  522PNCE   C2B 4692  12.149   0.536   7.766 -0.0108  0.2472 -0.0172
  522PNCE   C3B 4693  12.034   0.202   7.366  0.1424  0.0949 -0.1552
  522PNCE   D4B 4694  11.908  -0.008   7.041 -0.0085  0.0966 -0.2357
  522PNCE   C5B 4695  11.901  -0.489   7.020 -0.2389  0.0847 -0.0479
  522PNCE   C6B 4696  11.704  -0.941   7.186  0.1449 -0.5425 -0.0367
  523CHOL   ROH 4697  13.065   9.001   7.217 -0.3641  0.1158 -0.0036
  523CHOL    R1 4698  13.142   9.226   7.064 -0.1243  0.0338 -0.0087
  523CHOL    R2 4699  12.958   9.404   6.958  0.0406  0.0274 -0.3214
  523CHOL    R3 4700  13.109   9.588   7.090 -0.0879  0.0526 -0.2087
  523CHOL    R4 4701  13.046   9.714   6.833 -0.0966  0.1303 -0.1661
  523CHOL    R5 4702  13.244   9.688   6.919 -0.1026  0.2004 -0.1343
  523CHOL    C1 4703  13.238  10.067   6.884 -0.2971  0.2140  0.0302
  523CHOL    C2 4704  13.631  10.242   6.640 -0.2120  0.1260  0.1009
  524XCA    COO 4705  12.809  15.596   4.530  0.1422 -0.0409  0.4638
  524XCA     C1 4706  12.600  15.615   4.893 -0.1121  0.1853 -0.0375
  524XCA     C2 4707  12.378  15.539   5.271  0.3712 -0.0544 -0.2069
  524XCA     C3 4708  12.180  15.664   5.681  0.1485  0.0413 -0.2027
  524XCA     C4 4709  12.199  15.567   6.029  0.2514  0.1062 -0.1537
  524XCA     C5 4710  12.351  15.212   6.299  0.1786  0.0486 -0.2434
  524XCA     C6 4711  12.146  14.969   6.589 -0.0844 -0.3123  0.2292
  525CHOL   ROH 4712  13.048  13.971   5.991 -0.0292  0.0324  0.0152
  525CHOL    R1 4713  12.892  13.736   6.015  0.0162  0.0165  0.1468
  525CHOL    R2 4714  12.722  13.691   6.228 -0.1420  0.2082  0.0562
  525CHOL    R3 4715  12.538  13.654   6.032  0.0225 -0.0633 -0.0528
  525CHOL    R4 4716  12.465  13.460   6.238 -0.2684  0.3524  0.2623
  525CHOL    R5 4717  12.501  13.417   6.028 -0.0900 -0.0638  0.3620
  525CHOL    C1 4718  12.143  13.291   6.059 -0.1876  0.1817  0.2800
  525CHOL    C2 4719  11.884  13.015   6.033 -0.2674 -0.1230  0.1752
  526PNCE   AM1 4720   5.840   1.694   8.435 -0.0697 -0.2917  0.0454
  526PNCE   AM2 4721   5.730   1.921   8.283  0.0458  0.0533  0.1935
  526PNCE   T1A 4722   5.772   1.147   8.341  0.3157 -0.2964 -0.0279
  526PNCE   C2A 4723   5.559   0.730   8.153 -0.0894  0.0566  0.0742
  526PNCE   C3A 4724   5.267   0.579   7.962 -0.2260 -0.1822  0.1655
  526PNCE   C1B 4725   5.897   1.784   7.842  0.1416  0.1679  0.2937
  526PNCE   C2B 4726   5.949   1.721   7.461  0.0752  0.1365 -0.0075
  526PNCE   C3B 4727   6.161   1.593   7.038  0.0839 -0.0633 -0.2199
  526PNCE   D4B 4728   5.960   1.432   6.615  0.2799  0.0365 -0.0559
  526PNCE   C5B 4729   5.696   1.074   6.591 -0.2709 -0.1838 -0.1137
  526PNCE   C6B 4730   5.561   0.763   6.782 -0.0550 -0.0811  0.0538
  527XCA    COO 4731  14.097   5.783   7.725  0.0216 -0.1869 -0.0519
  527XCA     C1 4732  14.206   5.585   7.269 -0.2126 -0.0657  0.0052
  527XCA     C2 4733  14.042   5.505   6.812  0.0219 -0.1316 -0.0732
  527XCA     C3 4734  13.820   5.613   6.426  0.0922  0.2412 -0.0852
  527XCA     C4 4735  13.416   5.780   6.336 -0.4115  0.0329 -0.2310
  527XCA     C5 4736  13.190   5.968   6.047  0.3561 -0.0194 -0.3421
  527XCA     C6 4737  12.811   5.946   5.814  0.0847 -0.0559  0.0179
  528CHOL   ROH 4738   8.209   8.663   8.314 -0.0230 -0.2331  0.2350
  528CHOL    R1 4739   8.133   8.638   8.042  0.0498 -0.0635  0.1975
  528CHOL    R2 4740   8.303   8.699   7.834  0.1527 -0.0608  0.2809
  528CHOL    R3 4741   8.244   8.446   7.753  0.0358  0.0083  0.1445
  528CHOL    R4 4742   8.291   8.594   7.505  0.1222  0.1153  0.2246
  528CHOL    R5 4743   8.114   8.476   7.554  0.0622  0.1739  0.1509
  528CHOL    C1 4744   8.228   8.295   7.238 -0.0053  0.2828  0.0637
  528CHOL    C2 4745   8.247   8.167   6.847 -0.0927 -0.2582  0.0144
  529XCA    COO 4746   3.640  14.064   9.336 -0.2492 -0.2634  0.0286
  529XCA     C1 4747   3.597  14.338   8.903 -0.0804  0.4040 -0.0601
  529XCA     C2 4748   3.569  14.504   8.481 -0.1026  0.0700 -0.3132
  529XCA     C3 4749   3.427  14.856   8.345  0.0242  0.1520  0.1306
  529XCA     C4 4750   3.029  14.975   8.169  0.0340 -0.0848  0.2884
  529XCA     C5 4751   2.647  14.842   8.187  0.0060  0.1386 -0.1573
  529XCA     C6 4752   2.220  14.677   8.230 -0.3621 -0.0325  0.0840
  530PNCE   AM1 4753  15.529  15.277   9.096  0.2625 -0.0571 -0.0513
  530PNCE   AM2 4754  15.280  15.289   8.884  0.1751 -0.2608 -0.1567
  530PNCE   T1A 4755  15.787  15.359   8.743 -0.1043  0.0707 -0.0495
  530PNCE   C2A 4756  15.837  15.527   8.360  0.1905  0.2845  0.1283
  530PNCE   C3A 4757  15.816  15.650   7.967 -0.2663 -0.0328 -0.0107
  530PNCE   C1B 4758  15.093  15.097   8.668  0.1986 -0.2753  0.0955
  530PNCE   C2B 4759  15.160  14.894   8.213  0.4140 -0.1150 -0.0356
  530PNCE   C3B 4760  15.169  14.799   7.791  0.0943 -0.0149 -0.1138
  530PNCE   D4B 4761  14.888  14.583   7.409  0.1753  0.2115 -0.1288
  530PNCE   C5B 4762  14.477  14.644   7.639 -0.0776 -0.0620  0.1944
  530PNCE   C6B 4763  13.978  14.766   7.768 -0.1148 -0.0918  0.2633
  531CHOL   ROH 4764  12.365   6.708   5.716 -0.0691  0.3264 -0.0115
  531CHOL    R1 4765  12.197   6.727   5.943  0.2028  0.2184  0.2037
  531CHOL    R2 4766  11.993   6.548   5.993 -0.0682  0.4869  0.0815
  531CHOL    R3 4767  12.119   6.520   6.232  0.1446 -0.1767 -0.0861
  531CHOL    R4 4768  11.855   6.395   6.270 -0.2026  0.5327  0.0407
  531CHOL    R5 4769  11.944   6.551   6.394  0.4048  0.1374  0.1505
  531CHOL    C1 4770  11.892   6.279   6.656 -0.0811 -0.0636 -0.1404
  531CHOL    C2 4771  11.624   6.232   6.843 -0.0968 -0.1995  0.2220
  532PNCE   AM1 4772  15.095  10.613   9.185  0.0737  0.1981 -0.0955
  532PNCE   AM2 4773  14.897  10.685   8.872 -0.0114  0.3028  0.2128
  532PNCE   T1A 4774  15.255  10.400   8.775 -0.2131  0.0087 -0.2387
  532PNCE   C2A 4775  15.558  10.386   8.464 -0.2847 -0.0348  0.1454
  532PNCE   C3A 4776  15.863  10.275   8.297 -0.0778 -0.3048 -0.1997
  532PNCE   C1B 4777  15.064  10.689   8.337 -0.2319  0.1554  0.0453
  532PNCE   C2B 4778  14.849  10.864   7.985 -0.2475 -0.1481 -0.2438
  532PNCE   C3B 4779  14.569  11.038   7.728  0.1617  0.1840 -0.0572
  532PNCE   D4B 4780  14.416  11.435   7.608 -0.0623  0.2253  0.1846
  532PNCE   C5B 4781  14.086  11.545   7.839  0.1021 -0.1158 -0.3579
  532PNCE   C6B 4782  13.735  11.452   7.908 -0.1389 -0.3173  0.0165
  533PNCE   AM1 4783   3.280  12.798   8.934  0.0572 -0.0149  0.2711
  533PNCE   AM2 4784   3.220  13.135   9.038 -0.2243  0.0364  0.0535
  533PNCE   T1A 4785   3.427  12.760   8.673  0.0099 -0.0732 -0.0491
  533PNCE   C2A 4786   3.465  12.629   8.223  0.0260  0.2517 -0.0991
  533PNCE   C3A 4787   3.339  12.673   7.879  0.0999 -0.1642 -0.0690
  533PNCE   C1B 4788   3.164  13.089   8.476  0.0635 -0.0309  0.0764
  533PNCE   C2B 4789   3.066  13.020   8.039  0.0844  0.0534  0.2769
  533PNCE   C3B 4790   2.612  12.927   7.838 -0.0556  0.0110 -0.0819
  533PNCE   D4B 4791   2.349  12.870   7.482  0.2355  0.0830  0.2294
  533PNCE   C5B 4792   2.038  13.161   7.309  0.0153  0.2589  0.0307
  533PNCE   C6B 4793   1.930  13.556   7.532 -0.1870 -0.0029  0.0551
  534PNCE   AM1 4794   1.781  10.842   9.435 -0.0328 -0.2784 -0.2804
  534PNCE   AM2 4795   1.927  10.891   9.710  0.1727 -0.0840  0.1316
  534PNCE   T1A 4796   1.978  11.192   9.142 -0.3831  0.1236  0.2816
  534PNCE   C2A 4797   1.971  11.283   8.670  0.1148  0.0708 -0.0410
  534PNCE   C3A 4798   1.772  11.120   8.392 -0.3100  0.1510  0.0136
  534PNCE   C1B 4799   2.237  10.754   9.366  0.1601 -0.1014  0.2413
  534PNCE   C2B 4800   2.633  10.664   8.917 -0.0810 -0.3953 -0.0317
  534PNCE   C3B 4801   2.798  10.740   8.619 -0.0596  0.1792 -0.0736
  534PNCE   D4B 4802   2.878  11.071   8.220 -0.1759  0.1005  0.3723
  534PNCE   C5B 4803   3.276  10.934   7.906  0.0762 -0.1774 -0.1300
  534PNCE   C6B 4804   3.566  10.618   7.827  0.2541  0.0173 -0.1804
  535PNCE   AM1 4805   6.257   0.679   8.572  0.0610  0.0349  0.1489
  535PNCE   AM2 4806   6.172   0.435   8.295  0.0563 -0.1911  0.3167
  535PNCE   T1A 4807   5.879   0.687   8.564  0.2286 -0.1514 -0.0761
  535PNCE   C2A 4808   5.374   0.753   8.636 -0.0358 -0.1387 -0.0843
  535PNCE   C3A 4809   5.141   0.429   8.419 -0.2463  0.3326 -0.1838
  535PNCE   C1B 4810   5.907   0.354   7.892  0.0183 -0.2321  0.0239
  535PNCE   C2B 4811   5.735   0.321   7.493 -0.0228 -0.0873  0.0300
  535PNCE   C3B 4812   5.498   0.207   7.107  0.4072 -0.0532  0.4020
  535PNCE   D4B 4813   5.096   0.187   6.885  0.3344  0.0634  0.0005
  535PNCE   C5B 4814   5.257   0.101   6.526  0.0959  0.1835  0.1181
  535PNCE   C6B 4815   5.546  -0.027   6.165  0.1277  0.0727  0.2075
  536CHOL   ROH 4816   6.693   9.760   8.788 -0.0374 -0.3122  0.0253
  536CHOL    R1 4817   6.649   9.922   8.559  0.0027  0.0429  0.2609
  536CHOL    R2 4818   6.613   9.816   8.307  0.3903  0.4372  0.0231
  536CHOL    R3 4819   6.385   9.965   8.312  0.1999  0.1510  0.0668
  536CHOL    R4 4820   6.503  10.019   8.049  0.2648  0.5748  0.1833
  536CHOL    R5 4821   6.443  10.167   8.198  0.0046  0.3469  0.3088
  536CHOL    C1 4822   6.226  10.277   7.905  0.0129  0.3863  0.3177
  536CHOL    C2 4823   6.016  10.485   7.651  0.0814  0.0754 -0.0931
  537CHOL   ROH 4824  13.823  15.220   5.372 -0.2462 -0.0354 -0.1212
  537CHOL    R1 4825  13.863  15.376   5.605 -0.0680 -0.1685 -0.0590
  537CHOL    R2 4826  13.728  15.612   5.651  0.1782 -0.0368  0.0455
  537CHOL    R3 4827  13.661  15.490   5.885  0.0645 -0.0691 -0.0052
  537CHOL    R4 4828  13.565  15.766   5.914  0.0907 -0.0712  0.0100
  537CHOL    R5 4829  13.696  15.659   6.052  0.0151 -0.1112  0.0414
  537CHOL    C1 4830  13.406  15.741   6.286 -0.0669 -0.1217 -0.0582
  537CHOL    C2 4831  13.507  16.183   6.500 -0.0679 -0.3903 -0.0109
  538PNCE   AM1 4832  12.202  15.654   8.699  0.1956 -0.0322  0.0312
  538PNCE   AM2 4833  12.283  15.448   8.784 -0.0567  0.1040 -0.2107
  538PNCE   T1A 4834  12.080  15.510   8.265 -0.2135 -0.2346 -0.2040
  538PNCE   C2A 4835  11.944  15.378   7.895  0.2431  0.1468  0.0016
  538PNCE   C3A 4836  11.678  15.520   7.475 -0.0487  0.0384 -0.0547
  538PNCE   C1B 4837  12.657  15.282   8.717 -0.2854  0.0637 -0.1180
  538PNCE   C2B 4838  12.741  15.085   8.227  0.0994 -0.1485 -0.1546
  538PNCE   C3B 4839  12.510  14.785   7.836  0.0081  0.2363  0.3979
  538PNCE   D4B 4840  12.352  14.627   7.391 -0.1050 -0.0899 -0.3611
  538PNCE   C5B 4841  12.118  14.558   7.088 -0.2706  0.1771 -0.0860
  538PNCE   C6B 4842  12.249  14.494   6.636 -0.0924 -0.0201  0.2597
  539XCA    COO 4843   6.203  11.042   5.401  0.0546 -0.3304  0.1220
  539XCA     C1 4844   6.232  10.715   5.630 -0.2234 -0.2952 -0.2504
  539XCA     C2 4845   6.408  10.627   6.056  0.0908 -0.2084  0.3261
  539XCA     C3 4846   6.569  10.417   6.346  0.0305 -0.2204 -0.0333
  539XCA     C4 4847   6.822  10.257   6.639 -0.0799 -0.2329  0.2148
  539XCA     C5 4848   6.997  10.388   6.981  0.0863  0.2151 -0.2082
  539XCA     C6 4849   7.384  10.229   7.164  0.0679 -0.0491 -0.2782
  540CHOL   ROH 4850  11.508  12.595   6.173 -0.3216 -0.1455 -0.1790
  540CHOL    R1 4851  11.330  12.812   6.208 -0.2108 -0.0209 -0.3691
  540CHOL    R2 4852  11.380  13.018   6.383 -0.3876 -0.2105 -0.0867
  540CHOL    R3 4853  11.340  13.173   6.163  0.2007  0.0143 -0.0527
  540CHOL    R4 4854  11.271  13.346   6.390 -0.4938 -0.2464 -0.0409
  540CHOL    R5 4855  11.145  13.303   6.217  0.0016 -0.0987 -0.4609
  540CHOL    C1 4856  11.170  13.682   6.188 -0.0033 -0.0562  0.0176
  540CHOL    C2 4857  10.919  14.046   6.210  0.0954  0.1119  0.0138
  541PNCE   AM1 4858  13.676   8.083   8.750  0.0225  0.2648  0.1732
  541PNCE   AM2 4859  13.695   7.737   8.874  0.0358  0.4168  0.0048
  541PNCE   T1A 4860  13.843   8.220   8.331  0.1825 -0.1198 -0.0673
  541PNCE   C2A 4861  13.851   8.289   7.935  0.1678 -0.2407 -0.1094
  541PNCE   C3A 4862  13.729   8.250   7.483  0.1317 -0.1681  0.0295
  541PNCE   C1B 4863  13.647   7.655   8.446  0.0125 -0.4835  0.0766
  541PNCE   C2B 4864  13.596   7.833   7.991  0.0442 -0.0489  0.2363
  541PNCE   C3B 4865  13.424   7.884   7.670 -0.0415 -0.0962  0.1763
  541PNCE   D4B 4866  13.024   7.851   7.697  0.0053  0.1370  0.0035
  541PNCE   C5B 4867  12.807   7.863   7.305  0.0212  0.2437 -0.1833
  541PNCE   C6B 4868  12.448   7.681   7.162  0.0207  0.0071  0.2203
  542PNCE   AM1 4869   6.822   8.537   9.028  0.1349 -0.2093 -0.1348
  542PNCE   AM2 4870   6.678   8.842   9.236 -0.1560 -0.6649  0.1844
  542PNCE   T1A 4871   6.464   8.468   8.740  0.0926  0.0538  0.0580
  542PNCE   C2A 4872   6.535   8.352   8.304  0.0905 -0.0859  0.1329
  542PNCE   C3A 4873   6.459   8.196   7.882 -0.0281  0.1655 -0.1373
  542PNCE   C1B 4874   6.684   8.994   8.797  0.1073 -0.1087 -0.1379
  542PNCE   C2B 4875   6.566   8.846   8.415 -0.2436 -0.1835 -0.0205
  542PNCE   C3B 4876   6.384   8.771   7.968  0.0619 -0.1456  0.0601
  542PNCE   D4B 4877   6.586   8.761   7.594  0.0829  0.0977 -0.1687
  542PNCE   C5B 4878   6.647   8.510   7.306 -0.2901  0.0690  0.1062
  542PNCE   C6B 4879   6.504   8.140   7.290  0.3766 -0.0289 -0.0485
  543PNCE   AM1 4880   6.403   3.169   7.872  0.0407 -0.0753  0.1114
  543PNCE   AM2 4881   6.071   3.270   7.981  0.0320 -0.0232 -0.3167
  543PNCE   T1A 4882   6.321   2.954   7.563 -0.0207 -0.0877 -0.1129
  543PNCE   C2A 4883   6.306   2.979   7.136  0.1017  0.0709  0.2006
  543PNCE   C3A 4884   6.613   2.888   6.811  0.2419  0.2217  0.0397
  543PNCE   C1B 4885   5.882   3.340   7.606  0.1247  0.2583 -0.0669
  543PNCE   C2B 4886   5.859   3.146   7.172  0.0979 -0.1019 -0.3238
  543PNCE   C3B 4887   5.688   3.030   6.732  0.3362 -0.1004 -0.3694
  543PNCE   D4B 4888   5.663   2.723   6.494  0.1199 -0.1953 -0.0254
  543PNCE   C5B 4889   5.637   2.718   6.023 -0.0566  0.3841 -0.2800
  543PNCE   C6B 4890   5.806   2.805   5.663 -0.1448 -0.1653  0.2151
  544CHOL   ROH 4891   8.904   9.428   8.491 -0.0345  0.2157  0.1347
  544CHOL    R1 4892   8.834   9.494   8.225  0.0305  0.1601  0.1036
  544CHOL    R2 4893   9.022   9.529   8.026  0.0722  0.0054  0.1161
  544CHOL    R3 4894   8.872   9.343   7.896  0.0016  0.0323  0.1576
  544CHOL    R4 4895   8.971   9.520   7.684 -0.0862  0.0628  0.1369
  544CHOL    R5 4896   8.763   9.466   7.721 -0.0741  0.0672  0.2264
  544CHOL    C1 4897   8.802   9.340   7.363 -0.2448  0.1215  0.1878
  544CHOL    C2 4898   8.830   9.326   6.955 -0.0567  0.0247 -0.1825
  545PNCE   AM1 4899  10.403   1.711   8.183 -0.1097 -0.0051 -0.1248
  545PNCE   AM2 4900  10.226   1.375   8.340  0.1248  0.0441 -0.0864
  545PNCE   T1A 4901  10.514   1.651   7.770 -0.2569  0.1982 -0.0204
  545PNCE   C2A 4902  10.521   1.655   7.348  0.0089  0.2189 -0.1547
  545PNCE   C3A 4903  10.189   1.787   6.994  0.0364 -0.3776 -0.1483
  545PNCE   C1B 4904  10.327   1.208   7.878 -0.0523  0.0246 -0.2292
  545PNCE   C2B 4905  10.297   1.197   7.430 -0.1151 -0.4375  0.0943
  545PNCE   C3B 4906  10.297   1.315   6.940 -0.0064  0.2113 -0.4553
  545PNCE   D4B 4907  10.361   1.513   6.592 -0.1380 -0.0207  0.2607
  545PNCE   C5B 4908  10.074   1.478   6.328 -0.1744 -0.2228 -0.1862
  545PNCE   C6B 4909  10.010   1.080   6.058  0.0110  0.2044  0.4171
  546PNCE   AM1 4910  15.647   4.555   7.919 -0.2387  0.0644  0.2341
  546PNCE   AM2 4911  15.278   4.667   8.049 -0.2235  0.0332  0.2058
  546PNCE   T1A 4912  15.393   4.268   7.745 -0.0944 -0.2065  0.0075
  546PNCE   C2A 4913  15.359   4.048   7.342 -0.1297  0.2007  0.2658
  546PNCE   C3A 4914  15.606   3.716   7.127  0.1330  0.3330  0.1997
  546PNCE   C1B 4915  15.052   4.638   7.676 -0.3427  0.2029  0.2660
  546PNCE   C2B 4916  14.990   4.901   7.324  0.1838 -0.3827  0.1687
  546PNCE   C3B 4917  14.843   4.824   7.050 -0.1494 -0.1425 -0.1903
  546PNCE   D4B 4918  14.610   4.634   6.684  0.1402 -0.0031 -0.1736
  546PNCE   C5B 4919  14.546   4.725   6.280 -0.1098 -0.2441  0.3004
  546PNCE   C6B 4920  14.399   4.826   5.893  0.0025  0.0286 -0.3648
  547PNCE   AM1 4921   0.931   4.741   4.823  0.1490  0.0788 -0.1154
  547PNCE   AM2 4922   0.908   4.490   4.566  0.1740  0.1055  0.0699
  547PNCE   T1A 4923   0.695   4.591   5.165 -0.1451  0.1559  0.2238
  547PNCE   C2A 4924   0.655   4.581   5.600  0.0055 -0.1853  0.0222
  547PNCE   C3A 4925   0.428   4.571   5.958 -0.1200  0.1228 -0.1478
  547PNCE   C1B 4926   0.975   4.182   5.005  0.3858  0.1791 -0.0680
  547PNCE   C2B 4927   0.905   3.814   5.201  0.0423  0.0192 -0.1204
  547PNCE   C3B 4928   0.753   3.605   5.612  0.3129  0.1494 -0.0275
  547PNCE   D4B 4929   0.671   3.652   6.010  0.1078  0.3532 -0.0359
  547PNCE   C5B 4930   0.314   3.909   6.167  0.1654  0.1168  0.0220
  547PNCE   C6B 4931   0.202   4.244   6.404  0.1674  0.1469 -0.0999
  548PNCE   AM1 4932   0.187   4.983   7.679  0.0497 -0.1395 -0.0506
  548PNCE   AM2 4933   0.314   4.724   7.689 -0.0491  0.1484 -0.1523
  548PNCE   T1A 4934   0.002   5.088   7.226 -0.1101  0.3101  0.0039
  548PNCE   C2A 4935  -0.164   5.482   7.051 -0.1682 -0.2627  0.0734
  548PNCE   C3A 4936  -0.164   5.686   6.668 -0.3020 -0.1435 -0.3232
  548PNCE   C1B 4937   0.420   4.479   7.369  0.2237 -0.2151  0.3357
  548PNCE   C2B 4938   0.682   4.130   7.082  0.0548 -0.3168  0.0561
  548PNCE   C3B 4939   0.890   3.756   7.047 -0.2961 -0.0580 -0.0148
  548PNCE   D4B 4940   0.999   3.371   7.064 -0.0878  0.0231 -0.0372
  548PNCE   C5B 4941   0.703   3.101   7.339  0.0303 -0.1211  0.0168
  548PNCE   C6B 4942   0.491   3.124   7.672  0.1146 -0.0549  0.0467
  549CHOL   ROH 4943   6.084   9.712   9.447 -0.1032 -0.3027 -0.1417
  549CHOL    R1 4944   6.092   9.890   9.227  0.0245 -0.2466 -0.0920
  549CHOL    R2 4945   5.978   9.831   8.983 -0.0870 -0.0659 -0.0851
  549CHOL    R3 4946   5.850  10.068   9.021  0.1515  0.0517  0.0089
  549CHOL    R4 4947   5.915  10.063   8.735  0.0204  0.0305 -0.0233
  549CHOL    R5 4948   5.964  10.221   8.877  0.2338 -0.0345 -0.0202
  549CHOL    C1 4949   5.757  10.421   8.627  0.3068  0.1970  0.1010
  549CHOL    C2 4950   5.887  10.712   8.657  0.0527  0.1661  0.3021
  550XCA    COO 4951   9.184   6.563   8.544 -0.2683  0.2057 -0.2468
  550XCA     C1 4952   9.459   6.407   8.344 -0.1024  0.1784 -0.1631
  550XCA     C2 4953   9.446   6.070   7.994  0.0506 -0.4043 -0.0896
  550XCA     C3 4954   9.606   6.128   7.541 -0.0975  0.0360 -0.0012
  550XCA     C4 4955   9.581   6.485   7.180  0.3551  0.2154 -0.2026
  550XCA     C5 4956   9.349   6.843   7.092 -0.1185  0.2082  0.4629
  550XCA     C6 4957   9.377   7.184   7.313 -0.2739 -0.0691  0.0756
  551PNCE   AM1 4958   2.848   6.471   8.773 -0.0651  0.0087 -0.2885
  551PNCE   AM2 4959   3.151   6.447   8.539 -0.2464 -0.1512  0.2330
  551PNCE   T1A 4960   2.745   6.371   8.344 -0.3110 -0.0136 -0.0779
  551PNCE   C2A 4961   2.633   6.168   7.946 -0.0819  0.0382 -0.0162
  551PNCE   C3A 4962   2.573   5.809   7.663  0.0300  0.0247 -0.0851
  551PNCE   C1B 4963   3.105   6.652   8.198  0.2540  0.0838 -0.1537
  551PNCE   C2B 4964   2.893   6.559   7.813  0.3689 -0.2528  0.0100
  551PNCE   C3B 4965   2.672   6.658   7.490 -0.0527  0.0097  0.2544
  551PNCE   D4B 4966   2.652   6.563   7.151 -0.1226 -0.0562  0.0932
  551PNCE   C5B 4967   2.938   6.676   6.788 -0.1691  0.1817 -0.0972
  551PNCE   C6B 4968   3.356   6.647   6.548  0.0421 -0.1038  0.4484
  552XCA    COO 4969   8.813   6.295   8.319  0.0915  0.0429  0.1272
  552XCA     C1 4970   9.089   6.470   7.990 -0.0254 -0.0357 -0.2216
  552XCA     C2 4971   9.467   6.620   7.816 -0.1893 -0.1244  0.1427
  552XCA     C3 4972   9.694   6.849   7.553 -0.1562  0.1184  0.2564
  552XCA     C4 4973   9.850   6.980   7.201 -0.0176  0.0531 -0.0029
  552XCA     C5 4974   9.682   7.080   6.795  0.1226 -0.0893 -0.1948
  552XCA     C6 4975   9.479   7.272   6.518 -0.0053 -0.2043 -0.1265
  553PNCE   AM1 4976   4.022  12.195   9.536 -0.1292  0.0570 -0.1785
  553PNCE   AM2 4977   4.205  12.443   9.299  0.0070  0.1107  0.1533
  553PNCE   T1A 4978   3.983  12.038   9.159 -0.3998 -0.0675 -0.0235
  553PNCE   C2A 4979   4.080  12.025   8.709  0.3075  0.1896  0.0597
  553PNCE   C3A 4980   4.111  12.120   8.255  0.0985  0.1547 -0.7210
  553PNCE   C1B 4981   4.516  12.169   9.002 -0.1075 -0.1619  0.1376
  553PNCE   C2B 4982   4.573  12.003   8.648  0.1042 -0.0113  0.1778
  553PNCE   C3B 4983   4.654  11.835   8.313  0.0181 -0.0509  0.2269
  553PNCE   D4B 4984   4.850  11.669   7.967 -0.2620  0.4078 -0.0646
  553PNCE   C5B 4985   4.742  11.720   7.514  0.0079 -0.0167  0.0069
  553PNCE   C6B 4986   4.843  11.809   7.177  0.2061  0.0819 -0.0699
  554CHOL   ROH 4987   8.584  11.374   7.038  0.1494  0.1122 -0.1153
  554CHOL    R1 4988   8.424  11.580   6.929  0.0507  0.0265 -0.1383
  554CHOL    R2 4989   8.205  11.529   6.769  0.0265 -0.0959 -0.0776
  554CHOL    R3 4990   8.076  11.685   6.952  0.0191 -0.0934 -0.0876
  554CHOL    R4 4991   7.903  11.689   6.714  0.1993  0.1891 -0.2119
  554CHOL    R5 4992   7.981  11.862   6.821  0.2636  0.0606 -0.0558
  554CHOL    C1 4993   7.607  11.928   6.853  0.2929  0.3573 -0.2996
  554CHOL    C2 4994   7.373  12.205   6.755 -0.1145 -0.1518  0.0221
  555CHOL   ROH 4995   6.895   6.752   5.448 -0.0534  0.0230  0.1083
  555CHOL    R1 4996   6.852   6.552   5.644  0.0157  0.0453  0.1451
  555CHOL    R2 4997   6.888   6.599   5.914 -0.0571  0.1260  0.1368
  555CHOL    R3 4998   6.632   6.506   5.931 -0.0125 -0.0067  0.1166
  555CHOL    R4 4999   6.771   6.385   6.159  0.0572  0.0014  0.0850
  555CHOL    R5 5000   6.656   6.280   6.006  0.1053 -0.0178  0.0567
  555CHOL    C1 5001   6.464   6.173   6.318  0.1655 -0.1956  0.0359
  555CHOL    C2 5002   6.247   6.249   6.635 -0.2945 -0.0944  0.2809
  556CHOL   ROH 5003   3.078   4.409   8.208 -0.1789 -0.0741  0.1254
  556CHOL    R1 5004   3.092   4.390   7.925 -0.1669  0.1732  0.1062
  556CHOL    R2 5005   3.064   4.150   7.790  0.3267  0.1987 -0.0812
  556CHOL    R3 5006   2.870   4.286   7.656  0.0145 -0.0953  0.0609
  556CHOL    R4 5007   2.961   4.084   7.467  0.3118  0.1804 -0.0715
  556CHOL    R5 5008   2.949   4.298   7.431 -0.1045  0.1712  0.0383
  556CHOL    C1 5009   2.719   4.173   7.154  0.0100 -0.1062  0.0675
  556CHOL    C2 5010   2.534   3.775   7.254 -0.3994 -0.5791 -0.1231
  557PNCE   AM1 5011   3.802   9.889   9.615  0.2057  0.3996  0.1987
  557PNCE   AM2 5012   3.593   9.592   9.589  0.1256  0.0475  0.1856
  557PNCE   T1A 5013   4.092  10.357   9.663 -0.0684 -0.0143  0.1294
  557PNCE   C2A 5014   4.176  10.740   9.436  0.1437  0.4707  0.3511
  557PNCE   C3A 5015   4.157  11.102   9.084  0.2883  0.1753 -0.1962
  557PNCE   C1B 5016   3.893   9.658   9.214  0.1606 -0.1035  0.0492
  557PNCE   C2B 5017   3.957   9.936   8.851 -0.0534 -0.3991  0.0127
  557PNCE   C3B 5018   4.050  10.292   8.544 -0.0119  0.1839 -0.0707
  557PNCE   D4B 5019   4.249  10.653   8.299  0.2602 -0.1918  0.0633
  557PNCE   C5B 5020   4.153  10.604   7.888 -0.0212 -0.1882  0.2779
  557PNCE   C6B 5021   3.933  10.472   7.512 -0.1967  0.1794 -0.2516
  558CHOL   ROH 5022   7.596   8.379   5.283  0.2389  0.0212 -0.0147
  558CHOL    R1 5023   7.665   8.450   5.548  0.0751 -0.0093  0.0377
  558CHOL    R2 5024   7.475   8.508   5.741 -0.0451 -0.0240 -0.0737
  558CHOL    R3 5025   7.607   8.316   5.881 -0.1389 -0.0433 -0.0115
  558CHOL    R4 5026   7.532   8.516   6.082  0.0794  0.1302 -0.0972
  558CHOL    R5 5027   7.732   8.438   6.046  0.0097 -0.0402 -0.1242
  558CHOL    C1 5028   7.689   8.341   6.412  0.0637  0.2017 -0.0524
  558CHOL    C2 5029   7.519   8.338   6.816  0.0819 -0.0636 -0.0472
  559PNCE   AM1 5030   7.078   3.667   7.956  0.0956  0.1869 -0.1370
  559PNCE   AM2 5031   7.369   3.595   7.728 -0.0219  0.1558 -0.1422
  559PNCE   T1A 5032   6.690   3.543   7.726  0.3285  0.0292  0.0971
  559PNCE   C2A 5033   6.541   3.422   7.366  0.0526 -0.0607 -0.0925
  559PNCE   C3A 5034   6.553   3.450   7.003  0.0565 -0.0923  0.0947
  559PNCE   C1B 5035   7.120   3.426   7.421  0.0602  0.2228  0.3497
  559PNCE   C2B 5036   7.106   3.489   6.973  0.0124  0.1282  0.3688
  559PNCE   C3B 5037   6.858   3.286   6.541  0.1866  0.1839  0.0409
  559PNCE   D4B 5038   6.379   3.456   6.520 -0.2731  0.0571  0.2998
  559PNCE   C5B 5039   6.293   3.886   6.726  0.1781 -0.0116  0.1398
  559PNCE   C6B 5040   6.053   4.215   7.014  0.0129  0.4392  0.1142
  560PNCE   AM1 5041   5.039   1.000   9.252 -0.3904  0.2006 -0.3229
  560PNCE   AM2 5042   4.718   0.951   9.242 -0.1520  0.0175 -0.1669
  560PNCE   T1A 5043   5.108   1.125   8.861  0.2155  0.1112 -0.0769
  560PNCE   C2A 5044   4.996   1.497   8.506 -0.0150 -0.0659  0.0759
  560PNCE   C3A 5045   5.212   1.544   8.168 -0.0134 -0.2459 -0.0320
  560PNCE   C1B 5046   4.850   0.687   8.794 -0.0468 -0.0911 -0.0219
  560PNCE   C2B 5047   4.714   0.660   8.387  0.4300 -0.0897  0.0613
  560PNCE   C3B 5048   4.714   0.591   7.905  0.0442  0.4125 -0.0983
  560PNCE   D4B 5049   4.444   0.453   7.534  0.3688 -0.0195 -0.1248
  560PNCE   C5B 5050   4.159   0.680   7.733  0.1731 -0.0983  0.1038
  560PNCE   C6B 5051   3.787   0.596   8.079 -0.0183  0.0251 -0.0716
  561PNCE   AM1 5052   8.683   1.743   8.574  0.0153 -0.1436  0.3171
  561PNCE   AM2 5053   8.875   2.007   8.506 -0.2003  0.0765  0.1126
  561PNCE   T1A 5054   8.611   1.609   8.202 -0.4202 -0.2368  0.1966
  561PNCE   C2A 5055   8.316   1.539   7.806 -0.2750  0.2359  0.1217
  561PNCE   C3A 5056   8.162   1.705   7.487  0.1820 -0.0232  0.1389
  561PNCE   C1B 5057   8.737   2.050   8.131 -0.0230 -0.0898  0.0130
  561PNCE   C2B 5058   8.692   2.087   7.653  0.0459 -0.1741 -0.0124
  561PNCE   C3B 5059   8.755   2.359   7.300  0.0729 -0.1274  0.0132
  561PNCE   D4B 5060   8.902   2.167   6.976  0.5285  0.0830  0.0079
  561PNCE   C5B 5061   8.510   1.946   7.172  0.3233  0.1901 -0.2858
  561PNCE   C6B 5062   8.055   2.039   7.117 -0.0849  0.1306  0.4226
  562PNCE   AM1 5063  10.780   0.793   8.203  0.0052  0.0307 -0.0318
  562PNCE   AM2 5064  11.138   0.937   8.440 -0.1041  0.3239 -0.1024
  562PNCE   T1A 5065  10.529   0.774   7.882  0.0526  0.0984  0.2988
  562PNCE   C2A 5066  10.582   0.779   7.440 -0.4751 -0.0296 -0.1972
  562PNCE   C3A 5067  10.534   0.899   7.021  0.2034 -0.1794 -0.0847
  562PNCE   C1B 5068  11.273   0.993   7.977 -0.2352  0.0157  0.1767
  562PNCE   C2B 5069  11.419   1.134   7.551  0.0490 -0.0702 -0.1421
  562PNCE   C3B 5070  11.442   1.404   7.218 -0.2438  0.4779 -0.1270
  562PNCE   D4B 5071  11.664   1.644   6.896  0.0723  0.0278  0.0522
  562PNCE   C5B 5072  11.556   1.927   6.557 -0.2122 -0.0768  0.1390
  562PNCE   C6B 5073  11.693   2.290   6.415  0.2360  0.0722 -0.1440
  563PNCE   AM1 5074  14.376   1.773   8.421 -0.0697  0.2551  0.0801
  563PNCE   AM2 5075  14.152   1.537   8.586 -0.2025 -0.0187 -0.1079
  563PNCE   T1A 5076  14.765   1.679   8.323  0.3082 -0.3396 -0.2260
  563PNCE   C2A 5077  14.805   1.566   8.026 -0.0102 -0.2212  0.1068
  563PNCE   C3A 5078  14.852   1.740   7.573 -0.1888  0.1580 -0.0360
  563PNCE   C1B 5079  13.997   1.409   8.155  0.0812  0.0806  0.0693
  563PNCE   C2B 5080  13.783   1.406   7.800  0.1677 -0.3801 -0.1022
  563PNCE   C3B 5081  13.753   1.187   7.516 -0.3015  0.0673  0.1358
  563PNCE   D4B 5082  13.511   1.236   7.125  0.0034 -0.0061 -0.2357
  563PNCE   C5B 5083  13.101   1.055   7.021 -0.5164 -0.0009 -0.2103
  563PNCE   C6B 5084  12.778   1.043   6.916 -0.1018  0.2556 -0.2473
  564PNCE   AM1 5085  15.508   0.314   4.783 -0.0208  0.1342  0.0434
  564PNCE   AM2 5086  15.715   0.085   4.876 -0.1079 -0.2513 -0.1614
  564PNCE   T1A 5087  15.189   0.386   5.135  0.1229 -0.1100 -0.1419
  564PNCE   C2A 5088  14.970   0.575   5.453 -0.0648 -0.1704  0.2331
  564PNCE   C3A 5089  14.828   0.626   5.899 -0.2055  0.0027 -0.0369
  564PNCE   C1B 5090  15.916   0.066   5.352 -0.0938 -0.3203  0.2379
  564PNCE   C2B 5091  15.762   0.074   5.728 -0.0977  0.0096  0.1843
  564PNCE   C3B 5092  15.690   0.201   6.185  0.0607  0.0834  0.1794
  564PNCE   D4B 5093  15.882   0.113   6.628  0.2920  0.1375 -0.2018
  564PNCE   C5B 5094  15.725   0.211   6.938  0.2452 -0.2569  0.1981
  564PNCE   C6B 5095  15.768   0.737   7.073  0.2712  0.1228  0.0584
  565CHOL   ROH 5096   2.189   6.435   8.165  0.0500 -0.1335  0.1714
  565CHOL    R1 5097   2.135   6.390   7.891 -0.0501 -0.0393  0.1748
  565CHOL    R2 5098   2.335   6.379   7.700 -0.1215  0.0718  0.0891
  565CHOL    R3 5099   2.221   6.139   7.642 -0.0986  0.0714  0.0461
  565CHOL    R4 5100   2.419   6.181   7.429  0.0154  0.0418  0.1525
  565CHOL    R5 5101   2.207   6.136   7.403  0.0309  0.0483  0.0403
  565CHOL    C1 5102   2.361   5.841   7.217  0.1168  0.0240  0.1490
  565CHOL    C2 5103   2.741   5.537   7.164  0.2910 -0.0474  0.3361
  566CHOL   ROH 5104  12.961   6.911   5.345 -0.0745  0.1302  0.0439
  566CHOL    R1 5105  12.842   6.977   5.593 -0.0090  0.1663  0.0659
  566CHOL    R2 5106  12.887   6.831   5.823 -0.0983  0.0860  0.0320
  566CHOL    R3 5107  12.957   7.073   5.925  0.0852  0.0151  0.0785
  566CHOL    R4 5108  12.921   6.901   6.160 -0.6111  0.1334  0.0818
  566CHOL    R5 5109  12.826   7.094   6.124 -0.2589  0.2743 -0.1623
  566CHOL    C1 5110  13.007   7.169   6.452 -0.7375  0.0944  0.1544
  566CHOL    C2 5111  13.046   7.461   6.818 -0.0939  0.6373 -0.4410
  567PNCE   AM1 5112   9.187  12.099   8.533 -0.0549  0.0800 -0.1562
  567PNCE   AM2 5113   9.331  11.914   8.856 -0.1014  0.0753  0.0046
  567PNCE   T1A 5114   9.317  11.960   8.185  0.0575 -0.0912  0.4192
  567PNCE   C2A 5115   9.326  12.149   7.840  0.2986  0.0687 -0.0581
  567PNCE   C3A 5116   9.419  12.285   7.456  0.1456  0.0274 -0.1474
  567PNCE   C1B 5117   9.468  11.620   8.534 -0.3003 -0.0042  0.0941
  567PNCE   C2B 5118   9.770  11.702   8.170 -0.0248 -0.0101 -0.0840
  567PNCE   C3B 5119  10.092  11.814   7.945 -0.2818 -0.0460 -0.2809
  567PNCE   D4B 5120  10.321  11.802   7.535 -0.2538 -0.0512  0.1945
  567PNCE   C5B 5121  10.314  12.082   7.295  0.0191 -0.1499  0.0431
  567PNCE   C6B 5122  10.047  12.402   6.928  0.0056 -0.0302 -0.0886
  568PNCE   AM1 5123   5.388   3.590   8.048 -0.0165 -0.1008 -0.0920
  568PNCE   AM2 5124   5.497   3.246   7.965  0.0543  0.0423  0.3566
  568PNCE   T1A 5125   5.409   3.502   7.604 -0.2024  0.1064  0.2840
  568PNCE   C2A 5126   5.224   3.369   7.246 -0.2071  0.1375 -0.0452
  568PNCE   C3A 5127   5.277   3.341   6.898 -0.0100 -0.0458 -0.2076
  568PNCE   C1B 5128   5.481   3.005   7.586 -0.1026  0.1756 -0.1882
  568PNCE   C2B 5129   5.445   2.862   7.140  0.0947 -0.0159  0.0651
  568PNCE   C3B 5130   5.248   2.835   6.776 -0.0574 -0.0974  0.4280
  568PNCE   D4B 5131   5.228   2.413   6.515  0.0387 -0.3048  0.1428
  568PNCE   C5B 5132   5.502   2.088   6.549 -0.2503 -0.2086  0.3351
  568PNCE   C6B 5133   5.792   1.837   6.358  0.1886  0.5400  0.0401
  569PNCE   AM1 5134   3.698   2.774   8.568 -0.0349  0.0646 -0.0418
  569PNCE   AM2 5135   3.461   2.637   8.718  0.1706  0.2079  0.1582
  569PNCE   T1A 5136   4.046   2.585   8.264  0.0614  0.0652 -0.2270
  569PNCE   C2A 5137   4.164   2.424   7.801  0.3028  0.1479 -0.1760
  569PNCE   C3A 5138   4.017   2.322   7.436  0.1660 -0.0667 -0.1377
  569PNCE   C1B 5139   3.370   2.466   8.323  0.0016  0.0393  0.0249
  569PNCE   C2B 5140   3.209   2.265   7.967  0.3503 -0.1330  0.1210
  569PNCE   C3B 5141   3.148   2.162   7.555 -0.1329 -0.0010 -0.2289
  569PNCE   D4B 5142   3.154   2.145   7.103 -0.0866  0.0598 -0.3023
  569PNCE   C5B 5143   3.035   2.497   6.989 -0.2889  0.1594  0.0271
  569PNCE   C6B 5144   3.013   2.860   6.640 -0.2250  0.0780  0.1706
  570CHOL   ROH 5145  11.394  10.255   8.563 -0.0021  0.0250 -0.0495
  570CHOL    R1 5146  11.383  10.503   8.425  0.0359  0.0361 -0.0329
  570CHOL    R2 5147  11.607  10.622   8.316  0.0706  0.0572  0.0586
  570CHOL    R3 5148  11.458  10.622   8.090  0.1533  0.0675  0.0038
  570CHOL    R4 5149  11.683  10.799   8.029  0.1745  0.0699  0.0936
  570CHOL    R5 5150  11.471  10.847   8.009  0.1823  0.0705  0.0186
  570CHOL    C1 5151  11.587  10.902   7.649  0.3125  0.0870  0.0626
  570CHOL    C2 5152  11.692  11.153   7.325 -0.1625 -0.1707  0.1977
  571XCA    COO 5153   6.982   0.300   4.517  0.4334 -0.0960 -0.1270
  571XCA     C1 5154   7.284   0.459   4.893  0.1918 -0.2043  0.0710
  571XCA     C2 5155   7.254   0.781   5.096 -0.3234  0.3217  0.1106
  571XCA     C3 5156   7.006   1.081   5.350 -0.3875  0.1760 -0.0144
  571XCA     C4 5157   7.109   1.412   5.514  0.1149 -0.1312  0.4057
  571XCA     C5 5158   7.307   1.555   5.807  0.1013 -0.0465 -0.0143
  571XCA     C6 5159   7.729   1.560   6.062  0.0473  0.2432 -0.0311
  572PNCE   AM1 5160  12.978   3.125   8.246  0.3708 -0.1791  0.2527
  572PNCE   AM2 5161  12.709   3.290   8.418 -0.0147 -0.0737  0.0832
  572PNCE   T1A 5162  13.009   3.096   7.769 -0.1727  0.0359 -0.4954
  572PNCE   C2A 5163  13.022   2.962   7.302  0.0960  0.1531  0.0703
  572PNCE   C3A 5164  12.906   3.066   6.886 -0.1172  0.1561  0.0188
  572PNCE   C1B 5165  12.804   3.577   7.995  0.1471  0.2376  0.1460
  572PNCE   C2B 5166  12.927   3.503   7.525  0.3561 -0.0550  0.1318
  572PNCE   C3B 5167  12.912   3.546   7.057  0.1375 -0.2188 -0.0371
  572PNCE   D4B 5168  12.877   3.566   6.647  0.1621  0.5879  0.2346
  572PNCE   C5B 5169  13.135   3.686   6.313 -0.1600  0.0069  0.0365
  572PNCE   C6B 5170  13.476   3.499   6.138 -0.2753  0.2598 -0.1037
  573CHOL   ROH 5171   0.088  14.972   9.008  0.2774  0.0853  0.0957
  573CHOL    R1 5172   0.198  14.815   8.800  0.1542  0.1397 -0.0114
  573CHOL    R2 5173   0.042  14.677   8.619  0.0468  0.1603  0.0655
  573CHOL    R3 5174   0.188  14.815   8.436 -0.0909  0.2126 -0.0067
  573CHOL    R4 5175   0.080  14.586   8.287 -0.0011  0.1182  0.0712
  573CHOL    R5 5176   0.290  14.645   8.301 -0.0309  0.2459 -0.0044
  573CHOL    C1 5177   0.240  14.663   7.923 -0.1583  0.1428  0.0066
  573CHOL    C2 5178   0.347  14.652   7.483  0.0659  0.4158 -0.0879
  574PNCE   AM1 5179  12.591   4.909   8.348  0.1440 -0.0488 -0.1355
  574PNCE   AM2 5180  12.361   4.821   8.371 -0.0942 -0.0304  0.3298
  574PNCE   T1A 5181  12.851   4.833   7.919 -0.2374  0.3141 -0.1713
  574PNCE   C2A 5182  12.957   4.940   7.511 -0.0074  0.0378  0.2562
  574PNCE   C3A 5183  13.158   5.016   7.086 -0.1697  0.1016  0.0809
  574PNCE   C1B 5184  12.243   4.771   7.899 -0.0125 -0.3444 -0.0759
  574PNCE   C2B 5185  12.472   4.732   7.465  0.4326  0.0342 -0.0950
  574PNCE   C3B 5186  12.688   4.783   7.106 -0.1382 -0.3913  0.0399
  574PNCE   D4B 5187  12.758   4.919   6.722 -0.0172 -0.1231  0.3858
  574PNCE   C5B 5188  12.615   5.324   6.620  0.0408  0.1943  0.3416
  574PNCE   C6B 5189  12.478   5.739   6.699  0.2758  0.0411 -0.1761
  575PNCE   AM1 5190  12.664   0.964   8.653 -0.1573  0.0726 -0.1521
  575PNCE   AM2 5191  12.961   0.855   8.589 -0.1227 -0.1811  0.0237
  575PNCE   T1A 5192  12.636   0.995   8.188  0.0273  0.0715  0.2185
  575PNCE   C2A 5193  12.560   0.826   7.839 -0.2826 -0.0800 -0.1579
  575PNCE   C3A 5194  12.669   0.522   7.677  0.0413  0.2588  0.2720
  575PNCE   C1B 5195  13.211   0.635   8.389  0.0404 -0.0390  0.2741
  575PNCE   C2B 5196  13.509   0.350   8.261  0.1945  0.1171  0.1652
  575PNCE   C3B 5197  13.586   0.166   7.742 -0.0288  0.0677  0.0097
  575PNCE   D4B 5198  13.581   0.160   7.355  0.1743  0.2514 -0.1067
  575PNCE   C5B 5199  13.353  -0.224   7.118 -0.0068 -0.2112  0.2376
  575PNCE   C6B 5200  13.290  -0.481   6.699  0.2046  0.0212 -0.0906
  576XCA    COO 5201  13.786   5.981   8.178  0.0700 -0.1440 -0.1512
  576XCA     C1 5202  13.822   6.336   7.942 -0.0453 -0.0467 -0.1319
  576XCA     C2 5203  14.149   6.558   7.798  0.1305  0.0640 -0.1119
  576XCA     C3 5204  14.363   6.693   7.467  0.2732  0.1238  0.0622
  576XCA     C4 5205  14.633   6.872   7.125  0.3354  0.2802  0.0599
  576XCA     C5 5206  14.930   7.131   7.012  0.0653 -0.3375 -0.0405
  576XCA     C6 5207  15.276   7.312   6.923  0.0669  0.2153 -0.0948
  577XCA    COO 5208   3.076   5.085   8.618 -0.1708  0.3786 -0.0665
  577XCA     C1 5209   2.848   4.875   8.205  0.1628 -0.0499  0.1713
  577XCA     C2 5210   2.645   4.653   7.830  0.0528  0.1640 -0.0431
  577XCA     C3 5211   2.546   4.531   7.500 -0.0421  0.0247 -0.0309
  577XCA     C4 5212   2.277   4.595   7.142 -0.0111 -0.2000 -0.0265
  577XCA     C5 5213   1.959   4.398   6.966  0.2193  0.0609 -0.1612
  577XCA     C6 5214   1.763   4.105   6.736 -0.2031  0.0421  0.0648
  578PNCE   AM1 5215   1.554  10.808   5.191  0.2447 -0.2765  0.0296
  578PNCE   AM2 5216   1.216  10.801   5.058 -0.3792  0.0343  0.0808
  578PNCE   T1A 5217   1.397  11.027   5.536 -0.2545  0.3409  0.0220
  578PNCE   C2A 5218   1.143  11.006   5.873  0.1848  0.0515 -0.0471
  578PNCE   C3A 5219   1.071  11.088   6.337  0.2401 -0.0126  0.1303
  578PNCE   C1B 5220   0.992  10.609   5.364 -0.3022  0.2018  0.2317
  578PNCE   C2B 5221   0.596  10.654   5.734  0.0983 -0.2009  0.2303
  578PNCE   C3B 5222   0.395  10.502   6.085 -0.0529  0.0256  0.0291
  578PNCE   D4B 5223   0.215  10.247   6.407 -0.1203 -0.1406  0.0766
  578PNCE   C5B 5224  -0.071  10.403   6.745 -0.2262  0.1900 -0.0685
  578PNCE   C6B 5225  -0.377  10.331   7.179  0.0384  0.1848 -0.1247
  579CHOL   ROH 5226   6.375   0.261   7.880  0.2274 -0.3093 -0.2127
  579CHOL    R1 5227   6.378   0.308   7.600  0.0256 -0.3330 -0.2187
  579CHOL    R2 5228   6.180   0.216   7.432 -0.3227  0.0227 -0.0054
  579CHOL    R3 5229   6.166   0.477   7.358  0.0825  0.0507 -0.0127
  579CHOL    R4 5230   6.123   0.328   7.110 -0.6258  0.0683  0.0598
  579CHOL    R5 5231   6.270   0.484   7.143 -0.2398 -0.2086 -0.1968
  579CHOL    C1 5232   6.076   0.639   6.854 -0.4220  0.1212  0.0909
  579CHOL    C2 5233   6.195   0.908   6.568 -0.0529  0.0509 -0.0913
  580PNCE   AM1 5234   7.660   6.073   7.864 -0.2245  0.0695  0.1563
  580PNCE   AM2 5235   7.922   6.180   7.899 -0.2562  0.0089 -0.0202
  580PNCE   T1A 5236   7.435   6.248   7.461  0.1613  0.3345 -0.1541
  580PNCE   C2A 5237   7.340   6.092   7.054  0.3465 -0.1262  0.1368
  580PNCE   C3A 5238   7.422   5.727   6.927  0.0754 -0.2441 -0.1753
  580PNCE   C1B 5239   7.950   6.253   7.497 -0.1587  0.0546 -0.2359
  580PNCE   C2B 5240   7.817   6.147   7.095 -0.1980 -0.0431  0.3434
  580PNCE   C3B 5241   8.023   6.318   6.796  0.0976  0.2598  0.1472
  580PNCE   D4B 5242   8.474   6.487   6.653 -0.2830 -0.0669  0.1223
  580PNCE   C5B 5243   8.776   6.161   6.525  0.0652  0.1668  0.2867
  580PNCE   C6B 5244   9.162   6.222   6.571  0.0989 -0.2061  0.3092
  581CHOL   ROH 5245  13.972   6.575   4.323 -0.0221 -0.2112 -0.2068
  581CHOL    R1 5246  13.798   6.434   4.496 -0.0391 -0.1572 -0.1803
  581CHOL    R2 5247  13.891   6.272   4.701 -0.0581 -0.1768 -0.1885
  581CHOL    R3 5248  13.729   6.428   4.854  0.0053 -0.1278 -0.1710
  581CHOL    R4 5249  13.791   6.198   5.023 -0.0953 -0.1765 -0.1996
  581CHOL    R5 5250  13.593   6.273   4.974 -0.0631 -0.0859 -0.1935
  581CHOL    C1 5251  13.582   6.301   5.355 -0.0575 -0.1303 -0.1895
  581CHOL    C2 5252  13.255   6.165   5.602 -0.0008 -0.2915  0.2300
  582CHOL   ROH 5253   8.774   2.143   5.716  0.0802 -0.2239  0.0751
  582CHOL    R1 5254   8.623   2.259   5.926 -0.0639 -0.2082 -0.0368
  582CHOL    R2 5255   8.382   2.155   6.011  0.0139 -0.3632 -0.0133
  582CHOL    R3 5256   8.504   2.157   6.254 -0.0358 -0.0811  0.0145
  582CHOL    R4 5257   8.222   2.206   6.313 -0.1201 -0.4190 -0.0731
  582CHOL    R5 5258   8.391   2.328   6.377 -0.2883 -0.1625 -0.0959
  582CHOL    C1 5259   8.243   2.237   6.717 -0.2448 -0.1866 -0.0819
  582CHOL    C2 5260   8.209   2.554   6.921 -0.1448 -0.2954  0.1185
  583CHOL   ROH 5261   3.906   5.286   8.030  0.2504 -0.0109 -0.0278
  583CHOL    R1 5262   3.880   5.333   7.752  0.0673  0.0695  0.0015
  583CHOL    R2 5263   3.776   5.568   7.651  0.0541  0.1236  0.1368
  583CHOL    R3 5264   4.009   5.574   7.512 -0.0405  0.1009 -0.0256
  583CHOL    R4 5265   3.820   5.723   7.345 -0.0863  0.3162  0.2119
  583CHOL    R5 5266   3.943   5.554   7.282 -0.2148  0.2954  0.0049
  583CHOL    C1 5267   4.065   5.818   7.036 -0.2567  0.4070  0.1031
  583CHOL    C2 5268   4.055   6.143   6.784  0.1752 -0.2872 -0.0473
  584XCA    COO 5269   0.563   1.024   4.887 -0.0591 -0.0183  0.1952
  584XCA     C1 5270   0.257   1.297   5.093 -0.0195 -0.2092 -0.2402
  584XCA     C2 5271   0.062   1.435   5.579  0.1923  0.3595  0.2691
  584XCA     C3 5272  -0.116   1.419   5.974 -0.1880  0.0863 -0.2024
  584XCA     C4 5273  -0.061   1.278   6.353  0.1391  0.1628 -0.2646
  584XCA     C5 5274   0.210   1.140   6.672 -0.1068 -0.0830  0.2534
  584XCA     C6 5275   0.550   1.094   6.496 -0.4359 -0.0782  0.0058
  585PNCE   AM1 5276   3.724  14.539   9.502 -0.1443  0.3539 -0.1967
  585PNCE   AM2 5277   3.725  14.912   9.534  0.0048 -0.0338  0.0083
  585PNCE   T1A 5278   4.076  14.554   9.307 -0.1891  0.0574 -0.3739
  585PNCE   C2A 5279   4.577  14.523   9.034 -0.0940  0.1047  0.0902
  585PNCE   C3A 5280   4.795  14.299   8.813 -0.2635 -0.0407  0.0028
  585PNCE   C1B 5281   3.800  14.995   9.124 -0.3652 -0.2538  0.1301
  585PNCE   C2B 5282   3.719  15.081   8.649 -0.0361  0.1054  0.0326
  585PNCE   C3B 5283   3.931  14.936   8.315  0.3845 -0.2441 -0.0379
  585PNCE   D4B 5284   4.128  14.828   8.032 -0.2754  0.0791  0.0374
  585PNCE   C5B 5285   3.963  14.992   7.704  0.2699  0.1645 -0.0880
  585PNCE   C6B 5286   3.665  15.371   7.670  0.1213 -0.1156 -0.0747
  586PNCE   AM1 5287   4.879   4.269   7.896  0.0189  0.1085 -0.3032
  586PNCE   AM2 5288   4.597   4.335   7.960  0.2286  0.0729 -0.0668
  586PNCE   T1A 5289   4.679   4.136   7.474 -0.1246 -0.1595  0.0275
  586PNCE   C2A 5290   4.632   3.990   7.026 -0.1545 -0.1993  0.1131
  586PNCE   C3A 5291   4.489   4.045   6.657 -0.1200 -0.4936  0.3401
  586PNCE   C1B 5292   4.322   4.764   7.841 -0.0945  0.1231  0.1020
  586PNCE   C2B 5293   4.286   5.096   7.534 -0.0996 -0.1433 -0.2529
  586PNCE   C3B 5294   4.388   5.422   7.259  0.0446 -0.1649 -0.1122
  586PNCE   D4B 5295   4.624   5.542   6.973  0.0440 -0.4227  0.1591
  586PNCE   C5B 5296   4.641   5.298   6.612 -0.2869  0.1661  0.0441
  586PNCE   C6B 5297   4.499   4.942   6.409  0.0287 -0.0165 -0.1718
  587CHOL   ROH 5298  11.114   2.764   6.659 -0.0964  0.0642 -0.0363
  587CHOL    R1 5299  11.259   2.828   6.893 -0.1577  0.0119  0.0151
  587CHOL    R2 5300  11.465   3.012   6.895 -0.1123 -0.0471  0.0931
  587CHOL    R3 5301  11.319   3.126   7.094 -0.1424 -0.0159  0.0549
  587CHOL    R4 5302  11.589   3.231   7.132 -0.1591  0.0671  0.0145
  587CHOL    R5 5303  11.467   3.131   7.282 -0.1362  0.0841  0.0533
  587CHOL    C1 5304  11.524   3.465   7.457 -0.2148  0.1629 -0.0672
  587CHOL    C2 5305  11.586   3.605   7.830 -0.1445 -0.2323  0.0545
  588PNCE   AM1 5306  13.833  14.010   9.260 -0.2565  0.0391  0.1112
  588PNCE   AM2 5307  14.217  13.815   9.315  0.0442 -0.0635  0.1710
  588PNCE   T1A 5308  13.532  13.856   9.187 -0.1124 -0.3846  0.0455
  588PNCE   C2A 5309  13.136  13.637   9.130 -0.0367  0.1728  0.2083
  588PNCE   C3A 5310  12.714  13.869   8.960  0.2101 -0.0436 -0.1968
  588PNCE   C1B 5311  14.087  14.122   8.860  0.0697  0.0656 -0.2235
  588PNCE   C2B 5312  14.395  14.215   8.480 -0.0448  0.2316  0.1197
  588PNCE   C3B 5313  14.410  14.194   8.034  0.3760 -0.1793  0.1693
  588PNCE   D4B 5314  14.150  14.269   7.620  0.2613  0.1625  0.2271
  588PNCE   C5B 5315  14.367  14.445   7.236 -0.2004  0.0345  0.2718
  588PNCE   C6B 5316  14.671  14.495   6.947  0.1818 -0.2353 -0.3119
  589CHOL   ROH 5317  13.818   5.984   4.354  0.0110  0.1037  0.0035
  589CHOL    R1 5318  13.881   5.799   4.559  0.0679  0.1188  0.0002
  589CHOL    R2 5319  14.074   5.848   4.750  0.0416  0.1828  0.0138
  589CHOL    R3 5320  13.872   5.794   4.923  0.0501  0.1038 -0.0013
  589CHOL    R4 5321  14.115   5.755   5.080  0.0507  0.0242 -0.0317
  589CHOL    R5 5322  13.953   5.612   5.055  0.0497  0.0409 -0.0911
  589CHOL    C1 5323  13.948   5.649   5.434  0.0641 -0.1424 -0.0725
  589CHOL    C2 5324  14.175   5.694   5.681 -0.3113  0.0667  0.1970
  590XCA    COO 5325  12.719   7.447   8.861 -0.0533  0.0056  0.2252
  590XCA     C1 5326  12.913   7.290   8.439 -0.1332 -0.0700  0.0133
  590XCA     C2 5327  12.809   7.412   7.927 -0.0174 -0.1647 -0.0420
  590XCA     C3 5328  12.667   7.421   7.495 -0.0474  0.3413 -0.0321
  590XCA     C4 5329  12.776   7.215   7.129 -0.3027  0.0901 -0.0666
  590XCA     C5 5330  12.631   6.981   6.719 -0.0806  0.1797 -0.0488
  590XCA     C6 5331  12.405   6.806   6.505  0.0491  0.2049  0.2633
  591CHOL   ROH 5332   7.997   1.586   6.681  0.0485 -0.0727  0.0404
  591CHOL    R1 5333   7.760   1.433   6.655  0.0260 -0.0067 -0.1652
  591CHOL    R2 5334   7.520   1.510   6.767  0.0640 -0.1789  0.0437
  591CHOL    R3 5335   7.429   1.481   6.513 -0.0107  0.2816  0.0101
  591CHOL    R4 5336   7.187   1.481   6.678  0.0478 -0.1983  0.1122
  591CHOL    R5 5337   7.244   1.330   6.532  0.0880  0.1251 -0.2222
  591CHOL    C1 5338   6.908   1.437   6.388 -0.0317  0.2227  0.1206
  591CHOL    C2 5339   6.603   1.545   6.375  0.0259  0.0282 -0.2389
  592CHOL   ROH 5340   9.646  12.142   8.568  0.1127  0.3710  0.1398
  592CHOL    R1 5341   9.687  12.270   8.319  0.0655  0.2113  0.0479
  592CHOL    R2 5342   9.932  12.271   8.191  0.0448  0.1385  0.0054
  592CHOL    R3 5343   9.787  12.170   7.984  0.0133 -0.0040  0.0950
  592CHOL    R4 5344   9.992  12.340   7.858 -0.0470 -0.0388 -0.0489
  592CHOL    R5 5345   9.776  12.351   7.827 -0.0556 -0.0946 -0.0048
  592CHOL    C1 5346   9.891  12.286   7.469 -0.1301 -0.2758  0.0037
  592CHOL    C2 5347   9.823  12.052   7.162  0.0272 -0.0525 -0.0859
  593CHOL   ROH 5348   1.472  13.094   8.534  0.1570 -0.0611  0.0202
  593CHOL    R1 5349   1.382  13.143   8.270  0.0325 -0.1432  0.0463
  593CHOL    R2 5350   1.471  13.356   8.119 -0.2692 -0.0092  0.0476
  593CHOL    R3 5351   1.532  13.163   7.939 -0.0661  0.0830  0.0137
  593CHOL    R4 5352   1.451  13.394   7.776 -0.3898  0.0021  0.0556
  593CHOL    R5 5353   1.370  13.192   7.764 -0.1415 -0.1003  0.0523
  593CHOL    C1 5354   1.496  13.233   7.407 -0.2693  0.0954  0.0284
  593CHOL    C2 5355   1.639  12.962   7.121  0.5338  0.0642 -0.1236
  594CHOL   ROH 5356   3.289   9.914   9.757  0.0872  0.2028  0.2057
  594CHOL    R1 5357   3.356  10.014   9.500  0.1905  0.1343  0.2048
  594CHOL    R2 5358   3.165  10.102   9.321  0.2493 -0.0405  0.0490
  594CHOL    R3 5359   3.317  10.328   9.320  0.1286  0.0412  0.0550
  594CHOL    R4 5360   3.124  10.367   9.103  0.1214 -0.0619  0.0470
  594CHOL    R5 5361   3.341  10.382   9.088  0.1124  0.0542  0.0583
  594CHOL    C1 5362   3.243  10.733   8.975 -0.0662  0.0025  0.0516
  594CHOL    C2 5363   3.084  11.093   8.784 -0.0979 -0.4254 -0.0783
  595CHOL   ROH 5364   3.054  14.547   8.983  0.0600  0.2461  0.0876
  595CHOL    R1 5365   3.143  14.457   8.731  0.1399  0.3223  0.0879
  595CHOL    R2 5366   2.970  14.364   8.536  0.2398 -0.1333  0.2064
  595CHOL    R3 5367   3.093  14.552   8.383 -0.2235  0.0694  0.0651
  595CHOL    R4 5368   3.010  14.344   8.193  0.5206 -0.4462  0.2522
  595CHOL    R5 5369   3.210  14.426   8.217  0.2789  0.2025  0.2989
  595CHOL    C1 5370   3.149  14.509   7.850  0.2491 -0.4379  0.1462
  595CHOL    C2 5371   3.057  14.704   7.556  0.0310  0.2415 -0.1998
  596CHOL   ROH 5372   1.524   4.799   8.424  0.0158  0.2396  0.0076
  596CHOL    R1 5373   1.655   4.738   8.181 -0.0009  0.1602  0.0185
  596CHOL    R2 5374   1.642   4.903   7.960  0.0005  0.0983 -0.0274
  596CHOL    R3 5375   1.913   4.891   7.974  0.0008  0.0818 -0.0374
  596CHOL    R4 5376   1.857   4.932   7.690 -0.0023  0.1355 -0.0264
  596CHOL    R5 5377   1.979   4.774   7.776 -0.0087  0.1145 -0.0590
  596CHOL    C1 5378   2.236   4.938   7.547 -0.0038  0.1416 -0.0353
  596CHOL    C2 5379   2.543   5.048   7.291 -0.0845  0.1415 -0.2191
  597PNCE   AM1 5380   6.192  14.823   8.942 -0.2037  0.1090  0.0762
  597PNCE   AM2 5381   6.199  14.549   9.042  0.2108 -0.1909  0.0438
  597PNCE   T1A 5382   6.170  14.716   8.470 -0.1214  0.2993  0.6458
  597PNCE   C2A 5383   6.341  14.734   8.000 -0.0593 -0.1839  0.1904
  597PNCE   C3A 5384   6.489  14.672   7.659  0.2464  0.1032 -0.1567
  597PNCE   C1B 5385   6.074  14.268   8.799 -0.0255 -0.1302  0.0481
  597PNCE   C2B 5386   6.138  14.109   8.375  0.1942  0.0757  0.0351
  597PNCE   C3B 5387   6.062  13.882   7.974  0.0572  0.0244  0.1936
  597PNCE   D4B 5388   6.034  13.448   7.886 -0.0033  0.1793 -0.1237
  597PNCE   C5B 5389   6.086  13.055   7.606 -0.2428 -0.0862 -0.3102
  597PNCE   C6B 5390   6.062  12.602   7.392 -0.0305 -0.1887 -0.0438
  598XCA    COO 5391  13.866   7.756   4.190 -0.1308  0.1020 -0.0918
  598XCA     C1 5392  13.797   7.957   4.604  0.1064 -0.1180 -0.1873
  598XCA     C2 5393  13.983   7.730   5.036 -0.1605  0.1818  0.0829
  598XCA     C3 5394  13.905   7.563   5.409 -0.2046  0.0761 -0.0937
  598XCA     C4 5395  13.868   7.760   5.853  0.1988 -0.2466  0.0896
  598XCA     C5 5396  14.024   8.136   6.099 -0.0560 -0.0142  0.2064
  598XCA     C6 5397  14.241   8.388   6.431  0.0844 -0.1171 -0.2842
  599CHOL   ROH 5398  10.835   7.585   4.646 -0.0342  0.0421 -0.0165
  599CHOL    R1 5399  10.865   7.443   4.889  0.0249 -0.0181 -0.0572
  599CHOL    R2 5400  11.075   7.488   5.063  0.0371 -0.0162 -0.0623
  599CHOL    R3 5401  10.875   7.524   5.244  0.0434 -0.1088 -0.0385
  599CHOL    R4 5402  11.095   7.408   5.399  0.0405 -0.1729 -0.1002
  599CHOL    R5 5403  10.890   7.334   5.388  0.0485 -0.1715 -0.1286
  599CHOL    C1 5404  10.918   7.395   5.764  0.0485 -0.3509 -0.1000
  599CHOL    C2 5405  10.794   7.338   6.139  0.0546 -0.1316 -0.1895
  600PNCE   AM1 5406   3.899   8.682   9.153  0.3558 -0.0105  0.1058
  600PNCE   AM2 5407   4.048   8.400   9.213  0.0780  0.2458 -0.1951
  600PNCE   T1A 5408   3.948   8.411   8.691  0.3546 -0.0310  0.2672
  600PNCE   C2A 5409   4.118   8.443   8.350  0.2528 -0.0716  0.2679
  600PNCE   C3A 5410   4.372   8.596   7.971  0.0719  0.0446  0.4687
  600PNCE   C1B 5411   4.525   8.450   9.165 -0.2135  0.0312  0.0179
  600PNCE   C2B 5412   4.759   8.769   9.024 -0.4703  0.2987  0.0729
  600PNCE   C3B 5413   4.960   8.910   8.629  0.0929 -0.2245 -0.0718
  600PNCE   D4B 5414   5.326   8.753   8.295  0.1291  0.0099 -0.1280
  600PNCE   C5B 5415   5.294   8.584   7.887  0.0374  0.0697  0.0833
  600PNCE   C6B 5416   5.634   8.245   7.739  0.2619  0.1566  0.1055
  601XCA    COO 5417   2.977   2.355   8.845 -0.0526  0.0995  0.0593
  601XCA     C1 5418   2.845   2.064   8.416  0.0847  0.1634  0.0072
  601XCA     C2 5419   2.982   1.784   8.038  0.0422 -0.0073 -0.3154
  601XCA     C3 5420   3.273   1.722   7.631  0.3539  0.2272  0.1394
  601XCA     C4 5421   3.315   1.714   7.167 -0.2551  0.2724  0.5971
  601XCA     C5 5422   3.267   1.463   6.762  0.2843 -0.2404  0.1645
  601XCA     C6 5423   3.481   1.088   6.619 -0.0015  0.1854  0.0867
  602CHOL   ROH 5424  14.294  12.947   8.677 -0.0421 -0.0356 -0.0575
  602CHOL    R1 5425  14.427  12.815   8.466 -0.0438 -0.0698 -0.0377
  602CHOL    R2 5426  14.357  12.850   8.201  0.0036 -0.0535 -0.0496
  602CHOL    R3 5427  14.620  12.912   8.173  0.0229 -0.1183 -0.0093
  602CHOL    R4 5428  14.513  12.921   7.900  0.0307  0.0819 -0.0041
  602CHOL    R5 5429  14.685  12.806   7.968 -0.0069 -0.0126 -0.0726
  602CHOL    C1 5430  14.851  13.020   7.700  0.0645  0.0998  0.0604
  602CHOL    C2 5431  14.771  13.354   7.462 -0.2536 -0.1245 -0.1097
  603PNCE   AM1 5432   3.336  13.899   5.245  0.1547 -0.1535 -0.0838
  603PNCE   AM2 5433   3.436  13.625   5.119 -0.1670  0.1447  0.1786
  603PNCE   T1A 5434   3.585  13.648   5.637 -0.2212  0.1805 -0.1392
  603PNCE   C2A 5435   3.606  13.361   5.942 -0.0285 -0.0040  0.5911
  603PNCE   C3A 5436   3.558  13.453   6.351 -0.0771  0.2289  0.0821
  603PNCE   C1B 5437   3.532  13.305   5.369 -0.0617  0.0337  0.0468
  603PNCE   C2B 5438   3.837  12.960   5.454  0.3278  0.2978 -0.1420
  603PNCE   C3B 5439   3.893  12.956   5.828  0.2676  0.0664 -0.1128
  603PNCE   D4B 5440   4.165  12.821   6.118 -0.2468 -0.0061  0.0467
  603PNCE   C5B 5441   4.288  13.038   6.411  0.2070 -0.1917 -0.3736
  603PNCE   C6B 5442   4.240  13.059   6.774 -0.0669  0.2149 -0.1536
  604XCA    COO 5443   4.890   6.118   8.612 -0.0903  0.1570 -0.0400
  604XCA     C1 5444   4.741   6.296   8.201  0.0585  0.1643  0.0380
  604XCA     C2 5445   4.653   6.280   7.836 -0.1702 -0.0538  0.3820
  604XCA     C3 5446   4.272   6.379   7.520 -0.0624  0.0951  0.0253
  604XCA     C4 5447   3.887   6.365   7.223 -0.2351  0.3278  0.0505
  604XCA     C5 5448   3.674   6.450   6.959 -0.0920  0.0038 -0.3949
  604XCA     C6 5449   3.277   6.329   7.020  0.4221 -0.4412  0.1332
  605PNCE   AM1 5450   5.534   7.335   8.946  0.3148 -0.4743 -0.2464
  605PNCE   AM2 5451   5.435   7.009   8.937  0.0075  0.1663  0.1756
  605PNCE   T1A 5452   5.685   7.589   8.717  0.0958 -0.1813  0.2420
  605PNCE   C2A 5453   5.699   7.792   8.357 -0.2739 -0.0385  0.0942
  605PNCE   C3A 5454   5.632   8.286   8.221 -0.2056  0.0312  0.1819
  605PNCE   C1B 5455   5.537   6.972   8.432  0.1006 -0.0774  0.0977
  605PNCE   C2B 5456   5.681   6.705   7.993  0.0069  0.0773  0.0486
  605PNCE   C3B 5457   5.645   6.352   7.627 -0.1205  0.1631  0.1824
  605PNCE   D4B 5458   5.487   6.268   7.215  0.1586 -0.2964  0.0924
  605PNCE   C5B 5459   5.166   6.489   7.035 -0.3121  0.0077  0.2473
  605PNCE   C6B 5460   4.841   6.484   6.617  0.0091  0.0603  0.0823
  606CHOL   ROH 5461  13.531   3.022   7.993  0.3737  0.0905 -0.0146
  606CHOL    R1 5462  13.478   2.872   7.759  0.1995  0.0769  0.0293
  606CHOL    R2 5463  13.426   2.990   7.515 -0.0354  0.0692  0.0576
  606CHOL    R3 5464  13.630   2.831   7.431 -0.0695  0.1101 -0.0974
  606CHOL    R4 5465  13.483   2.898   7.187 -0.1863  0.1463  0.0107
  606CHOL    R5 5466  13.534   2.698   7.257 -0.1335  0.1468 -0.0749
  606CHOL    C1 5467  13.708   2.696   6.917 -0.3062  0.2296 -0.1623
  606CHOL    C2 5468  13.646   2.495   6.562  0.0084 -0.2426 -0.0533
  607XCA    COO 5469  11.711  12.041   4.552 -0.1712  0.1902  0.0746
  607XCA     C1 5470  11.746  12.032   5.001  0.2358 -0.0327  0.0125
  607XCA     C2 5471  11.473  12.179   5.429 -0.1179 -0.2405  0.0635
  607XCA     C3 5472  11.162  12.489   5.666 -0.1161  0.0431 -0.2990
  607XCA     C4 5473  10.973  12.476   6.103 -0.2907 -0.2231 -0.1268
  607XCA     C5 5474  10.844  12.065   6.412 -0.0041 -0.0400 -0.1529
  607XCA     C6 5475  10.938  11.842   6.776  0.0723 -0.0265  0.1112
  608XCA    COO 5476   1.633   5.866   8.577 -0.2857 -0.0318  0.1619
  608XCA     C1 5477   1.576   5.719   8.184 -0.1278 -0.0855  0.1685
  608XCA     C2 5478   1.613   5.669   7.647 -0.0508 -0.0121 -0.0666
  608XCA     C3 5479   1.724   5.272   7.321 -0.0117 -0.2131  0.0277
  608XCA     C4 5480   1.919   4.995   7.017  0.1773  0.1408 -0.1541
  608XCA     C5 5481   1.784   4.768   6.724 -0.0787 -0.2282  0.2264
  608XCA     C6 5482   1.621   4.475   6.473  0.0684 -0.1423  0.2755
  609XCA    COO 5483   9.276   4.379   4.731  0.0978  0.2417  0.1980
  609XCA     C1 5484   8.994   4.523   5.029  0.1925 -0.1262 -0.1955
  609XCA     C2 5485   8.859   4.805   5.310  0.0832  0.1618  0.0272
  609XCA     C3 5486   8.919   4.994   5.589  0.0391 -0.0355 -0.1544
  609XCA     C4 5487   8.959   5.161   6.053  0.2039  0.1120 -0.1473
  609XCA     C5 5488   9.298   5.300   6.364  0.1482  0.0119  0.1786
  609XCA     C6 5489   9.533   5.579   6.577  0.3299  0.2070  0.0545
  610CHOL   ROH 5490   7.775   2.153   4.454  0.1071 -0.0619  0.0944
  610CHOL    R1 5491   7.721   2.127   4.731  0.0433  0.0293  0.0910
  610CHOL    R2 5492   7.568   2.310   4.871 -0.1413 -0.0189 -0.0420
  610CHOL    R3 5493   7.426   2.089   4.940  0.0074 -0.0968  0.0178
  610CHOL    R4 5494   7.413   2.262   5.176 -0.2645  0.0381 -0.0950
  610CHOL    R5 5495   7.478   2.055   5.171 -0.0866  0.0891  0.0677
  610CHOL    C1 5496   7.189   2.026   5.418 -0.1967 -0.0018 -0.0697
  610CHOL    C2 5497   6.893   1.948   5.631 -0.1403 -0.1810 -0.1831
  611CHOL   ROH 5498  11.541  10.050   8.056 -0.1568 -0.3017  0.1747
  611CHOL    R1 5499  11.414   9.938   7.829 -0.1205 -0.3206  0.1637
  611CHOL    R2 5500  11.158   9.835   7.838 -0.3044  0.0999  0.0260
  611CHOL    R3 5501  11.116  10.007   7.631  0.1727 -0.0265 -0.1895
  611CHOL    R4 5502  11.024   9.747   7.532 -0.5139  0.0788  0.1220
  611CHOL    R5 5503  11.169   9.879   7.436 -0.1434 -0.4136 -0.0334
  611CHOL    C1 5504  10.907   9.857   7.160 -0.1881 -0.0523 -0.0244
  611CHOL    C2 5505  10.754   9.979   6.818 -0.0845 -0.0477  0.0451
  612CHOL   ROH 5506   0.721   2.165   8.646 -0.0965 -0.2318 -0.0910
  612CHOL    R1 5507   0.794   2.064   8.392 -0.1359 -0.3430 -0.0583
  612CHOL    R2 5508   0.643   1.875   8.258 -0.4547 -0.0015 -0.1932
  612CHOL    R3 5509   0.650   2.059   8.058  0.0757  0.0295 -0.1614
  612CHOL    R4 5510   0.690   1.802   7.923 -0.4437 -0.0573 -0.1799
  612CHOL    R5 5511   0.818   1.978   7.908 -0.0211 -0.3372 -0.0842
  612CHOL    C1 5512   0.724   1.933   7.541  0.0607 -0.0607 -0.1422
  612CHOL    C2 5513   0.760   1.670   7.438 -0.0916  0.0132 -0.0058
  613CHOL   ROH 5514   6.134   4.730   4.902 -0.0451 -0.2018 -0.0454
  613CHOL    R1 5515   5.938   4.598   5.058 -0.0047 -0.1268  0.0714
  613CHOL    R2 5516   5.994   4.490   5.306  0.0618 -0.0101  0.1153
  613CHOL    R3 5517   5.786   4.646   5.386  0.0869  0.0348  0.0897
  613CHOL    R4 5518   5.830   4.460   5.609  0.1521  0.1795  0.1836
  613CHOL    R5 5519   5.641   4.496   5.504  0.1242  0.1137  0.2263
  613CHOL    C1 5520   5.539   4.589   5.860  0.2283  0.3320  0.1994
  613CHOL    C2 5521   5.219   4.438   6.103  0.2218  0.0756  0.1694
  614CHOL   ROH 5522   4.287   8.910   9.141  0.1152  0.0309  0.0721
  614CHOL    R1 5523   4.352   8.870   8.869  0.1084  0.0020  0.0740
  614CHOL    R2 5524   4.160   8.831   8.674  0.1025 -0.0544  0.0851
  614CHOL    R3 5525   4.287   9.039   8.554  0.0667 -0.0509  0.0553
  614CHOL    R4 5526   4.315   8.817   8.366  0.1935 -0.0923  0.1334
  614CHOL    R5 5527   4.476   8.939   8.446  0.1278 -0.0167  0.1376
  614CHOL    C1 5528   4.526   9.003   8.073  0.2129 -0.1112  0.1334
  614CHOL    C2 5529   4.447   9.004   7.705  0.1693 -0.0836 -0.0097
  615PNCE   AM1 5530   1.697   4.833   8.846 -0.2344  0.1618  0.0620
  615PNCE   AM2 5531   1.752   5.127   9.051 -0.1131 -0.1123 -0.3460
  615PNCE   T1A 5532   2.008   4.916   8.508  0.0274  0.1205 -0.0786
  615PNCE   C2A 5533   2.368   5.047   8.202  0.1821  0.0710 -0.0516
  615PNCE   C3A 5534   2.584   5.113   7.886 -0.1847  0.5266  0.2908
  615PNCE   C1B 5535   1.953   5.322   8.731 -0.3895 -0.0429  0.2610
  615PNCE   C2B 5536   2.178   5.486   8.378  0.0223  0.1510  0.3433
  615PNCE   C3B 5537   2.596   5.581   8.136  0.1064 -0.0971  0.1067
  615PNCE   D4B 5538   2.957   5.388   8.015  0.0882  0.0520  0.1529
  615PNCE   C5B 5539   2.937   5.367   7.569 -0.0710  0.1636  0.0693
  615PNCE   C6B 5540   3.079   5.153   7.253 -0.1685 -0.0878 -0.0506
  616CHOL   ROH 5541  13.963   9.919   4.747 -0.1302 -0.2245  0.1304
  616CHOL    R1 5542  13.976   9.942   5.029 -0.0121 -0.1297  0.1186
  616CHOL    R2 5543  14.214   9.982   5.164  0.0395 -0.0218  0.0033
  616CHOL    R3 5544  14.081  10.194   5.269  0.0276 -0.0229 -0.0108
  616CHOL    R4 5545  14.339  10.191   5.409  0.0615  0.0607 -0.0782
  616CHOL    R5 5546  14.141  10.193   5.501  0.0876  0.0443 -0.0275
  616CHOL    C1 5547  14.288  10.512   5.651  0.0631  0.1075 -0.1389
  616CHOL    C2 5548  14.562  10.503   5.914  0.1303  0.0963 -0.3445
  617CHOL   ROH 5549  15.112   5.766   6.591  0.0217  0.2326  0.1506
  617CHOL    R1 5550  15.135   6.005   6.441  0.2184  0.2171  0.1605
  617CHOL    R2 5551  15.372   6.086   6.326  0.1714 -0.2369 -0.2463
  617CHOL    R3 5552  15.223   6.096   6.100 -0.2214  0.1156  0.0071
  617CHOL    R4 5553  15.441   6.286   6.053  0.2807 -0.4665 -0.3936
  617CHOL    R5 5554  15.227   6.326   6.035  0.3156  0.1254 -0.0246
  617CHOL    C1 5555  15.340   6.411   5.681 -0.0244 -0.2693 -0.2413
  617CHOL    C2 5556  15.181   6.439   5.349  0.3271 -0.0153 -0.0161
  618CHOL   ROH 5557   1.856  12.321   8.571  0.1840  0.0253  0.0549
  618CHOL    R1 5558   1.916  12.259   8.302  0.1762  0.0616  0.0450
  618CHOL    R2 5559   2.143  12.121   8.228  0.1169 -0.0274  0.0310
  618CHOL    R3 5560   1.965  11.957   8.104  0.0500  0.0851 -0.0236
  618CHOL    R4 5561   2.220  11.903   7.971  0.0647 -0.0953  0.0724
  618CHOL    R5 5562   2.033  11.958   7.874  0.1351  0.0265  0.0002
  618CHOL    C1 5563   2.098  11.622   7.705 -0.0286 -0.0291  0.0451
  618CHOL    C2 5564   2.211  11.355   7.329  0.4646 -0.3102  0.2229
  619CHOL   ROH 5565  13.449   1.050   4.558 -0.2900 -0.1416 -0.0509
  619CHOL    R1 5566  13.371   1.022   4.829 -0.2420 -0.0833 -0.0305
  619CHOL    R2 5567  13.491   1.164   5.033  0.0195 -0.2790 -0.0402
  619CHOL    R3 5568  13.236   1.239   5.088  0.1341  0.0614  0.0510
  619CHOL    R4 5569  13.372   1.236   5.349  0.1232 -0.5341  0.0594
  619CHOL    R5 5570  13.187   1.131   5.297 -0.0495 -0.1619 -0.1038
  619CHOL    C1 5571  13.062   1.348   5.585  0.2911 -0.3631  0.2028
  619CHOL    C2 5572  12.676   1.258   5.937  0.1229  0.1333 -0.3750
  620PNCE   AM1 5573   9.854  15.106   8.162  0.0626  0.0182 -0.0753
  620PNCE   AM2 5574  10.019  15.315   8.290  0.0828 -0.0230  0.1239
  620PNCE   T1A 5575   9.922  15.182   7.779  0.3584 -0.2087 -0.0934
  620PNCE   C2A 5576   9.957  15.145   7.335  0.0336  0.0436 -0.0522
  620PNCE   C3A 5577   9.987  14.988   7.082 -0.0523 -0.0039  0.0645
  620PNCE   C1B 5578  10.362  15.611   8.018 -0.3686  0.1750  0.0833
  620PNCE   C2B 5579  10.694  15.460   7.736  0.2016 -0.0141  0.2258
  620PNCE   C3B 5580  10.621  15.515   7.292  0.0707 -0.0778 -0.0718
  620PNCE   D4B 5581  10.363  15.797   7.126 -0.0390 -0.0568  0.0205
  620PNCE   C5B 5582  10.344  16.160   6.900  0.1262 -0.0966 -0.1541
  620PNCE   C6B 5583  10.035  16.553   6.907  0.1871 -0.0975 -0.0021
  621XCA    COO 5584   8.399   0.308   4.257  0.0701  0.1005  0.2243
  621XCA     C1 5585   8.178   0.448   4.451  0.1809 -0.2045 -0.1255
  621XCA     C2 5586   8.146   0.539   4.882 -0.2711 -0.0809 -0.0152
  621XCA     C3 5587   8.152   0.757   5.224  0.1168 -0.1604  0.1705
  621XCA     C4 5588   8.115   1.157   5.489 -0.4489  0.3512  0.2000
  621XCA     C5 5589   7.866   1.508   5.495 -0.0020  0.3386 -0.0575
  621XCA     C6 5590   7.697   1.860   5.597  0.0527 -0.0498  0.3735
  622PNCE   AM1 5591  15.255   1.717   4.431  0.0497 -0.0579  0.1737
  622PNCE   AM2 5592  15.408   1.953   4.369  0.1302  0.1276  0.0905
  622PNCE   T1A 5593  15.466   1.776   4.863  0.1055 -0.1695 -0.1460
  622PNCE   C2A 5594  15.662   1.801   5.275  0.2834 -0.1718  0.0563
  622PNCE   C3A 5595  15.529   1.893   5.641  0.1000 -0.0831  0.3118
  622PNCE   C1B 5596  15.369   2.271   4.621 -0.1842  0.1311 -0.2681
  622PNCE   C2B 5597  15.410   2.519   5.074 -0.0687 -0.1896 -0.2185
  622PNCE   C3B 5598  15.344   2.829   5.407 -0.2533  0.0656 -0.1367
  622PNCE   D4B 5599  15.366   3.203   5.765  0.0139  0.1309 -0.2793
  622PNCE   C5B 5600  15.289   3.642   5.689  0.1733 -0.1542  0.0223
  622PNCE   C6B 5601  15.147   3.804   5.415 -0.1681  0.0828  0.0415
  623CHOL   ROH 5602   0.523  11.473   7.510  0.0930  0.0599  0.1732
  623CHOL    R1 5603   0.523  11.193   7.472  0.0685  0.0625  0.1607
  623CHOL    R2 5604   0.393  11.019   7.643 -0.2454  0.0957 -0.0417
  623CHOL    R3 5605   0.273  10.934   7.415  0.0740  0.1362 -0.2316
  623CHOL    R4 5606   0.358  10.688   7.549 -0.0370  0.1132 -0.1908
  623CHOL    R5 5607   0.404  10.747   7.344  0.2196  0.1900 -0.1188
  623CHOL    C1 5608   0.224  10.416   7.279  0.3843  0.1614 -0.4558
  623CHOL    C2 5609   0.040  10.110   7.355 -0.0510  0.0232  0.0547
  624XCA    COO 5610   3.887   7.916   8.874  0.0254 -0.1278 -0.0630
  624XCA     C1 5611   4.292   8.090   8.867  0.3992  0.2832  0.0750
  624XCA     C2 5612   4.578   8.465   8.659 -0.3999  0.0615  0.3058
  624XCA     C3 5613   4.769   8.648   8.274  0.4962 -0.2214  0.1319
  624XCA     C4 5614   4.863   8.781   7.854  0.0549  0.1383  0.0687
  624XCA     C5 5615   4.886   8.753   7.394 -0.0638  0.1130 -0.1413
  624XCA     C6 5616   4.983   8.324   7.230  0.0918 -0.1919 -0.1364
  625XCA    COO 5617  12.941   9.671   4.531  0.0410  0.4370 -0.0465
  625XCA     C1 5618  12.872   9.846   4.975 -0.0483  0.0353  0.2641
  625XCA     C2 5619  12.769   9.807   5.427 -0.0080 -0.4296  0.0234
  625XCA     C3 5620  12.965   9.971   5.795  0.0042  0.1440  0.1330
  625XCA     C4 5621  12.989   9.906   6.146 -0.0074 -0.0778 -0.0990
  625XCA     C5 5622  13.327   9.807   6.465  0.2270  0.0840 -0.2038
  625XCA     C6 5623  13.724   9.695   6.588  0.1919 -0.5194 -0.2597
  626CHOL   ROH 5624   9.192   3.521   6.102 -0.0426  0.2195  0.0564
  626CHOL    R1 5625   9.179   3.404   5.844 -0.2997  0.2082  0.0723
  626CHOL    R2 5626   8.996   3.484   5.653 -0.1285  0.5914  0.0620
  626CHOL    R3 5627   9.219   3.517   5.500 -0.0452  0.0799  0.0568
  626CHOL    R4 5628   9.006   3.452   5.309 -0.2030  0.5342  0.0646
  626CHOL    R5 5629   9.198   3.351   5.329 -0.4198  0.1007  0.0724
  626CHOL    C1 5630   9.221   3.463   4.966 -0.1682  0.0207  0.0612
  626CHOL    C2 5631   9.085   3.142   4.645  0.0153  0.0550  0.1764
  627CHOL   ROH 5632  11.248  14.475   9.055  0.1464 -0.1183 -0.0172
  627CHOL    R1 5633  11.273  14.496   8.774  0.0483 -0.0592 -0.0213
  627CHOL    R2 5634  11.516  14.532   8.648 -0.0028  0.0221 -0.0945
  627CHOL    R3 5635  11.440  14.311   8.509  0.0041  0.0307 -0.1130
  627CHOL    R4 5636  11.643  14.439   8.340  0.0122  0.0435 -0.0953
  627CHOL    R5 5637  11.441  14.382   8.280  0.0144  0.0469 -0.1087
  627CHOL    C1 5638  11.645  14.179   8.030  0.0273  0.0642 -0.1131
  627CHOL    C2 5639  12.012  14.216   7.740  0.0734  0.0317 -0.2670
  628CHOL   ROH 5640  14.583   4.946   7.607 -0.3121 -0.0805  0.0068
  628CHOL    R1 5641  14.537   4.703   7.469  0.0876 -0.0390 -0.2156
  628CHOL    R2 5642  14.288   4.632   7.373  0.1369 -0.4804 -0.0367
  628CHOL    R3 5643  14.422   4.605   7.138 -0.0297  0.0813 -0.2116
  628CHOL    R4 5644  14.154   4.504   7.081  0.1300 -0.4808 -0.0334
  628CHOL    R5 5645  14.341   4.400   7.046  0.3482 -0.0178 -0.3408
  628CHOL    C1 5646  14.202   4.404   6.691 -0.0306  0.0463 -0.1957
  628CHOL    C2 5647  14.078   4.241   6.339  0.0230  0.0982 -0.1406
  629XCA    COO 5648   9.067  10.636   8.925  0.3134 -0.1750 -0.1897
  629XCA     C1 5649   9.175  10.416   8.582 -0.0457  0.0364  0.0709
  629XCA     C2 5650   9.268  10.172   8.201 -0.0943  0.1073  0.0250
  629XCA     C3 5651   9.396  10.033   7.838 -0.0881  0.1185  0.1717
  629XCA     C4 5652   9.378   9.835   7.510 -0.3794  0.2086 -0.1321
  629XCA     C5 5653   9.238   9.684   7.126  0.2495 -0.1982  0.1264
  629XCA     C6 5654   9.024   9.777   6.783  0.1603  0.1140  0.2630
  630PNCE   AM1 5655   3.619   6.648   8.396 -0.2634  0.2192  0.1392
  630PNCE   AM2 5656   3.406   6.968   8.331 -0.0255 -0.0612 -0.0406
  630PNCE   T1A 5657   3.705   6.589   7.978 -0.1644  0.3819  0.1584
  630PNCE   C2A 5658   3.963   6.726   7.585 -0.1275  0.0643  0.0463
  630PNCE   C3A 5659   4.178   6.894   7.212  0.1452 -0.0115  0.0714
  630PNCE   C1B 5660   3.272   7.306   8.498  0.1922 -0.0736 -0.1792
  630PNCE   C2B 5661   3.493   7.816   8.471  0.1857  0.2627 -0.0489
  630PNCE   C3B 5662   3.764   8.019   8.213  0.1870  0.3266 -0.0469
  630PNCE   D4B 5663   3.637   8.514   8.168 -0.1826  0.0222  0.0366
  630PNCE   C5B 5664   3.826   8.486   7.741  0.1415 -0.1796 -0.0430
  630PNCE   C6B 5665   4.057   8.114   7.530 -0.1671  0.1815 -0.0285
  631PNCE   AM1 5666  10.529  14.539   8.295 -0.1758  0.2501 -0.0236
  631PNCE   AM2 5667  10.438  14.433   8.508 -0.1235 -0.2408 -0.0388
  631PNCE   T1A 5668  10.726  14.357   7.947  0.0086  0.0008 -0.0162
  631PNCE   C2A 5669  10.899  14.564   7.556  0.1818  0.0986  0.0395
  631PNCE   C3A 5670  11.245  14.760   7.351  0.1073 -0.1841 -0.1590
  631PNCE   C1B 5671  10.544  14.027   8.232 -0.2751 -0.0713 -0.2591
  631PNCE   C2B 5672  10.831  13.847   7.772  0.1571 -0.1459 -0.1958
  631PNCE   C3B 5673  11.062  13.958   7.422  0.1288 -0.4003 -0.1127
  631PNCE   D4B 5674  11.102  14.289   7.047  0.2428 -0.3348 -0.2684
  631PNCE   C5B 5675  10.752  14.594   7.073  0.0174  0.3653 -0.3554
  631PNCE   C6B 5676  10.320  14.604   6.973  0.0628 -0.1004 -0.0755
  632CHOL   ROH 5677  14.650   1.481   8.713  0.1128 -0.1724  0.0856
  632CHOL    R1 5678  14.793   1.293   8.557  0.0627 -0.1349 -0.0072
  632CHOL    R2 5679  14.694   1.041   8.502  0.1032 -0.1715  0.0774
  632CHOL    R3 5680  14.741   1.114   8.244 -0.1067 -0.1680  0.0395
  632CHOL    R4 5681  14.665   0.831   8.229 -0.0943 -0.1716  0.0978
  632CHOL    R5 5682  14.845   0.922   8.146 -0.1682 -0.1573 -0.0447
  632CHOL    C1 5683  14.691   0.777   7.828 -0.4063 -0.1685  0.0742
  632CHOL    C2 5684  14.750   0.761   7.481 -0.3549  0.1456  0.0361
  633CHOL   ROH 5685   4.991   3.397   7.865 -0.1693 -0.0006  0.0572
  633CHOL    R1 5686   5.023   3.276   7.611 -0.0593  0.0523  0.0449
  633CHOL    R2 5687   4.988   3.005   7.571  0.1894  0.0197  0.0191
  633CHOL    R3 5688   4.815   3.089   7.379  0.1082 -0.1188  0.0310
  633CHOL    R4 5689   4.874   2.811   7.308  0.2555 -0.0942  0.0740
  633CHOL    R5 5690   4.893   2.985   7.178  0.1324 -0.1106  0.0385
  633CHOL    C1 5691   4.645   2.777   6.976  0.2178 -0.2906  0.1171
  633CHOL    C2 5692   4.736   2.652   6.636  0.2717 -0.3521  0.2540
  634CHOL   ROH 5693   1.043  13.392   8.632 -0.0604  0.0515  0.1350
  634CHOL    R1 5694   0.948  13.341   8.370  0.0025  0.2049  0.0816
  634CHOL    R2 5695   1.029  13.489   8.151  0.3536  0.0859  0.1319
  634CHOL    R3 5696   1.093  13.245   8.051  0.0293 -0.0143  0.1546
  634CHOL    R4 5697   0.988  13.395   7.821  0.2188  0.1336  0.1349
  634CHOL    R5 5698   0.920  13.199   7.891 -0.0478  0.2145  0.1559
  634CHOL    C1 5699   1.024  13.111   7.535 -0.1640  0.0673  0.1580
  634CHOL    C2 5700   1.181  12.781   7.444 -0.2660 -0.0755 -0.1134
  635PNCE   AM1 5701   8.883   0.108   4.978  0.0433 -0.1343  0.0847
  635PNCE   AM2 5702   8.787  -0.119   5.071  0.0337  0.0266 -0.0272
  635PNCE   T1A 5703   8.723   0.484   5.075  0.1829  0.2901  0.3959
  635PNCE   C2A 5704   8.567   0.856   4.827  0.0875 -0.0220 -0.0051
  635PNCE   C3A 5705   8.249   1.021   4.568 -0.0346  0.2487  0.1755
  635PNCE   C1B 5706   8.478  -0.226   5.444  0.2195 -0.0578 -0.0579
  635PNCE   C2B 5707   8.477  -0.059   5.753  0.3321 -0.0633  0.0055
  635PNCE   C3B 5708   8.416   0.261   6.049  0.2490 -0.1314  0.1013
  635PNCE   D4B 5709   8.123   0.588   6.272  0.0861  0.2605  0.2409
  635PNCE   C5B 5710   7.730   0.524   6.480 -0.2545 -0.0048  0.1991
  635PNCE   C6B 5711   7.375   0.540   6.863 -0.1228 -0.0070 -0.0208
  636XCA    COO 5712   4.668   5.230   4.173 -0.1920  0.0334 -0.0355
  636XCA     C1 5713   4.874   5.336   4.633  0.1352 -0.0516 -0.0120
  636XCA     C2 5714   5.145   5.187   4.939  0.1077  0.4482 -0.0835
  636XCA     C3 5715   5.470   5.354   5.185 -0.3728 -0.0377  0.1457
  636XCA     C4 5716   5.467   5.715   5.315 -0.1761 -0.1664  0.3413
  636XCA     C5 5717   5.573   6.133   5.170 -0.1186 -0.3256 -0.1994
  636XCA     C6 5718   5.854   6.420   5.426  0.3513 -0.0046  0.1851
  637PNCE   AM1 5719   1.433  13.500   5.462  0.0866 -0.1203 -0.2904
  637PNCE   AM2 5720   1.391  13.802   5.562 -0.1144 -0.0579 -0.0201
  637PNCE   T1A 5721   1.311  13.376   5.933  0.1467  0.1650 -0.0655
  637PNCE   C2A 5722   1.343  13.369   6.355  0.2313 -0.2810 -0.0010
  637PNCE   C3A 5723   1.348  13.741   6.695 -0.3016 -0.1797  0.0485
  637PNCE   C1B 5724   1.051  13.833   5.894  0.1134 -0.2289 -0.1304
  637PNCE   C2B 5725   1.068  13.807   6.253 -0.0373 -0.2268  0.0224
  637PNCE   C3B 5726   0.912  13.521   6.580 -0.1496 -0.0994  0.0919
  637PNCE   D4B 5727   0.708  13.730   6.937 -0.0991  0.0995  0.2440
  637PNCE   C5B 5728   0.182  13.603   6.854  0.0907 -0.2062  0.1039
  637PNCE   C6B 5729  -0.061  13.200   6.717  0.1609  0.0399  0.0149
  638CHOL   ROH 5730  12.432  11.415   6.719 -0.1254 -0.2313  0.0420
  638CHOL    R1 5731  12.204  11.461   6.880 -0.0777  0.1969 -0.0015
  638CHOL    R2 5732  12.157  11.321   7.114 -0.4787  0.1395 -0.1168
  638CHOL    R3 5733  12.140  11.570   7.222  0.0712  0.1197  0.0542
  638CHOL    R4 5734  12.046  11.390   7.434 -0.5101  0.1668 -0.1324
  638CHOL    R5 5735  11.940  11.563   7.354 -0.0434  0.5049 -0.0778
  638CHOL    C1 5736  11.964  11.664   7.721 -0.0123  0.1641  0.0190
  638CHOL    C2 5737  11.812  11.707   8.075 -0.2341  0.0759  0.0357
  639XCA    COO 5738   7.732   9.760   4.618 -0.0492 -0.1641 -0.0704
  639XCA     C1 5739   7.830   9.581   4.974  0.0070 -0.1001 -0.0446
  639XCA     C2 5740   8.047   9.595   5.374 -0.1388 -0.0782 -0.0851
  639XCA     C3 5741   7.889   9.265   5.711 -0.0873 -0.2824  0.2559
  639XCA     C4 5742   7.692   8.975   5.931  0.1383  0.2896  0.1167
  639XCA     C5 5743   7.872   8.853   6.341  0.0661 -0.0806  0.1226
  639XCA     C6 5744   7.952   8.616   6.700  0.2306  0.0045 -0.0438
  640XCA    COO 5745   3.458   1.491   9.032  0.0787  0.0021  0.1091
  640XCA     C1 5746   3.291   1.416   8.731  0.0162  0.0637 -0.1999
  640XCA     C2 5747   2.908   1.521   8.522  0.0066  0.0054 -0.0127
  640XCA     C3 5748   2.633   1.416   8.285  0.0361  0.1068  0.1334
  640XCA     C4 5749   2.732   1.427   7.850 -0.2207  0.0156 -0.0850
  640XCA     C5 5750   2.690   1.867   7.647 -0.1145  0.0811 -0.0631
  640XCA     C6 5751   2.640   1.964   7.274  0.1596  0.3768  0.0238
  641XCA    COO 5752   8.311  13.334   8.517  0.2659  0.1734 -0.1474
  641XCA     C1 5753   8.045  13.247   8.216  0.1269 -0.1280 -0.1366
  641XCA     C2 5754   7.994  13.201   7.850 -0.0589  0.1785  0.2545
  641XCA     C3 5755   7.923  13.116   7.409 -0.1050 -0.0994 -0.2196
  641XCA     C4 5756   8.158  12.590   7.257 -0.0038  0.2745  0.1129
  641XCA     C5 5757   8.461  12.532   6.929  0.2932  0.1726  0.1285
  641XCA     C6 5758   8.634  12.802   6.639 -0.2297  0.2201  0.1095
  642PNCE   AM1 5759  15.406   6.197   4.251  0.1034 -0.2551  0.1721
  642PNCE   AM2 5760  15.098   6.357   4.353 -0.0197 -0.1932 -0.1305
  642PNCE   T1A 5761  15.622   6.454   4.567  0.0290  0.0342  0.2052
  642PNCE   C2A 5762  15.642   6.848   4.903 -0.0761 -0.0023 -0.1569
  642PNCE   C3A 5763  15.720   7.169   5.168 -0.0756  0.0562 -0.1248
  642PNCE   C1B 5764  14.969   6.141   4.716  0.2593  0.4080 -0.3079
  642PNCE   C2B 5765  14.734   6.232   5.113 -0.2773 -0.2210 -0.0041
  642PNCE   C3B 5766  14.546   6.288   5.448  0.0929  0.1922 -0.3498
  642PNCE   D4B 5767  14.466   6.085   5.868 -0.0080 -0.0998 -0.3127
  642PNCE   C5B 5768  14.829   5.851   6.102  0.1405  0.0848  0.1935
  642PNCE   C6B 5769  14.755   5.463   6.379  0.0268 -0.0419  0.0344
  643CHOL   ROH 5770   1.426  10.379   5.562  0.3261 -0.2252  0.2220
  643CHOL    R1 5771   1.245  10.543   5.705  0.3047 -0.1113  0.0665
  643CHOL    R2 5772   1.022  10.442   5.833  0.1707  0.0180 -0.0606
  643CHOL    R3 5773   1.127  10.571   6.048  0.0863  0.0141 -0.0164
  643CHOL    R4 5774   0.860  10.487   6.135  0.0559  0.0066 -0.1199
  643CHOL    R5 5775   0.942  10.689   6.143  0.0483  0.0076 -0.0828
  643CHOL    C1 5776   0.864  10.634   6.513 -0.0902 -0.0038 -0.1129
  643CHOL    C2 5777   0.555  10.521   6.795 -0.2438 -0.1932 -0.1723
  644PNCE   AM1 5778  15.084   3.288   4.602  0.2665  0.1048  0.1331
  644PNCE   AM2 5779  14.923   3.586   4.456 -0.2405  0.3057  0.1344
  644PNCE   T1A 5780  15.464   3.057   4.851  0.0752  0.0303 -0.3953
  644PNCE   C2A 5781  16.005   2.939   4.882 -0.0289 -0.3395 -0.1806
  644PNCE   C3A 5782  16.296   2.719   5.101  0.4111  0.1957  0.0137
  644PNCE   C1B 5783  14.891   3.640   4.921 -0.0681 -0.1414  0.1522
  644PNCE   C2B 5784  14.699   3.491   5.224 -0.0618 -0.2336 -0.2242
  644PNCE   C3B 5785  14.845   3.216   5.584 -0.2461  0.2468  0.4575
  644PNCE   D4B 5786  14.760   3.111   5.907  0.2823  0.1904 -0.1227
  644PNCE   C5B 5787  14.419   3.017   6.189  0.4540 -0.1256 -0.0043
  644PNCE   C6B 5788  14.022   3.352   6.202 -0.0596  0.0818 -0.1132
  645CHOL   ROH 5789  11.037   8.495   4.882 -0.1570  0.1050  0.1337
  645CHOL    R1 5790  11.198   8.491   5.115  0.0124 -0.1250  0.0157
  645CHOL    R2 5791  11.104   8.573   5.362  0.3165  0.0276  0.0807
  645CHOL    R3 5792  11.188   8.326   5.440  0.0077 -0.0984  0.0305
  645CHOL    R4 5793  11.130   8.467   5.690  0.5537  0.0797  0.0813
  645CHOL    R5 5794  11.316   8.367   5.638  0.3332 -0.2491 -0.1358
  645CHOL    C1 5795  11.223   8.174   5.954  0.4019 -0.0083  0.0344
  645CHOL    C2 5796  11.112   7.831   6.107 -0.1608  0.0304  0.0791
  646PNCE   AM1 5797   4.379   0.728   4.793  0.4457  0.0567 -0.0904
  646PNCE   AM2 5798   4.571   0.797   4.539  0.3054 -0.0579 -0.1307
  646PNCE   T1A 5799   4.176   0.967   5.065  0.0619  0.0677 -0.0236
  646PNCE   C2A 5800   4.038   1.262   5.305 -0.0409 -0.2514 -0.1889
  646PNCE   C3A 5801   4.122   1.669   5.532  0.1336  0.0742 -0.4289
  646PNCE   C1B 5802   4.672   1.108   4.896  0.1148 -0.1819  0.0868
  646PNCE   C2B 5803   4.505   1.399   5.222 -0.1803  0.3587  0.1210
  646PNCE   C3B 5804   4.648   1.642   5.612 -0.2078 -0.2244 -0.1786
  646PNCE   D4B 5805   4.607   1.860   6.052  0.2308  0.1008 -0.1748
  646PNCE   C5B 5806   5.022   1.879   6.433 -0.0967 -0.1079  0.3629
  646PNCE   C6B 5807   5.225   1.850   6.877 -0.1876 -0.0252  0.0231
  647XCA    COO 5808   5.077   1.492   3.840 -0.1481  0.0259 -0.1316
  647XCA     C1 5809   5.164   1.685   4.308  0.1973 -0.0020 -0.1086
  647XCA     C2 5810   5.229   1.796   4.725  0.2319  0.3717 -0.2656
  647XCA     C3 5811   5.448   1.816   5.079 -0.0668  0.0464 -0.3252
  647XCA     C4 5812   5.740   1.914   5.428 -0.0712  0.0043 -0.1894
  647XCA     C5 5813   5.647   1.733   5.787  0.0864  0.3835  0.2151
  647XCA     C6 5814   5.380   1.761   6.073 -0.1312 -0.1734 -0.2497
  648CHOL   ROH 5815   6.419  14.050   7.733  0.0838  0.1400  0.1244
  648CHOL    R1 5816   6.252  14.206   7.566  0.1050  0.0883  0.0527
  648CHOL    R2 5817   6.062  14.095   7.400  0.1888  0.0289 -0.0121
  648CHOL    R3 5818   5.895  14.266   7.530  0.1032 -0.0044 -0.0790
  648CHOL    R4 5819   5.792  14.256   7.257  0.2538  0.0302 -0.1324
  648CHOL    R5 5820   5.845  14.435   7.369  0.1768  0.0147 -0.0778
  648CHOL    C1 5821   5.478  14.511   7.296  0.2113 -0.0003 -0.2652
  648CHOL    C2 5822   5.276  14.674   7.033 -0.2678 -0.0852  0.2293
  649PNCE   AM1 5823   4.030   2.519   4.126  0.2227 -0.2679  0.0715
  649PNCE   AM2 5824   3.801   2.337   4.245 -0.0392 -0.2421 -0.1801
  649PNCE   T1A 5825   4.188   2.944   4.231  0.0633  0.3103  0.0181
  649PNCE   C2A 5826   4.512   3.137   4.435  0.0531 -0.0372 -0.1002
  649PNCE   C3A 5827   4.898   3.173   4.641  0.2418  0.0693 -0.1865
  649PNCE   C1B 5828   4.013   2.700   4.614  0.0213  0.1609  0.0188
  649PNCE   C2B 5829   4.186   3.096   4.808 -0.0874 -0.0829 -0.2660
  649PNCE   C3B 5830   4.441   3.435   5.032  0.1905 -0.0476  0.2947
  649PNCE   D4B 5831   4.877   3.474   5.045 -0.5950  0.0699  0.1794
  649PNCE   C5B 5832   5.104   3.853   4.921 -0.2067 -0.0233 -0.4587
  649PNCE   C6B 5833   5.100   3.820   4.489  0.0990  0.1716 -0.0860
  650CHOL   ROH 5834   1.690   9.985   7.413  0.0181  0.0157  0.0286
  650CHOL    R1 5835   1.810  10.238   7.452 -0.0676  0.0480  0.0844
  650CHOL    R2 5836   1.755  10.456   7.291 -0.0773  0.0424  0.0810
  650CHOL    R3 5837   1.695  10.576   7.527 -0.1890  0.0111  0.0693
  650CHOL    R4 5838   1.741  10.797   7.341  0.0609  0.0380  0.1531
  650CHOL    R5 5839   1.838  10.768   7.534 -0.0929 -0.0617  0.2196
  650CHOL    C1 5840   1.677  11.109   7.592  0.0366  0.0058  0.1843
  650CHOL    C2 5841   1.683  11.488   7.449  0.0825 -0.1746  0.1049
  651PNCE   AM1 5842   2.156   3.250   4.816 -0.0239  0.4757 -0.0242
  651PNCE   AM2 5843   2.106   3.557   4.764 -0.0686 -0.0948 -0.1074
  651PNCE   T1A 5844   2.223   3.318   5.267 -0.1335  0.0735  0.2317
  651PNCE   C2A 5845   2.194   3.295   5.677 -0.0553 -0.0760  0.0541
  651PNCE   C3A 5846   2.267   3.020   6.044  0.0421 -0.1991  0.0598
  651PNCE   C1B 5847   2.099   3.760   5.158  0.1690  0.0185  0.2095
  651PNCE   C2B 5848   1.949   3.751   5.612 -0.0035 -0.0703 -0.2890
  651PNCE   C3B 5849   2.016   4.016   5.932 -0.0357 -0.0706 -0.0986
  651PNCE   D4B 5850   2.047   3.872   6.403 -0.1768 -0.0816 -0.1298
  651PNCE   C5B 5851   2.480   3.983   6.529 -0.1714  0.1148 -0.0541
  651PNCE   C6B 5852   2.665   4.347   6.688  0.1033  0.0699 -0.2348
  652PNCE   AM1 5853   3.766   1.376   4.934  0.1066  0.2611  0.0364
  652PNCE   AM2 5854   3.677   0.982   4.948  0.2106 -0.4333  0.0235
  652PNCE   T1A 5855   3.823   1.734   5.184 -0.2776 -0.1934  0.5961
  652PNCE   C2A 5856   3.589   1.957   5.401  0.1900  0.2427 -0.3510
  652PNCE   C3A 5857   3.527   2.047   5.772 -0.0057 -0.0318 -0.3507
  652PNCE   C1B 5858   3.657   0.958   5.361  0.4604 -0.0263 -0.1160
  652PNCE   C2B 5859   3.841   0.999   5.737 -0.0118 -0.4266  0.3623
  652PNCE   C3B 5860   3.847   1.161   6.145 -0.2010  0.1108  0.0925
  652PNCE   D4B 5861   3.701   1.480   6.320 -0.3722 -0.0820  0.2957
  652PNCE   C5B 5862   3.769   1.528   6.765 -0.0216 -0.4411  0.2686
  652PNCE   C6B 5863   3.859   1.486   7.223 -0.3248 -0.1007 -0.0244
  653PNCE   AM1 5864   0.080  12.381   4.704 -0.0987  0.2605 -0.1727
  653PNCE   AM2 5865  -0.267  12.417   4.583 -0.3022  0.0472  0.1260
  653PNCE   T1A 5866  -0.019  12.285   5.119  0.2881 -0.1777  0.1275
  653PNCE   C2A 5867  -0.023  12.567   5.428 -0.0108 -0.0261 -0.3054
  653PNCE   C3A 5868  -0.054  12.697   5.821 -0.0027 -0.0171 -0.1585
  653PNCE   C1B 5869  -0.306  12.712   4.993 -0.0325  0.1299 -0.0517
  653PNCE   C2B 5870  -0.576  12.994   5.131  0.2208 -0.2255 -0.1718
  653PNCE   C3B 5871  -0.704  13.242   5.562  0.0624 -0.1864  0.0949
  653PNCE   D4B 5872  -0.663  13.027   5.940 -0.1450 -0.0085 -0.0097
  653PNCE   C5B 5873  -0.945  13.037   6.226 -0.2996 -0.1707 -0.0787
  653PNCE   C6B 5874  -1.265  12.815   6.502  0.0879 -0.0608 -0.0424
  654PNCE   AM1 5875   3.263   5.974   4.425 -0.0707  0.1307  0.1740
  654PNCE   AM2 5876   3.053   5.851   4.667 -0.1931  0.2434 -0.0422
  654PNCE   T1A 5877   3.615   5.905   4.882 -0.0558 -0.2833 -0.2360
  654PNCE   C2A 5878   4.024   5.863   5.094  0.3060  0.1113  0.2323
  654PNCE   C3A 5879   4.286   5.580   5.137  0.0818 -0.3071  0.0023
  654PNCE   C1B 5880   3.034   5.970   5.063  0.0610  0.0233 -0.0878
  654PNCE   C2B 5881   3.104   5.935   5.499  0.1014 -0.0705  0.2851
  654PNCE   C3B 5882   3.321   5.882   5.849 -0.1345 -0.0599  0.1647
  654PNCE   D4B 5883   3.439   6.100   6.159 -0.2798  0.0894  0.3172
  654PNCE   C5B 5884   3.526   6.116   6.653  0.2787 -0.0454 -0.3849
  654PNCE   C6B 5885   3.598   5.936   6.939  0.0161  0.0237  0.0810
  655CHOL   ROH 5886  14.284   8.576   8.058  0.0207  0.0646 -0.0836
  655CHOL    R1 5887  14.300   8.620   7.779 -0.0268  0.0874 -0.0833
  655CHOL    R2 5888  14.138   8.490   7.598  0.1688 -0.1511 -0.0941
  655CHOL    R3 5889  14.078   8.742   7.517 -0.1923 -0.2322 -0.0958
  655CHOL    R4 5890  14.051   8.578   7.275  0.2652 -0.2420 -0.1454
  655CHOL    R5 5891  14.173   8.758   7.298 -0.0488 -0.0394 -0.0214
  655CHOL    C1 5892  13.944   8.867   7.012 -0.0176 -0.3711 -0.1769
  655CHOL    C2 5893  13.877   8.569   6.829  0.0607  0.1518 -0.0566
  656PNCE   AM1 5894   9.519  11.649   4.982 -0.2821  0.1993  0.0926
  656PNCE   AM2 5895   9.664  11.685   4.806  0.2722 -0.0146 -0.1316
  656PNCE   T1A 5896   9.610  11.822   5.388  0.3445  0.0925  0.1215
  656PNCE   C2A 5897   9.779  11.891   5.748 -0.2934  0.4905 -0.1944
  656PNCE   C3A 5898   9.628  11.672   6.112  0.1807 -0.0902  0.1188
  656PNCE   C1B 5899  10.059  11.786   5.152  0.3745 -0.0256  0.1518
  656PNCE   C2B 5900  10.188  11.848   5.507 -0.2467 -0.0169  0.2610
  656PNCE   C3B 5901  10.251  11.850   5.995  0.0535  0.1076  0.0658
  656PNCE   D4B 5902  10.394  12.254   6.290  0.2440  0.0751 -0.1988
  656PNCE   C5B 5903  10.020  12.536   6.478  0.2345  0.2502  0.1546
  656PNCE   C6B 5904   9.643  12.332   6.540  0.4372 -0.0481  0.1316
  657CHOL   ROH 5905   4.966   6.032   6.361  0.1688  0.0572 -0.0717
  657CHOL    R1 5906   5.011   5.955   6.093  0.0851  0.1086 -0.1021
  657CHOL    R2 5907   4.893   5.733   5.979  0.2128  0.0045 -0.0462
  657CHOL    R3 5908   4.811   5.913   5.792 -0.0512 -0.0537  0.0118
  657CHOL    R4 5909   4.800   5.653   5.656  0.2108 -0.0360 -0.0346
  657CHOL    R5 5910   4.904   5.832   5.587 -0.0182  0.0980 -0.0302
  657CHOL    C1 5911   4.668   5.776   5.292 -0.0383 -0.1142  0.0265
  657CHOL    C2 5912   4.663   5.716   4.861 -0.2625 -0.2809  0.3183
  658CHOL   ROH 5913   6.264   9.928   7.548 -0.1675  0.0536 -0.2909
  658CHOL    R1 5914   6.470   9.735   7.535  0.0116  0.2195 -0.0315
  658CHOL    R2 5915   6.515   9.580   7.310  0.0464 -0.1577  0.2214
  658CHOL    R3 5916   6.767   9.679   7.332 -0.0353  0.1350 -0.0758
  658CHOL    R4 5917   6.804   9.400   7.252  0.1991  0.0344  0.3700
  658CHOL    R5 5918   6.894   9.498   7.424  0.1986  0.4120  0.1606
  658CHOL    C1 5919   7.209   9.388   7.239  0.2115  0.4212  0.1775
  658CHOL    C2 5920   7.667   9.361   7.298  0.0468  0.1001  0.0425
  659PNCE   AM1 5921   3.646   9.594   5.260  0.0681  0.0232  0.1393
  659PNCE   AM2 5922   3.920   9.370   5.169 -0.1422  0.1376 -0.0845
  659PNCE   T1A 5923   3.272   9.481   5.549 -0.0457 -0.1009 -0.0728
  659PNCE   C2A 5924   2.973   9.397   5.901  0.0550  0.2758 -0.0781
  659PNCE   C3A 5925   2.544   9.313   5.924 -0.3665 -0.1835  0.2285
  659PNCE   C1B 5926   3.840   9.338   5.689 -0.2985  0.0711 -0.0326
  659PNCE   C2B 5927   3.763   9.111   6.092 -0.2822 -0.1641  0.3109
  659PNCE   C3B 5928   3.791   8.669   6.174  0.0246 -0.2178 -0.2704
  659PNCE   D4B 5929   3.816   8.244   6.281 -0.1512  0.0397 -0.1606
  659PNCE   C5B 5930   3.983   8.143   6.752 -0.4975 -0.0588  0.0859
  659PNCE   C6B 5931   4.112   8.022   7.047 -0.0924 -0.0551  0.2372
  660CHOL   ROH 5932   6.133   3.551   4.560  0.1065  0.2750 -0.0311
  660CHOL    R1 5933   6.061   3.491   4.826  0.0212  0.2182 -0.0669
  660CHOL    R2 5934   5.982   3.685   5.007  0.0519  0.1906 -0.0255
  660CHOL    R3 5935   5.764   3.525   5.034 -0.0150  0.2635 -0.1252
  660CHOL    R4 5936   5.844   3.589   5.309  0.0943 -0.0464 -0.0794
  660CHOL    R5 5937   5.812   3.390   5.225 -0.0215  0.0479 -0.2713
  660CHOL    C1 5938   5.558   3.383   5.510  0.0562 -0.1160 -0.2043
  660CHOL    C2 5939   5.530   3.176   5.873  0.2828 -0.0958 -0.0403
  661PNCE   AM1 5940   6.628   1.706   4.334  0.0135 -0.4966 -0.0798
  661PNCE   AM2 5941   6.736   1.928   4.296  0.0612 -0.1278 -0.0486
  661PNCE   T1A 5942   6.810   1.730   4.759  0.0889  0.1163 -0.0006
  661PNCE   C2A 5943   7.058   1.767   5.036 -0.2028 -0.0385 -0.0756
  661PNCE   C3A 5944   7.484   1.598   5.189  0.3377  0.1391 -0.0560
  661PNCE   C1B 5945   6.449   2.244   4.469  0.0062  0.0425 -0.1100
  661PNCE   C2B 5946   6.173   1.907   4.718  0.0140  0.1960  0.0975
  661PNCE   C3B 5947   6.084   1.734   5.040  0.1978  0.0414 -0.0338
  661PNCE   D4B 5948   6.023   1.401   5.287 -0.2706 -0.4037  0.0011
  661PNCE   C5B 5949   5.873   1.291   5.708  0.0885  0.0380 -0.0340
  661PNCE   C6B 5950   5.822   1.339   6.172 -0.0361 -0.2248  0.1254
  662PNCE   AM1 5951  12.305   8.975   4.237 -0.1305  0.3673 -0.0425
  662PNCE   AM2 5952  12.227   9.313   4.375  0.0958  0.0061  0.2551
  662PNCE   T1A 5953  12.342   8.709   4.621 -0.1415 -0.1350  0.1638
  662PNCE   C2A 5954  12.521   8.473   4.958  0.0143  0.1398 -0.3645
  662PNCE   C3A 5955  12.540   8.279   5.327 -0.3327 -0.0611  0.1206
  662PNCE   C1B 5956  12.256   9.128   4.785  0.1853  0.2140  0.0513
  662PNCE   C2B 5957  12.362   8.993   5.121 -0.0282  0.3491 -0.1516
  662PNCE   C3B 5958  12.561   8.774   5.316 -0.1878  0.0012 -0.0083
  662PNCE   D4B 5959  12.876   8.677   5.371 -0.1406  0.0922 -0.3598
  662PNCE   C5B 5960  12.848   8.435   5.729  0.0262 -0.1469 -0.1374
  662PNCE   C6B 5961  12.867   8.149   6.069 -0.0910  0.1326  0.0922
  663CHOL   ROH 5962   2.164   2.292   8.939  0.1026  0.1306 -0.0376
  663CHOL    R1 5963   1.964   2.219   8.753  0.0120  0.0653  0.0842
  663CHOL    R2 5964   1.824   2.405   8.604  0.0479  0.0071 -0.0266
  663CHOL    R3 5965   1.910   2.255   8.395 -0.0817 -0.2050  0.0698
  663CHOL    R4 5966   1.670   2.391   8.295  0.0262 -0.0812 -0.0119
  663CHOL    R5 5967   1.708   2.177   8.291 -0.1471 -0.1144  0.1309
  663CHOL    C1 5968   1.661   2.241   7.918 -0.1082 -0.3317  0.0871
  663CHOL    C2 5969   1.703   2.442   7.617 -0.0087 -0.1330  0.0729
  664XCA    COO 5970   3.165   3.959   8.295  0.1311  0.0279 -0.0559
  664XCA     C1 5971   3.087   3.673   7.998 -0.0383  0.0300  0.0067
  664XCA     C2 5972   2.879   3.679   7.662  0.1529  0.2267  0.0026
  664XCA     C3 5973   2.813   3.311   7.328 -0.1015 -0.0044  0.0096
  664XCA     C4 5974   2.445   3.301   6.914 -0.2693 -0.3150  0.1963
  664XCA     C5 5975   2.327   3.505   6.537 -0.1201  0.1100 -0.0393
  664XCA     C6 5976   2.490   3.466   6.097 -0.1463  0.1962  0.0844
  665XCA    COO 5977  10.779   1.297   8.257  0.4985  0.2636 -0.2427
  665XCA     C1 5978  10.884   1.271   7.825 -0.1347  0.2849  0.3236
  665XCA     C2 5979  10.816   1.220   7.447 -0.0858  0.0416  0.0875
  665XCA     C3 5980  10.906   1.351   6.959  0.0500 -0.2435 -0.0561
  665XCA     C4 5981  10.906   1.395   6.468  0.3135  0.0457  0.0022
  665XCA     C5 5982  10.608   1.329   6.200 -0.1280  0.0885  0.1508
  665XCA     C6 5983  10.531   1.123   5.809 -0.1573 -0.2340  0.0502
  666XCA    COO 5984   7.064  11.343   5.287  0.0828 -0.3841 -0.0588
  666XCA     C1 5985   6.860  11.457   5.717  0.0520  0.1087 -0.1583
  666XCA     C2 5986   6.529  11.325   6.065  0.3036  0.0547 -0.1071
  666XCA     C3 5987   6.229  11.040   6.033 -0.1333  0.0240  0.1297
  666XCA     C4 5988   5.960  10.756   6.105 -0.1813  0.0314  0.1538
  666XCA     C5 5989   6.055  10.648   6.493  0.1641  0.1286 -0.0756
  666XCA     C6 5990   6.055  10.490   6.867 -0.0687 -0.3262  0.1734
  667CHOL   ROH 5991   2.329  11.365   5.540  0.0672  0.0061 -0.0608
  667CHOL    R1 5992   2.294  11.488   5.792 -0.1120 -0.0179 -0.0722
  667CHOL    R2 5993   2.045  11.549   5.895 -0.1914 -0.1185 -0.1977
  667CHOL    R3 5994   2.133  11.404   6.108 -0.2443 -0.0951 -0.1600
  667CHOL    R4 5995   1.931  11.585   6.220 -0.0365  0.1430 -0.1703
  667CHOL    R5 5996   2.137  11.561   6.289 -0.0332 -0.0097 -0.2367
  667CHOL    C1 5997   1.948  11.471   6.608  0.0039  0.3174 -0.1188
  667CHOL    C2 5998   1.998  11.593   6.959 -0.0376  0.2229 -0.0465
  668PNCE   AM1 5999   6.265   4.675   4.214 -0.1235 -0.2415 -0.0104
  668PNCE   AM2 6000   5.992   4.554   4.470  0.3108 -0.0624  0.0489
  668PNCE   T1A 6001   6.572   4.600   4.529  0.1156  0.0101 -0.2592
  668PNCE   C2A 6002   6.844   4.487   4.814  0.1279 -0.0766 -0.4870
  668PNCE   C3A 6003   7.026   4.750   5.131  0.0632 -0.0253 -0.0341
  668PNCE   C1B 6004   5.735   4.372   4.687 -0.0580  0.0301  0.1490
  668PNCE   C2B 6005   5.534   4.364   5.044 -0.0867 -0.1123  0.0831
  668PNCE   C3B 6006   5.214   4.208   5.355  0.1794 -0.0918  0.2446
  668PNCE   D4B 6007   5.007   4.164   5.708 -0.0497 -0.0985 -0.0432
  668PNCE   C5B 6008   5.179   3.853   6.078  0.0213 -0.1112  0.0108
  668PNCE   C6B 6009   5.117   3.466   6.257 -0.1420 -0.1140 -0.0053
  669CHOL   ROH 6010  14.286  10.998   8.346 -0.1561 -0.0724 -0.1604
  669CHOL    R1 6011  14.444  11.094   8.132 -0.0960  0.0370 -0.0691
  669CHOL    R2 6012  14.474  11.364   8.079  0.0227  0.0745  0.1511
  669CHOL    R3 6013  14.739  11.304   8.095 -0.0057 -0.0541  0.1331
  669CHOL    R4 6014  14.727  11.545   7.929  0.1122 -0.0211  0.1867
  669CHOL    R5 6015  14.825  11.357   7.878  0.0193 -0.0531  0.1478
  669CHOL    C1 6016  15.123  11.595   7.856  0.1376 -0.1975  0.1904
  669CHOL    C2 6017  15.223  11.688   7.585 -0.1838 -0.0493  0.2514
  670XCA    COO 6018  13.409   3.410   8.137  0.0930  0.0287 -0.0888
  670XCA     C1 6019  13.377   3.533   7.707  0.0080  0.0443 -0.0396
  670XCA     C2 6020  13.335   3.330   7.267 -0.1092 -0.2418  0.0328
  670XCA     C3 6021  13.330   3.391   6.912  0.0027  0.0920  0.1256
  670XCA     C4 6022  13.136   3.217   6.496 -0.0322 -0.0817  0.3032
  670XCA     C5 6023  12.764   2.878   6.431  0.1524  0.1725  0.0024
  670XCA     C6 6024  12.375   2.821   6.564 -0.2296 -0.2166 -0.1296
  671PNCE   AM1 6025   1.764  12.333   5.437 -0.4385  0.0933  0.0551
  671PNCE   AM2 6026   2.138  12.332   5.383 -0.3784 -0.0175  0.2392
  671PNCE   T1A 6027   1.405  12.234   5.578  0.1553  0.2539 -0.2815
  671PNCE   C2A 6028   1.251  11.996   5.862  0.0180  0.0548  0.0745
  671PNCE   C3A 6029   1.186  12.009   6.279 -0.1754  0.2508  0.1796
  671PNCE   C1B 6030   2.212  11.953   5.653 -0.1264  0.3730  0.0626
  671PNCE   C2B 6031   2.267  11.954   6.098 -0.1701 -0.1039 -0.3017
  671PNCE   C3B 6032   2.209  12.233   6.358  0.1305  0.0584 -0.2028
  671PNCE   D4B 6033   1.906  12.550   6.542  0.2248  0.2651  0.1180
  671PNCE   C5B 6034   1.670  12.456   6.923  0.0639 -0.0219  0.0262
  671PNCE   C6B 6035   1.540  12.365   7.366 -0.2383 -0.0800  0.0100
  672PNCE   AM1 6036   2.424  13.546   8.679 -0.1492  0.2272 -0.0859
  672PNCE   AM2 6037   2.354  13.904   8.742  0.0119  0.1653  0.1100
  672PNCE   T1A 6038   2.394  13.430   8.176  0.3226 -0.3581  0.0542
  672PNCE   C2A 6039   2.759  13.402   7.848 -0.0963 -0.1190 -0.0521
  672PNCE   C3A 6040   3.099  13.368   7.582 -0.1688 -0.1187 -0.2219
  672PNCE   C1B 6041   2.226  13.914   8.360 -0.0792 -0.1221 -0.0405
  672PNCE   C2B 6042   2.192  13.842   7.935 -0.0665 -0.0469 -0.1459
  672PNCE   C3B 6043   2.346  13.910   7.526 -0.1750  0.1566 -0.2520
  672PNCE   D4B 6044   2.529  14.178   7.252  0.0904  0.3529 -0.0714
  672PNCE   C5B 6045   2.885  14.290   7.069 -0.1590 -0.1506  0.4638
  672PNCE   C6B 6046   2.970  14.420   6.681 -0.3608 -0.0411  0.2750
  673CHOL   ROH 6047  14.604   2.221   8.078 -0.1423 -0.0737  0.1170
  673CHOL    R1 6048  14.529   1.956   8.013  0.0815 -0.1114  0.0021
  673CHOL    R2 6049  14.276   1.891   7.923 -0.0067 -0.3444  0.3970
  673CHOL    R3 6050  14.412   1.779   7.717 -0.2248  0.0293  0.0351
  673CHOL    R4 6051  14.141   1.669   7.695 -0.1012 -0.4024  0.5074
  673CHOL    R5 6052  14.327   1.556   7.703  0.1164 -0.1071  0.0545
  673CHOL    C1 6053  14.191   1.435   7.368 -0.3612 -0.0854  0.2319
  673CHOL    C2 6054  14.067   1.245   7.039  0.2183 -0.1144 -0.1016
  674CHOL   ROH 6055   2.476  10.087   6.329  0.2236 -0.0739 -0.0764
  674CHOL    R1 6056   2.274  10.196   6.494  0.1932 -0.0572 -0.1258
  674CHOL    R2 6057   2.191  10.074   6.728  0.1757 -0.0139 -0.1141
  674CHOL    R3 6058   2.250  10.316   6.837  0.1357  0.0147 -0.1535
  674CHOL    R4 6059   2.141  10.158   7.059  0.3386 -0.0395 -0.0814
  674CHOL    R5 6060   2.073  10.355   6.994  0.2089 -0.0662 -0.0443
  674CHOL    C1 6061   2.167  10.435   7.355  0.3958 -0.0275 -0.0994
  674CHOL    C2 6062   2.122  10.505   7.756  0.0860  0.1502 -0.0867
  675CHOL   ROH 6063   8.582  14.344   8.391 -0.1508 -0.1941  0.1000
  675CHOL    R1 6064   8.534  14.460   8.137 -0.1272 -0.0907  0.1430
  675CHOL    R2 6065   8.433  14.316   7.925  0.0077 -0.0334  0.0417
  675CHOL    R3 6066   8.247  14.514   7.921 -0.0861 -0.1192  0.0800
  675CHOL    R4 6067   8.270  14.427   7.641 -0.0368 -0.0515  0.0595
  675CHOL    R5 6068   8.290  14.631   7.716 -0.1342 -0.0555  0.1042
  675CHOL    C1 6069   8.000  14.678   7.472 -0.1508 -0.1425  0.1059
  675CHOL    C2 6070   7.588  14.622   7.374  0.1386  0.0876 -0.0193
  676PNCE   AM1 6071   7.701  12.129   5.097  0.1026  0.2273  0.0797
  676PNCE   AM2 6072   7.994  11.898   5.205 -0.0268 -0.1018 -0.0477
  676PNCE   T1A 6073   7.535  12.152   5.462 -0.0359  0.3510  0.0760
  676PNCE   C2A 6074   7.411  11.968   5.868 -0.1659  0.1478 -0.0880
  676PNCE   C3A 6075   7.233  12.090   6.233  0.1550 -0.3153 -0.3438
  676PNCE   C1B 6076   8.104  11.988   5.577  0.2848 -0.1307  0.1907
  676PNCE   C2B 6077   7.948  11.954   5.990  0.0121 -0.0890  0.0813
  676PNCE   C3B 6078   7.740  11.662   6.253 -0.1256 -0.3116  0.2574
  676PNCE   D4B 6079   7.748  11.283   6.394  0.0341 -0.0409  0.1858
  676PNCE   C5B 6080   7.263  11.108   6.450  0.0367 -0.0038  0.5069
  676PNCE   C6B 6081   6.935  11.271   6.480 -0.1275  0.2307 -0.1799
  677PNCE   AM1 6082   6.034   9.032   5.437 -0.0766 -0.2129  0.0707
  677PNCE   AM2 6083   5.855   8.757   5.611 -0.0694 -0.1119  0.2721
  677PNCE   T1A 6084   6.344   8.722   5.558 -0.1493 -0.4796  0.0371
  677PNCE   C2A 6085   6.386   8.463   5.729 -0.1654 -0.1307 -0.4564
  677PNCE   C3A 6086   6.069   8.393   6.096 -0.1824 -0.0633 -0.2286
  677PNCE   C1B 6087   5.413   8.564   5.627  0.1743 -0.1324 -0.3141
  677PNCE   C2B 6088   5.098   8.297   5.758  0.0524 -0.0601 -0.0009
  677PNCE   C3B 6089   4.810   8.127   6.182 -0.2832  0.2311 -0.1158
  677PNCE   D4B 6090   4.570   8.275   6.594  0.1682 -0.0830 -0.1455
  677PNCE   C5B 6091   4.513   8.403   6.992  0.1046  0.0431  0.0438
  677PNCE   C6B 6092   4.166   8.540   7.158  0.0692  0.0719  0.3085
  678XCA    COO 6093   2.629  14.388   9.051 -0.0524 -0.0590 -0.2274
  678XCA     C1 6094   2.519  14.380   8.539 -0.1756  0.2599  0.1217
  678XCA     C2 6095   2.549  14.278   8.108  0.2067 -0.1880  0.0000
  678XCA     C3 6096   2.580  14.533   7.803  0.2605  0.1637  0.1341
  678XCA     C4 6097   2.489  14.622   7.445  0.1728 -0.4280  0.2787
  678XCA     C5 6098   2.081  14.684   7.184  0.1135  0.0217  0.2546
  678XCA     C6 6099   1.692  14.855   6.939  0.1970  0.0505  0.1170
  679CHOL   ROH 6100   8.229   3.924   7.862  0.0815 -0.2397 -0.1695
  679CHOL    R1 6101   8.202   3.857   7.589  0.0326 -0.1071 -0.1967
  679CHOL    R2 6102   8.012   3.974   7.425 -0.0260 -0.0672 -0.0896
  679CHOL    R3 6103   8.228   4.031   7.270 -0.0791  0.0563 -0.1209
  679CHOL    R4 6104   7.999   4.030   7.085 -0.1178 -0.1225 -0.0962
  679CHOL    R5 6105   8.184   3.915   7.064 -0.0355 -0.0073 -0.1020
  679CHOL    C1 6106   8.193   4.116   6.740 -0.2210 -0.0388 -0.1294
  679CHOL    C2 6107   8.165   4.377   6.539 -0.1192  0.1713 -0.0526
  680XCA    COO 6108   2.536   8.646   8.759 -0.0747 -0.1591  0.0261
  680XCA     C1 6109   2.570   8.729   8.285 -0.3790  0.0011  0.0754
  680XCA     C2 6110   2.490   8.900   7.821 -0.3394 -0.1072 -0.1705
  680XCA     C3 6111   2.561   8.927   7.446  0.3379 -0.3382 -0.3128
  680XCA     C4 6112   2.389   8.894   7.120  0.2018  0.1201  0.5351
  680XCA     C5 6113   1.993   8.967   6.805  0.3526  0.1699 -0.0503
  680XCA     C6 6114   1.478   8.850   6.864  0.1193 -0.0841 -0.1445
  681CHOL   ROH 6115  11.277   8.494   6.300  0.0978  0.0217  0.0261
  681CHOL    R1 6116  11.522   8.637   6.299  0.0946  0.0278  0.0495
  681CHOL    R2 6117  11.561   8.866   6.448  0.1034 -0.0179  0.1206
  681CHOL    R3 6118  11.775   8.729   6.543  0.1141 -0.0454  0.0567
  681CHOL    R4 6119  11.783   8.987   6.683  0.0993 -0.1086  0.1714
  681CHOL    R5 6120  11.945   8.896   6.569  0.1030 -0.0462  0.1290
  681CHOL    C1 6121  12.114   8.930   6.909  0.1069 -0.1872  0.1411
  681CHOL    C2 6122  12.075   9.269   6.968  0.2143 -0.3590  0.0724
  682PNCE   AM1 6123   3.704  10.638   5.946  0.1032 -0.1070  0.0482
  682PNCE   AM2 6124   3.975  10.302   5.886  0.1159 -0.0415 -0.2181
  682PNCE   T1A 6125   4.000  10.606   6.256 -0.0571  0.0591 -0.3961
  682PNCE   C2A 6126   4.263  10.784   6.457 -0.1613 -0.2761  0.1943
  682PNCE   C3A 6127   4.776  10.828   6.563  0.0420 -0.4482  0.2455
  682PNCE   C1B 6128   4.178  10.038   6.233 -0.1130  0.1029 -0.3058
  682PNCE   C2B 6129   4.169  10.091   6.690  0.4788  0.5368 -0.1567
  682PNCE   C3B 6130   4.177   9.796   7.038  0.0393  0.2861  0.2353
  682PNCE   D4B 6131   3.821   9.732   7.407 -0.0179 -0.3169 -0.0283
  682PNCE   C5B 6132   3.412   9.708   7.496 -0.1075  0.0140 -0.0604
  682PNCE   C6B 6133   3.082   9.559   7.695 -0.1025 -0.1730  0.1098
  683CHOL   ROH 6134  12.628  15.626   8.378 -0.2586 -0.1404 -0.0759
  683CHOL    R1 6135  12.575  15.638   8.100 -0.1428 -0.0324 -0.0938
  683CHOL    R2 6136  12.689  15.827   7.934 -0.0067 -0.0234  0.0143
  683CHOL    R3 6137  12.768  15.609   7.792 -0.0310 -0.0061 -0.0278
  683CHOL    R4 6138  12.754  15.825   7.595  0.1328  0.0728  0.0387
  683CHOL    R5 6139  12.655  15.631   7.582  0.0618  0.1115 -0.0688
  683CHOL    C1 6140  12.865  15.619   7.264  0.1914  0.1449  0.0136
  683CHOL    C2 6141  12.998  15.695   6.865  0.2647  0.2042  0.2301
  684PNCE   AM1 6142  10.704   4.127   4.418 -0.0393 -0.2011  0.0418
  684PNCE   AM2 6143  11.011   3.972   4.285 -0.0450  0.1364  0.0186
  684PNCE   T1A 6144  10.641   4.302   4.861 -0.3564 -0.0810  0.1926
  684PNCE   C2A 6145  10.743   4.391   5.327  0.2114 -0.2294 -0.1949
  684PNCE   C3A 6146  10.805   4.157   5.630  0.3372 -0.1337  0.1525
  684PNCE   C1B 6147  11.218   4.270   4.620  0.3860 -0.0130 -0.4665
  684PNCE   C2B 6148  11.436   4.561   4.931  0.2640 -0.0659  0.1777
  684PNCE   C3B 6149  11.573   4.510   5.363 -0.2661 -0.2876  0.0523
  684PNCE   D4B 6150  11.590   4.736   5.780 -0.0683  0.1111  0.4077
  684PNCE   C5B 6151  11.875   4.966   5.825 -0.0577  0.3212  0.1823
  684PNCE   C6B 6152  12.287   5.150   5.735  0.1966 -0.0490 -0.2356
  685CHOL   ROH 6153   7.376   3.820   7.297  0.1243  0.0811  0.0725
  685CHOL    R1 6154   7.580   3.735   7.120  0.0418  0.0076  0.0134
  685CHOL    R2 6155   7.530   3.676   6.854 -0.0343  0.1471 -0.0015
  685CHOL    R3 6156   7.729   3.856   6.811  0.0894  0.0236  0.0416
  685CHOL    R4 6157   7.705   3.710   6.558 -0.1459  0.2203 -0.0604
  685CHOL    R5 6158   7.887   3.739   6.675 -0.0649 -0.0081 -0.1181
  685CHOL    C1 6159   7.994   3.898   6.345 -0.0947  0.1470 -0.0542
  685CHOL    C2 6160   8.062   4.087   6.106 -0.0569 -0.3572  0.0070
  686XCA    COO 6161  12.282  12.640   5.339 -0.1322 -0.1859  0.1490
  686XCA     C1 6162  12.305  12.894   5.733  0.0557  0.3510  0.0557
  686XCA     C2 6163  12.407  12.934   6.090  0.2728 -0.1793  0.0877
  686XCA     C3 6164  12.510  12.705   6.554  0.1883 -0.2111 -0.2849
  686XCA     C4 6165  12.727  12.666   6.996  0.3135 -0.0666  0.0435
  686XCA     C5 6166  13.138  12.505   7.073  0.0376  0.0370  0.1644
  686XCA     C6 6167  13.452  12.701   7.384  0.1602 -0.2391 -0.1756
  687PNCE   AM1 6168   8.311   7.633   8.750 -0.1435  0.1493 -0.0198
  687PNCE   AM2 6169   8.409   7.198   8.684  0.1259 -0.1598 -0.1147
  687PNCE   T1A 6170   8.113   7.662   8.478  0.1147 -0.1584  0.2837
  687PNCE   C2A 6171   7.898   7.997   8.294 -0.1027  0.0111 -0.2961
  687PNCE   C3A 6172   7.828   8.085   7.858 -0.2550  0.0427  0.2246
  687PNCE   C1B 6173   8.221   7.168   8.185  0.0431 -0.0290 -0.0443
  687PNCE   C2B 6174   7.951   7.118   7.736 -0.1556  0.0095 -0.0834
  687PNCE   C3B 6175   7.866   7.216   7.303 -0.0405 -0.0913  0.1209
  687PNCE   D4B 6176   7.580   7.548   7.238  0.1211 -0.2557 -0.1784
  687PNCE   C5B 6177   7.822   7.973   7.346 -0.1106 -0.1031 -0.0192
  687PNCE   C6B 6178   7.724   8.402   7.307 -0.2298 -0.2917 -0.0812
  688CHOL   ROH 6179   9.891  14.236   7.620  0.0533 -0.3356  0.1528
  688CHOL    R1 6180   9.989  14.091   7.397 -0.0972 -0.2523  0.0306
  688CHOL    R2 6181   9.851  14.073   7.158 -0.1270  0.0761  0.0196
  688CHOL    R3 6182  10.084  14.166   7.054 -0.0392 -0.0646  0.0860
  688CHOL    R4 6183   9.950  14.032   6.830 -0.1360  0.1582  0.0062
  688CHOL    R5 6184  10.153  13.995   6.901 -0.1702 -0.0476  0.0051
  688CHOL    C1 6185  10.227  14.096   6.540 -0.0588  0.0739  0.0607
  688CHOL    C2 6186  10.449  13.873   6.391  0.2842 -0.2715 -0.1776
  689CHOL   ROH 6187  12.803   4.542   6.430  0.0259 -0.0883  0.0547
  689CHOL    R1 6188  12.564   4.520   6.579  0.0839 -0.1966  0.1323
  689CHOL    R2 6189  12.314   4.529   6.462  0.0368  0.0016  0.2457
  689CHOL    R3 6190  12.280   4.292   6.593  0.0312 -0.1410 -0.0069
  689CHOL    R4 6191  12.012   4.364   6.499  0.0161  0.0158  0.1440
  689CHOL    R5 6192  12.069   4.315   6.703  0.0647 -0.2238  0.0776
  689CHOL    C1 6193  11.805   4.047   6.642 -0.0011 -0.1099 -0.1525
  689CHOL    C2 6194  11.479   4.117   6.950  0.1028 -0.2266 -0.1321
  690PNCE   AM1 6195  12.631   5.416   3.962  0.5060  0.1546 -0.0059
  690PNCE   AM2 6196  12.573   5.101   4.053 -0.1201  0.0243  0.0901
  690PNCE   T1A 6197  13.000   5.263   4.261 -0.2251 -0.3088  0.0381
  690PNCE   C2A 6198  13.224   5.268   4.603 -0.1093 -0.1279 -0.1417
  690PNCE   C3A 6199  13.505   5.458   4.858 -0.1249 -0.0782 -0.0406
  690PNCE   C1B 6200  12.313   5.042   4.428 -0.1348  0.1499 -0.0680
  690PNCE   C2B 6201  12.404   5.018   4.871  0.2492  0.2032  0.1931
  690PNCE   C3B 6202  12.602   5.090   5.230  0.1306  0.0088  0.1459
  690PNCE   D4B 6203  12.709   4.986   5.589 -0.1733 -0.2092 -0.1506
  690PNCE   C5B 6204  13.201   5.044   5.741  0.1355  0.0852  0.0135
  690PNCE   C6B 6205  13.523   4.930   5.522 -0.0237  0.0112 -0.0315
  691PNCE   AM1 6206   4.687   9.810   5.696  0.0656  0.2527  0.1274
  691PNCE   AM2 6207   4.605  10.022   5.938 -0.0605  0.0308  0.1883
  691PNCE   T1A 6208   4.889   9.462   5.920  0.2063  0.0815 -0.1258
  691PNCE   C2A 6209   5.038   9.166   6.146 -0.0556  0.1064 -0.0180
  691PNCE   C3A 6210   5.176   9.009   6.505 -0.1626  0.1156 -0.1727
  691PNCE   C1B 6211   4.636   9.867   6.336  0.2099 -0.3357 -0.1080
  691PNCE   C2B 6212   4.580   9.759   6.722  0.0704  0.1187  0.0020
  691PNCE   C3B 6213   4.779   9.737   7.154 -0.2673  0.0059  0.2427
  691PNCE   D4B 6214   4.593   9.458   7.441  0.2648 -0.0298  0.1613
  691PNCE   C5B 6215   4.359   9.762   7.609  0.0102  0.0152 -0.2285
  691PNCE   C6B 6216   4.191  10.075   7.593  0.4375 -0.1020  0.3218
  692PNCE   AM1 6217   5.552  14.070   5.186 -0.0782 -0.0633 -0.0272
  692PNCE   AM2 6218   5.704  14.025   4.866 -0.0989 -0.5739  0.1118
  692PNCE   T1A 6219   5.665  14.287   5.593 -0.1744 -0.4327  0.2206
  692PNCE   C2A 6220   5.923  14.416   6.001  0.3304  0.3801  0.1856
  692PNCE   C3A 6221   6.075  14.478   6.417 -0.1233 -0.0717  0.0631
  692PNCE   C1B 6222   5.974  14.364   5.062 -0.2667 -0.1224  0.0591
  692PNCE   C2B 6223   6.020  14.715   5.414 -0.0310  0.1545  0.0641
  692PNCE   C3B 6224   6.033  15.107   5.597 -0.1136  0.5086  0.3918
  692PNCE   D4B 6225   5.883  15.416   5.929  0.2968 -0.0732  0.0703
  692PNCE   C5B 6226   5.475  15.186   6.113 -0.1288 -0.2307  0.2292
  692PNCE   C6B 6227   5.590  14.850   6.438 -0.0547  0.0841  0.0529
  693CHOL   ROH 6228  12.273   5.733   8.038  0.3485  0.1618  0.0675
  693CHOL    R1 6229  12.332   5.797   7.768  0.2108  0.0980  0.0226
  693CHOL    R2 6230  12.293   5.618   7.561 -0.0687  0.1147  0.0644
  693CHOL    R3 6231  12.147   5.822   7.456  0.0135  0.2187  0.1450
  693CHOL    R4 6232  12.254   5.679   7.223 -0.1924  0.1464  0.0828
  693CHOL    R5 6233  12.272   5.893   7.264 -0.0277  0.1388  0.0829
  693CHOL    C1 6234  12.093   5.906   6.928 -0.1871  0.2623  0.1692
  693CHOL    C2 6235  11.981   5.819   6.482  0.1011 -0.0442 -0.0758
  694PNCE   AM1 6236   6.187   7.750   4.630  0.0923  0.4209  0.3326
  694PNCE   AM2 6237   6.351   7.545   4.554  0.1001  0.3508 -0.1629
  694PNCE   T1A 6238   6.086   7.586   5.046  0.0109  0.0418  0.4833
  694PNCE   C2A 6239   6.015   7.228   5.350 -0.0150 -0.1676 -0.0944
  694PNCE   C3A 6240   5.692   6.864   5.179 -0.2308  0.0462 -0.5491
  694PNCE   C1B 6241   6.582   7.542   4.915 -0.4532 -0.0275  0.4152
  694PNCE   C2B 6242   6.677   7.722   5.322 -0.3960 -0.1249 -0.0261
  694PNCE   C3B 6243   6.286   7.686   5.484  0.0548  0.1569  0.0854
  694PNCE   D4B 6244   5.878   7.671   5.514 -0.0245 -0.0362 -0.1802
  694PNCE   C5B 6245   5.774   7.286   5.795  0.0152 -0.0198 -0.2226
  694PNCE   C6B 6246   5.907   6.843   5.702 -0.0320  0.2434  0.0842
  695PNCE   AM1 6247  12.114  13.777   4.914 -0.1573 -0.0784  0.1481
  695PNCE   AM2 6248  12.019  13.474   4.878  0.0400  0.2046 -0.0467
  695PNCE   T1A 6249  12.036  14.012   5.320  0.0507 -0.0936 -0.0239
  695PNCE   C2A 6250  11.909  14.178   5.700  0.0687  0.1689 -0.2597
  695PNCE   C3A 6251  11.815  14.595   5.951  0.3319  0.2672  0.0689
  695PNCE   C1B 6252  12.056  13.522   5.317 -0.2899  0.2652 -0.2550
  695PNCE   C2B 6253  12.037  13.683   5.676 -0.0480  0.0304 -0.2152
  695PNCE   C3B 6254  12.082  13.755   6.091  0.2047  0.2520  0.0372
  695PNCE   D4B 6255  12.102  13.600   6.500  0.1153 -0.3101 -0.1614
  695PNCE   C5B 6256  12.462  13.556   6.761  0.1119 -0.3496 -0.0182
  695PNCE   C6B 6257  12.570  13.760   7.091  0.1696  0.1440 -0.0736
  696PNCE   AM1 6258  11.897   3.036   4.264  0.1132 -0.2395 -0.0263
  696PNCE   AM2 6259  11.634   3.266   4.327 -0.0765  0.0674 -0.2898
  696PNCE   T1A 6260  12.185   2.954   4.619  0.2593 -0.1677  0.0515
  696PNCE   C2A 6261  12.280   3.010   5.010  0.0336 -0.0304  0.1404
  696PNCE   C3A 6262  12.265   2.960   5.402  0.3402 -0.1852 -0.2326
  696PNCE   C1B 6263  11.798   3.217   4.708 -0.0145 -0.1547 -0.1083
  696PNCE   C2B 6264  11.878   3.272   5.185 -0.2529 -0.3297  0.2416
  696PNCE   C3B 6265  11.930   3.405   5.543 -0.0858  0.1267 -0.0503
  696PNCE   D4B 6266  12.109   3.540   5.991  0.0567  0.1137  0.0089
  696PNCE   C5B 6267  12.230   4.008   6.231  0.0395  0.2652  0.0367
  696PNCE   C6B 6268  12.068   4.367   6.050  0.3201  0.2381  0.2444
  697PNCE   AM1 6269   4.143   7.483   5.098  0.0704  0.2673  0.3769
  697PNCE   AM2 6270   4.124   7.344   4.767 -0.1646  0.3100  0.1211
  697PNCE   T1A 6271   4.017   6.961   5.084  0.4559 -0.0605  0.2392
  697PNCE   C2A 6272   3.606   6.680   4.952 -0.4527  0.0371 -0.1983
  697PNCE   C3A 6273   3.621   6.319   4.647  0.3619  0.1267  0.3435
  697PNCE   C1B 6274   3.639   7.221   4.848  0.0852 -0.1588 -0.0048
  697PNCE   C2B 6275   3.508   7.194   5.268  0.0060 -0.0875  0.3128
  697PNCE   C3B 6276   3.409   7.258   5.671 -0.2486  0.1376  0.1886
  697PNCE   D4B 6277   3.411   7.106   5.961 -0.0865  0.0238  0.2132
  697PNCE   C5B 6278   3.038   6.848   6.021  0.0264  0.1394  0.2669
  697PNCE   C6B 6279   3.002   6.461   6.258  0.0449 -0.1318  0.1397
  698PNCE   AM1 6280   6.094  15.680   4.867 -0.2353  0.1728 -0.2261
  698PNCE   AM2 6281   6.208  15.379   4.769 -0.0700 -0.1143  0.2358
  698PNCE   T1A 6282   6.001  16.025   5.125 -0.1088 -0.0947 -0.1301
  698PNCE   C2A 6283   5.965  16.199   5.562 -0.0309  0.1730 -0.1874
  698PNCE   C3A 6284   6.080  16.541   5.790  0.0757  0.0652  0.2793
  698PNCE   C1B 6285   6.457  15.372   5.118 -0.2408  0.0053 -0.0964
  698PNCE   C2B 6286   6.666  15.463   5.509  0.0771  0.1395 -0.3609
  698PNCE   C3B 6287   6.678  15.740   5.896 -0.1621 -0.1764 -0.2453
  698PNCE   D4B 6288   6.672  16.123   6.110 -0.0517  0.1440 -0.2795
  698PNCE   C5B 6289   6.349  16.423   6.164 -0.1045 -0.3464 -0.1108
  698PNCE   C6B 6290   5.845  16.483   6.212  0.0695  0.3961 -0.0426
  699XCA    COO 6291   4.406  15.443   8.985  0.2123  0.0732  0.2161
  699XCA     C1 6292   3.935  15.554   8.780 -0.2058  0.2308 -0.1840
  699XCA     C2 6293   3.890  15.718   8.336 -0.3503 -0.2211 -0.3718
  699XCA     C3 6294   3.780  15.851   8.000 -0.1349  0.0068  0.0338
  699XCA     C4 6295   3.843  15.838   7.557  0.4298  0.1343  0.1779
  699XCA     C5 6296   3.829  15.667   7.138  0.1393 -0.2325 -0.1812
  699XCA     C6 6297   3.630  15.645   6.737 -0.1207  0.2975  0.1924
  700XCA    COO 6298  14.346  13.900   5.274  0.0811  0.0271  0.0605
  700XCA     C1 6299  14.482  13.623   5.642 -0.0624 -0.0841  0.0381
  700XCA     C2 6300  14.746  13.448   5.972 -0.0752  0.2750 -0.2124
  700XCA     C3 6301  15.006  13.557   6.294 -0.1229  0.1413 -0.1166
  700XCA     C4 6302  15.113  13.804   6.608  0.2634  0.0227 -0.1183
  700XCA     C5 6303  15.341  13.930   7.039  0.1435  0.2890  0.3620
  700XCA     C6 6304  15.287  14.216   7.363 -0.0440 -0.0117 -0.3039
  701PNCE   AM1 6305   4.156   9.821   5.720  0.3908 -0.1897 -0.1567
  701PNCE   AM2 6306   4.223   9.704   5.456 -0.0963 -0.0060 -0.0359
  701PNCE   T1A 6307   4.306   9.592   6.045  0.0770 -0.0890  0.1132
  701PNCE   C2A 6308   4.599   9.314   6.344  0.2538  0.3486  0.0351
  701PNCE   C3A 6309   4.802   9.270   6.810 -0.3995  0.0051 -0.1169
  701PNCE   C1B 6310   4.339   9.332   5.610  0.0489 -0.0393 -0.0697
  701PNCE   C2B 6311   4.339   9.049   5.911 -0.1566  0.0194  0.1038
  701PNCE   C3B 6312   4.188   9.011   6.303 -0.1806 -0.0167 -0.2649
  701PNCE   D4B 6313   3.813   8.937   6.637  0.0926  0.1535 -0.0650
  701PNCE   C5B 6314   3.607   8.563   6.687 -0.1868 -0.1633 -0.1977
  701PNCE   C6B 6315   3.322   8.420   6.821  0.1673  0.0592 -0.1077
  702PNCE   AM1 6316   1.671   7.141   4.626 -0.2046 -0.1685  0.1195
  702PNCE   AM2 6317   1.432   7.272   4.816 -0.0654  0.2854  0.0216
  702PNCE   T1A 6318   1.933   7.204   5.006 -0.0537 -0.3387  0.3256
  702PNCE   C2A 6319   1.931   7.064   5.409 -0.1292  0.0674 -0.0920
  702PNCE   C3A 6320   1.663   7.112   5.680  0.0283 -0.0648 -0.2924
  702PNCE   C1B 6321   1.260   7.275   5.258 -0.2349  0.1807 -0.1635
  702PNCE   C2B 6322   0.835   7.395   5.509 -0.1105 -0.0028 -0.2856
  702PNCE   C3B 6323   0.550   7.673   5.846  0.1774  0.2148 -0.2233
  702PNCE   D4B 6324   0.611   7.733   6.317  0.0366 -0.1613 -0.0834
  702PNCE   C5B 6325   0.351   7.803   6.741  0.0160  0.2408  0.5851
  702PNCE   C6B 6326   0.041   8.059   6.844  0.0333 -0.2098  0.1005
  703CHOL   ROH 6327  11.330   7.422   7.728  0.0456 -0.0014 -0.1900
  703CHOL    R1 6328  11.197   7.200   7.613  0.0132 -0.0509 -0.0585
  703CHOL    R2 6329  11.093   7.205   7.357 -0.1149 -0.1385 -0.0097
  703CHOL    R3 6330  11.246   6.983   7.326 -0.1046 -0.1302 -0.0191
  703CHOL    R4 6331  11.078   6.991   7.086 -0.1215 -0.1420 -0.0065
  703CHOL    R5 6332  11.099   6.823   7.223 -0.1022 -0.1395 -0.0072
  703CHOL    C1 6333  11.212   6.658   6.899 -0.1156 -0.1364 -0.0135
  703CHOL    C2 6334  11.340   6.513   6.568  0.3989 -0.0661  0.2030
  704PNCE   AM1 6335   7.347   2.296   4.427 -0.0387 -0.2421  0.0492
  704PNCE   AM2 6336   7.515   2.585   4.295  0.1873  0.3374  0.3245
  704PNCE   T1A 6337   7.073   2.177   4.666  0.0133 -0.0236 -0.0604
  704PNCE   C2A 6338   7.006   2.336   5.060  0.0554  0.0579  0.0287
  704PNCE   C3A 6339   6.719   2.310   5.404 -0.2100 -0.0399 -0.0008
  704PNCE   C1B 6340   7.736   2.697   4.632 -0.0031  0.1876  0.0435
  704PNCE   C2B 6341   8.013   2.716   4.945  0.2640 -0.1851  0.1767
  704PNCE   C3B 6342   8.391   2.577   5.133 -0.0571  0.1799  0.0286
  704PNCE   D4B 6343   8.591   2.555   5.550  0.2775 -0.1087 -0.3442
  704PNCE   C5B 6344   8.488   2.905   5.892  0.3076  0.1405 -0.0225
  704PNCE   C6B 6345   8.343   3.272   5.752  0.0811  0.0102  0.2645
  705PNCE   AM1 6346  11.140  13.037   4.414 -0.1619 -0.1746  0.1372
  705PNCE   AM2 6347  10.927  13.076   4.600  0.0277  0.1221 -0.4128
  705PNCE   T1A 6348  11.344  13.022   4.800 -0.0284 -0.4243 -0.2914
  705PNCE   C2A 6349  11.614  13.162   5.163  0.2168 -0.1105 -0.3705
  705PNCE   C3A 6350  11.927  13.093   5.522  0.2387 -0.1056 -0.1086
  705PNCE   C1B 6351  10.765  13.079   5.070  0.2037  0.1258  0.2108
  705PNCE   C2B 6352  10.529  13.188   5.446  0.1901 -0.0992  0.0383
  705PNCE   C3B 6353  10.383  13.446   5.687  0.0031  0.0210  0.0026
  705PNCE   D4B 6354  10.277  13.333   6.172  0.1985 -0.2307  0.0508
  705PNCE   C5B 6355  10.573  13.291   6.503  0.2207 -0.2910  0.2226
  705PNCE   C6B 6356  10.501  13.100   6.891 -0.1094 -0.2912  0.1461
  706CHOL   ROH 6357   4.235  11.980   5.794 -0.0634  0.1337 -0.0644
  706CHOL    R1 6358   4.180  12.059   6.061 -0.1101  0.1908 -0.0909
  706CHOL    R2 6359   3.969  12.224   6.127 -0.2984 -0.0333 -0.1303
  706CHOL    R3 6360   3.906  12.021   6.297 -0.0242 -0.0329 -0.0239
  706CHOL    R4 6361   3.861  12.266   6.452 -0.2208 -0.0107 -0.1070
  706CHOL    R5 6362   3.985  12.096   6.510 -0.0199  0.1389 -0.0826
  706CHOL    C1 6363   3.739  12.100   6.802  0.0819  0.0027  0.0065
  706CHOL    C2 6364   3.613  12.316   7.062  0.0486 -0.1144 -0.1783
  707XCA    COO 6365   4.359   3.974   3.868 -0.0042  0.0880 -0.1931
  707XCA     C1 6366   4.125   4.032   4.344 -0.3833 -0.1363  0.0048
  707XCA     C2 6367   4.084   4.200   4.753 -0.3435 -0.1641 -0.0504
  707XCA     C3 6368   4.052   4.519   5.046 -0.1204  0.1391 -0.1505
  707XCA     C4 6369   4.142   4.919   5.042 -0.1127 -0.1395  0.2220
  707XCA     C5 6370   4.083   5.121   5.329  0.2747 -0.2347  0.0511
  707XCA     C6 6371   4.180   5.133   5.745  0.1785 -0.1730  0.0987
  708XCA    COO 6372  10.612  12.702   4.576  0.1912  0.0858 -0.4504
  708XCA     C1 6373  10.489  12.643   4.966  0.0450  0.0495  0.2208
  708XCA     C2 6374  10.203  12.761   5.341 -0.0279 -0.0429 -0.0003
  708XCA     C3 6375  10.219  12.602   5.767 -0.2013  0.0374  0.0834
  708XCA     C4 6376   9.951  12.286   5.996 -0.0158  0.3016  0.1190
  708XCA     C5 6377   9.929  12.050   6.292  0.2920 -0.2353  0.0066
  708XCA     C6 6378   9.769  11.877   6.715  0.0192  0.0385 -0.1450
  709CHOL   ROH 6379   5.933  15.421   7.063 -0.2292 -0.1563 -0.1045
  709CHOL    R1 6380   5.871  15.674   6.953 -0.1239 -0.1259 -0.0949
  709CHOL    R2 6381   5.953  15.750   6.700 -0.0426 -0.1279 -0.0704
  709CHOL    R3 6382   5.688  15.799   6.664 -0.0196 -0.0412 -0.1244
  709CHOL    R4 6383   5.824  15.972   6.470  0.0729 -0.0911 -0.1006
  709CHOL    R5 6384   5.677  16.034   6.619  0.0645 -0.0397 -0.1324
  709CHOL    C1 6385   5.499  16.148   6.301  0.1617  0.0118 -0.1689
  709CHOL    C2 6386   5.337  16.551   6.287 -0.0210 -0.0815  0.1341
  710CHOL   ROH 6387  13.421  14.903   8.965 -0.0978  0.0506  0.1591
  710CHOL    R1 6388  13.473  14.747   8.735 -0.0086  0.1534  0.1089
  710CHOL    R2 6389  13.392  14.484   8.712  0.1962  0.0950  0.0509
  710CHOL    R3 6390  13.276  14.573   8.483  0.0905  0.0644  0.0916
  710CHOL    R4 6391  13.367  14.301   8.420  0.1811  0.1028  0.0471
  710CHOL    R5 6392  13.413  14.483   8.309  0.0750  0.1299  0.0440
  710CHOL    C1 6393  13.244  14.278   8.035  0.0731  0.0784  0.0829
  710CHOL    C2 6394  13.245  14.204   7.659 -0.1862  0.2069  0.1914
  711CHOL   ROH 6395   9.158   1.764   8.131  0.2659 -0.0356 -0.2321
  711CHOL    R1 6396   9.030   1.757   7.878  0.1196  0.0256 -0.1606
  711CHOL    R2 6397   9.058   1.545   7.703  0.0295  0.0747 -0.2335
  711CHOL    R3 6398   8.786   1.545   7.711  0.0333  0.0580 -0.0776
  711CHOL    R4 6399   8.853   1.444   7.443 -0.1091 -0.0391 -0.0816
  711CHOL    R5 6400   8.720   1.611   7.490 -0.0957 -0.0293 -0.0679
  711CHOL    C1 6401   8.478   1.386   7.300 -0.1864 -0.1210  0.1533
  711CHOL    C2 6402   8.483   1.402   6.968 -0.2851  0.0676  0.0849
  712CHOL   ROH 6403   9.226  10.930   6.673 -0.0048 -0.0516  0.1557
  712CHOL    R1 6404   9.286  11.204   6.709 -0.0740 -0.0289  0.1011
  712CHOL    R2 6405   9.120  11.375   6.849 -0.1119 -0.0450  0.0768
  712CHOL    R3 6406   9.346  11.427   6.991 -0.1184  0.0397  0.0566
  712CHOL    R4 6407   9.163  11.645   7.061 -0.1042  0.1088 -0.1168
  712CHOL    R5 6408   9.366  11.665   6.986 -0.0970  0.0354 -0.1172
  712CHOL    C1 6409   9.400  11.850   7.318 -0.1058  0.2777 -0.2485
  712CHOL    C2 6410   9.653  11.845   7.627 -0.1667 -0.5436  0.1024
  713XCA    COO 6411   3.204   7.013   4.736  0.0393 -0.1227 -0.2157
  713XCA     C1 6412   3.121   6.778   5.101 -0.1497 -0.0231 -0.0545
  713XCA     C2 6413   3.294   6.817   5.530 -0.1190 -0.0284 -0.1300
  713XCA     C3 6414   3.682   6.821   5.512  0.1262 -0.1352  0.0919
  713XCA     C4 6415   4.160   6.776   5.630 -0.0223  0.4671  0.1151
  713XCA     C5 6416   4.390   6.776   5.926  0.3915  0.2226 -0.5467
  713XCA     C6 6417   4.696   6.816   6.296 -0.1932  0.1268  0.1778
  714CHOL   ROH 6418   6.741  10.530   9.144  0.1085 -0.0700 -0.0080
  714CHOL    R1 6419   6.530  10.642   8.991  0.1218  0.0042  0.0260
  714CHOL    R2 6420   6.484  10.914   8.977  0.1384  0.0161  0.1318
  714CHOL    R3 6421   6.500  10.870   8.709  0.1508  0.1192  0.1159
  714CHOL    R4 6422   6.380  11.136   8.734 -0.1044 -0.0062  0.2146
  714CHOL    R5 6423   6.300  10.968   8.621  0.0467 -0.0462  0.1701
  714CHOL    C1 6424   6.333  11.224   8.341 -0.2342  0.0777  0.2478
  714CHOL    C2 6425   6.346  11.192   7.999  0.0301 -0.1248  0.2934
  715CHOL   ROH 6426  10.720   0.913   4.843 -0.1864  0.2583 -0.1402
  715CHOL    R1 6427  10.875   0.936   5.079 -0.0416  0.2262 -0.2303
  715CHOL    R2 6428  10.934   1.180   5.195 -0.4242  0.1905  0.0619
  715CHOL    R3 6429  10.826   1.064   5.416 -0.0321 -0.3366 -0.0046
  715CHOL    R4 6430  11.031   1.247   5.520 -0.4918  0.1426  0.0911
  715CHOL    R5 6431  11.012   1.035   5.564  0.1147  0.0315 -0.1072
  715CHOL    C1 6432  10.985   1.178   5.917 -0.1631 -0.3801  0.0457
  715CHOL    C2 6433  11.177   1.018   6.243  0.0616  0.3133 -0.0920
  716PNCE   AM1 6434   8.098   3.150   4.359  0.0102  0.1289 -0.0158
  716PNCE   AM2 6435   7.780   3.012   4.271  0.1907 -0.0175  0.3348
  716PNCE   T1A 6436   8.095   3.216   4.813 -0.1830  0.1339  0.0791
  716PNCE   C2A 6437   8.170   3.157   5.247  0.0146 -0.1691 -0.2144
  716PNCE   C3A 6438   8.095   2.826   5.484  0.0969 -0.1571 -0.2266
  716PNCE   C1B 6439   7.658   3.201   4.739 -0.3034  0.1117 -0.0017
  716PNCE   C2B 6440   7.368   3.190   5.000 -0.0741 -0.2417 -0.1609
  716PNCE   C3B 6441   7.215   3.221   5.432  0.1258  0.0128 -0.0033
  716PNCE   D4B 6442   7.333   3.298   5.889  0.1895  0.1930  0.1046
  716PNCE   C5B 6443   7.590   3.270   6.180  0.0023 -0.0471  0.0938
  716PNCE   C6B 6444   7.951   3.285   6.543  0.2144 -0.1447 -0.0265
  717CHOL   ROH 6445   8.921  13.291   7.977 -0.0178 -0.2300 -0.0919
  717CHOL    R1 6446   9.181  13.221   7.890  0.0372 -0.1131 -0.0235
  717CHOL    R2 6447   9.230  13.115   7.639  0.1442 -0.1340  0.0073
  717CHOL    R3 6448   9.406  13.322   7.622  0.0435 -0.0472  0.0061
  717CHOL    R4 6449   9.522  13.112   7.454  0.1699 -0.0118  0.0442
  717CHOL    R5 6450   9.621  13.217   7.617  0.0976  0.0576  0.0458
  717CHOL    C1 6451   9.857  13.303   7.330  0.0904  0.1408  0.0645
  717CHOL    C2 6452  10.227  13.174   7.323 -0.1431 -0.0153 -0.0236
  718PNCE   AM1 6453  10.287  12.024   4.481 -0.1544  0.1658 -0.2611
  718PNCE   AM2 6454  10.523  12.216   4.382 -0.1369  0.0538 -0.0495
  718PNCE   T1A 6455  10.187  12.237   4.988  0.0321 -0.0152  0.0482
  718PNCE   C2A 6456  10.340  12.259   5.338 -0.3538 -0.1091 -0.0054
  718PNCE   C3A 6457  10.580  12.248   5.752  0.0457 -0.2626  0.1050
  718PNCE   C1B 6458  10.656  12.184   4.780 -0.0697  0.2421 -0.5172
  718PNCE   C2B 6459  10.808  12.260   5.238 -0.1807  0.0992  0.1839
  718PNCE   C3B 6460  10.754  12.684   5.422  0.1766 -0.3138  0.3071
  718PNCE   D4B 6461  10.688  12.866   5.795  0.1580  0.5506  0.0152
  718PNCE   C5B 6462  10.905  12.907   6.212  0.1095 -0.3366  0.1612
  718PNCE   C6B 6463  10.949  13.000   6.637 -0.1161  0.2752  0.1698
  719PNCE   AM1 6464  12.741   1.552   4.297  0.0055 -0.1645 -0.2944
  719PNCE   AM2 6465  12.527   1.422   4.422  0.1822 -0.0738 -0.2030
  719PNCE   T1A 6466  12.961   1.635   4.599  0.3682 -0.2607  0.2250
  719PNCE   C2A 6467  12.916   1.695   4.999 -0.0329 -0.2067  0.0983
  719PNCE   C3A 6468  12.888   1.697   5.385  0.2307 -0.0530 -0.1736
  719PNCE   C1B 6469  12.325   1.622   4.866 -0.1903 -0.2151 -0.5134
  719PNCE   C2B 6470  12.094   1.721   5.183 -0.1287 -0.1387 -0.2071
  719PNCE   C3B 6471  11.818   1.859   5.459  0.1699  0.1629  0.0444
  719PNCE   D4B 6472  11.699   1.555   5.703  0.1138  0.0067 -0.1962
  719PNCE   C5B 6473  11.401   1.437   5.933 -0.0716 -0.2383 -0.0229
  719PNCE   C6B 6474  10.964   1.696   6.059 -0.0473  0.0304 -0.2808
  720PNCE   AM1 6475  14.005   0.268   4.579 -0.3082  0.1097 -0.0740
  720PNCE   AM2 6476  14.063  -0.004   4.788 -0.1198  0.1218 -0.1484
  720PNCE   T1A 6477  13.598   0.475   4.803  0.0711 -0.2461  0.3447
  720PNCE   C2A 6478  13.438   0.542   5.215  0.3821 -0.1728 -0.1445
  720PNCE   C3A 6479  13.438   0.764   5.661  0.0231 -0.0448  0.2393
  720PNCE   C1B 6480  13.890   0.264   5.205  0.0332  0.1087  0.1434
  720PNCE   C2B 6481  13.697   0.342   5.630 -0.2304 -0.1004  0.0495
  720PNCE   C3B 6482  13.768   0.532   6.039  0.0039  0.1431  0.0593
  720PNCE   D4B 6483  14.051   0.511   6.329 -0.2561 -0.0037 -0.3710
  720PNCE   C5B 6484  14.018   0.870   6.495 -0.0700 -0.3322 -0.1512
  720PNCE   C6B 6485  14.241   1.279   6.531  0.3134  0.0848  0.1680
  721XCA    COO 6486   7.907   5.709   4.062  0.0694  0.0512  0.2440
  721XCA     C1 6487   8.062   5.542   4.458  0.0517  0.0086  0.1169
  721XCA     C2 6488   8.206   5.579   4.898 -0.1125  0.3348 -0.1446
  721XCA     C3 6489   8.673   5.403   5.128 -0.3082 -0.0512  0.1072
  721XCA     C4 6490   9.048   5.364   5.256 -0.0588  0.1212 -0.1397
  721XCA     C5 6491   9.385   5.256   5.586  0.2442  0.2945 -0.0831
  721XCA     C6 6492   9.405   4.913   5.855 -0.1157  0.0490 -0.0602
  722PNCE   AM1 6493   5.259  12.614   5.748 -0.1093  0.4578 -0.2817
  722PNCE   AM2 6494   4.930  12.528   5.713  0.0599 -0.2558 -0.3983
  722PNCE   T1A 6495   5.185  12.528   6.267  0.0002  0.3222  0.1982
  722PNCE   C2A 6496   5.141  12.953   6.526 -0.0507 -0.0551 -0.0152
  722PNCE   C3A 6497   5.265  13.348   6.624  0.1375 -0.1384 -0.3424
  722PNCE   C1B 6498   4.874  12.180   6.108  0.1031  0.3235  0.0593
  722PNCE   C2B 6499   5.038  12.050   6.501  0.0188  0.0332 -0.1636
  722PNCE   C3B 6500   5.229  11.672   6.786  0.2026 -0.0754 -0.3166
  722PNCE   D4B 6501   5.666  11.589   6.732 -0.1016  0.2375 -0.2497
  722PNCE   C5B 6502   5.978  11.870   6.350  0.0401 -0.0055  0.2893
  722PNCE   C6B 6503   6.305  12.089   6.555  0.2101  0.0771 -0.1460
  723PNCE   AM1 6504  10.311   8.897   4.554  0.1692 -0.1539 -0.0127
  723PNCE   AM2 6505  10.262   8.951   4.860  0.0909  0.0822  0.0067
  723PNCE   T1A 6506  10.791   8.930   4.772 -0.0138  0.2376  0.0456
  723PNCE   C2A 6507  11.029   9.017   5.115  0.0340  0.2678 -0.0968
  723PNCE   C3A 6508  11.452   9.200   5.442 -0.0064  0.0032 -0.0084
  723PNCE   C1B 6509  10.555   8.743   5.154  0.0721 -0.1504  0.2492
  723PNCE   C2B 6510  10.787   8.776   5.546  0.3332 -0.2486  0.2052
  723PNCE   C3B 6511  11.108   8.948   5.811 -0.2696 -0.0330 -0.3802
  723PNCE   D4B 6512  11.141   9.029   6.149  0.0286  0.0714 -0.0737
  723PNCE   C5B 6513  10.986   8.734   6.530 -0.1667 -0.1240  0.1148
  723PNCE   C6B 6514  10.840   8.387   6.718 -0.4373  0.0615  0.0786
  724PNCE   AM1 6515   1.717  13.750   5.155 -0.0696 -0.2714  0.1617
  724PNCE   AM2 6516   1.668  14.119   4.995 -0.0465  0.1960  0.1426
  724PNCE   T1A 6517   2.063  13.916   5.240 -0.2191  0.1480  0.2201
  724PNCE   C2A 6518   2.386  13.920   5.523 -0.1042  0.0718  0.2564
  724PNCE   C3A 6519   2.608  13.921   5.936 -0.1885 -0.6692 -0.0609
  724PNCE   C1B 6520   1.476  14.244   5.402 -0.0191 -0.1449  0.2796
  724PNCE   C2B 6521   1.331  14.231   5.827  0.1848  0.0630 -0.0049
  724PNCE   C3B 6522   1.205  14.678   6.072 -0.0314  0.3261  0.1677
  724PNCE   D4B 6523   1.244  14.786   6.529 -0.0548 -0.1082 -0.2797
  724PNCE   C5B 6524   1.087  15.085   6.863  0.3960  0.0562  0.0371
  724PNCE   C6B 6525   1.015  15.527   7.028  0.2617  0.1041  0.0136
  725PNCE   AM1 6526  12.756   6.915   4.567  0.0815  0.1714  0.2221
  725PNCE   AM2 6527  12.506   7.031   4.404  0.0413 -0.0187  0.2595
  725PNCE   T1A 6528  12.696   7.061   4.974  0.1925  0.1669  0.1989
  725PNCE   C2A 6529  12.596   7.264   5.362 -0.1413  0.0684 -0.1601
  725PNCE   C3A 6530  12.437   7.162   5.863 -0.2673 -0.0575  0.3360
  725PNCE   C1B 6531  12.097   6.800   4.333 -0.0647 -0.1496  0.0583
  725PNCE   C2B 6532  11.895   6.440   4.611 -0.0583 -0.1340  0.0723
  725PNCE   C3B 6533  11.645   6.353   4.949  0.2486  0.0998 -0.1472
  725PNCE   D4B 6534  11.637   6.231   5.372  0.0359  0.0600  0.1408
  725PNCE   C5B 6535  11.707   6.094   5.836 -0.0274  0.0030  0.3583
  725PNCE   C6B 6536  11.517   6.045   6.359  0.0769 -0.1767  0.0109
  726PNCE   AM1 6537  12.743  14.742   4.791  0.1691  0.2145 -0.2255
  726PNCE   AM2 6538  12.831  14.409   4.878  0.0058  0.0173 -0.0879
  726PNCE   T1A 6539  12.643  15.079   5.114  0.1024  0.3706 -0.1106
  726PNCE   C2A 6540  12.481  15.082   5.566 -0.0917 -0.0515 -0.0454
  726PNCE   C3A 6541  12.613  15.328   5.900  0.2162 -0.0845  0.2138
  726PNCE   C1B 6542  12.844  14.447   5.357 -0.1281  0.1474  0.0635
  726PNCE   C2B 6543  12.888  14.331   5.788 -0.0504 -0.0071  0.1407
  726PNCE   C3B 6544  12.785  14.234   6.233 -0.1398  0.1063  0.3990
  726PNCE   D4B 6545  12.450  14.038   6.485  0.0130 -0.0250  0.0055
  726PNCE   C5B 6546  12.163  14.099   6.852 -0.2527  0.0157 -0.0685
  726PNCE   C6B 6547  11.991  14.046   7.220 -0.3399 -0.2104 -0.0605
  727CHOL   ROH 6548   7.482  13.898   8.547  0.0745  0.1500 -0.1143
  727CHOL    R1 6549   7.500  14.041   8.304 -0.1472  0.1713 -0.1183
  727CHOL    R2 6550   7.509  13.916   8.058 -0.0195  0.1795 -0.1093
  727CHOL    R3 6551   7.298  14.078   8.003 -0.2408 -0.0912 -0.0937
  727CHOL    R4 6552   7.365  13.953   7.746  0.1151  0.2092 -0.1700
  727CHOL    R5 6553   7.347  14.167   7.786 -0.2346  0.1634  0.0015
  727CHOL    C1 6554   7.084  14.128   7.513 -0.0143 -0.0275 -0.1906
  727CHOL    C2 6555   7.224  14.338   7.294  0.1695  0.0797  0.3053
  728XCA    COO 6556   0.336   6.537   4.506  0.0461 -0.0483 -0.1791
  728XCA     C1 6557   0.189   6.481   5.002  0.3288 -0.0450 -0.2526
  728XCA     C2 6558   0.013   6.390   5.396  0.1487  0.2411 -0.1573
  728XCA     C3 6559   0.079   6.537   5.792  0.2389  0.1600  0.0946
  728XCA     C4 6560   0.143   6.878   5.985 -0.0052  0.0137  0.1246
  728XCA     C5 6561   0.146   7.365   5.930 -0.2255 -0.2303 -0.0405
  728XCA     C6 6562  -0.253   7.705   6.057 -0.1490 -0.0557  0.1655
  729PNCE   AM1 6563   2.922  14.925   5.231  0.2744  0.1841  0.2269
  729PNCE   AM2 6564   2.782  15.116   5.445  0.2110 -0.0524 -0.1913
  729PNCE   T1A 6565   2.979  14.502   5.404 -0.1438 -0.0214 -0.0637
  729PNCE   C2A 6566   2.962  14.301   5.822 -0.1614  0.2138  0.0833
  729PNCE   C3A 6567   2.877  14.220   6.273 -0.0348 -0.3434  0.0182
  729PNCE   C1B 6568   2.950  15.405   5.554 -0.3223  0.0706 -0.1016
  729PNCE   C2B 6569   3.191  15.750   5.840  0.1226 -0.1892  0.1306
  729PNCE   C3B 6570   3.301  16.000   6.280 -0.1645  0.3414  0.1451
  729PNCE   D4B 6571   3.301  16.268   6.595  0.0981  0.0189  0.0276
  729PNCE   C5B 6572   2.852  16.313   6.773  0.3940 -0.0527 -0.1548
  729PNCE   C6B 6573   2.620  16.354   7.153  0.1579  0.2551 -0.1092
  730XCA    COO 6574   5.765  11.170   5.409 -0.1588  0.2221  0.0928
  730XCA     C1 6575   5.852  11.219   5.813  0.1198  0.1186 -0.2601
  730XCA     C2 6576   6.062  11.515   6.001 -0.1361 -0.1832  0.0658
  730XCA     C3 6577   6.096  11.379   6.432  0.3591  0.1982  0.0361
  730XCA     C4 6578   6.141  11.078   6.697  0.1342  0.1355 -0.2772
  730XCA     C5 6579   6.432  10.908   6.710 -0.1633  0.2321  0.0448
  730XCA     C6 6580   6.527  10.584   6.905 -0.0111  0.3360 -0.2230
  731PNCE   AM1 6581   1.703   7.601   4.346  0.2299 -0.1097 -0.0573
  731PNCE   AM2 6582   1.437   7.369   4.244 -0.2147  0.1081  0.0179
  731PNCE   T1A 6583   1.785   7.638   4.751  0.3290  0.0944 -0.2203
  731PNCE   C2A 6584   1.656   7.600   5.179 -0.0029 -0.1686 -0.0370
  731PNCE   C3A 6585   1.509   7.663   5.610 -0.1079 -0.0120 -0.0032
  731PNCE   C1B 6586   1.259   7.729   4.522  0.5225 -0.2838 -0.1777
  731PNCE   C2B 6587   1.285   7.881   4.940  0.1213  0.0487  0.0813
  731PNCE   C3B 6588   1.403   8.030   5.311 -0.3054 -0.1029 -0.2318
  731PNCE   D4B 6589   1.171   8.073   5.683  0.1292 -0.3898  0.2906
  731PNCE   C5B 6590   1.056   7.674   5.914 -0.2616 -0.1916  0.0329
  731PNCE   C6B 6591   1.241   7.294   5.899 -0.1909 -0.1834  0.1519
  732PNCE   AM1 6592   1.149  15.476   5.519  0.0818  0.1136 -0.2120
  732PNCE   AM2 6593   1.425  15.608   5.328  0.2656  0.1778 -0.1048
  732PNCE   T1A 6594   0.945  15.564   5.842 -0.1706  0.0743 -0.1754
  732PNCE   C2A 6595   0.908  15.662   6.268 -0.0435  0.0231  0.2245
  732PNCE   C3A 6596   0.788  15.483   6.557  0.0165  0.1200 -0.0924
  732PNCE   C1B 6597   1.363  16.021   5.613 -0.3750  0.0791 -0.0305
  732PNCE   C2B 6598   1.641  16.097   5.979 -0.1774 -0.0097 -0.2663
  732PNCE   C3B 6599   1.878  16.292   6.287 -0.0685 -0.0988 -0.1173
  732PNCE   D4B 6600   1.747  16.403   6.719  0.0326  0.0433  0.2753
  732PNCE   C5B 6601   1.577  16.125   6.987  0.0551  0.3762 -0.0708
  732PNCE   C6B 6602   1.374  15.836   7.310 -0.0063  0.0110 -0.4566
  733PNCE   AM1 6603   0.817   5.588   4.775  0.1696 -0.3262 -0.0821
  733PNCE   AM2 6604   0.803   5.830   4.909  0.0333 -0.1823 -0.0881
  733PNCE   T1A 6605   1.000   5.271   5.081 -0.0492 -0.2351  0.3684
  733PNCE   C2A 6606   0.931   5.048   5.469  0.0744  0.1599  0.2729
  733PNCE   C3A 6607   1.239   4.777   5.720  0.0575  0.0800  0.0574
  733PNCE   C1B 6608   1.037   5.767   5.345 -0.1568  0.0351 -0.1876
  733PNCE   C2B 6609   1.205   5.666   5.712 -0.1442  0.2500 -0.1381
  733PNCE   C3B 6610   1.041   5.264   5.899  0.0367 -0.1635 -0.1079
  733PNCE   D4B 6611   0.744   4.948   5.902 -0.3592 -0.0450 -0.2750
  733PNCE   C5B 6612   0.879   4.665   6.348 -0.0732 -0.1351  0.2508
  733PNCE   C6B 6613   1.053   4.302   6.672 -0.0819 -0.1470 -0.1420
  734CHOL   ROH 6614   7.767  11.300   8.391  0.1435  0.1055 -0.0863
  734CHOL    R1 6615   7.675  11.330   8.124  0.2021  0.1937 -0.0973
  734CHOL    R2 6616   7.847  11.372   7.912  0.2750 -0.0314 -0.0873
  734CHOL    R3 6617   7.719  11.155   7.808  0.0202  0.1100 -0.0773
  734CHOL    R4 6618   7.782  11.323   7.576  0.2529  0.0090 -0.0886
  734CHOL    R5 6619   7.586  11.244   7.630  0.1482  0.2539 -0.1022
  734CHOL    C1 6620   7.625  11.091   7.283  0.0008  0.1653 -0.0800
  734CHOL    C2 6621   7.708  11.219   6.901 -0.0105 -0.1785  0.3906
  735CHOL   ROH 6622  10.970   4.575   8.172 -0.0235  0.1387 -0.0925
  735CHOL    R1 6623  11.099   4.677   7.941  0.0459  0.1568 -0.0460
  735CHOL    R2 6624  10.986   4.661   7.689  0.1149  0.1897 -0.0786
  735CHOL    R3 6625  11.028   4.929   7.689  0.1293  0.1877 -0.0386
  735CHOL    R4 6626  10.992   4.860   7.407  0.1411  0.2304 -0.0498
  735CHOL    R5 6627  11.159   4.969   7.493  0.1420  0.2091 -0.0255
  735CHOL    C1 6628  11.034   5.228   7.242  0.1698  0.2524  0.0045
  735CHOL    C2 6629  11.035   5.416   7.016  0.1045  0.1264 -0.3260
  736XCA    COO 6630  12.085   5.949   8.419  0.0878 -0.0385  0.0603
  736XCA     C1 6631  11.940   6.178   8.026  0.0985 -0.2617  0.0443
  736XCA     C2 6632  11.871   6.239   7.608 -0.2018  0.0929 -0.1949
  736XCA     C3 6633  11.949   6.240   7.201 -0.0168  0.2446 -0.2498
  736XCA     C4 6634  12.114   6.504   6.971  0.1308 -0.2542 -0.0142
  736XCA     C5 6635  12.634   6.510   6.939  0.1121 -0.0848  0.2171
  736XCA     C6 6636  12.977   6.298   6.994  0.0932 -0.1049 -0.0279
  737PNCE   AM1 6637  11.939   2.573   4.078  0.3949 -0.4046  0.1819
  737PNCE   AM2 6638  12.258   2.672   4.058  0.0231  0.0778  0.0429
  737PNCE   T1A 6639  11.638   2.563   4.314  0.0735  0.2616  0.0862
  737PNCE   C2A 6640  11.522   2.849   4.598  0.4110 -0.2178  0.1682
  737PNCE   C3A 6641  11.391   3.152   4.940 -0.0054 -0.2488 -0.1187
  737PNCE   C1B 6642  12.320   3.141   4.044  0.0345 -0.0014 -0.1152
  737PNCE   C2B 6643  12.437   3.578   4.258  0.1051 -0.4073  0.0031
  737PNCE   C3B 6644  12.334   3.436   4.761 -0.2594 -0.4433 -0.2133
  737PNCE   D4B 6645  12.323   3.484   5.249 -0.6404  0.1605 -0.1229
  737PNCE   C5B 6646  12.446   3.317   5.732 -0.2764 -0.0716 -0.2698
  737PNCE   C6B 6647  12.459   2.975   6.060  0.0757  0.0842 -0.2654
  738PNCE   AM1 6648   6.784  15.625   4.308 -0.0090  0.1211  0.2600
  738PNCE   AM2 6649   7.186  15.519   4.300 -0.1778 -0.0352 -0.2992
  738PNCE   T1A 6650   6.718  15.594   4.756  0.4416 -0.1099  0.1648
  738PNCE   C2A 6651   6.555  15.850   5.159  0.1594  0.0313  0.0396
  738PNCE   C3A 6652   6.503  16.071   5.627  0.0855 -0.0508 -0.1833
  738PNCE   C1B 6653   7.282  15.237   4.589 -0.0259 -0.0260 -0.3169
  738PNCE   C2B 6654   7.314  14.868   4.769 -0.3327  0.0843 -0.0901
  738PNCE   C3B 6655   7.260  14.774   5.247 -0.3780  0.2043 -0.0968
  738PNCE   D4B 6656   7.048  14.616   5.542  0.0633 -0.0046  0.0165
  738PNCE   C5B 6657   6.691  14.540   5.825  0.1980  0.0995 -0.2137
  738PNCE   C6B 6658   6.315  14.698   5.877 -0.2064 -0.0185 -0.0816
  739CHOL   ROH 6659  14.033   0.612   5.449 -0.0143  0.0019 -0.1002
  739CHOL    R1 6660  14.091   0.778   5.671 -0.0375 -0.1238  0.0019
  739CHOL    R2 6661  14.185   0.679   5.911  0.0351 -0.2515 -0.0750
  739CHOL    R3 6662  14.383   0.860   5.871 -0.0341 -0.1569  0.0092
  739CHOL    R4 6663  14.403   0.791   6.155 -0.0314 -0.2470 -0.0179
  739CHOL    R5 6664  14.386   0.991   6.071 -0.1039 -0.2266  0.0533
  739CHOL    C1 6665  14.716   1.026   6.259 -0.1352 -0.1557  0.0944
  739CHOL    C2 6666  14.873   1.251   6.568  0.0000 -0.0060  0.0271
  740PNCE   AM1 6667  13.412   9.503   4.681  0.2092 -0.3596 -0.0921
  740PNCE   AM2 6668  13.635   9.308   4.558  0.1154  0.4167 -0.1479
  740PNCE   T1A 6669  13.233   9.500   5.119 -0.0696 -0.2143  0.3099
  740PNCE   C2A 6670  13.296   9.764   5.456 -0.1082 -0.3721 -0.2962
  740PNCE   C3A 6671  13.453   9.651   5.940 -0.3220 -0.0153 -0.1831
  740PNCE   C1B 6672  13.818   9.115   4.952  0.1046  0.1280  0.3225
  740PNCE   C2B 6673  13.903   9.031   5.362  0.0246 -0.0939  0.2058
  740PNCE   C3B 6674  14.065   8.997   5.699 -0.2208  0.0667  0.2304
  740PNCE   D4B 6675  14.002   9.298   5.966  0.0334  0.0822  0.0377
  740PNCE   C5B 6676  13.657   9.291   6.281 -0.0080 -0.0186  0.2123
  740PNCE   C6B 6677  13.317   9.362   6.630  0.0653  0.0732  0.2007
  741PNCE   AM1 6678   5.579  11.641   5.819  0.0217 -0.0358 -0.0475
  741PNCE   AM2 6679   5.299  11.588   5.870 -0.0083  0.1870  0.0845
  741PNCE   T1A 6680   5.661  12.065   6.032 -0.1131  0.0277  0.2087
  741PNCE   C2A 6681   5.679  12.501   6.191  0.0810 -0.1564 -0.1046
  741PNCE   C3A 6682   5.524  12.627   6.603  0.0828 -0.0614 -0.1865
  741PNCE   C1B 6683   5.410  11.683   6.280 -0.0801 -0.0275  0.2398
  741PNCE   C2B 6684   5.545  12.026   6.558 -0.0626 -0.0036 -0.1209
  741PNCE   C3B 6685   5.847  12.215   6.662  0.1929 -0.0986 -0.2547
  741PNCE   D4B 6686   6.129  12.250   7.009  0.1067  0.1175  0.0251
  741PNCE   C5B 6687   6.020  12.102   7.360  0.0102 -0.0998  0.4696
  741PNCE   C6B 6688   5.762  11.776   7.615  0.1107  0.1945 -0.0991
  742CHOL   ROH 6689   9.106  11.366   8.801  0.0964  0.2315  0.0454
  742CHOL    R1 6690   8.994  11.330   8.544  0.1118  0.1845  0.0458
  742CHOL    R2 6691   8.774  11.169   8.498  0.1806  0.0953  0.0468
  742CHOL    R3 6692   8.673  11.394   8.384  0.0854  0.0518  0.0422
  742CHOL    R4 6693   8.537  11.174   8.247  0.0932 -0.0126  0.1253
  742CHOL    R5 6694   8.647  11.337   8.153  0.0227  0.0020  0.0587
  742CHOL    C1 6695   8.304  11.389   7.993 -0.0470 -0.1162  0.1667
  742CHOL    C2 6696   8.280  11.146   7.730 -0.0663  0.0428 -0.0222
  743CHOL   ROH 6697   8.631   0.105   6.560  0.2268  0.0808  0.0622
  743CHOL    R1 6698   8.608  -0.021   6.307 -0.0294  0.2018  0.0230
  743CHOL    R2 6699   8.746  -0.251   6.242 -0.0185  0.2909 -0.2604
  743CHOL    R3 6700   8.499  -0.345   6.182 -0.0567  0.2237 -0.0149
  743CHOL    R4 6701   8.683  -0.545   6.072 -0.0937  0.2940 -0.2393
  743CHOL    R5 6702   8.523  -0.442   5.965 -0.2453  0.2646 -0.0621
  743CHOL    C1 6703   8.413  -0.804   5.917 -0.1734  0.2327  0.0035
  743CHOL    C2 6704   8.515  -1.076   5.696 -0.1365 -0.0073  0.3996
  744XCA    COO 6705  15.207   2.000   8.521  0.0517 -0.4742 -0.1580
  744XCA     C1 6706  15.023   2.048   8.027  0.1016 -0.0996 -0.3333
  744XCA     C2 6707  15.203   2.127   7.553  0.2689 -0.3373  0.0404
  744XCA     C3 6708  15.574   1.968   7.412 -0.2484  0.3911  0.2052
  744XCA     C4 6709  15.607   1.697   7.034  0.2343 -0.2281 -0.1629
  744XCA     C5 6710  15.339   1.515   6.718  0.0386  0.3234  0.0490
  744XCA     C6 6711  15.211   1.548   6.291 -0.1106  0.2083  0.1264
  745PNCE   AM1 6712  15.224  14.800   5.348  0.1217 -0.1759  0.2343
  745PNCE   AM2 6713  15.273  14.988   5.086 -0.1408 -0.0820 -0.1146
  745PNCE   T1A 6714  15.282  14.932   5.736  0.2089  0.0567 -0.0123
  745PNCE   C2A 6715  15.250  15.132   6.135  0.2819  0.0834 -0.5812
  745PNCE   C3A 6716  15.023  15.366   6.501 -0.1531 -0.0139  0.0699
  745PNCE   C1B 6717  15.156  15.311   5.440 -0.0433 -0.3147  0.0627
  745PNCE   C2B 6718  15.461  15.449   5.821 -0.3734  0.3118 -0.2586
  745PNCE   C3B 6719  15.796  15.446   6.146  0.0218 -0.0646 -0.0515
  745PNCE   D4B 6720  16.062  15.337   6.528  0.1496  0.1758  0.0954
  745PNCE   C5B 6721  16.132  14.969   6.780  0.2456 -0.2712 -0.1095
  745PNCE   C6B 6722  16.406  14.659   7.107  0.0544  0.2236 -0.1143
  746PNCE   AM1 6723   8.513  10.723   4.609 -0.2700 -0.0415 -0.1405
  746PNCE   AM2 6724   8.370  11.040   4.768 -0.0638  0.5523 -0.2071
  746PNCE   T1A 6725   8.750  10.708   5.120 -0.0623 -0.0926 -0.1664
  746PNCE   C2A 6726   8.594  10.747   5.473 -0.1270  0.1137  0.0819
  746PNCE   C3A 6727   8.332  11.034   5.658 -0.2741 -0.0363 -0.0303
  746PNCE   C1B 6728   8.134  10.927   5.139 -0.2119  0.1903  0.0553
  746PNCE   C2B 6729   8.067  10.650   5.484  0.1077  0.1859 -0.1612
  746PNCE   C3B 6730   8.319  10.515   5.841 -0.0816  0.0207  0.0846
  746PNCE   D4B 6731   8.422  10.398   6.275 -0.4772 -0.1728 -0.0844
  746PNCE   C5B 6732   8.216  10.703   6.527 -0.0428 -0.0065  0.1311
  746PNCE   C6B 6733   8.253  11.184   6.467  0.2731 -0.2969 -0.1000
  747XCA    COO 6734   7.630   5.240   4.281  0.3247  0.1810  0.0373
  747XCA     C1 6735   7.652   5.391   4.779  0.1114  0.1811 -0.1462
  747XCA     C2 6736   7.821   5.172   5.196 -0.2189 -0.1484  0.0730
  747XCA     C3 6737   8.221   5.078   5.228  0.1198 -0.0706 -0.1277
  747XCA     C4 6738   8.403   4.656   5.481  0.1475  0.0486  0.0980
  747XCA     C5 6739   8.743   4.503   5.687  0.0617 -0.0159  0.2427
  747XCA     C6 6740   8.991   4.639   5.978  0.1596 -0.0842 -0.1274
  748CHOL   ROH 6741   1.752   9.277   8.826 -0.1540 -0.1369 -0.1109
  748CHOL    R1 6742   1.815   9.373   8.568 -0.1801 -0.0326 -0.0778
  748CHOL    R2 6743   1.809   9.641   8.504 -0.0839 -0.0015  0.0609
  748CHOL    R3 6744   2.064   9.594   8.420 -0.1247 -0.0629 -0.0335
  748CHOL    R4 6745   1.941   9.751   8.204 -0.1273  0.1111  0.0816
  748CHOL    R5 6746   2.042   9.558   8.184 -0.2101  0.0743 -0.0515
  748CHOL    C1 6747   2.257   9.771   7.951 -0.1909  0.1192  0.0052
  748CHOL    C2 6748   2.118   9.973   7.688 -0.0665 -0.2535 -0.1250
  749PNCE   AM1 6749   9.532   9.617   4.710 -0.0088  0.1564  0.0806
  749PNCE   AM2 6750   9.543   9.238   4.604  0.0865 -0.0104 -0.0133
  749PNCE   T1A 6751   9.586   9.428   5.105  0.4092 -0.3747 -0.1060
  749PNCE   C2A 6752   9.617   9.333   5.589  0.1329 -0.0623 -0.1223
  749PNCE   C3A 6753   9.247   9.148   5.935 -0.0163  0.1188  0.0472
  749PNCE   C1B 6754   9.763   9.002   4.900 -0.1486 -0.0822 -0.1552
  749PNCE   C2B 6755  10.003   9.091   5.306 -0.3430  0.2963  0.0537
  749PNCE   C3B 6756  10.473   9.241   5.424 -0.1465  0.1132 -0.0791
  749PNCE   D4B 6757  10.681   9.185   5.899 -0.3856  0.1424  0.0704
  749PNCE   C5B 6758  10.588   8.932   6.191 -0.0299  0.0924  0.0068
  749PNCE   C6B 6759  10.356   8.986   6.592  0.0745  0.1753  0.1267
  750XCA    COO 6760   6.136   5.107   4.463  0.0234  0.4500 -0.1456
  750XCA     C1 6761   6.549   5.252   4.490 -0.0934 -0.3442 -0.0684
  750XCA     C2 6762   6.762   5.411   4.787 -0.1886  0.2675  0.0157
  750XCA     C3 6763   7.102   5.458   4.895  0.1627 -0.3352 -0.0808
  750XCA     C4 6764   7.378   5.577   5.138 -0.2164  0.2258 -0.3309
  750XCA     C5 6765   7.448   5.949   5.471  0.0248 -0.0165 -0.0337
  750XCA     C6 6766   7.727   6.164   5.711  0.0316  0.1758 -0.0018
  751XCA    COO 6767   4.143  11.267   9.559  0.1352 -0.0700  0.1491
  751XCA     C1 6768   3.722  11.085   9.385 -0.0863  0.1324  0.2449
  751XCA     C2 6769   3.694  10.767   9.107  0.1697 -0.2745 -0.0824
  751XCA     C3 6770   3.599  10.435   8.720  0.0187 -0.1745  0.0675
  751XCA     C4 6771   3.213  10.321   8.584  0.1043 -0.2586 -0.0929
  751XCA     C5 6772   3.026   9.937   8.555 -0.0989 -0.0302 -0.0786
  751XCA     C6 6773   3.024   9.666   8.170 -0.1798  0.5559 -0.1607
  752PNCE   AM1 6774   7.216   2.982   4.449  0.0601  0.3703 -0.0244
  752PNCE   AM2 6775   7.255   3.275   4.500  0.3500 -0.1962 -0.1138
  752PNCE   T1A 6776   7.230   2.726   4.795  0.2862  0.2663 -0.3230
  752PNCE   C2A 6777   7.506   2.703   5.067  0.0703 -0.0902 -0.2177
  752PNCE   C3A 6778   7.585   2.828   5.503 -0.0961  0.1276  0.4171
  752PNCE   C1B 6779   7.061   3.485   4.806 -0.1501 -0.1762  0.2067
  752PNCE   C2B 6780   6.910   3.506   5.193 -0.0455 -0.1034 -0.0418
  752PNCE   C3B 6781   6.736   3.784   5.468  0.0350 -0.1262  0.0795
  752PNCE   D4B 6782   6.509   3.825   5.884 -0.0056 -0.0829  0.0752
  752PNCE   C5B 6783   6.505   3.456   6.050 -0.2129  0.3905  0.2432
  752PNCE   C6B 6784   6.579   3.038   6.145  0.1468  0.2122 -0.0482
  753PNCE   AM1 6785  14.879  10.442   4.129  0.2938 -0.0548  0.0799
  753PNCE   AM2 6786  14.656  10.533   4.370 -0.0786 -0.3871 -0.1785
  753PNCE   T1A 6787  14.626  10.001   4.247 -0.1731 -0.0944 -0.1690
  753PNCE   C2A 6788  14.714   9.652   4.575 -0.0092  0.0230  0.1306
  753PNCE   C3A 6789  14.752   9.505   5.017 -0.1733 -0.0432  0.0938
  753PNCE   C1B 6790  14.761  10.522   4.901  0.1276  0.0570  0.0293
  753PNCE   C2B 6791  15.037  10.305   5.257 -0.1468  0.1062  0.0639
  753PNCE   C3B 6792  14.943  10.260   5.689  0.0372 -0.2438 -0.2679
  753PNCE   D4B 6793  14.916  10.309   6.175 -0.1627  0.0600 -0.3285
  753PNCE   C5B 6794  15.204  10.659   6.452  0.1160 -0.0582  0.0849
  753PNCE   C6B 6795  15.066  11.117   6.454  0.2985  0.1609  0.2497
  754XCA    COO 6796   4.748  10.736   5.903 -0.0591  0.1924  0.1909
  754XCA     C1 6797   4.520  11.040   6.184 -0.0194  0.0243  0.1310
  754XCA     C2 6798   4.304  11.349   6.326  0.1049  0.3090  0.1580
  754XCA     C3 6799   4.120  11.635   6.522 -0.3003 -0.0543 -0.0260
  754XCA     C4 6800   4.016  11.596   6.863  0.1032 -0.1357  0.3620
  754XCA     C5 6801   4.286  11.637   7.214 -0.3453  0.0118  0.0344
  754XCA     C6 6802   4.527  11.339   7.307  0.1621 -0.0566  0.0563
  755PNCE   AM1 6803   9.328   8.402   4.478 -0.1583  0.2089 -0.1333
  755PNCE   AM2 6804   9.465   8.650   4.568  0.2322 -0.0320 -0.0981
  755PNCE   T1A 6805   9.226   8.147   4.834 -0.1152  0.0371  0.2720
  755PNCE   C2A 6806   8.876   8.162   5.001  0.4277 -0.2049 -0.0729
  755PNCE   C3A 6807   8.435   8.366   5.189  0.1306 -0.0200  0.1373
  755PNCE   C1B 6808   9.495   8.514   4.993 -0.3332  0.1028 -0.1006
  755PNCE   C2B 6809   9.300   8.428   5.343  0.0724  0.3418 -0.2432
  755PNCE   C3B 6810   8.912   8.208   5.472 -0.2871 -0.0069 -0.0122
  755PNCE   D4B 6811   8.764   8.012   5.937  0.1755  0.2974 -0.2430
  755PNCE   C5B 6812   8.289   8.019   6.036 -0.0515  0.1155 -0.1619
  755PNCE   C6B 6813   7.988   8.006   6.306  0.0094 -0.1700 -0.0223
  756CHOL   ROH 6814  15.061   7.206   8.160  0.0195 -0.0810  0.0201
  756CHOL    R1 6815  14.996   7.149   7.890 -0.0738 -0.0595  0.0368
  756CHOL    R2 6816  14.736   7.131   7.800 -0.1093  0.1827  0.0745
  756CHOL    R3 6817  14.819   7.317   7.620  0.0520  0.0765  0.0385
  756CHOL    R4 6818  14.588   7.188   7.493 -0.0313  0.2285  0.0459
  756CHOL    R5 6819  14.787   7.212   7.407 -0.0067  0.0544  0.0607
  756CHOL    C1 6820  14.581   7.396   7.145  0.1656  0.1556 -0.0047
  756CHOL    C2 6821  14.402   7.210   6.868 -0.0888  0.1451  0.1802
  757CHOL   ROH 6822  13.851   9.210   7.945 -0.2639  0.0745 -0.1176
  757CHOL    R1 6823  14.026   9.148   7.732 -0.2086  0.0129 -0.0545
  757CHOL    R2 6824  13.953   9.174   7.466 -0.1172 -0.0006 -0.0805
  757CHOL    R3 6825  14.178   9.326   7.453 -0.0796 -0.0513 -0.0263
  757CHOL    R4 6826  14.158   9.200   7.189  0.0082 -0.1255 -0.0007
  757CHOL    R5 6827  14.330   9.195   7.323 -0.0497 -0.1231  0.0772
  757CHOL    C1 6828  14.488   9.357   7.015  0.1166 -0.2459  0.0966
  757CHOL    C2 6829  14.664   9.361   6.741 -0.0061  0.0266  0.1388
  758CHOL   ROH 6830   3.643   3.116   7.798  0.0187  0.1365 -0.0722
  758CHOL    R1 6831   3.416   2.982   7.695  0.0323  0.0808 -0.0294
  758CHOL    R2 6832   3.285   2.782   7.834  0.0129  0.1589  0.0640
  758CHOL    R3 6833   3.068   2.940   7.792  0.0184  0.1370 -0.0538
  758CHOL    R4 6834   2.957   2.673   7.837  0.0017  0.1934  0.2606
  758CHOL    R5 6835   2.917   2.803   7.667 -0.0261  0.0159  0.1287
  758CHOL    C1 6836   2.562   2.758   7.799  0.0004  0.1929  0.2646
  758CHOL    C2 6837   2.455   2.832   8.145  0.0020 -0.0761 -0.1297
  759CHOL   ROH 6838  14.554  15.230   8.601 -0.1835  0.2564 -0.0536
  759CHOL    R1 6839  14.655  15.261   8.338 -0.2144  0.2112 -0.0707
  759CHOL    R2 6840  14.756  15.050   8.191 -0.0669  0.2166  0.0227
  759CHOL    R3 6841  14.574  15.134   8.007 -0.1339  0.0034 -0.0122
  759CHOL    R4 6842  14.804  15.044   7.849 -0.0774  0.0848  0.0226
  759CHOL    R5 6843  14.706  15.238   7.837 -0.2124  0.0131 -0.0678
  759CHOL    C1 6844  14.661  15.119   7.477 -0.1465 -0.1921 -0.0102
  759CHOL    C2 6845  14.574  14.929   7.124  0.1246  0.0972 -0.0996
  760CHOL   ROH 6846   8.159   7.653   8.012  0.0996  0.0501  0.1257
  760CHOL    R1 6847   8.346   7.516   7.849  0.0421 -0.0120  0.1119
  760CHOL    R2 6848   8.341   7.531   7.573  0.0675  0.0425  0.1153
  760CHOL    R3 6849   8.600   7.606   7.605  0.1038 -0.0934  0.1451
  760CHOL    R4 6850   8.596   7.458   7.352 -0.0293  0.2634 -0.0727
  760CHOL    R5 6851   8.727   7.420   7.522  0.0122 -0.0270 -0.1611
  760CHOL    C1 6852   8.988   7.486   7.253 -0.0514  0.2644 -0.1541
  760CHOL    C2 6853   9.213   7.519   6.986  0.0071  0.4013  0.1922
  761CHOL   ROH 6854   1.142   0.712   5.712 -0.0845  0.2709 -0.1129
  761CHOL    R1 6855   1.186   0.685   5.991  0.0005 -0.0178 -0.1508
  761CHOL    R2 6856   1.427   0.747   6.110  0.0230 -0.0908 -0.1503
  761CHOL    R3 6857   1.272   0.904   6.268  0.0295 -0.2920  0.0609
  761CHOL    R4 6858   1.535   0.905   6.398  0.1573 -0.0985 -0.1967
  761CHOL    R5 6859   1.344   0.854   6.491  0.2933 -0.3086 -0.0269
  761CHOL    C1 6860   1.452   1.145   6.714  0.2416 -0.2919 -0.0254
  761CHOL    C2 6861   1.819   1.220   6.883 -0.0149  0.0237 -0.3353
  762PNCE   AM1 6862   5.053   4.540   4.026 -0.0838  0.0111 -0.2879
  762PNCE   AM2 6863   4.704   4.343   3.960 -0.2085 -0.1675  0.0710
  762PNCE   T1A 6864   5.225   4.128   4.083 -0.0002 -0.0498  0.0526
  762PNCE   C2A 6865   5.646   4.063   4.333  0.0884  0.4231  0.3028
  762PNCE   C3A 6866   6.000   3.937   4.460  0.0980  0.4863  0.2276
  762PNCE   C1B 6867   4.812   4.343   4.393 -0.1177  0.0883 -0.1582
  762PNCE   C2B 6868   4.627   3.949   4.660 -0.0288  0.1869 -0.0619
  762PNCE   C3B 6869   4.372   3.903   5.008  0.3163  0.0348  0.0986
  762PNCE   D4B 6870   4.156   3.708   5.369 -0.0185  0.1249 -0.0772
  762PNCE   C5B 6871   4.403   3.361   5.520  0.1472 -0.0436  0.2427
  762PNCE   C6B 6872   4.623   3.000   5.325  0.0971 -0.0927  0.0703
  763PNCE   AM1 6873   2.303  10.882   5.384 -0.3090  0.2548  0.3523
  763PNCE   AM2 6874   2.033  10.992   5.185 -0.1254 -0.0534 -0.1085
  763PNCE   T1A 6875   2.235  10.867   5.838  0.0493  0.0045  0.1012
  763PNCE   C2A 6876   2.352  11.018   6.217  0.2005  0.1014 -0.1633
  763PNCE   C3A 6877   2.236  11.129   6.661 -0.0643  0.1629 -0.2288
  763PNCE   C1B 6878   1.942  11.198   5.603  0.0485 -0.1597  0.1661
  763PNCE   C2B 6879   1.828  11.093   5.921  0.0359 -0.2401 -0.0776
  763PNCE   C3B 6880   1.856  11.068   6.307 -0.2782  0.1320  0.0683
  763PNCE   D4B 6881   1.594  11.180   6.616 -0.2942  0.4794  0.0964
  763PNCE   C5B 6882   1.457  11.563   6.695  0.1960  0.0677  0.3610
  763PNCE   C6B 6883   1.166  11.898   6.795  0.4778 -0.1908  0.0769
  764CHOL   ROH 6884   8.889   0.819   8.307 -0.0962  0.1981 -0.0822
  764CHOL    R1 6885   8.831   0.795   8.032  0.3261  0.2284 -0.1829
  764CHOL    R2 6886   9.026   0.745   7.842  0.5643 -0.3319  0.1680
  764CHOL    R3 6887   8.864   0.537   7.776  0.1562  0.0270 -0.0017
  764CHOL    R4 6888   9.014   0.594   7.531  0.4776 -0.2600  0.1379
  764CHOL    R5 6889   8.797   0.582   7.551  0.4336  0.2089 -0.0441
  764CHOL    C1 6890   8.855   0.311   7.289  0.0441  0.1188 -0.0389
  764CHOL    C2 6891   8.861   0.317   6.856 -0.2576  0.3094 -0.1120
  765PNCE   AM1 6892   9.226   6.198   4.695 -0.0400  0.0066  0.2704
  765PNCE   AM2 6893   8.858   6.125   4.619  0.3314 -0.3305  0.1315
  765PNCE   T1A 6894   9.236   6.171   5.054  0.0401  0.2800  0.0080
  765PNCE   C2A 6895   9.215   6.396   5.352 -0.2389 -0.0679  0.0145
  765PNCE   C3A 6896   9.133   6.751   5.599  0.0751  0.0618 -0.0662
  765PNCE   C1B 6897   8.649   6.398   4.904 -0.1648  0.1880 -0.0858
  765PNCE   C2B 6898   8.722   6.369   5.335  0.2637 -0.0880 -0.1879
  765PNCE   C3B 6899   8.802   6.339   5.694  0.0363  0.3721  0.2886
  765PNCE   D4B 6900   8.765   6.226   6.020 -0.2702  0.0808  0.1353
  765PNCE   C5B 6901   8.324   6.219   6.277 -0.3217 -0.1276 -0.1705
  765PNCE   C6B 6902   8.003   6.265   6.085 -0.0055  0.2916 -0.2634
  766PNCE   AM1 6903  14.930   8.138   4.442  0.0214  0.0946  0.1824
  766PNCE   AM2 6904  14.725   7.821   4.520  0.0732 -0.1980  0.0138
  766PNCE   T1A 6905  15.196   7.962   4.732  0.2352 -0.0747  0.3249
  766PNCE   C2A 6906  15.189   7.943   5.150  0.0439 -0.0659 -0.1093
  766PNCE   C3A 6907  15.281   7.911   5.612 -0.1469  0.1240  0.1059
  766PNCE   C1B 6908  14.469   7.817   4.935  0.3126  0.0641 -0.1280
  766PNCE   C2B 6909  14.406   7.605   5.225  0.3707 -0.1383  0.2235
  766PNCE   C3B 6910  14.500   7.523   5.640  0.1565  0.1855  0.1704
  766PNCE   D4B 6911  14.218   7.396   5.972 -0.1402 -0.0629 -0.0507
  766PNCE   C5B 6912  14.442   7.207   6.324 -0.1668  0.3108  0.0050
  766PNCE   C6B 6913  14.806   6.970   6.526  0.2507 -0.2300 -0.3116
  767CHOL   ROH 6914  13.583  13.825   5.708 -0.1066 -0.0844 -0.0312
  767CHOL    R1 6915  13.646  13.768   5.978 -0.1650 -0.0526 -0.0103
  767CHOL    R2 6916  13.883  13.849   6.095 -0.0891 -0.2296 -0.0327
  767CHOL    R3 6917  13.716  13.960   6.279  0.0051 -0.0121 -0.0749
  767CHOL    R4 6918  13.961  13.902   6.428 -0.0637 -0.2044 -0.0427
  767CHOL    R5 6919  13.759  13.838   6.480 -0.1279  0.0068 -0.0359
  767CHOL    C1 6920  13.850  14.036   6.794  0.0396  0.0144 -0.0881
  767CHOL    C2 6921  13.874  14.021   7.294 -0.0207  0.1031  0.1592
  768XCA    COO 6922   9.582  15.627   4.481 -0.0908 -0.2974  0.4415
  768XCA     C1 6923   9.574  15.848   4.898 -0.3660  0.2176 -0.1975
  768XCA     C2 6924   9.580  16.026   5.289 -0.2003  0.2023  0.0112
  768XCA     C3 6925   9.763  16.097   5.774 -0.0642 -0.0245 -0.2010
  768XCA     C4 6926   9.851  16.275   6.055 -0.0762  0.2517 -0.0146
  768XCA     C5 6927   9.917  16.475   6.472 -0.2266 -0.0125 -0.0632
  768XCA     C6 6928   9.852  16.877   6.616  0.0184 -0.0773  0.1496
  769XCA    COO 6929   6.394   7.032   4.465 -0.1011 -0.0601  0.0929
  769XCA     C1 6930   6.242   7.157   4.889  0.1707  0.2810 -0.4476
  769XCA     C2 6931   6.505   7.168   5.265 -0.2356 -0.0737 -0.2465
  769XCA     C3 6932   6.480   7.203   5.674  0.2132 -0.0252 -0.1469
  769XCA     C4 6933   6.153   7.118   5.988  0.1565  0.4031  0.0571
  769XCA     C5 6934   5.925   7.274   6.333  0.1296 -0.2823  0.0742
  769XCA     C6 6935   5.618   7.146   6.573 -0.0003 -0.1181  0.0133
  770PNCE   AM1 6936   0.480   9.646   4.821  0.0645  0.3484 -0.1569
  770PNCE   AM2 6937   0.597   9.843   4.697  0.0236 -0.0821 -0.0456
  770PNCE   T1A 6938   0.505   9.332   5.145 -0.0617  0.0160 -0.1937
  770PNCE   C2A 6939   0.480   9.101   5.545 -0.2525 -0.1779 -0.2576
  770PNCE   C3A 6940   0.466   8.771   5.796  0.0517  0.0170 -0.0326
  770PNCE   C1B 6941   0.772   9.826   5.135  0.1491  0.0011  0.0640
  770PNCE   C2B 6942   0.713  10.129   5.467  0.4365  0.1415 -0.1532
  770PNCE   C3B 6943   0.696  10.125   5.899 -0.1367  0.1041  0.1981
  770PNCE   D4B 6944   0.945   9.770   6.067  0.5739  0.1856  0.3341
  770PNCE   C5B 6945   0.883   9.576   6.484  0.1472  0.3061  0.0758
  770PNCE   C6B 6946   0.756   9.520   6.861 -0.1061  0.0837  0.1210
  771PNCE   AM1 6947   5.202  14.675   5.363 -0.0245 -0.0652 -0.0648
  771PNCE   AM2 6948   4.908  14.686   5.248  0.1972  0.0429  0.0971
  771PNCE   T1A 6949   5.098  14.836   5.690 -0.1399 -0.0355 -0.0918
  771PNCE   C2A 6950   5.050  14.877   6.131 -0.1068 -0.1880 -0.3152
  771PNCE   C3A 6951   4.949  14.920   6.564 -0.0128 -0.0802 -0.2646
  771PNCE   C1B 6952   4.707  15.082   5.541  0.0819  0.0223 -0.3521
  771PNCE   C2B 6953   4.681  15.155   5.997 -0.0986  0.1618  0.0842
  771PNCE   C3B 6954   4.553  15.308   6.415  0.2902 -0.1948  0.4332
  771PNCE   D4B 6955   4.377  15.464   6.924  0.2134  0.1863 -0.0899
  771PNCE   C5B 6956   4.701  15.601   7.151  0.1908  0.0272  0.2353
  771PNCE   C6B 6957   5.227  15.585   7.249 -0.0409 -0.0065  0.0541
  772CHOL   ROH 6958  11.339  10.525   6.670  0.0419  0.1067 -0.0645
  772CHOL    R1 6959  11.403  10.800   6.664  0.0919  0.0949 -0.0896
  772CHOL    R2 6960  11.304  10.980   6.849  0.1259  0.1305 -0.1037
  772CHOL    R3 6961  11.567  11.038   6.885  0.1371  0.0840 -0.1118
  772CHOL    R4 6962  11.430  11.297   6.904  0.1987  0.1223 -0.2215
  772CHOL    R5 6963  11.598  11.248   6.773  0.1937  0.0320 -0.1918
  772CHOL    C1 6964  11.751  11.536   6.971  0.2517  0.0739 -0.2977
  772CHOL    C2 6965  11.929  11.830   6.831  0.0489 -0.2850 -0.0496
  773PNCE   AM1 6966  13.921  10.404   4.921  0.1448  0.0219  0.1420
  773PNCE   AM2 6967  14.045  10.351   4.689  0.1878  0.2151  0.2456
  773PNCE   T1A 6968  14.305  10.568   5.074  0.7372 -0.1512  0.0755
  773PNCE   C2A 6969  14.617  10.641   5.350  0.0620 -0.1555 -0.2900
  773PNCE   C3A 6970  14.914  10.742   5.567 -0.3165 -0.2640  0.2810
  773PNCE   C1B 6971  14.378  10.178   4.817 -0.2298  0.0335  0.1937
  773PNCE   C2B 6972  14.696  10.013   5.093 -0.2431  0.1898 -0.1513
  773PNCE   C3B 6973  14.755   9.877   5.400  0.0890  0.0159 -0.0151
  773PNCE   D4B 6974  14.824   9.537   5.710  0.1612  0.0671  0.0198
  773PNCE   C5B 6975  15.210   9.326   5.912 -0.1669 -0.0893 -0.1229
  773PNCE   C6B 6976  15.506   9.342   6.225 -0.2106 -0.0861  0.1432
  774CHOL   ROH 6977   9.012  12.662   5.481 -0.4225 -0.1850  0.3007
  774CHOL    R1 6978   9.184  12.732   5.695 -0.2539 -0.1633  0.1594
  774CHOL    R2 6979   9.324  12.543   5.840 -0.1132 -0.1446  0.0463
  774CHOL    R3 6980   9.538  12.696   5.772 -0.1839 -0.1210 -0.1294
  774CHOL    R4 6981   9.599  12.600   6.042 -0.0859  0.1194 -0.0600
  774CHOL    R5 6982   9.599  12.807   5.975 -0.1769  0.0681 -0.2310
  774CHOL    C1 6983   9.960  12.776   6.096 -0.1364  0.2952 -0.2867
  774CHOL    C2 6984  10.365  12.823   6.258  0.0960  0.2598  0.2096
  775CHOL   ROH 6985   2.305   5.875   5.077 -0.0929 -0.1175 -0.0677
  775CHOL    R1 6986   2.368   5.864   5.353 -0.0795 -0.1424 -0.0731
  775CHOL    R2 6987   2.601   5.750   5.447 -0.0237 -0.0399 -0.1070
  775CHOL    R3 6988   2.631   5.991   5.569 -0.1394 -0.0524 -0.0489
  775CHOL    R4 6989   2.765   5.800   5.747  0.1341 -0.0213 -0.1944
  775CHOL    R5 6990   2.610   5.943   5.803  0.0473 -0.1578 -0.0452
  775CHOL    C1 6991   2.890   6.056   6.036  0.1173 -0.0221 -0.1907
  775CHOL    C2 6992   3.088   5.962   6.421 -0.1282 -0.1333  0.2627
  776CHOL   ROH 6993   8.791   7.686   4.851  0.0817 -0.0310 -0.1636
  776CHOL    R1 6994   8.944   7.607   5.076  0.0954  0.1299 -0.1146
  776CHOL    R2 6995   9.171   7.742   5.157 -0.0204  0.3182 -0.0938
  776CHOL    R3 6996   9.040   7.753   5.395 -0.0809  0.2703 -0.1250
  776CHOL    R4 6997   9.289   7.900   5.441 -0.0964  0.2595 -0.0293
  776CHOL    R5 6998   9.214   7.733   5.559 -0.1259  0.2376 -0.0834
  776CHOL    C1 6999   9.236   8.001   5.830 -0.1973  0.1804 -0.0209
  776CHOL    C2 7000   9.215   8.348   5.825 -0.0626 -0.3221  0.0034
  777CHOL   ROH 7001  10.397   7.394   7.899 -0.1117 -0.0585 -0.0770
  777CHOL    R1 7002  10.259   7.418   7.653 -0.1498 -0.0660 -0.0558
  777CHOL    R2 7003  10.387   7.477   7.416 -0.2054  0.0570 -0.0523
  777CHOL    R3 7004  10.264   7.251   7.330 -0.1020  0.0174 -0.0994
  777CHOL    R4 7005  10.379   7.370   7.087  0.0116  0.0221 -0.0486
  777CHOL    R5 7006  10.171   7.311   7.117  0.0052 -0.0251 -0.1616
  777CHOL    C1 7007  10.259   7.095   6.815  0.2349 -0.0354 -0.0905
  777CHOL    C2 7008  10.338   7.020   6.507 -0.1738 -0.1239 -0.2789
  778PNCE   AM1 7009  14.733   2.951   4.307 -0.1119 -0.2537  0.1619
  778PNCE   AM2 7010  14.566   3.245   4.289 -0.1145 -0.2292 -0.3705
  778PNCE   T1A 7011  14.629   2.796   4.741  0.2678  0.0463  0.0438
  778PNCE   C2A 7012  14.386   2.599   5.134 -0.0105 -0.1171 -0.1069
  778PNCE   C3A 7013  14.384   2.741   5.539  0.1131  0.1018  0.3362
  778PNCE   C1B 7014  14.595   3.268   4.739  0.1270  0.0267 -0.3299
  778PNCE   C2B 7015  14.315   3.132   5.124  0.0147 -0.2074  0.1360
  778PNCE   C3B 7016  13.923   3.106   5.378  0.2082  0.0263  0.0843
  778PNCE   D4B 7017  13.612   2.996   5.515  0.3853 -0.2896 -0.3054
  778PNCE   C5B 7018  13.638   2.954   5.923 -0.1452  0.2514 -0.2745
  778PNCE   C6B 7019  13.933   2.888   6.232 -0.0159  0.0661 -0.0212
  779XCA    COO 7020   1.382   0.617   9.321 -0.0128 -0.0612 -0.1469
  779XCA     C1 7021   1.436   0.572   8.882  0.0812 -0.0788  0.1827
  779XCA     C2 7022   1.635   0.842   8.503  0.0335 -0.0631  0.0599
  779XCA     C3 7023   1.882   0.841   8.080 -0.2445 -0.1951 -0.1653
  779XCA     C4 7024   1.742   0.983   7.667  0.3241  0.1706  0.1501
  779XCA     C5 7025   1.670   0.883   7.245  0.1084 -0.0151  0.0339
  779XCA     C6 7026   1.319   0.780   6.947  0.2863  0.1564 -0.1254
  780PNCE   AM1 7027   5.564   1.648   3.775 -0.0441 -0.2451  0.2365
  780PNCE   AM2 7028   5.615   1.343   3.863  0.0187 -0.0206  0.1015
  780PNCE   T1A 7029   5.479   1.989   4.057 -0.2149 -0.1764 -0.1219
  780PNCE   C2A 7030   5.491   2.149   4.547  0.1285  0.0357  0.1553
  780PNCE   C3A 7031   5.745   2.165   4.940  0.0794  0.4103  0.1792
  780PNCE   C1B 7032   5.426   1.255   4.223 -0.0285  0.1707 -0.4671
  780PNCE   C2B 7033   5.832   1.155   4.382 -0.4238 -0.0129 -0.0369
  780PNCE   C3B 7034   6.024   1.331   4.798  0.3497  0.3327  0.0294
  780PNCE   D4B 7035   6.439   1.397   4.818  0.3766 -0.2318  0.0984
  780PNCE   C5B 7036   6.515   1.188   5.245 -0.0182  0.0220 -0.0178
  780PNCE   C6B 7037   6.415   1.213   5.664 -0.0861 -0.0404  0.1720
  781PNCE   AM1 7038  11.048   5.274   4.334 -0.3315 -0.0015  0.0245
  781PNCE   AM2 7039  10.735   5.454   4.389  0.0317 -0.0509  0.0408
  781PNCE   T1A 7040  11.162   5.515   4.716 -0.2627  0.0593  0.0022
  781PNCE   C2A 7041  11.379   5.619   5.141 -0.0942  0.2641 -0.1320
  781PNCE   C3A 7042  11.644   5.747   5.458 -0.2202 -0.0726 -0.0271
  781PNCE   C1B 7043  10.655   5.647   4.789  0.1462  0.0883  0.0265
  781PNCE   C2B 7044  10.700   5.952   5.077  0.0063  0.2622  0.0577
  781PNCE   C3B 7045  10.751   5.925   5.492  0.1232  0.2617  0.2269
  781PNCE   D4B 7046  10.730   5.684   5.877  0.1089 -0.1447  0.0870
  781PNCE   C5B 7047  10.992   5.766   6.246  0.0170 -0.0173 -0.3900
  781PNCE   C6B 7048  11.050   5.761   6.704  0.0978 -0.0511  0.3475
  782PNCE   AM1 7049  15.665   9.686   4.904  0.1906  0.1213 -0.0716
  782PNCE   AM2 7050  15.744   9.405   4.771 -0.2262  0.0615 -0.0575
  782PNCE   T1A 7051  15.816   9.624   5.320 -0.1190 -0.1917  0.3147
  782PNCE   C2A 7052  16.276   9.637   5.621  0.0920 -0.1533 -0.0800
  782PNCE   C3A 7053  16.636   9.597   5.535 -0.1254  0.0142  0.4340
  782PNCE   C1B 7054  15.807   9.144   5.207  0.1054 -0.1715  0.0525
  782PNCE   C2B 7055  15.808   8.763   5.455  0.0303 -0.2773  0.0529
  782PNCE   C3B 7056  16.140   8.357   5.509  0.0088 -0.1078 -0.0140
  782PNCE   D4B 7057  16.345   8.095   5.669  0.0501 -0.2931 -0.1025
  782PNCE   C5B 7058  16.246   7.829   5.371 -0.0078 -0.1141  0.1168
  782PNCE   C6B 7059  16.036   7.481   5.408  0.3034  0.0315 -0.0953
  783PNCE   AM1 7060   4.716  13.643   5.416  0.2340 -0.2199 -0.0185
  783PNCE   AM2 7061   5.081  13.723   5.293  0.0631  0.0758  0.1602
  783PNCE   T1A 7062   4.530  13.612   5.692  0.4044  0.3762 -0.0503
  783PNCE   C2A 7063   4.438  13.538   6.078 -0.2263  0.2801  0.1551
  783PNCE   C3A 7064   4.445  13.667   6.467 -0.0448  0.2818 -0.1391
  783PNCE   C1B 7065   5.232  13.918   5.747  0.3670  0.2475  0.1629
  783PNCE   C2B 7066   5.543  14.069   6.023  0.1172 -0.2334  0.1365
  783PNCE   C3B 7067   5.922  13.994   6.293  0.0891  0.2703  0.1339
  783PNCE   D4B 7068   6.300  14.041   6.513  0.0571  0.2121 -0.1719
  783PNCE   C5B 7069   6.620  14.317   6.650  0.1455 -0.0505  0.3952
  783PNCE   C6B 7070   6.978  14.475   6.502  0.0817 -0.1180 -0.0311
  784CHOL   ROH 7071   5.231  13.734   6.919  0.1771  0.0981  0.1764
  784CHOL    R1 7072   4.964  13.712   7.010  0.1279  0.0521  0.0250
  784CHOL    R2 7073   4.787  13.524   6.910  0.2775 -0.1162  0.0685
  784CHOL    R3 7074   4.760  13.457   7.172  0.1443  0.0927  0.1095
  784CHOL    R4 7075   4.538  13.321   7.037  0.2638 -0.0849  0.0907
  784CHOL    R5 7076   4.523  13.455   7.208  0.1234  0.0535 -0.0277
  784CHOL    C1 7077   4.367  13.140   7.357  0.1306  0.1295  0.1421
  784CHOL    C2 7078   4.376  12.855   7.599 -0.1410 -0.2540 -0.0625
  785PNCE   AM1 7079   2.884   8.565   4.868  0.2041  0.1586  0.1239
  785PNCE   AM2 7080   3.105   8.929   4.888 -0.3007  0.0084  0.1438
  785PNCE   T1A 7081   2.730   8.250   5.239 -0.0963  0.2429  0.3405
  785PNCE   C2A 7082   2.854   8.134   5.625 -0.2218 -0.1770 -0.1520
  785PNCE   C3A 7083   3.025   8.198   5.912  0.2100  0.2517 -0.1579
  785PNCE   C1B 7084   2.938   8.801   5.279 -0.1387 -0.1351 -0.4837
  785PNCE   C2B 7085   2.776   8.613   5.643 -0.0100 -0.2280 -0.0988
  785PNCE   C3B 7086   2.672   8.516   6.028  0.2686  0.0109  0.1449
  785PNCE   D4B 7087   2.504   8.593   6.418 -0.1037  0.0106  0.1025
  785PNCE   C5B 7088   2.444   8.984   6.649 -0.0164  0.3012 -0.1966
  785PNCE   C6B 7089   2.280   9.319   6.859 -0.1058  0.4592 -0.0950
  786XCA    COO 7090   9.187   3.154   3.843  0.1431 -0.1924 -0.0424
  786XCA     C1 7091   8.906   3.296   4.235  0.0763  0.2430 -0.5471
  786XCA     C2 7092   8.597   3.182   4.662 -0.0466 -0.0270 -0.1766
  786XCA     C3 7093   8.618   3.401   5.078  0.0408  0.0008 -0.2238
  786XCA     C4 7094   8.539   3.636   5.456 -0.1678 -0.0942  0.2061
  786XCA     C5 7095   8.096   3.686   5.699  0.2842 -0.2419 -0.1924
  786XCA     C6 7096   8.072   3.495   6.135  0.0325 -0.2612 -0.0509
  787CHOL   ROH 7097   1.966  13.001   6.836 -0.0086 -0.0431  0.2399
  787CHOL    R1 7098   2.087  13.227   6.716  0.0040 -0.0772  0.1882
  787CHOL    R2 7099   1.951  13.395   6.545  0.0260 -0.1344  0.1113
  787CHOL    R3 7100   2.037  13.587   6.718 -0.0086 -0.0782  0.0662
  787CHOL    R4 7101   1.954  13.734   6.478 -0.0169 -0.1502  0.0289
  787CHOL    R5 7102   2.147  13.747   6.578 -0.0250 -0.0977  0.0334
  787CHOL    C1 7103   2.036  14.112   6.600 -0.0743 -0.1067 -0.0614
  787CHOL    C2 7104   2.042  14.529   6.676 -0.0948 -0.0337  0.1667
  788CHOL   ROH 7105  11.134   0.734   4.710 -0.2070 -0.2098  0.1030
  788CHOL    R1 7106  11.292   0.726   4.944 -0.1639 -0.0101  0.0818
  788CHOL    R2 7107  11.358   0.954   5.087 -0.3300  0.0864  0.0043
  788CHOL    R3 7108  11.250   0.815   5.294 -0.1826  0.0577  0.0631
  788CHOL    R4 7109  11.445   0.994   5.419  0.0176 -0.0627 -0.0642
  788CHOL    R5 7110  11.434   0.778   5.444 -0.0455 -0.0690 -0.1297
  788CHOL    C1 7111  11.395   0.887   5.807  0.3583 -0.1765 -0.0489
  788CHOL    C2 7112  11.685   1.027   6.078 -0.3565  0.0729 -0.1401
  789XCA    COO 7113  12.459   9.828   4.613 -0.0480 -0.0029  0.2314
  789XCA     C1 7114  12.349   9.647   4.956  0.2661  0.0653 -0.0641
  789XCA     C2 7115  12.332   9.534   5.433  0.2048  0.1691  0.0944
  789XCA     C3 7116  12.527   9.284   5.632 -0.0216  0.1581 -0.1136
  789XCA     C4 7117  12.821   8.996   5.792 -0.2517  0.0712  0.2396
  789XCA     C5 7118  12.837   8.719   6.189 -0.1717  0.2598 -0.0966
  789XCA     C6 7119  12.892   8.357   6.498 -0.0451 -0.1781  0.3262
  790XCA    COO 7120   9.595   3.013   6.134 -0.1504  0.0332 -0.3018
  790XCA     C1 7121   9.725   3.499   6.186 -0.0846 -0.0856 -0.3268
  790XCA     C2 7122   9.536   3.942   6.218  0.1917  0.2374 -0.0180
  790XCA     C3 7123   9.270   4.306   6.350 -0.2899 -0.1708 -0.2358
  790XCA     C4 7124   9.181   4.737   6.519 -0.3234 -0.3081 -0.1105
  790XCA     C5 7125   8.898   4.986   6.817  0.2939  0.0526 -0.2212
  790XCA     C6 7126   8.625   4.915   7.220 -0.0137 -0.0129  0.2599
  791CHOL   ROH 7127   1.684  10.641   5.722 -0.1307  0.2902 -0.1940
  791CHOL    R1 7128   1.560  10.603   5.973 -0.2414  0.3008 -0.2454
  791CHOL    R2 7129   1.683  10.669   6.211 -0.0792 -0.2723 -0.1500
  791CHOL    R3 7130   1.456  10.814   6.251  0.2617  0.2498 -0.0108
  791CHOL    R4 7131   1.510  10.686   6.510 -0.0630 -0.1644 -0.1469
  791CHOL    R5 7132   1.324  10.677   6.397 -0.0881  0.4148 -0.1693
  791CHOL    C1 7133   1.196  10.831   6.722  0.2664  0.3885 -0.0145
  791CHOL    C2 7134   1.001  10.814   7.090  0.2206 -0.0512  0.0087
  792PNCE   AM1 7135   8.277  13.297   5.444 -0.1245  0.1490 -0.0545
  792PNCE   AM2 7136   8.237  13.082   5.561 -0.0821  0.1385  0.0873
  792PNCE   T1A 7137   8.234  13.417   5.864 -0.0160 -0.0029 -0.1510
  792PNCE   C2A 7138   8.382  13.356   6.289 -0.2106 -0.1894  0.4529
  792PNCE   C3A 7139   8.267  13.092   6.543  0.0985  0.1850 -0.0504
  792PNCE   C1B 7140   8.291  12.940   5.883  0.4225  0.2466 -0.0151
  792PNCE   C2B 7141   8.463  12.787   6.199 -0.2266 -0.0049 -0.1045
  792PNCE   C3B 7142   8.671  12.512   6.045  0.0362 -0.0096  0.0301
  792PNCE   D4B 7143   8.908  12.111   6.067  0.3718  0.0976  0.0570
  792PNCE   C5B 7144   8.770  11.946   6.432 -0.0067 -0.0579  0.1414
  792PNCE   C6B 7145   8.796  11.634   6.671 -0.0774  0.2707 -0.1238
  793XCA    COO 7146   2.888  10.218   5.806  0.1224  0.0642  0.2335
  793XCA     C1 7147   3.067   9.870   5.894 -0.0447 -0.1928  0.2137
  793XCA     C2 7148   3.417   9.523   6.040  0.4090  0.0428  0.2054
  793XCA     C3 7149   3.808   9.594   6.264  0.0020 -0.2558 -0.2155
  793XCA     C4 7150   4.142   9.611   6.556  0.0175 -0.0772 -0.3030
  793XCA     C5 7151   4.240   9.244   6.790 -0.0476  0.1120  0.0036
  793XCA     C6 7152   4.485   9.047   7.152 -0.2627  0.1168  0.1325
  794CHOL   ROH 7153   1.956   8.387   7.684  0.2900 -0.0085  0.0736
  794CHOL    R1 7154   2.109   8.618   7.626  0.1393  0.1320  0.2287
  794CHOL    R2 7155   2.029   8.808   7.442  0.2052 -0.0151  0.0578
  794CHOL    R3 7156   2.066   8.978   7.651 -0.2666  0.1029  0.0603
  794CHOL    R4 7157   2.056   9.151   7.415  0.4101 -0.0413 -0.1133
  794CHOL    R5 7158   2.213   9.146   7.565  0.0363 -0.0133  0.3147
  794CHOL    C1 7159   2.107   9.511   7.595  0.0865  0.0542 -0.2106
  794CHOL    C2 7160   2.132   9.681   7.233  0.0666 -0.2918 -0.0237
  795PNCE   AM1 7161   4.515  14.111   5.337  0.1134 -0.3218 -0.0129
  795PNCE   AM2 7162   4.438  14.423   5.338  0.0777  0.3228  0.0728
  795PNCE   T1A 7163   4.760  14.020   5.726  0.0350  0.0354  0.0830
  795PNCE   C2A 7164   4.825  13.890   6.178  0.2192 -0.1048  0.0944
  795PNCE   C3A 7165   4.866  13.877   6.608  0.3211 -0.2905  0.1497
  795PNCE   C1B 7166   4.219  14.405   5.729  0.0679  0.0973  0.1838
  795PNCE   C2B 7167   4.049  14.614   6.008  0.3215  0.3493 -0.1356
  795PNCE   C3B 7168   3.865  14.584   6.380 -0.2394 -0.0290 -0.3734
  795PNCE   D4B 7169   3.746  14.570   6.804  0.1404 -0.0861 -0.3465
  795PNCE   C5B 7170   3.452  14.184   6.911  0.4083 -0.1494 -0.1419
  795PNCE   C6B 7171   3.209  13.925   7.112  0.0661  0.0594 -0.2210
  796XCA    COO 7172   0.575   0.317   5.111 -0.0925 -0.0246  0.3576
  796XCA     C1 7173   0.418   0.417   5.603 -0.2412 -0.1860  0.0688
  796XCA     C2 7174   0.279   0.496   5.979 -0.0217  0.1732 -0.2947
  796XCA     C3 7175   0.372   0.571   6.396 -0.1901  0.0306  0.0045
  796XCA     C4 7176   0.471   0.531   6.835 -0.0538 -0.0818  0.1293
  796XCA     C5 7177   0.458   0.197   7.139  0.1595  0.0013 -0.0845
  796XCA     C6 7178   0.083   0.213   7.436 -0.3074 -0.1887  0.0166
  797XCA    COO 7179   8.166   7.113   4.173  0.1570  0.5210  0.1803
  797XCA     C1 7180   8.248   6.856   4.492  0.2041 -0.1831  0.1983
  797XCA     C2 7181   8.346   6.828   4.951 -0.3818  0.0711  0.1326
  797XCA     C3 7182   8.293   6.758   5.355 -0.1722 -0.0280  0.0272
  797XCA     C4 7183   8.326   6.589   5.787  0.3570  0.2334  0.0564
  797XCA     C5 7184   8.577   6.676   6.171  0.0290  0.1131 -0.1895
  797XCA     C6 7185   8.890   6.691   6.426  0.2460 -0.0008  0.1716
  798PNCE   AM1 7186   7.620  13.435   5.441 -0.1255 -0.3033 -0.1998
  798PNCE   AM2 7187   7.712  13.137   5.420 -0.3877  0.0784  0.2846
  798PNCE   T1A 7188   7.400  13.685   5.818 -0.1739 -0.1520 -0.1126
  798PNCE   C2A 7189   7.289  13.781   6.197 -0.1809  0.0023 -0.3464
  798PNCE   C3A 7190   7.303  14.050   6.518  0.3574 -0.3036  0.1750
  798PNCE   C1B 7191   7.390  13.135   5.818 -0.2987 -0.0334  0.1779
  798PNCE   C2B 7192   7.352  13.286   6.228  0.0659  0.0056 -0.2581
  798PNCE   C3B 7193   7.095  13.169   6.541 -0.0188  0.0746 -0.0414
  798PNCE   D4B 7194   6.922  12.992   6.954  0.0051  0.1249 -0.0906
  798PNCE   C5B 7195   6.848  13.213   7.357 -0.1838  0.2548 -0.0722
  798PNCE   C6B 7196   7.030  13.167   7.723  0.1800 -0.0353  0.3521
  799CHOL   ROH 7197  12.842  12.673   5.818 -0.0194 -0.0504  0.0849
  799CHOL    R1 7198  12.810  12.639   6.097  0.1479 -0.2200  0.0858
  799CHOL    R2 7199  13.009  12.534   6.258  0.3584 -0.0424 -0.0497
  799CHOL    R3 7200  12.971  12.764   6.399  0.1259 -0.1504  0.0685
  799CHOL    R4 7201  13.179  12.619   6.547  0.3047  0.0018 -0.0317
  799CHOL    R5 7202  12.992  12.697   6.628  0.2288 -0.2409  0.0328
  799CHOL    C1 7203  13.242  12.884   6.848  0.0553 -0.0738  0.0899
  799CHOL    C2 7204  13.620  12.673   6.939 -0.0782 -0.0265 -0.2727
  800PNCE   AM1 7205   3.586  15.713   5.373 -0.1292  0.0224  0.1558
  800PNCE   AM2 7206   3.771  15.888   5.161  0.0647 -0.0661 -0.1659
  800PNCE   T1A 7207   3.681  15.556   5.792  0.2149  0.1265 -0.3148
  800PNCE   C2A 7208   3.738  15.505   6.255  0.1521 -0.0192  0.3412
  800PNCE   C3A 7209   4.132  15.591   6.425 -0.1648 -0.1209 -0.1375
  800PNCE   C1B 7210   4.034  15.870   5.594  0.0108 -0.1570  0.0934
  800PNCE   C2B 7211   4.169  15.801   5.985 -0.3854 -0.1952  0.4691
  800PNCE   C3B 7212   4.298  16.026   6.312  0.0230  0.0719 -0.0324
  800PNCE   D4B 7213   4.317  16.304   6.693  0.0856 -0.0812 -0.4489
  800PNCE   C5B 7214   4.545  16.711   6.642 -0.1220 -0.1506  0.0689
  800PNCE   C6B 7215   4.895  16.756   6.380  0.0365 -0.2415  0.0614
  801CHOL   ROH 7216   8.410   8.155   8.356  0.1480  0.0359  0.0704
  801CHOL    R1 7217   8.328   8.174   8.085  0.0376  0.0255  0.1024
  801CHOL    R2 7218   8.505   8.155   7.875 -0.0496  0.0073  0.0301
  801CHOL    R3 7219   8.335   7.960   7.791 -0.0925  0.0103  0.1096
  801CHOL    R4 7220   8.465   8.057   7.546 -0.2650  0.0658  0.0379
  801CHOL    R5 7221   8.250   8.042   7.582 -0.2406  0.0433  0.1812
  801CHOL    C1 7222   8.281   7.817   7.276 -0.4306  0.1027  0.1170
  801CHOL    C2 7223   8.169   7.454   7.056  0.0185  0.1667  0.3380
  802CHOL   ROH 7224   5.093   2.420   6.947 -0.0637  0.2719  0.0446
  802CHOL    R1 7225   4.924   2.214   6.851 -0.0118  0.2143  0.0766
  802CHOL    R2 7226   4.649   2.229   6.867 -0.0176  0.2021 -0.0363
  802CHOL    R3 7227   4.663   2.182   6.599  0.0865  0.0750 -0.0094
  802CHOL    R4 7228   4.389   2.109   6.672  0.1367 -0.1602 -0.0285
  802CHOL    R5 7229   4.532   1.984   6.566  0.2873 -0.0769  0.0677
  802CHOL    C1 7230   4.251   1.996   6.308  0.3242 -0.4905  0.0013
  802CHOL    C2 7231   4.127   1.657   6.431 -0.0750  0.5935  0.0728
  803PNCE   AM1 7232  11.593   8.700   4.346 -0.1866  0.2201 -0.1282
  803PNCE   AM2 7233  11.837   8.779   4.101 -0.1422 -0.2090  0.1769
  803PNCE   T1A 7234  11.571   8.362   4.627 -0.1264 -0.0397  0.1077
  803PNCE   C2A 7235  11.627   8.338   5.106 -0.2108  0.2193 -0.1049
  803PNCE   C3A 7236  11.703   8.218   5.502  0.0960  0.2392  0.0035
  803PNCE   C1B 7237  12.031   8.452   4.313  0.0910  0.1764  0.1586
  803PNCE   C2B 7238  12.098   8.254   4.731 -0.1558  0.0001  0.2457
  803PNCE   C3B 7239  12.099   8.037   5.060  0.2038  0.3436  0.1024
  803PNCE   D4B 7240  12.023   7.893   5.462  0.3166 -0.0841 -0.0965
  803PNCE   C5B 7241  12.104   7.507   5.640  0.0076 -0.0051 -0.0005
  803PNCE   C6B 7242  11.942   7.265   5.913  0.1163  0.2208  0.0480
  804PNCE   AM1 7243  13.606   4.627   3.934 -0.2207 -0.0591  0.1093
  804PNCE   AM2 7244  13.615   4.230   3.953  0.3788 -0.0392  0.0749
  804PNCE   T1A 7245  13.866   4.917   4.121 -0.3221 -0.0675 -0.0487
  804PNCE   C2A 7246  14.151   5.070   4.306  0.0978 -0.2205 -0.0584
  804PNCE   C3A 7247  14.191   5.370   4.729 -0.1239 -0.0100  0.2278
  804PNCE   C1B 7248  13.817   4.517   4.369  0.1020  0.0475 -0.1719
  804PNCE   C2B 7249  13.960   4.680   4.750  0.0846  0.0940 -0.2263
  804PNCE   C3B 7250  13.910   4.880   5.144  0.1175 -0.0372 -0.1568
  804PNCE   D4B 7251  13.813   5.195   5.198 -0.2538 -0.3825 -0.1287
  804PNCE   C5B 7252  13.522   5.434   5.419  0.2572  0.1538 -0.1905
  804PNCE   C6B 7253  13.463   5.795   5.331 -0.1310  0.0730  0.1081
  805XCA    COO 7254   8.629   8.603   8.535  0.1371 -0.1376 -0.1187
  805XCA     C1 7255   8.656   8.546   8.116 -0.0825 -0.4292 -0.0570
  805XCA     C2 7256   8.735   8.555   7.720  0.1270 -0.0722  0.2464
  805XCA     C3 7257   9.036   8.385   7.449 -0.0337 -0.1357 -0.1320
  805XCA     C4 7258   9.476   8.432   7.296  0.1436 -0.1334 -0.1786
  805XCA     C5 7259   9.790   8.649   7.137 -0.3465 -0.0361 -0.1236
  805XCA     C6 7260  10.102   8.626   6.770  0.3146 -0.0692  0.1289
  806PNCE   AM1 7261   6.704  11.003   5.372 -0.0777 -0.0053  0.1729
  806PNCE   AM2 7262   6.565  11.351   5.335  0.0203 -0.0267 -0.0952
  806PNCE   T1A 7263   6.715  10.980   5.731  0.1950 -0.3826  0.1917
  806PNCE   C2A 7264   6.873  10.911   6.180 -0.2061  0.2979  0.0243
  806PNCE   C3A 7265   6.913  10.853   6.726 -0.0631  0.0469 -0.2164
  806PNCE   C1B 7266   6.405  11.680   5.697  0.0040  0.1640  0.1513
  806PNCE   C2B 7267   6.148  11.974   5.904 -0.2276 -0.4788 -0.0293
  806PNCE   C3B 7268   6.184  12.374   6.138  0.1049 -0.1463 -0.0968
  806PNCE   D4B 7269   6.081  12.635   6.480 -0.2367 -0.0322 -0.0768
  806PNCE   C5B 7270   6.177  13.098   6.566  0.1003  0.1251 -0.0982
  806PNCE   C6B 7271   6.160  13.517   6.708  0.2990 -0.1181  0.1951
  807PNCE   AM1 7272   9.904   7.306   4.528 -0.1668  0.1335 -0.1762
  807PNCE   AM2 7273  10.149   7.164   4.547 -0.1444  0.2410 -0.0800
  807PNCE   T1A 7274  10.055   7.577   4.833 -0.0393 -0.2946  0.1360
  807PNCE   C2A 7275  10.083   7.735   5.265  0.0215  0.0168 -0.4762
  807PNCE   C3A 7276  10.124   7.665   5.693 -0.0674  0.2319 -0.3970
  807PNCE   C1B 7277  10.325   7.213   4.936 -0.0523 -0.5145  0.0334
  807PNCE   C2B 7278  10.326   7.308   5.437 -0.3341 -0.0600  0.2970
  807PNCE   C3B 7279  10.470   7.317   5.772 -0.2255  0.0006  0.0184
  807PNCE   D4B 7280  10.320   7.329   6.119 -0.0584 -0.1716 -0.1541
  807PNCE   C5B 7281  10.491   7.648   6.345 -0.2577 -0.0084  0.0749
  807PNCE   C6B 7282  10.753   7.816   6.686  0.0606  0.0579 -0.0230
  808PNCE   AM1 7283  14.979   4.888   4.081 -0.0906 -0.1748 -0.1193
  808PNCE   AM2 7284  14.910   4.485   3.930 -0.2747 -0.0097  0.3372
  808PNCE   T1A 7285  14.616   4.883   4.260 -0.0987 -0.2434  0.0855
  808PNCE   C2A 7286  14.465   4.773   4.607  0.0896 -0.0825 -0.1866
  808PNCE   C3A 7287  14.342   5.004   4.994 -0.0499  0.4773 -0.3202
  808PNCE   C1B 7288  14.700   4.438   4.256  0.0659 -0.0125  0.0112
  808PNCE   C2B 7289  14.833   4.487   4.692  0.1894  0.3375 -0.1555
  808PNCE   C3B 7290  14.851   4.800   4.980  0.0604 -0.2848 -0.0186
  808PNCE   D4B 7291  14.791   5.045   5.404 -0.1687  0.0120 -0.0722
  808PNCE   C5B 7292  14.927   4.805   5.899 -0.4565 -0.0800  0.0095
  808PNCE   C6B 7293  15.137   4.433   5.885  0.2236  0.0965 -0.0218
  809CHOL   ROH 7294  12.552  10.253   6.243 -0.1999  0.2266 -0.0850
  809CHOL    R1 7295  12.357  10.240   6.448 -0.1009  0.2231  0.0081
  809CHOL    R2 7296  12.360  10.409   6.667 -0.0051  0.2290 -0.0028
  809CHOL    R3 7297  12.106  10.463   6.588 -0.0491  0.2125  0.1219
  809CHOL    R4 7298  12.108  10.517   6.877  0.0921  0.2093  0.1271
  809CHOL    R5 7299  11.970  10.386   6.770  0.0462  0.1987  0.1915
  809CHOL    C1 7300  11.722  10.631   6.925  0.1074  0.1822  0.3198
  809CHOL    C2 7301  11.851  10.701   7.302  0.0209  0.1521  0.0713
  810PNCE   AM1 7302   1.342   6.056   4.792 -0.3787 -0.1716 -0.1194
  810PNCE   AM2 7303   1.272   5.755   4.788  0.1077  0.3302 -0.0846
  810PNCE   T1A 7304   1.151   6.288   5.038  0.0570 -0.0076  0.0798
  810PNCE   C2A 7305   0.929   6.486   5.315  0.0246 -0.0936  0.1089
  810PNCE   C3A 7306   0.498   6.559   5.494  0.1015  0.3054 -0.0306
  810PNCE   C1B 7307   1.532   5.813   5.224 -0.1828  0.0670 -0.0691
  810PNCE   C2B 7308   1.414   6.071   5.519  0.0973  0.1058  0.1531
  810PNCE   C3B 7309   1.692   6.179   5.867  0.2989 -0.1382  0.0318
  810PNCE   D4B 7310   1.850   6.074   6.241  0.1220 -0.0304  0.0195
  810PNCE   C5B 7311   1.951   5.657   6.287  0.2400 -0.3002 -0.0943
  810PNCE   C6B 7312   1.753   5.282   6.206 -0.1567  0.1754 -0.1535
  811PNCE   AM1 7313   9.447   7.220   4.311 -0.2741  0.0846  0.1750
  811PNCE   AM2 7314   9.443   7.493   4.355  0.0485 -0.0682  0.2341
  811PNCE   T1A 7315   9.415   7.101   4.774 -0.0361 -0.3081 -0.1588
  811PNCE   C2A 7316   9.326   7.219   5.146  0.0358 -0.0927 -0.0478
  811PNCE   C3A 7317   9.019   7.267   5.389  0.3274  0.0080  0.1759
  811PNCE   C1B 7318   9.396   7.602   4.780 -0.1797  0.0079 -0.2100
  811PNCE   C2B 7319   9.630   7.621   5.082  0.0483 -0.1866 -0.3139
  811PNCE   C3B 7320   9.644   7.572   5.507 -0.1353  0.0581  0.3014
  811PNCE   D4B 7321   9.635   7.635   5.897 -0.0272  0.2699  0.1963
  811PNCE   C5B 7322  10.003   7.815   6.137  0.0345  0.0523  0.1032
  811PNCE   C6B 7323  10.028   8.113   6.516  0.1631  0.0735  0.1269
  812CHOL   ROH 7324  10.969   6.836   8.187 -0.0333 -0.2010 -0.0695
  812CHOL    R1 7325  10.839   6.809   7.937  0.0782 -0.1939 -0.1289
  812CHOL    R2 7326  10.680   7.008   7.831 -0.2185 -0.3519  0.0047
  812CHOL    R3 7327  10.845   6.981   7.616 -0.1075  0.1038  0.0231
  812CHOL    R4 7328  10.598   7.095   7.506 -0.3475 -0.3933  0.0256
  812CHOL    R5 7329  10.700   6.915   7.437  0.0704 -0.1460 -0.0331
  812CHOL    C1 7330  10.705   7.121   7.116 -0.3185  0.0105  0.0549
  812CHOL    C2 7331  10.795   7.167   6.720  0.1047  0.0351  0.0783
  813PNCE   AM1 7332   8.962   4.135   4.435 -0.0880  0.1268  0.1810
  813PNCE   AM2 7333   9.074   3.756   4.541 -0.0414  0.3033 -0.1228
  813PNCE   T1A 7334   8.773   4.559   4.574  0.0167 -0.0690 -0.0627
  813PNCE   C2A 7335   8.519   4.932   4.874 -0.4188 -0.1151  0.1256
  813PNCE   C3A 7336   8.077   5.066   4.745 -0.3769  0.0583 -0.0687
  813PNCE   C1B 7337   8.932   3.913   4.939  0.2099  0.2305 -0.0473
  813PNCE   C2B 7338   8.856   4.022   5.356 -0.4546  0.0453  0.2485
  813PNCE   C3B 7339   8.595   4.031   5.728  0.1280  0.2099  0.1873
  813PNCE   D4B 7340   8.489   3.712   5.996 -0.1096  0.3516  0.2535
  813PNCE   C5B 7341   8.766   3.365   6.013 -0.0749 -0.0551 -0.0595
  813PNCE   C6B 7342   8.977   3.064   6.086  0.3064  0.2232 -0.0822
  814CHOL   ROH 7343   5.059  14.312   5.619  0.0236  0.0974 -0.1181
  814CHOL    R1 7344   5.046  14.421   5.880 -0.1997  0.0309 -0.0995
  814CHOL    R2 7345   4.856  14.344   6.064  0.0292 -0.4913 -0.0656
  814CHOL    R3 7346   5.073  14.297   6.221  0.1998  0.0403 -0.1233
  814CHOL    R4 7347   4.863  14.381   6.408 -0.0485 -0.6968 -0.0401
  814CHOL    R5 7348   5.063  14.467   6.389 -0.2876 -0.0884 -0.0077
  814CHOL    C1 7349   5.072  14.359   6.755  0.0663 -0.3175 -0.0794
  814CHOL    C2 7350   4.927  14.193   7.090 -0.2514  0.1289  0.0336
  815XCA    COO 7351   5.603   5.226   4.502 -0.0447 -0.3457  0.0841
  815XCA     C1 7352   5.600   4.897   4.785 -0.0697  0.2034  0.0323
  815XCA     C2 7353   5.404   4.788   5.131  0.1589 -0.1481 -0.0806
  815XCA     C3 7354   5.416   4.889   5.523  0.1231 -0.0107 -0.1854
  815XCA     C4 7355   5.310   4.964   5.930 -0.1616  0.2956  0.0300
  815XCA     C5 7356   5.428   5.229   6.212  0.1054  0.2239  0.1766
  815XCA     C6 7357   5.803   5.467   6.166 -0.2167 -0.0519  0.1309
  816PNCE   AM1 7358   0.957  15.537   5.061 -0.0909  0.1191 -0.1096
  816PNCE   AM2 7359   1.067  15.242   5.060 -0.0815  0.0256 -0.2545
  816PNCE   T1A 7360   0.651  15.651   5.390 -0.1172  0.0252  0.0472
  816PNCE   C2A 7361   0.493  15.711   5.792 -0.0308  0.2349  0.2822
  816PNCE   C3A 7362   0.408  15.763   6.194 -0.2855  0.2926  0.2155
  816PNCE   C1B 7363   0.872  15.063   5.480 -0.1822  0.1526 -0.0842
  816PNCE   C2B 7364   1.073  15.080   5.868  0.0074 -0.2936  0.1971
  816PNCE   C3B 7365   1.271  15.225   6.187 -0.0732 -0.1840  0.1720
  816PNCE   D4B 7366   1.299  15.370   6.567  0.1560  0.1285  0.1771
  816PNCE   C5B 7367   1.337  15.765   6.690  0.0775  0.1765 -0.0622
  816PNCE   C6B 7368   1.341  16.158   6.502 -0.0161 -0.0107 -0.0795
  817PNCE   AM1 7369   3.764   7.671   4.755 -0.0782 -0.0999  0.3838
  817PNCE   AM2 7370   3.667   7.908   4.496  0.1483  0.0193  0.2892
  817PNCE   T1A 7371   3.518   7.657   5.044 -0.0623 -0.1121 -0.2005
  817PNCE   C2A 7372   3.191   7.648   5.298  0.1648  0.3618  0.0011
  817PNCE   C3A 7373   3.035   7.623   5.704  0.1003  0.1255  0.1173
  817PNCE   C1B 7374   3.370   8.057   4.695 -0.2861  0.0073 -0.1921
  817PNCE   C2B 7375   2.923   7.923   4.967  0.0910  0.0896  0.0197
  817PNCE   C3B 7376   2.718   7.743   5.269  0.1912  0.1899  0.1369
  817PNCE   D4B 7377   2.557   7.590   5.717 -0.1740 -0.1807  0.0156
  817PNCE   C5B 7378   2.703   7.853   6.120 -0.2534  0.0883 -0.0946
  817PNCE   C6B 7379   2.874   8.154   6.436  0.2003  0.0508  0.4393
  818CHOL   ROH 7380   4.071   7.203   5.453 -0.0828 -0.1639  0.0611
  818CHOL    R1 7381   3.875   7.364   5.579  0.2934  0.1719  0.2370
  818CHOL    R2 7382   3.899   7.639   5.599  0.3826  0.2384 -0.5721
  818CHOL    R3 7383   3.654   7.636   5.481 -0.0012 -0.0865  0.1590
  818CHOL    R4 7384   3.668   7.894   5.620  0.5663  0.4213 -0.7120
  818CHOL    R5 7385   3.511   7.744   5.640  0.5264  0.5139  0.2793
  818CHOL    C1 7386   3.303   8.041   5.521  0.3130  0.2227 -0.1072
  818CHOL    C2 7387   3.238   8.472   5.533 -0.1954 -0.1343  0.1789
  819CHOL   ROH 7388   5.015   5.303   7.774  0.2134 -0.0703 -0.0860
  819CHOL    R1 7389   4.800   5.237   7.602  0.1124 -0.0656  0.0375
  819CHOL    R2 7390   4.814   5.266   7.328 -0.0646 -0.0145  0.0326
  819CHOL    R3 7391   4.741   5.004   7.329 -0.0318 -0.0236  0.0314
  819CHOL    R4 7392   4.699   5.091   7.053 -0.0498 -0.0244  0.0329
  819CHOL    R5 7393   4.553   4.993   7.182 -0.0345 -0.0445  0.0358
  819CHOL    C1 7394   4.564   4.743   6.893 -0.0104 -0.0387  0.0318
  819CHOL    C2 7395   4.241   4.529   6.767  0.1287  0.3123  0.0179
  820CHOL   ROH 7396  13.584   7.828   6.272 -0.0496  0.0014 -0.1015
  820CHOL    R1 7397  13.600   7.557   6.351 -0.1054  0.0554  0.0990
  820CHOL    R2 7398  13.770   7.375   6.229 -0.3799 -0.1458  0.0074
  820CHOL    R3 7399  13.855   7.335   6.484 -0.0521  0.0129 -0.0715
  820CHOL    R4 7400  13.852   7.068   6.364 -0.2567 -0.0693  0.1110
  820CHOL    R5 7401  13.754   7.128   6.549 -0.0056  0.0719  0.2027
  820CHOL    C1 7402  13.980   6.850   6.681  0.1229  0.1242  0.0972
  820CHOL    C2 7403  13.768   6.511   6.692  0.0248  0.1942 -0.3259
  821CHOL   ROH 7404   9.246   6.881   6.238  0.1751  0.0576 -0.2677
  821CHOL    R1 7405   9.334   6.647   6.104  0.0658 -0.1012 -0.0690
  821CHOL    R2 7406   9.225   6.397   6.153 -0.2086  0.0223 -0.0129
  821CHOL    R3 7407   9.185   6.398   5.884  0.0046 -0.0834 -0.0460
  821CHOL    R4 7408   9.251   6.121   5.947 -0.0969 -0.0630  0.1150
  821CHOL    R5 7409   9.349   6.246   5.799  0.0412 -0.1457  0.1419
  821CHOL    C1 7410   9.230   5.960   5.576  0.1682 -0.2119  0.1584
  821CHOL    C2 7411   9.417   5.699   5.341  0.2511 -0.6718 -0.0443
  822CHOL   ROH 7412   7.340   7.152   8.547  0.1087  0.0497 -0.2003
  822CHOL    R1 7413   7.298   6.968   8.336  0.1275 -0.0108 -0.1508
  822CHOL    R2 7414   7.092   6.996   8.153  0.1216 -0.0869 -0.1491
  822CHOL    R3 7415   7.295   6.980   7.972  0.1145 -0.1099 -0.1558
  822CHOL    R4 7416   7.063   6.865   7.835  0.0390  0.0741 -0.2090
  822CHOL    R5 7417   7.257   6.771   7.860 -0.0040 -0.0449 -0.2506
  822CHOL    C1 7418   7.235   6.773   7.480 -0.0158  0.1463 -0.2503
  822CHOL    C2 7419   7.207   6.590   7.143 -0.0009  0.0178  0.0445
  823PNCE   AM1 7420   9.166  15.067   8.106 -0.1865 -0.4068  0.2567
  823PNCE   AM2 7421   8.919  15.273   7.871 -0.0148  0.0121 -0.1479
  823PNCE   T1A 7422   9.435  15.318   7.887 -0.0065  0.3450  0.3097
  823PNCE   C2A 7423   9.507  15.408   7.485 -0.1448 -0.2953  0.0189
  823PNCE   C3A 7424   9.439  15.414   7.081  0.0937 -0.1068 -0.1008
  823PNCE   C1B 7425   9.053  15.068   7.508 -0.1092  0.1075 -0.1234
  823PNCE   C2B 7426   8.974  15.086   7.122  0.3626 -0.0826  0.1270
  823PNCE   C3B 7427   8.622  14.987   6.839 -0.1549  0.0760  0.2147
  823PNCE   D4B 7428   8.373  14.927   6.392 -0.2627  0.0916  0.2245
  823PNCE   C5B 7429   8.018  15.318   6.225 -0.1205  0.1030  0.2545
  823PNCE   C6B 7430   7.963  15.806   6.386  0.4973  0.1750  0.0283
  824PNCE   AM1 7431   6.066   8.946   4.759  0.1183  0.0509 -0.1392
  824PNCE   AM2 7432   5.939   8.602   4.852 -0.0225  0.1532 -0.0143
  824PNCE   T1A 7433   6.437   8.976   5.107 -0.0316  0.0046 -0.2684
  824PNCE   C2A 7434   6.721   8.660   5.293 -0.0855 -0.0580 -0.1251
  824PNCE   C3A 7435   7.129   8.607   5.460 -0.2526 -0.1130  0.0106
  824PNCE   C1B 7436   5.768   8.498   5.221 -0.0366 -0.0712 -0.1786
  824PNCE   C2B 7437   5.961   8.241   5.485  0.1104 -0.0848 -0.0448
  824PNCE   C3B 7438   6.109   7.979   5.872  0.4516 -0.1189 -0.2912
  824PNCE   D4B 7439   6.223   7.641   5.975  0.0342  0.2753  0.3657
  824PNCE   C5B 7440   6.591   7.527   6.173 -0.0404 -0.0291 -0.0573
  824PNCE   C6B 7441   6.760   7.633   6.558  0.0294  0.2930  0.0692
  825XCA    COO 7442  14.049  15.379   9.087 -0.4139 -0.2570  0.0550
  825XCA     C1 7443  14.050  15.296   8.680 -0.3131  0.0799 -0.0912
  825XCA     C2 7444  14.310  15.596   8.417 -0.1577 -0.1682 -0.1489
  825XCA     C3 7445  14.526  15.612   8.059  0.3408 -0.1513 -0.2979
  825XCA     C4 7446  14.623  15.657   7.643  0.0987  0.0390 -0.0892
  825XCA     C5 7447  14.877  15.661   7.313  0.0322 -0.1191 -0.0223
  825XCA     C6 7448  15.185  15.708   6.866  0.1362  0.2879  0.0400
  826XCA    COO 7449  13.132  12.009   5.101  0.4103 -0.2384 -0.3759
  826XCA     C1 7450  13.091  12.020   5.573  0.1752  0.3616 -0.0255
  826XCA     C2 7451  13.259  11.972   5.884 -0.0692  0.1023 -0.1797
  826XCA     C3 7452  13.603  11.798   6.254 -0.0601 -0.0394 -0.3858
  826XCA     C4 7453  13.689  11.406   6.570  0.3274 -0.1083  0.0449
  826XCA     C5 7454  13.772  10.997   6.341  0.1322  0.0887 -0.2034
  826XCA     C6 7455  13.687  10.560   6.168 -0.0782 -0.2623  0.1378
  827XCA    COO 7456  13.075  10.702   4.578 -0.0002  0.1477 -0.0623
  827XCA     C1 7457  13.403  10.635   4.955 -0.1504 -0.0022  0.2726
  827XCA     C2 7458  13.632  10.626   5.340  0.1874 -0.0382  0.0901
  827XCA     C3 7459  13.817  10.498   5.672 -0.0502 -0.4332 -0.0515
  827XCA     C4 7460  14.076  10.272   5.953 -0.1878 -0.2842  0.0910
  827XCA     C5 7461  14.477  10.130   6.278  0.2736 -0.0555  0.1658
  827XCA     C6 7462  14.653  10.343   6.656  0.0083 -0.0414  0.1660
  828PNCE   AM1 7463   3.126   0.819   4.883 -0.0221  0.0010  0.2220
  828PNCE   AM2 7464   3.017   1.069   4.646 -0.1479  0.2172 -0.0071
  828PNCE   T1A 7465   3.162   0.838   5.372 -0.2241 -0.3670  0.0100
  828PNCE   C2A 7466   3.306   1.131   5.704 -0.0229 -0.1820  0.0401
  828PNCE   C3A 7467   3.296   1.328   6.149  0.2094  0.0701  0.0334
  828PNCE   C1B 7468   3.226   1.243   5.024 -0.5040  0.2442  0.2665
  828PNCE   C2B 7469   3.498   1.464   5.391  0.2474 -0.1205  0.0372
  828PNCE   C3B 7470   3.736   1.605   5.765  0.3831  0.0320  0.3234
  828PNCE   D4B 7471   3.899   1.902   6.027  0.0955  0.0982 -0.0135
  828PNCE   C5B 7472   3.617   1.989   6.356 -0.1473 -0.2904  0.0118
  828PNCE   C6B 7473   3.473   1.956   6.753  0.0731 -0.0668  0.0153
  829PNCE   AM1 7474   0.076   6.981   4.454 -0.1521 -0.0522 -0.3737
  829PNCE   AM2 7475   0.384   7.239   4.284 -0.4632 -0.0636 -0.0361
  829PNCE   T1A 7476   0.171   7.271   4.749 -0.0938  0.0555  0.0506
  829PNCE   C2A 7477   0.465   7.556   4.923 -0.0492 -0.2870  0.2803
  829PNCE   C3A 7478   0.738   7.877   4.724  0.1896  0.1458 -0.0770
  829PNCE   C1B 7479   0.642   7.151   4.624 -0.1704 -0.1342 -0.0169
  829PNCE   C2B 7480   0.963   7.444   4.835  0.0467 -0.0357 -0.0195
  829PNCE   C3B 7481   0.945   7.679   5.160  0.0418  0.0134  0.1837
  829PNCE   D4B 7482   0.849   8.135   5.176  0.0290  0.1979  0.0057
  829PNCE   C5B 7483   0.452   8.195   5.057  0.0506  0.0462 -0.0400
  829PNCE   C6B 7484   0.128   8.464   5.056  0.2270  0.3803 -0.0630
  830PNCE   AM1 7485   8.516  14.985   4.904  0.0051  0.3002  0.1047
  830PNCE   AM2 7486   8.890  15.057   4.753 -0.2465 -0.4611  0.1418
  830PNCE   T1A 7487   8.422  14.981   5.338 -0.0413  0.1122 -0.2234
  830PNCE   C2A 7488   8.141  15.174   5.654 -0.2018  0.0224  0.1120
  830PNCE   C3A 7489   8.002  15.629   5.836 -0.1781  0.3297 -0.0622
  830PNCE   C1B 7490   9.152  15.411   4.791 -0.2794 -0.1590 -0.2060
  830PNCE   C2B 7491   9.237  15.652   5.269  0.1623  0.1273  0.0334
  830PNCE   C3B 7492   8.906  15.819   5.513  0.0708 -0.1192  0.0291
  830PNCE   D4B 7493   8.879  15.951   5.992 -0.2292 -0.2146  0.3497
  830PNCE   C5B 7494   9.117  16.095   6.410 -0.1173 -0.2672  0.0103
  830PNCE   C6B 7495   9.298  15.853   6.827 -0.2555  0.1963 -0.1430
  831PNCE   AM1 7496  10.643   3.991   8.469 -0.1663  0.0755 -0.0326
  831PNCE   AM2 7497  10.834   4.252   8.416  0.1355 -0.3718 -0.3987
  831PNCE   T1A 7498  11.034   3.721   8.176 -0.0152  0.0156 -0.1482
  831PNCE   C2A 7499  11.100   3.776   7.684  0.0272  0.1358  0.1491
  831PNCE   C3A 7500  11.309   3.989   7.372  0.1334  0.0613 -0.0270
  831PNCE   C1B 7501  10.820   4.143   7.977  0.0537 -0.0161 -0.1544
  831PNCE   C2B 7502  10.812   4.274   7.544 -0.1447 -0.0439 -0.2613
  831PNCE   C3B 7503  11.043   4.405   7.195  0.0291  0.0730  0.0140
  831PNCE   D4B 7504  10.882   4.447   6.746  0.2138 -0.0318 -0.0922
  831PNCE   C5B 7505  11.065   4.588   6.395  0.1992 -0.2761  0.0837
  831PNCE   C6B 7506  11.041   4.523   5.854  0.3178  0.0932  0.1563
  832XCA    COO 7507  15.181   8.764   4.516 -0.0432 -0.1178 -0.0228
  832XCA     C1 7508  14.997   8.618   4.859  0.1382 -0.3108  0.0480
  832XCA     C2 7509  14.983   8.524   5.285  0.2218  0.0839  0.0404
  832XCA     C3 7510  15.088   8.442   5.808 -0.0627 -0.1064  0.4567
  832XCA     C4 7511  15.337   8.183   6.084 -0.1936  0.0797 -0.1977
  832XCA     C5 7512  15.553   8.185   6.333  0.1897  0.0493  0.3623
  832XCA     C6 7513  15.749   8.521   6.566 -0.1763  0.2554  0.1745
  833PNCE   AM1 7514   7.398   7.415   4.828 -0.0737  0.0558  0.0787
  833PNCE   AM2 7515   7.327   7.108   4.588 -0.2879  0.2202 -0.0885
  833PNCE   T1A 7516   7.108   7.782   4.866 -0.2110 -0.4090 -0.3421
  833PNCE   C2A 7517   7.099   8.087   5.292 -0.0980 -0.0432 -0.0036
  833PNCE   C3A 7518   6.732   8.187   5.452  0.2295 -0.1290  0.0831
  833PNCE   C1B 7519   7.405   6.969   5.114 -0.2866  0.2726 -0.0765
  833PNCE   C2B 7520   7.280   6.930   5.493  0.0893  0.1626  0.0149
  833PNCE   C3B 7521   7.250   6.887   5.978  0.1627  0.1537 -0.3009
  833PNCE   D4B 7522   7.026   6.679   6.393 -0.0539  0.2241  0.3890
  833PNCE   C5B 7523   6.886   6.849   6.740 -0.2025 -0.0450 -0.0442
  833PNCE   C6B 7524   6.994   7.282   6.914  0.2231  0.4174  0.0834
  834PNCE   AM1 7525  10.658   4.876   4.565  0.0742  0.0166  0.2059
  834PNCE   AM2 7526  10.840   5.165   4.777 -0.1982  0.0886  0.0011
  834PNCE   T1A 7527  10.927   4.683   4.902 -0.0151  0.1226 -0.0469
  834PNCE   C2A 7528  11.092   4.761   5.339  0.0395 -0.2940 -0.3733
  834PNCE   C3A 7529  11.146   5.004   5.756  0.0668  0.2236 -0.0068
  834PNCE   C1B 7530  11.002   5.282   5.160 -0.2501 -0.0435  0.2909
  834PNCE   C2B 7531  11.076   5.498   5.587 -0.0120  0.1485  0.0649
  834PNCE   C3B 7532  11.356   5.738   5.948  0.0692 -0.0058  0.0611
  834PNCE   D4B 7533  11.680   5.528   6.188  0.1465  0.3544  0.1253
  834PNCE   C5B 7534  12.089   5.416   6.118 -0.1540 -0.0311 -0.0261
  834PNCE   C6B 7535  12.394   5.701   6.210  0.1923 -0.1665 -0.0535
  835CHOL   ROH 7536   8.150   7.748   5.269  0.0703  0.1884  0.0672
  835CHOL    R1 7537   8.125   7.600   5.509 -0.0245  0.0623 -0.0188
  835CHOL    R2 7538   8.210   7.697   5.753  0.0019 -0.1192  0.0469
  835CHOL    R3 7539   7.955   7.642   5.828 -0.0333 -0.0362 -0.0106
  835CHOL    R4 7540   8.114   7.603   6.071 -0.1029 -0.0901  0.0240
  835CHOL    R5 7541   7.976   7.460   5.982 -0.1292 -0.0436 -0.0071
  835CHOL    C1 7542   7.818   7.497   6.327 -0.1969  0.0047 -0.0433
  835CHOL    C2 7543   7.738   7.136   6.323 -0.1509 -0.1147 -0.3047
  836CHOL   ROH 7544   7.230   9.118   6.741  0.1436  0.0752  0.0183
  836CHOL    R1 7545   6.991   9.179   6.879  0.1347  0.0020  0.0346
  836CHOL    R2 7546   6.834   9.398   6.817  0.1370  0.0298  0.1357
  836CHOL    R3 7547   6.638   9.211   6.796  0.1382  0.0389  0.0307
  836CHOL    R4 7548   6.497   9.460   6.860  0.1171  0.0493 -0.0379
  836CHOL    R5 7549   6.480   9.270   6.966  0.0525  0.0461 -0.0476
  836CHOL    C1 7550   6.116   9.320   6.865  0.1066  0.0691 -0.2375
  836CHOL    C2 7551   5.796   9.426   7.110 -0.3342 -0.0482  0.1358
  837PNCE   AM1 7552   7.837   4.214   4.780 -0.1188 -0.2545  0.0807
  837PNCE   AM2 7553   7.976   4.006   4.497 -0.1383 -0.0685 -0.0447
  837PNCE   T1A 7554   7.748   4.149   5.188  0.1788  0.1784 -0.2629
  837PNCE   C2A 7555   7.654   4.014   5.590  0.2379 -0.1664 -0.3165
  837PNCE   C3A 7556   7.627   3.759   5.998 -0.1667  0.0851  0.1329
  837PNCE   C1B 7557   7.830   3.716   4.857  0.2464  0.0050 -0.5024
  837PNCE   C2B 7558   7.861   3.638   5.225 -0.4154 -0.0891  0.0651
  837PNCE   C3B 7559   7.705   3.403   5.479  0.1912  0.1942  0.0366
  837PNCE   D4B 7560   7.819   3.190   5.760 -0.0229  0.2590  0.2807
  837PNCE   C5B 7561   8.030   3.032   6.107 -0.2555 -0.0514 -0.1465
  837PNCE   C6B 7562   8.408   3.181   6.282 -0.3871  0.0649 -0.0528
  838PNCE   AM1 7563  13.848  13.149   5.532  0.1605 -0.0738 -0.2935
  838PNCE   AM2 7564  13.538  13.368   5.557  0.0546 -0.1662 -0.0890
  838PNCE   T1A 7565  13.991  13.479   5.851  0.0177 -0.3835  0.0026
  838PNCE   C2A 7566  14.405  13.763   6.117  0.3345 -0.1195  0.0073
  838PNCE   C3A 7567  14.582  13.824   6.459  0.0138  0.0207  0.0813
  838PNCE   C1B 7568  13.556  13.325   6.023  0.3290 -0.2542  0.1635
  838PNCE   C2B 7569  13.858  13.382   6.318 -0.3479  0.0063 -0.1756
  838PNCE   C3B 7570  13.919  13.174   6.716  0.2687  0.1581 -0.1079
  838PNCE   D4B 7571  14.183  13.253   7.127 -0.3489  0.2054 -0.0457
  838PNCE   C5B 7572  14.585  13.036   7.066  0.1684  0.2178 -0.0309
  838PNCE   C6B 7573  14.965  12.988   7.129  0.0885  0.3490 -0.1964
  839PNCE   AM1 7574   4.921   7.258   5.087 -0.2001 -0.2778 -0.4309
  839PNCE   AM2 7575   4.681   7.548   5.140 -0.6866  0.2434 -0.2196
  839PNCE   T1A 7576   5.229   6.855   4.966  0.1237 -0.3750  0.0616
  839PNCE   C2A 7577   5.479   6.519   4.936 -0.0022  0.3102 -0.0136
  839PNCE   C3A 7578   5.975   6.577   4.864 -0.1319 -0.0535 -0.0253
  839PNCE   C1B 7579   5.050   7.621   5.394  0.2635  0.0998  0.2268
  839PNCE   C2B 7580   5.265   7.471   5.767 -0.0484 -0.1180 -0.1475
  839PNCE   C3B 7581   5.507   7.414   6.183 -0.1640 -0.1093  0.0579
  839PNCE   D4B 7582   5.660   7.653   6.635 -0.4632  0.2505 -0.1661
  839PNCE   C5B 7583   5.620   7.639   7.059  0.1779 -0.1344  0.0974
  839PNCE   C6B 7584   5.548   7.693   7.563 -0.0897 -0.1327  0.0015
  840XCA    COO 7585   0.377   6.068   4.578  0.0324 -0.0902  0.0623
  840XCA     C1 7586   0.262   6.032   5.132  0.2588 -0.1907  0.0982
  840XCA     C2 7587   0.619   6.098   5.437  0.0314  0.0157 -0.0739
  840XCA     C3 7588   0.805   5.965   5.772  0.2892 -0.2971 -0.1679
  840XCA     C4 7589   0.888   5.715   6.076  0.0358 -0.3992  0.1100
  840XCA     C5 7590   0.594   5.882   6.337  0.0591 -0.2050  0.1556
  840XCA     C6 7591   0.245   5.931   6.618  0.1451 -0.2197  0.0426
  841CHOL   ROH 7592   6.599  12.126   8.010 -0.1233  0.0497 -0.1968
  841CHOL    R1 7593   6.767  12.345   7.948 -0.0943  0.0547 -0.1077
  841CHOL    R2 7594   6.988  12.322   7.783 -0.0399  0.0753 -0.0518
  841CHOL    R3 7595   6.868  12.525   7.649 -0.0011  0.0994 -0.0471
  841CHOL    R4 7596   7.148  12.534   7.562 -0.0333  0.0060 -0.1128
  841CHOL    R5 7597   7.032  12.699   7.645  0.0444  0.0464 -0.1088
  841CHOL    C1 7598   7.128  12.849   7.308  0.0070 -0.0117 -0.1439
  841CHOL    C2 7599   7.427  12.925   7.046  0.1684 -0.2143  0.0526
  842PNCE   AM1 7600  11.507   9.218   4.261 -0.3472  0.2318  0.0752
  842PNCE   AM2 7601  11.742   9.213   4.482 -0.0424  0.3271 -0.1279
  842PNCE   T1A 7602  11.416   9.588   4.579 -0.1864 -0.0905  0.0699
  842PNCE   C2A 7603  11.510   9.986   4.760  0.2166 -0.3082 -0.3870
  842PNCE   C3A 7604  11.715  10.147   5.084 -0.0199 -0.2159 -0.2738
  842PNCE   C1B 7605  11.577   9.264   4.900  0.1267  0.0596 -0.1782
  842PNCE   C2B 7606  11.885   9.224   5.179  0.2642 -0.0938  0.2840
  842PNCE   C3B 7607  12.125   9.049   5.545  0.0183  0.0063  0.1692
  842PNCE   D4B 7608  12.367   8.861   5.869  0.0506  0.0433  0.2335
  842PNCE   C5B 7609  12.363   8.913   6.314 -0.0431 -0.0085 -0.2201
  842PNCE   C6B 7610  12.479   8.630   6.601  0.1389  0.2766  0.0288
  843CHOL   ROH 7611   5.627  13.165   5.545  0.0693 -0.0000 -0.0293
  843CHOL    R1 7612   5.555  13.045   5.791  0.0589 -0.0130 -0.0390
  843CHOL    R2 7613   5.742  12.946   5.969  0.0510 -0.0124 -0.0331
  843CHOL    R3 7614   5.614  13.111   6.144  0.0339 -0.0261 -0.0318
  843CHOL    R4 7615   5.768  12.927   6.313 -0.2428 -0.2580 -0.0197
  843CHOL    R5 7616   5.555  12.968   6.327 -0.2266 -0.1025 -0.1700
  843CHOL    C1 7617   5.664  13.071   6.678 -0.4298 -0.4140 -0.0108
  843CHOL    C2 7618   5.508  12.965   7.053 -0.1105 -0.1737 -0.0129
  844XCA    COO 7619   0.468  12.086   4.526 -0.0796 -0.0766  0.1765
  844XCA     C1 7620   0.417  12.033   5.017  0.1501  0.0191 -0.2012
  844XCA     C2 7621   0.180  12.001   5.466 -0.1656  0.2025 -0.1459
  844XCA     C3 7622   0.089  11.822   5.810  0.2857 -0.1742 -0.3374
  844XCA     C4 7623  -0.306  11.743   6.059 -0.0508  0.3006 -0.0484
  844XCA     C5 7624  -0.491  12.036   6.317  0.3197  0.2069  0.1393
  844XCA     C6 7625  -0.955  12.077   6.320  0.0186  0.0041 -0.1533
  845PNCE   AM1 7626   0.376  11.528   4.846  0.0745  0.1902 -0.1182
  845PNCE   AM2 7627   0.460  11.351   5.162 -0.2958 -0.1211  0.1948
  845PNCE   T1A 7628   0.114  11.776   4.696  0.0905  0.0959  0.2487
  845PNCE   C2A 7629  -0.318  11.862   4.878 -0.1623 -0.0150  0.0572
  845PNCE   C3A 7630  -0.538  11.507   5.103 -0.3721  0.1518  0.1225
  845PNCE   C1B 7631   0.439  11.543   5.573 -0.2297 -0.2198  0.1596
  845PNCE   C2B 7632   0.323  11.475   6.115  0.0794  0.0242  0.1060
  845PNCE   C3B 7633   0.055  11.459   6.451 -0.0931  0.1733 -0.0972
  845PNCE   D4B 7634  -0.353  11.643   6.673  0.1413 -0.0231 -0.1525
  845PNCE   C5B 7635  -0.862  11.759   6.720  0.1627  0.1149 -0.0584
  845PNCE   C6B 7636  -1.162  12.075   6.772 -0.3656  0.0949  0.1029
  846CHOL   ROH 7637   3.793  14.984   5.625  0.0541  0.1650  0.1289
  846CHOL    R1 7638   3.782  14.997   5.907  0.0300  0.0972  0.1309
  846CHOL    R2 7639   3.573  15.118   6.042  0.0373  0.0964  0.1408
  846CHOL    R3 7640   3.557  14.878   6.168 -0.0126  0.0682  0.0817
  846CHOL    R4 7641   3.420  15.065   6.348  0.0106  0.0513  0.1199
  846CHOL    R5 7642   3.583  14.930   6.400 -0.0154  0.0085  0.0966
  846CHOL    C1 7643   3.316  14.808   6.644 -0.0518 -0.0015  0.0522
  846CHOL    C2 7644   3.290  14.667   6.996 -0.0542 -0.0045 -0.0646
  847XCA    COO 7645   0.779  11.158   9.183  0.2107  0.2490 -0.0850
  847XCA     C1 7646   0.577  11.502   8.937 -0.1340  0.0880 -0.2292
  847XCA     C2 7647   0.446  11.752   8.637 -0.0948  0.0716  0.2658
  847XCA     C3 7648   0.542  11.782   8.246  0.1969 -0.0246  0.1062
  847XCA     C4 7649   0.385  11.658   7.924 -0.1615 -0.0392 -0.1754
  847XCA     C5 7650   0.033  11.742   7.554  0.4191 -0.1483 -0.0707
  847XCA     C6 7651  -0.157  11.523   7.198 -0.0786 -0.2228  0.0485
  848CHOL   ROH 7652  14.665  12.111   7.401 -0.0641  0.0500  0.1141
  848CHOL    R1 7653  14.859  11.908   7.371  0.0075  0.1348 -0.0020
  848CHOL    R2 7654  14.809  11.644   7.433  0.1860  0.1274  0.1091
  848CHOL    R3 7655  14.893  11.601   7.178 -0.0123  0.1019  0.0458
  848CHOL    R4 7656  14.944  11.347   7.317  0.1425  0.1302  0.0496
  848CHOL    R5 7657  15.088  11.464   7.202  0.0326  0.1380 -0.0874
  848CHOL    C1 7658  15.102  11.135   7.010 -0.0692  0.1078 -0.0445
  848CHOL    C2 7659  15.362  10.799   7.010 -0.0990  0.0429  0.1173
  849CHOL   ROH 7660  12.789   2.246   8.348  0.0382 -0.0601  0.1439
  849CHOL    R1 7661  12.937   2.200   8.111 -0.0385  0.0056  0.0830
  849CHOL    R2 7662  13.207   2.142   8.113 -0.0448 -0.0210 -0.0193
  849CHOL    R3 7663  13.129   1.926   7.967 -0.1078  0.0354 -0.0701
  849CHOL    R4 7664  13.400   1.985   7.872  0.0228 -0.1876  0.1406
  849CHOL    R5 7665  13.221   1.964   7.750  0.0988 -0.0466 -0.0017
  849CHOL    C1 7666  13.438   1.691   7.595  0.0031 -0.2316  0.1860
  849CHOL    C2 7667  13.779   1.656   7.355 -0.1581  0.0673 -0.2045
  850CHOL   ROH 7668   8.698  11.954   8.629 -0.0619 -0.1300  0.0775
  850CHOL    R1 7669   8.658  11.958   8.349 -0.0657 -0.0604  0.0794
  850CHOL    R2 7670   8.710  11.739   8.188 -0.0688 -0.0192  0.0257
  850CHOL    R3 7671   8.452  11.777   8.109 -0.0696  0.0007  0.0360
  850CHOL    R4 7672   8.590  11.679   7.870 -0.0912 -0.0391  0.0372
  850CHOL    R5 7673   8.470  11.860   7.885 -0.0713 -0.0232  0.0256
  850CHOL    C1 7674   8.279  11.679   7.610 -0.1048 -0.0320  0.0536
  850CHOL    C2 7675   8.175  11.429   7.359 -0.0750 -0.2763 -0.2293
  851PNCE   AM1 7676   6.357   6.670   5.213  0.1591  0.1148  0.5341
  851PNCE   AM2 7677   6.503   6.738   4.837  0.5012 -0.1464  0.1093
  851PNCE   T1A 7678   6.334   6.565   5.574  0.4729 -0.2128 -0.1900
  851PNCE   C2A 7679   6.137   6.270   5.961 -0.1453  0.0742 -0.2288
  851PNCE   C3A 7680   6.031   5.938   6.261 -0.1592  0.0372 -0.4006
  851PNCE   C1B 7681   6.796   6.840   4.993  0.4422  0.3364  0.0786
  851PNCE   C2B 7682   6.910   7.241   5.048 -0.1382 -0.0731  0.0017
  851PNCE   C3B 7683   7.181   7.387   5.328  0.0789  0.0613 -0.0478
  851PNCE   D4B 7684   7.245   7.667   5.604  0.1000 -0.1007 -0.1967
  851PNCE   C5B 7685   6.859   7.698   5.766  0.0717  0.0472  0.0542
  851PNCE   C6B 7686   6.591   8.065   5.885 -0.1515  0.0180 -0.3099
  852XCA    COO 7687   6.238   4.492   7.929  0.1002  0.1997 -0.1564
  852XCA     C1 7688   6.126   4.604   7.549  0.0837 -0.2934  0.2933
  852XCA     C2 7689   6.338   4.592   7.115  0.2340  0.1312 -0.2665
  852XCA     C3 7690   6.746   4.428   6.894 -0.0404  0.1945  0.0541
  852XCA     C4 7691   6.914   4.409   6.413 -0.1067  0.4861  0.1658
  852XCA     C5 7692   6.841   4.540   5.996 -0.1214 -0.2230  0.2334
  852XCA     C6 7693   7.021   4.735   5.631  0.2996 -0.0041  0.0394
  853PNCE   AM1 7694  12.166  15.693   4.399  0.1115  0.0857  0.1134
  853PNCE   AM2 7695  11.973  15.963   4.549  0.0272  0.1258 -0.0142
  853PNCE   T1A 7696  12.120  15.502   4.831  0.1145  0.1312  0.3918
  853PNCE   C2A 7697  11.904  15.686   5.148 -0.2123 -0.0751  0.0767
  853PNCE   C3A 7698  11.677  15.803   5.586  0.0835 -0.0598 -0.1685
  853PNCE   C1B 7699  12.079  16.087   4.948 -0.1819 -0.2559  0.0748
  853PNCE   C2B 7700  12.150  16.124   5.416  0.0827  0.0178  0.0638
  853PNCE   C3B 7701  12.071  16.086   5.916  0.5682  0.3746  0.0190
  853PNCE   D4B 7702  11.980  16.293   6.293 -0.0324  0.1409  0.0580
  853PNCE   C5B 7703  12.032  16.667   6.382 -0.0518  0.2089  0.0407
  853PNCE   C6B 7704  12.255  16.867   6.742  0.1376  0.2347  0.1513
  854CHOL   ROH 7705   7.863  12.878   5.783  0.0029 -0.0664 -0.0212
  854CHOL    R1 7706   7.901  12.880   6.063 -0.2399 -0.1978  0.0134
  854CHOL    R2 7707   7.962  13.111   6.204  0.0165 -0.3356  0.1111
  854CHOL    R3 7708   7.744  13.040   6.350 -0.2305 -0.0081 -0.0805
  854CHOL    R4 7709   7.831  13.290   6.470  0.2985 -0.2967  0.2294
  854CHOL    R5 7710   7.796  13.103   6.574 -0.1780 -0.3537  0.0230
  854CHOL    C1 7711   7.551  13.327   6.760  0.2308  0.0336  0.1184
  854CHOL    C2 7712   7.718  13.364   7.031 -0.2764  0.0003 -0.1768
  855PNCE   AM1 7713   5.295   9.797   5.812  0.2765  0.0265 -0.2424
  855PNCE   AM2 7714   5.383   9.522   5.956  0.3615 -0.2339  0.0136
  855PNCE   T1A 7715   5.129   9.832   6.210  0.1488  0.0046  0.2646
  855PNCE   C2A 7716   5.267  10.088   6.614  0.2509 -0.0639 -0.3327
  855PNCE   C3A 7717   5.400   9.743   6.931  0.0333  0.0914 -0.0609
  855PNCE   C1B 7718   5.747   9.388   6.188 -0.1909 -0.0332  0.2312
  855PNCE   C2B 7719   6.210   9.236   6.436  0.0168  0.3027 -0.1213
  855PNCE   C3B 7720   6.588   9.213   6.333 -0.4549 -0.2775 -0.2015
  855PNCE   D4B 7721   7.017   9.043   6.015 -0.0194 -0.0029  0.1189
  855PNCE   C5B 7722   7.013   8.592   5.953  0.1070  0.2352  0.0247
  855PNCE   C6B 7723   7.161   8.126   5.806 -0.0199 -0.0781 -0.0442
  856CHOL   ROH 7724   2.050  12.376   5.892  0.0375 -0.2011  0.1017
  856CHOL    R1 7725   2.191  12.611   5.962  0.0045 -0.1493 -0.0034
  856CHOL    R2 7726   2.071  12.824   6.091 -0.0200 -0.1172 -0.0779
  856CHOL    R3 7727   2.273  12.789   6.269  0.0005 -0.0134 -0.0802
  856CHOL    R4 7728   2.205  13.073   6.289 -0.1063 -0.0367 -0.1202
  856CHOL    R5 7729   2.403  12.990   6.252 -0.0761  0.0329 -0.1149
  856CHOL    C1 7730   2.473  13.186   6.572 -0.1373  0.1077 -0.1470
  856CHOL    C2 7731   2.496  13.229   6.917 -0.0770 -0.1549 -0.3895
  857CHOL   ROH 7732  13.004   1.055   4.462 -0.0122 -0.1412  0.0921
  857CHOL    R1 7733  13.006   1.155   4.727 -0.0869  0.0004  0.0401
  857CHOL    R2 7734  12.788   1.280   4.840 -0.1705 -0.0769 -0.0379
  857CHOL    R3 7735  12.821   1.093   5.034 -0.0622  0.0467  0.0648
  857CHOL    R4 7736  12.625   1.283   5.145 -0.3228 -0.1055 -0.1175
  857CHOL    R5 7737  12.812   1.219   5.239 -0.2944  0.1365  0.0039
  857CHOL    C1 7738  12.561   1.110   5.505 -0.3098 -0.0061 -0.0673
  857CHOL    C2 7739  12.463   1.497   5.516 -0.0077  0.0952  0.0882
  858CHOL   ROH 7740   6.521   3.573   4.698  0.0528  0.0133  0.0617
  858CHOL    R1 7741   6.519   3.586   4.981  0.1190  0.0710  0.0598
  858CHOL    R2 7742   6.404   3.796   5.120  0.0523  0.0443  0.0453
  858CHOL    R3 7743   6.267   3.596   5.243  0.1806  0.0027  0.1223
  858CHOL    R4 7744   6.230   3.830   5.416  0.0820  0.0311  0.0643
  858CHOL    R5 7745   6.304   3.634   5.477  0.1986  0.0872  0.1062
  858CHOL    C1 7746   5.999   3.662   5.705  0.2199 -0.0156  0.1476
  858CHOL    C2 7747   5.685   3.611   5.959 -0.0415  0.2732  0.1254
  859CHOL   ROH 7748   5.700  11.343   6.276 -0.0123 -0.2493  0.1105
  859CHOL    R1 7749   5.733  11.102   6.421 -0.0164 -0.2434  0.1204
  859CHOL    R2 7750   5.713  11.090   6.697  0.0046 -0.2270  0.1207
  859CHOL    R3 7751   5.530  10.896   6.642 -0.0116 -0.2199  0.1473
  859CHOL    R4 7752   5.698  10.782   6.853 -0.0297 -0.1983  0.1759
  859CHOL    R5 7753   5.653  10.691   6.660 -0.0301 -0.2288  0.1888
  859CHOL    C1 7754   5.518  10.420   6.892 -0.0649 -0.1749  0.2330
  859CHOL    C2 7755   5.743  10.138   6.966  0.1336  0.1989  0.0786
  860PNCE   AM1 7756   1.798   9.177   6.382  0.1143 -0.1973  0.3115
  860PNCE   AM2 7757   1.594   9.342   6.621  0.3086  0.0360  0.2143
  860PNCE   T1A 7758   2.171   8.970   6.239 -0.3095 -0.0809 -0.1154
  860PNCE   C2A 7759   2.333   8.868   5.876 -0.0937 -0.1014 -0.0303
  860PNCE   C3A 7760   2.363   8.929   5.393  0.0597 -0.1502 -0.2210
  860PNCE   C1B 7761   1.412   9.755   6.614 -0.0003 -0.2542 -0.1457
  860PNCE   C2B 7762   1.074   9.895   6.757  0.1097 -0.0340  0.2940
  860PNCE   C3B 7763   1.079  10.288   6.909  0.2699 -0.2361 -0.1913
  860PNCE   D4B 7764   0.858  10.384   7.185  0.0066  0.0729  0.0851
  860PNCE   C5B 7765   0.607  10.154   7.370 -0.1189 -0.2216  0.0346
  860PNCE   C6B 7766   0.352  10.202   7.801  0.1424 -0.2468 -0.2532
  861PNCE   AM1 7767   6.780  10.501   5.605 -0.1381  0.2051 -0.1422
  861PNCE   AM2 7768   6.529  10.426   5.391 -0.0963  0.0584  0.0568
  861PNCE   T1A 7769   6.890  10.327   5.929 -0.4831 -0.1186 -0.1148
  861PNCE   C2A 7770   6.925  10.034   6.244 -0.1082  0.0144  0.0270
  861PNCE   C3A 7771   6.678   9.729   6.494  0.2166  0.0081 -0.1893
  861PNCE   C1B 7772   6.144  10.255   5.469  0.2682  0.1360 -0.2492
  861PNCE   C2B 7773   5.941  10.289   5.799 -0.2602 -0.1307  0.0003
  861PNCE   C3B 7774   5.794   9.916   6.033 -0.1891 -0.1631 -0.1837
  861PNCE   D4B 7775   5.610   9.797   6.453 -0.0982  0.1616 -0.0548
  861PNCE   C5B 7776   5.980   9.701   6.686  0.0044 -0.1342  0.2377
  861PNCE   C6B 7777   6.181   9.760   7.087 -0.0581  0.1030  0.2956
  862XCA    COO 7778  14.342   5.125   8.016  0.0279  0.0447  0.1637
  862XCA     C1 7779  14.198   5.282   7.633 -0.0815 -0.0738 -0.0819
  862XCA     C2 7780  14.176   5.023   7.231  0.0087  0.1549  0.2382
  862XCA     C3 7781  14.185   4.878   6.848 -0.1058 -0.1965 -0.0605
  862XCA     C4 7782  14.314   5.087   6.576 -0.2703 -0.1531 -0.0236
  862XCA     C5 7783  14.535   5.240   6.825 -0.2990  0.0614  0.0938
  862XCA     C6 7784  14.652   5.246   7.199 -0.0996  0.3162  0.1209
  863CHOL   ROH 7785  13.416   5.040   4.136 -0.3804 -0.2014 -0.1509
  863CHOL    R1 7786  13.448   4.889   4.373 -0.0615 -0.1554 -0.1580
  863CHOL    R2 7787  13.233   4.800   4.523  0.1325 -0.0302  0.2173
  863CHOL    R3 7788  13.352   4.558   4.491 -0.0179 -0.0854  0.0761
  863CHOL    R4 7789  13.250   4.554   4.766  0.0975 -0.1329  0.1142
  863CHOL    R5 7790  13.455   4.513   4.703  0.0454 -0.2252  0.0139
  863CHOL    C1 7791  13.372   4.184   4.876 -0.0641 -0.2445 -0.0785
  863CHOL    C2 7792  13.306   3.722   4.783  0.2036  0.3184  0.2732
  864PNCE   AM1 7793   5.357  15.121   5.046  0.1057  0.0088  0.0163
  864PNCE   AM2 7794   5.582  14.951   5.290  0.0094  0.0708 -0.2205
  864PNCE   T1A 7795   5.181  15.174   5.396  0.1742 -0.0397 -0.5482
  864PNCE   C2A 7796   5.103  15.350   5.841 -0.0903  0.1743 -0.0372
  864PNCE   C3A 7797   5.085  15.388   6.282  0.1566  0.1303 -0.1080
  864PNCE   C1B 7798   5.645  14.828   5.693 -0.3770  0.0622  0.0084
  864PNCE   C2B 7799   5.905  14.914   6.047 -0.0184 -0.1521 -0.1754
  864PNCE   C3B 7800   6.213  14.955   6.341 -0.0518 -0.0325 -0.0462
  864PNCE   D4B 7801   6.639  14.807   6.677 -0.2976 -0.0055  0.0602
  864PNCE   C5B 7802   7.040  14.940   6.366 -0.0164 -0.1518  0.0595
  864PNCE   C6B 7803   7.469  14.800   6.365  0.0120  0.4514  0.0269
  865PNCE   AM1 7804   1.439   4.937   4.951  0.3954  0.0205  0.0951
  865PNCE   AM2 7805   1.443   5.290   5.021  0.0690  0.0502 -0.0542
  865PNCE   T1A 7806   1.635   4.851   5.338 -0.0934 -0.1588  0.3888
  865PNCE   C2A 7807   1.774   4.661   5.669 -0.0708  0.1614 -0.2818
  865PNCE   C3A 7808   1.677   4.439   5.998 -0.1269  0.2276  0.0625
  865PNCE   C1B 7809   1.386   5.322   5.448 -0.2342 -0.1387 -0.0902
  865PNCE   C2B 7810   1.511   5.159   5.787  0.0965 -0.0897 -0.1187
  865PNCE   C3B 7811   1.424   4.876   6.210  0.0930 -0.0079 -0.0197
  865PNCE   D4B 7812   1.242   4.759   6.668 -0.0768  0.0654 -0.0842
  865PNCE   C5B 7813   1.436   4.448   6.962 -0.3317  0.0291  0.0509
  865PNCE   C6B 7814   1.658   4.034   7.227 -0.2555  0.2317 -0.2024
  866PNCE   AM1 7815   5.153   8.309   5.188  0.2243  0.2082 -0.0010
  866PNCE   AM2 7816   4.880   8.257   5.334 -0.1480 -0.0914 -0.1542
  866PNCE   T1A 7817   5.430   7.986   5.502 -0.1504  0.0708 -0.5070
  866PNCE   C2A 7818   5.581   7.807   5.917 -0.0300  0.2829  0.2638
  866PNCE   C3A 7819   5.829   7.950   6.306 -0.4564 -0.1434  0.0434
  866PNCE   C1B 7820   4.705   7.948   5.599  0.3380 -0.3053  0.1005
  866PNCE   C2B 7821   4.814   7.642   5.830  0.0049  0.2738  0.3070
  866PNCE   C3B 7822   4.647   7.276   6.186  0.0980 -0.2235  0.0930
  866PNCE   D4B 7823   4.232   7.320   6.380 -0.0638 -0.2502 -0.4521
  866PNCE   C5B 7824   4.206   7.218   6.801 -0.0764 -0.0457  0.0112
  866PNCE   C6B 7825   4.367   7.387   7.142 -0.0632  0.0724 -0.0007
  867CHOL   ROH 7826   1.534   0.152   8.683 -0.0360  0.0050 -0.1829
  867CHOL    R1 7827   1.640   0.222   8.430  0.0378 -0.0251 -0.1600
  867CHOL    R2 7828   1.890   0.336   8.399 -0.0142  0.1049 -0.0874
  867CHOL    R3 7829   1.929   0.128   8.229  0.1818  0.0669  0.0010
  867CHOL    R4 7830   2.077   0.350   8.109  0.0079  0.1492 -0.0716
  867CHOL    R5 7831   1.926   0.227   8.012  0.1207 -0.0206 -0.0403
  867CHOL    C1 7832   2.223   0.162   7.781  0.2047  0.1393  0.0206
  867CHOL    C2 7833   2.438   0.140   7.517 -0.4136  0.0210  0.1073
  868PNCE   AM1 7834   6.590  12.955   5.082  0.0316  0.0722  0.0490
  868PNCE   AM2 7835   6.807  12.763   5.059  0.0149  0.3771  0.0547
  868PNCE   T1A 7836   6.721  13.290   5.302 -0.0352 -0.0445 -0.0086
  868PNCE   C2A 7837   7.053  13.421   5.515  0.2867 -0.1995 -0.2063
  868PNCE   C3A 7838   6.882  13.653   5.943 -0.1972 -0.1024 -0.3063
  868PNCE   C1B 7839   7.148  12.624   5.289 -0.0699  0.1466  0.1581
  868PNCE   C2B 7840   7.568  12.644   5.529 -0.1849 -0.3661  0.0407
  868PNCE   C3B 7841   7.684  12.481   5.917  0.0698 -0.1652  0.0719
  868PNCE   D4B 7842   7.693  12.260   6.376 -0.0658  0.0409  0.0609
  868PNCE   C5B 7843   8.020  12.124   6.470 -0.1885  0.2060  0.0651
  868PNCE   C6B 7844   8.320  11.766   6.331 -0.1929  0.0887 -0.0471
  869PNCE   AM1 7845   3.144  12.953   5.376  0.0687 -0.2095  0.2618
  869PNCE   AM2 7846   2.914  12.654   5.431 -0.0398 -0.1285 -0.0054
  869PNCE   T1A 7847   3.290  13.025   5.763 -0.0154 -0.1947 -0.2740
  869PNCE   C2A 7848   3.330  13.061   6.225 -0.2003  0.2406 -0.0425
  869PNCE   C3A 7849   3.373  13.108   6.657  0.0516  0.3489  0.0096
  869PNCE   C1B 7850   3.201  12.462   5.839  0.0073 -0.1396  0.0164
  869PNCE   C2B 7851   3.017  12.412   6.249  0.0229 -0.0672  0.5409
  869PNCE   C3B 7852   2.684  12.480   6.491  0.3118 -0.2335 -0.1571
  869PNCE   D4B 7853   2.339  12.749   6.711  0.2223  0.0423  0.1133
  869PNCE   C5B 7854   2.234  12.509   7.113 -0.0710  0.1293  0.1448
  869PNCE   C6B 7855   1.990  12.478   7.528  0.3772 -0.3294 -0.0232
  870XCA    COO 7856   7.598  15.582   8.358  0.0665  0.1474 -0.1593
  870XCA     C1 7857   7.500  15.484   7.910  0.0593 -0.1792 -0.0675
  870XCA     C2 7858   7.676  15.254   7.561  0.0348  0.1264  0.0117
  870XCA     C3 7859   7.617  15.292   7.094 -0.1073 -0.5061 -0.2345
  870XCA     C4 7860   7.552  15.226   6.691  0.0303 -0.2501  0.0761
  870XCA     C5 7861   7.270  15.434   6.527  0.0406 -0.2815 -0.1057
  870XCA     C6 7862   6.954  15.396   6.227  0.1077  0.1725 -0.4208
  871CHOL   ROH 7863   9.971   7.217   7.828 -0.1215 -0.0557  0.0215
  871CHOL    R1 7864   9.884   7.243   7.560 -0.0053 -0.0681 -0.0182
  871CHOL    R2 7865   9.683   7.417   7.486 -0.1138 -0.2154 -0.0821
  871CHOL    R3 7866   9.871   7.508   7.312 -0.0948 -0.0214  0.0373
  871CHOL    R4 7867   9.614   7.582   7.190 -0.0762 -0.0098  0.0215
  871CHOL    R5 7868   9.775   7.469   7.095 -0.0173  0.1154 -0.0200
  871CHOL    C1 7869   9.750   7.763   6.854 -0.0364  0.2921  0.1940
  871CHOL    C2 7870   9.562   7.813   6.499 -0.2198 -0.0360 -0.1276
  872CHOL   ROH 7871  11.490   0.667   6.506 -0.0068  0.0313 -0.0595
  872CHOL    R1 7872  11.655   0.784   6.704 -0.0971  0.2121 -0.0905
  872CHOL    R2 7873  11.758   0.639   6.916 -0.0883  0.3769  0.0154
  872CHOL    R3 7874  11.994   0.739   6.827 -0.1052  0.4180  0.0139
  872CHOL    R4 7875  12.067   0.565   7.051 -0.0482  0.2017 -0.1660
  872CHOL    R5 7876  12.123   0.774   7.025 -0.0233  0.2186  0.0001
  872CHOL    C1 7877  12.470   0.616   7.045 -0.0406  0.1383 -0.2730
  872CHOL    C2 7878  12.569   0.297   7.235 -0.0806 -0.4297  0.2375
  873XCA    COO 7879   4.424  15.019   9.334 -0.2066  0.0401  0.5118
  873XCA     C1 7880   4.237  15.001   8.821 -0.0422  0.2514 -0.0204
  873XCA     C2 7881   4.258  15.318   8.500 -0.2372 -0.0257  0.1609
  873XCA     C3 7882   4.043  15.343   8.060  0.0540  0.1197 -0.0013
  873XCA     C4 7883   4.150  15.532   7.723 -0.0281 -0.0303  0.0902
  873XCA     C5 7884   4.301  15.647   7.402 -0.3343  0.3866 -0.2492
  873XCA     C6 7885   4.389  15.939   7.034 -0.2893  0.1083  0.4137
  874CHOL   ROH 7886  11.356   8.849   4.694  0.1606  0.1803  0.0145
  874CHOL    R1 7887  11.462   8.716   4.920 -0.0630  0.0205  0.0287
  874CHOL    R2 7888  11.628   8.842   5.103  0.1456 -0.2350  0.0253
  874CHOL    R3 7889  11.443   8.755   5.282 -0.0115  0.0848  0.0237
  874CHOL    R4 7890  11.677   8.820   5.444  0.0319 -0.1484  0.0471
  874CHOL    R5 7891  11.569   8.632   5.443 -0.2127 -0.0079  0.1091
  874CHOL    C1 7892  11.532   8.727   5.811 -0.1819  0.2024  0.0584
  874CHOL    C2 7893  11.893   8.724   6.032 -0.0180  0.0550 -0.1480
  875PNCE   AM1 7894  11.598   3.757   4.192  0.0527 -0.0911 -0.0107
  875PNCE   AM2 7895  11.613   4.010   4.388 -0.1743 -0.2001 -0.0905
  875PNCE   T1A 7896  12.002   3.737   4.485 -0.1070 -0.1181 -0.1863
  875PNCE   C2A 7897  11.952   3.770   4.940 -0.0988  0.4439  0.1508
  875PNCE   C3A 7898  11.631   4.100   5.075  0.1664 -0.1641  0.0547
  875PNCE   C1B 7899  11.789   4.249   4.596 -0.0560  0.0515 -0.2533
  875PNCE   C2B 7900  12.051   4.312   4.966 -0.0041  0.0821  0.0581
  875PNCE   C3B 7901  12.069   4.415   5.351 -0.3056  0.1516 -0.3775
  875PNCE   D4B 7902  12.233   4.621   5.598 -0.2100 -0.5601 -0.0435
  875PNCE   C5B 7903  12.342   4.748   6.007  0.0868 -0.0099  0.3869
  875PNCE   C6B 7904  12.341   5.037   6.359  0.0333  0.1593  0.0151
  876CHOL   ROH 7905   6.788  10.245   4.863  0.0226 -0.0378 -0.1444
  876CHOL    R1 7906   6.981  10.176   5.058  0.0480  0.2226 -0.0736
  876CHOL    R2 7907   7.030  10.332   5.280 -0.3010  0.2553 -0.0140
  876CHOL    R3 7908   6.981  10.101   5.415  0.0032  0.1411 -0.0907
  876CHOL    R4 7909   7.169  10.248   5.585 -0.2821  0.3905  0.0159
  876CHOL    R5 7910   7.191  10.043   5.513  0.0597  0.4390 -0.0280
  876CHOL    C1 7911   7.203   9.981   5.889  0.0145  0.3619 -0.0387
  876CHOL    C2 7912   7.403  10.231   6.126  0.0300  0.0844 -0.0749
  877CHOL   ROH 7913   9.883  15.304   6.800 -0.2210  0.0141  0.0121
  877CHOL    R1 7914   9.837  15.548   6.665 -0.1227  0.0595  0.0590
  877CHOL    R2 7915   9.866  15.574   6.391 -0.0420  0.1201  0.0722
  877CHOL    R3 7916   9.611  15.668   6.406 -0.0225  0.1800  0.0263
  877CHOL    R4 7917   9.704  15.746   6.139  0.0374  0.1382  0.0336
  877CHOL    R5 7918   9.618  15.878   6.291  0.0443  0.1696  0.0108
  877CHOL    C1 7919   9.370  15.935   6.007  0.1019  0.2050 -0.0320
  877CHOL    C2 7920   9.311  15.731   5.818  0.2369  0.1527 -0.1369
  878CHOL   ROH 7921  11.780  14.904   5.007 -0.0732  0.1549  0.0327
  878CHOL    R1 7922  11.619  14.934   5.238  0.0297  0.1285  0.1095
  878CHOL    R2 7923  11.454  14.734   5.332 -0.0385  0.1635  0.0817
  878CHOL    R3 7924  11.591  14.773   5.563  0.0771 -0.0110  0.0430
  878CHOL    R4 7925  11.310  14.763   5.645  0.1090  0.2104  0.1449
  878CHOL    R5 7926  11.453  14.921   5.690  0.2562  0.0728  0.1333
  878CHOL    C1 7927  11.355  14.817   6.044  0.3034  0.0739  0.1453
  878CHOL    C2 7928  11.392  14.505   6.326 -0.1481 -0.1785 -0.0082
  879CHOL   ROH 7929   3.410   5.400   7.922 -0.3172 -0.0480  0.1228
  879CHOL    R1 7930   3.395   5.312   7.653 -0.0758  0.0601  0.0695
  879CHOL    R2 7931   3.345   5.484   7.443  0.0588  0.1388  0.0957
  879CHOL    R3 7932   3.574   5.376   7.343  0.1683  0.2330  0.2434
  879CHOL    R4 7933   3.453   5.519   7.117  0.0286 -0.1876  0.0486
  879CHOL    R5 7934   3.516   5.310   7.120  0.2382 -0.1227  0.3279
  879CHOL    C1 7935   3.731   5.438   6.833  0.1138 -0.2892  0.1599
  879CHOL    C2 7936   3.879   5.591   6.478 -0.0536 -0.3315  0.2186
  880CHOL   ROH 7937  10.854  15.462   6.374 -0.0208 -0.1647 -0.1088
  880CHOL    R1 7938  10.785  15.312   6.604 -0.0506 -0.0246 -0.0257
  880CHOL    R2 7939  10.970  15.161   6.743 -0.1240 -0.1392 -0.0606
  880CHOL    R3 7940  10.882  15.307   6.955  0.1033  0.0084 -0.0650
  880CHOL    R4 7941  11.008  15.070   7.075 -0.3566 -0.2654 -0.0662
  880CHOL    R5 7942  10.806  15.143   7.113 -0.2416  0.1173 -0.1016
  880CHOL    C1 7943  10.949  15.155   7.466 -0.2787 -0.2003 -0.0737
  880CHOL    C2 7944  11.053  15.105   7.848  0.1787  0.0046  0.0966
  881PNCE   AM1 7945  13.101   7.542   4.540 -0.1388 -0.0045  0.0465
  881PNCE   AM2 7946  13.403   7.766   4.418  0.0764 -0.0952  0.2314
  881PNCE   T1A 7947  13.185   7.069   4.707 -0.0060  0.1962  0.0314
  881PNCE   C2A 7948  13.233   6.548   4.534  0.2056 -0.0642 -0.2475
  881PNCE   C3A 7949  13.408   6.151   4.533  0.3056 -0.2873 -0.2749
  881PNCE   C1B 7950  13.402   7.771   4.910 -0.4213 -0.0439  0.0107
  881PNCE   C2B 7951  13.383   7.729   5.294 -0.1411  0.0608  0.1341
  881PNCE   C3B 7952  13.477   7.592   5.666  0.2007  0.3220 -0.0178
  881PNCE   D4B 7953  13.244   7.438   6.083  0.0034 -0.0937  0.1817
  881PNCE   C5B 7954  13.027   7.719   6.383  0.0491  0.0808  0.1332
  881PNCE   C6B 7955  12.684   7.706   6.556  0.3452 -0.2808 -0.0005
  882XCA    COO 7956  12.276   2.200   8.622 -0.3458 -0.0049  0.0816
  882XCA     C1 7957  12.028   2.202   8.238 -0.1384  0.1335  0.0432
  882XCA     C2 7958  12.216   2.331   7.796  0.1010  0.0644 -0.1280
  882XCA     C3 7959  12.116   2.579   7.407 -0.3418 -0.4581 -0.4090
  882XCA     C4 7960  11.978   2.976   7.166  0.1121 -0.0979  0.2717
  882XCA     C5 7961  11.891   3.180   6.767  0.2604 -0.0501 -0.1051
  882XCA     C6 7962  12.061   3.170   6.312  0.0520  0.3212  0.2115
  883XCA    COO 7963  15.151   1.578   8.743  0.0785  0.2018 -0.4089
  883XCA     C1 7964  15.231   1.493   8.317 -0.1905  0.1762 -0.0701
  883XCA     C2 7965  15.578   1.355   8.156 -0.2712  0.0552  0.0422
  883XCA     C3 7966  15.664   1.264   7.779  0.4407 -0.0379  0.1708
  883XCA     C4 7967  15.927   1.031   7.492 -0.3353  0.0725  0.4091
  883XCA     C5 7968  16.066   0.672   7.474  0.1973  0.0428 -0.0557
  883XCA     C6 7969  16.235   0.285   7.730  0.0252  0.1956  0.0263
  884PNCE   AM1 7970   1.895   2.832   4.840 -0.0941  0.1450 -0.0517
  884PNCE   AM2 7971   1.706   3.105   4.689 -0.2178 -0.3540  0.1544
  884PNCE   T1A 7972   1.997   2.857   5.310  0.1847 -0.0710  0.1523
  884PNCE   C2A 7973   1.933   2.752   5.783 -0.0967 -0.3440  0.5081
  884PNCE   C3A 7974   1.730   2.788   6.138 -0.1712  0.0648 -0.0719
  884PNCE   C1B 7975   1.427   3.030   5.079  0.0003 -0.0807 -0.0897
  884PNCE   C2B 7976   1.483   2.878   5.480 -0.0462 -0.2666  0.2944
  884PNCE   C3B 7977   1.295   2.908   5.825  0.0820  0.3961 -0.1382
  884PNCE   D4B 7978   1.234   2.615   6.216 -0.2682  0.1572  0.1629
  884PNCE   C5B 7979   0.988   2.217   6.175  0.0394  0.0812 -0.2443
  884PNCE   C6B 7980   0.634   1.945   6.162 -0.0591 -0.1704  0.0390
  885CHOL   ROH 7981   0.896  12.105   4.869  0.2543  0.0342 -0.0324
  885CHOL    R1 7982   0.928  12.088   5.150  0.1500  0.0882 -0.0171
  885CHOL    R2 7983   0.730  12.167   5.327  0.0500  0.0416 -0.1060
  885CHOL    R3 7984   0.763  11.916   5.425  0.1056  0.0678 -0.0566
  885CHOL    R4 7985   0.653  12.069   5.650 -0.2117  0.0154 -0.1740
  885CHOL    R5 7986   0.835  11.949   5.651 -0.1389  0.1259  0.0147
  885CHOL    C1 7987   0.640  11.776   5.929 -0.3119  0.0246 -0.1672
  885CHOL    C2 7988   0.522  11.922   6.242  0.0847 -0.1462 -0.0072
  886XCA    COO 7989  15.063   4.053   4.252 -0.0456 -0.1159  0.4267
  886XCA     C1 7990  14.725   4.025   4.465  0.1318  0.0909  0.3061
  886XCA     C2 7991  14.473   3.948   4.885 -0.0313  0.1707  0.0568
  886XCA     C3 7992  14.434   4.147   5.312 -0.2468 -0.0891 -0.0007
  886XCA     C4 7993  14.691   4.225   5.731 -0.0105 -0.0151 -0.2607
  886XCA     C5 7994  14.664   4.174   6.158 -0.2391  0.0695  0.0073
  886XCA     C6 7995  14.645   4.062   6.543  0.4595 -0.0909  0.0766
  887PNCE   AM1 7996   6.348  13.890   5.158  0.1135  0.1111  0.2023
  887PNCE   AM2 7997   5.993  13.839   5.232  0.2137 -0.0072  0.2163
  887PNCE   T1A 7998   6.354  13.610   5.570 -0.3021  0.1492  0.2248
  887PNCE   C2A 7999   6.557  13.253   5.813 -0.0404  0.0897 -0.0028
  887PNCE   C3A 8000   6.891  13.090   6.065 -0.0456  0.1389 -0.1837
  887PNCE   C1B 8001   6.178  14.252   5.482  0.1222 -0.0873  0.1579
  887PNCE   C2B 8002   6.506  14.485   5.365 -0.4114  0.1275  0.2979
  887PNCE   C3B 8003   6.791  14.791   5.129  0.1176 -0.0342 -0.1505
  887PNCE   D4B 8004   7.009  15.224   5.055 -0.0263 -0.2178  0.0959
  887PNCE   C5B 8005   7.202  15.380   5.325 -0.0228 -0.0410  0.0971
  887PNCE   C6B 8006   7.151  15.554   5.747 -0.0358 -0.0539  0.1014
  888PNCE   AM1 8007  13.743  11.700   5.746 -0.0751  0.3717 -0.3577
  888PNCE   AM2 8008  13.645  11.746   5.312  0.0874 -0.3767  0.2406
  888PNCE   T1A 8009  13.957  11.441   6.102 -0.1635 -0.2150  0.0838
  888PNCE   C2A 8010  14.232  11.331   6.600 -0.0803  0.3270 -0.1402
  888PNCE   C3A 8011  14.397  11.560   6.976  0.1095  0.2166  0.2162
  888PNCE   C1B 8012  13.960  11.429   5.453 -0.1166  0.0891 -0.0177
  888PNCE   C2B 8013  14.302  11.368   5.729  0.0200  0.0304  0.0097
  888PNCE   C3B 8014  14.452  10.942   5.803 -0.0084 -0.0852 -0.2451
  888PNCE   D4B 8015  14.199  10.747   6.123 -0.0248  0.2778  0.0892
  888PNCE   C5B 8016  14.112  10.496   6.432  0.0503  0.0661 -0.2182
  888PNCE   C6B 8017  14.112  10.055   6.634 -0.2864  0.1359 -0.0047
  889PNCE   AM1 8018   7.923  13.908   5.075 -0.0653  0.2305 -0.1830
  889PNCE   AM2 8019   7.954  13.545   5.118 -0.2003  0.3036 -0.0380
  889PNCE   T1A 8020   8.037  14.287   5.347  0.2168 -0.0416 -0.1467
  889PNCE   C2A 8021   8.043  14.371   5.850  0.2256 -0.2028 -0.1750
  889PNCE   C3A 8022   7.973  14.814   5.977 -0.0725  0.0902 -0.1557
  889PNCE   C1B 8023   8.141  13.777   5.552  0.2037 -0.2013  0.0941
  889PNCE   C2B 8024   8.094  13.902   5.882  0.1545  0.1308 -0.0393
  889PNCE   C3B 8025   8.182  13.907   6.263  0.4675 -0.0732 -0.0729
  889PNCE   D4B 8026   8.036  14.197   6.602 -0.2013 -0.0411 -0.0557
  889PNCE   C5B 8027   8.375  14.181   6.787  0.2358 -0.0600 -0.4297
  889PNCE   C6B 8028   8.518  14.086   7.189  0.0227 -0.0092  0.0884
  890CHOL   ROH 8029   4.920   9.651   8.983 -0.0541  0.1060 -0.0148
  890CHOL    R1 8030   4.909   9.779   8.730 -0.0976  0.0590 -0.0370
  890CHOL    R2 8031   5.126   9.793   8.561 -0.1026  0.0998 -0.0427
  890CHOL    R3 8032   4.954   9.681   8.383 -0.0696  0.0125 -0.0197
  890CHOL    R4 8033   5.204   9.713   8.234 -0.0971  0.0992 -0.0412
  890CHOL    R5 8034   5.008   9.786   8.174 -0.1294  0.0127 -0.0333
  890CHOL    C1 8035   5.088   9.561   7.876 -0.0631  0.0170 -0.0185
  890CHOL    C2 8036   4.946   9.194   7.667  0.1598 -0.1067  0.0314
  891PNCE   AM1 8037   2.826   5.501   5.045 -0.0722  0.4146  0.0392
  891PNCE   AM2 8038   2.716   5.201   4.907 -0.1459 -0.1322 -0.0252
  891PNCE   T1A 8039   2.444   5.394   5.242  0.3580  0.0012 -0.2407
  891PNCE   C2A 8040   2.002   5.592   5.346 -0.0832  0.2166  0.0368
  891PNCE   C3A 8041   1.806   5.565   5.782  0.1446 -0.1539 -0.0240
  891PNCE   C1B 8042   2.584   4.889   5.222  0.2622  0.1982  0.0216
  891PNCE   C2B 8043   2.498   4.839   5.627 -0.2506  0.0467 -0.1314
  891PNCE   C3B 8044   2.565   4.933   6.059 -0.0141  0.0578  0.0535
  891PNCE   D4B 8045   2.718   5.019   6.412  0.1293 -0.1090  0.1938
  891PNCE   C5B 8046   2.555   5.304   6.782 -0.2614  0.0226  0.2362
  891PNCE   C6B 8047   2.276   5.719   6.782  0.0512 -0.0575  0.0500
  892PNCE   AM1 8048   1.317   3.964   4.621 -0.0730  0.1532 -0.1803
  892PNCE   AM2 8049   1.193   3.783   4.408 -0.0675  0.1311 -0.1317
  892PNCE   T1A 8050   1.383   3.952   5.037 -0.0397 -0.2112  0.1118
  892PNCE   C2A 8051   1.345   3.800   5.437  0.2948 -0.0481  0.2161
  892PNCE   C3A 8052   1.213   3.442   5.745  0.1149 -0.2519  0.1355
  892PNCE   C1B 8053   1.124   3.544   4.813 -0.1401 -0.0408  0.1406
  892PNCE   C2B 8054   1.150   3.398   5.130 -0.2487  0.1318 -0.0225
  892PNCE   C3B 8055   0.995   3.107   5.421  0.2284  0.0045  0.3598
  892PNCE   D4B 8056   0.736   3.185   5.826 -0.3138 -0.0826 -0.2514
  892PNCE   C5B 8057   0.867   2.994   6.252 -0.1363  0.0933 -0.1095
  892PNCE   C6B 8058   0.966   2.959   6.621  0.1785  0.2109 -0.1119
  893CHOL   ROH 8059   7.081  12.190   5.647 -0.2898  0.2238  0.1357
  893CHOL    R1 8060   6.941  12.144   5.889 -0.1842  0.1196  0.1771
  893CHOL    R2 8061   6.693  12.022   5.896 -0.1480  0.0526  0.2393
  893CHOL    R3 8062   6.817  11.854   6.071 -0.0375  0.0360  0.1467
  893CHOL    R4 8063   6.534  11.844   6.146 -0.0197 -0.1124  0.2058
  893CHOL    R5 8064   6.702  11.888   6.278 -0.0079 -0.0924  0.1865
  893CHOL    C1 8065   6.557  11.583   6.455  0.1586 -0.2242  0.0994
  893CHOL    C2 8066   6.471  11.421   6.857  0.1409 -0.1034 -0.0311
  894XCA    COO 8067  12.646   9.159   8.868 -0.3586 -0.2693  0.4201
  894XCA     C1 8068  12.594   9.168   8.399 -0.2262 -0.1301 -0.0922
  894XCA     C2 8069  12.726   9.168   8.042  0.1497 -0.0581 -0.1339
  894XCA     C3 8070  12.649   9.129   7.744 -0.1123 -0.0796 -0.0294
  894XCA     C4 8071  12.414   8.820   7.498 -0.0466  0.0257 -0.2109
  894XCA     C5 8072  12.233   8.603   7.209 -0.0867 -0.3793  0.1344
  894XCA     C6 8073  12.123   8.444   6.902  0.0535  0.0803  0.0426
  895PNCE   AM1 8074   2.611   8.428   7.325  0.3520 -0.0663 -0.2083
  895PNCE   AM2 8075   2.258   8.312   7.291  0.0624 -0.0434 -0.2294
  895PNCE   T1A 8076   2.816   8.494   6.925 -0.0839 -0.0934 -0.0095
  895PNCE   C2A 8077   2.987   8.696   6.564 -0.0940  0.2414 -0.3480
  895PNCE   C3A 8078   3.354   8.955   6.339 -0.1773  0.0458  0.0627
  895PNCE   C1B 8079   2.371   8.203   6.850  0.0265  0.1283  0.0915
  895PNCE   C2B 8080   2.322   8.097   6.438 -0.1949 -0.2392 -0.0973
  895PNCE   C3B 8081   2.281   8.006   5.928 -0.2114 -0.2188  0.0024
  895PNCE   D4B 8082   2.319   7.975   5.443 -0.1531  0.0328  0.1354
  895PNCE   C5B 8083   1.919   8.019   5.158  0.0008  0.2952 -0.0823
  895PNCE   C6B 8084   1.614   8.201   4.805 -0.1052 -0.1634 -0.0838
  896XCA    COO 8085  12.676   8.706   8.689  0.1356 -0.0903  0.0416
  896XCA     C1 8086  12.252   8.842   8.521  0.1562  0.1184 -0.0338
  896XCA     C2 8087  11.760   8.628   8.674 -0.0733  0.1249  0.2147
  896XCA     C3 8088  11.427   8.596   8.346 -0.2650 -0.3352  0.0505
  896XCA     C4 8089  11.166   8.622   8.074 -0.1746  0.2535  0.1291
  896XCA     C5 8090  10.904   8.557   7.710  0.0706 -0.3664 -0.0747
  896XCA     C6 8091  10.771   8.921   7.403 -0.1303  0.3292 -0.0600
  897CHOL   ROH 8092   3.518   4.211   7.988  0.2061  0.1277 -0.1242
  897CHOL    R1 8093   3.509   4.387   7.766 -0.0282  0.2042 -0.0560
  897CHOL    R2 8094   3.583   4.309   7.511  0.0095  0.3856 -0.1012
  897CHOL    R3 8095   3.335   4.399   7.446 -0.1013  0.1387 -0.0179
  897CHOL    R4 8096   3.422   4.246   7.212  0.0140  0.3133 -0.0885
  897CHOL    R5 8097   3.350   4.452   7.213 -0.2081  0.2342 -0.0026
  897CHOL    C1 8098   3.096   4.294   6.977 -0.0874  0.0394 -0.0029
  897CHOL    C2 8099   3.242   4.521   6.716 -0.4188  0.3664  0.0254
  898CHOL   ROH 8100   1.740   9.400   5.809  0.1190  0.0649 -0.0901
  898CHOL    R1 8101   1.887   9.170   5.731  0.0863 -0.0484  0.1724
  898CHOL    R2 8102   1.864   8.928   5.862 -0.4407 -0.0730  0.0551
  898CHOL    R3 8103   1.810   8.835   5.611  0.0358  0.0601 -0.1067
  898CHOL    R4 8104   1.829   8.594   5.776 -0.6090 -0.0137 -0.1158
  898CHOL    R5 8105   1.939   8.635   5.593 -0.1319 -0.0754  0.1402
  898CHOL    C1 8106   1.758   8.314   5.492 -0.2598  0.1459 -0.3673
  898CHOL    C2 8107   1.837   8.037   5.714  0.2020  0.1524 -0.0640
  899CHOL   ROH 8108  12.018  10.754   8.469  0.1678  0.1540  0.0969
  899CHOL    R1 8109  12.036  10.658   8.203  0.0083  0.1517  0.0864
  899CHOL    R2 8110  12.120  10.402   8.143  0.0976  0.1930  0.0319
  899CHOL    R3 8111  11.884  10.390   8.009 -0.0053  0.0620  0.2194
  899CHOL    R4 8112  12.056  10.198   7.871  0.0576  0.2962 -0.0369
  899CHOL    R5 8113  11.946  10.362   7.779 -0.1667  0.2546  0.1487
  899CHOL    C1 8114  11.797  10.068   7.587 -0.0620  0.2333  0.0990
  899CHOL    C2 8115  11.698  10.216   7.148 -0.2366 -0.2966 -0.0637
  900CHOL   ROH 8116  13.583  15.389   4.888 -0.1188 -0.0646 -0.0354
  900CHOL    R1 8117  13.414  15.498   5.086  0.0147 -0.1145  0.1065
  900CHOL    R2 8118  13.500  15.550   5.343  0.2564  0.0447 -0.0095
  900CHOL    R3 8119  13.405  15.799   5.290  0.0124 -0.0411  0.0018
  900CHOL    R4 8120  13.323  15.746   5.566  0.0306 -0.1583 -0.0051
  900CHOL    R5 8121  13.194  15.808   5.402 -0.0158 -0.2698 -0.0198
  900CHOL    C1 8122  13.131  16.094   5.646 -0.3300 -0.3571  0.0082
  900CHOL    C2 8123  13.321  16.176   5.993  0.0182  0.0191  0.2098
  901CHOL   ROH 8124   8.754   9.701   7.155 -0.1271  0.0175  0.0629
  901CHOL    R1 8125   8.801   9.975   7.210  0.0626 -0.0062  0.0253
  901CHOL    R2 8126   8.999  10.120   7.083 -0.0955 -0.0610 -0.2910
  901CHOL    R3 8127   8.793  10.287   7.022 -0.1441  0.0233  0.0793
  901CHOL    R4 8128   9.026  10.463   7.052  0.0475 -0.0933 -0.5485
  901CHOL    R5 8129   8.835  10.482   7.155  0.2797  0.0791 -0.1164
  901CHOL    C1 8130   8.849  10.820   6.976  0.0853 -0.0330 -0.3508
  901CHOL    C2 8131   8.731  10.949   6.674  0.1278 -0.4083  0.1293
  902PNCE   AM1 8132   1.367  12.391   8.798 -0.0020  0.0332  0.4187
  902PNCE   AM2 8133   1.625  12.427   8.988 -0.2111 -0.1185  0.2003
  902PNCE   T1A 8134   1.441  12.036   8.411  0.0755  0.1713 -0.0844
  902PNCE   C2A 8135   1.554  11.751   8.135  0.4452  0.0927  0.1051
  902PNCE   C3A 8136   1.755  11.398   7.917  0.0338 -0.1585  0.1095
  902PNCE   C1B 8137   2.094  12.285   8.996  0.1339 -0.0435  0.2667
  902PNCE   C2B 8138   2.333  12.199   8.664 -0.0441  0.2351  0.0697
  902PNCE   C3B 8139   2.523  12.362   8.276 -0.0190  0.2699  0.0444
  902PNCE   D4B 8140   2.384  12.362   7.932 -0.3031  0.1793  0.2133
  902PNCE   C5B 8141   2.531  12.031   7.662  0.0164  0.3927  0.1723
  902PNCE   C6B 8142   2.590  11.652   7.453 -0.0989 -0.0182 -0.4182
  903CHOL   ROH 8143  12.432   8.460   6.169  0.3338 -0.0675  0.3768
  903CHOL    R1 8144  12.163   8.432   6.255  0.2931  0.0594  0.3007
  903CHOL    R2 8145  12.029   8.190   6.248  0.0456  0.1877 -0.1050
  903CHOL    R3 8146  11.986   8.243   6.511  0.0870 -0.1861 -0.0200
  903CHOL    R4 8147  11.748   8.096   6.425 -0.0325  0.1600 -0.2449
  903CHOL    R5 8148  11.752   8.290   6.525  0.1344 -0.0037  0.0556
  903CHOL    C1 8149  11.544   8.091   6.775 -0.0390 -0.2070 -0.2467
  903CHOL    C2 8150  11.165   7.914   6.984 -0.0136 -0.3053 -0.0920
  904PNCE   AM1 8151   3.934   0.509   4.863  0.2889  0.0033 -0.0891
  904PNCE   AM2 8152   3.738   0.463   4.687 -0.0317 -0.0230 -0.0529
  904PNCE   T1A 8153   4.046   0.611   5.383 -0.0894  0.1454 -0.0298
  904PNCE   C2A 8154   4.157   0.608   5.834 -0.0711  0.3073  0.0522
  904PNCE   C3A 8155   3.982   0.713   6.284 -0.2011 -0.0951 -0.1904
  904PNCE   C1B 8156   3.467   0.552   5.148 -0.3371 -0.2062  0.1745
  904PNCE   C2B 8157   3.567   0.507   5.566 -0.2373 -0.1670 -0.0876
  904PNCE   C3B 8158   3.761   0.285   6.070 -0.0626 -0.1799  0.0328
  904PNCE   D4B 8159   3.755   0.316   6.524  0.0752  0.2702  0.0130
  904PNCE   C5B 8160   3.760   0.668   6.836  0.1130  0.1695 -0.4555
  904PNCE   C6B 8161   3.899   0.543   7.198  0.2010  0.2602  0.1158
  905CHOL   ROH 8162   0.307   3.319   4.615 -0.0285  0.1469 -0.0200
  905CHOL    R1 8163   0.276   3.565   4.750  0.1242  0.1437  0.0246
  905CHOL    R2 8164   0.236   3.582   5.023  0.0280  0.1139  0.0173
  905CHOL    R3 8165   0.451   3.747   5.012  0.1750 -0.0667  0.1367
  905CHOL    R4 8166   0.309   3.826   5.256 -0.0459  0.2419 -0.0931
  905CHOL    R5 8167   0.369   3.957   5.093  0.2505  0.0642 -0.1277
  905CHOL    C1 8168   0.555   4.124   5.381  0.0490  0.1469 -0.0451
  905CHOL    C2 8169   0.594   4.092   5.765 -0.0475  0.2059  0.1731
  906PNCE   AM1 8170   8.237   9.374   4.682  0.2192 -0.0145 -0.1203
  906PNCE   AM2 8171   8.469   9.464   4.498  0.1771  0.0493  0.1156
  906PNCE   T1A 8172   8.149   9.117   5.033 -0.0362 -0.0533  0.0041
  906PNCE   C2A 8173   8.099   8.790   5.301  0.1278 -0.3070  0.0077
  906PNCE   C3A 8174   8.050   8.606   5.785 -0.1220  0.3545  0.2452
  906PNCE   C1B 8175   8.583   9.065   4.727  0.1672 -0.0401  0.3464
  906PNCE   C2B 8176   8.664   8.777   5.118 -0.2962  0.0474  0.0913
  906PNCE   C3B 8177   8.878   8.732   5.434 -0.2158 -0.0217 -0.1154
  906PNCE   D4B 8178   8.857   8.854   5.919 -0.2648  0.0335 -0.0962
  906PNCE   C5B 8179   8.839   8.509   6.168  0.0502 -0.0566 -0.2251
  906PNCE   C6B 8180   9.130   8.087   6.263  0.0361  0.2915  0.1289
  907PNCE   AM1 8181  15.673   8.565   4.236 -0.0953  0.1190  0.0016
  907PNCE   AM2 8182  15.429   8.373   4.455 -0.1968 -0.0501  0.1909
  907PNCE   T1A 8183  15.960   8.376   4.568  0.1142  0.2762  0.0291
  907PNCE   C2A 8184  16.385   8.285   4.531 -0.0158 -0.0872 -0.2686
  907PNCE   C3A 8185  16.775   8.340   4.677 -0.3175 -0.1782  0.1727
  907PNCE   C1B 8186  15.426   8.365   4.870  0.0458  0.6464  0.2077
  907PNCE   C2B 8187  15.423   8.413   5.261  0.2485  0.1149 -0.4695
  907PNCE   C3B 8188  15.628   8.379   5.685 -0.0359 -0.1519 -0.0210
  907PNCE   D4B 8189  15.910   8.519   6.114  0.2933  0.1370 -0.0161
  907PNCE   C5B 8190  15.859   8.904   6.286 -0.1436 -0.1139  0.2896
  907PNCE   C6B 8191  15.812   8.980   6.717 -0.1759 -0.0501 -0.0973
  908PNCE   AM1 8192   2.254   4.092   9.208  0.4167 -0.0907  0.0534
  908PNCE   AM2 8193   2.541   4.339   9.339 -0.1920 -0.1358  0.3141
  908PNCE   T1A 8194   2.175   4.177   8.705  0.0802 -0.0592 -0.1089
  908PNCE   C2A 8195   2.193   4.078   8.345 -0.0886  0.0278  0.2215
  908PNCE   C3A 8196   2.012   3.810   8.149  0.0045  0.0229  0.2205
  908PNCE   C1B 8197   2.616   4.300   8.915 -0.1307 -0.1415  0.1625
  908PNCE   C2B 8198   2.662   4.118   8.488 -0.2103  0.0952  0.0726
  908PNCE   C3B 8199   2.644   4.179   8.006 -0.2821 -0.1086  0.1597
  908PNCE   D4B 8200   2.493   4.004   7.688 -0.1406 -0.3734  0.2330
  908PNCE   C5B 8201   2.152   3.611   7.641  0.0489 -0.1965  0.1853
  908PNCE   C6B 8202   1.843   3.274   7.523 -0.2494 -0.3099 -0.1763
  909PNCE   AM1 8203  13.480  14.970   5.016 -0.0828 -0.1698 -0.0977
  909PNCE   AM2 8204  13.249  14.729   4.845  0.0088 -0.2325 -0.1199
  909PNCE   T1A 8205  13.393  15.072   5.422 -0.2414 -0.1575 -0.1546
  909PNCE   C2A 8206  13.181  15.309   5.848 -0.0278  0.0325  0.0496
  909PNCE   C3A 8207  13.477  15.248   6.218 -0.1646 -0.3472  0.0880
  909PNCE   C1B 8208  13.054  14.813   5.165  0.1125  0.3763 -0.1132
  909PNCE   C2B 8209  12.961  14.911   5.575  0.0500 -0.2265  0.0110
  909PNCE   C3B 8210  12.883  14.832   5.914 -0.0929  0.1355 -0.2867
  909PNCE   D4B 8211  12.983  15.083   6.259  0.2338  0.1691  0.2777
  909PNCE   C5B 8212  13.012  15.531   6.338 -0.0948 -0.2199  0.1156
  909PNCE   C6B 8213  12.975  15.968   6.318  0.0546 -0.2949  0.1401
  910XCA    COO 8214   5.343  13.326   9.754  0.0237  0.0657  0.0314
  910XCA     C1 8215   5.152  13.215   9.393  0.2419  0.1255 -0.2062
  910XCA     C2 8216   5.173  12.983   9.016  0.3258 -0.2057 -0.0133
  910XCA     C3 8217   5.186  13.133   8.605 -0.1821 -0.2047  0.4695
  910XCA     C4 8218   5.141  13.437   8.298  0.0204 -0.2670  0.5563
  910XCA     C5 8219   5.289  13.519   7.803 -0.1141  0.1648  0.0058
  910XCA     C6 8220   5.647  13.753   7.629 -0.0345 -0.2018 -0.0289
  911PNCE   AM1 8221  14.855   6.017   4.023 -0.1689 -0.0027  0.3775
  911PNCE   AM2 8222  14.614   6.198   4.289 -0.0849  0.1228 -0.1312
  911PNCE   T1A 8223  15.034   5.850   4.274  0.1092 -0.2357  0.1201
  911PNCE   C2A 8224  15.106   5.627   4.758 -0.0511 -0.3715  0.1905
  911PNCE   C3A 8225  14.723   5.339   4.969  0.4006  0.3695  0.2921
  911PNCE   C1B 8226  14.399   6.237   4.670 -0.2034 -0.0628  0.1379
  911PNCE   C2B 8227  14.224   6.174   5.078  0.2688  0.2822  0.1323
  911PNCE   C3B 8228  14.051   6.085   5.412  0.0563 -0.1288  0.1484
  911PNCE   D4B 8229  13.719   5.999   5.726 -0.0436  0.1616  0.0543
  911PNCE   C5B 8230  13.668   5.578   5.934  0.0730 -0.3584  0.1303
  911PNCE   C6B 8231  13.445   5.308   6.219  0.0393  0.0881 -0.0097
  912CHOL   ROH 8232   3.552  13.436   8.864 -0.2407  0.2927 -0.0468
  912CHOL    R1 8233   3.469  13.481   8.597 -0.0768  0.1759 -0.1196
  912CHOL    R2 8234   3.566  13.689   8.444  0.0620  0.0740 -0.1732
  912CHOL    R3 8235   3.626  13.490   8.269  0.1150 -0.0318 -0.0359
  912CHOL    R4 8236   3.713  13.735   8.135  0.0503 -0.0993 -0.2050
  912CHOL    R5 8237   3.579  13.583   8.054  0.0904 -0.1915 -0.1015
  912CHOL    C1 8238   3.854  13.575   7.790  0.0932 -0.2995 -0.0949
  912CHOL    C2 8239   4.078  13.500   7.412  0.0591 -0.2014 -0.0069
  913CHOL   ROH 8240   8.617  10.088   5.161  0.0118 -0.0152  0.0909
  913CHOL    R1 8241   8.609  10.255   5.390  0.0323 -0.0835  0.1409
  913CHOL    R2 8242   8.697  10.171   5.638  0.1963 -0.1049  0.0727
  913CHOL    R3 8243   8.850  10.395   5.623  0.0689 -0.0170  0.0652
  913CHOL    R4 8244   8.846  10.327   5.908  0.2663 -0.1300  0.0495
  913CHOL    R5 8245   8.793  10.519   5.820  0.1112 -0.1212  0.1476
  913CHOL    C1 8246   9.075  10.628   6.052  0.1875 -0.0620  0.0289
  913CHOL    C2 8247   9.065  10.909   6.281 -0.2712 -0.1930  0.0160
  914CHOL   ROH 8248  13.827   3.484   7.866  0.0175 -0.1536  0.0346
  914CHOL    R1 8249  13.813   3.277   7.674  0.1518 -0.1410  0.0110
  914CHOL    R2 8250  13.748   3.323   7.409  0.0864 -0.1567  0.0262
  914CHOL    R3 8251  13.982   3.193   7.362  0.1799  0.0233 -0.0196
  914CHOL    R4 8252  13.834   3.174   7.110  0.1468 -0.0796  0.0043
  914CHOL    R5 8253  13.920   3.008   7.223  0.2944 -0.0204 -0.0157
  914CHOL    C1 8254  14.104   2.964   6.892  0.2696  0.1342 -0.0514
  914CHOL    C2 8255  14.260   3.253   6.656  0.2529 -0.0234 -0.3719
  915XCA    COO 8256   7.222  13.234   8.982  0.1537  0.0390  0.1368
  915XCA     C1 8257   7.453  13.362   8.653  0.0475 -0.2423 -0.2734
  915XCA     C2 8258   7.589  13.502   8.300 -0.0128 -0.2923  0.3172
  915XCA     C3 8259   7.501  13.401   7.901  0.2753  0.0476  0.2819
  915XCA     C4 8260   7.522  13.099   7.678  0.1211 -0.1842  0.2232
  915XCA     C5 8261   7.569  12.699   7.478  0.0715 -0.0672 -0.0307
  915XCA     C6 8262   7.451  12.384   7.210 -0.0400  0.0192  0.3358
  916PNCE   AM1 8263  11.860   4.676   4.293  0.2287  0.1240  0.2357
  916PNCE   AM2 8264  12.052   4.460   4.138 -0.0910  0.2816  0.1140
  916PNCE   T1A 8265  11.853   4.843   4.714 -0.0656 -0.0849  0.2277
  916PNCE   C2A 8266  11.888   4.862   5.068 -0.3749  0.2993  0.0203
  916PNCE   C3A 8267  11.774   4.955   5.362 -0.0740 -0.0790 -0.0580
  916PNCE   C1B 8268  12.330   4.137   4.332  0.1347 -0.0406  0.2584
  916PNCE   C2B 8269  12.424   4.032   4.756  0.1301 -0.1228 -0.2559
  916PNCE   C3B 8270  12.323   3.971   5.219 -0.2035  0.0726 -0.0093
  916PNCE   D4B 8271  12.235   3.967   5.694  0.0823 -0.1481  0.2268
  916PNCE   C5B 8272  12.543   4.276   5.924  0.0783  0.0556  0.1049
  916PNCE   C6B 8273  12.915   4.272   6.111  0.0901  0.3875 -0.0086
  917CHOL   ROH 8274   8.500   0.705   6.762  0.0899  0.1414  0.0849
  917CHOL    R1 8275   8.676   0.629   6.555 -0.0091  0.0458  0.0368
  917CHOL    R2 8276   8.614   0.660   6.287 -0.0232  0.1766  0.0635
  917CHOL    R3 8277   8.850   0.795   6.281  0.0991 -0.0311  0.0552
  917CHOL    R4 8278   8.781   0.755   5.999 -0.1664  0.3706  0.0408
  917CHOL    R5 8279   8.968   0.700   6.096 -0.1317  0.0750 -0.1607
  917CHOL    C1 8280   9.100   0.936   5.826 -0.1348  0.2886  0.0197
  917CHOL    C2 8281   9.048   0.948   5.419 -0.0257  0.1540 -0.0631
  918CHOL   ROH 8282  12.606   6.762   8.564 -0.0804 -0.1986  0.0901
  918CHOL    R1 8283  12.556   6.969   8.378  0.0862 -0.1744  0.0705
  918CHOL    R2 8284  12.660   6.968   8.122 -0.0120 -0.3450  0.0287
  918CHOL    R3 8285  12.400   6.999   8.051 -0.0088 -0.0594  0.1258
  918CHOL    R4 8286  12.551   7.056   7.806 -0.0411 -0.3606  0.0343
  918CHOL    R5 8287  12.401   7.184   7.899  0.1534 -0.1311  0.0387
  918CHOL    C1 8288  12.243   7.136   7.555 -0.0552 -0.1014  0.1286
  918CHOL    C2 8289  12.021   7.481   7.382  0.2027 -0.0258  0.0075
  919CHOL   ROH 8290  14.162   9.435   4.671 -0.2842  0.0092  0.1043
  919CHOL    R1 8291  14.138   9.571   4.918 -0.1506  0.0351  0.1036
  919CHOL    R2 8292  14.065   9.442   5.151 -0.0410  0.0634  0.1530
  919CHOL    R3 8293  14.295   9.552   5.246  0.0138  0.0582  0.0277
  919CHOL    R4 8294  14.132   9.502   5.485  0.0709  0.2143  0.1043
  919CHOL    R5 8295  14.224   9.692   5.427  0.0984  0.1662 -0.0195
  919CHOL    C1 8296  14.387   9.640   5.768  0.1874  0.2973 -0.0416
  919CHOL    C2 8297  14.498   9.952   5.803  0.0368 -0.2104 -0.0385
  920CHOL   ROH 8298  14.404   7.532   7.796  0.1219  0.0699 -0.0266
  920CHOL    R1 8299  14.375   7.521   7.514  0.1277  0.2123 -0.0339
  920CHOL    R2 8300  14.170   7.382   7.391  0.3240 -0.0148 -0.1170
  920CHOL    R3 8301  14.124   7.621   7.270 -0.0355  0.0031  0.0458
  920CHOL    R4 8302  14.062   7.421   7.065  0.4033  0.0472 -0.1355
  920CHOL    R5 8303  14.199   7.590   7.045  0.1237  0.3040  0.0537
  920CHOL    C1 8304  13.955   7.669   6.762  0.1119  0.1001  0.0065
  920CHOL    C2 8305  14.078   7.702   6.364 -0.3054  0.2082  0.0349
  921PNCE   AM1 8306   1.999  12.794   5.505 -0.0616 -0.0525  0.3496
  921PNCE   AM2 8307   2.403  12.819   5.555 -0.0322 -0.0925 -0.0447
  921PNCE   T1A 8308   1.635  12.681   5.770 -0.1026  0.0640  0.3727
  921PNCE   C2A 8309   1.355  12.438   6.086 -0.3243 -0.0399 -0.2706
  921PNCE   C3A 8310   1.401  12.421   6.541  0.2873 -0.0759  0.1636
  921PNCE   C1B 8311   2.770  13.005   5.804 -0.1036  0.2590 -0.3829
  921PNCE   C2B 8312   2.858  12.961   6.379  0.0533 -0.1433  0.1441
  921PNCE   C3B 8313   2.834  12.882   6.828 -0.0519  0.0079  0.4353
  921PNCE   D4B 8314   2.896  12.998   7.160 -0.0251  0.0502  0.2525
  921PNCE   C5B 8315   3.289  12.826   7.422 -0.2125 -0.1055 -0.2211
  921PNCE   C6B 8316   3.462  12.520   7.467  0.0859  0.2241  0.2194
  922CHOL   ROH 8317   1.990   4.171   4.727  0.1673  0.1427 -0.0524
  922CHOL    R1 8318   1.967   4.221   5.004  0.1194  0.1430 -0.0567
  922CHOL    R2 8319   1.739   4.330   5.117  0.1190  0.1894 -0.1033
  922CHOL    R3 8320   1.751   4.110   5.276  0.0385  0.1842 -0.1037
  922CHOL    R4 8321   1.585   4.301   5.425  0.0615  0.2238 -0.1284
  922CHOL    R5 8322   1.763   4.198   5.498  0.0243  0.1785 -0.1006
  922CHOL    C1 8323   1.507   4.077   5.753 -0.0476  0.2388 -0.1433
  922CHOL    C2 8324   1.522   3.713   5.972 -0.2060 -0.3207  0.2406
  923PNCE   AM1 8325  11.607  12.882   8.646  0.0566 -0.2887 -0.5296
  923PNCE   AM2 8326  11.434  12.689   8.558 -0.0971 -0.0951 -0.0299
  923PNCE   T1A 8327  11.804  13.122   8.294 -0.2450 -0.3169  0.3292
  923PNCE   C2A 8328  11.892  13.081   7.882  0.3633 -0.0501 -0.0397
  923PNCE   C3A 8329  12.214  13.180   7.556 -0.0378  0.1726 -0.1093
  923PNCE   C1B 8330  11.286  12.613   8.117 -0.2129 -0.1361  0.3545
  923PNCE   C2B 8331  11.052  12.359   7.777  0.0860  0.0036 -0.0552
  923PNCE   C3B 8332  10.770  12.427   7.493  0.0262  0.3238  0.0463
  923PNCE   D4B 8333  10.481  12.585   7.182 -0.1033  0.2592 -0.2360
  923PNCE   C5B 8334  10.443  12.645   6.699  0.1043 -0.2582 -0.0820
  923PNCE   C6B 8335  10.841  12.505   6.586 -0.2542 -0.0224 -0.1942
  924PNCE   AM1 8336   7.543   7.771   5.147 -0.3182 -0.0461 -0.2638
  924PNCE   AM2 8337   7.678   7.554   5.238  0.1946  0.1851  0.3214
  924PNCE   T1A 8338   7.679   7.930   5.530 -0.1169 -0.1997  0.2708
  924PNCE   C2A 8339   7.609   7.913   5.966 -0.1093 -0.2155 -0.1791
  924PNCE   C3A 8340   7.473   7.931   6.298  0.1100 -0.3591 -0.1588
  924PNCE   C1B 8341   7.676   7.263   5.566  0.0319 -0.1640  0.0560
  924PNCE   C2B 8342   7.514   7.296   5.934 -0.0319  0.0442  0.0087
  924PNCE   C3B 8343   7.190   7.554   6.163 -0.1499 -0.0649 -0.0055
  924PNCE   D4B 8344   7.000   8.042   6.241 -0.1822  0.1531  0.4275
  924PNCE   C5B 8345   7.236   8.445   6.408  0.0402  0.3409  0.2375
  924PNCE   C6B 8346   7.419   8.781   6.462 -0.4084  0.1115  0.1765
  925CHOL   ROH 8347   2.971   1.936   4.954 -0.0607 -0.2956  0.0241
  925CHOL    R1 8348   2.932   1.869   5.226  0.0682 -0.2845  0.0456
  925CHOL    R2 8349   3.080   1.675   5.354  0.3440 -0.0642  0.0685
  925CHOL    R3 8350   3.131   1.875   5.531  0.1114  0.0454  0.0152
  925CHOL    R4 8351   3.179   1.629   5.682  0.0959  0.1380  0.1754
  925CHOL    R5 8352   3.048   1.793   5.740 -0.0252  0.1106 -0.0117
  925CHOL    C1 8353   3.284   1.790   6.039 -0.2669  0.3587  0.1874
  925CHOL    C2 8354   3.156   1.843   6.345 -0.4044  0.1861  0.2768
  926CHOL   ROH 8355   9.877   6.437   8.139  0.2620  0.2819  0.0967
  926CHOL    R1 8356   9.922   6.343   7.876  0.0390  0.2082  0.0828
  926CHOL    R2 8357   9.926   6.511   7.656 -0.0007  0.1674  0.0499
  926CHOL    R3 8358  10.169   6.397   7.614 -0.0935  0.0156 -0.0850
  926CHOL    R4 8359  10.033   6.379   7.355 -0.1972  0.2206 -0.0447
  926CHOL    R5 8360  10.124   6.215   7.465 -0.2717  0.1097 -0.1478
  926CHOL    C1 8361  10.323   6.195   7.140 -0.3989  0.1091 -0.2263
  926CHOL    C2 8362  10.145   6.103   6.749 -0.0468  0.1239  0.2375
  927PNCE   AM1 8363   4.957   3.549   4.016  0.1930  0.0052  0.0622
  927PNCE   AM2 8364   4.859   3.853   4.038 -0.5826  0.1764  0.2307
  927PNCE   T1A 8365   5.372   3.445   4.359 -0.0298 -0.3063 -0.0791
  927PNCE   C2A 8366   5.635   3.609   4.609 -0.1018  0.0403  0.0181
  927PNCE   C3A 8367   5.571   3.931   4.838  0.0982  0.2478 -0.1696
  927PNCE   C1B 8368   4.618   3.619   4.315 -0.1745 -0.1512  0.2433
  927PNCE   C2B 8369   4.237   3.600   4.547 -0.0025  0.0245  0.1807
  927PNCE   C3B 8370   3.894   3.636   4.863  0.3253 -0.2407 -0.2284
  927PNCE   D4B 8371   3.716   3.542   5.095 -0.0840 -0.3531 -0.2613
  927PNCE   C5B 8372   3.350   3.784   5.173  0.0506  0.0328 -0.1471
  927PNCE   C6B 8373   2.973   3.873   5.475 -0.2477 -0.0895  0.0380
  928CHOL   ROH 8374   0.902   8.845   4.621 -0.0292 -0.1885  0.0536
  928CHOL    R1 8375   0.991   8.840   4.890  0.0419 -0.1175  0.0311
  928CHOL    R2 8376   1.082   9.065   5.021 -0.0300 -0.0628 -0.0197
  928CHOL    R3 8377   0.894   8.996   5.204  0.0507 -0.1289  0.0406
  928CHOL    R4 8378   1.078   9.173   5.349 -0.2149  0.3270 -0.1432
  928CHOL    R5 8379   1.016   8.972   5.408  0.0754  0.2945  0.0880
  928CHOL    C1 8380   0.898   9.171   5.712 -0.2469  0.4919 -0.1585
  928CHOL    C2 8381   0.679   9.177   6.009 -0.0318  0.0809  0.0225
  929CHOL   ROH 8382   3.835   4.475   6.419  0.2182 -0.1559 -0.0297
  929CHOL    R1 8383   3.634   4.336   6.563 -0.0052 -0.0031 -0.1894
  929CHOL    R2 8384   3.481   4.137   6.449  0.1645 -0.1136 -0.2211
  929CHOL    R3 8385   3.569   3.992   6.662 -0.1611  0.0969  0.0684
  929CHOL    R4 8386   3.342   3.839   6.557  0.2185 -0.1965 -0.3754
  929CHOL    R5 8387   3.369   3.907   6.763 -0.3149 -0.0480 -0.3359
  929CHOL    C1 8388   3.343   3.530   6.820 -0.0557 -0.0471 -0.1934
  929CHOL    C2 8389   3.104   3.253   6.930 -0.2125 -0.1645  0.0363
  930CHOL   ROH 8390   2.944  14.784   5.737  0.2728  0.1009 -0.1568
  930CHOL    R1 8391   3.181  14.714   5.875  0.1542 -0.0240 -0.0134
  930CHOL    R2 8392   3.190  14.689   6.150  0.0035  0.0830  0.0056
  930CHOL    R3 8393   3.289  14.442   6.092 -0.1600 -0.0190  0.1544
  930CHOL    R4 8394   3.397  14.506   6.358  0.1870  0.2332 -0.0431
  930CHOL    R5 8395   3.511  14.445   6.182 -0.0481 -0.0026 -0.1179
  930CHOL    C1 8396   3.610  14.169   6.426  0.1405  0.2250  0.0682
  930CHOL    C2 8397   3.906  14.085   6.687 -0.0868 -0.1122  0.1227
  931CHOL   ROH 8398  10.896  14.788   8.109 -0.0316 -0.1260  0.2053
  931CHOL    R1 8399  11.150  14.673   8.057  0.0427  0.0747  0.1143
  931CHOL    R2 8400  11.181  14.441   7.910  0.1559  0.0051  0.2514
  931CHOL    R3 8401  11.350  14.595   7.764 -0.0800  0.0643  0.0311
  931CHOL    R4 8402  11.390  14.323   7.662  0.1863 -0.0016  0.2795
  931CHOL    R5 8403  11.545  14.458   7.735  0.0680  0.2527  0.0876
  931CHOL    C1 8404  11.671  14.399   7.380 -0.0175  0.0500  0.0890
  931CHOL    C2 8405  11.599  14.309   7.040 -0.2868 -0.2234 -0.2640
  932XCA    COO 8406   5.574   7.343   5.100  0.0735 -0.1183 -0.1281
  932XCA     C1 8407   5.412   7.088   5.474  0.0362  0.1076 -0.0043
  932XCA     C2 8408   5.409   6.882   5.869 -0.4238  0.1745  0.1380
  932XCA     C3 8409   5.648   6.856   6.184 -0.1458  0.0767 -0.2508
  932XCA     C4 8410   6.004   6.805   6.543 -0.4289  0.1790 -0.5005
  932XCA     C5 8411   6.370   6.740   6.875 -0.0734 -0.0513 -0.0470
  932XCA     C6 8412   6.402   6.496   7.161  0.0183 -0.0710 -0.1189
  933XCA    COO 8413  12.508   6.412   4.046  0.0725 -0.0733  0.0024
  933XCA     C1 8414  12.458   6.500   4.476  0.0277  0.1196  0.1880
  933XCA     C2 8415  12.310   6.779   4.815  0.0249 -0.0162 -0.2019
  933XCA     C3 8416  12.196   7.154   4.944 -0.1958  0.2021 -0.1149
  933XCA     C4 8417  12.239   7.513   5.143  0.0973 -0.0890  0.0935
  933XCA     C5 8418  12.487   7.772   5.386  0.0867 -0.1542  0.0125
  933XCA     C6 8419  12.440   8.049   5.781 -0.1538  0.3022  0.0964
  934CHOL   ROH 8420   7.263   5.898   8.181  0.0574 -0.0246 -0.0579
  934CHOL    R1 8421   7.254   5.940   7.901  0.2805 -0.0568 -0.0740
  934CHOL    R2 8422   7.327   5.745   7.719  0.1472 -0.1895 -0.0054
  934CHOL    R3 8423   7.079   5.793   7.618  0.2619  0.1130 -0.1468
  934CHOL    R4 8424   7.244   5.726   7.384  0.2348 -0.3412 -0.0177
  934CHOL    R5 8425   7.121   5.905   7.410  0.5080 -0.1324 -0.2228
  934CHOL    C1 8426   6.964   5.760   7.094  0.3934 -0.1456 -0.1576
  934CHOL    C2 8427   6.723   5.838   6.780 -0.1445 -0.0408  0.4631
  935PNCE   AM1 8428   1.515   9.645   9.212  0.0702 -0.1966  0.0316
  935PNCE   AM2 8429   1.405   9.663   8.790 -0.1565 -0.0625  0.2387
  935PNCE   T1A 8430   1.942   9.714   8.927 -0.0277  0.0489  0.0895
  935PNCE   C2A 8431   2.268   9.531   8.832 -0.1551 -0.0534  0.0183
  935PNCE   C3A 8432   2.677   9.554   8.719 -0.0132  0.0527 -0.0943
  935PNCE   C1B 8433   1.420  10.029   8.547 -0.2859 -0.2356 -0.1562
  935PNCE   C2B 8434   1.284  10.338   8.276  0.1423 -0.1633 -0.1066
  935PNCE   C3B 8435   1.278  10.753   7.973 -0.0063  0.0859 -0.0706
  935PNCE   D4B 8436   1.261  10.811   7.548 -0.1772 -0.3112 -0.1057
  935PNCE   C5B 8437   1.271  10.410   7.477 -0.1283 -0.1424  0.1082
  935PNCE   C6B 8438   1.351  10.110   7.688  0.2259  0.2822  0.1117
  936CHOL   ROH 8439   9.575   6.477   4.879 -0.1320 -0.1181  0.0058
  936CHOL    R1 8440   9.619   6.480   5.159 -0.2215 -0.1152  0.0187
  936CHOL    R2 8441   9.794   6.656   5.280 -0.1202 -0.2453  0.0459
  936CHOL    R3 8442   9.576   6.718   5.431 -0.1152 -0.0431 -0.0236
  936CHOL    R4 8443   9.805   6.802   5.593 -0.0622 -0.3662  0.1022
  936CHOL    R5 8444   9.644   6.670   5.655 -0.2522 -0.2074 -0.0087
  936CHOL    C1 8445   9.606   6.945   5.917 -0.0237 -0.2468  0.0699
  936CHOL    C2 8446   9.780   6.878   6.289 -0.0824 -0.0132 -0.2071
  937PNCE   AM1 8447  11.750   5.581   4.063 -0.0171  0.0225  0.0437
  937PNCE   AM2 8448  11.740   5.790   4.166 -0.1755  0.0609 -0.2248
  937PNCE   T1A 8449  11.787   5.356   4.409 -0.1322 -0.2483  0.0176
  937PNCE   C2A 8450  11.878   5.391   4.876  0.1404  0.3954  0.0612
  937PNCE   C3A 8451  12.033   5.407   5.302 -0.0904 -0.0446 -0.1689
  937PNCE   C1B 8452  11.808   5.844   4.658 -0.2371 -0.2297 -0.0483
  937PNCE   C2B 8453  11.828   5.884   4.997 -0.0079  0.2108 -0.2884
  937PNCE   C3B 8454  12.065   5.916   5.402 -0.2085 -0.4486 -0.1854
  937PNCE   D4B 8455  12.170   5.817   5.763 -0.1974 -0.2122 -0.2002
  937PNCE   C5B 8456  12.308   6.145   6.032 -0.2972 -0.3315 -0.2709
  937PNCE   C6B 8457  12.579   6.543   6.087  0.1183 -0.1196 -0.1509
  938XCA    COO 8458   0.898  14.178   8.402 -0.3318 -0.0847 -0.0367
  938XCA     C1 8459   0.801  14.298   8.015  0.0687  0.0271 -0.1443
  938XCA     C2 8460   0.722  14.275   7.655  0.0739 -0.1868  0.0162
  938XCA     C3 8461   0.756  14.113   7.247  0.0067 -0.0320 -0.1571
  938XCA     C4 8462   0.728  14.235   6.852 -0.0164  0.1825  0.2408
  938XCA     C5 8463   0.405  14.141   6.594 -0.3823 -0.1777 -0.1921
  938XCA     C6 8464   0.223  14.224   6.250 -0.0482 -0.1793  0.2213
  939CHOL   ROH 8465  10.784  10.261   4.729 -0.2087  0.3659 -0.0833
  939CHOL    R1 8466  10.856  10.152   4.980 -0.2820  0.2617 -0.1070
  939CHOL    R2 8467  10.903  10.308   5.202 -0.1293  0.1866 -0.0836
  939CHOL    R3 8468  10.716  10.146   5.316 -0.2616  0.3266 -0.0977
  939CHOL    R4 8469  10.800  10.325   5.532 -0.0185  0.1522 -0.0470
  939CHOL    R5 8470  10.798  10.107   5.537 -0.2366  0.1512 -0.1373
  939CHOL    C1 8471  10.566  10.183   5.830 -0.0780  0.2634 -0.0389
  939CHOL    C2 8472  10.697  10.170   6.201 -0.1900 -0.2246  0.2102
  940CHOL   ROH 8473   9.724   3.409   8.063 -0.0683 -0.1703 -0.0779
  940CHOL    R1 8474   9.818   3.381   7.798 -0.1562 -0.1558 -0.1107
  940CHOL    R2 8475   9.670   3.460   7.578 -0.1221  0.0997 -0.0437
  940CHOL    R3 8476   9.894   3.603   7.520  0.0206 -0.1123 -0.0298
  940CHOL    R4 8477   9.721   3.637   7.286 -0.0580  0.2830  0.0761
  940CHOL    R5 8478   9.928   3.568   7.285 -0.1345  0.0384 -0.0776
  940CHOL    C1 8479   9.961   3.874   7.061  0.1134  0.1905  0.1590
  940CHOL    C2 8480  10.115   4.163   6.873  0.4497 -0.3407 -0.1089
  941CHOL   ROH 8481  13.923   5.475   8.039 -0.1406 -0.0631  0.2889
  941CHOL    R1 8482  13.734   5.388   7.848 -0.0840 -0.0566  0.2301
  941CHOL    R2 8483  13.719   5.496   7.594 -0.0967  0.0457  0.2750
  941CHOL    R3 8484  13.742   5.237   7.517  0.0142  0.0871  0.1656
  941CHOL    R4 8485  13.681   5.383   7.270 -0.3693  0.1246  0.2763
  941CHOL    R5 8486  13.574   5.209   7.348 -0.1544  0.0174  0.3407
  941CHOL    C1 8487  13.681   5.073   7.008 -0.4239  0.2094  0.1743
  941CHOL    C2 8488  13.810   5.139   6.578  0.1940 -0.0507 -0.1908
  942PNCE   AM1 8489   2.657  10.645   5.723 -0.1087  0.0508 -0.1676
  942PNCE   AM2 8490   2.939  10.803   5.832 -0.3370 -0.0197  0.3753
  942PNCE   T1A 8491   2.618  10.502   6.195 -0.0815 -0.0847  0.2415
  942PNCE   C2A 8492   2.496  10.644   6.575 -0.1744 -0.0721 -0.2429
  942PNCE   C3A 8493   2.400  10.731   7.038 -0.0817 -0.1140  0.0948
  942PNCE   C1B 8494   3.294  10.888   6.159 -0.2499  0.1814 -0.0311
  942PNCE   C2B 8495   3.390  11.047   6.545 -0.0576 -0.1961  0.3195
  942PNCE   C3B 8496   3.417  10.782   6.826  0.2430  0.0616 -0.0211
  942PNCE   D4B 8497   3.412  10.291   6.896  0.2241 -0.1232  0.0245
  942PNCE   C5B 8498   3.838  10.174   7.030  0.4989  0.0864 -0.1347
  942PNCE   C6B 8499   4.253  10.489   6.968 -0.0542 -0.2138  0.1963
  943PNCE   AM1 8500  10.041   3.417   4.523 -0.0229 -0.0279  0.4239
  943PNCE   AM2 8501   9.861   3.594   4.186  0.1465 -0.3451 -0.1403
  943PNCE   T1A 8502  10.081   2.956   4.745  0.3554  0.0438 -0.1208
  943PNCE   C2A 8503   9.846   2.709   5.048 -0.0883 -0.1639  0.1539
  943PNCE   C3A 8504   9.668   2.302   5.153 -0.0363  0.0459  0.1260
  943PNCE   C1B 8505   9.428   3.376   4.252  0.2431  0.1851  0.1799
  943PNCE   C2B 8506   9.276   2.884   4.253  0.0364  0.0500  0.0924
  943PNCE   C3B 8507   9.287   2.444   4.164 -0.0879  0.1965  0.2105
  943PNCE   D4B 8508   8.950   2.234   4.403 -0.0809 -0.0348  0.2724
  943PNCE   C5B 8509   8.511   2.215   4.456  0.0562 -0.0205  0.2260
  943PNCE   C6B 8510   8.165   2.271   4.739 -0.2898 -0.3144  0.0116
  944PNCE   AM1 8511   0.171  10.713   4.904  0.1826 -0.0846 -0.0959
  944PNCE   AM2 8512   0.344  10.942   4.769 -0.1123 -0.1640 -0.2320
  944PNCE   T1A 8513  -0.037  10.361   5.085 -0.4259 -0.1123 -0.0645
  944PNCE   C2A 8514  -0.275  10.000   5.279 -0.3740  0.0781  0.5181
  944PNCE   C3A 8515  -0.506   9.718   5.518 -0.0856  0.0605 -0.1254
  944PNCE   C1B 8516   0.262  10.918   5.360 -0.1041  0.4111  0.4199
  944PNCE   C2B 8517  -0.061  10.594   5.620  0.0476 -0.0479  0.2544
  944PNCE   C3B 8518  -0.289  10.212   5.681  0.1171  0.0532  0.5010
  944PNCE   D4B 8519  -0.144   9.713   5.798 -0.0972 -0.2953 -0.2488
  944PNCE   C5B 8520   0.228   9.517   5.959 -0.1441 -0.0483  0.1123
  944PNCE   C6B 8521   0.471   9.744   6.285 -0.1068  0.3600 -0.1008
  945CHOL   ROH 8522  12.583  15.729   6.728  0.0547  0.0671  0.0470
  945CHOL    R1 8523  12.397  15.596   6.561  0.0774  0.1308 -0.0289
  945CHOL    R2 8524  12.180  15.456   6.660  0.0811  0.0699 -0.1102
  945CHOL    R3 8525  12.041  15.618   6.492  0.0809  0.1363 -0.0477
  945CHOL    R4 8526  11.864  15.388   6.537  0.0718  0.1247 -0.1177
  945CHOL    R5 8527  11.928  15.467   6.344  0.0672  0.1902 -0.0955
  945CHOL    C1 8528  11.549  15.500   6.308  0.0662  0.2190 -0.0634
  945CHOL    C2 8529  11.345  15.771   6.013  0.0900 -0.0017  0.1637
  946CHOL   ROH 8530  15.417   4.508   6.345  0.0937  0.1153 -0.0264
  946CHOL    R1 8531  15.488   4.589   6.606 -0.0451  0.1992 -0.0166
  946CHOL    R2 8532  15.687   4.465   6.752 -0.3292  0.0572  0.2350
  946CHOL    R3 8533  15.785   4.717   6.772 -0.0375 -0.0439  0.1750
  946CHOL    R4 8534  15.946   4.560   6.960 -0.2895 -0.1989  0.3095
  946CHOL    R5 8535  15.836   4.743   7.005 -0.1022 -0.0347  0.2016
  946CHOL    C1 8536  16.189   4.853   7.100  0.0074 -0.4429  0.2965
  946CHOL    C2 8537  16.313   4.949   7.275 -0.3129  0.0538 -0.1558
  947XCA    COO 8538  14.551   0.172   5.001 -0.2378  0.0865 -0.2353
  947XCA     C1 8539  14.692  -0.070   5.278  0.0206  0.1992 -0.2412
  947XCA     C2 8540  14.765  -0.248   5.693  0.2397  0.4438  0.0031
  947XCA     C3 8541  15.039  -0.179   6.034 -0.2143  0.0263 -0.0754
  947XCA     C4 8542  15.280   0.005   6.259 -0.3783  0.2194 -0.0915
  947XCA     C5 8543  15.545  -0.236   6.593  0.0299  0.0868 -0.1648
  947XCA     C6 8544  15.719  -0.281   7.036 -0.0272  0.2131  0.0629
  948PNCE   AM1 8545   1.830  15.007   5.289  0.0211  0.2624 -0.0713
  948PNCE   AM2 8546   1.526  15.086   5.421  0.0323  0.1609  0.3670
  948PNCE   T1A 8547   2.194  15.142   5.556  0.0222 -0.0044  0.1270
  948PNCE   C2A 8548   2.477  15.398   5.860  0.0495  0.1994  0.0568
  948PNCE   C3A 8549   2.677  15.223   6.180  0.1186 -0.1857  0.0835
  948PNCE   C1B 8550   1.685  15.161   5.847  0.0597 -0.0769  0.3602
  948PNCE   C2B 8551   2.027  15.144   6.042 -0.0006 -0.0337  0.0259
  948PNCE   C3B 8552   2.235  15.462   6.271 -0.0173  0.1958  0.0286
  948PNCE   D4B 8553   2.380  15.575   6.538  0.1051  0.0958  0.1630
  948PNCE   C5B 8554   2.718  15.388   6.797  0.0102  0.3008  0.1460
  948PNCE   C6B 8555   3.100  15.270   6.769  0.3182  0.4123 -0.2360
  949XCA    COO 8556  15.699   7.533   4.292 -0.0496 -0.3016 -0.1918
  949XCA     C1 8557  15.489   7.578   4.753 -0.0513  0.0120 -0.1084
  949XCA     C2 8558  15.510   7.540   5.281 -0.0623 -0.2051  0.3855
  949XCA     C3 8559  15.424   7.442   5.610  0.2153 -0.2165  0.1901
  949XCA     C4 8560  15.346   7.278   5.893  0.1333  0.0799  0.0088
  949XCA     C5 8561  15.478   7.164   6.245 -0.0190  0.0227  0.0166
  949XCA     C6 8562  15.404   6.965   6.538 -0.0389  0.3036 -0.0249
  950CHOL   ROH 8563   9.574   3.529   4.648  0.1632 -0.0556  0.0497
  950CHOL    R1 8564   9.612   3.673   4.889  0.0872 -0.1523  0.1202
  950CHOL    R2 8565   9.502   3.922   4.933  0.3306 -0.0329  0.0580
  950CHOL    R3 8566   9.402   3.803   5.156 -0.0355  0.0343 -0.0629
  950CHOL    R4 8567   9.387   4.091   5.212  0.5569  0.0526  0.1013
  950CHOL    R5 8568   9.482   3.938   5.336  0.1779 -0.2393  0.0592
  950CHOL    C1 8569   9.227   4.077   5.584  0.3450  0.1655  0.0128
  950CHOL    C2 8570   9.105   3.934   5.909 -0.2643  0.0281  0.1052
  951CHOL   ROH 8571   4.447  10.422   6.007 -0.0757 -0.1048 -0.0227
  951CHOL    R1 8572   4.552  10.470   6.265 -0.0123  0.0257 -0.0705
  951CHOL    R2 8573   4.472  10.328   6.488 -0.0615  0.2270  0.0524
  951CHOL    R3 8574   4.738  10.281   6.515 -0.0830  0.0999  0.0361
  951CHOL    R4 8575   4.624  10.210   6.775 -0.0753  0.2428  0.0648
  951CHOL    R5 8576   4.788  10.349   6.739 -0.0146  0.1425  0.0019
  951CHOL    C1 8577   4.963  10.098   6.968 -0.1034  0.1327  0.0568
  951CHOL    C2 8578   5.291  10.162   7.252 -0.1725  0.2515 -0.0854
  952XCA    COO 8579  14.260   2.359   7.757  0.2881 -0.1367 -0.1223
  952XCA     C1 8580  14.626   2.172   7.584  0.0821 -0.2118  0.0820
  952XCA     C2 8581  14.867   2.069   7.201  0.2953  0.0166  0.0326
  952XCA     C3 8582  15.220   2.041   6.988  0.1043  0.2295  0.2627
  952XCA     C4 8583  15.671   2.159   6.843 -0.0347 -0.1349 -0.3445
  952XCA     C5 8584  15.846   2.536   6.799  0.2496  0.0469  0.0318
  952XCA     C6 8585  15.639   2.936   6.748 -0.1481  0.2742  0.0709
  953CHOL   ROH 8586   1.515   6.916   5.138  0.0539  0.2349 -0.2126
  953CHOL    R1 8587   1.314   6.815   5.310  0.1279  0.0716 -0.2197
  953CHOL    R2 8588   1.246   6.939   5.548  0.1307 -0.0732 -0.1414
  953CHOL    R3 8589   0.996   6.933   5.443  0.1112 -0.1143 -0.0926
  953CHOL    R4 8590   0.955   6.969   5.731  0.1622 -0.0278 -0.0985
  953CHOL    R5 8591   0.866   6.814   5.606  0.1446 -0.0682 -0.0338
  953CHOL    C1 8592   0.550   6.980   5.739  0.1622 -0.0398 -0.0278
  953CHOL    C2 8593   0.709   7.226   6.101 -0.0091 -0.3370 -0.0016
  954PNCE   AM1 8594  15.286   7.244   4.129  0.1250  0.0913 -0.0801
  954PNCE   AM2 8595  15.142   7.461   4.399  0.1201 -0.2396  0.4405
  954PNCE   T1A 8596  14.939   7.045   4.479  0.1398 -0.1927 -0.2635
  954PNCE   C2A 8597  14.655   7.210   4.812  0.1278  0.3654 -0.1790
  954PNCE   C3A 8598  14.689   7.223   5.236  0.0097 -0.0361 -0.2068
  954PNCE   C1B 8599  14.971   7.564   4.898  0.2511  0.0174  0.3083
  954PNCE   C2B 8600  14.991   7.554   5.403  0.0848  0.0669  0.0606
  954PNCE   C3B 8601  14.975   7.496   5.769  0.0574  0.1927 -0.1688
  954PNCE   D4B 8602  14.889   7.388   6.218 -0.0607 -0.1952  0.1595
  954PNCE   C5B 8603  15.221   7.492   6.487  0.0527 -0.1008 -0.1229
  954PNCE   C6B 8604  15.463   7.770   6.601  0.0409  0.0044  0.0910
  955XCA    COO 8605  12.076  10.787   4.785  0.2994 -0.1483  0.0801
  955XCA     C1 8606  11.873  10.635   5.256  0.1243  0.0626  0.3175
  955XCA     C2 8607  11.972  10.361   5.537  0.1875  0.2304  0.2014
  955XCA     C3 8608  11.678  10.080   5.758 -0.0049  0.1458 -0.3187
  955XCA     C4 8609  11.505  10.132   6.117  0.0055  0.1925  0.0709
  955XCA     C5 8610  11.154  10.278   6.322 -0.2929 -0.0358  0.2929
  955XCA     C6 8611  10.893  10.523   6.734  0.0181  0.0960 -0.0253
  956PNCE   AM1 8612  11.234  10.594   4.489 -0.0774  0.1755 -0.0993
  956PNCE   AM2 8613  11.141  10.867   4.551  0.0289 -0.0864 -0.0647
  956PNCE   T1A 8614  11.282  10.414   4.930  0.3051 -0.0115  0.0920
  956PNCE   C2A 8615  11.440  10.471   5.346 -0.0358 -0.1267 -0.1071
  956PNCE   C3A 8616  11.583  10.527   5.840 -0.1165  0.0904 -0.0748
  956PNCE   C1B 8617  10.932  10.806   4.929 -0.1831  0.0910 -0.0987
  956PNCE   C2B 8618  10.949  10.801   5.383  0.2444  0.0460  0.1923
  956PNCE   C3B 8619  10.726  10.672   5.825  0.0708  0.1171 -0.3554
  956PNCE   D4B 8620  10.277  10.623   6.007 -0.0378 -0.1735 -0.1270
  956PNCE   C5B 8621   9.964  10.955   6.135 -0.3248  0.1379  0.1372
  956PNCE   C6B 8622   9.503  11.152   6.190  0.1550 -0.2091 -0.1024
  957CHOL   ROH 8623  14.237   8.223   4.858  0.1547  0.0614 -0.1368
  957CHOL    R1 8624  14.243   8.233   5.141  0.3237  0.1095 -0.1415
  957CHOL    R2 8625  14.122   8.043   5.300 -0.1192  0.4602 -0.0415
  957CHOL    R3 8626  14.369   8.024   5.411 -0.0981 -0.1821 -0.1609
  957CHOL    R4 8627  14.183   7.981   5.634 -0.1480  0.7202  0.0145
  957CHOL    R5 8628  14.345   8.127   5.626  0.3376  0.2075 -0.2808
  957CHOL    C1 8629  14.451   7.926   5.933 -0.1449  0.2687 -0.0650
  957CHOL    C2 8630  14.514   7.923   6.299  0.1634  0.0354 -0.0965
  958PNCE   AM1 8631   7.114   5.903   4.473 -0.2775  0.2832  0.3417
  958PNCE   AM2 8632   7.269   5.652   4.412 -0.0112 -0.0468 -0.0742
  958PNCE   T1A 8633   7.219   6.038   4.792 -0.0441 -0.0561 -0.1835
  958PNCE   C2A 8634   7.488   6.189   5.014  0.1889 -0.0454  0.2454
  958PNCE   C3A 8635   7.809   6.436   5.160  0.0976 -0.1059 -0.0691
  958PNCE   C1B 8636   7.230   5.157   4.480  0.0878  0.0022  0.2319
  958PNCE   C2B 8637   6.935   4.977   4.658  0.2491 -0.2749  0.0344
  958PNCE   C3B 8638   6.592   4.960   4.964  0.4265  0.0788 -0.1016
  958PNCE   D4B 8639   6.541   4.670   5.288  0.0717 -0.2378 -0.2488
  958PNCE   C5B 8640   6.544   4.774   5.709  0.2904  0.1380  0.0036
  958PNCE   C6B 8641   6.368   4.691   6.111  0.0284  0.3459  0.1929
  959CHOL   ROH 8642  10.902   7.136   4.606 -0.0112  0.0412  0.0405
  959CHOL    R1 8643  10.754   7.073   4.839 -0.0280  0.0796  0.0408
  959CHOL    R2 8644  10.789   6.836   4.978 -0.1025  0.0608  0.0317
  959CHOL    R3 8645  10.829   7.004   5.188 -0.0431  0.0409  0.0360
  959CHOL    R4 8646  10.730   6.757   5.309  0.1017 -0.0063  0.0529
  959CHOL    R5 8647  10.648   6.956   5.338  0.0539 -0.0381  0.1269
  959CHOL    C1 8648  10.733   6.868   5.699  0.2765 -0.0640  0.0692
  959CHOL    C2 8649  10.625   6.916   6.034 -0.1335  0.1068  0.2411
  960CHOL   ROH 8650   7.892   6.007   6.469  0.0394  0.0797 -0.0811
  960CHOL    R1 8651   7.701   6.216   6.472  0.0434  0.0860 -0.0619
  960CHOL    R2 8652   7.595   6.318   6.705  0.0004  0.0343 -0.0481
  960CHOL    R3 8653   7.681   6.555   6.604  0.0344  0.0502  0.0235
  960CHOL    R4 8654   7.416   6.613   6.716 -0.0666 -0.0019 -0.2084
  960CHOL    R5 8655   7.483   6.655   6.512  0.0965  0.0091 -0.1457
  960CHOL    C1 8656   7.392   7.008   6.626 -0.0737 -0.0081 -0.2345
  960CHOL    C2 8657   7.104   7.151   6.359 -0.1987 -0.1176  0.0537
  961PNCE   AM1 8658  15.621   3.372   4.474 -0.3347 -0.1715 -0.0911
  961PNCE   AM2 8659  15.472   3.482   4.247 -0.0832  0.0219 -0.0373
  961PNCE   T1A 8660  15.369   3.516   4.900  0.1101 -0.1619  0.1992
  961PNCE   C2A 8661  15.179   3.300   5.201 -0.0850 -0.2861 -0.3283
  961PNCE   C3A 8662  14.956   3.051   5.107 -0.3258 -0.0679  0.1007
  961PNCE   C1B 8663  15.471   3.861   4.526 -0.0737  0.0868 -0.0444
  961PNCE   C2B 8664  15.241   4.149   4.779 -0.0588  0.3405  0.1756
  961PNCE   C3B 8665  14.951   4.124   5.093 -0.5859 -0.2361  0.4604
  961PNCE   D4B 8666  14.894   4.494   5.374  0.2778 -0.0592  0.1690
  961PNCE   C5B 8667  15.214   4.779   5.518  0.3848 -0.0526  0.3344
  961PNCE   C6B 8668  15.236   5.224   5.710  0.0054 -0.1458 -0.1166
  962CHOL   ROH 8669  14.501   1.236   7.127  0.2201 -0.3083 -0.2130
  962CHOL    R1 8670  14.672   1.348   7.322  0.0157 -0.1569 -0.1169
  962CHOL    R2 8671  14.671   1.266   7.586 -0.0219 -0.1951 -0.1283
  962CHOL    R3 8672  14.937   1.229   7.542  0.0397  0.0849 -0.0118
  962CHOL    R4 8673  14.895   1.146   7.820 -0.0145 -0.0508 -0.0606
  962CHOL    R5 8674  15.041   1.292   7.748 -0.1232  0.1196  0.0606
  962CHOL    C1 8675  15.276   1.042   7.915  0.0476  0.2961  0.0881
  962CHOL    C2 8676  15.539   0.837   8.033  0.2733 -0.3748 -0.0848
  963PNCE   AM1 8677  13.203  11.467   5.059 -0.0105 -0.1326 -0.0339
  963PNCE   AM2 8678  12.998  11.239   4.970 -0.0639 -0.1599  0.0077
  963PNCE   T1A 8679  12.988  11.461   5.460 -0.0130  0.0446  0.0063
  963PNCE   C2A 8680  12.878  11.614   5.897 -0.0678  0.0676 -0.2401
  963PNCE   C3A 8681  12.685  11.488   6.281  0.1942 -0.1277 -0.1737
  963PNCE   C1B 8682  12.806  10.874   4.947  0.1839 -0.1895  0.3563
  963PNCE   C2B 8683  12.488  10.716   5.143  0.1881 -0.1988  0.3859
  963PNCE   C3B 8684  12.317  10.718   5.580 -0.1863 -0.2907  0.0566
  963PNCE   D4B 8685  11.975  10.793   5.910 -0.2257 -0.0626 -0.1727
  963PNCE   C5B 8686  11.991  10.973   6.305  0.3083 -0.0718  0.0616
  963PNCE   C6B 8687  12.014  10.955   6.744 -0.1823  0.1776 -0.1671
  964CHOL   ROH 8688   7.596  10.041   4.954  0.2025  0.0175  0.0353
  964CHOL    R1 8689   7.513   9.984   5.219  0.0480  0.0575 -0.0039
  964CHOL    R2 8690   7.623   9.779   5.368 -0.1293 -0.0024  0.0457
  964CHOL    R3 8691   7.666   9.978   5.549 -0.1096 -0.0277  0.0690
  964CHOL    R4 8692   7.748   9.733   5.687 -0.2057 -0.0609  0.0675
  964CHOL    R5 8693   7.606   9.882   5.759 -0.1787 -0.0264  0.0502
  964CHOL    C1 8694   7.861   9.893   6.042 -0.2315 -0.1187  0.1022
  964CHOL    C2 8695   7.718   9.789   6.312 -0.2117 -0.1591  0.0034
  965XCA    COO 8696  14.440   0.576   4.557  0.2279  0.2857  0.2425
  965XCA     C1 8697  14.179   0.605   4.932 -0.1130 -0.0136 -0.1218
  965XCA     C2 8698  13.826   0.860   5.086 -0.3882 -0.1894 -0.2306
  965XCA     C3 8699  13.788   1.061   5.473 -0.0023  0.2992  0.0626
  965XCA     C4 8700  13.445   1.209   5.815 -0.0369  0.1576  0.0769
  965XCA     C5 8701  13.263   1.390   6.196 -0.1189 -0.3229  0.1809
  965XCA     C6 8702  13.286   1.421   6.550  0.0189  0.4602 -0.0437
  966XCA    COO 8703  11.591   0.551   4.498 -0.0216 -0.0916 -0.2524
  966XCA     C1 8704  11.752   0.753   4.879  0.1945  0.0586  0.1121
  966XCA     C2 8705  11.940   0.862   5.205  0.0219 -0.2588  0.3284
  966XCA     C3 8706  12.014   1.197   5.534 -0.2295 -0.0433 -0.2582
  966XCA     C4 8707  12.157   1.252   5.903  0.0183 -0.3091 -0.3139
  966XCA     C5 8708  12.316   1.396   6.251 -0.0251 -0.3383 -0.2225
  966XCA     C6 8709  12.677   1.159   6.463 -0.2507  0.1148 -0.1486
  967PNCE   AM1 8710   4.114   4.510   4.148 -0.0628  0.2471 -0.2632
  967PNCE   AM2 8711   4.366   4.764   4.203 -0.0047  0.2349  0.1234
  967PNCE   T1A 8712   3.998   4.777   4.618  0.0950  0.2047  0.2521
  967PNCE   C2A 8713   3.714   4.984   4.877  0.0750 -0.0317 -0.0278
  967PNCE   C3A 8714   3.753   5.427   5.080 -0.1942  0.1420  0.0079
  967PNCE   C1B 8715   4.385   4.503   4.516 -0.1235 -0.1815  0.0284
  967PNCE   C2B 8716   4.576   4.349   4.945 -0.4679 -0.0899 -0.0470
  967PNCE   C3B 8717   4.456   4.317   5.350  0.2948 -0.0398  0.0648
  967PNCE   D4B 8718   4.668   3.872   5.422 -0.0192 -0.0172 -0.2958
  967PNCE   C5B 8719   4.749   3.732   5.870  0.0903  0.1362 -0.0035
  967PNCE   C6B 8720   4.711   3.975   6.238 -0.1081  0.2538  0.2436
  968PNCE   AM1 8721   4.723  11.238   5.723 -0.1424 -0.0773 -0.2871
  968PNCE   AM2 8722   4.426  11.450   5.782  0.1016 -0.0398  0.2100
  968PNCE   T1A 8723   5.072  11.178   5.996  0.1650  0.0505 -0.1830
  968PNCE   C2A 8724   5.179  11.168   6.417 -0.0423 -0.1988  0.3436
  968PNCE   C3A 8725   5.111  11.210   6.836  0.2402  0.2865  0.2796
  968PNCE   C1B 8726   4.553  11.717   6.088 -0.0785 -0.2670 -0.5423
  968PNCE   C2B 8727   4.498  11.937   6.447  0.2489  0.1560 -0.0128
  968PNCE   C3B 8728   4.431  11.959   6.849  0.0029 -0.1696 -0.2521
  968PNCE   D4B 8729   4.140  12.229   7.019  0.3986 -0.0244  0.1379
  968PNCE   C5B 8730   3.939  11.946   7.226 -0.1699 -0.0258  0.0941
  968PNCE   C6B 8731   3.753  11.576   7.511  0.0691 -0.1739 -0.2323
  969PNCE   AM1 8732   9.502  13.112   4.715 -0.1558  0.0110 -0.0350
  969PNCE   AM2 8733   9.170  13.210   4.882 -0.0530  0.0645 -0.0350
  969PNCE   T1A 8734   9.678  12.970   5.016  0.1843 -0.1152  0.1686
  969PNCE   C2A 8735   9.520  12.994   5.403  0.0955  0.1749 -0.0588
  969PNCE   C3A 8736   9.325  13.288   5.733 -0.0827  0.1978 -0.1058
  969PNCE   C1B 8737   9.274  13.480   5.279 -0.0330  0.0429  0.2798
  969PNCE   C2B 8738   9.326  13.775   5.659 -0.0849 -0.0181  0.1814
  969PNCE   C3B 8739   9.536  13.666   6.130  0.0556  0.2367 -0.3247
  969PNCE   D4B 8740   9.525  13.636   6.505 -0.2468  0.1558 -0.1487
  969PNCE   C5B 8741   9.523  13.895   6.917  0.2370 -0.2447  0.0557
  969PNCE   C6B 8742   9.466  14.335   6.939 -0.1910 -0.1579 -0.1525
  970CHOL   ROH 8743   9.984   0.220   4.592  0.1144 -0.3088  0.0079
  970CHOL    R1 8744  10.041   0.365   4.828  0.0712 -0.2150 -0.0381
  970CHOL    R2 8745   9.969   0.275   5.079 -0.0362 -0.0855 -0.0156
  970CHOL    R3 8746  10.233   0.311   5.133 -0.0437 -0.1287  0.0486
  970CHOL    R4 8747  10.105   0.292   5.396 -0.1253  0.0839  0.0141
  970CHOL    R5 8748  10.235   0.453   5.326 -0.0586 -0.0050 -0.0466
  970CHOL    C1 8749  10.432   0.337   5.631 -0.1843  0.1420  0.0917
  970CHOL    C2 8750  10.209   0.202   5.964 -0.3679 -0.2775 -0.3973
  971PNCE   AM1 8751  13.764  13.997   5.305 -0.3329 -0.1692 -0.1146
  971PNCE   AM2 8752  13.869  13.672   5.404 -0.1085  0.3087  0.1197
  971PNCE   T1A 8753  13.756  14.215   5.604  0.4013 -0.2822  0.1043
  971PNCE   C2A 8754  13.522  14.278   5.966  0.2044 -0.2426 -0.2725
  971PNCE   C3A 8755  13.265  14.412   6.379 -0.1788  0.0644 -0.4410
  971PNCE   C1B 8756  14.159  14.032   5.712  0.1298  0.1403 -0.0640
  971PNCE   C2B 8757  14.031  14.301   6.078 -0.0265  0.0193  0.1401
  971PNCE   C3B 8758  14.098  14.343   6.512  0.1292  0.2285 -0.0109
  971PNCE   D4B 8759  14.309  14.076   6.919 -0.0769 -0.2290 -0.1081
  971PNCE   C5B 8760  14.818  13.999   7.046 -0.0951  0.0520  0.2119
  971PNCE   C6B 8761  15.081  14.297   6.791  0.3669  0.0478 -0.0142
  972CHOL   ROH 8762  10.807   3.635   4.550  0.0272  0.0074 -0.2873
  972CHOL    R1 8763  10.829   3.754   4.806 -0.0436 -0.0953 -0.2319
  972CHOL    R2 8764  11.056   3.728   4.962 -0.0829 -0.1547 -0.1782
  972CHOL    R3 8765  11.045   4.000   4.965 -0.0889 -0.1568 -0.0756
  972CHOL    R4 8766  11.126   3.926   5.237 -0.0643 -0.2537 -0.1124
  972CHOL    R5 8767  10.958   4.053   5.182 -0.0701 -0.2381 -0.0498
  972CHOL    C1 8768  11.156   4.296   5.400 -0.0592 -0.3132  0.0221
  972CHOL    C2 8769  11.378   4.162   5.727 -0.0764  0.1847 -0.1944
  973PNCE   AM1 8770  12.855   3.522   4.016  0.3783 -0.0814 -0.1885
  973PNCE   AM2 8771  12.890   3.176   3.999 -0.0617  0.2324 -0.2191
  973PNCE   T1A 8772  13.169   3.442   4.374 -0.0182 -0.2964  0.0097
  973PNCE   C2A 8773  13.206   3.212   4.733  0.0723  0.0090  0.2926
  973PNCE   C3A 8774  13.302   3.144   5.122 -0.0492  0.0794  0.1709
  973PNCE   C1B 8775  12.758   3.190   4.398 -0.5363  0.1325 -0.2270
  973PNCE   C2B 8776  12.719   3.197   4.874  0.1161  0.1940  0.0717
  973PNCE   C3B 8777  12.736   3.169   5.343 -0.1477  0.1220 -0.1350
  973PNCE   D4B 8778  13.086   3.077   5.547  0.2895  0.0557  0.2281
  973PNCE   C5B 8779  13.225   2.789   5.787  0.1930 -0.0235  0.2724
  973PNCE   C6B 8780  13.251   2.768   6.240 -0.1072 -0.1555 -0.0501
  974XCA    COO 8781   7.176   0.926   8.187 -0.3489 -0.0781  0.2053
  974XCA     C1 8782   7.244   0.782   7.829  0.2844 -0.3031 -0.1908
  974XCA     C2 8783   7.331   0.428   7.722 -0.0443  0.0697 -0.0219
  974XCA     C3 8784   7.253   0.103   7.514 -0.1116 -0.1493  0.0718
  974XCA     C4 8785   7.244  -0.280   7.363 -0.0250  0.3320 -0.1649
  974XCA     C5 8786   7.220  -0.751   7.275 -0.1980 -0.0362 -0.2712
  974XCA     C6 8787   7.026  -0.810   6.915  0.2256 -0.1007  0.1791
  975CHOL   ROH 8788   3.542  11.241   7.736 -0.0462  0.0504  0.1643
  975CHOL    R1 8789   3.758  11.285   7.914  0.0457 -0.0048  0.0689
  975CHOL    R2 8790   3.766  11.176   8.168  0.1114  0.0259  0.0834
  975CHOL    R3 8791   4.006  11.081   8.084  0.0398 -0.0753 -0.0084
  975CHOL    R4 8792   4.054  11.174   8.358  0.2455  0.1300 -0.1163
  975CHOL    R5 8793   4.166  11.231   8.180  0.1311 -0.0267 -0.2372
  975CHOL    C1 8794   4.448  11.084   8.390  0.2563  0.0955 -0.3187
  975CHOL    C2 8795   4.798  10.838   8.501  0.0779 -0.0573  0.1266
  976XCA    COO 8796   7.047  13.811   4.884  0.2078 -0.1562  0.1440
  976XCA     C1 8797   6.758  13.794   5.365  0.2161  0.0985  0.1463
  976XCA     C2 8798   6.606  14.060   5.689  0.0645  0.0837  0.1909
  976XCA     C3 8799   6.388  14.222   6.070 -0.1308  0.0401 -0.0145
  976XCA     C4 8800   6.548  14.591   6.283 -0.0450  0.0805  0.0452
  976XCA     C5 8801   6.616  15.032   6.096  0.0276 -0.2290  0.3026
  976XCA     C6 8802   6.355  15.265   5.956  0.1996 -0.1063  0.1288
  977PNCE   AM1 8803   7.425  10.556   5.182 -0.0714  0.0799 -0.4148
  977PNCE   AM2 8804   7.674  10.780   5.185  0.3412 -0.4159  0.1314
  977PNCE   T1A 8805   7.612  10.475   5.619  0.0951  0.1323  0.0225
  977PNCE   C2A 8806   7.829  10.431   5.977 -0.1369 -0.0005 -0.1231
  977PNCE   C3A 8807   7.868  10.321   6.378 -0.0823 -0.0692 -0.2426
  977PNCE   C1B 8808   7.665  11.053   5.613  0.2861 -0.0132  0.0501
  977PNCE   C2B 8809   7.333  11.256   5.871 -0.1413  0.3816  0.0990
  977PNCE   C3B 8810   7.234  11.580   6.238  0.1484  0.0168  0.1329
  977PNCE   D4B 8811   7.375  11.582   6.671  0.3302 -0.0666 -0.1419
  977PNCE   C5B 8812   7.120  11.231   6.914 -0.2338 -0.2548  0.1362
  977PNCE   C6B 8813   6.903  11.128   7.163  0.0221  0.3233 -0.1988
  978XCA    COO 8814   3.331  11.677   5.709  0.2293  0.4311 -0.0177
  978XCA     C1 8815   3.182  11.394   5.925 -0.1598 -0.3344 -0.2817
  978XCA     C2 8816   3.034  11.385   6.310  0.2993  0.0016  0.1359
  978XCA     C3 8817   2.761  11.166   6.583 -0.1045 -0.1043  0.0531
  978XCA     C4 8818   2.612  11.184   6.996 -0.0881 -0.0277 -0.1121
  978XCA     C5 8819   2.695  11.120   7.336 -0.0499  0.1027 -0.5578
  978XCA     C6 8820   3.115  10.986   7.411  0.2043  0.1002 -0.0206
  979PNCE   AM1 8821  10.709   3.219   4.268  0.0727  0.0178  0.1102
  979PNCE   AM2 8822  10.423   3.113   4.378 -0.2316  0.0567  0.0231
  979PNCE   T1A 8823  10.862   2.787   4.438  0.1083  0.0300  0.0696
  979PNCE   C2A 8824  11.185   2.489   4.563 -0.2402 -0.0149  0.0218
  979PNCE   C3A 8825  11.456   2.438   4.800 -0.2086 -0.0601 -0.1083
  979PNCE   C1B 8826  10.468   3.286   4.772  0.1210 -0.1969 -0.1861
  979PNCE   C2B 8827  10.463   3.397   5.199 -0.1913  0.0321 -0.0291
  979PNCE   C3B 8828  10.781   3.675   5.393  0.0182  0.1943  0.3495
  979PNCE   D4B 8829  11.063   3.709   5.681 -0.1874  0.1939  0.0136
  979PNCE   C5B 8830  11.119   3.934   6.131 -0.0231 -0.0162  0.1511
  979PNCE   C6B 8831  11.181   3.915   6.527  0.3056  0.1328  0.0227
  980PNCE   AM1 8832   2.272  10.193   5.560  0.0974 -0.0536  0.2573
  980PNCE   AM2 8833   2.161  10.427   5.673 -0.0356 -0.1743 -0.1331
  980PNCE   T1A 8834   2.576   9.866   5.675  0.0331 -0.0624 -0.1910
  980PNCE   C2A 8835   2.646   9.745   6.140 -0.1858  0.0224  0.1963
  980PNCE   C3A 8836   2.671   9.546   6.578 -0.3944 -0.0716  0.0969
  980PNCE   C1B 8837   2.155  10.473   6.109  0.0721 -0.3699 -0.1686
  980PNCE   C2B 8838   2.000  10.610   6.558  0.2327 -0.2958  0.2426
  980PNCE   C3B 8839   1.879  10.755   6.908 -0.1542 -0.2458 -0.1815
  980PNCE   D4B 8840   1.834  11.152   7.054  0.2116  0.2240 -0.0990
  980PNCE   C5B 8841   1.391  11.265   7.097  0.2241 -0.0123 -0.0536
  980PNCE   C6B 8842   1.026  11.337   6.856  0.0445 -0.1091 -0.1648
  981PNCE   AM1 8843   9.101  11.991   5.047 -0.1059 -0.2155  0.3771
  981PNCE   AM2 8844   8.981  11.685   4.963  0.1816 -0.1438 -0.1533
  981PNCE   T1A 8845   9.428  12.164   5.075 -0.0687  0.0379 -0.0582
  981PNCE   C2A 8846   9.525  12.446   5.347 -0.3184 -0.0553 -0.1277
  981PNCE   C3A 8847   9.897  12.307   5.497 -0.0226 -0.0886 -0.0146
  981PNCE   C1B 8848   9.151  11.297   5.252  0.1903  0.0642 -0.0312
  981PNCE   C2B 8849   9.134  11.033   5.515  0.0202 -0.0123 -0.0295
  981PNCE   C3B 8850   8.839  11.055   5.873  0.3976 -0.0669  0.0647
  981PNCE   D4B 8851   8.511  10.865   6.112 -0.0411  0.1205 -0.1575
  981PNCE   C5B 8852   8.051  10.901   6.092 -0.0163 -0.1069 -0.0603
  981PNCE   C6B 8853   7.563  10.791   6.033  0.0172  0.0839 -0.0387
  982CHOL   ROH 8854  14.808  13.628   5.245 -0.3115 -0.1153 -0.0887
  982CHOL    R1 8855  14.911  13.706   5.497 -0.2985 -0.1345 -0.0871
  982CHOL    R2 8856  14.977  13.967   5.557 -0.1672 -0.1561 -0.1143
  982CHOL    R3 8857  14.810  13.927   5.768 -0.2150 -0.0438 -0.1312
  982CHOL    R4 8858  15.051  14.046   5.885 -0.0949 -0.3393 -0.0859
  982CHOL    R5 8859  14.955  13.860   5.947 -0.2939 -0.2542 -0.1476
  982CHOL    C1 8860  14.937  14.054   6.274 -0.0975 -0.3407 -0.0853
  982CHOL    C2 8861  15.341  14.169   6.330 -0.0836 -0.2887 -0.2667
  983PNCE   AM1 8862  13.496  12.303   5.408  0.3433 -0.4828 -0.0154
  983PNCE   AM2 8863  13.157  12.533   5.472 -0.0987 -0.1424  0.1894
  983PNCE   T1A 8864  13.759  12.205   5.660 -0.1063 -0.1091 -0.0029
  983PNCE   C2A 8865  13.972  12.275   6.025 -0.0742  0.2013  0.0468
  983PNCE   C3A 8866  14.269  12.214   6.307  0.0735 -0.3047 -0.1069
  983PNCE   C1B 8867  13.220  12.456   5.871  0.0931  0.2859  0.1558
  983PNCE   C2B 8868  13.478  12.414   6.204  0.1526 -0.2300 -0.1289
  983PNCE   C3B 8869  13.780  12.305   6.509 -0.0462 -0.0638  0.3675
  983PNCE   D4B 8870  14.116  12.274   6.918 -0.1100 -0.2937  0.1885
  983PNCE   C5B 8871  14.552  12.520   6.930 -0.0550  0.0894 -0.3880
  983PNCE   C6B 8872  15.023  12.429   7.147 -0.3851  0.0978 -0.0650
  984XCA    COO 8873   1.893  14.599   4.728 -0.1199 -0.1797 -0.0523
  984XCA     C1 8874   1.978  14.424   5.242  0.0657  0.1086 -0.0353
  984XCA     C2 8875   1.869  14.222   5.679 -0.0954  0.0680  0.1289
  984XCA     C3 8876   1.887  14.222   6.105  0.0528 -0.0722 -0.0922
  984XCA     C4 8877   2.125  13.981   6.144  0.0705 -0.0062 -0.0038
  984XCA     C5 8878   2.162  13.553   6.078 -0.0582 -0.1671  0.2275
  984XCA     C6 8879   2.221  13.181   5.808 -0.1432  0.0206  0.1435
  985CHOL   ROH 8880  15.699   5.842   4.282 -0.0388  0.0822  0.0093
  985CHOL    R1 8881  15.688   6.004   4.514  0.0455  0.0385  0.0447
  985CHOL    R2 8882  15.453   6.054   4.649  0.0718  0.1319  0.0564
  985CHOL    R3 8883  15.592   5.960   4.863  0.0231  0.0136  0.0359
  985CHOL    R4 8884  15.356   6.090   4.979  0.1058  0.1533  0.0633
  985CHOL    R5 8885  15.565   6.129   5.031  0.1369  0.0132  0.0584
  985CHOL    C1 8886  15.431   6.022   5.372  0.0799  0.0548  0.0481
  985CHOL    C2 8887  15.513   5.981   5.718  0.1445  0.1780 -0.3886
  986CHOL   ROH 8888   6.510  12.516   6.630  0.0272 -0.0245 -0.0471
  986CHOL    R1 8889   6.611  12.626   6.870 -0.0885  0.0451 -0.0303
  986CHOL    R2 8890   6.464  12.799   7.028 -0.2773 -0.1436  0.0008
  986CHOL    R3 8891   6.520  12.618   7.223 -0.0740 -0.1160 -0.0283
  986CHOL    R4 8892   6.504  12.876   7.362  0.1025 -0.0856 -0.0521
  986CHOL    R5 8893   6.669  12.734   7.370  0.1037 -0.0997 -0.2130
  986CHOL    C1 8894   6.579  12.750   7.740  0.5145 -0.0260 -0.1102
  986CHOL    C2 8895   6.528  13.045   7.901  0.0988  0.1217 -0.2264
  987XCA    COO 8896  13.963   0.191   8.819 -0.1849  0.1245 -0.1056
  987XCA     C1 8897  13.932   0.198   8.426  0.1404  0.1670 -0.2096
  987XCA     C2 8898  14.048   0.066   7.954 -0.0907  0.0295  0.0066
  987XCA     C3 8899  14.006  -0.048   7.525  0.1931  0.0551  0.2401
  987XCA     C4 8900  13.887  -0.343   7.309  0.1481 -0.4092  0.2208
  987XCA     C5 8901  13.527  -0.679   7.076  0.0251 -0.0518 -0.1736
  987XCA     C6 8902  13.398  -0.973   7.223  0.1719  0.1113 -0.2715
  988PNCE   AM1 8903   0.085   4.505   4.201 -0.1743  0.1229 -0.3928
  988PNCE   AM2 8904   0.349   4.231   4.305 -0.0291  0.0594  0.1324
  988PNCE   T1A 8905  -0.065   4.469   4.646  0.3524  0.0501 -0.0198
  988PNCE   C2A 8906  -0.335   4.571   5.020  0.1974  0.0780  0.1835
  988PNCE   C3A 8907  -0.280   4.328   5.383  0.1698 -0.0285 -0.2282
  988PNCE   C1B 8908   0.192   4.034   4.695  0.0247  0.1342 -0.0375
  988PNCE   C2B 8909  -0.119   4.024   5.066 -0.1567 -0.1510 -0.1726
  988PNCE   C3B 8910  -0.081   3.684   5.370 -0.0874 -0.0210 -0.2041
  988PNCE   D4B 8911   0.220   3.540   5.678 -0.1357  0.2089 -0.1991
  988PNCE   C5B 8912   0.129   3.120   5.713 -0.1993 -0.1114 -0.1355
  988PNCE   C6B 8913  -0.166   2.755   5.853  0.0441  0.3091 -0.0460
  989CHOL   ROH 8914   1.225   6.975   7.889  0.0216 -0.1171  0.0624
  989CHOL    R1 8915   1.151   6.864   7.639 -0.1933 -0.1926  0.1569
  989CHOL    R2 8916   0.889   6.859   7.550 -0.2326  0.0633  0.2480
  989CHOL    R3 8917   0.995   6.984   7.332 -0.1505 -0.2016  0.1318
  989CHOL    R4 8918   0.717   6.926   7.258 -0.3290  0.3126  0.3591
  989CHOL    R5 8919   0.895   6.871   7.146 -0.5135 -0.0693  0.2370
  989CHOL    C1 8920   0.715   7.082   6.884 -0.3080  0.2090  0.3148
  989CHOL    C2 8921   0.552   7.363   6.755  0.0755 -0.0597 -0.1165
  990CHOL   ROH 8922  10.158  14.750   8.124 -0.1883  0.2658  0.0246
  990CHOL    R1 8923  10.287  14.912   7.931 -0.0167  0.1075  0.0010
  990CHOL    R2 8924  10.452  14.807   7.734 -0.2137 -0.1082 -0.0660
  990CHOL    R3 8925  10.285  14.944   7.568 -0.0856  0.1395  0.0068
  990CHOL    R4 8926  10.538  14.931   7.423 -0.1087  0.0046  0.0084
  990CHOL    R5 8927  10.424  15.110   7.467  0.0549  0.0749  0.1072
  990CHOL    C1 8928  10.432  15.130   7.086  0.0726  0.3030  0.1201
  990CHOL    C2 8929  10.365  15.391   6.845 -0.3554 -0.2800  0.1542
  991CHOL   ROH 8930   1.789   4.032   9.053 -0.1159  0.1269 -0.0708
  991CHOL    R1 8931   1.946   3.804   8.995 -0.2219  0.0477 -0.0516
  991CHOL    R2 8932   1.987   3.713   8.737 -0.1205  0.1102 -0.0593
  991CHOL    R3 8933   2.250   3.733   8.807 -0.1494 -0.0754  0.1097
  991CHOL    R4 8934   2.253   3.648   8.526 -0.0292  0.1323  0.0481
  991CHOL    R5 8935   2.355   3.550   8.692 -0.1764 -0.0443  0.0367
  991CHOL    C1 8936   2.654   3.628   8.468 -0.0032 -0.0291  0.2694
  991CHOL    C2 8937   2.592   3.658   8.100 -0.0089  0.0229 -0.1354
  992CHOL   ROH 8938   1.574  14.520   7.901 -0.0333  0.3249  0.1825
  992CHOL    R1 8939   1.760  14.681   7.762 -0.0549  0.2239  0.0324
  992CHOL    R2 8940   1.906  14.880   7.886 -0.0717  0.3550 -0.1461
  992CHOL    R3 8941   2.118  14.747   7.778 -0.0625  0.2786 -0.0331
  992CHOL    R4 8942   2.216  15.020   7.825 -0.0286  0.2745 -0.1094
  992CHOL    R5 8943   2.224  14.909   7.637  0.0084  0.2034 -0.0628
  992CHOL    C1 8944   2.596  14.976   7.689  0.0052  0.1558  0.0181
  992CHOL    C2 8945   2.764  15.294   7.767  0.0031  0.2966 -0.3120
  993CHOL   ROH 8946  10.256   5.945   5.079  0.1846 -0.0736 -0.0508
  993CHOL    R1 8947  10.144   5.900   5.335  0.1048  0.0039 -0.0719
  993CHOL    R2 8948  10.290   5.793   5.544  0.0074 -0.0431 -0.0284
  993CHOL    R3 8949  10.206   6.017   5.674  0.0810  0.0093 -0.0693
  993CHOL    R4 8950  10.255   5.821   5.887 -0.1073 -0.0095 -0.0420
  993CHOL    R5 8951  10.071   5.933   5.854 -0.0335  0.0908 -0.1161
  993CHOL    C1 8952  10.156   6.046   6.209 -0.1048  0.0593 -0.0884
  993CHOL    C2 8953  10.150   6.433   6.349 -0.0036  0.1679  0.0924
  994CHOL   ROH 8954   5.427  14.084   9.823  0.2662  0.0306  0.1925
  994CHOL    R1 8955   5.325  13.943   9.600  0.1718  0.2096  0.1210
  994CHOL    R2 8956   5.425  13.976   9.345  0.3128  0.1436  0.1708
  994CHOL    R3 8957   5.454  13.706   9.355 -0.0340  0.0986  0.1151
  994CHOL    R4 8958   5.408  13.767   9.071  0.2985  0.2629  0.0801
  994CHOL    R5 8959   5.297  13.624   9.194  0.0013  0.3539 -0.0617
  994CHOL    C1 8960   5.425  13.392   8.920 -0.0355  0.2900 -0.0252
  994CHOL    C2 8961   5.653  13.089   8.748 -0.0812 -0.0529 -0.1431
  995PNCE   AM1 8962   2.390   4.646   4.564  0.1096 -0.0974  0.0183
  995PNCE   AM2 8963   2.304   4.984   4.620 -0.2194  0.1316  0.0659
  995PNCE   T1A 8964   2.302   4.562   4.928  0.1425  0.0797 -0.1633
  995PNCE   C2A 8965   2.122   4.563   5.324  0.4053 -0.0500  0.0829
  995PNCE   C3A 8966   2.243   4.196   5.491  0.1949 -0.4947 -0.0457
  995PNCE   C1B 8967   2.117   5.004   5.027  0.1783 -0.2078  0.1247
  995PNCE   C2B 8968   2.086   5.048   5.419 -0.6774  0.1828  0.0628
  995PNCE   C3B 8969   2.125   5.081   5.843 -0.0433 -0.0801  0.5144
  995PNCE   D4B 8970   2.036   4.841   6.228 -0.2607  0.0357  0.1313
  995PNCE   C5B 8971   2.051   5.118   6.562  0.1531 -0.1616 -0.3548
  995PNCE   C6B 8972   1.865   5.431   6.782  0.1598 -0.0942 -0.0930
  996CHOL   ROH 8973   9.171  10.933   8.607 -0.0101  0.1532 -0.0551
  996CHOL    R1 8974   9.155  10.948   8.325  0.1606  0.2733 -0.0591
  996CHOL    R2 8975   8.920  10.905   8.187  0.3044  0.0537 -0.2344
  996CHOL    R3 8976   8.975  11.149   8.081  0.0776  0.1771 -0.0798
  996CHOL    R4 8977   8.760  11.042   7.913  0.4190 -0.0896 -0.3751
  996CHOL    R5 8978   8.953  11.118   7.845  0.4006  0.2184 -0.1235
  996CHOL    C1 8979   8.720  11.351   7.653  0.2727 -0.0572 -0.3119
  996CHOL    C2 8980   8.743  11.689   7.442  0.0298 -0.0479 -0.1403
  997PNCE   AM1 8981  12.617   4.452   4.081 -0.0954  0.1688 -0.2235
  997PNCE   AM2 8982  12.846   4.241   4.186 -0.1326 -0.2369  0.0025
  997PNCE   T1A 8983  12.360   4.585   4.549  0.2304  0.2388 -0.1589
  997PNCE   C2A 8984  12.529   4.591   5.035 -0.0486 -0.2573 -0.1556
  997PNCE   C3A 8985  12.681   4.404   5.474 -0.2911 -0.0448  0.0587
  997PNCE   C1B 8986  12.834   4.394   4.617 -0.0903 -0.1879 -0.0869
  997PNCE   C2B 8987  12.859   4.192   5.082 -0.3936  0.1488  0.0085
  997PNCE   C3B 8988  13.102   4.115   5.312 -0.0331  0.1173  0.0744
  997PNCE   D4B 8989  13.496   3.982   5.229 -0.1496  0.0484 -0.0771
  997PNCE   C5B 8990  13.653   3.510   5.088  0.1449  0.0715 -0.1684
  997PNCE   C6B 8991  13.772   3.108   4.887  0.0972  0.3061 -0.0799
  998PNCE   AM1 8992   0.484   8.735   4.366  0.2200  0.1087  0.1813
  998PNCE   AM2 8993   0.232   8.918   4.468  0.0672  0.1337  0.1640
  998PNCE   T1A 8994   0.500   8.712   4.828  0.0656  0.2936  0.0463
  998PNCE   C2A 8995   0.580   8.674   5.237 -0.0624 -0.2195 -0.0990
  998PNCE   C3A 8996   0.857   8.518   5.541 -0.2334  0.2468  0.1758
  998PNCE   C1B 8997  -0.077   8.842   4.670  0.1222 -0.1745 -0.1430
  998PNCE   C2B 8998  -0.307   8.872   5.064  0.3676  0.1205  0.0637
  998PNCE   C3B 8999  -0.429   8.851   5.559  0.1099  0.1043 -0.1175
  998PNCE   D4B 9000  -0.828   8.887   5.697 -0.2338  0.3527 -0.3499
  998PNCE   C5B 9001  -0.865   8.932   6.036  0.0821 -0.0235 -0.0837
  998PNCE   C6B 9002  -0.764   9.204   6.346  0.0805  0.3990 -0.2781
  999CHOL   ROH 9003  13.303   8.519   5.653 -0.1829 -0.0066  0.1547
  999CHOL    R1 9004  13.242   8.657   5.892 -0.0858 -0.1051  0.2379
  999CHOL    R2 9005  13.249   8.536   6.140  0.1021 -0.1852  0.1963
  999CHOL    R3 9006  13.415   8.742   6.201  0.0720 -0.1513  0.1624
  999CHOL    R4 9007  13.315   8.648   6.460  0.0977 -0.1295  0.1776
  999CHOL    R5 9008  13.308   8.853   6.384  0.0633 -0.1422  0.1504
  999CHOL    C1 9009  13.510   8.907   6.704  0.0670 -0.0649  0.1348
  999CHOL    C2 9010  13.376   8.775   6.975 -0.0206  0.1227 -0.0885
 1000CHOL   ROH 9011   3.886  14.628   8.832 -0.0042  0.0382  0.2562
 1000CHOL    R1 9012   4.039  14.554   8.606 -0.1821  0.0555  0.1289
 1000CHOL    R2 9013   4.306  14.621   8.578 -0.2565  0.2350 -0.1709
 1000CHOL    R3 9014   4.336  14.353   8.542 -0.1015  0.2395 -0.0922
 1000CHOL    R4 9015   4.579  14.472   8.429 -0.0691  0.3328  0.0663
 1000CHOL    R5 9016   4.443  14.334   8.329  0.0699  0.2451 -0.0097
 1000CHOL    C1 9017   4.767  14.133   8.308  0.1855  0.3938  0.2784
 1000CHOL    C2 9018   5.035  14.182   8.281 -0.1641  0.3489 -0.0776
 1001XCA    COO 9019   8.577   1.115   8.466  0.0400 -0.0622 -0.2638
 1001XCA     C1 9020   8.612   1.163   7.969  0.0985 -0.1395  0.5441
 1001XCA     C2 9021   8.744   1.035   7.616 -0.2150  0.2883 -0.0948
 1001XCA     C3 9022   8.813   1.020   7.233 -0.2901 -0.0192 -0.1171
 1001XCA     C4 9023   8.952   0.991   6.775 -0.2550  0.0643  0.0534
 1001XCA     C5 9024   9.211   1.248   6.488 -0.1530 -0.2533  0.1198
 1001XCA     C6 9025   9.569   1.279   6.251 -0.1705 -0.0381 -0.0759
 1002CHOL   ROH 9026   6.915  10.788   7.613  0.0053  0.0252 -0.1150
 1002CHOL    R1 9027   6.689  10.747   7.447 -0.0493 -0.0172 -0.0314
 1002CHOL    R2 9028   6.645  10.511   7.312 -0.0190 -0.0013 -0.0707
 1002CHOL    R3 9029   6.405  10.521   7.439  0.0301 -0.1197  0.0325
 1002CHOL    R4 9030   6.376  10.305   7.242  0.0080 -0.0441 -0.0474
 1002CHOL    R5 9031   6.244  10.477   7.266 -0.0288 -0.0895  0.0796
 1002CHOL    C1 9032   5.995  10.194   7.321  0.0699 -0.1802  0.0629
 1002CHOL    C2 9033   5.667   9.833   7.340  0.0476 -0.3169  0.1241
 1003PNCE   AM1 9034   5.466   9.520   5.409 -0.0973 -0.0281  0.2192
 1003PNCE   AM2 9035   5.110   9.429   5.401  0.0388  0.0182 -0.0276
 1003PNCE   T1A 9036   5.830   9.777   5.440 -0.0570  0.1264  0.2468
 1003PNCE   C2A 9037   6.157   9.788   5.747 -0.0160 -0.0795  0.1507
 1003PNCE   C3A 9038   6.406  10.159   5.896 -0.0293  0.2621  0.0548
 1003PNCE   C1B 9039   4.984   8.989   5.714  0.2410  0.0752  0.0065
 1003PNCE   C2B 9040   5.078   8.650   6.071  0.0734  0.1538 -0.0040
 1003PNCE   C3B 9041   5.021   8.456   6.451  0.2894  0.0720  0.0776
 1003PNCE   D4B 9042   5.287   8.500   6.858  0.0149 -0.4045  0.1074
 1003PNCE   C5B 9043   5.588   8.820   6.872 -0.3413  0.3679 -0.1766
 1003PNCE   C6B 9044   5.759   9.086   6.578 -0.0006  0.1786  0.0887
 1004CHOL   ROH 9045   2.192   2.948   7.715 -0.0521 -0.0196  0.0115
 1004CHOL    R1 9046   2.119   2.830   7.468  0.0750 -0.0522 -0.0111
 1004CHOL    R2 9047   1.980   2.968   7.272  0.0457 -0.1243 -0.0386
 1004CHOL    R3 9048   2.188   2.890   7.116  0.1270 -0.0012  0.0067
 1004CHOL    R4 9049   1.996   3.011   6.930  0.0009 -0.2818 -0.0614
 1004CHOL    R5 9050   2.085   2.813   6.914  0.1997 -0.2085  0.0435
 1004CHOL    C1 9051   2.201   2.964   6.583  0.0512 -0.2580 -0.0322
 1004CHOL    C2 9052   2.556   2.873   6.446  0.3203 -0.0065  0.0442
 1005PNCE   AM1 9053  10.104   1.652   4.082 -0.1365  0.0380  0.0269
 1005PNCE   AM2 9054  10.481   1.343   4.170 -0.0474 -0.2284 -0.1384
 1005PNCE   T1A 9055  10.209   1.604   4.584 -0.3026 -0.0518  0.2005
 1005PNCE   C2A 9056  10.411   1.709   4.926 -0.1414  0.0724 -0.2148
 1005PNCE   C3A 9057  10.571   1.926   5.223 -0.1473 -0.0064 -0.3866
 1005PNCE   C1B 9058  10.490   1.187   4.556  0.4706  0.2365  0.2981
 1005PNCE   C2B 9059  10.543   1.241   5.001 -0.0731  0.0447  0.0471
 1005PNCE   C3B 9060  10.498   1.390   5.336 -0.0132 -0.0001 -0.1345
 1005PNCE   D4B 9061  10.721   1.564   5.678 -0.2843  0.1550  0.0049
 1005PNCE   C5B 9062  10.823   2.003   5.715  0.0464  0.0057  0.0544
 1005PNCE   C6B 9063  11.292   2.282   5.702 -0.2351 -0.0263  0.1123
 1006PNCE   AM1 9064   1.185  13.840   5.025 -0.2140  0.2979 -0.0994
 1006PNCE   AM2 9065   0.782  13.692   5.117  0.0713  0.0913  0.2679
 1006PNCE   T1A 9066   0.977  14.058   5.357 -0.1772  0.1156  0.3276
 1006PNCE   C2A 9067   0.821  14.327   5.732  0.0263  0.3744  0.2187
 1006PNCE   C3A 9068   0.657  14.351   6.191 -0.1341  0.1079  0.2449
 1006PNCE   C1B 9069   0.626  13.682   5.541 -0.2858  0.0199  0.3824
 1006PNCE   C2B 9070   0.520  13.802   5.958  0.0394  0.0814 -0.0830
 1006PNCE   C3B 9071   0.515  13.719   6.390  0.0204  0.3417  0.1372
 1006PNCE   D4B 9072   0.497  13.295   6.633 -0.1456  0.0243 -0.3642
 1006PNCE   C5B 9073   0.785  13.091   6.939 -0.1168  0.0172  0.3361
 1006PNCE   C6B 9074   0.878  12.761   7.082  0.4040 -0.0873 -0.0458
 1007PNCE   AM1 9075  13.374   8.880   4.651 -0.0595  0.0471  0.0443
 1007PNCE   AM2 9076  13.481   8.546   4.706  0.0459  0.0963  0.0432
 1007PNCE   T1A 9077  13.269   9.035   5.066 -0.0194 -0.1117  0.1048
 1007PNCE   C2A 9078  13.235   9.002   5.491 -0.0881 -0.1571 -0.3820
 1007PNCE   C3A 9079  13.628   8.812   5.712  0.1073 -0.0071 -0.0566
 1007PNCE   C1B 9080  13.498   8.229   4.859  0.1628 -0.2173  0.0467
 1007PNCE   C2B 9081  13.700   8.112   5.183  0.0078 -0.0681 -0.1418
 1007PNCE   C3B 9082  13.712   8.183   5.615 -0.0569  0.1133  0.1840
 1007PNCE   D4B 9083  13.362   8.054   5.915 -0.0126 -0.1413  0.2934
 1007PNCE   C5B 9084  13.308   8.109   6.440  0.1626 -0.3512 -0.0923
 1007PNCE   C6B 9085  13.450   8.286   6.848  0.1646 -0.3756  0.1103
 1008CHOL   ROH 9086  10.265   9.490   5.050  0.0044 -0.0787  0.1208
 1008CHOL    R1 9087  10.033   9.545   5.203 -0.0376 -0.0024  0.0296
 1008CHOL    R2 9088  10.039   9.573   5.477 -0.1611 -0.1665  0.0504
 1008CHOL    R3 9089   9.919   9.811   5.423  0.0365 -0.0472  0.1226
 1008CHOL    R4 9090   9.846   9.752   5.701  0.1811  0.0511  0.1796
 1008CHOL    R5 9091   9.709   9.799   5.538  0.1061  0.1757  0.2780
 1008CHOL    C1 9092   9.621  10.080   5.781  0.5657  0.2899  0.3226
 1008CHOL    C2 9093   9.359  10.240   6.033 -0.1725 -0.5466  0.3113
 1009CHOL   ROH 9094  12.916  10.450   7.945  0.1878 -0.2080 -0.0499
 1009CHOL    R1 9095  13.055  10.402   7.703  0.0909 -0.2995 -0.0891
 1009CHOL    R2 9096  12.942  10.268   7.490 -0.1121 -0.0925 -0.1187
 1009CHOL    R3 9097  13.015  10.491   7.353  0.1385 -0.1312 -0.0518
 1009CHOL    R4 9098  12.974  10.287   7.146 -0.2081  0.0090 -0.1222
 1009CHOL    R5 9099  13.152  10.409   7.175 -0.0337 -0.2410 -0.1341
 1009CHOL    C1 9100  13.062  10.508   6.818 -0.0288  0.0318 -0.0615
 1009CHOL    C2 9101  13.216  10.435   6.372  0.0831  0.0633  0.0600
 1010CHOL   ROH 9102   5.694   3.803   7.744  0.0456 -0.0660 -0.0567
 1010CHOL    R1 9103   5.767   3.810   7.471  0.0748 -0.0928 -0.0509
 1010CHOL    R2 9104   5.703   3.607   7.295 -0.0422 -0.0447 -0.0764
 1010CHOL    R3 9105   5.594   3.810   7.151  0.0983  0.0415 -0.0616
 1010CHOL    R4 9106   5.608   3.584   6.963 -0.1665  0.0278 -0.0453
 1010CHOL    R5 9107   5.688   3.785   6.932  0.0027 -0.0546 -0.0852
 1010CHOL    C1 9108   5.449   3.762   6.636 -0.1070  0.1509 -0.0131
 1010CHOL    C2 9109   5.618   3.477   6.476 -0.1989 -0.0372  0.1056
 1011XCA    COO 9110   5.570   6.556   8.701  0.0897 -0.0352  0.5045
 1011XCA     C1 9111   5.438   6.284   8.295  0.3329  0.2349 -0.0790
 1011XCA     C2 9112   5.247   6.320   7.889  0.0445  0.2271  0.0896
 1011XCA     C3 9113   5.022   6.265   7.479 -0.2536  0.4111 -0.0814
 1011XCA     C4 9114   4.735   6.462   7.323 -0.2746  0.0644 -0.2825
 1011XCA     C5 9115   4.568   6.815   7.526  0.1084 -0.1750 -0.1052
 1011XCA     C6 9116   4.245   7.153   7.633 -0.0168  0.2241 -0.1518
 1012PNCE   AM1 9117   3.373   8.546   4.985 -0.0755  0.2273 -0.1062
 1012PNCE   AM2 9118   3.601   8.772   4.850  0.0700  0.2040 -0.1845
 1012PNCE   T1A 9119   3.592   8.132   5.139 -0.2572 -0.2943  0.2596
 1012PNCE   C2A 9120   3.945   7.967   5.251  0.0387 -0.0515  0.2361
 1012PNCE   C3A 9121   4.204   8.002   5.558 -0.1593 -0.0321  0.1438
 1012PNCE   C1B 9122   3.702   8.903   5.295 -0.1500 -0.1842 -0.0099
 1012PNCE   C2B 9123   3.974   8.848   5.697 -0.2559  0.0792 -0.0539
 1012PNCE   C3B 9124   4.150   8.542   5.835  0.0426  0.2560  0.0872
 1012PNCE   D4B 9125   4.315   8.183   6.070 -0.0772 -0.0079 -0.2177
 1012PNCE   C5B 9126   4.008   7.871   6.009 -0.0654 -0.0584 -0.0363
 1012PNCE   C6B 9127   3.723   7.582   6.045 -0.0644 -0.1143 -0.0591
 1013CHOL   ROH 9128   0.852   5.630   7.202 -0.1505  0.0132 -0.1145
 1013CHOL    R1 9129   0.931   5.847   7.039 -0.2943  0.1366 -0.0232
 1013CHOL    R2 9130   1.063   5.812   6.799  0.0544  0.3333  0.1315
 1013CHOL    R3 9131   0.859   5.965   6.702 -0.0778  0.0116 -0.1150
 1013CHOL    R4 9132   1.068   5.980   6.497  0.1909  0.4004  0.1712
 1013CHOL    R5 9133   0.969   6.149   6.594 -0.2311  0.2208  0.0746
 1013CHOL    C1 9134   0.881   6.221   6.230  0.1462  0.1375 -0.0372
 1013CHOL    C2 9135   0.701   6.452   5.920  0.1841 -0.3251 -0.2164
 1014PNCE   AM1 9136  14.475   4.038   4.044 -0.0011 -0.0720  0.2977
 1014PNCE   AM2 9137  14.162   4.097   4.100  0.1558 -0.0701 -0.1175
 1014PNCE   T1A 9138  14.356   3.730   4.403  0.1826  0.0544 -0.1059
 1014PNCE   C2A 9139  14.116   3.536   4.760  0.1155 -0.0089 -0.0266
 1014PNCE   C3A 9140  14.141   3.614   5.248 -0.1188 -0.1029  0.0497
 1014PNCE   C1B 9141  14.253   4.302   4.552  0.0928  0.1118  0.3039
 1014PNCE   C2B 9142  14.339   4.485   5.005 -0.0923 -0.2391 -0.0328
 1014PNCE   C3B 9143  14.374   4.708   5.432 -0.0787 -0.1641 -0.0293
 1014PNCE   D4B 9144  14.051   4.567   5.699  0.0552 -0.2269 -0.2562
 1014PNCE   C5B 9145  13.734   4.460   5.517 -0.0012  0.0497  0.3837
 1014PNCE   C6B 9146  13.503   4.504   5.165  0.2803 -0.1847 -0.1455
 1015XCA    COO 9147   0.704   6.660   8.433  0.2800 -0.2849 -0.1110
 1015XCA     C1 9148   0.929   6.605   8.050 -0.1164 -0.0662 -0.3583
 1015XCA     C2 9149   0.895   6.427   7.785  0.3080  0.2256  0.1629
 1015XCA     C3 9150   0.987   6.447   7.372 -0.1120 -0.0956  0.2522
 1015XCA     C4 9151   0.915   6.485   6.899 -0.3104 -0.1653 -0.0281
 1015XCA     C5 9152   0.970   6.706   6.577  0.2008 -0.0666  0.0292
 1015XCA     C6 9153   1.096   6.794   6.117  0.1053  0.3117 -0.1545
 1016CHOL   ROH 9154   4.761   6.746   7.956  0.0083 -0.1278  0.0583
 1016CHOL    R1 9155   4.943   6.672   7.753 -0.0400 -0.0527 -0.0134
 1016CHOL    R2 9156   5.028   6.850   7.558  0.0648  0.0775  0.1443
 1016CHOL    R3 9157   5.275   6.776   7.645  0.0208 -0.1534  0.0781
 1016CHOL    R4 9158   5.301   6.792   7.354  0.0168  0.0379  0.0917
 1016CHOL    R5 9159   5.353   6.622   7.479 -0.0912 -0.0873 -0.0350
 1016CHOL    C1 9160   5.692   6.690   7.317 -0.0524 -0.2020 -0.0011
 1016CHOL    C2 9161   5.714   6.787   6.970  0.2207  0.0465 -0.1322
 1017XCA    COO 9162  11.829   2.053   3.788 -0.0526  0.0348 -0.1419
 1017XCA     C1 9163  11.787   1.887   4.139  0.3922 -0.3458 -0.1639
 1017XCA     C2 9164  11.626   2.041   4.516  0.4549 -0.1750  0.0398
 1017XCA     C3 9165  11.169   1.974   4.506 -0.2047  0.0751 -0.0489
 1017XCA     C4 9166  10.978   1.706   4.790 -0.1071  0.2487  0.3012
 1017XCA     C5 9167  10.949   1.648   5.199 -0.0515 -0.0623  0.1870
 1017XCA     C6 9168  11.255   1.684   5.520 -0.0207 -0.2160 -0.0499
 1018CHOL   ROH 9169  10.194   4.688   4.923 -0.0292 -0.0522  0.0024
 1018CHOL    R1 9170  10.309   4.532   5.130 -0.0693 -0.3111 -0.1671
 1018CHOL    R2 9171  10.286   4.599   5.397  0.4087 -0.2944 -0.1246
 1018CHOL    R3 9172  10.188   4.346   5.419 -0.0732 -0.1098 -0.0373
 1018CHOL    R4 9173  10.294   4.408   5.685  0.4869 -0.3799 -0.1824
 1018CHOL    R5 9174  10.343   4.234   5.562 -0.0575 -0.4601 -0.3129
 1018CHOL    C1 9175  10.206   4.059   5.873  0.0800 -0.2566 -0.1343
 1018CHOL    C2 9176  10.538   3.830   5.977 -0.1210  0.0290 -0.0798
 1019PNCE   AM1 9177  11.728  15.622   8.889  0.0047 -0.0304 -0.0480
 1019PNCE   AM2 9178  11.830  15.348   8.850  0.1716  0.1868 -0.1154
 1019PNCE   T1A 9179  11.771  15.776   8.492  0.1433  0.0335 -0.1875
 1019PNCE   C2A 9180  11.766  15.925   8.079 -0.0632 -0.0145 -0.1591
 1019PNCE   C3A 9181  11.590  15.969   7.696 -0.4055  0.0139 -0.6212
 1019PNCE   C1B 9182  11.685  15.290   8.474  0.2357 -0.2231  0.2502
 1019PNCE   C2B 9183  11.515  15.413   8.096  0.2950 -0.0801  0.2578
 1019PNCE   C3B 9184  11.265  15.568   7.803  0.3139 -0.2471  0.0840
 1019PNCE   D4B 9185  11.109  15.840   7.451  0.0350 -0.0179 -0.2642
 1019PNCE   C5B 9186  11.111  15.781   7.047 -0.0057  0.1639 -0.1611
 1019PNCE   C6B 9187  10.750  15.756   6.824  0.1795 -0.0527 -0.2904
 1020XCA    COO 9188  12.807   2.630   4.041  0.3760 -0.0237 -0.1404
 1020XCA     C1 9189  12.564   2.599   4.523 -0.1275  0.0720  0.1648
 1020XCA     C2 9190  12.376   2.407   4.862  0.0575  0.0468  0.0884
 1020XCA     C3 9191  12.415   2.512   5.284  0.2199  0.0009 -0.0357
 1020XCA     C4 9192  12.268   2.418   5.784 -0.0718 -0.0728 -0.0601
 1020XCA     C5 9193  11.916   2.179   5.924  0.1080 -0.0891 -0.2827
 1020XCA     C6 9194  11.519   1.952   6.035  0.1369  0.1443 -0.1840
 1021PNCE   AM1 9195  11.155   3.424   4.291 -0.0517 -0.0272 -0.0274
 1021PNCE   AM2 9196  11.117   3.217   4.540  0.0442 -0.3615 -0.4032
 1021PNCE   T1A 9197  11.432   3.612   4.636 -0.3250  0.0329 -0.0006
 1021PNCE   C2A 9198  11.488   3.620   5.101 -0.1213 -0.3672 -0.1682
 1021PNCE   C3A 9199  11.407   3.510   5.431  0.0122  0.1117  0.1114
 1021PNCE   C1B 9200  10.921   3.306   4.958  0.0369  0.1759 -0.1177
 1021PNCE   C2B 9201  10.979   3.188   5.387  0.0466  0.3053 -0.0743
 1021PNCE   C3B 9202  10.988   3.189   5.877 -0.2421  0.4166  0.0266
 1021PNCE   D4B 9203  11.061   3.004   6.299  0.2857 -0.0914 -0.1807
 1021PNCE   C5B 9204  11.569   2.973   6.366  0.1349 -0.1998 -0.1141
 1021PNCE   C6B 9205  11.802   2.710   6.624 -0.2380  0.2515 -0.1653
 1022XCA    COO 9206   7.019   0.024   6.999  0.0195 -0.0867 -0.0220
 1022XCA     C1 9207   6.845   0.042   6.537 -0.1238 -0.1922 -0.2454
 1022XCA     C2 9208   6.473  -0.178   6.355  0.3371 -0.1958  0.4173
 1022XCA     C3 9209   6.120  -0.268   6.359  0.0658  0.1482 -0.1252
 1022XCA     C4 9210   5.799  -0.459   6.586  0.0497 -0.0269 -0.1479
 1022XCA     C5 9211   5.481  -0.329   6.835  0.0005 -0.2665  0.0412
 1022XCA     C6 9212   4.988  -0.281   6.793 -0.0642  0.1383 -0.1581
 1023CHOL   ROH 9213  13.942   9.705   7.675  0.0871 -0.0837 -0.1719
 1023CHOL    R1 9214  13.941   9.834   7.424  0.0149 -0.0326 -0.1455
 1023CHOL    R2 9215  13.903  10.106   7.396  0.0022 -0.0283 -0.0797
 1023CHOL    R3 9216  14.137  10.093   7.258 -0.0361  0.0050 -0.1481
 1023CHOL    R4 9217  14.033  10.362   7.203  0.0253  0.0784  0.0754
 1023CHOL    R5 9218  14.093  10.213   7.055 -0.0541  0.1678 -0.0503
 1023CHOL    C1 9219  14.329  10.498   6.961  0.0029  0.1718  0.1016
 1023CHOL    C2 9220  14.211  10.867   6.679  0.1124 -0.0809 -0.0102
 1024XCA    COO 9221   2.387   9.491   9.676  0.2451  0.0954  0.3816
 1024XCA     C1 9222   2.525   9.555   9.244 -0.2058  0.1541 -0.1230
 1024XCA     C2 9223   2.658   9.879   9.072 -0.0264  0.0482 -0.0889
 1024XCA     C3 9224   2.684  10.153   8.784  0.2780 -0.0925 -0.3508
 1024XCA     C4 9225   2.744  10.285   8.443  0.2382 -0.0931 -0.2297
 1024XCA     C5 9226   2.997  10.582   8.126  0.0261  0.0755  0.0770
 1024XCA     C6 9227   3.097  10.468   7.705 -0.3515 -0.1132 -0.0071
 1025CHOL   ROH 9228  11.573   1.172   8.502 -0.0278  0.0208 -0.0685
 1025CHOL    R1 9229  11.729   1.238   8.275 -0.1241  0.0662 -0.1227
 1025CHOL    R2 9230  11.861   1.047   8.125  0.0023  0.1166 -0.0793
 1025CHOL    R3 9231  11.724   1.161   7.919 -0.1324 -0.0671 -0.0938
 1025CHOL    R4 9232  11.963   1.046   7.795 -0.0431  0.1212 -0.0932
 1025CHOL    R5 9233  11.894   1.252   7.778 -0.2370  0.0528 -0.1422
 1025CHOL    C1 9234  11.894   1.153   7.409 -0.1958 -0.0487 -0.1150
 1025CHOL    C2 9235  11.820   1.158   6.999  0.0268 -0.0309  0.2770
 1026CHOL   ROH 9236   7.634   0.765   8.060 -0.0102 -0.2218 -0.1460
 1026CHOL    R1 9237   7.753   0.814   7.808  0.0527 -0.2339 -0.1186
 1026CHOL    R2 9238   7.914   0.629   7.681  0.0328 -0.2650 -0.0983
 1026CHOL    R3 9239   7.740   0.666   7.476  0.0831 -0.2080 -0.1313
 1026CHOL    R4 9240   7.981   0.557   7.350  0.0822 -0.2566 -0.0905
 1026CHOL    R5 9241   7.877   0.740   7.294  0.1376 -0.2274 -0.0983
 1026CHOL    C1 9242   7.856   0.549   6.964  0.1581 -0.1982 -0.1168
 1026CHOL    C2 9243   8.169   0.318   6.875 -0.0973 -0.2592 -0.0203
 1027PNCE   AM1 9244   4.988   0.135   4.893  0.1326 -0.1436 -0.2787
 1027PNCE   AM2 9245   5.071  -0.182   4.944  0.0568  0.0985 -0.0064
 1027PNCE   T1A 9246   5.083   0.400   5.278  0.0551 -0.4684 -0.2142
 1027PNCE   C2A 9247   5.091   0.600   5.685  0.2605 -0.2505  0.0662
 1027PNCE   C3A 9248   4.947   0.885   5.943 -0.0509  0.1608 -0.0098
 1027PNCE   C1B 9249   5.043  -0.106   5.341 -0.1767 -0.1045  0.0301
 1027PNCE   C2B 9250   5.118   0.110   5.660 -0.0827 -0.0840  0.0043
 1027PNCE   C3B 9251   5.112   0.298   6.080  0.0244 -0.3784 -0.4473
 1027PNCE   D4B 9252   4.867   0.455   6.358 -0.3078 -0.2721 -0.0441
 1027PNCE   C5B 9253   5.065   0.623   6.661 -0.0961  0.0992 -0.2335
 1027PNCE   C6B 9254   5.173   0.706   7.047 -0.1321  0.0901 -0.0618
 1028CHOL   ROH 9255   8.432   6.338   7.664 -0.0909  0.1637 -0.0768
 1028CHOL    R1 9256   8.676   6.482   7.666 -0.0795  0.1442 -0.0282
 1028CHOL    R2 9257   8.725   6.693   7.495 -0.0188  0.1250 -0.0359
 1028CHOL    R3 9258   8.779   6.825   7.727 -0.0678  0.1414 -0.0338
 1028CHOL    R4 9259   8.937   6.964   7.522 -0.0364  0.1363 -0.0112
 1028CHOL    R5 9260   9.012   6.881   7.710 -0.0678  0.1513  0.0070
 1028CHOL    C1 9261   9.112   7.247   7.755 -0.0927  0.1583  0.0052
 1028CHOL    C2 9262   9.540   7.152   7.904  0.0973  0.2797 -0.0319
 1029PNCE   AM1 9263  10.920  14.515   4.614  0.0062 -0.0580  0.0470
 1029PNCE   AM2 9264  10.696  14.315   4.548 -0.0269 -0.0342 -0.3545
 1029PNCE   T1A 9265  10.591  14.641   5.017  0.1565 -0.1765  0.0532
 1029PNCE   C2A 9266  10.482  14.929   5.329  0.1412 -0.0808  0.0922
 1029PNCE   C3A 9267  10.314  15.135   5.614 -0.0494 -0.0482 -0.1669
 1029PNCE   C1B 9268  10.555  14.057   4.878 -0.3946  0.2656 -0.0154
 1029PNCE   C2B 9269  10.559  14.265   5.284  0.0271 -0.1125 -0.3767
 1029PNCE   C3B 9270  10.495  14.558   5.652 -0.0854 -0.1490  0.1549
 1029PNCE   D4B 9271  10.169  14.830   5.955  0.1114  0.2062  0.2047
 1029PNCE   C5B 9272  10.373  15.079   6.290  0.1910 -0.1155  0.2802
 1029PNCE   C6B 9273  10.447  15.601   6.379 -0.0090 -0.1465 -0.0016
 1030XCA    COO 9274  13.281  14.115   5.458  0.0417  0.0855  0.0199
 1030XCA     C1 9275  13.344  14.543   5.567 -0.0026  0.1760  0.0085
 1030XCA     C2 9276  13.383  14.807   5.992 -0.0108  0.0991 -0.2176
 1030XCA     C3 9277  13.733  14.800   6.230 -0.0227 -0.0329  0.0692
 1030XCA     C4 9278  13.751  14.963   6.584 -0.2358 -0.1307  0.3498
 1030XCA     C5 9279  14.040  15.134   6.898  0.1639 -0.1464  0.0841
 1030XCA     C6 9280  14.378  15.376   7.138  0.0280 -0.1481 -0.2345
 1031CHOL   ROH 9281  10.196  14.384   4.860 -0.1571  0.1590 -0.1518
 1031CHOL    R1 9282  10.168  14.380   5.141 -0.0087  0.1373 -0.1361
 1031CHOL    R2 9283  10.179  14.609   5.295  0.1399  0.1207 -0.1142
 1031CHOL    R3 9284   9.939  14.520   5.386  0.1613  0.1791 -0.0007
 1031CHOL    R4 9285  10.028  14.712   5.589  0.3129  0.1246 -0.0256
 1031CHOL    R5 9286   9.966  14.506   5.624  0.2737  0.1426 -0.0187
 1031CHOL    C1 9287   9.715  14.689   5.845  0.4338  0.1819  0.1325
 1031CHOL    C2 9288   9.682  14.592   6.275 -0.4112 -0.2123 -0.1629
 1032PNCE   AM1 9289  12.402  14.644   5.186  0.0219 -0.2030 -0.1236
 1032PNCE   AM2 9290  12.251  14.791   4.952 -0.1308  0.3908 -0.0582
 1032PNCE   T1A 9291  12.372  14.471   5.596  0.4861  0.2407 -0.2805
 1032PNCE   C2A 9292  12.402  14.559   6.023 -0.1845 -0.1731  0.0858
 1032PNCE   C3A 9293  12.657  14.714   6.425 -0.3354  0.0896 -0.0312
 1032PNCE   C1B 9294  12.093  15.131   5.180  0.2336  0.1188  0.0189
 1032PNCE   C2B 9295  11.812  15.318   5.462 -0.0929 -0.0719  0.0152
 1032PNCE   C3B 9296  11.591  15.358   5.828 -0.2493 -0.2493  0.0601
 1032PNCE   D4B 9297  11.265  15.300   5.978  0.0251 -0.0893 -0.2054
 1032PNCE   C5B 9298  11.190  15.139   6.355 -0.5638  0.0523  0.0917
 1032PNCE   C6B 9299  11.162  14.740   6.752 -0.1316  0.0301 -0.1566
 1033PNCE   AM1 9300   5.917   3.074   4.372  0.1199 -0.3378  0.0446
 1033PNCE   AM2 9301   6.223   3.087   4.635  0.1406  0.2593  0.0224
 1033PNCE   T1A 9302   5.744   3.103   4.788  0.0055  0.2562 -0.1308
 1033PNCE   C2A 9303   5.640   2.965   5.194  0.1510  0.0928  0.0669
 1033PNCE   C3A 9304   5.336   2.811   5.644  0.1989  0.1602  0.0123
 1033PNCE   C1B 9305   6.334   3.156   5.081 -0.6043  0.2774 -0.2439
 1033PNCE   C2B 9306   6.192   3.168   5.457  0.0351  0.1794 -0.1223
 1033PNCE   C3B 9307   6.156   3.174   5.957  0.1118 -0.0031 -0.1209
 1033PNCE   D4B 9308   5.979   3.082   6.284 -0.2937  0.0175 -0.2785
 1033PNCE   C5B 9309   6.226   2.753   6.594  0.0236  0.0527  0.0510
 1033PNCE   C6B 9310   6.583   2.442   6.557  0.1987 -0.1805 -0.3758
 1034PNCE   AM1 9311   7.267  14.296   4.948  0.0880 -0.0835 -0.1548
 1034PNCE   AM2 9312   7.481  14.034   5.023 -0.1214 -0.0533 -0.2909
 1034PNCE   T1A 9313   7.471  14.351   5.456 -0.0291 -0.3372 -0.2184
 1034PNCE   C2A 9314   7.550  14.713   5.767  0.3158  0.2063 -0.1027
 1034PNCE   C3A 9315   7.170  14.552   6.019 -0.1973  0.3847  0.0320
 1034PNCE   C1B 9316   7.227  13.874   5.351 -0.1737  0.0888  0.0065
 1034PNCE   C2B 9317   7.114  14.122   5.747 -0.2085  0.0139  0.0098
 1034PNCE   C3B 9318   6.846  14.107   6.142 -0.2855  0.0000 -0.0621
 1034PNCE   D4B 9319   6.876  13.784   6.436  0.0536  0.0666 -0.0577
 1034PNCE   C5B 9320   6.660  13.812   6.785  0.3104 -0.0277  0.3012
 1034PNCE   C6B 9321   6.338  13.846   7.071  0.2529  0.0059  0.3940
 1035CHOL   ROH 9322   1.722  11.842   5.547  0.0272  0.1504 -0.0069
 1035CHOL    R1 9323   1.811  11.878   5.813 -0.0538  0.0854  0.0299
 1035CHOL    R2 9324   1.748  12.101   5.962 -0.0643  0.0692  0.0513
 1035CHOL    R3 9325   1.658  11.917   6.141 -0.1552  0.0508 -0.0131
 1035CHOL    R4 9326   1.725  12.153   6.303 -0.0968 -0.0173  0.0623
 1035CHOL    R5 9327   1.797  11.949   6.334 -0.1727 -0.0511  0.0167
 1035CHOL    C1 9328   1.627  12.010   6.670 -0.2010 -0.0850  0.0082
 1035CHOL    C2 9329   1.556  11.893   7.093  0.1668  0.0125  0.0681
 1036PNCE   AM1 9330   8.704   7.213   4.207  0.0087  0.1385  0.3358
 1036PNCE   AM2 9331   8.418   7.301   4.523  0.0346  0.1202  0.1956
 1036PNCE   T1A 9332   8.626   6.814   4.220  0.1343  0.0836  0.0245
 1036PNCE   C2A 9333   8.449   6.435   4.359 -0.1028 -0.0027 -0.1956
 1036PNCE   C3A 9334   8.110   6.458   4.737 -0.0462  0.1147  0.0950
 1036PNCE   C1B 9335   8.592   7.269   4.906 -0.0371 -0.1966  0.0742
 1036PNCE   C2B 9336   8.505   7.245   5.323  0.0205  0.3295  0.2673
 1036PNCE   C3B 9337   8.202   7.166   5.613 -0.0491 -0.0831  0.1370
 1036PNCE   D4B 9338   8.323   7.062   6.018  0.1335  0.0952  0.1421
 1036PNCE   C5B 9339   8.230   7.302   6.400  0.0052  0.3380 -0.0192
 1036PNCE   C6B 9340   8.208   7.709   6.639 -0.2106 -0.0396  0.0710
 1037XCA    COO 9341   0.393  14.729   5.470  0.0315 -0.1519  0.2332
 1037XCA     C1 9342   0.454  14.712   5.858 -0.3836 -0.1194  0.2032
 1037XCA     C2 9343   0.202  14.887   6.193  0.0038  0.2687 -0.2128
 1037XCA     C3 9344  -0.072  15.035   6.572 -0.1808 -0.0332 -0.0665
 1037XCA     C4 9345  -0.415  15.103   6.938  0.2578  0.0916  0.1691
 1037XCA     C5 9346  -0.808  15.238   7.024 -0.0027 -0.0559 -0.2360
 1037XCA     C6 9347  -1.061  15.616   6.875 -0.0237  0.4150  0.0073
 1038PNCE   AM1 9348   3.428  14.884   5.253  0.0236  0.0305  0.0072
 1038PNCE   AM2 9349   3.461  14.481   5.237 -0.1375 -0.1350 -0.3255
 1038PNCE   T1A 9350   3.340  15.128   5.612 -0.1604  0.1888 -0.0127
 1038PNCE   C2A 9351   3.107  15.199   5.947 -0.0922  0.0240  0.1166
 1038PNCE   C3A 9352   3.135  15.490   6.327  0.1298  0.0772 -0.2215
 1038PNCE   C1B 9353   3.615  14.485   5.722  0.0617 -0.2478  0.1179
 1038PNCE   C2B 9354   3.873  14.138   6.003  0.1018  0.2199 -0.1520
 1038PNCE   C3B 9355   3.920  13.800   6.246  0.1357  0.4455 -0.1854
 1038PNCE   D4B 9356   3.952  13.613   6.583  0.0515  0.4236 -0.2977
 1038PNCE   C5B 9357   3.470  13.717   6.768 -0.2437  0.1081 -0.3263
 1038PNCE   C6B 9358   3.171  13.957   6.630  0.1218  0.4505 -0.0197
 1039CHOL   ROH 9359  12.041  11.501   4.527 -0.2147  0.3868 -0.1585
 1039CHOL    R1 9360  11.878  11.620   4.725 -0.2949  0.1605 -0.0842
 1039CHOL    R2 9361  11.633  11.516   4.799 -0.2103 -0.0718 -0.1134
 1039CHOL    R3 9362  11.741  11.524   5.048 -0.1929 -0.1110 -0.1202
 1039CHOL    R4 9363  11.454  11.486   5.093 -0.1874 -0.0976 -0.1025
 1039CHOL    R5 9364  11.579  11.642   5.179 -0.1730 -0.1190 -0.0921
 1039CHOL    C1 9365  11.451  11.476   5.498 -0.1579 -0.1494 -0.1026
 1039CHOL    C2 9366  11.244  11.427   5.817  0.1457 -0.1310 -0.0524
 1040CHOL   ROH 9367   9.416   7.046   5.548 -0.0700 -0.1029 -0.0140
 1040CHOL    R1 9368   9.391   7.273   5.715 -0.1864 -0.0818 -0.0593
 1040CHOL    R2 9369   9.148   7.361   5.812 -0.2039 -0.3523  0.1475
 1040CHOL    R3 9370   9.273   7.341   6.053  0.0539 -0.1270  0.0370
 1040CHOL    R4 9371   9.057   7.533   6.098 -0.0531 -0.2621  0.1423
 1040CHOL    R5 9372   9.268   7.563   6.141 -0.0257 -0.0775 -0.0833
 1040CHOL    C1 9373   9.121   7.615   6.489  0.2769  0.0020  0.0355
 1040CHOL    C2 9374   9.016   7.873   6.704  0.1265 -0.1470 -0.0073
 1041CHOL   ROH 9375  14.805   1.430   4.610  0.1206 -0.1497 -0.0107
 1041CHOL    R1 9376  14.988   1.576   4.768  0.0414  0.0179 -0.0710
 1041CHOL    R2 9377  14.924   1.673   5.019  0.0224 -0.0069 -0.0672
 1041CHOL    R3 9378  15.147   1.536   5.093  0.1540  0.1823 -0.1043
 1041CHOL    R4 9379  15.038   1.644   5.344 -0.0711 -0.1594 -0.0470
 1041CHOL    R5 9380  15.242   1.668   5.269 -0.0663  0.1417  0.0500
 1041CHOL    C1 9381  15.314   1.498   5.603 -0.0021 -0.0706 -0.0700
 1041CHOL    C2 9382  15.006   1.634   5.816  0.0302 -0.2341 -0.0681
 1042PNCE   AM1 9383   4.975   2.584   8.341 -0.1198 -0.0631 -0.3768
 1042PNCE   AM2 9384   4.863   2.278   8.527 -0.0851 -0.0998  0.0960
 1042PNCE   T1A 9385   4.822   2.347   8.016  0.1164 -0.1397 -0.0829
 1042PNCE   C2A 9386   4.661   2.137   7.661 -0.2601 -0.0121  0.1100
 1042PNCE   C3A 9387   4.456   2.055   7.330 -0.0161  0.2015 -0.1465
 1042PNCE   C1B 9388   4.912   1.967   8.343  0.0465  0.2803 -0.1170
 1042PNCE   C2B 9389   4.900   1.801   7.964  0.0293 -0.3689  0.3238
 1042PNCE   C3B 9390   4.588   1.613   7.638  0.0684 -0.1566  0.0309
 1042PNCE   D4B 9391   4.372   1.504   7.322  0.2199 -0.1744 -0.2510
 1042PNCE   C5B 9392   4.316   1.330   6.910  0.0774  0.1504  0.2148
 1042PNCE   C6B 9393   4.045   1.123   6.637 -0.0549 -0.0035  0.0520
 1043PNCE   AM1 9394  13.052   2.201   4.346 -0.1967  0.2182 -0.1701
 1043PNCE   AM2 9395  12.690   2.172   4.368  0.0167 -0.1223 -0.0533
 1043PNCE   T1A 9396  13.095   2.081   4.745 -0.2349 -0.0509  0.0311
 1043PNCE   C2A 9397  13.072   2.114   5.163  0.0551 -0.2303 -0.0378
 1043PNCE   C3A 9398  12.793   2.284   5.590  0.0914  0.1890 -0.0544
 1043PNCE   C1B 9399  12.619   2.016   4.730 -0.1195  0.1096  0.0234
 1043PNCE   C2B 9400  12.569   2.029   5.196  0.2492 -0.0639 -0.0184
 1043PNCE   C3B 9401  12.340   1.970   5.537 -0.0282  0.2099 -0.1323
 1043PNCE   D4B 9402  12.142   1.758   5.854 -0.1335 -0.0513  0.2963
 1043PNCE   C5B 9403  12.123   1.873   6.228 -0.1504  0.0089  0.0597
 1043PNCE   C6B 9404  12.053   1.850   6.607 -0.0196 -0.0225  0.0817
 1044PNCE   AM1 9405   1.790   9.156   4.582 -0.0230 -0.0570 -0.3208
 1044PNCE   AM2 9406   1.458   9.024   4.509  0.2781 -0.0166  0.0347
 1044PNCE   T1A 9407   1.536   9.176   4.960 -0.0902 -0.1757  0.3875
 1044PNCE   C2A 9408   1.475   8.998   5.328  0.0663  0.1085  0.0693
 1044PNCE   C3A 9409   1.418   9.072   5.770 -0.0578 -0.2020 -0.0650
 1044PNCE   C1B 9410   1.382   8.708   4.762  0.0463 -0.2152 -0.2187
 1044PNCE   C2B 9411   1.274   8.545   5.182 -0.1139  0.1955 -0.1592
 1044PNCE   C3B 9412   1.354   8.518   5.663 -0.1645 -0.2191 -0.1761
 1044PNCE   D4B 9413   1.027   8.706   5.986  0.0022 -0.0282 -0.4946
 1044PNCE   C5B 9414   0.710   8.610   6.232 -0.3021  0.1583 -0.1407
 1044PNCE   C6B 9415   0.487   8.637   6.609  0.1125 -0.1253 -0.1114
 1045CHOL   ROH 9416   8.968  13.054   5.267  0.3591  0.0194  0.0349
 1045CHOL    R1 9417   8.915  13.148   5.529  0.2511 -0.0073  0.0216
 1045CHOL    R2 9418   8.683  13.085   5.666  0.1953 -0.0118 -0.0888
 1045CHOL    R3 9419   8.858  12.999   5.856  0.1053 -0.0363 -0.0141
 1045CHOL    R4 9420   8.666  13.167   6.002  0.0987  0.0632 -0.1105
 1045CHOL    R5 9421   8.883  13.187   6.003  0.1139 -0.0076 -0.0420
 1045CHOL    C1 9422   8.819  13.134   6.375 -0.0421  0.0839 -0.0529
 1045CHOL    C2 9423   8.717  13.397   6.638 -0.1352 -0.1031  0.1962
 1046CHOL   ROH 9424  15.133   5.781   5.788 -0.0339 -0.1804  0.0443
 1046CHOL    R1 9425  15.285   5.636   5.978  0.0444 -0.1773 -0.0148
 1046CHOL    R2 9426  15.193   5.583   6.233  0.1860 -0.0956  0.0555
 1046CHOL    R3 9427  15.248   5.325   6.164  0.0759 -0.1252  0.0790
 1046CHOL    R4 9428  15.318   5.344   6.449  0.0152 -0.1477  0.0978
 1046CHOL    R5 9429  15.447   5.273   6.287  0.0205 -0.2174  0.1312
 1046CHOL    C1 9430  15.443   4.963   6.511 -0.1878 -0.2058  0.1444
 1046CHOL    C2 9431  15.378   4.909   6.928 -0.0855 -0.0692  0.2818
 1047PNCE   AM1 9432   5.520   8.903   5.988  0.0927 -0.3250  0.0761
 1047PNCE   AM2 9433   5.437   9.101   5.731 -0.0470 -0.4797 -0.1992
 1047PNCE   T1A 9434   5.582   8.641   6.381  0.1153 -0.1117  0.2356
 1047PNCE   C2A 9435   5.937   8.411   6.632 -0.2083  0.3070 -0.0154
 1047PNCE   C3A 9436   6.026   8.005   6.770  0.0238 -0.0911 -0.1775
 1047PNCE   C1B 9437   5.821   9.354   5.697 -0.1886 -0.2376  0.1640
 1047PNCE   C2B 9438   6.235   9.145   5.838 -0.1254  0.0093 -0.1951
 1047PNCE   C3B 9439   6.555   8.843   6.022  0.3606 -0.4046  0.0469
 1047PNCE   D4B 9440   6.659   8.398   6.226  0.1472 -0.0277 -0.4200
 1047PNCE   C5B 9441   6.461   8.038   6.366  0.0781  0.1035  0.1406
 1047PNCE   C6B 9442   6.216   7.661   6.445 -0.2082  0.0964 -0.1165
 1048CHOL   ROH 9443  12.350  11.229   4.741 -0.0102  0.1301 -0.0251
 1048CHOL    R1 9444  12.137  11.166   4.917  0.1113  0.0413  0.0935
 1048CHOL    R2 9445  12.178  11.064   5.170  0.3093  0.3780  0.2077
 1048CHOL    R3 9446  12.024  11.275   5.245  0.0460  0.2660 -0.0032
 1048CHOL    R4 9447  12.006  11.086   5.469  0.3863  0.5260  0.2418
 1048CHOL    R5 9448  11.839  11.175   5.361  0.2238  0.1605  0.1885
 1048CHOL    C1 9449  11.762  11.297   5.714  0.1841  0.5068  0.0635
 1048CHOL    C2 9450  11.910  11.294   5.956 -0.2305  0.1167  0.0387
 1049CHOL   ROH 9451  12.515  11.012   6.573 -0.2470  0.0011  0.3298
 1049CHOL    R1 9452  12.775  11.125   6.567 -0.3273  0.1832  0.1354
 1049CHOL    R2 9453  12.852  11.327   6.738 -0.2344 -0.0050  0.3244
 1049CHOL    R3 9454  13.055  11.156   6.797 -0.0336  0.0368 -0.1950
 1049CHOL    R4 9455  13.145  11.416   6.899 -0.2981 -0.1296  0.5108
 1049CHOL    R5 9456  13.254  11.285   6.763 -0.1795  0.3571  0.1131
 1049CHOL    C1 9457  13.506  11.307   7.048 -0.1464 -0.1629  0.1319
 1049CHOL    C2 9458  13.918  11.279   7.023  0.3545 -0.1241  0.0670
 1050CHOL   ROH 9459   8.511   9.429   8.550 -0.0569 -0.1176 -0.0438
 1050CHOL    R1 9460   8.409   9.429   8.287  0.0997 -0.1032 -0.1050
 1050CHOL    R2 9461   8.309   9.657   8.166  0.0529 -0.1277 -0.1010
 1050CHOL    R3 9462   8.488   9.594   7.972  0.1990  0.0199 -0.0183
 1050CHOL    R4 9463   8.306   9.786   7.845  0.0472 -0.1749 -0.1207
 1050CHOL    R5 9464   8.358   9.587   7.771  0.2784 -0.1418 -0.0713
 1050CHOL    C1 9465   8.473   9.801   7.476  0.1809 -0.0638 -0.0546
 1050CHOL    C2 9466   8.315  10.035   7.191  0.0508  0.3699  0.3416
 1051CHOL   ROH 9467   4.786   6.649   4.893  0.1195 -0.0753  0.1339
 1051CHOL    R1 9468   4.961   6.426   4.904  0.1140 -0.0749  0.3047
 1051CHOL    R2 9469   5.039   6.310   5.142 -0.1717 -0.1239  0.3885
 1051CHOL    R3 9470   4.945   6.083   5.025 -0.0341 -0.0954  0.2221
 1051CHOL    R4 9471   5.106   5.988   5.250 -0.0992 -0.1641  0.2221
 1051CHOL    R5 9472   5.125   5.927   5.041  0.0096 -0.0367  0.2032
 1051CHOL    C1 9473   5.057   5.588   5.202  0.0723 -0.1607 -0.0311
 1051CHOL    C2 9474   4.981   5.214   5.414 -0.1147  0.3966 -0.2941
 1052CHOL   ROH 9475   6.032  11.343   7.101  0.0214 -0.0156 -0.0434
 1052CHOL    R1 9476   5.771  11.311   7.205  0.0169 -0.0811 -0.0750
 1052CHOL    R2 9477   5.582  11.147   7.087  0.0966 -0.1855 -0.0557
 1052CHOL    R3 9478   5.570  11.036   7.335  0.0967 -0.1171 -0.0247
 1052CHOL    R4 9479   5.337  10.928   7.194 -0.0428  0.0323  0.0784
 1052CHOL    R5 9480   5.336  11.030   7.386  0.1060  0.0809  0.0576
 1052CHOL    C1 9481   5.183  10.697   7.489 -0.1239  0.2233  0.1857
 1052CHOL    C2 9482   5.155  10.476   7.655 -0.0738 -0.1577 -0.2685
 1053CHOL   ROH 9483   0.713   7.904   7.281 -0.1288 -0.2108 -0.0279
 1053CHOL    R1 9484   0.839   7.740   7.088  0.0285 -0.1370  0.0099
 1053CHOL    R2 9485   0.795   7.770   6.817 -0.0258 -0.2611  0.0041
 1053CHOL    R3 9486   1.066   7.788   6.808 -0.0431  0.0212 -0.0219
 1053CHOL    R4 9487   0.979   7.840   6.532 -0.1208 -0.1375 -0.0277
 1053CHOL    R5 9488   1.125   7.692   6.597  0.0414  0.0303 -0.0026
 1053CHOL    C1 9489   1.340   7.898   6.358 -0.1924  0.1994 -0.0706
 1053CHOL    C2 9490   1.513   8.164   6.097  0.1498  0.1431 -0.3996
 1054PNCE   AM1 9491   9.197  14.580   4.689 -0.2174 -0.0711 -0.0091
 1054PNCE   AM2 9492   9.413  14.293   4.655 -0.0084  0.0044 -0.2639
 1054PNCE   T1A 9493   9.173  14.452   5.069 -0.2253  0.1262 -0.0897
 1054PNCE   C2A 9494   9.218  14.234   5.383 -0.2154 -0.1076  0.1207
 1054PNCE   C3A 9495   8.971  14.278   5.740  0.0106 -0.0039  0.0972
 1054PNCE   C1B 9496   8.942  14.152   4.735  0.0152  0.1440  0.1082
 1054PNCE   C2B 9497   8.724  14.210   5.179 -0.1100 -0.0983 -0.4123
 1054PNCE   C3B 9498   8.469  14.113   5.510  0.0849 -0.3014 -0.0205
 1054PNCE   D4B 9499   8.570  14.187   5.999 -0.0506 -0.1790  0.1622
 1054PNCE   C5B 9500   8.297  14.471   6.268 -0.0344 -0.1788  0.0946
 1054PNCE   C6B 9501   7.927  14.681   6.473 -0.0692  0.2938 -0.1198
 1055CHOL   ROH 9502  14.741  14.282   8.807  0.2637 -0.1199  0.1309
 1055CHOL    R1 9503  14.876  14.167   8.586  0.1397 -0.1476  0.0682
 1055CHOL    R2 9504  14.785  13.941   8.457  0.0076 -0.1014  0.0781
 1055CHOL    R3 9505  14.803  14.099   8.237 -0.0163 -0.0844  0.0882
 1055CHOL    R4 9506  14.916  13.841   8.153 -0.0774 -0.0924  0.0381
 1055CHOL    R5 9507  15.011  14.037   8.136 -0.0501 -0.1075  0.0347
 1055CHOL    C1 9508  15.009  13.932   7.769 -0.1492 -0.0712  0.0244
 1055CHOL    C2 9509  15.026  13.767   7.415 -0.2232  0.1405 -0.0531
 1056PNCE   AM1 9510   9.222   5.664   4.813  0.0808 -0.1535  0.0016
 1056PNCE   AM2 9511   9.387   5.391   4.895  0.1310 -0.1182 -0.0682
 1056PNCE   T1A 9512   8.839   5.853   5.113  0.1219 -0.0861  0.2940
 1056PNCE   C2A 9513   8.748   5.877   5.545  0.1256  0.1691  0.2066
 1056PNCE   C3A 9514   9.032   5.607   5.743 -0.1565 -0.2171  0.1869
 1056PNCE   C1B 9515   9.379   4.964   5.226  0.3117 -0.3763  0.2095
 1056PNCE   C2B 9516   9.262   4.537   5.486  0.3013  0.1186  0.0455
 1056PNCE   C3B 9517   9.529   4.347   5.851  0.0921  0.0135  0.2959
 1056PNCE   D4B 9518   9.888   4.271   6.126  0.0994  0.4143  0.1023
 1056PNCE   C5B 9519  10.047   3.835   6.250 -0.0154  0.2261  0.0514
 1056PNCE   C6B 9520   9.990   3.543   6.616 -0.3297 -0.3217  0.0034
 1057CHOL   ROH 9521  10.630   3.560   8.219 -0.2746 -0.0123  0.0941
 1057CHOL    R1 9522  10.520   3.567   7.958 -0.1567  0.1902  0.0473
 1057CHOL    R2 9523  10.623   3.727   7.758  0.1922  0.0449  0.1017
 1057CHOL    R3 9524  10.635   3.492   7.621 -0.1329  0.0310  0.0901
 1057CHOL    R4 9525  10.684   3.699   7.419 -0.0523 -0.0169  0.0610
 1057CHOL    R5 9526  10.534   3.541   7.409 -0.2195  0.1345  0.1547
 1057CHOL    C1 9527  10.731   3.462   7.093 -0.4998 -0.0659  0.0263
 1057CHOL    C2 9528  11.035   3.253   6.757 -0.0575 -0.0533  0.0402
 1058PNCE   AM1 9529   0.277  13.868   4.738 -0.0546 -0.1565  0.3124
 1058PNCE   AM2 9530   0.073  13.597   4.655  0.2333 -0.4430  0.3866
 1058PNCE   T1A 9531   0.184  13.686   5.187 -0.1393  0.0911  0.0943
 1058PNCE   C2A 9532   0.179  13.598   5.673 -0.1908 -0.0652  0.0298
 1058PNCE   C3A 9533   0.266  13.286   6.024  0.1316  0.0622  0.0455
 1058PNCE   C1B 9534  -0.083  13.317   4.905 -0.0151 -0.2655 -0.2221
 1058PNCE   C2B 9535  -0.065  13.063   5.303 -0.0583 -0.2280  0.2787
 1058PNCE   C3B 9536  -0.123  13.201   5.698  0.0055  0.0306  0.0506
 1058PNCE   D4B 9537  -0.185  13.043   6.174 -0.0225  0.0422  0.1464
 1058PNCE   C5B 9538  -0.491  13.095   6.470  0.0393 -0.2580  0.2619
 1058PNCE   C6B 9539  -0.801  12.832   6.695 -0.3342  0.4280 -0.2386
 1059CHOL   ROH 9540   7.204  14.217   8.534  0.2017 -0.3059 -0.1617
 1059CHOL    R1 9541   7.039  14.166   8.310  0.1264 -0.1809 -0.1365
 1059CHOL    R2 9542   6.842  14.340   8.227  0.0525 -0.1628  0.0646
 1059CHOL    R3 9543   6.972  14.324   7.989 -0.0323  0.0382  0.0029
 1059CHOL    R4 9544   6.687  14.302   7.921 -0.0463 -0.0243  0.0964
 1059CHOL    R5 9545   6.846  14.163   7.864 -0.0170  0.0723 -0.0532
 1059CHOL    C1 9546   6.719  14.264   7.519 -0.1835  0.2451  0.0571
 1059CHOL    C2 9547   6.627  14.255   7.233  0.3048 -0.2901  0.1758
 1060PNCE   AM1 9548   0.619  14.145   4.939 -0.2450 -0.0486  0.0760
 1060PNCE   AM2 9549   0.618  14.401   4.761 -0.0049  0.2285 -0.0936
 1060PNCE   T1A 9550   0.435  14.224   5.337  0.1002  0.2763 -0.2109
 1060PNCE   C2A 9551   0.184  14.238   5.748 -0.0684  0.3036  0.1705
 1060PNCE   C3A 9552  -0.127  13.892   5.899  0.0819  0.3583  0.3196
 1060PNCE   C1B 9553   0.810  14.625   5.200  0.2291 -0.0240  0.1242
 1060PNCE   C2B 9554   1.153  14.641   5.513  0.0623 -0.1661 -0.0701
 1060PNCE   C3B 9555   1.529  14.681   5.700 -0.0779 -0.0809 -0.1905
 1060PNCE   D4B 9556   2.003  14.659   5.758 -0.0704 -0.2259 -0.0788
 1060PNCE   C5B 9557   2.177  14.735   6.239 -0.0443  0.0353 -0.1916
 1060PNCE   C6B 9558   2.349  15.010   6.489 -0.2561  0.0396 -0.0492
 1061PNCE   AM1 9559  10.047   6.683   4.875  0.0848 -0.3653 -0.1459
 1061PNCE   AM2 9560   9.876   6.974   4.902 -0.1359  0.0841 -0.0056
 1061PNCE   T1A 9561  10.269   6.829   5.197  0.2048 -0.0561  0.2836
 1061PNCE   C2A 9562  10.260   6.866   5.571 -0.0541 -0.1606 -0.1107
 1061PNCE   C3A 9563  10.175   6.770   6.001 -0.1297  0.1264  0.2852
 1061PNCE   C1B 9564   9.905   7.197   5.243  0.0608 -0.0930 -0.0379
 1061PNCE   C2B 9565   9.914   7.226   5.730 -0.0144  0.1398 -0.0161
 1061PNCE   C3B 9566   9.854   7.343   6.216 -0.1331  0.3505 -0.3393
 1061PNCE   D4B 9567   9.960   7.509   6.557  0.2199  0.0814 -0.0301
 1061PNCE   C5B 9568  10.310   7.720   6.812  0.1022  0.0834 -0.1718
 1061PNCE   C6B 9569  10.173   7.793   7.159  0.0845 -0.1719 -0.2089
 1062CHOL   ROH 9570   2.726   2.631   6.044  0.0399 -0.0350 -0.2663
 1062CHOL    R1 9571   2.840   2.531   6.284  0.1013  0.0291 -0.2682
 1062CHOL    R2 9572   2.690   2.407   6.480  0.1325  0.1800 -0.1444
 1062CHOL    R3 9573   2.871   2.207   6.446  0.0370  0.0908 -0.1332
 1062CHOL    R4 9574   2.767   2.169   6.718  0.0603  0.1844 -0.1162
 1062CHOL    R5 9575   2.976   2.187   6.660  0.0581  0.0783 -0.1471
 1062CHOL    C1 9576   2.982   1.843   6.825 -0.0713  0.1032 -0.0891
 1062CHOL    C2 9577   2.702   1.593   6.986 -0.0804 -0.1230  0.1254
 1063PNCE   AM1 9578  12.105   6.076   3.919  0.0391 -0.2362  0.3124
 1063PNCE   AM2 9579  11.991   6.417   3.911 -0.1049 -0.2847  0.3608
 1063PNCE   T1A 9580  12.144   6.099   4.381  0.1615  0.1570 -0.0191
 1063PNCE   C2A 9581  12.191   6.046   4.792  0.0968 -0.1465 -0.5023
 1063PNCE   C3A 9582  12.199   6.316   5.026 -0.2894  0.2838  0.1947
 1063PNCE   C1B 9583  11.679   6.266   4.161  0.0259  0.0624  0.0273
 1063PNCE   C2B 9584  11.409   6.082   4.445 -0.0016 -0.0396  0.1997
 1063PNCE   C3B 9585  11.217   6.024   4.900 -0.1233 -0.0084 -0.4038
 1063PNCE   D4B 9586  11.205   5.999   5.405  0.3529  0.4554  0.1406
 1063PNCE   C5B 9587  10.996   6.131   5.849  0.0595  0.4412 -0.0402
 1063PNCE   C6B 9588  10.919   6.505   5.893  0.0135  0.2095  0.2190
 1064CHOL   ROH 9589   6.177  15.526   5.391 -0.1138 -0.1999 -0.0584
 1064CHOL    R1 9590   6.232  15.715   5.594 -0.0929 -0.1096 -0.1469
 1064CHOL    R2 9591   6.034  15.818   5.759 -0.0639 -0.0979 -0.1199
 1064CHOL    R3 9592   6.199  15.730   5.957  0.0243  0.0177 -0.1407
 1064CHOL    R4 9593   6.053  15.955   6.075  0.1049  0.1112 -0.2173
 1064CHOL    R5 9594   6.269  15.930   6.068  0.0994  0.0861 -0.3067
 1064CHOL    C1 9595   6.218  15.952   6.446  0.2861  0.3414 -0.2936
 1064CHOL    C2 9596   6.420  16.139   6.695  0.0388  0.0812 -0.1022
 1065PNCE   AM1 9597  13.030  13.102   5.673  0.0317 -0.3446  0.1441
 1065PNCE   AM2 9598  13.198  13.036   5.822  0.0185  0.3389 -0.0644
 1065PNCE   T1A 9599  12.824  13.107   6.148 -0.1981 -0.2413 -0.2577
 1065PNCE   C2A 9600  12.789  13.142   6.602  0.1598  0.0652  0.0488
 1065PNCE   C3A 9601  12.680  13.199   7.065 -0.0408 -0.0115 -0.2145
 1065PNCE   C1B 9602  13.296  12.909   6.123 -0.1517 -0.1048 -0.0127
 1065PNCE   C2B 9603  13.542  13.016   6.491  0.1535 -0.0163 -0.0928
 1065PNCE   C3B 9604  13.449  13.456   6.541 -0.0805  0.0702  0.0822
 1065PNCE   D4B 9605  13.298  13.803   6.354  0.0569 -0.1681  0.1819
 1065PNCE   C5B 9606  13.361  14.099   6.713 -0.1684  0.0458 -0.2506
 1065PNCE   C6B 9607  13.350  14.188   7.199 -0.0072 -0.1253  0.1718
 1066XCA    COO 9608  11.106  11.739   4.318  0.2290  0.0848  0.0642
 1066XCA     C1 9609  11.236  11.786   4.778  0.2691 -0.0197  0.1501
 1066XCA     C2 9610  11.141  11.868   5.248 -0.1175  0.1442 -0.1019
 1066XCA     C3 9611  11.194  11.911   5.758  0.0697  0.0789  0.1820
 1066XCA     C4 9612  11.390  12.151   6.125 -0.2207 -0.2337  0.2348
 1066XCA     C5 9613  11.364  12.250   6.499 -0.0496 -0.1949  0.1500
 1066XCA     C6 9614  11.495  12.206   6.864  0.1178 -0.0891  0.2224
 1067PNCE   AM1 9615   6.348   5.754   5.622  0.0148  0.1124 -0.0758
 1067PNCE   AM2 9616   6.122   5.509   5.748 -0.2629  0.5123  0.0976
 1067PNCE   T1A 9617   6.621   5.838   6.013 -0.1078  0.2230  0.0417
 1067PNCE   C2A 9618   6.930   5.964   6.310 -0.0963  0.1671  0.0305
 1067PNCE   C3A 9619   7.162   6.218   6.536 -0.1889 -0.1087  0.0399
 1067PNCE   C1B 9620   5.693   5.875   5.757  0.1716 -0.0220 -0.1652
 1067PNCE   C2B 9621   5.313   6.086   5.727 -0.0190 -0.0579  0.1327
 1067PNCE   C3B 9622   5.206   6.415   6.048  0.1465 -0.3084 -0.0814
 1067PNCE   D4B 9623   5.362   6.498   6.469 -0.0822  0.1816 -0.2322
 1067PNCE   C5B 9624   5.271   6.055   6.789  0.2688 -0.1899 -0.1285
 1067PNCE   C6B 9625   4.910   6.086   6.972 -0.2087  0.1516 -0.0055
 1068PNCE   AM1 9626   4.490   2.443   4.507  0.1108  0.0878 -0.3742
 1068PNCE   AM2 9627   4.211   2.216   4.524  0.4554 -0.0247  0.0694
 1068PNCE   T1A 9628   4.690   2.693   4.748  0.1572 -0.3512 -0.1217
 1068PNCE   C2A 9629   5.065   2.745   5.107 -0.0451 -0.1011 -0.2159
 1068PNCE   C3A 9630   5.169   3.135   5.377  0.2263 -0.0943  0.2292
 1068PNCE   C1B 9631   4.259   2.312   4.987 -0.0926  0.0115 -0.0952
 1068PNCE   C2B 9632   4.205   2.728   5.175 -0.0406  0.0143 -0.0197
 1068PNCE   C3B 9633   4.124   2.840   5.564 -0.2496 -0.1959  0.0293
 1068PNCE   D4B 9634   4.171   2.942   6.001  0.1358  0.2548 -0.0499
 1068PNCE   C5B 9635   4.463   2.928   6.247  0.3207 -0.2384 -0.1307
 1068PNCE   C6B 9636   4.856   3.095   6.540 -0.0310  0.0021 -0.2724
 1069PNCE   AM1 9637   6.290  12.429   5.667 -0.1774 -0.3397 -0.1343
 1069PNCE   AM2 9638   6.400  12.786   5.653 -0.1220 -0.0539 -0.1126
 1069PNCE   T1A 9639   6.661  12.500   5.908  0.2264  0.3883 -0.0828
 1069PNCE   C2A 9640   6.734  12.320   6.307 -0.1119  0.1389  0.1569
 1069PNCE   C3A 9641   6.828  12.143   6.687 -0.2253 -0.3631  0.0281
 1069PNCE   C1B 9642   6.294  12.852   6.074 -0.1871 -0.3634  0.2531
 1069PNCE   C2B 9643   6.611  12.850   6.414 -0.0216 -0.1708 -0.0870
 1069PNCE   C3B 9644   7.028  12.656   6.526 -0.1612  0.1710  0.0229
 1069PNCE   D4B 9645   7.101  12.576   6.882 -0.0942  0.1828 -0.1598
 1069PNCE   C5B 9646   6.850  12.313   7.214 -0.2902 -0.1981  0.4930
 1069PNCE   C6B 9647   6.740  12.093   7.524  0.2083 -0.2462  0.2316
 1070PNCE   AM1 9648  13.585   7.349   4.271 -0.0223  0.0276  0.0478
 1070PNCE   AM2 9649  13.979   7.127   4.278  0.0987  0.1528 -0.2661
 1070PNCE   T1A 9650  13.658   7.328   4.645  0.3713  0.0768  0.1172
 1070PNCE   C2A 9651  13.649   7.314   5.058 -0.2433 -0.1427  0.0719
 1070PNCE   C3A 9652  13.719   7.025   5.383  0.2356  0.0481 -0.0190
 1070PNCE   C1B 9653  13.864   6.919   4.599  0.0521  0.2525 -0.1915
 1070PNCE   C2B 9654  13.687   6.863   4.898  0.2672 -0.0753 -0.1120
 1070PNCE   C3B 9655  13.367   6.663   5.059  0.0889  0.0409 -0.1848
 1070PNCE   D4B 9656  13.316   6.645   5.543  0.1816  0.2388  0.0864
 1070PNCE   C5B 9657  13.655   6.534   5.793  0.0807 -0.1073 -0.0187
 1070PNCE   C6B 9658  13.837   6.655   6.193 -0.0427  0.0233 -0.2521
 1071CHOL   ROH 9659  13.655   4.398   6.078  0.1519  0.1087 -0.1276
 1071CHOL    R1 9660  13.424   4.253   6.000  0.0865  0.1791 -0.0681
 1071CHOL    R2 9661  13.414   4.102   5.769 -0.0234  0.1865 -0.0730
 1071CHOL    R3 9662  13.338   3.905   5.940 -0.0314  0.2066 -0.0544
 1071CHOL    R4 9663  13.186   3.853   5.696  0.0084  0.1544 -0.0609
 1071CHOL    R5 9664  13.104   3.874   5.897 -0.0199  0.1778 -0.0792
 1071CHOL    C1 9665  12.981   3.523   5.814  0.0195  0.1547 -0.0365
 1071CHOL    C2 9666  12.922   3.129   5.995 -0.0918  0.2190  0.1640
 1072PNCE   AM1 9667  11.433  15.568   4.572 -0.1132  0.2437 -0.1531
 1072PNCE   AM2 9668  11.699  15.428   4.518 -0.0683 -0.0930  0.1037
 1072PNCE   T1A 9669  11.574  15.922   4.906 -0.2002 -0.2847 -0.0537
 1072PNCE   C2A 9670  11.701  16.152   5.235 -0.0092 -0.0300  0.1828
 1072PNCE   C3A 9671  11.815  16.428   5.621  0.0007 -0.1533 -0.0144
 1072PNCE   C1B 9672  11.557  15.356   4.979  0.0121  0.2404 -0.1082
 1072PNCE   C2B 9673  11.348  15.490   5.277 -0.2677  0.1635  0.1331
 1072PNCE   C3B 9674  11.108  15.568   5.626  0.0250 -0.0352 -0.0143
 1072PNCE   D4B 9675  10.922  15.957   5.748 -0.2799  0.0744  0.1164
 1072PNCE   C5B 9676  10.679  15.947   6.136 -0.1373  0.0781  0.3561
 1072PNCE   C6B 9677  10.615  16.140   6.521  0.2147 -0.0440 -0.0149
 1073XCA    COO 9678  15.451   6.591   8.168  0.0969  0.0250 -0.1288
 1073XCA     C1 9679  15.227   6.440   7.779  0.0542 -0.1735 -0.0720
 1073XCA     C2 9680  15.224   6.430   7.329 -0.2106  0.0553  0.0181
 1073XCA     C3 9681  15.224   6.593   6.993  0.2596 -0.0473 -0.2526
 1073XCA     C4 9682  15.233   6.455   6.565  0.1834 -0.2004 -0.0100
 1073XCA     C5 9683  15.613   6.622   6.295  0.2401  0.0601  0.1486
 1073XCA     C6 9684  15.916   6.332   6.192 -0.4365  0.1184 -0.2013
 1074XCA    COO 9685  13.335   7.156   8.626 -0.1664 -0.1603 -0.2468
 1074XCA     C1 9686  13.427   7.230   8.255 -0.1124 -0.3955 -0.1408
 1074XCA     C2 9687  13.778   7.278   7.996  0.0110 -0.2119  0.1585
 1074XCA     C3 9688  13.754   7.536   7.590  0.1503  0.2498 -0.0404
 1074XCA     C4 9689  13.697   7.745   7.164  0.0478  0.2855  0.2211
 1074XCA     C5 9690  13.378   7.806   6.982 -0.0325  0.2028 -0.0185
 1074XCA     C6 9691  13.016   7.978   6.853 -0.1893  0.1317 -0.1332
 1075XCA    COO 9692  10.531   9.844   4.831 -0.0395  0.2654  0.0729
 1075XCA     C1 9693  10.712   9.579   5.118 -0.2286  0.4019  0.0063
 1075XCA     C2 9694  10.993   9.398   5.430  0.1500 -0.0281 -0.2095
 1075XCA     C3 9695  11.337   9.583   5.769  0.1105  0.0249 -0.2738
 1075XCA     C4 9696  11.617   9.175   5.917  0.2224 -0.2093 -0.0538
 1075XCA     C5 9697  11.729   9.256   6.299 -0.1651  0.3633  0.1207
 1075XCA     C6 9698  11.705   9.493   6.660 -0.0236  0.0022  0.2041
 1076PNCE   AM1 9699  10.019   3.008   5.895  0.0145  0.0133  0.1393
 1076PNCE   AM2 9700   9.952   2.589   6.026 -0.0030 -0.1586 -0.1551
 1076PNCE   T1A 9701  10.103   3.497   5.814  0.0690  0.3543  0.0892
 1076PNCE   C2A 9702  10.228   3.742   5.523 -0.0148  0.2644  0.5237
 1076PNCE   C3A 9703  10.399   3.989   5.136  0.1390 -0.1163 -0.4381
 1076PNCE   C1B 9704   9.470   2.534   5.886  0.2113  0.2257  0.1374
 1076PNCE   C2B 9705   9.024   2.536   6.063 -0.1629 -0.0664 -0.1375
 1076PNCE   C3B 9706   8.744   2.629   6.211  0.3625 -0.0453 -0.1645
 1076PNCE   D4B 9707   8.784   2.472   6.562  0.0195  0.0858 -0.1533
 1076PNCE   C5B 9708   8.793   2.675   6.952 -0.0777  0.0450 -0.0979
 1076PNCE   C6B 9709   8.851   2.982   7.363  0.0215  0.1901  0.2260
 1077CHOL   ROH 9710   6.179  14.018   9.115  0.1518  0.0086 -0.1315
 1077CHOL    R1 9711   6.268  13.799   8.959  0.2489 -0.0812  0.0477
 1077CHOL    R2 9712   6.337  13.556   9.071 -0.0833 -0.1083  0.2062
 1077CHOL    R3 9713   6.156  13.460   8.891  0.1239 -0.0196 -0.0571
 1077CHOL    R4 9714   6.307  13.224   8.979 -0.1619 -0.1042  0.2157
 1077CHOL    R5 9715   6.275  13.288   8.773  0.1948 -0.1164  0.1521
 1077CHOL    C1 9716   6.120  12.940   8.758 -0.0132 -0.0186 -0.0258
 1077CHOL    C2 9717   6.309  12.574   8.793 -0.2651 -0.0460 -0.1385
 1078CHOL   ROH 9718   3.347   6.280   5.027  0.0875 -0.0263  0.0109
 1078CHOL    R1 9719   3.449   6.199   5.279 -0.0191  0.0273  0.0714
 1078CHOL    R2 9720   3.718   6.199   5.337 -0.0278 -0.1697  0.1097
 1078CHOL    R3 9721   3.640   6.351   5.548  0.0705  0.0159  0.0151
 1078CHOL    R4 9722   3.865   6.193   5.650  0.0026 -0.0304  0.0992
 1078CHOL    R5 9723   3.666   6.207   5.738  0.0174  0.1306  0.1116
 1078CHOL    C1 9724   3.877   6.332   6.031  0.1126  0.2250  0.0042
 1078CHOL    C2 9725   3.968   6.067   6.315 -0.2432  0.1605 -0.0679
 1079XCA    COO 9726   6.733   3.139   4.573 -0.0735 -0.1141  0.0206
 1079XCA     C1 9727   6.855   3.067   5.000 -0.2273  0.1619  0.0662
 1079XCA     C2 9728   7.017   2.769   5.329  0.0852  0.2173  0.1525
 1079XCA     C3 9729   7.228   2.447   5.529  0.1245 -0.1250  0.0563
 1079XCA     C4 9730   7.249   2.143   5.840 -0.1158 -0.1714 -0.2853
 1079XCA     C5 9731   7.037   2.200   6.183  0.0933  0.2496  0.1760
 1079XCA     C6 9732   6.729   1.987   6.482  0.1781  0.0368  0.1035
 1080PNCE   AM1 9733   9.972   2.932   4.143 -0.2147 -0.0170  0.0836
 1080PNCE   AM2 9734   9.758   3.134   4.035 -0.3765 -0.1278  0.0115
 1080PNCE   T1A 9735   9.779   2.547   4.474 -0.0214 -0.0506 -0.1095
 1080PNCE   C2A 9736   9.473   2.496   4.727 -0.1539  0.0713  0.0319
 1080PNCE   C3A 9737   9.139   2.636   4.666  0.0728 -0.0663 -0.4372
 1080PNCE   C1B 9738   9.619   2.982   4.539  0.0657 -0.0586 -0.1999
 1080PNCE   C2B 9739   9.761   3.204   4.999  0.3156  0.0419 -0.2034
 1080PNCE   C3B 9740  10.039   3.084   5.293  0.0369  0.1415 -0.1140
 1080PNCE   D4B 9741  10.163   2.695   5.454 -0.0166  0.0748  0.0072
 1080PNCE   C5B 9742  10.409   2.755   5.802  0.1302 -0.1413 -0.2122
 1080PNCE   C6B 9743  10.630   2.888   6.083 -0.0151 -0.1788 -0.2007
 1081CHOL   ROH 9744  12.568  11.469   7.126 -0.0249  0.0254  0.0294
 1081CHOL    R1 9745  12.577  11.211   7.010 -0.0398  0.0415 -0.0116
 1081CHOL    R2 9746  12.744  11.012   7.103  0.0267  0.0418 -0.1037
 1081CHOL    R3 9747  12.514  10.869   7.119  0.0447  0.0230 -0.0287
 1081CHOL    R4 9748  12.718  10.673   7.042 -0.0359  0.0969 -0.3909
 1081CHOL    R5 9749  12.530  10.712   6.939 -0.1225  0.1879 -0.1829
 1081CHOL    C1 9750  12.487  10.341   7.020 -0.0555  0.1113 -0.4877
 1081CHOL    C2 9751  12.197   9.986   6.912 -0.2034 -0.0988 -0.0477
 1082PNCE   AM1 9752   7.373   9.377   4.738 -0.1641 -0.3163  0.0900
 1082PNCE   AM2 9753   7.044   9.414   4.908  0.2218  0.0409  0.0185
 1082PNCE   T1A 9754   7.642   9.038   4.959 -0.0889 -0.2666 -0.1886
 1082PNCE   C2A 9755   7.639   8.831   5.360 -0.0866  0.0296  0.0835
 1082PNCE   C3A 9756   7.315   9.009   5.644 -0.0674  0.1373 -0.3246
 1082PNCE   C1B 9757   6.978   9.673   5.258 -0.0752 -0.0306 -0.1680
 1082PNCE   C2B 9758   7.279   9.585   5.619  0.2461 -0.0502 -0.0145
 1082PNCE   C3B 9759   7.393   9.455   5.983  0.0020  0.0829 -0.0837
 1082PNCE   D4B 9760   7.646   9.281   6.277 -0.0414  0.2442  0.1493
 1082PNCE   C5B 9761   8.110   9.364   6.151  0.0805  0.0408  0.0806
 1082PNCE   C6B 9762   8.301   9.591   5.811  0.1133 -0.2040  0.1302
 1083CHOL   ROH 9763   5.614   4.205   7.394  0.1054 -0.1509 -0.0551
 1083CHOL    R1 9764   5.608   4.295   7.126 -0.1846 -0.2439 -0.0823
 1083CHOL    R2 9765   5.373   4.314   6.981 -0.4260  0.2236  0.3426
 1083CHOL    R3 9766   5.456   4.570   6.944  0.0907  0.0361  0.1002
 1083CHOL    R4 9767   5.330   4.495   6.690 -0.4218  0.1607  0.3025
 1083CHOL    R5 9768   5.530   4.576   6.716 -0.1945 -0.2563 -0.0094
 1083CHOL    C1 9769   5.382   4.840   6.485  0.0657 -0.0520  0.0516
 1083CHOL    C2 9770   4.980   4.876   6.386 -0.0226  0.1105  0.2548
 1084XCA    COO 9771   2.427   1.936   4.812  0.2215  0.2025  0.2054
 1084XCA     C1 9772   2.504   1.985   5.205 -0.1389  0.0415 -0.2272
 1084XCA     C2 9773   2.421   1.981   5.685  0.0383 -0.1143 -0.0261
 1084XCA     C3 9774   2.335   1.751   6.106 -0.2125 -0.0525  0.0763
 1084XCA     C4 9775   1.936   1.447   6.349 -0.1623  0.1361  0.1720
 1084XCA     C5 9776   1.499   1.347   6.179 -0.3982 -0.0451  0.1462
 1084XCA     C6 9777   1.209   1.146   5.852 -0.2101  0.0848  0.1578
 1085PNCE   AM1 9778   0.845   0.657   4.873  0.0158 -0.0374  0.0723
 1085PNCE   AM2 9779   1.065   0.880   4.764  0.1267 -0.1725  0.0535
 1085PNCE   T1A 9780   0.755   0.677   5.321 -0.0420 -0.0664 -0.2804
 1085PNCE   C2A 9781   0.716   0.822   5.688 -0.3296  0.1565  0.1732
 1085PNCE   C3A 9782   0.630   0.850   6.044  0.1760  0.1299  0.5194
 1085PNCE   C1B 9783   0.980   1.193   5.025 -0.3573 -0.2092  0.0364
 1085PNCE   C2B 9784   0.888   1.492   5.509 -0.1894 -0.1035 -0.0543
 1085PNCE   C3B 9785   0.948   1.627   5.912  0.2656  0.2363  0.0722
 1085PNCE   D4B 9786   1.087   1.518   6.409  0.0098  0.1497 -0.1341
 1085PNCE   C5B 9787   1.497   1.606   6.545  0.4592 -0.2872 -0.1290
 1085PNCE   C6B 9788   1.800   1.694   6.814  0.1930  0.1009 -0.1911
 1086PNCE   AM1 9789   2.433  15.013   9.060 -0.1358 -0.3787  0.0321
 1086PNCE   AM2 9790   2.416  14.798   9.176 -0.3381 -0.0093  0.0887
 1086PNCE   T1A 9791   2.781  15.407   8.905 -0.1375  0.0670  0.1873
 1086PNCE   C2A 9792   3.095  15.773   8.937  0.1390  0.0187 -0.2620
 1086PNCE   C3A 9793   3.450  15.928   8.830  0.2057 -0.0833 -0.5370
 1086PNCE   C1B 9794   2.712  14.773   8.726  0.0561  0.0900 -0.1106
 1086PNCE   C2B 9795   3.100  15.011   8.671 -0.0527 -0.3550 -0.0629
 1086PNCE   C3B 9796   3.296  15.317   8.522 -0.2130  0.0352 -0.1284
 1086PNCE   D4B 9797   3.556  15.342   8.226  0.1196  0.4691 -0.1846
 1086PNCE   C5B 9798   3.477  14.982   7.856 -0.1949  0.1610  0.3400
 1086PNCE   C6B 9799   3.670  14.748   7.426  0.0827  0.1921  0.0053
 1087CHOL   ROH 9800  10.168   3.548   8.271 -0.0950 -0.2012  0.0071
 1087CHOL    R1 9801  10.098   3.697   8.041 -0.0654 -0.1391  0.0376
 1087CHOL    R2 9802  10.263   3.891   7.934 -0.0479 -0.1114  0.1074
 1087CHOL    R3 9803  10.234   3.745   7.706 -0.0233 -0.0546  0.0677
 1087CHOL    R4 9804  10.353   3.999   7.618  0.0547 -0.0713  0.1499
 1087CHOL    R5 9805  10.171   3.907   7.540  0.0570 -0.0104  0.0845
 1087CHOL    C1 9806  10.378   3.925   7.221  0.1376  0.0054  0.1374
 1087CHOL    C2 9807  10.568   4.149   7.052  0.1921 -0.3856  0.2181
 1088CHOL   ROH 9808   0.820   0.834   8.003  0.1077 -0.0089  0.0623
 1088CHOL    R1 9809   0.716   0.722   7.765  0.1461 -0.1668  0.1190
 1088CHOL    R2 9810   0.781   0.818   7.514 -0.0866 -0.1044  0.0824
 1088CHOL    R3 9811   0.850   0.559   7.468  0.2273 -0.0241  0.0756
 1088CHOL    R4 9812   0.913   0.698   7.218 -0.3005  0.0025 -0.0583
 1088CHOL    R5 9813   0.788   0.521   7.240 -0.0225 -0.1772  0.1628
 1088CHOL    C1 9814   1.054   0.386   7.002 -0.1304  0.1402 -0.1467
 1088CHOL    C2 9815   0.843   0.274   6.638  0.0061  0.1145 -0.1493
 1089XCA    COO 9816   3.507  10.491   6.423  0.1546 -0.3088 -0.1238
 1089XCA     C1 9817   3.826  10.582   6.702 -0.0776 -0.2596  0.0377
 1089XCA     C2 9818   3.832  10.721   7.069 -0.1037  0.1890 -0.0474
 1089XCA     C3 9819   3.502  10.674   7.328  0.1284  0.3639 -0.0811
 1089XCA     C4 9820   3.121  10.476   7.221  0.0890 -0.2508 -0.0655
 1089XCA     C5 9821   3.003  10.054   7.424  0.1042  0.1691  0.1103
 1089XCA     C6 9822   2.639   9.785   7.660  0.0643  0.0404 -0.1750
 1090CHOL   ROH 9823   2.345   3.869   4.553  0.1108  0.1350  0.1013
 1090CHOL    R1 9824   2.505   3.943   4.775  0.0392 -0.0414  0.2148
 1090CHOL    R2 9825   2.583   4.203   4.821  0.3502 -0.1311  0.2325
 1090CHOL    R3 9826   2.470   4.160   5.065  0.0974  0.0519  0.1512
 1090CHOL    R4 9827   2.693   4.346   5.117  0.2256 -0.1419  0.2839
 1090CHOL    R5 9828   2.657   4.155   5.216 -0.0396 -0.0759  0.3160
 1090CHOL    C1 9829   2.651   4.389   5.517 -0.0843  0.0235  0.2376
 1090CHOL    C2 9830   2.871   4.455   5.831 -0.1621 -0.0693 -0.0474
 1091XCA    COO 9831  13.481   1.774   8.996  0.0763  0.0228  0.0028
 1091XCA     C1 9832  13.641   1.655   8.535  0.0320 -0.0018 -0.1828
 1091XCA     C2 9833  13.832   1.859   8.153  0.0867 -0.1009  0.2533
 1091XCA     C3 9834  13.824   1.999   7.739  0.2672  0.0563 -0.0935
 1091XCA     C4 9835  14.151   2.068   7.355  0.2866 -0.0481 -0.2796
 1091XCA     C5 9836  14.414   1.819   7.273 -0.2228 -0.2065  0.0569
 1091XCA     C6 9837  14.583   1.657   6.933 -0.3144  0.0272 -0.4408
 1092CHOL   ROH 9838  11.861   8.956   8.294 -0.2198  0.4274  0.1779
 1092CHOL    R1 9839  11.627   8.945   8.133 -0.1131  0.3009  0.0265
 1092CHOL    R2 9840  11.619   9.045   7.876  0.0721  0.0588 -0.0810
 1092CHOL    R3 9841  11.531   8.795   7.816  0.0910  0.0083  0.1001
 1092CHOL    R4 9842  11.451   8.959   7.586 -0.1060 -0.1284  0.0754
 1092CHOL    R5 9843  11.321   8.831   7.706  0.0079 -0.1010  0.2250
 1092CHOL    C1 9844  11.271   8.674   7.362 -0.1918 -0.2848  0.3365
 1092CHOL    C2 9845  11.076   8.897   7.028 -0.0242  0.0587 -0.1289
 1093XCA    COO 9846  14.970   1.984   4.726 -0.0402 -0.1617  0.0346
 1093XCA     C1 9847  14.970   2.520   4.943 -0.2531  0.2476 -0.1015
 1093XCA     C2 9848  14.861   2.582   5.359  0.0433  0.0077  0.2136
 1093XCA     C3 9849  14.879   2.572   5.732 -0.1684  0.1238  0.1525
 1093XCA     C4 9850  14.604   2.571   6.080 -0.2529 -0.1917  0.0206
 1093XCA     C5 9851  14.653   2.206   6.396 -0.0488 -0.5064 -0.1428
 1093XCA     C6 9852  14.533   2.082   6.773 -0.0867 -0.1038  0.1963
 1094PNCE   AM1 9853   2.740   1.140   5.150  0.0479 -0.2519 -0.0393
 1094PNCE   AM2 9854   2.688   1.532   5.124  0.0401 -0.0244  0.0317
 1094PNCE   T1A 9855   2.729   1.049   5.470  0.0724 -0.0358 -0.3733
 1094PNCE   C2A 9856   2.874   0.964   5.968 -0.0904 -0.3223 -0.0895
 1094PNCE   C3A 9857   2.940   0.648   6.292  0.1178 -0.2098 -0.2151
 1094PNCE   C1B 9858   2.701   1.510   5.645 -0.1698 -0.2502 -0.1961
 1094PNCE   C2B 9859   2.845   1.458   6.076  0.1025  0.0294  0.3743
 1094PNCE   C3B 9860   2.914   1.170   6.468  0.0065  0.1620 -0.1589
 1094PNCE   D4B 9861   3.054   1.037   6.891 -0.2145 -0.1431 -0.0090
 1094PNCE   C5B 9862   3.238   0.710   7.130  0.0690  0.1216  0.4064
 1094PNCE   C6B 9863   3.449   0.360   7.117  0.0070  0.1414 -0.1800
 1095XCA    COO 9864   2.964  10.099   6.316 -0.1568 -0.1105  0.3857
 1095XCA     C1 9865   2.788  10.252   6.656  0.1051  0.0065 -0.0089
 1095XCA     C2 9866   2.654  10.342   7.094 -0.1924  0.2152  0.0477
 1095XCA     C3 9867   2.660  10.443   7.471  0.3362  0.1214  0.1170
 1095XCA     C4 9868   2.606  10.334   7.830 -0.0447  0.0150 -0.1675
 1095XCA     C5 9869   2.228  10.208   8.132  0.1108 -0.0719  0.1246
 1095XCA     C6 9870   1.925  10.044   8.531 -0.0035  0.2795  0.0287
 1096XCA    COO 9871   2.386   2.500   5.141 -0.2758  0.0653 -0.4405
 1096XCA     C1 9872   2.436   2.497   5.659  0.3124  0.1143  0.1038
 1096XCA     C2 9873   2.343   2.322   6.084 -0.4460  0.3023 -0.0753
 1096XCA     C3 9874   2.147   2.533   6.420  0.0980  0.3394  0.2151
 1096XCA     C4 9875   1.758   2.659   6.639 -0.1805  0.2301 -0.5527
 1096XCA     C5 9876   1.382   2.690   6.819 -0.1514 -0.0502 -0.0185
 1096XCA     C6 9877   1.002   2.456   6.812 -0.0542 -0.0658 -0.0071
 1097PNCE   AM1 9878   4.742   6.393   4.499 -0.0478 -0.2958  0.0740
 1097PNCE   AM2 9879   4.582   6.133   4.559  0.3528 -0.0054 -0.0138
 1097PNCE   T1A 9880   5.035   5.974   4.608 -0.3194  0.1275 -0.0327
 1097PNCE   C2A 9881   5.347   5.630   4.719 -0.1187  0.0535 -0.1024
 1097PNCE   C3A 9882   5.721   5.739   4.838  0.2333 -0.2190  0.0275
 1097PNCE   C1B 9883   4.520   6.163   5.037 -0.0764  0.0791  0.2396
 1097PNCE   C2B 9884   4.651   6.253   5.385  0.1779  0.2203  0.0830
 1097PNCE   C3B 9885   4.860   6.324   5.709  0.1601 -0.3982  0.0785
 1097PNCE   D4B 9886   4.651   6.318   6.111  0.1743 -0.2752 -0.1523
 1097PNCE   C5B 9887   4.273   6.453   6.292  0.0982  0.0381 -0.1850
 1097PNCE   C6B 9888   3.873   6.535   6.527  0.1366 -0.0846  0.1705
 1098PNCE   AM1 9889  15.051  10.089   4.682 -0.1440 -0.2425  0.2205
 1098PNCE   AM2 9890  15.213  10.287   4.453 -0.1586  0.1833  0.3480
 1098PNCE   T1A 9891  15.129   9.794   4.950 -0.1131 -0.0816  0.0219
 1098PNCE   C2A 9892  15.263   9.353   5.122  0.0883 -0.2239 -0.2325
 1098PNCE   C3A 9893  14.950   9.009   5.250 -0.0172 -0.2526 -0.3853
 1098PNCE   C1B 9894  15.281  10.556   4.824 -0.0378 -0.2336 -0.0282
 1098PNCE   C2B 9895  15.337  10.817   5.251  0.3787  0.0637 -0.1437
 1098PNCE   C3B 9896  15.369  10.972   5.690 -0.1363  0.0760  0.0634
 1098PNCE   D4B 9897  15.365  11.201   6.089 -0.1680 -0.0132 -0.2842
 1098PNCE   C5B 9898  15.591  11.029   6.473 -0.0907 -0.1270 -0.0439
 1098PNCE   C6B 9899  15.498  11.229   6.841 -0.3325  0.0943  0.0777
 1099PNCE   AM1 9900   2.729   0.492   5.083 -0.3066 -0.1470 -0.0176
 1099PNCE   AM2 9901   2.362   0.613   5.249 -0.4429 -0.0687  0.0852
 1099PNCE   T1A 9902   2.939   0.408   5.460  0.1504  0.3690 -0.0741
 1099PNCE   C2A 9903   3.127   0.553   5.825  0.4432  0.1960  0.0286
 1099PNCE   C3A 9904   3.471   0.738   6.053  0.0946 -0.1123  0.2084
 1099PNCE   C1B 9905   2.551   0.592   5.689 -0.0041  0.2901 -0.1710
 1099PNCE   C2B 9906   2.415   0.654   6.099 -0.0882 -0.1598 -0.0130
 1099PNCE   C3B 9907   2.192   0.843   6.554  0.0229 -0.0550  0.3078
 1099PNCE   D4B 9908   2.125   0.740   7.009  0.2445 -0.0749 -0.0540
 1099PNCE   C5B 9909   2.157   1.047   7.276  0.0732 -0.0840  0.0407
 1099PNCE   C6B 9910   2.247   1.102   7.707  0.1108  0.2339 -0.2846
 1100CHOL   ROH 9911   2.178   0.214   8.641 -0.2151  0.1348 -0.0700
 1100CHOL    R1 9912   2.327   0.110   8.424 -0.0685  0.0546  0.0653
 1100CHOL    R2 9913   2.333  -0.160   8.364 -0.1380  0.0414  0.0837
 1100CHOL    R3 9914   2.255  -0.074   8.119  0.1133  0.0722  0.0135
 1100CHOL    R4 9915   2.397  -0.324   8.067  0.0879  0.0480  0.1280
 1100CHOL    R5 9916   2.437  -0.131   7.974  0.2243  0.0345  0.1755
 1100CHOL    C1 9917   2.361  -0.339   7.663  0.4554  0.0808  0.0879
 1100CHOL    C2 9918   2.483  -0.507   7.331 -0.3270 -0.1760  0.2262
 1101XCA    COO 9919   9.569   9.924   5.102  0.0249  0.2870  0.2773
 1101XCA     C1 9920   9.721  10.264   5.341  0.0360 -0.2280 -0.2131
 1101XCA     C2 9921  10.006  10.586   5.178  0.0622 -0.0988  0.1461
 1101XCA     C3 9922   9.894  11.026   5.270  0.1816  0.3280  0.1985
 1101XCA     C4 9923   9.863  11.386   5.407 -0.2721  0.0673 -0.3927
 1101XCA     C5 9924   9.985  11.450   5.785 -0.2835  0.0163  0.0116
 1101XCA     C6 9925  10.046  11.462   6.282  0.1320  0.2347 -0.3208
 1102PNCE   AM1 9926   9.631  15.235   4.838 -0.1822  0.0370  0.0266
 1102PNCE   AM2 9927   9.405  15.004   4.931  0.1717 -0.2197 -0.0397
 1102PNCE   T1A 9928   9.689  15.489   5.194 -0.1079  0.0888 -0.0666
 1102PNCE   C2A 9929   9.723  15.631   5.554 -0.2358 -0.1049  0.2021
 1102PNCE   C3A 9930  10.047  15.468   5.934 -0.0851  0.0693  0.0449
 1102PNCE   C1B 9931   9.537  14.729   5.385  0.0852  0.2803 -0.3536
 1102PNCE   C2B 9932   9.140  14.700   5.554 -0.0893 -0.0567  0.0458
 1102PNCE   C3B 9933   8.865  15.059   5.698 -0.0771  0.1452 -0.0347
 1102PNCE   D4B 9934   8.970  15.447   5.809 -0.0957 -0.2647 -0.0121
 1102PNCE   C5B 9935   9.256  15.435   6.276  0.4006 -0.0786 -0.0284
 1102PNCE   C6B 9936   9.451  15.244   6.590 -0.3292  0.1196 -0.3695
 1103CHOL   ROH 9937   8.698   9.105   8.299 -0.1739 -0.1818  0.0689
 1103CHOL    R1 9938   8.541   9.020   8.079 -0.0671 -0.1982 -0.0015
 1103CHOL    R2 9939   8.459   9.193   7.879 -0.0817 -0.1857  0.0161
 1103CHOL    R3 9940   8.578   9.010   7.717  0.0513 -0.0931  0.0065
 1103CHOL    R4 9941   8.448   9.199   7.534  0.0690 -0.0736  0.0118
 1103CHOL    R5 9942   8.423   8.982   7.536  0.1392 -0.0840 -0.0716
 1103CHOL    C1 9943   8.552   9.030   7.180  0.2816  0.0787  0.0004
 1103CHOL    C2 9944   8.252   9.115   6.989  0.0903 -0.0049  0.2020
 1104XCA    COO 9945   9.997   6.208   4.759 -0.0744  0.0113  0.1856
 1104XCA     C1 9946   9.723   6.038   4.982  0.2894  0.1226  0.1196
 1104XCA     C2 9947   9.735   6.085   5.423  0.2022 -0.0261  0.1484
 1104XCA     C3 9948   9.606   5.840   5.792 -0.3069 -0.1903 -0.0494
 1104XCA     C4 9949   9.634   5.660   6.120  0.0509 -0.1335 -0.2294
 1104XCA     C5 9950  10.030   5.528   6.394  0.1769 -0.1220  0.1434
 1104XCA     C6 9951  10.019   5.569   6.752 -0.0779 -0.0182  0.2315
 1105CHOL   ROH 9952   8.864   1.887   6.614 -0.1320 -0.0124  0.2555
 1105CHOL    R1 9953   8.882   1.634   6.487 -0.0478  0.0074  0.2262
 1105CHOL    R2 9954   8.761   1.407   6.588 -0.2046  0.0086  0.0560
 1105CHOL    R3 9955   8.651   1.395   6.340  0.0563  0.0836 -0.0653
 1105CHOL    R4 9956   8.612   1.128   6.450 -0.3299  0.1380 -0.0729
 1105CHOL    R5 9957   8.706   1.176   6.261 -0.0718  0.0209  0.0245
 1105CHOL    C1 9958   8.422   0.953   6.137 -0.1579  0.2837 -0.2619
 1105CHOL    C2 9959   8.321   0.718   5.804  0.1618 -0.0686  0.1236
 1106PNCE   AM1 9960  11.202  13.830   4.597  0.3370  0.1935  0.2237
 1106PNCE   AM2 9961  11.350  13.499   4.620 -0.2228  0.0901 -0.1628
 1106PNCE   T1A 9962  11.119  13.949   4.962 -0.0817  0.1564  0.0769
 1106PNCE   C2A 9963  11.095  13.931   5.308  0.2704  0.1374 -0.3229
 1106PNCE   C3A 9964  11.090  13.820   5.765  0.0495 -0.0146 -0.2423
 1106PNCE   C1B 9965  11.139  13.437   5.050 -0.3635  0.4103 -0.2318
 1106PNCE   C2B 9966  11.136  13.332   5.503 -0.2383  0.1096  0.4177
 1106PNCE   C3B 9967  10.876  13.274   5.881 -0.0962 -0.0158 -0.0378
 1106PNCE   D4B 9968  10.724  13.537   6.123 -0.1612 -0.2603  0.0679
 1106PNCE   C5B 9969  10.885  13.679   6.586  0.1550  0.4741 -0.0237
 1106PNCE   C6B 9970  10.766  13.643   7.052 -0.0878  0.0278  0.2532
 1107CHOL   ROH 9971   6.584   2.137   4.914 -0.1476 -0.0944 -0.2141
 1107CHOL    R1 9972   6.487   1.933   5.084 -0.1795  0.0296 -0.0800
 1107CHOL    R2 9973   6.648   1.806   5.270 -0.1204 -0.0732 -0.1915
 1107CHOL    R3 9974   6.452   1.883   5.443  0.0996  0.1495 -0.0349
 1107CHOL    R4 9975   6.544   1.623   5.544 -0.3079 -0.0859 -0.2701
 1107CHOL    R5 9976   6.338   1.679   5.498 -0.2357  0.3112 -0.1236
 1107CHOL    C1 9977   6.300   1.588   5.866 -0.2107  0.1158 -0.1688
 1107CHOL    C2 9978   6.305   1.217   6.135  0.1260  0.1963 -0.0183
 1108CHOL   ROH 9979  13.416  12.017   8.724  0.0291  0.1389  0.0840
 1108CHOL    R1 9980  13.353  12.127   8.471  0.0171 -0.0231  0.0157
 1108CHOL    R2 9981  13.431  12.381   8.396 -0.1850  0.0149 -0.0612
 1108CHOL    R3 9982  13.538  12.251   8.183  0.0058  0.0225  0.0271
 1108CHOL    R4 9983  13.568  12.536   8.120 -0.5039  0.0377 -0.2114
 1108CHOL    R5 9984  13.474  12.384   7.994 -0.2658 -0.2367 -0.0737
 1108CHOL    C1 9985  13.748  12.504   7.758 -0.5104  0.0581 -0.2158
 1108CHOL    C2 9986  14.046  12.406   7.397  0.1685 -0.0220 -0.0899
 1109CHOL   ROH 9987  12.472   5.941   4.166 -0.1455 -0.0482  0.3095
 1109CHOL    R1 9988  12.531   5.788   4.397  0.0195 -0.1955  0.1736
 1109CHOL    R2 9989  12.591   5.518   4.386  0.1357 -0.1646 -0.0512
 1109CHOL    R3 9990  12.813   5.596   4.522  0.1584 -0.1653 -0.0891
 1109CHOL    R4 9991  12.692   5.390   4.691  0.0125  0.0680  0.0897
 1109CHOL    R5 9992  12.748   5.592   4.751  0.1197  0.0935 -0.0942
 1109CHOL    C1 9993  12.959   5.389   4.995 -0.0379  0.2030  0.1361
 1109CHOL    C2 9994  13.038   5.308   5.349 -0.2032  0.1859  0.2175
 1110PNCE   AM1 9995   6.507  10.477   9.652  0.0837 -0.0259 -0.3647
 1110PNCE   AM2 9996   6.305  10.770   9.594  0.0942  0.0379 -0.1203
 1110PNCE   T1A 9997   6.496  10.140   9.364 -0.3115  0.0596  0.0545
 1110PNCE   C2A 9998   6.400  10.081   8.956  0.2496 -0.1415  0.1154
 1110PNCE   C3A 9999   6.345  10.334   8.604 -0.0667 -0.2176  0.0747
 1110PNCE   C1B10000   5.833  10.900   9.399  0.0291 -0.1187 -0.0397
 1110PNCE   C2B10001   5.433  10.611   9.255  0.0034  0.1147  0.1649
 1110PNCE   C3B10002   4.974  10.603   9.376 -0.1528  0.1519  0.0096
 1110PNCE   D4B10003   4.694  10.961   9.536  0.1149  0.0577 -0.0110
 1110PNCE   C5B10004   4.544  11.348   9.294 -0.1127  0.0486  0.0214
 1110PNCE   C6B10005   4.258  11.595   9.040  0.2881  0.2260  0.1240
 1111XCA    COO10006   7.617   6.177   4.496 -0.2968  0.2465 -0.0842
 1111XCA     C110007   7.884   5.965   4.873  0.1498 -0.2651 -0.0148
 1111XCA     C210008   7.824   5.723   5.258 -0.2530 -0.2468  0.1844
 1111XCA     C310009   8.231   5.587   5.416 -0.0404  0.2076 -0.4707
 1111XCA     C410010   8.501   5.302   5.698  0.0651 -0.1133  0.2572
 1111XCA     C510011   8.513   4.911   5.909 -0.0424  0.0910 -0.1420
 1111XCA     C610012   8.342   4.593   6.112  0.0783 -0.1482  0.0252
 1112CHOL   ROH10013   9.887   2.470   8.190  0.0726  0.1422  0.0376
 1112CHOL    R110014   9.907   2.586   7.932  0.1073  0.0137 -0.0161
 1112CHOL    R210015  10.148   2.668   7.824  0.1113 -0.0217 -0.0110
 1112CHOL    R310016  10.075   2.505   7.620  0.1675 -0.1244  0.0475
 1112CHOL    R410017  10.267   2.690   7.501 -0.0846  0.0899 -0.0785
 1112CHOL    R510018  10.067   2.649   7.429 -0.0942 -0.1361  0.0367
 1112CHOL    C110019  10.268   2.550   7.120 -0.1459  0.0585 -0.0629
 1112CHOL    C210020  10.067   2.670   6.851 -0.0392 -0.0616  0.0509
 1113CHOL   ROH10021   8.068   4.382   7.876 -0.1672 -0.0341 -0.0661
 1113CHOL    R110022   8.086   4.344   7.596  0.0381 -0.1537 -0.0380
 1113CHOL    R210023   8.076   4.553   7.417 -0.0712 -0.2515 -0.1426
 1113CHOL    R310024   8.311   4.447   7.329  0.0931 -0.0549  0.0436
 1113CHOL    R410025   8.232   4.636   7.119 -0.1250 -0.4079 -0.2155
 1113CHOL    R510026   8.281   4.425   7.092  0.1626 -0.3883  0.0566
 1113CHOL    C110027   8.542   4.584   6.864 -0.0022 -0.3144 -0.0832
 1113CHOL    C210028   8.808   4.397   6.616  0.0637  0.0541  0.0591
 1114XCA    COO10029  14.331   6.952   4.554 -0.1418  0.0807 -0.0202
 1114XCA     C110030  14.190   6.605   4.875 -0.2891 -0.1629 -0.0228
 1114XCA     C210031  13.966   6.611   5.277  0.0800 -0.3010  0.3007
 1114XCA     C310032  14.114   6.474   5.689 -0.1014 -0.1114  0.0395
 1114XCA     C410033  14.031   6.248   6.015 -0.0904 -0.2172 -0.1338
 1114XCA     C510034  13.708   6.189   6.290 -0.2729  0.0740  0.1340
 1114XCA     C610035  13.319   6.263   6.544 -0.0018 -0.0101  0.0925
 1115CHOL   ROH10036   4.230  13.957   5.646 -0.0589  0.1737 -0.0529
 1115CHOL    R110037   4.275  13.961   5.926 -0.0432  0.1270 -0.0550
 1115CHOL    R210038   4.460  14.127   6.044 -0.0475  0.1180 -0.0365
 1115CHOL    R310039   4.247  14.205   6.194 -0.0443  0.0773 -0.0103
 1115CHOL    R410040   4.479  14.238   6.371 -0.0277  0.1583 -0.0509
 1115CHOL    R510041   4.298  14.125   6.415  0.0103  0.1152 -0.0098
 1115CHOL    C110042   4.290  14.376   6.702 -0.0133  0.1437 -0.0345
 1115CHOL    C210043   4.662  14.564   6.816  0.1783 -0.0715  0.1292
 1116XCA    COO10044  10.380   3.848   4.640 -0.2762 -0.0931 -0.0171
 1116XCA     C110045  10.080   3.609   4.987  0.1412  0.1807 -0.2069
 1116XCA     C210046   9.843   3.565   5.326  0.1374  0.3379  0.2398
 1116XCA     C310047   9.592   3.276   5.474  0.0804 -0.1232  0.0102
 1116XCA     C410048   9.312   2.964   5.114 -0.0895 -0.1511  0.2815
 1116XCA     C510049   9.221   2.543   5.184 -0.0953  0.1618  0.0009
 1116XCA     C610050   9.048   2.192   5.327  0.0270  0.0063  0.1567
 1117PNCE   AM110051   2.401   7.080   4.882 -0.0273 -0.2206  0.2926
 1117PNCE   AM210052   2.677   7.022   4.797  0.0426 -0.2311  0.3319
 1117PNCE   T1A10053   2.396   7.250   5.359 -0.0824  0.0270 -0.1355
 1117PNCE   C2A10054   2.275   7.098   5.770 -0.1122  0.1871 -0.0323
 1117PNCE   C3A10055   2.114   7.133   6.085 -0.0464  0.1272  0.0696
 1117PNCE   C1B10056   2.560   6.777   5.233 -0.0315  0.0122  0.4393
 1117PNCE   C2B10057   2.735   6.700   5.557  0.1293  0.0177  0.0924
 1117PNCE   C3B10058   2.633   6.414   5.862 -0.1156 -0.1439  0.2466
 1117PNCE   D4B10059   2.343   6.208   6.156  0.1320 -0.0991  0.2157
 1117PNCE   C5B10060   2.490   5.822   6.270 -0.3354 -0.3333 -0.0426
 1117PNCE   C6B10061   2.333   5.397   6.298 -0.0049 -0.1825 -0.1496
 1118PNCE   AM110062  10.302   8.014   4.662 -0.3887  0.0847  0.0417
 1118PNCE   AM210063  10.361   7.682   4.525  0.2006 -0.1492 -0.1217
 1118PNCE   T1A10064   9.932   8.176   4.954 -0.2120 -0.0326 -0.2964
 1118PNCE   C2A10065   9.721   8.106   5.177  0.3144  0.2040 -0.0819
 1118PNCE   C3A10066   9.661   8.027   5.613 -0.0484 -0.1576 -0.5686
 1118PNCE   C1B10067  10.487   7.726   4.998  0.0779  0.0739 -0.1841
 1118PNCE   C2B10068  10.543   7.724   5.461  0.0535 -0.0751  0.0983
 1118PNCE   C3B10069  10.564   7.776   5.861 -0.4583 -0.5281 -0.1108
 1118PNCE   D4B10070  10.432   8.085   6.116  0.0300  0.2123  0.1275
 1118PNCE   C5B10071  10.832   8.243   6.249  0.0539  0.3768  0.0387
 1118PNCE   C6B10072  10.875   8.524   6.057  0.1105 -0.0773  0.2263
 1119PNCE   AM110073  12.688   7.269   3.961 -0.4069 -0.0862  0.2056
 1119PNCE   AM210074  12.915   7.404   4.019 -0.0942  0.0912  0.0927
 1119PNCE   T1A10075  12.263   7.416   4.129  0.0415 -0.0893 -0.2356
 1119PNCE   C2A10076  12.001   7.483   4.568 -0.2273  0.1361  0.2305
 1119PNCE   C3A10077  11.798   7.714   4.754  0.0303 -0.3074 -0.3064
 1119PNCE   C1B10078  12.678   7.580   4.316 -0.1064 -0.3199 -0.2328
 1119PNCE   C2B10079  12.613   7.491   4.731 -0.1790  0.1629  0.0839
 1119PNCE   C3B10080  12.902   7.593   5.081  0.0561 -0.2525 -0.3197
 1119PNCE   D4B10081  13.211   7.276   5.246  0.1437  0.0002  0.1635
 1119PNCE   C5B10082  13.265   7.144   5.621  0.0552  0.1130 -0.0098
 1119PNCE   C6B10083  13.628   7.093   5.951  0.1822 -0.0886 -0.2880
 1120PNCE   AM110084   1.848   9.808   5.647 -0.1000 -0.1398  0.0588
 1120PNCE   AM210085   1.766  10.007   5.606 -0.1450  0.0755 -0.0861
 1120PNCE   T1A10086   1.761   9.442   5.342  0.0432 -0.0051 -0.2176
 1120PNCE   C2A10087   1.957   9.079   5.183  0.0288 -0.0762 -0.0604
 1120PNCE   C3A10088   1.808   8.693   5.047  0.2354 -0.1118  0.1981
 1120PNCE   C1B10089   1.487  10.120   5.988 -0.2821  0.2308 -0.1999
 1120PNCE   C2B10090   1.170  10.184   6.276  0.0212 -0.1240 -0.3268
 1120PNCE   C3B10091   0.730  10.130   6.511 -0.1885 -0.2535  0.2045
 1120PNCE   D4B10092   0.454   9.943   6.845 -0.0396 -0.0711  0.1020
 1120PNCE   C5B10093   0.480   9.736   7.214 -0.3234 -0.0031  0.0843
 1120PNCE   C6B10094   0.517   9.712   7.641 -0.2161 -0.2030  0.0010
 1121PNCE   AM110095   3.824   5.847   4.376  0.0359 -0.2576 -0.0586
 1121PNCE   AM210096   3.843   5.512   4.527 -0.2912  0.2173  0.0024
 1121PNCE   T1A10097   4.042   6.017   4.637  0.2245 -0.0697  0.0675
 1121PNCE   C2A10098   3.969   6.354   4.979  0.1185 -0.1439  0.1996
 1121PNCE   C3A10099   4.150   6.402   5.286 -0.5226  0.0576 -0.0313
 1121PNCE   C1B10100   3.446   5.434   4.726 -0.0215  0.1033 -0.0190
 1121PNCE   C2B10101   3.320   5.519   5.248  0.1534  0.1012  0.1656
 1121PNCE   C3B10102   3.670   5.749   5.470  0.0229  0.2801  0.0059
 1121PNCE   D4B10103   3.961   5.582   5.518 -0.1918  0.4469  0.0059
 1121PNCE   C5B10104   4.253   5.925   5.577  0.1015 -0.1224  0.0399
 1121PNCE   C6B10105   4.323   6.246   5.761  0.0557  0.0857  0.2072
 1122CHOL   ROH10106   5.082  11.732   9.771 -0.0126  0.1634  0.0541
 1122CHOL    R110107   5.144  11.541   9.571 -0.0169  0.0957  0.1156
 1122CHOL    R210108   4.951  11.432   9.406 -0.0054  0.1350  0.0672
 1122CHOL    R310109   5.116  11.520   9.208  0.1015  0.0330  0.1116
 1122CHOL    R410110   4.948  11.315   9.081  0.0668  0.0921  0.0826
 1122CHOL    R510111   5.167  11.322   9.082  0.0644 -0.0014  0.1582
 1122CHOL    C110112   5.102  11.329   8.706  0.2092 -0.0285  0.1331
 1122CHOL    C210113   4.852  11.342   8.323  0.3806 -0.2767  0.0428
 1123CHOL   ROH10114   0.229  13.553   8.562  0.3142  0.1601  0.0859
 1123CHOL    R110115   0.067  13.499   8.336  0.1816  0.1964  0.1711
 1123CHOL    R210116   0.095  13.634   8.097  0.1983  0.0749  0.1033
 1123CHOL    R310117   0.119  13.383   7.995 -0.0440  0.0118  0.1976
 1123CHOL    R410118   0.178  13.560   7.770  0.2961 -0.1297  0.1724
 1123CHOL    R510119   0.030  13.400   7.773  0.1009  0.0471  0.1423
 1123CHOL    C110120   0.248  13.281   7.484  0.1256 -0.3081  0.3014
 1123CHOL    C210121   0.330  13.208   7.088  0.2205  0.1928 -0.3310
 1124XCA    COO10122   9.240  10.706   4.913 -0.5568  0.1522 -0.0338
 1124XCA     C110123   9.466  10.706   5.331 -0.0874 -0.1356  0.0084
 1124XCA     C210124   9.351  10.534   5.632  0.1287 -0.0151 -0.0442
 1124XCA     C310125   9.514  10.700   6.025 -0.1542 -0.3082  0.1354
 1124XCA     C410126   9.790  10.487   6.142 -0.0444 -0.1256 -0.3790
 1124XCA     C510127  10.106  10.557   6.467 -0.0810  0.2288  0.0073
 1124XCA     C610128  10.479  10.491   6.508 -0.1683 -0.2353 -0.0684
 1125CHOL   ROH10129   9.014   8.962   4.590 -0.4544 -0.0503  0.1132
 1125CHOL    R110130   9.228   8.966   4.774 -0.3511  0.0494 -0.0070
 1125CHOL    R210131   9.221   9.114   5.007 -0.2888  0.0460 -0.0022
 1125CHOL    R310132   9.279   8.875   5.123 -0.1122  0.0715 -0.0344
 1125CHOL    R410133   9.254   9.061   5.347 -0.2966  0.0130 -0.0067
 1125CHOL    R510134   9.422   8.930   5.306 -0.1839  0.1564 -0.0038
 1125CHOL    C110135   9.326   8.805   5.654 -0.1354  0.0179 -0.0394
 1125CHOL    C210136   9.319   8.721   6.173  0.1755 -0.2081  0.2372
 1126PNCE   AM110137   8.427   5.606   3.821  0.1321 -0.3618  0.3663
 1126PNCE   AM210138   8.412   5.943   3.635  0.0627 -0.0811 -0.2323
 1126PNCE   T1A10139   8.554   5.484   4.277 -0.0104 -0.1523 -0.0899
 1126PNCE   C2A10140   8.787   5.397   4.631 -0.0212 -0.0927  0.2288
 1126PNCE   C3A10141   9.006   5.029   4.909  0.0963 -0.2013 -0.0128
 1126PNCE   C1B10142   8.305   5.971   4.091 -0.1192 -0.3199 -0.3599
 1126PNCE   C2B10143   8.286   5.992   4.634  0.0354  0.0258  0.0901
 1126PNCE   C3B10144   8.360   6.069   5.084  0.2880 -0.0006  0.2281
 1126PNCE   D4B10145   8.294   6.136   5.535  0.1673  0.1028 -0.2470
 1126PNCE   C5B10146   8.403   5.871   5.850  0.1818 -0.0049 -0.1886
 1126PNCE   C6B10147   8.590   5.601   6.090 -0.0579  0.2562  0.0579
 1127CHOL   ROH10148   2.961  11.524   5.417  0.0293  0.1206 -0.1536
 1127CHOL    R110149   2.762  11.571   5.613  0.0425  0.1382 -0.1441
 1127CHOL    R210150   2.704  11.389   5.813  0.0031  0.1221 -0.1681
 1127CHOL    R310151   2.751  11.603   5.975  0.0553  0.0889 -0.1396
 1127CHOL    R410152   2.627  11.403   6.150 -0.0286  0.1114 -0.1752
 1127CHOL    R510153   2.562  11.609   6.122  0.0421  0.1351 -0.1596
 1127CHOL    C110154   2.626  11.611   6.498  0.0019  0.0738 -0.1525
 1127CHOL    C210155   2.456  11.599   6.783 -0.0867 -0.1157 -0.0191
 1128PNCE   AM110156   2.620   2.618   4.644 -0.0315 -0.0049 -0.0908
 1128PNCE   AM210157   2.498   2.932   4.524  0.0094  0.1374 -0.1433
 1128PNCE   T1A10158   2.857   2.377   5.007  0.0474  0.1256 -0.1422
 1128PNCE   C2A10159   2.888   2.296   5.550 -0.0277  0.0464  0.3289
 1128PNCE   C3A10160   2.803   2.013   6.029  0.1780  0.0168 -0.0617
 1128PNCE   C1B10161   2.489   2.941   4.985  0.1089  0.0386  0.0609
 1128PNCE   C2B10162   2.521   2.905   5.423  0.0156 -0.0436 -0.2027
 1128PNCE   C3B10163   2.722   3.029   5.801  0.1078  0.0411  0.0237
 1128PNCE   D4B10164   3.037   3.142   5.996 -0.0041 -0.0698 -0.0453
 1128PNCE   C5B10165   2.954   3.635   5.936 -0.1994  0.1685  0.4267
 1128PNCE   C6B10166   2.658   4.044   5.913 -0.0049 -0.2354  0.1650
 1129CHOL   ROH10167   5.481   0.815   7.578 -0.1948 -0.1426 -0.0880
 1129CHOL    R110168   5.431   1.061   7.448 -0.2497 -0.0892  0.0343
 1129CHOL    R210169   5.474   1.097   7.178 -0.0288  0.1230  0.0998
 1129CHOL    R310170   5.215   1.179   7.179 -0.0909 -0.0586 -0.0834
 1129CHOL    R410171   5.300   1.206   6.900  0.1147  0.0537 -0.0198
 1129CHOL    R510172   5.209   1.361   7.024 -0.0925 -0.0294 -0.0550
 1129CHOL    C110173   4.955   1.346   6.739  0.1399 -0.1572 -0.2615
 1129CHOL    C210174   4.549   1.459   6.503  0.0266 -0.1879  0.0001
 1130PNCE   AM110175   7.729   7.822   4.707 -0.1434 -0.2898 -0.3191
 1130PNCE   AM210176   7.984   7.655   4.822  0.0488 -0.0177  0.1507
 1130PNCE   T1A10177   7.460   8.183   4.876 -0.1210 -0.3626 -0.0381
 1130PNCE   C2A10178   7.021   8.348   4.895 -0.1622 -0.2979  0.0102
 1130PNCE   C3A10179   6.709   8.080   4.982 -0.0814 -0.0697 -0.1055
 1130PNCE   C1B10180   8.045   7.271   5.058 -0.1517 -0.1513  0.2323
 1130PNCE   C2B10181   7.875   6.939   5.238 -0.0471  0.1186  0.0485
 1130PNCE   C3B10182   7.829   6.773   5.579 -0.0502  0.1848 -0.1293
 1130PNCE   D4B10183   7.823   6.812   6.011  0.1349  0.0053 -0.2412
 1130PNCE   C5B10184   8.111   6.712   6.401 -0.0228  0.0284 -0.1171
 1130PNCE   C6B10185   8.254   6.925   6.795 -0.1492  0.0639  0.1446
 1131PNCE   AM110186   5.657  10.568   5.496  0.0765 -0.0822 -0.2931
 1131PNCE   AM210187   5.523  10.221   5.490 -0.0366  0.1596  0.2391
 1131PNCE   T1A10188   5.546  10.779   5.779  0.0912  0.1309 -0.1610
 1131PNCE   C2A10189   5.456  10.795   6.165 -0.0590  0.0822  0.0878
 1131PNCE   C3A10190   5.646  10.354   6.306 -0.0086  0.1814 -0.2067
 1131PNCE   C1B10191   5.221  10.256   5.877  0.3161 -0.2746  0.0617
 1131PNCE   C2B10192   5.028  10.498   6.224  0.2536  0.1834  0.3173
 1131PNCE   C3B10193   5.190  10.581   6.626  0.1085 -0.4440  0.5666
 1131PNCE   D4B10194   5.045  10.653   7.037 -0.1367 -0.0137 -0.2927
 1131PNCE   C5B10195   4.720  10.415   7.236  0.0389  0.2252 -0.2672
 1131PNCE   C6B10196   4.488  10.110   7.226 -0.0998  0.2770 -0.2198
 1132PNCE   AM110197   4.610   1.883   4.524 -0.2278  0.0946 -0.0561
 1132PNCE   AM210198   4.702   1.589   4.471  0.1893 -0.0688 -0.1998
 1132PNCE   T1A10199   4.735   2.132   4.856 -0.0421 -0.2213  0.0508
 1132PNCE   C2A10200   4.695   2.429   5.186 -0.4746 -0.1438 -0.2581
 1132PNCE   C3A10201   4.931   2.541   5.526 -0.1821  0.2755 -0.1018
 1132PNCE   C1B10202   4.768   1.615   4.877 -0.4810  0.0726  0.1935
 1132PNCE   C2B10203   5.003   1.608   5.283  0.1440  0.1093  0.0006
 1132PNCE   C3B10204   5.178   1.980   5.543 -0.2889 -0.1493  0.1510
 1132PNCE   D4B10205   5.086   2.170   6.014 -0.0139 -0.0242 -0.0427
 1132PNCE   C5B10206   5.159   2.642   6.105 -0.2936  0.0555  0.0046
 1132PNCE   C6B10207   5.298   2.993   6.267 -0.2290  0.1152  0.1470
 1133PNCE   AM110208   4.572   6.745   5.386  0.0111 -0.0209 -0.1842
 1133PNCE   AM210209   4.477   7.073   5.213  0.1762 -0.2243  0.0757
 1133PNCE   T1A10210   4.975   6.736   5.408 -0.0243  0.1374 -0.2774
 1133PNCE   C2A10211   5.392   6.546   5.454  0.0431 -0.0737  0.1057
 1133PNCE   C3A10212   5.678   6.378   5.927  0.0324  0.1056  0.0641
 1133PNCE   C1B10213   4.531   7.190   5.627 -0.0477 -0.0540 -0.1096
 1133PNCE   C2B10214   4.916   7.088   5.819 -0.0602  0.2791  0.1737
 1133PNCE   C3B10215   5.152   7.105   6.289 -0.2869  0.0243  0.1882
 1133PNCE   D4B10216   5.162   6.893   6.660 -0.1814 -0.0717  0.1475
 1133PNCE   C5B10217   5.085   7.055   7.039 -0.1639 -0.3579  0.0927
 1133PNCE   C6B10218   5.310   7.340   7.317  0.0520 -0.0717 -0.1302
 1134PNCE   AM110219   0.375   4.971   4.185  0.1521  0.3410 -0.1269
 1134PNCE   AM210220   0.484   4.735   4.376  0.0304  0.2519 -0.1882
 1134PNCE   T1A10221   0.213   5.076   4.618 -0.0575 -0.1131  0.2343
 1134PNCE   C2A10222   0.033   4.940   5.008  0.4081 -0.4533  0.1104
 1134PNCE   C3A10223  -0.131   5.061   5.416 -0.0912  0.0203  0.2809
 1134PNCE   C1B10224   0.402   4.541   4.717  0.0274  0.0440 -0.0477
 1134PNCE   C2B10225   0.224   4.439   5.115  0.0761 -0.0661 -0.2792
 1134PNCE   C3B10226   0.183   4.601   5.395  0.3740  0.4293  0.1703
 1134PNCE   D4B10227  -0.003   4.533   5.840  0.1237  0.1925 -0.0192
 1134PNCE   C5B10228  -0.032   4.070   5.809 -0.0019 -0.1454  0.0120
 1134PNCE   C6B10229  -0.075   3.579   6.055 -0.1950 -0.0715  0.4072
 1135CHOL   ROH10230  12.437   6.108   8.125  0.0593 -0.1475  0.0711
 1135CHOL    R110231  12.431   6.246   7.878  0.1346 -0.0621  0.1155
 1135CHOL    R210232  12.630   6.221   7.689  0.1618 -0.0488  0.1362
 1135CHOL    R310233  12.422   6.157   7.525  0.1699  0.0562  0.0856
 1135CHOL    R410234  12.651   6.189   7.345  0.2118 -0.0168  0.1369
 1135CHOL    R510235  12.458   6.289   7.329  0.2597  0.0618  0.1096
 1135CHOL    C110236  12.468   6.110   6.992  0.2484  0.1003  0.0898
 1135CHOL    C210237  12.360   6.219   6.667  0.0872  0.3301  0.1874
 1136PNCE   AM110238   1.897   0.154   5.255  0.1454 -0.2883  0.0277
 1136PNCE   AM210239   1.865  -0.208   5.495 -0.0521 -0.1698  0.0508
 1136PNCE   T1A10240   2.042   0.398   5.554  0.1868  0.0066 -0.0313
 1136PNCE   C2A10241   2.080   0.721   5.755  0.0059  0.0371 -0.0517
 1136PNCE   C3A10242   1.942   1.030   6.068 -0.0956 -0.0950 -0.0134
 1136PNCE   C1B10243   1.897  -0.027   5.884 -0.0995  0.1395  0.0530
 1136PNCE   C2B10244   2.176   0.188   6.174 -0.1947 -0.0096 -0.3971
 1136PNCE   C3B10245   2.457   0.372   6.475  0.1312 -0.0773 -0.0585
 1136PNCE   D4B10246   2.577   0.185   6.889 -0.1173 -0.0060 -0.1047
 1136PNCE   C5B10247   2.333  -0.115   7.069  0.0428 -0.1639  0.0158
 1136PNCE   C6B10248   2.151  -0.448   6.855 -0.1959 -0.1550 -0.0316
 1137CHOL   ROH10249  10.957  12.288   7.005 -0.1590 -0.1226 -0.0778
 1137CHOL    R110250  10.703  12.165   7.031 -0.1301 -0.1584  0.0385
 1137CHOL    R210251  10.515  12.167   6.829 -0.2266 -0.1793  0.1263
 1137CHOL    R310252  10.521  11.898   6.864 -0.1715 -0.1792  0.1173
 1137CHOL    R410253  10.258  11.951   6.747 -0.1791 -0.2312  0.1142
 1137CHOL    R510254  10.298  11.841   6.931 -0.1603 -0.2286  0.1105
 1137CHOL    C110255  10.114  11.573   6.732 -0.0998 -0.2614  0.0987
 1137CHOL    C210256   9.680  11.414   6.614  0.0455 -0.2211  0.1964
 1138PNCE   AM110257   9.915   4.973   4.550 -0.3189 -0.0844 -0.0093
 1138PNCE   AM210258   9.803   5.036   4.871 -0.1624  0.1556  0.1008
 1138PNCE   T1A10259  10.229   5.282   4.733  0.4477  0.5171  0.4408
 1138PNCE   C2A10260  10.448   5.311   5.053  0.1918 -0.0059 -0.0420
 1138PNCE   C3A10261  10.553   5.457   5.386  0.1393 -0.0740 -0.0452
 1138PNCE   C1B10262  10.057   4.972   5.222 -0.1055 -0.1361  0.0153
 1138PNCE   C2B10263  10.351   5.052   5.573 -0.2785  0.1735 -0.0426
 1138PNCE   C3B10264  10.684   5.153   5.785  0.2257  0.0337  0.2461
 1138PNCE   D4B10265  10.955   5.233   6.205  0.0241  0.1470  0.1694
 1138PNCE   C5B10266  10.988   5.170   6.587  0.2226 -0.3280  0.0350
 1138PNCE   C6B10267  11.110   4.844   6.918 -0.0692  0.0893  0.1545
 1139PNCE   AM110268   1.842   6.130   5.003  0.0666  0.3159  0.2259
 1139PNCE   AM210269   1.640   6.531   4.900 -0.1421 -0.0558  0.4165
 1139PNCE   T1A10270   1.926   6.110   5.440  0.0056 -0.0123 -0.0401
 1139PNCE   C2A10271   2.124   5.961   5.742 -0.0164  0.4415  0.0527
 1139PNCE   C3A10272   2.313   5.518   5.799  0.1295 -0.0942  0.4256
 1139PNCE   C1B10273   1.713   6.581   5.362  0.0440  0.0038 -0.4584
 1139PNCE   C2B10274   1.477   6.629   5.751 -0.2922  0.0479  0.1931
 1139PNCE   C3B10275   1.373   6.448   6.281 -0.0221  0.1099  0.2124
 1139PNCE   D4B10276   1.812   6.477   6.598 -0.0429 -0.0290  0.2820
 1139PNCE   C5B10277   2.248   6.625   6.361  0.3886 -0.0034 -0.0575
 1139PNCE   C6B10278   2.526   6.828   6.153 -0.3738 -0.2019 -0.0043
 1140XCA    COO10279   0.967  14.934   9.098 -0.2725  0.0176 -0.0864
 1140XCA     C110280   0.586  15.171   8.963 -0.1140 -0.0814  0.2308
 1140XCA     C210281   0.451  15.220   8.509 -0.3036  0.3209 -0.1604
 1140XCA     C310282   0.334  15.142   8.105 -0.2110  0.3209 -0.3586
 1140XCA     C410283   0.390  15.280   7.722  0.1065  0.1245 -0.1012
 1140XCA     C510284   0.392  15.462   7.375  0.1400 -0.4155  0.0400
 1140XCA     C610285   0.513  15.415   6.964  0.1930  0.0282  0.3632
 1141CHOL   ROH10286   4.271  13.484   9.010  0.1455 -0.0282  0.1145
 1141CHOL    R110287   4.319  13.248   8.861 -0.0124 -0.0151  0.0415
 1141CHOL    R210288   4.136  13.146   8.681 -0.0645  0.1869 -0.0215
 1141CHOL    R310289   4.346  13.160   8.509 -0.0271  0.0844  0.0149
 1141CHOL    R410290   4.185  12.935   8.412 -0.0789  0.1112  0.0347
 1141CHOL    R510291   4.397  12.931   8.459 -0.0880  0.0565  0.0759
 1141CHOL    C110292   4.410  12.825   8.093 -0.0522 -0.0290  0.1015
 1141CHOL    C210293   4.380  12.451   7.881  0.0946 -0.0395  0.1516
 1142PNCE   AM110294  13.086   8.417   4.191  0.0807 -0.1635  0.0556
 1142PNCE   AM210295  13.300   8.255   4.347  0.1232  0.0140  0.0824
 1142PNCE   T1A10296  12.983   8.708   4.423  0.2661 -0.1625  0.1215
 1142PNCE   C2A10297  13.035   8.585   4.919  0.1383 -0.1884  0.2483
 1142PNCE   C3A10298  13.433   8.609   5.199 -0.2744  0.1896 -0.0770
 1142PNCE   C1B10299  13.030   8.114   4.693 -0.1356 -0.1615 -0.2058
 1142PNCE   C2B10300  13.075   8.141   5.210  0.0118  0.0266  0.0673
 1142PNCE   C3B10301  12.898   7.958   5.601  0.0733  0.2030  0.0322
 1142PNCE   D4B10302  12.844   7.568   5.696  0.0670  0.0151  0.2083
 1142PNCE   C5B10303  12.662   7.550   6.055 -0.0074  0.1272  0.0019
 1142PNCE   C6B10304  12.454   7.341   6.340 -0.1153  0.1744  0.1313
 1143PNCE   AM110305   3.437   2.455   4.588  0.2185  0.0557  0.3103
 1143PNCE   AM210306   3.338   2.221   4.722 -0.0597 -0.2002  0.2845
 1143PNCE   T1A10307   3.620   2.666   4.901 -0.0348  0.3476  0.2934
 1143PNCE   C2A10308   3.795   3.043   5.201  0.2738 -0.1234 -0.0742
 1143PNCE   C3A10309   3.818   3.282   5.549 -0.0680 -0.0050 -0.1262
 1143PNCE   C1B10310   3.347   2.313   5.178 -0.1846 -0.0330 -0.3615
 1143PNCE   C2B10311   3.519   2.497   5.572  0.3000 -0.3950 -0.2098
 1143PNCE   C3B10312   3.625   2.844   5.785  0.2144  0.4505  0.0167
 1143PNCE   D4B10313   3.707   3.173   6.064 -0.1876 -0.3286  0.0165
 1143PNCE   C5B10314   4.107   3.458   5.948  0.0518 -0.3646  0.1812
 1143PNCE   C6B10315   4.474   3.363   6.076 -0.0294  0.3690  0.2524
 1144CHOL   ROH10316  14.285   8.995   8.044  0.0229 -0.0015 -0.1206
 1144CHOL    R110317  14.442   9.034   7.812  0.0920  0.0216 -0.0702
 1144CHOL    R210318  14.670   8.888   7.760  0.0869  0.0003 -0.0351
 1144CHOL    R310319  14.545   8.835   7.525  0.1436  0.0619 -0.0796
 1144CHOL    R410320  14.831   8.809   7.464  0.1474 -0.2642  0.0660
 1144CHOL    R510321  14.686   8.934   7.359  0.3314 -0.1408 -0.0434
 1144CHOL    C110322  14.806   8.713   7.071  0.2358 -0.3604  0.0831
 1144CHOL    C210323  14.860   8.761   6.648  0.0265  0.1112 -0.2147
 1145CHOL   ROH10324   6.255   9.703   7.887  0.1741  0.0207 -0.0554
 1145CHOL    R110325   6.050   9.515   7.834  0.1341  0.0772 -0.1008
 1145CHOL    R210326   5.967   9.453   7.578  0.2574  0.0135 -0.1240
 1145CHOL    R310327   6.021   9.199   7.657  0.1169  0.0206  0.0010
 1145CHOL    R410328   5.797   9.172   7.470  0.1819  0.0436 -0.0855
 1145CHOL    R510329   5.806   9.094   7.673  0.0629  0.1194 -0.0479
 1145CHOL    C110330   5.749   8.770   7.480  0.0061  0.0677  0.0543
 1145CHOL    C210331   5.361   8.584   7.326 -0.0902 -0.1259 -0.0537
 1146PNCE   AM110332   6.034   5.742   4.439 -0.3194 -0.0305  0.2762
 1146PNCE   AM210333   6.236   5.681   4.241 -0.0060 -0.0872 -0.1696
 1146PNCE   T1A10334   6.242   5.550   4.745  0.0523  0.1974  0.0982
 1146PNCE   C2A10335   6.396   5.385   5.123  0.1277  0.0182 -0.1068
 1146PNCE   C3A10336   6.463   5.207   5.543  0.0863 -0.0485  0.3537
 1146PNCE   C1B10337   6.604   5.776   4.458  0.3624  0.0082 -0.1991
 1146PNCE   C2B10338   6.712   5.904   4.849 -0.1445 -0.1604  0.2508
 1146PNCE   C3B10339   6.775   5.703   5.217 -0.1012  0.1915 -0.0879
 1146PNCE   D4B10340   6.858   5.623   5.569 -0.0707  0.0950  0.1071
 1146PNCE   C5B10341   7.240   5.467   5.717 -0.4675 -0.0615  0.1851
 1146PNCE   C6B10342   7.406   5.082   5.544  0.2397  0.2588  0.2155
 1147CHOL   ROH10343  12.236  12.293   4.965 -0.0412 -0.0500  0.0887
 1147CHOL    R110344  12.145  12.177   5.207 -0.0810  0.0107  0.1021
 1147CHOL    R210345  12.292  12.187   5.441 -0.0117 -0.1380  0.0614
 1147CHOL    R310346  12.063  12.294   5.542  0.1084  0.0553  0.1352
 1147CHOL    R410347  12.156  12.106   5.748 -0.1557 -0.2847 -0.0381
 1147CHOL    R510348  11.958  12.111   5.656 -0.1430  0.0646 -0.0675
 1147CHOL    C110349  11.862  12.160   6.022 -0.1268 -0.1887 -0.0267
 1147CHOL    C210350  11.805  12.006   6.406  0.0085 -0.3438 -0.1377
 1148CHOL   ROH10351   0.527   0.078   8.975 -0.0959 -0.0811  0.1300
 1148CHOL    R110352   0.491  -0.049   8.724  0.3272 -0.3145  0.1794
 1148CHOL    R210353   0.444   0.092   8.492 -0.1643 -0.5482  0.1346
 1148CHOL    R310354   0.658  -0.049   8.401  0.3375  0.1296  0.1750
 1148CHOL    R410355   0.527   0.053   8.158 -0.3113 -0.6965  0.1123
 1148CHOL    R510356   0.578  -0.155   8.201  0.5421 -0.4830  0.3855
 1148CHOL    C110357   0.776  -0.102   7.879  0.0742 -0.1466  0.1372
 1148CHOL    C210358   0.932   0.037   7.482 -0.1094 -0.0122  0.1048
 1149XCA    COO10359  13.179   4.441   3.747  0.0218  0.0873  0.1141
 1149XCA     C110360  13.055   4.754   4.113  0.1050 -0.0285  0.4104
 1149XCA     C210361  12.798   4.908   4.495  0.0660  0.2058 -0.1898
 1149XCA     C310362  12.945   4.900   4.891 -0.0858 -0.0506  0.0708
 1149XCA     C410363  13.051   4.761   5.230 -0.0346 -0.0654 -0.0995
 1149XCA     C510364  13.176   4.524   5.623  0.6480 -0.1362  0.0795
 1149XCA     C610365  13.228   4.643   6.053  0.1415 -0.1925 -0.1226
 1150PNCE   AM110366   2.676  13.974   5.107  0.0685 -0.0703  0.0463
 1150PNCE   AM210367   2.577  13.630   5.211 -0.0141 -0.2082 -0.0476
 1150PNCE   T1A10368   2.881  13.942   5.480  0.2710 -0.1118 -0.0159
 1150PNCE   C2A10369   3.343  14.021   5.745  0.0449 -0.0084  0.3086
 1150PNCE   C3A10370   3.351  13.973   6.142  0.1979  0.1410 -0.1697
 1150PNCE   C1B10371   2.658  13.476   5.613  0.0061 -0.2987 -0.0618
 1150PNCE   C2B10372   2.597  13.426   6.069 -0.4068 -0.1539 -0.2011
 1150PNCE   C3B10373   2.597  13.676   6.383  0.1322 -0.0767  0.2181
 1150PNCE   D4B10374   2.481  13.829   6.875  0.1606 -0.0800  0.1293
 1150PNCE   C5B10375   2.085  14.092   7.040  0.0274 -0.1653  0.2348
 1150PNCE   C6B10376   1.690  13.911   6.974 -0.2054 -0.1532 -0.1161
 1151XCA    COO10377   1.479  10.990   8.786 -0.1431 -0.2821 -0.0777
 1151XCA     C110378   1.297  10.808   8.479  0.0069  0.2949 -0.0589
 1151XCA     C210379   0.854  10.771   8.265  0.3519  0.0365  0.1879
 1151XCA     C310380   0.497  10.657   7.987 -0.1990  0.1728  0.1417
 1151XCA     C410381   0.038  10.556   7.916  0.3553 -0.0886  0.1360
 1151XCA     C510382  -0.361  10.743   7.913 -0.0192  0.4612  0.0958
 1151XCA     C610383  -0.502  11.195   8.054 -0.1577 -0.1726  0.1042
 1152CHOL   ROH10384   6.264   9.870   5.182 -0.0930 -0.0947  0.0335
 1152CHOL    R110385   6.511   9.828   5.314 -0.0273 -0.1154 -0.0914
 1152CHOL    R210386   6.573   9.949   5.554  0.1506 -0.0335 -0.1686
 1152CHOL    R310387   6.620   9.694   5.634  0.1107 -0.0179 -0.0992
 1152CHOL    R410388   6.769   9.860   5.824  0.0272  0.0005 -0.0682
 1152CHOL    R510389   6.849   9.695   5.706  0.0732 -0.0179  0.0023
 1152CHOL    C110390   6.928   9.568   6.057 -0.0822  0.0349  0.0555
 1152CHOL    C210391   7.119   9.352   6.348 -0.2792  0.1209  0.1351
 1153PNCE   AM110392   7.411   1.562   4.056  0.1458 -0.4342  0.0316
 1153PNCE   AM210393   7.315   1.817   4.229  0.0271 -0.1805 -0.1161
 1153PNCE   T1A10394   7.014   1.373   4.368  0.1542  0.2317 -0.1334
 1153PNCE   C2A10395   6.610   1.096   4.450 -0.3290 -0.1982 -0.1481
 1153PNCE   C3A10396   6.210   0.888   4.670 -0.0595  0.1421 -0.1012
 1153PNCE   C1B10397   7.429   1.624   4.592 -0.0014  0.1141 -0.0478
 1153PNCE   C2B10398   7.742   1.474   4.774 -0.0926  0.2209 -0.3333
 1153PNCE   C3B10399   8.035   1.321   4.998  0.1982  0.1538  0.1119
 1153PNCE   D4B10400   8.503   1.225   5.146  0.0489 -0.4325  0.1995
 1153PNCE   C5B10401   8.592   0.897   5.369 -0.2130 -0.0810  0.0931
 1153PNCE   C6B10402   8.727   0.507   5.631 -0.1183 -0.2838 -0.0423
 1154XCA    COO10403  11.290  14.835   4.547 -0.1386 -0.0469 -0.0255
 1154XCA     C110404  11.231  14.542   4.958 -0.2604  0.1679 -0.0825
 1154XCA     C210405  11.038  14.476   5.329 -0.3933 -0.0648 -0.3890
 1154XCA     C310406  10.940  14.301   5.677 -0.0104 -0.1050 -0.2033
 1154XCA     C410407  11.021  14.488   6.009  0.2269 -0.2798  0.0738
 1154XCA     C510408  10.814  14.528   6.423 -0.1730  0.0583 -0.1903
 1154XCA     C610409  10.643  14.860   6.673  0.1408  0.2705  0.0471
 1155CHOL   ROH10410   2.979   7.426   4.914 -0.0266  0.1665  0.0318
 1155CHOL    R110411   2.839   7.297   5.123  0.0769  0.1154  0.0689
 1155CHOL    R210412   2.968   7.159   5.324  0.1796  0.1431  0.0186
 1155CHOL    R310413   2.823   7.322   5.486  0.1820  0.0902  0.0765
 1155CHOL    R410414   2.953   7.134   5.669  0.4409  0.2235  0.0387
 1155CHOL    R510415   2.740   7.178   5.658  0.3994  0.0774  0.1762
 1155CHOL    C110416   2.808   7.273   6.021  0.5952  0.2206  0.1047
 1155CHOL    C210417   2.650   7.279   6.372  0.2167  0.1751 -0.1328
 1156CHOL   ROH10418   4.804  14.683   7.260 -0.0436  0.1520  0.2495
 1156CHOL    R110419   4.735  14.564   7.508 -0.1553 -0.0531  0.1242
 1156CHOL    R210420   4.599  14.325   7.526  0.0078 -0.1712 -0.1335
 1156CHOL    R310421   4.810  14.253   7.682 -0.0612 -0.1064 -0.0097
 1156CHOL    R410422   4.605  14.051   7.737 -0.0414 -0.1592 -0.1173
 1156CHOL    R510423   4.710  14.173   7.884 -0.1569 -0.1231 -0.0624
 1156CHOL    C110424   4.806  13.825   8.007 -0.1349 -0.0915  0.0083
 1156CHOL    C210425   4.605  13.470   8.141  0.1785 -0.0510 -0.2646
 1157CHOL   ROH10426  11.869  11.125   4.407  0.2876  0.0000  0.1880
 1157CHOL    R110427  11.670  11.141   4.608  0.1710 -0.0216  0.0754
 1157CHOL    R210428  11.568  10.918   4.735  0.1895 -0.0262  0.0811
 1157CHOL    R310429  11.641  11.052   4.960  0.0139  0.0652  0.0856
 1157CHOL    R410430  11.440  10.857   5.050 -0.0309  0.0756  0.0137
 1157CHOL    R510431  11.438  11.073   5.085 -0.0800  0.0891 -0.0673
 1157CHOL    C110432  11.435  10.948   5.445 -0.3241  0.2206 -0.0213
 1157CHOL    C210433  11.349  10.962   5.823 -0.0217 -0.1819  0.0573
 1158PNCE   AM110434   8.583  12.211   5.517 -0.1335 -0.0711  0.0415
 1158PNCE   AM210435   8.382  12.288   5.202  0.3509  0.2662 -0.0531
 1158PNCE   T1A10436   9.003  12.192   5.529 -0.1264  0.1918  0.1585
 1158PNCE   C2A10437   9.306  12.115   5.737  0.0623 -0.0401  0.1140
 1158PNCE   C3A10438   9.428  12.110   6.129 -0.1690  0.0909  0.1154
 1158PNCE   C1B10439   8.164  12.473   5.661 -0.1124  0.1895 -0.0697
 1158PNCE   C2B10440   8.104  12.476   6.085  0.0650 -0.0202  0.2494
 1158PNCE   C3B10441   8.039  12.648   6.580  0.0561 -0.0109 -0.0373
 1158PNCE   D4B10442   7.970  12.915   6.932  0.3638  0.2579 -0.0959
 1158PNCE   C5B10443   8.337  13.146   7.083  0.0222 -0.2088 -0.1493
 1158PNCE   C6B10444   8.545  13.125   7.506  0.0911 -0.1892  0.2711
 1159CHOL   ROH10445   0.254  10.076   4.927  0.0750 -0.1023  0.0180
 1159CHOL    R110446   0.316  10.039   5.201  0.0956  0.0219  0.0314
 1159CHOL    R210447   0.278  10.237   5.390 -0.0674  0.0493 -0.0199
 1159CHOL    R310448   0.135  10.044   5.517  0.0778 -0.0327  0.0197
 1159CHOL    R410449   0.246  10.208   5.733  0.0082  0.0367 -0.0141
 1159CHOL    R510450   0.264   9.992   5.711  0.1385  0.0542 -0.0037
 1159CHOL    C110451   0.092  10.009   6.051  0.1886 -0.0478  0.0265
 1159CHOL    C210452  -0.319  10.190   6.189 -0.1684  0.0499  0.2911
 1160XCA    COO10453  13.031   4.317   8.016  0.1860  0.0107  0.2447
 1160XCA     C110454  13.115   4.409   7.641 -0.2989 -0.1032  0.1957
 1160XCA     C210455  13.130   4.502   7.273  0.0906 -0.2600  0.0484
 1160XCA     C310456  12.999   4.429   6.804  0.2312  0.0556 -0.0623
 1160XCA     C410457  13.296   4.390   6.526 -0.1658 -0.0880 -0.1695
 1160XCA     C510458  13.727   4.559   6.528 -0.0955 -0.0100  0.0965
 1160XCA     C610459  14.021   4.790   6.289 -0.0096 -0.0695  0.2132
 1161CHOL   ROH10460   7.826  10.402   5.017  0.1931  0.0755 -0.0378
 1161CHOL    R110461   7.855  10.272   5.266  0.1272  0.0353 -0.0517
 1161CHOL    R210462   8.036  10.067   5.307  0.0959  0.0146 -0.0454
 1161CHOL    R310463   8.120  10.225   5.511  0.0698 -0.0285  0.0008
 1161CHOL    R410464   8.145   9.953   5.615  0.3335 -0.0772 -0.1600
 1161CHOL    R510465   8.038  10.118   5.708  0.2451 -0.2068 -0.0160
 1161CHOL    C110466   8.287  10.036   5.985  0.4473 -0.1711 -0.1834
 1161CHOL    C210467   8.252   9.828   6.334 -0.0800  0.0568  0.1602
 1162CHOL   ROH10468   5.905  15.186   5.134 -0.1641  0.2538 -0.0181
 1162CHOL    R110469   5.774  15.424   5.213 -0.2201  0.1719  0.1461
 1162CHOL    R210470   5.604  15.435   5.431 -0.1033  0.0220  0.2574
 1162CHOL    R310471   5.769  15.638   5.507 -0.1350  0.0565  0.2292
 1162CHOL    R410472   5.532  15.668   5.676 -0.0608 -0.0334  0.3215
 1162CHOL    R510473   5.622  15.821   5.550 -0.1581  0.0072  0.3193
 1162CHOL    C110474   5.645  15.994   5.890 -0.0659 -0.0333  0.3324
 1162CHOL    C210475   5.589  16.307   5.841 -0.0987  0.1433  0.1083
 1163CHOL   ROH10476  15.595   3.362   6.562  0.0804 -0.2813  0.0423
 1163CHOL    R110477  15.341   3.365   6.437  0.1989 -0.2722 -0.2056
 1163CHOL    R210478  15.195   3.597   6.402  0.0431 -0.3212  0.0686
 1163CHOL    R310479  15.193   3.518   6.142  0.3720  0.1376 -0.0858
 1163CHOL    R410480  14.957   3.691   6.170 -0.0189 -0.4063  0.0978
 1163CHOL    R510481  14.961   3.487   6.091  0.4606 -0.2702 -0.2749
 1163CHOL    C110482  14.816   3.671   5.790  0.2536 -0.0250 -0.0300
 1163CHOL    C210483  14.518   3.770   5.560  0.2156 -0.2207 -0.1610
 1164CHOL   ROH10484   9.503   1.714   5.042  0.3915  0.0512  0.0766
 1164CHOL    R110485   9.391   1.854   5.260  0.3133  0.1197 -0.0072
 1164CHOL    R210486   9.288   1.727   5.482 -0.0361  0.1760 -0.1318
 1164CHOL    R310487   9.459   1.889   5.616 -0.0036 -0.0206  0.0714
 1164CHOL    R410488   9.215   1.887   5.779 -0.1813  0.2082 -0.1834
 1164CHOL    R510489   9.319   2.063   5.704  0.0832  0.1133 -0.0513
 1164CHOL    C110490   9.333   2.133   6.079 -0.2355  0.0424 -0.0226
 1164CHOL    C210491   9.063   2.129   6.294  0.0159 -0.2900 -0.2544
 1165CHOL   ROH10492   4.230   1.868   4.931 -0.2340  0.1037  0.0194
 1165CHOL    R110493   4.340   1.881   5.191 -0.2190  0.0460  0.0160
 1165CHOL    R210494   4.578   2.009   5.246 -0.0918 -0.1751 -0.0103
 1165CHOL    R310495   4.427   2.143   5.429  0.0385  0.0079 -0.0335
 1165CHOL    R410496   4.695   2.128   5.549  0.0740 -0.0663 -0.1153
 1165CHOL    R510497   4.508   2.063   5.640  0.0683  0.0831 -0.0154
 1165CHOL    C110498   4.622   2.322   5.897  0.2928  0.1688 -0.1981
 1165CHOL    C210499   4.693   2.484   6.173 -0.2830  0.1094 -0.0664
 1166PNCE   AM110500  13.465   5.752   4.133  0.1320  0.0735 -0.1426
 1166PNCE   AM210501  13.334   5.553   3.964  0.0217 -0.2720  0.0877
 1166PNCE   T1A10502  13.623   5.386   4.351  0.2066 -0.0824 -0.5116
 1166PNCE   C2A10503  13.764   5.114   4.619 -0.0276 -0.0449 -0.1441
 1166PNCE   C3A10504  13.437   4.948   4.956 -0.2586  0.1603 -0.1003
 1166PNCE   C1B10505  13.196   5.722   4.477  0.0862  0.2573 -0.1718
 1166PNCE   C2B10506  13.158   5.844   4.908 -0.0671 -0.0495  0.1953
 1166PNCE   C3B10507  13.134   6.178   5.106  0.2273  0.0810  0.1965
 1166PNCE   D4B10508  12.891   6.377   5.349  0.1609  0.1043  0.1950
 1166PNCE   C5B10509  12.497   6.252   5.509 -0.0023  0.1995  0.0205
 1166PNCE   C6B10510  12.013   6.409   5.563  0.0437  0.3353  0.1725
 1167XCA    COO10511   0.488  13.339   4.884 -0.0919  0.1892  0.1073
 1167XCA     C110512   0.471  13.186   5.296 -0.0812 -0.0031 -0.2858
 1167XCA     C210513   0.582  12.929   5.630 -0.0965 -0.3237 -0.0167
 1167XCA     C310514   0.371  12.739   6.040  0.0107  0.1744  0.0276
 1167XCA     C410515   0.282  12.872   6.413  0.1836 -0.0915 -0.2747
 1167XCA     C510516   0.349  12.765   6.796 -0.0475  0.0094  0.0961
 1167XCA     C610517   0.092  12.579   7.067 -0.1672 -0.1187 -0.1634
 1168PNCE   AM110518   8.621   9.388   5.111  0.3082 -0.1815 -0.0652
 1168PNCE   AM210519   8.431   9.626   5.045 -0.0568 -0.1255  0.0208
 1168PNCE   T1A10520   8.492   9.138   5.396 -0.2368 -0.0726  0.0160
 1168PNCE   C2A10521   8.417   8.986   5.722 -0.1911  0.2226 -0.1686
 1168PNCE   C3A10522   8.367   8.897   6.097  0.1815 -0.4721  0.0543
 1168PNCE   C1B10523   8.555   9.759   5.436 -0.1986 -0.1741  0.4225
 1168PNCE   C2B10524   8.692   9.813   5.886 -0.2503 -0.2295  0.0161
 1168PNCE   C3B10525   8.774   9.873   6.309  0.0332 -0.0907  0.1300
 1168PNCE   D4B10526   8.599  10.039   6.692 -0.4982  0.1198 -0.0760
 1168PNCE   C5B10527   8.178  10.240   6.762 -0.3226 -0.1133  0.0530
 1168PNCE   C6B10528   7.872  10.318   7.036  0.1485  0.0825  0.2610
 1169PNCE   AM110529  14.289   1.221   4.381 -0.1717  0.3807 -0.0604
 1169PNCE   AM210530  14.067   1.353   4.201 -0.1214 -0.2932 -0.4051
 1169PNCE   T1A10531  14.113   1.259   4.838  0.1581  0.3345 -0.2560
 1169PNCE   C2A10532  14.266   1.114   5.187 -0.1313  0.0673  0.0095
 1169PNCE   C3A10533  14.541   0.856   5.478 -0.1088  0.3780  0.4307
 1169PNCE   C1B10534  13.789   1.415   4.466 -0.0798  0.0639  0.1088
 1169PNCE   C2B10535  13.455   1.591   4.774 -0.0237  0.0928 -0.0502
 1169PNCE   C3B10536  13.384   1.661   5.157  0.1375 -0.1959  0.0725
 1169PNCE   D4B10537  13.296   1.785   5.629  0.0857 -0.1120  0.2932
 1169PNCE   C5B10538  13.023   1.708   5.897  0.0086  0.0293  0.2416
 1169PNCE   C6B10539  12.606   1.899   5.933  0.0057  0.0256 -0.0823
 1170XCA    COO10540   0.664  12.588   4.739 -0.0954  0.2025 -0.0401
 1170XCA     C110541   0.506  12.600   5.205 -0.0215  0.0418  0.1262
 1170XCA     C210542   0.458  12.444   5.579 -0.0204  0.2487 -0.0077
 1170XCA     C310543   0.261  12.244   6.001 -0.2098  0.2361 -0.1723
 1170XCA     C410544  -0.050  12.479   6.303  0.0423  0.3015  0.2350
 1170XCA     C510545  -0.146  12.679   6.594  0.1737  0.0951 -0.0841
 1170XCA     C610546  -0.350  12.778   6.991  0.0997  0.0779  0.0085
 1171CHOL   ROH10547   6.525   1.989   5.954 -0.1256  0.0683 -0.0454
 1171CHOL    R110548   6.582   2.247   5.851 -0.0276  0.0536 -0.0283
 1171CHOL    R210549   6.669   2.454   6.011 -0.0068  0.0257 -0.0047
 1171CHOL    R310550   6.872   2.465   5.831  0.0397 -0.0283  0.0438
 1171CHOL    R410551   6.903   2.708   5.991 -0.0692  0.0769 -0.0908
 1171CHOL    R510552   6.889   2.696   5.774 -0.0074 -0.0561 -0.0892
 1171CHOL    C110553   7.229   2.866   5.810 -0.0619  0.0560 -0.0953
 1171CHOL    C210554   7.528   2.789   5.975 -0.0210 -0.3152 -0.1333
 1172CHOL   ROH10555   3.355   6.375   7.745  0.1198 -0.0895  0.1168
 1172CHOL    R110556   3.315   6.450   7.475 -0.0109 -0.0917  0.1353
 1172CHOL    R210557   3.147   6.657   7.402  0.1424  0.0694  0.2331
 1172CHOL    R310558   3.368   6.748   7.273  0.1390 -0.1765  0.0479
 1172CHOL    R410559   3.144   6.863   7.125  0.1385  0.0580  0.2247
 1172CHOL    R510560   3.307   6.746   7.042 -0.0526 -0.1250  0.0959
 1172CHOL    C110561   3.350   7.068   6.842  0.1331 -0.1795  0.0460
 1172CHOL    C210562   3.379   7.398   6.867  0.2027 -0.1246  0.0085
 1173PNCE   AM110563   7.105   3.767   4.395 -0.0478  0.1563 -0.0521
 1173PNCE   AM210564   7.036   4.147   4.419  0.0609  0.1777 -0.0458
 1173PNCE   T1A10565   7.422   3.925   4.728  0.2278 -0.0787  0.0439
 1173PNCE   C2A10566   7.375   3.754   5.150  0.1563  0.1349  0.0491
 1173PNCE   C3A10567   7.213   3.740   5.597 -0.2423 -0.0526  0.1180
 1173PNCE   C1B10568   6.825   3.986   4.852  0.1740 -0.1259 -0.4025
 1173PNCE   C2B10569   6.548   4.239   5.109  0.0714  0.0917  0.2309
 1173PNCE   C3B10570   6.374   4.245   5.494 -0.0089  0.4507 -0.1332
 1173PNCE   D4B10571   6.189   4.345   5.806  0.0891 -0.1642  0.0171
 1173PNCE   C5B10572   6.032   4.014   5.976 -0.0858  0.0667  0.2322
 1173PNCE   C6B10573   6.082   3.689   6.188 -0.1009  0.3793 -0.0781
 1174CHOL   ROH10574   7.929   1.983   6.543 -0.0354 -0.0799 -0.0383
 1174CHOL    R110575   7.706   1.830   6.460  0.0001 -0.0728 -0.1480
 1174CHOL    R210576   7.448   1.887   6.542 -0.0122 -0.1939 -0.1020
 1174CHOL    R310577   7.398   1.890   6.275 -0.0159 -0.0090 -0.1005
 1174CHOL    R410578   7.148   1.798   6.396 -0.0144 -0.0890 -0.1636
 1174CHOL    R510579   7.260   1.698   6.238 -0.0186  0.0187 -0.2333
 1174CHOL    C110580   6.926   1.750   6.060 -0.0191  0.1458 -0.1980
 1174CHOL    C210581   6.808   1.357   5.950  0.0916 -0.1581 -0.0362
 1175CHOL   ROH10582   4.640  12.832   9.593 -0.2396 -0.3601 -0.1306
 1175CHOL    R110583   4.546  12.859   9.328 -0.1071  0.0599 -0.1432
 1175CHOL    R210584   4.670  13.020   9.141  0.3156 -0.0602  0.0143
 1175CHOL    R310585   4.673  12.792   8.994 -0.1507  0.0329 -0.1525
 1175CHOL    R410586   4.793  12.993   8.819  0.2699 -0.0886  0.0003
 1175CHOL    R510587   4.625  12.864   8.771  0.0024  0.2897 -0.1014
 1175CHOL    C110588   4.867  12.763   8.494 -0.1945 -0.0178 -0.1643
 1175CHOL    C210589   4.814  13.001   8.281 -0.2111 -0.2802  0.2532
 1176XCA    COO10590  14.218  11.664   4.324  0.1803 -0.1823 -0.1748
 1176XCA     C110591  14.444  11.886   4.694 -0.1241  0.0264 -0.0628
 1176XCA     C210592  14.591  12.082   5.063  0.0360  0.0957 -0.0297
 1176XCA     C310593  15.024  12.096   5.254  0.5289 -0.0099  0.0700
 1176XCA     C410594  15.411  11.863   5.497  0.0401 -0.0070  0.1623
 1176XCA     C510595  15.214  11.496   5.647  0.2956 -0.0228 -0.0160
 1176XCA     C610596  14.854  11.296   5.705  0.0407 -0.4490  0.0195
 1177XCA    COO10597   9.181   0.019   8.594 -0.3497  0.0653  0.2393
 1177XCA     C110598   9.146  -0.080   8.166 -0.0378 -0.3373 -0.0113
 1177XCA     C210599   9.338   0.055   7.772  0.3058  0.0955 -0.3191
 1177XCA     C310600   9.308   0.272   7.343  0.1651 -0.1249 -0.1306
 1177XCA     C410601   9.158   0.632   7.049  0.2263 -0.1195  0.1668
 1177XCA     C510602   9.470   0.769   6.670 -0.3171  0.3343 -0.1578
 1177XCA     C610603   9.412   0.796   6.227 -0.2589 -0.1765 -0.0782
 1178XCA    COO10604  11.717   7.128   4.288  0.0376 -0.0241  0.1716
 1178XCA     C110605  11.799   6.937   4.678 -0.0252  0.2417 -0.1544
 1178XCA     C210606  11.824   6.752   5.088  0.2098 -0.1753  0.0922
 1178XCA     C310607  11.649   6.764   5.495  0.0713 -0.1493 -0.2931
 1178XCA     C410608  11.675   6.826   5.891  0.0353  0.0585  0.1391
 1178XCA     C510609  11.569   6.850   6.306  0.2408  0.1565 -0.1137
 1178XCA     C610610  11.396   7.048   6.668 -0.1200 -0.1007  0.2298
 1179XCA    COO10611   4.284   3.704   7.230 -0.0392 -0.0153  0.3231
 1179XCA     C110612   4.046   3.931   6.863  0.0235  0.1776 -0.1054
 1179XCA     C210613   3.829   4.200   7.014  0.0264  0.1575 -0.1226
 1179XCA     C310614   3.713   4.580   6.943 -0.2951 -0.0003  0.0512
 1179XCA     C410615   3.738   4.937   6.747 -0.2190  0.1856  0.2404
 1179XCA     C510616   3.915   5.086   6.469 -0.0335 -0.0438  0.2212
 1179XCA     C610617   4.286   5.360   6.279 -0.0725 -0.2927 -0.2718
 1180CHOL   ROH10618  13.430   2.585   4.439  0.1315 -0.1640  0.0379
 1180CHOL    R110619  13.501   2.552   4.711  0.1620 -0.1673  0.0311
 1180CHOL    R210620  13.383   2.698   4.914  0.2592 -0.0850  0.0351
 1180CHOL    R310621  13.333   2.452   5.018  0.1595 -0.0567  0.0678
 1180CHOL    R410622  13.305   2.635   5.245  0.0808  0.0116  0.0115
 1180CHOL    R510623  13.431   2.458   5.236  0.0555 -0.0208  0.1173
 1180CHOL    C110624  13.213   2.367   5.535 -0.1166  0.0946  0.0284
 1180CHOL    C210625  13.158   2.179   5.911 -0.2159 -0.1503 -0.0863
 1181PNCE   AM110626  13.506  10.201   5.144  0.2234 -0.0172  0.1274
 1181PNCE   AM210627  13.518   9.966   4.888 -0.1611  0.0992  0.0210
 1181PNCE   T1A10628  13.680  10.087   5.496 -0.1429 -0.3600  0.2846
 1181PNCE   C2A10629  13.854   9.804   5.750 -0.2038  0.1103  0.1975
 1181PNCE   C3A10630  14.072   9.783   6.128 -0.1944  0.5289  0.0316
 1181PNCE   C1B10631  13.678   9.670   5.204  0.0269 -0.0905 -0.0634
 1181PNCE   C2B10632  13.567   9.371   5.559 -0.0896  0.4571  0.1022
 1181PNCE   C3B10633  13.319   9.172   5.984  0.1779 -0.0757 -0.0409
 1181PNCE   D4B10634  13.053   9.264   6.261  0.1849 -0.1271  0.1371
 1181PNCE   C5B10635  12.674   9.268   6.175  0.0552  0.0531 -0.0399
 1181PNCE   C6B10636  12.178   9.337   6.459 -0.0573  0.1002 -0.1193
 1182CHOL   ROH10637   0.046   0.449   5.127 -0.0517 -0.1076 -0.0392
 1182CHOL    R110638  -0.011   0.544   5.387 -0.0187 -0.1261 -0.0239
 1182CHOL    R210639  -0.260   0.641   5.459  0.0033 -0.0739  0.0004
 1182CHOL    R310640  -0.240   0.455   5.656 -0.0301 -0.1068 -0.0286
 1182CHOL    R410641  -0.406   0.666   5.771  0.0570 -0.0737  0.0243
 1182CHOL    R510642  -0.225   0.583   5.858  0.0387 -0.1435 -0.0135
 1182CHOL    C110643  -0.472   0.507   6.138  0.0567 -0.1044  0.0111
 1182CHOL    C210644  -0.375   0.354   6.566  0.0204 -0.2322 -0.0767
 1183PNCE   AM110645  13.075  10.932   5.396 -0.1712 -0.0585 -0.0988
 1183PNCE   AM210646  12.794  10.865   5.529 -0.1857  0.1125 -0.1770
 1183PNCE   T1A10647  13.230  10.393   5.514 -0.2055 -0.2977 -0.0582
 1183PNCE   C2A10648  13.348  10.190   5.963  0.1365  0.1038 -0.1744
 1183PNCE   C3A10649  13.698  10.068   6.176  0.2876  0.3244  0.2311
 1183PNCE   C1B10650  12.940  11.066   5.948 -0.0592  0.1621  0.1425
 1183PNCE   C2B10651  13.124  10.954   6.324 -0.2820 -0.3835 -0.4079
 1183PNCE   C3B10652  13.371  10.835   6.640 -0.2943 -0.1799  0.0409
 1183PNCE   D4B10653  13.729  10.804   6.826  0.3343  0.0828 -0.1260
 1183PNCE   C5B10654  13.801  10.845   7.243 -0.1449 -0.0111 -0.0114
 1183PNCE   C6B10655  13.885  11.177   7.525 -0.1350  0.2974  0.3381
 1184PNCE   AM110656   3.226   3.731   4.088 -0.2521  0.0152  0.0051
 1184PNCE   AM210657   3.128   4.114   3.995 -0.1662 -0.0555 -0.3179
 1184PNCE   T1A10658   3.077   3.365   4.369  0.1549 -0.2203  0.1323
 1184PNCE   C2A10659   2.868   3.257   4.826 -0.0260  0.0973  0.4399
 1184PNCE   C3A10660   2.863   3.268   5.361 -0.0229 -0.0158 -0.0923
 1184PNCE   C1B10661   3.163   4.204   4.429  0.3641  0.1636 -0.0316
 1184PNCE   C2B10662   3.097   4.239   4.881 -0.1438  0.1980  0.0437
 1184PNCE   C3B10663   3.173   4.328   5.281 -0.0466 -0.1806 -0.0968
 1184PNCE   D4B10664   3.384   4.347   5.647 -0.0480  0.4401  0.1547
 1184PNCE   C5B10665   3.239   4.054   6.009  0.3728 -0.1853  0.1504
 1184PNCE   C6B10666   2.928   4.002   6.344 -0.0491 -0.0735 -0.0919
 1185PNCE   AM110667  14.934   0.764   4.633 -0.4296 -0.0959 -0.0965
 1185PNCE   AM210668  15.373   0.822   4.562 -0.1258 -0.0041  0.3555
 1185PNCE   T1A10669  14.657   0.671   5.056 -0.2853 -0.2184  0.3108
 1185PNCE   C2A10670  14.438   0.391   5.431  0.1534  0.0279 -0.0052
 1185PNCE   C3A10671  14.511   0.320   5.798 -0.0902 -0.2450  0.2761
 1185PNCE   C1B10672  15.096   1.087   4.897  0.0432  0.1416 -0.2384
 1185PNCE   C2B10673  14.781   1.159   5.184 -0.0800  0.0276  0.3262
 1185PNCE   C3B10674  14.724   1.314   5.633  0.2735 -0.0049  0.0635
 1185PNCE   D4B10675  14.587   1.534   5.981  0.1954  0.0561  0.1443
 1185PNCE   C5B10676  14.151   1.482   6.104 -0.3230  0.1306 -0.0189
 1185PNCE   C6B10677  13.893   1.090   6.021  0.0899 -0.0880  0.1623
 1186XCA    COO10678   4.245  12.924   5.180  0.2569 -0.0739  0.1846
 1186XCA     C110679   4.376  12.934   5.611  0.1677  0.2217  0.0693
 1186XCA     C210680   4.569  12.980   5.922 -0.0787 -0.1373  0.2739
 1186XCA     C310681   4.737  12.754   6.245 -0.2084  0.1862  0.1308
 1186XCA     C410682   4.771  12.449   6.528  0.1896  0.1335 -0.1614
 1186XCA     C510683   4.782  12.264   6.965 -0.0312 -0.0601  0.2491
 1186XCA     C610684   5.183  12.188   7.124  0.0614 -0.0290 -0.1503
 1187CHOL   ROH10685  10.226   2.659   4.449 -0.0982  0.1209  0.0536
 1187CHOL    R110686  10.355   2.614   4.697 -0.1751 -0.0401  0.0654
 1187CHOL    R210687  10.536   2.792   4.804  0.0659 -0.2800  0.0644
 1187CHOL    R310688  10.371   2.781   5.020  0.0322 -0.0373  0.0550
 1187CHOL    R410689  10.589   2.962   5.101  0.1063 -0.0729 -0.0586
 1187CHOL    R510690  10.520   2.784   5.208  0.0107  0.0393  0.0717
 1187CHOL    C110691  10.464   3.049   5.476  0.0981  0.2756 -0.1390
 1187CHOL    C210692  10.562   3.385   5.745 -0.2636 -0.0139  0.1965
 1188XCA    COO10693  15.660  10.467   4.185 -0.0660 -0.3492 -0.1213
 1188XCA     C110694  15.680  10.899   4.486 -0.0133 -0.2226 -0.1280
 1188XCA     C210695  15.670  11.321   4.831 -0.4100  0.0648 -0.3554
 1188XCA     C310696  15.677  11.493   5.272 -0.2569  0.1381 -0.1503
 1188XCA     C410697  15.758  11.324   5.689  0.0688 -0.0818 -0.1024
 1188XCA     C510698  15.839  11.025   6.038  0.0800 -0.2466  0.0940
 1188XCA     C610699  15.651  10.626   6.100 -0.2790  0.2618  0.2158
 1189XCA    COO10700  10.575  11.664   4.730 -0.1043 -0.1891  0.1877
 1189XCA     C110701  10.618  11.731   5.113  0.1600  0.2591  0.0483
 1189XCA     C210702  10.705  11.773   5.553  0.1335  0.1902 -0.0661
 1189XCA     C310703  10.772  11.733   5.976  0.0609 -0.2715  0.2447
 1189XCA     C410704  10.966  11.538   6.346 -0.0054  0.1847 -0.0861
 1189XCA     C510705  11.236  11.278   6.394 -0.0005 -0.0134 -0.0849
 1189XCA     C610706  11.547  11.135   6.296  0.0488 -0.1538 -0.0217
 1190PNCE   AM110707   1.899   9.778   4.632 -0.0118 -0.4168  0.1231
 1190PNCE   AM210708   1.656   9.646   4.600  0.1785 -0.1196  0.2198
 1190PNCE   T1A10709   2.114   9.415   4.809 -0.0246 -0.1427  0.3816
 1190PNCE   C2A10710   2.326   9.409   5.189  0.2207 -0.0131 -0.4560
 1190PNCE   C3A10711   2.767   9.291   5.322 -0.3011  0.0495  0.0021
 1190PNCE   C1B10712   1.587   9.783   5.041 -0.5608  0.1054  0.1634
 1190PNCE   C2B10713   1.360   9.859   5.381  0.0531 -0.1366 -0.0174
 1190PNCE   C3B10714   1.355   9.676   5.778  0.3278  0.0705 -0.0828
 1190PNCE   D4B10715   1.173   9.334   6.128  0.3803  0.1162 -0.0479
 1190PNCE   C5B10716   1.370   8.966   6.273 -0.2015  0.2092 -0.1091
 1190PNCE   C6B10717   1.644   8.716   6.226  0.3088  0.0306 -0.0771
 1191PNCE   AM110718   1.644   1.528   4.715 -0.0014 -0.0744  0.2159
 1191PNCE   AM210719   1.271   1.569   4.695 -0.2013 -0.0325 -0.1560
 1191PNCE   T1A10720   1.668   1.408   5.124 -0.1291  0.0335 -0.2118
 1191PNCE   C2A10721   1.809   1.177   5.535  0.1370  0.3867  0.1703
 1191PNCE   C3A10722   1.596   0.812   5.681  0.3486  0.3053  0.0807
 1191PNCE   C1B10723   1.194   1.674   5.130  0.1608 -0.0725 -0.0752
 1191PNCE   C2B10724   1.257   1.972   5.484 -0.1524 -0.1512 -0.3540
 1191PNCE   C3B10725   0.891   2.091   5.732  0.2080 -0.0365 -0.2191
 1191PNCE   D4B10726   0.834   2.553   5.937  0.0805 -0.0478  0.1219
 1191PNCE   C5B10727   0.513   2.461   6.315 -0.1591  0.1351 -0.0343
 1191PNCE   C6B10728   0.248   2.217   6.477  0.1145 -0.1237  0.1670
 1192CHOL   ROH10729   5.510   4.490   4.217 -0.2761  0.3962 -0.0056
 1192CHOL    R110730   5.283   4.503   4.385 -0.2326  0.0823  0.0851
 1192CHOL    R210731   5.246   4.331   4.599  0.0868  0.0252  0.1052
 1192CHOL    R310732   5.219   4.563   4.739 -0.1736 -0.0068  0.1101
 1192CHOL    R410733   5.064   4.366   4.890 -0.2855 -0.0838 -0.1086
 1192CHOL    R510734   4.993   4.558   4.818 -0.2696 -0.1032 -0.1653
 1192CHOL    C110735   4.933   4.603   5.192 -0.7468 -0.1772 -0.2285
 1192CHOL    C210736   4.980   4.633   5.570  0.3859 -0.1803 -0.2046
 1193PNCE   AM110737   9.312   3.058   7.709 -0.0681 -0.0515 -0.0641
 1193PNCE   AM210738   9.506   3.017   7.958 -0.0560 -0.0023  0.0782
 1193PNCE   T1A10739   9.325   3.083   7.244 -0.0060 -0.1734 -0.4007
 1193PNCE   C2A10740   9.274   3.011   6.877 -0.2560 -0.0262 -0.0391
 1193PNCE   C3A10741   9.178   2.730   6.553  0.0901  0.2644  0.0566
 1193PNCE   C1B10742   9.801   2.987   7.548  0.1470 -0.0291 -0.1758
 1193PNCE   C2B10743   9.924   3.116   7.117 -0.2414 -0.0239  0.0550
 1193PNCE   C3B10744   9.593   3.411   6.901 -0.0413 -0.3056  0.2914
 1193PNCE   D4B10745   9.363   3.296   6.518 -0.0173  0.2761  0.0178
 1193PNCE   C5B10746   8.902   3.281   6.555  0.0859 -0.1291 -0.1669
 1193PNCE   C6B10747   8.798   3.241   6.956 -0.3232  0.0549 -0.0553
 1194CHOL   ROH10748   3.221  15.290   7.922 -0.0223 -0.0948 -0.1415
 1194CHOL    R110749   3.204  15.533   7.778  0.0520 -0.0215 -0.0260
 1194CHOL    R210750   3.243  15.779   7.897  0.2239 -0.0988  0.0692
 1194CHOL    R310751   3.427  15.809   7.698  0.1667 -0.0997  0.0143
 1194CHOL    R410752   3.390  16.079   7.808  0.0745 -0.0668 -0.0767
 1194CHOL    R510753   3.372  16.020   7.598  0.0504 -0.1576 -0.0546
 1194CHOL    C110754   3.647  16.283   7.570 -0.0661 -0.0490 -0.2131
 1194CHOL    C210755   3.743  16.717   7.725 -0.0010 -0.0606 -0.0450
 1195CHOL   ROH10756  13.550  15.232   8.783  0.0048 -0.4067  0.2823
 1195CHOL    R110757  13.518  15.155   8.513  0.0326 -0.1151  0.1919
 1195CHOL    R210758  13.729  15.068   8.357  0.0112 -0.1721  0.1927
 1195CHOL    R310759  13.569  14.852   8.317 -0.1890  0.0189 -0.0783
 1195CHOL    R410760  13.732  14.869   8.075 -0.1227  0.1175 -0.0194
 1195CHOL    R510761  13.515  14.860   8.084 -0.1315  0.3153 -0.0832
 1195CHOL    C110762  13.583  14.550   7.873 -0.3887  0.4656 -0.3972
 1195CHOL    C210763  13.757  14.526   7.414  0.0015 -0.0263 -0.2844
 1196CHOL   ROH10764   5.993  15.242   8.865 -0.1295  0.0811 -0.0520
 1196CHOL    R110765   5.891  15.025   8.716 -0.0424 -0.0014  0.0070
 1196CHOL    R210766   5.634  15.021   8.614 -0.0098 -0.0870 -0.0833
 1196CHOL    R310767   5.763  14.971   8.379  0.0840 -0.1666 -0.0153
 1196CHOL    R410768   5.480  14.994   8.306  0.1453  0.0283 -0.1726
 1196CHOL    R510769   5.613  14.828   8.259  0.0556 -0.0588 -0.1037
 1196CHOL    C110770   5.510  14.931   7.907  0.3236  0.0208 -0.1609
 1196CHOL    C210771   5.458  14.908   7.552 -0.2088  0.1054 -0.1500
 1197CHOL   ROH10772  14.433   1.696   4.479  0.1486 -0.0116  0.0533
 1197CHOL    R110773  14.357   1.652   4.748 -0.0519  0.1322  0.0228
 1197CHOL    R210774  14.527   1.538   4.934 -0.3418 -0.2030  0.0963
 1197CHOL    R310775  14.469   1.763   5.076  0.0315 -0.0825  0.0680
 1197CHOL    R410776  14.626   1.598   5.260 -0.1830 -0.2883  0.0645
 1197CHOL    R510777  14.430   1.685   5.299 -0.0439  0.0209  0.0901
 1197CHOL    C110778  14.629   1.843   5.583  0.2599 -0.2249  0.0195
 1197CHOL    C210779  14.743   2.023   5.941  0.0634 -0.3682  0.1856
 1198PNCE   AM110780   8.121   8.138   4.720 -0.0940  0.0796 -0.1568
 1198PNCE   AM210781   8.377   7.970   4.825  0.0017  0.1301  0.2316
 1198PNCE   T1A10782   7.965   8.186   5.128 -0.3107 -0.0556 -0.0351
 1198PNCE   C2A10783   8.142   8.163   5.590  0.1213 -0.0268 -0.0357
 1198PNCE   C3A10784   8.550   8.432   5.759  0.2604  0.1542 -0.0204
 1198PNCE   C1B10785   8.569   7.906   5.299  0.2138  0.0482 -0.0582
 1198PNCE   C2B10786   8.685   7.639   5.616  0.1506  0.3293  0.2574
 1198PNCE   C3B10787   8.646   7.465   5.969  0.1343 -0.0865  0.1686
 1198PNCE   D4B10788   8.664   7.676   6.415 -0.4111  0.1732  0.1354
 1198PNCE   C5B10789   8.624   8.087   6.425  0.2060 -0.3065  0.3487
 1198PNCE   C6B10790   8.307   8.407   6.365 -0.1641 -0.0239 -0.3009
 1199PNCE   AM110791   1.939   1.986   4.856 -0.2902  0.0542  0.3068
 1199PNCE   AM210792   1.698   2.085   4.547 -0.0780  0.1580  0.1403
 1199PNCE   T1A10793   1.714   1.876   5.234  0.1835 -0.3111  0.0533
 1199PNCE   C2A10794   1.721   1.990   5.602 -0.0102  0.0818 -0.1590
 1199PNCE   C3A10795   1.974   2.299   5.649 -0.0910 -0.0464  0.1958
 1199PNCE   C1B10796   1.413   2.109   4.871 -0.1748 -0.0897  0.0201
 1199PNCE   C2B10797   0.957   2.146   5.107 -0.1352 -0.2649 -0.2778
 1199PNCE   C3B10798   0.623   2.306   5.398 -0.1032 -0.1331 -0.0117
 1199PNCE   D4B10799   0.130   2.336   5.326 -0.3048 -0.2324 -0.2791
 1199PNCE   C5B10800   0.109   2.818   5.306  0.1878  0.0232 -0.2996
 1199PNCE   C6B10801  -0.068   3.214   5.262  0.0394  0.3753  0.2342
 1200CHOL   ROH10802   3.518  11.878   7.274 -0.2440  0.0761 -0.0296
 1200CHOL    R110803   3.500  11.709   7.048 -0.2581  0.0584 -0.0149
 1200CHOL    R210804   3.362  11.780   6.819 -0.0068  0.1756 -0.1327
 1200CHOL    R310805   3.598  11.724   6.697  0.0278 -0.1065  0.0546
 1200CHOL    R410806   3.393  11.659   6.497  0.0994  0.0093 -0.0614
 1200CHOL    R510807   3.552  11.527   6.568 -0.0744 -0.1192  0.1065
 1200CHOL    C110808   3.633  11.536   6.195  0.1937 -0.3524  0.1559
 1200CHOL    C210809   3.944  11.639   5.992 -0.0548  0.1061 -0.0343
 1201CHOL   ROH10810   3.095   9.400   8.674  0.0722 -0.0878  0.0488
 1201CHOL    R110811   3.268   9.438   8.453  0.0822 -0.1189  0.0518
 1201CHOL    R210812   3.418   9.233   8.345 -0.1000 -0.1885 -0.0658
 1201CHOL    R310813   3.296   9.309   8.114 -0.0577  0.0306 -0.0193
 1201CHOL    R410814   3.552   9.195   8.029 -0.2152 -0.2902 -0.1033
 1201CHOL    R510815   3.474   9.391   7.977  0.0277 -0.1672 -0.0367
 1201CHOL    C110816   3.515   9.243   7.628 -0.2424 -0.1437 -0.0815
 1201CHOL    C210817   3.328   9.219   7.268 -0.0822  0.0598  0.1980
 1202XCA    COO10818   5.924  12.839   5.399 -0.1273  0.0045  0.0043
 1202XCA     C110819   6.069  13.164   5.757  0.4195 -0.1184 -0.2067
 1202XCA     C210820   6.036  13.328   6.133 -0.0776  0.1378 -0.1522
 1202XCA     C310821   5.756  13.505   6.403  0.3766 -0.0339  0.0819
 1202XCA     C410822   5.671  13.582   6.800 -0.0182 -0.2585  0.0840
 1202XCA     C510823   5.867  13.761   7.170 -0.1385 -0.0364 -0.0948
 1202XCA     C610824   6.168  13.622   7.450 -0.4865 -0.0818 -0.0598
 1203PNCE   AM110825  11.626  13.994   4.836  0.0114  0.3873  0.0899
 1203PNCE   AM210826  11.604  13.678   5.020  0.0119  0.0249 -0.0123
 1203PNCE   T1A10827  11.526  14.207   5.317 -0.1719  0.3372 -0.0880
 1203PNCE   C2A10828  11.431  14.303   5.735 -0.1173 -0.2083 -0.0672
 1203PNCE   C3A10829  11.590  13.936   6.028  0.4005  0.2983  0.2059
 1203PNCE   C1B10830  11.550  13.700   5.426  0.1254  0.1133 -0.2011
 1203PNCE   C2B10831  11.539  13.476   5.803  0.0917  0.3597  0.2654
 1203PNCE   C3B10832  11.669  13.455   6.172 -0.2187 -0.2082 -0.0544
 1203PNCE   D4B10833  11.756  13.236   6.466 -0.2254 -0.4131  0.5725
 1203PNCE   C5B10834  11.642  13.340   6.810  0.0460 -0.1064 -0.0470
 1203PNCE   C6B10835  11.229  13.200   6.988  0.0355  0.2666  0.1100
 1204CHOL   ROH10836   6.439  15.005   5.364 -0.0482 -0.3996 -0.0583
 1204CHOL    R110837   6.652  14.936   5.537  0.1131 -0.2594 -0.1978
 1204CHOL    R210838   6.910  15.029   5.500 -0.0587  0.2826 -0.1124
 1204CHOL    R310839   6.882  15.112   5.757 -0.1797 -0.1449  0.0223
 1204CHOL    R410840   7.169  15.067   5.725 -0.0754  0.5173 -0.1294
 1204CHOL    R510841   7.041  14.982   5.880  0.1373  0.0114 -0.2084
 1204CHOL    C110842   7.293  15.167   6.098 -0.1986  0.2527 -0.0130
 1204CHOL    C210843   7.568  15.506   6.141  0.1871 -0.0633 -0.2258
 1205CHOL   ROH10844  13.176   2.854   4.268 -0.2518  0.0207  0.0298
 1205CHOL    R110845  12.992   2.790   4.473 -0.1507 -0.2242  0.0494
 1205CHOL    R210846  13.038   2.587   4.656  0.2448 -0.0324  0.1881
 1205CHOL    R310847  12.994   2.785   4.837 -0.1688  0.0100  0.0520
 1205CHOL    R410848  12.962   2.536   4.989  0.2911  0.0532  0.2108
 1205CHOL    R510849  12.819   2.700   4.977 -0.0261 -0.2324  0.0790
 1205CHOL    C110850  12.877   2.692   5.354 -0.0701  0.1428  0.0964
 1205CHOL    C210851  12.670   2.802   5.671  0.1054  0.0397 -0.2488
 1206PNCE   AM110852   6.699   6.299   5.111 -0.1183 -0.0786 -0.1282
 1206PNCE   AM210853   6.330   6.201   5.120  0.0299 -0.1088 -0.1265
 1206PNCE   T1A10854   7.071   6.333   5.262  0.0358  0.1601 -0.1651
 1206PNCE   C2A10855   7.386   6.472   5.736  0.1156  0.0169 -0.1753
 1206PNCE   C3A10856   7.470   6.436   6.160 -0.1046  0.1369  0.2770
 1206PNCE   C1B10857   6.066   5.956   5.219  0.2544  0.1036  0.0839
 1206PNCE   C2B10858   5.938   5.486   5.268  0.0092  0.1662  0.0213
 1206PNCE   C3B10859   5.627   5.310   5.662 -0.0787 -0.2378  0.4967
 1206PNCE   D4B10860   5.266   5.484   5.824  0.1363  0.0755 -0.2895
 1206PNCE   C5B10861   5.385   5.714   6.123 -0.2441  0.0541 -0.0797
 1206PNCE   C6B10862   5.459   5.975   6.315 -0.1480 -0.0968 -0.0149
 1207CHOL   ROH10863   2.123  13.585   5.546  0.0172  0.1610  0.1224
 1207CHOL    R110864   1.864  13.655   5.635 -0.0026  0.1879  0.0465
 1207CHOL    R210865   1.758  13.561   5.873 -0.1471  0.0651 -0.0629
 1207CHOL    R310866   1.721  13.826   5.923 -0.0805  0.0451  0.0934
 1207CHOL    R410867   1.587  13.688   6.145 -0.3103 -0.0603 -0.1059
 1207CHOL    R510868   1.500  13.838   6.014 -0.1475  0.0675 -0.0711
 1207CHOL    C110869   1.453  14.010   6.351 -0.3429 -0.1522  0.0158
 1207CHOL    C210870   1.080  14.312   6.460  0.3531  0.0261  0.3259
 1208PNCE   AM110871  12.430   0.922   4.607  0.1944  0.2967 -0.4784
 1208PNCE   AM210872  12.572   0.696   4.801  0.1935 -0.1097  0.1411
 1208PNCE   T1A10873  12.243   1.154   4.838 -0.3489  0.4435  0.1490
 1208PNCE   C2A10874  11.811   1.309   4.924 -0.0501  0.2420 -0.1313
 1208PNCE   C3A10875  11.492   1.380   5.177 -0.0687  0.2287  0.1045
 1208PNCE   C1B10876  12.468   0.776   5.224 -0.1053  0.1854 -0.0140
 1208PNCE   C2B10877  12.295   0.809   5.696 -0.1555  0.0267 -0.0300
 1208PNCE   C3B10878  12.454   0.849   6.107 -0.1923 -0.1246 -0.3466
 1208PNCE   D4B10879  12.530   0.662   6.564  0.1772  0.1107 -0.1868
 1208PNCE   C5B10880  12.850   0.440   6.792  0.2037 -0.0857 -0.2241
 1208PNCE   C6B10881  13.280   0.327   6.960 -0.2616  0.0648 -0.2972
 1209XCA    COO10882  13.724   2.660   8.406  0.2457  0.0082  0.2171
 1209XCA     C110883  13.597   2.445   8.102  0.2462  0.0165  0.2224
 1209XCA     C210884  13.548   2.385   7.725  0.0977  0.0710  0.2709
 1209XCA     C310885  13.615   2.192   7.335 -0.0707  0.2641  0.0646
 1209XCA     C410886  13.761   2.118   7.049 -0.0758  0.2486 -0.3836
 1209XCA     C510887  14.053   1.794   6.934  0.0662 -0.0873 -0.0266
 1209XCA     C610888  14.293   1.774   6.490  0.1972  0.0616 -0.1882
 1210PNCE   AM110889   9.707   1.021   4.390 -0.1920 -0.1410  0.0866
 1210PNCE   AM210890   9.903   1.156   4.141 -0.0959  0.0488  0.1284
 1210PNCE   T1A10891   9.843   1.137   4.781 -0.2114 -0.1865 -0.1957
 1210PNCE   C2A10892  10.076   1.281   5.153 -0.1969  0.2852  0.0290
 1210PNCE   C3A10893  10.007   1.151   5.548  0.0985 -0.0658 -0.1574
 1210PNCE   C1B10894  10.125   0.749   4.382  0.1030  0.1387  0.1724
 1210PNCE   C2B10895  10.272   0.809   4.891 -0.0027 -0.0943 -0.0009
 1210PNCE   C3B10896  10.403   0.883   5.326  0.2514  0.2110 -0.4600
 1210PNCE   D4B10897  10.196   0.683   5.723 -0.0515 -0.0665  0.1654
 1210PNCE   C5B10898  10.365   0.665   6.115 -0.2070 -0.0399 -0.1667
 1210PNCE   C6B10899  10.372   0.979   6.507  0.3214  0.2600 -0.0297
 1211PNCE   AM110900   2.776   9.061   8.723  0.1311  0.0923 -0.3138
 1211PNCE   AM210901   3.084   8.937   8.739 -0.1611  0.0094 -0.2465
 1211PNCE   T1A10902   2.910   9.129   8.300 -0.0977  0.1116  0.0658
 1211PNCE   C2A10903   2.894   9.162   7.956  0.0787  0.3188 -0.0646
 1211PNCE   C3A10904   3.015   9.080   7.649 -0.0596 -0.0409 -0.1002
 1211PNCE   C1B10905   3.314   8.790   8.347  0.2159  0.0133  0.0094
 1211PNCE   C2B10906   3.328   8.805   7.927 -0.0313 -0.1488  0.0776
 1211PNCE   C3B10907   3.427   8.773   7.592 -0.3456  0.0449  0.2362
 1211PNCE   D4B10908   3.128   8.730   7.232  0.1838  0.1774 -0.2037
 1211PNCE   C5B10909   3.274   9.048   6.805  0.3853 -0.1419 -0.1949
 1211PNCE   C6B10910   3.525   9.362   6.591 -0.3923  0.1689  0.1676
 1212CHOL   ROH10911   6.328   1.813   3.988 -0.0199 -0.0193 -0.0057
 1212CHOL    R110912   6.131   1.802   4.191  0.0129 -0.0975  0.0215
 1212CHOL    R210913   5.860   1.809   4.138  0.0064 -0.0657  0.0679
 1212CHOL    R310914   5.859   1.579   4.284  0.0201 -0.1268 -0.0257
 1212CHOL    R410915   5.621   1.724   4.373  0.0293 -0.1585  0.0589
 1212CHOL    R510916   5.780   1.646   4.499  0.0434 -0.2127  0.0111
 1212CHOL    C110917   5.481   1.460   4.647  0.0555 -0.2699 -0.0341
 1212CHOL    C210918   5.138   1.293   4.639 -0.2412 -0.0716 -0.1344
 1213PNCE   AM110919  10.593  14.874   4.489 -0.1036  0.2924  0.1001
 1213PNCE   AM210920  10.294  14.755   4.542 -0.0138  0.1661  0.1239
 1213PNCE   T1A10921  10.606  15.115   4.890 -0.1540  0.2116 -0.2104
 1213PNCE   C2A10922  10.783  15.376   5.238  0.2341  0.0975 -0.1203
 1213PNCE   C3A10923  10.595  15.809   5.287  0.0674 -0.1607  0.3209
 1213PNCE   C1B10924  10.132  14.951   4.912  0.0433  0.0608  0.0689
 1213PNCE   C2B10925   9.985  15.029   5.217  0.2614  0.1733  0.1793
 1213PNCE   C3B10926   9.731  15.136   5.545 -0.2215  0.1644 -0.1232
 1213PNCE   D4B10927   9.606  15.339   5.918 -0.0798 -0.3229  0.0432
 1213PNCE   C5B10928   9.847  15.126   6.210  0.0263 -0.1695  0.1497
 1213PNCE   C6B10929   9.889  14.961   6.554  0.2172  0.2655 -0.5870
 1214PNCE   AM110930   5.430   2.502   4.118 -0.1594 -0.4005  0.2615
 1214PNCE   AM210931   5.144   2.619   3.980 -0.2259 -0.1472 -0.0372
 1214PNCE   T1A10932   5.729   2.661   4.455  0.2610 -0.0144 -0.0157
 1214PNCE   C2A10933   6.067   2.513   4.760  0.1706 -0.3938 -0.0645
 1214PNCE   C3A10934   6.218   2.281   5.179  0.5404 -0.1094 -0.0592
 1214PNCE   C1B10935   5.050   2.810   4.330 -0.2884  0.0743 -0.0601
 1214PNCE   C2B10936   5.275   2.809   4.679  0.0556 -0.0080  0.1537
 1214PNCE   C3B10937   5.588   2.595   4.913  0.2786  0.1295  0.2736
 1214PNCE   D4B10938   5.942   2.637   5.237  0.0999  0.2029  0.3348
 1214PNCE   C5B10939   5.946   2.358   5.590  0.0006  0.0854  0.0422
 1214PNCE   C6B10940   6.108   2.049   5.749  0.0632 -0.0604  0.2521
 1215XCA    COO10941   8.582  15.493   4.627  0.2176  0.0502 -0.1649
 1215XCA     C110942   8.294  15.418   4.979 -0.0754  0.1693  0.3349
 1215XCA     C210943   7.988  15.546   5.298  0.1805 -0.1186  0.2223
 1215XCA     C310944   7.595  15.623   5.524 -0.1163 -0.2004  0.1789
 1215XCA     C410945   7.510  15.909   5.739  0.2946  0.0597  0.0972
 1215XCA     C510946   7.464  16.200   6.018 -0.0641 -0.1307  0.0516
 1215XCA     C610947   7.260  16.395   6.366 -0.1782  0.0656 -0.0546
 1216CHOL   ROH10948  14.236  14.546   5.646 -0.0575  0.0053 -0.1181
 1216CHOL    R110949  14.359  14.679   5.864  0.0555 -0.1894 -0.0599
 1216CHOL    R210950  14.215  14.825   6.049  0.1940  0.0181 -0.1147
 1216CHOL    R310951  14.342  14.664   6.227 -0.1195 -0.1866 -0.0665
 1216CHOL    R410952  14.166  14.832   6.391  0.0335  0.0513 -0.1367
 1216CHOL    R510953  14.381  14.804   6.417 -0.0116 -0.2582 -0.0334
 1216CHOL    C110954  14.258  14.684   6.757 -0.3544 -0.1217 -0.1043
 1216CHOL    C210955  13.927  14.604   6.959 -0.1859 -0.0608 -0.2272
 1217CHOL   ROH10956   0.079   2.580   6.258  0.1260 -0.1230 -0.0417
 1217CHOL    R110957  -0.165   2.522   6.388  0.1860 -0.1518  0.0599
 1217CHOL    R210958  -0.372   2.387   6.263  0.0496  0.0543  0.0578
 1217CHOL    R310959  -0.352   2.222   6.478  0.1257 -0.1678 -0.1157
 1217CHOL    R410960  -0.600   2.141   6.344 -0.0129  0.0869 -0.0175
 1217CHOL    R510961  -0.578   2.197   6.554  0.1677 -0.1288  0.0234
 1217CHOL    C110962  -0.715   1.843   6.594  0.0224 -0.1027 -0.2242
 1217CHOL    C210963  -0.949   1.693   6.403  0.1892 -0.0210  0.0570
 1218CHOL   ROH10964  11.903  14.524   8.080  0.0747 -0.0062  0.0881
 1218CHOL    R110965  12.049  14.642   7.867  0.0932  0.0037  0.1055
 1218CHOL    R210966  11.925  14.763   7.651  0.1101 -0.0293  0.0720
 1218CHOL    R310967  12.081  14.974   7.722  0.0614 -0.0010  0.0913
 1218CHOL    R410968  11.964  15.052   7.466 -0.0795  0.0717  0.1872
 1218CHOL    R510969  12.175  15.051   7.516 -0.0610  0.1300  0.0874
 1218CHOL    C110970  12.133  15.419   7.425 -0.2356  0.1572  0.2726
 1218CHOL    C210971  12.398  15.586   7.096  0.1853  0.2167  0.0206
 1219CHOL   ROH10972   7.496  11.571   5.532 -0.0376 -0.1750  0.0290
 1219CHOL    R110973   7.709  11.608   5.714 -0.0831 -0.0248  0.0551
 1219CHOL    R210974   7.807  11.404   5.873  0.0335  0.0426  0.0833
 1219CHOL    R310975   8.044  11.473   5.760 -0.0023  0.1933  0.1018
 1219CHOL    R410976   8.117  11.330   6.006  0.0797 -0.0330 -0.0652
 1219CHOL    R510977   8.184  11.529   5.947  0.0312  0.0317  0.1196
 1219CHOL    C110978   8.521  11.353   5.979  0.0730  0.0645 -0.1342
 1219CHOL    C210979   8.713  11.310   6.335 -0.0932 -0.3396  0.1262
 1220XCA    COO10980   2.208   1.565   5.133  0.0123 -0.0935  0.2538
 1220XCA     C110981   2.113   1.612   5.585  0.0686 -0.0251  0.2032
 1220XCA     C210982   1.898   1.682   5.924 -0.1233  0.1823  0.1931
 1220XCA     C310983   1.837   1.891   6.235 -0.0466  0.0239 -0.2298
 1220XCA     C410984   1.944   2.114   6.584  0.2774  0.0484 -0.1068
 1220XCA     C510985   1.942   2.241   6.962  0.0988  0.0137 -0.0852
 1220XCA     C610986   1.804   2.548   7.142  0.0746 -0.3624  0.0615
 1221CHOL   ROH10987   8.483   0.177   4.788  0.0197 -0.0830  0.1775
 1221CHOL    R110988   8.340   0.118   5.024  0.0266 -0.1027  0.1764
 1221CHOL    R210989   8.413   0.217   5.272 -0.0738  0.0263  0.1538
 1221CHOL    R310990   8.156   0.305   5.276 -0.1350 -0.1440  0.0912
 1221CHOL    R410991   8.245   0.322   5.555 -0.1310  0.1461  0.0767
 1221CHOL    R510992   8.067   0.220   5.482 -0.0666 -0.0370  0.1672
 1221CHOL    C110993   7.906   0.466   5.724 -0.2219  0.0561 -0.0272
 1221CHOL    C210994   7.795   0.842   5.817  0.2453 -0.2428 -0.0580
 1222PNCE   AM110995   3.489  10.312   5.651 -0.2557  0.1111  0.0878
 1222PNCE   AM210996   3.429   9.993   5.593  0.2499 -0.2665  0.1779
 1222PNCE   T1A10997   3.238  10.417   6.056  0.3858 -0.1049 -0.1861
 1222PNCE   C2A10998   3.006  10.672   6.490 -0.1431 -0.1820  0.0519
 1222PNCE   C3A10999   2.931  10.816   6.915  0.1001 -0.0701  0.1991
 1222PNCE   C1B11000   3.679   9.874   5.805 -0.0471 -0.0939 -0.2218
 1222PNCE   C2B11001   3.628  10.060   6.181  0.4131 -0.3126  0.1400
 1222PNCE   C3B11002   3.388   9.886   6.495  0.4202 -0.1152 -0.3037
 1222PNCE   D4B11003   3.095   9.914   6.932 -0.3888 -0.3139  0.1808
 1222PNCE   C5B11004   3.023   9.493   6.939  0.0447 -0.0865  0.0320
 1222PNCE   C6B11005   2.801   9.105   7.013 -0.2340  0.1209  0.3372
 1223PNCE   AM111006   8.030   1.454   3.877 -0.1160  0.0304  0.0539
 1223PNCE   AM211007   7.975   1.750   3.937 -0.1220 -0.3259  0.1440
 1223PNCE   T1A11008   7.818   1.257   4.242  0.1681  0.1324 -0.3550
 1223PNCE   C2A11009   7.439   1.154   4.441 -0.0585 -0.2827  0.1639
 1223PNCE   C3A11010   7.044   0.857   4.436 -0.2288 -0.2124  0.1180
 1223PNCE   C1B11011   7.882   1.724   4.320  0.0639  0.3527  0.0651
 1223PNCE   C2B11012   8.114   1.750   4.650  0.1999  0.2064  0.1643
 1223PNCE   C3B11013   7.956   1.851   5.050  0.1261 -0.0403  0.0257
 1223PNCE   D4B11014   7.856   2.306   5.206  0.0670 -0.0988  0.1665
 1223PNCE   C5B11015   7.728   2.357   5.609 -0.0642  0.1606  0.0253
 1223PNCE   C6B11016   7.790   2.094   6.019 -0.1232  0.0160 -0.1522
 1224PNCE   AM111017  10.032   9.928   4.489  0.3525  0.3120 -0.1369
 1224PNCE   AM211018   9.992   9.814   4.880  0.0409 -0.0911  0.0596
 1224PNCE   T1A11019  10.299  10.247   4.784  0.0163  0.2056  0.2108
 1224PNCE   C2A11020  10.508  10.540   5.047  0.1285  0.0277  0.1583
 1224PNCE   C3A11021  10.362  10.569   5.496  0.2367  0.2999 -0.1135
 1224PNCE   C1B11022  10.257  10.056   5.245  0.1934 -0.2050  0.0445
 1224PNCE   C2B11023  10.463   9.753   5.526  0.2816  0.0704  0.0442
 1224PNCE   C3B11024  10.733   9.735   5.849 -0.0602  0.2328 -0.1434
 1224PNCE   D4B11025  11.055   9.865   6.079 -0.0952 -0.2790 -0.2601
 1224PNCE   C5B11026  11.291   9.642   6.411  0.1030  0.1084 -0.1329
 1224PNCE   C6B11027  11.293   9.236   6.625 -0.1673 -0.0772 -0.0053
 1225XCA    COO11028  13.535   0.580   4.194  0.1897  0.3094 -0.1516
 1225XCA     C111029  13.280   0.620   4.493  0.1358 -0.0032 -0.1609
 1225XCA     C211030  13.097   0.703   4.914  0.5821 -0.5959 -0.1780
 1225XCA     C311031  12.949   0.737   5.302 -0.1548 -0.1827 -0.0210
 1225XCA     C411032  12.876   0.816   5.638  0.2390  0.0348  0.2943
 1225XCA     C511033  13.084   0.890   6.094  0.2824 -0.1022  0.0209
 1225XCA     C611034  13.088   0.832   6.541 -0.0848  0.1351 -0.2381
 1226CHOL   ROH11035   7.644  13.921   5.563 -0.1147 -0.2608  0.2008
 1226CHOL    R111036   7.695  14.074   5.795 -0.0441 -0.1725  0.1275
 1226CHOL    R211037   7.528  14.277   5.879 -0.0290 -0.1539  0.1120
 1226CHOL    R311038   7.528  14.138   6.112  0.0623 -0.0690  0.1636
 1226CHOL    R411039   7.580  14.416   6.191 -0.1771  0.0054  0.0678
 1226CHOL    R511040   7.700  14.241   6.243 -0.0365  0.1231  0.1454
 1226CHOL    C111041   7.610  14.365   6.592 -0.1776  0.1779  0.0905
 1226CHOL    C211042   7.565  14.747   6.872 -0.1053  0.1279 -0.0708
 1227CHOL   ROH11043   4.398   0.199   4.861  0.0951  0.0283 -0.0794
 1227CHOL    R111044   4.406   0.166   5.142  0.1066 -0.0565 -0.0903
 1227CHOL    R211045   4.636   0.203   5.289  0.0563  0.1256 -0.0658
 1227CHOL    R311046   4.480   0.375   5.431 -0.1249 -0.0769 -0.0117
 1227CHOL    R411047   4.701   0.307   5.612  0.1009  0.2848 -0.1244
 1227CHOL    R511048   4.487   0.291   5.655  0.1394 -0.0303  0.0058
 1227CHOL    C111049   4.592   0.530   5.933 -0.0433  0.1874 -0.1077
 1227CHOL    C211050   4.509   0.789   6.170  0.0205 -0.2127  0.1196
 1228XCA    COO11051   6.039  13.910   5.798  0.3629 -0.1221 -0.0209
 1228XCA     C111052   6.401  13.718   6.104  0.2479 -0.2009  0.3479
 1228XCA     C211053   6.542  13.362   6.336 -0.0722  0.2868 -0.0723
 1228XCA     C311054   6.603  13.282   6.800  0.0083  0.1034 -0.2188
 1228XCA     C411055   6.359  13.302   7.101  0.0590  0.0040  0.0596
 1228XCA     C511056   5.911  13.233   7.141 -0.0283 -0.1213 -0.0391
 1228XCA     C611057   5.587  13.181   7.504  0.1144 -0.4032 -0.0174
 1229CHOL   ROH11058   0.957   9.932   8.770  0.2838 -0.0712  0.0333
 1229CHOL    R111059   1.034   9.820   8.522  0.1497 -0.0363 -0.0259
 1229CHOL    R211060   0.852   9.739   8.332  0.0444  0.0019  0.0530
 1229CHOL    R311061   0.994   9.904   8.170 -0.0309  0.0230  0.0088
 1229CHOL    R411062   0.844   9.729   7.986  0.0794 -0.1102  0.0550
 1229CHOL    R511063   1.060   9.764   7.986  0.0574  0.0024  0.0599
 1229CHOL    C111064   0.974   9.879   7.633  0.0292 -0.1557  0.0148
 1229CHOL    C211065   1.112   9.969   7.302 -0.1768  0.0755 -0.1949
 1230CHOL   ROH11066   6.021  15.721   8.139 -0.0318 -0.1229 -0.0922
 1230CHOL    R111067   6.116  15.679   7.876  0.0181 -0.1523 -0.0694
 1230CHOL    R211068   6.342  15.530   7.822 -0.0475 -0.2694 -0.0189
 1230CHOL    R311069   6.174  15.392   7.659 -0.0755 -0.1658 -0.0779
 1230CHOL    R411070   6.443  15.330   7.558 -0.0839 -0.1627 -0.1139
 1230CHOL    R511071   6.275  15.409   7.442 -0.0765 -0.0801 -0.0740
 1230CHOL    C111072   6.343  15.086   7.251 -0.1315 -0.0034 -0.2247
 1230CHOL    C211073   6.613  14.796   7.158  0.0002 -0.0469 -0.4465
 1231CHOL   ROH11074  12.778   1.789   6.307 -0.0453 -0.0328  0.0643
 1231CHOL    R111075  13.020   1.934   6.281 -0.0676  0.0500  0.2872
 1231CHOL    R211076  13.222   1.921   6.470 -0.0356 -0.2595  0.2444
 1231CHOL    R311077  13.374   1.854   6.255 -0.0622  0.1389  0.0953
 1231CHOL    R411078  13.562   1.974   6.444 -0.0262 -0.2845  0.3289
 1231CHOL    R511079  13.533   2.032   6.237 -0.0242  0.1425  0.4440
 1231CHOL    C111080  13.904   1.942   6.228 -0.0458  0.0750  0.2382
 1231CHOL    C211081  14.195   2.207   6.103  0.2588 -0.2025 -0.0969
 1232XCA    COO11082  15.549   4.985   4.308 -0.1738  0.2097  0.2260
 1232XCA     C111083  15.194   5.000   4.660  0.1261 -0.2614  0.0440
 1232XCA     C211084  15.180   5.161   5.015 -0.1454  0.1429  0.1463
 1232XCA     C311085  15.217   5.535   5.350 -0.1519 -0.1658  0.2868
 1232XCA     C411086  14.997   5.904   5.362 -0.1289  0.2901 -0.0568
 1232XCA     C511087  14.930   6.205   5.720 -0.1091  0.0289 -0.2909
 1232XCA     C611088  14.910   6.604   5.745 -0.1336 -0.2207 -0.0933
 1233PNCE   AM111089   9.380   0.545   4.532 -0.1299  0.0884 -0.5073
 1233PNCE   AM211090   9.681   0.640   4.723 -0.0271 -0.0713  0.0829
 1233PNCE   T1A11091   9.189   0.436   4.840 -0.0432 -0.0799  0.1032
 1233PNCE   C2A11092   9.124   0.478   5.267  0.3908 -0.1012 -0.0458
 1233PNCE   C3A11093   9.242   0.509   5.704 -0.0273 -0.4104  0.1558
 1233PNCE   C1B11094   9.832   0.757   5.144 -0.2670  0.2976  0.1748
 1233PNCE   C2B11095   9.669   0.796   5.528  0.0534  0.1839  0.0992
 1233PNCE   C3B11096   9.545   1.126   5.796  0.3195 -0.1428  0.1535
 1233PNCE   D4B11097   9.169   1.373   5.702 -0.2966  0.2739  0.0353
 1233PNCE   C5B11098   8.808   1.285   5.791 -0.0387 -0.0062  0.1945
 1233PNCE   C6B11099   8.359   1.361   5.845 -0.3419  0.4642  0.0204
 1234PNCE   AM111100  11.676   7.823   4.144  0.2076 -0.0851 -0.3497
 1234PNCE   AM211101  11.407   7.737   4.284 -0.1855  0.0583  0.1375
 1234PNCE   T1A11102  12.072   7.901   4.273 -0.0955 -0.1119  0.2039
 1234PNCE   C2A11103  12.376   7.896   4.560 -0.2580 -0.0220  0.2140
 1234PNCE   C3A11104  12.607   7.952   4.934  0.3194  0.1916  0.2713
 1234PNCE   C1B11105  11.334   7.885   4.765 -0.1830 -0.1419 -0.3481
 1234PNCE   C2B11106  11.342   7.876   5.177 -0.4602 -0.0190  0.2979
 1234PNCE   C3B11107  11.565   7.610   5.420 -0.2702 -0.1499  0.1753
 1234PNCE   D4B11108  11.465   7.318   5.740  0.1617  0.2177  0.0453
 1234PNCE   C5B11109  11.476   7.406   6.192 -0.0322  0.2527  0.0626
 1234PNCE   C6B11110  11.116   7.454   6.477  0.2416 -0.2247 -0.0466
 1235PNCE   AM111111   1.666  11.317   4.964  0.2181  0.2117 -0.0450
 1235PNCE   AM211112   1.451  11.515   4.835  0.1770 -0.0309  0.0767
 1235PNCE   T1A11113   1.592  11.483   5.385 -0.1247 -0.0719 -0.2524
 1235PNCE   C2A11114   1.510  11.477   5.778 -0.2633  0.1443  0.0028
 1235PNCE   C3A11115   1.464  11.440   6.177 -0.1465 -0.1875 -0.0467
 1235PNCE   C1B11116   1.194  11.328   5.098  0.1165 -0.0427 -0.1156
 1235PNCE   C2B11117   1.093  11.538   5.518  0.0368  0.0885  0.2809
 1235PNCE   C3B11118   1.026  11.497   5.952  0.0772 -0.1525 -0.1845
 1235PNCE   D4B11119   0.895  11.590   6.320  0.2150 -0.0694 -0.2128
 1235PNCE   C5B11120   0.624  11.428   6.625 -0.2222  0.0327 -0.1177
 1235PNCE   C6B11121   0.580  11.066   6.770  0.0812 -0.1719 -0.3943
 1236PNCE   AM111122  10.997  12.401   4.574  0.0994  0.1071 -0.1229
 1236PNCE   AM211123  11.288  12.321   4.665 -0.1312 -0.0706 -0.0992
 1236PNCE   T1A11124  11.020  12.700   4.880 -0.3076 -0.0305  0.2164
 1236PNCE   C2A11125  11.189  12.881   5.273 -0.0122  0.0199  0.0820
 1236PNCE   C3A11126  11.323  12.932   5.728  0.1371 -0.0934 -0.1076
 1236PNCE   C1B11127  11.529  12.567   5.000  0.0262  0.2494  0.1909
 1236PNCE   C2B11128  11.635  12.703   5.340  0.0322 -0.1628  0.0385
 1236PNCE   C3B11129  11.721  12.526   5.762 -0.0301 -0.4399  0.0771
 1236PNCE   D4B11130  12.193  12.481   5.967 -0.2125  0.0138 -0.2518
 1236PNCE   C5B11131  12.321  12.222   6.286 -0.0303 -0.2121  0.1966
 1236PNCE   C6B11132  12.375  11.856   6.505  0.0986 -0.4180  0.2681
 1237CHOL   ROH11133   8.263   5.967   7.408 -0.1860  0.0289 -0.0999
 1237CHOL    R111134   8.284   6.033   7.133  0.0801  0.0799 -0.0711
 1237CHOL    R211135   8.448   5.895   6.959  0.0433 -0.0689  0.0048
 1237CHOL    R311136   8.219   5.866   6.816  0.1022  0.2366 -0.1574
 1237CHOL    R411137   8.426   5.738   6.652  0.0015 -0.3031  0.1251
 1237CHOL    R511138   8.288   5.895   6.588  0.3450 -0.0943 -0.1296
 1237CHOL    C111139   8.197   5.621   6.338  0.0323 -0.1527  0.0430
 1237CHOL    C211140   8.144   5.318   6.095  0.1660 -0.2039  0.0755
 1238XCA    COO11141  11.855  14.438   4.884 -0.2785 -0.0975  0.1740
 1238XCA     C111142  11.921  14.535   5.274  0.0272 -0.0690  0.0816
 1238XCA     C211143  12.023  14.888   5.586  0.1915 -0.0971  0.0352
 1238XCA     C311144  11.997  15.075   5.902  0.2625 -0.2690 -0.0166
 1238XCA     C411145  11.724  15.030   6.243  0.0460 -0.1030 -0.1506
 1238XCA     C511146  11.626  14.922   6.599 -0.0704 -0.1130  0.1154
 1238XCA     C611147  11.783  14.592   6.707  0.2584  0.0976 -0.2464
 1239XCA    COO11148   1.022   1.768   9.352  0.2170 -0.0914 -0.1223
 1239XCA     C111149   1.305   1.512   9.138  0.1298  0.1508  0.1522
 1239XCA     C211150   1.537   1.344   8.733  0.0780 -0.0264  0.1233
 1239XCA     C311151   1.417   1.231   8.393  0.0793 -0.2054 -0.0749
 1239XCA     C411152   1.478   1.386   8.000  0.0327 -0.1936  0.0696
 1239XCA     C511153   1.336   1.320   7.608  0.1881  0.3450  0.0393
 1239XCA     C611154   1.208   1.033   7.370 -0.1578 -0.1851 -0.1318
 1240PNCE   AM111155   1.798  13.280   5.261  0.0007 -0.0075 -0.1128
 1240PNCE   AM211156   1.659  12.987   5.098 -0.4554  0.0959  0.1033
 1240PNCE   T1A11157   1.704  13.170   5.692  0.0403  0.0139  0.4602
 1240PNCE   C2A11158   1.797  13.148   6.152  0.1187 -0.3912 -0.0505
 1240PNCE   C3A11159   1.660  12.957   6.518 -0.1336  0.1371 -0.0763
 1240PNCE   C1B11160   1.273  12.980   5.442  0.0172  0.3976  0.1819
 1240PNCE   C2B11161   1.118  12.865   5.854 -0.1757 -0.2927 -0.0647
 1240PNCE   C3B11162   1.185  12.870   6.284 -0.0161  0.2499  0.3625
 1240PNCE   D4B11163   1.196  12.843   6.704  0.1032  0.1088  0.0692
 1240PNCE   C5B11164   1.257  13.208   6.831  0.1751  0.0970  0.0180
 1240PNCE   C6B11165   1.643  13.399   6.953 -0.2037 -0.0901  0.1179
 1241CHOL   ROH11166  13.551   4.891   6.211  0.0136  0.1454 -0.0113
 1241CHOL    R111167  13.669   4.907   5.954  0.1430  0.0203  0.0392
 1241CHOL    R211168  13.745   5.147   5.840  0.0079 -0.0129 -0.1236
 1241CHOL    R311169  13.985   5.021   5.815  0.1280  0.1608  0.1181
 1241CHOL    R411170  14.013   5.266   5.657 -0.0344 -0.0060 -0.1813
 1241CHOL    R511171  14.051   5.063   5.589  0.1666 -0.0642  0.0848
 1241CHOL    C111172  14.394   5.218   5.528  0.0536  0.1609  0.0120
 1241CHOL    C211173  14.337   5.391   5.272  0.0040  0.0661  0.2317
 1242PNCE   AM111174   5.005   6.642   8.588 -0.0007  0.1747 -0.1008
 1242PNCE   AM211175   4.745   6.769   8.465  0.1071 -0.0283 -0.2521
 1242PNCE   T1A11176   5.193   6.738   8.179  0.0969 -0.0259 -0.2729
 1242PNCE   C2A11177   5.231   7.111   7.914  0.1140  0.0928 -0.4366
 1242PNCE   C3A11178   5.153   7.469   7.791 -0.0286  0.2334  0.2459
 1242PNCE   C1B11179   4.793   7.162   8.201 -0.0000  0.4590 -0.1277
 1242PNCE   C2B11180   4.689   7.185   7.840  0.1995 -0.1516 -0.0745
 1242PNCE   C3B11181   4.793   7.231   7.478 -0.1173  0.0281  0.0556
 1242PNCE   D4B11182   4.866   7.700   7.320 -0.2985  0.2353 -0.0779
 1242PNCE   C5B11183   5.025   7.717   6.858 -0.0334  0.2151  0.2101
 1242PNCE   C6B11184   4.981   8.065   6.770 -0.3609 -0.0330  0.0079
 1243XCA    COO11185  11.818   2.578   8.603  0.3001 -0.2677 -0.0391
 1243XCA     C111186  11.994   2.707   8.220  0.2552  0.0270  0.0409
 1243XCA     C211187  12.079   2.915   7.824 -0.1807  0.1641 -0.0728
 1243XCA     C311188  12.065   3.275   7.757 -0.1675 -0.0893  0.0009
 1243XCA     C411189  11.978   3.495   7.364 -0.1616 -0.1329 -0.1420
 1243XCA     C511190  11.790   3.672   7.025 -0.2530 -0.1170  0.1873
 1243XCA     C611191  11.469   3.479   6.663  0.2715  0.0525  0.2559
 1244PNCE   AM111192   9.932   9.535   6.404  0.5701 -0.2379 -0.2245
 1244PNCE   AM211193   9.965   9.233   6.201 -0.1434 -0.0445 -0.1818
 1244PNCE   T1A11194   9.879   9.073   6.648 -0.0698 -0.2212 -0.0434
 1244PNCE   C2A11195   9.643   8.714   6.564  0.0595  0.2951 -0.1408
 1244PNCE   C3A11196   9.592   8.278   6.724  0.1650 -0.1474 -0.1346
 1244PNCE   C1B11197   9.541   9.157   6.291  0.0004 -0.0028  0.2030
 1244PNCE   C2B11198   9.120   8.962   6.514  0.0015 -0.3522 -0.2318
 1244PNCE   C3B11199   8.698   8.894   6.750 -0.0766 -0.1675  0.2202
 1244PNCE   D4B11200   8.366   8.651   6.950  0.2844 -0.1316 -0.0264
 1244PNCE   C5B11201   8.641   8.425   7.112  0.1541 -0.1032  0.0298
 1244PNCE   C6B11202   8.821   7.963   7.219 -0.1666  0.0905 -0.2314
 1245PNCE   AM111203   3.353   3.702   4.576 -0.0302 -0.0865  0.1639
 1245PNCE   AM211204   3.611   3.976   4.328  0.1155 -0.0447  0.2219
 1245PNCE   T1A11205   2.945   3.747   4.836 -0.0916  0.0154 -0.5138
 1245PNCE   C2A11206   2.711   3.699   5.128 -0.0677  0.1759  0.1933
 1245PNCE   C3A11207   2.516   3.681   5.501  0.1150  0.0885 -0.1203
 1245PNCE   C1B11208   3.610   4.053   4.760  0.4575 -0.0905  0.3166
 1245PNCE   C2B11209   3.753   4.043   5.109 -0.0082 -0.5053 -0.0165
 1245PNCE   C3B11210   3.911   4.247   5.453 -0.1265  0.1494  0.3173
 1245PNCE   D4B11211   4.076   4.681   5.589  0.1524  0.1357  0.1293
 1245PNCE   C5B11212   4.276   4.667   6.044  0.2772 -0.0483 -0.1105
 1245PNCE   C6B11213   4.530   4.443   6.332  0.0486  0.0805  0.0057
 1246PNCE   AM111214   1.320   0.539   5.189  0.0168 -0.0316  0.2318
 1246PNCE   AM211215   1.032   0.284   5.226 -0.1719 -0.0162  0.1603
 1246PNCE   T1A11216   1.341   0.985   5.306  0.0241 -0.0235  0.4171
 1246PNCE   C2A11217   1.446   1.488   5.608  0.1986 -0.3918 -0.0261
 1246PNCE   C3A11218   1.388   1.816   5.975  0.1008  0.3414 -0.0414
 1246PNCE   C1B11219   0.889   0.267   5.706  0.4084  0.0981  0.3670
 1246PNCE   C2B11220   0.862   0.397   6.094 -0.1433  0.2634 -0.0216
 1246PNCE   C3B11221   0.896   0.699   6.425 -0.0954  0.3901 -0.0365
 1246PNCE   D4B11222   0.847   0.806   6.757  0.0713  0.0285  0.1297
 1246PNCE   C5B11223   0.988   1.150   6.733  0.0875  0.0272  0.1563
 1246PNCE   C6B11224   1.015   1.496   6.946 -0.3824 -0.1801  0.0198
 1247CHOL   ROH11225   8.042   0.083   4.746 -0.1624 -0.1102  0.0641
 1247CHOL    R111226   7.834   0.223   4.877 -0.2166 -0.1050 -0.0249
 1247CHOL    R211227   7.674   0.107   5.071 -0.1185 -0.0188  0.1178
 1247CHOL    R311228   7.754   0.321   5.218 -0.2013  0.1624 -0.0976
 1247CHOL    R411229   7.466   0.304   5.264 -0.1619  0.0112  0.0391
 1247CHOL    R511230   7.575   0.479   5.196 -0.3109  0.0249 -0.1546
 1247CHOL    C111231   7.419   0.619   5.515 -0.2648  0.1986 -0.2090
 1247CHOL    C211232   7.217   0.833   5.728 -0.3343 -0.1880 -0.3542
 1248XCA    COO11233   5.467  15.575   4.668 -0.1164 -0.1657  0.0203
 1248XCA     C111234   5.465  15.742   5.119  0.0745  0.0335  0.2258
 1248XCA     C211235   5.554  16.159   5.218  0.0617 -0.0350  0.0621
 1248XCA     C311236   5.469  16.561   5.464  0.1475  0.1335 -0.0196
 1248XCA     C411237   5.495  16.768   5.867 -0.0988  0.0723  0.0221
 1248XCA     C511238   5.314  17.056   6.287  0.0740  0.0139 -0.0708
 1248XCA     C611239   5.411  17.278   6.575 -0.0915  0.0380 -0.0179
 1249XCA    COO11240   9.805  13.848   4.495  0.1285 -0.2034 -0.0840
 1249XCA     C111241   9.917  14.120   4.763  0.0598  0.0460  0.0347
 1249XCA     C211242   9.757  14.090   5.167 -0.2139 -0.2024  0.3533
 1249XCA     C311243   9.746  14.094   5.575  0.1366  0.0118  0.1639
 1249XCA     C411244   9.506  14.204   5.945  0.2404  0.2090  0.5507
 1249XCA     C511245   9.242  14.627   6.036 -0.0059  0.0962 -0.1773
 1249XCA     C611246   9.236  14.968   6.074 -0.2249 -0.1797  0.0106
 1250CHOL   ROH11247   8.869   3.423   7.930 -0.0715 -0.0663  0.0178
 1250CHOL    R111248   8.971   3.537   7.693  0.0722 -0.1714  0.0286
 1250CHOL    R211249   9.095   3.387   7.496 -0.0455 -0.2952  0.0539
 1250CHOL    R311250   8.910   3.505   7.335  0.0919 -0.1212  0.0190
 1250CHOL    R411251   9.156   3.501   7.176  0.1153 -0.4228  0.0378
 1250CHOL    R511252   9.032   3.675   7.219  0.2969 -0.2723 -0.0019
 1250CHOL    C111253   9.018   3.677   6.838  0.3382 -0.3338 -0.0043
 1250CHOL    C211254   8.960   3.795   6.411  0.0215  0.1348  0.0638
 1251XCA    COO11255  12.577  10.322   4.695 -0.1219  0.0083  0.0394
 1251XCA     C111256  12.950  10.394   5.097  0.2159  0.1700  0.2545
 1251XCA     C211257  12.683  10.311   5.413  0.3569 -0.0553 -0.1202
 1251XCA     C311258  12.399  10.304   5.796 -0.1398 -0.1596  0.2295
 1251XCA     C411259  12.019  10.341   6.109  0.4032  0.1017 -0.1091
 1251XCA     C511260  11.649  10.525   6.377  0.1083 -0.0453 -0.1394
 1251XCA     C611261  11.265  10.753   6.248  0.3532 -0.1252 -0.2332
 1252CHOL   ROH11262   6.792  11.970   8.481  0.0248  0.0632  0.3573
 1252CHOL    R111263   6.881  11.715   8.395 -0.0829  0.1679 -0.0810
 1252CHOL    R211264   6.871  11.491   8.556  0.5485  0.0689 -0.1743
 1252CHOL    R311265   6.734  11.386   8.347 -0.0457  0.1080  0.1665
 1252CHOL    R411266   6.779  11.159   8.528  0.8267 -0.0175 -0.1158
 1252CHOL    R511267   6.831  11.169   8.316  0.1271  0.2265 -0.3219
 1252CHOL    C111268   6.597  10.867   8.314  0.4308 -0.0310  0.2383
 1252CHOL    C211269   6.691  10.537   8.335  0.5307  0.2446 -0.0245
 1253CHOL   ROH11270  15.076   9.886   8.671  0.1865 -0.1937 -0.0083
 1253CHOL    R111271  15.230  10.038   8.489  0.0595 -0.0401  0.0121
 1253CHOL    R211272  15.386   9.923   8.292  0.1028  0.1191 -0.0452
 1253CHOL    R311273  15.242  10.085   8.128 -0.0261  0.0766  0.0229
 1253CHOL    R411274  15.511  10.077   8.009 -0.0767  0.1503 -0.1091
 1253CHOL    R511275  15.398  10.256   8.063 -0.1032  0.1210 -0.0548
 1253CHOL    C111276  15.449  10.320   7.690 -0.3022  0.1287 -0.0826
 1253CHOL    C211277  15.543  10.717   7.464 -0.0495 -0.1192  0.0477
 1254XCA    COO11278  11.824  10.344   8.737 -0.2101 -0.1775  0.0454
 1254XCA     C111279  11.841  10.186   8.396  0.0708 -0.2679 -0.2052
 1254XCA     C211280  11.911   9.850   8.228 -0.1271  0.1290  0.0813
 1254XCA     C311281  11.939   9.732   7.811  0.1660  0.1786 -0.0376
 1254XCA     C411282  11.500   9.548   7.573 -0.1112  0.0107 -0.1657
 1254XCA     C511283  11.152   9.312   7.559  0.0826  0.3952 -0.0434
 1254XCA     C611284  11.096   9.375   7.146  0.0240 -0.0884  0.1320
 1255PNCE   AM111285  14.158   2.319   4.483  0.1500  0.3893  0.5170
 1255PNCE   AM211286  14.361   2.539   4.452 -0.0190 -0.3963 -0.4090
 1255PNCE   T1A11287  14.124   2.183   4.907 -0.1495 -0.1006  0.1819
 1255PNCE   C2A11288  14.218   2.147   5.309  0.0454  0.2500 -0.0393
 1255PNCE   C3A11289  14.382   2.235   5.622 -0.0088 -0.2305  0.1182
 1255PNCE   C1B11290  14.580   2.301   4.752 -0.0595 -0.1501 -0.1836
 1255PNCE   C2B11291  14.729   2.124   5.223  0.0748 -0.1451 -0.0107
 1255PNCE   C3B11292  15.118   2.100   5.526 -0.2555 -0.1849 -0.0210
 1255PNCE   D4B11293  15.299   2.317   5.792  0.0087 -0.2898  0.2762
 1255PNCE   C5B11294  15.667   2.278   5.957  0.0141 -0.0786 -0.3002
 1255PNCE   C6B11295  16.099   2.315   5.860  0.2131 -0.0234  0.2453
 1256CHOL   ROH11296  13.877   2.747   4.515  0.1050 -0.0258  0.0768
 1256CHOL    R111297  13.908   2.609   4.761  0.0150  0.0347  0.1223
 1256CHOL    R211298  13.960   2.739   4.999 -0.1042  0.0952  0.1134
 1256CHOL    R311299  13.740   2.603   5.084 -0.1243  0.0884  0.0523
 1256CHOL    R411300  13.895   2.653   5.327 -0.1172 -0.0358  0.0775
 1256CHOL    R511301  13.823   2.460   5.257 -0.1435  0.0020 -0.0070
 1256CHOL    C111302  13.652   2.475   5.598 -0.1437 -0.1186 -0.0007
 1256CHOL    C211303  13.596   2.463   6.018  0.0327 -0.2686  0.0338
 1257XCA    COO11304  10.806  13.552   4.697  0.0085  0.1660  0.3005
 1257XCA     C111305  10.705  13.638   5.082 -0.0714  0.1684  0.0356
 1257XCA     C211306  10.629  13.828   5.544 -0.0643  0.0364  0.0557
 1257XCA     C311307  10.552  13.989   5.893 -0.2857  0.0553 -0.0098
 1257XCA     C411308  10.482  14.317   6.083 -0.1631  0.0558 -0.2568
 1257XCA     C511309  10.216  14.591   6.411 -0.1037 -0.0202  0.0527
 1257XCA     C611310   9.934  14.506   6.722  0.2905 -0.2550 -0.1312
 1258PNCE   AM111311  10.387  13.392   4.395  0.0155  0.1583  0.0146
 1258PNCE   AM211312  10.408  13.160   4.512 -0.1195  0.1472  0.0412
 1258PNCE   T1A11313  10.302  13.663   4.816  0.2243 -0.0880 -0.0393
 1258PNCE   C2A11314  10.206  13.840   5.194  0.0841 -0.3089 -0.0393
 1258PNCE   C3A11315  10.197  14.023   5.585 -0.0959 -0.1030 -0.0121
 1258PNCE   C1B11316  10.225  13.179   4.925  0.2492  0.1370 -0.0685
 1258PNCE   C2B11317  10.068  13.219   5.287  0.4020  0.2694 -0.0915
 1258PNCE   C3B11318   9.975  13.103   5.683  0.1302  0.2030  0.2215
 1258PNCE   D4B11319   9.798  13.197   6.103  0.0394  0.2150 -0.1950
 1258PNCE   C5B11320   9.897  13.099   6.492 -0.1030 -0.1035 -0.3558
 1258PNCE   C6B11321   9.999  12.929   6.869  0.2416  0.0647 -0.0953
 1259CHOL   ROH11322   5.747   0.709   4.688  0.1201 -0.0922  0.0145
 1259CHOL    R111323   5.740   0.968   4.802  0.0901 -0.0682 -0.0412
 1259CHOL    R211324   5.504   1.104   4.847  0.0743 -0.0734 -0.0956
 1259CHOL    R311325   5.601   1.122   5.100  0.0464 -0.0155 -0.0892
 1259CHOL    R411326   5.373   1.307   5.094 -0.0457 -0.1350 -0.1084
 1259CHOL    R511327   5.576   1.354   5.157 -0.0764 -0.0282 -0.0956
 1259CHOL    C111328   5.387   1.442   5.476 -0.1418 -0.1165 -0.1099
 1259CHOL    C211329   5.127   1.500   5.788  0.2983 -0.1263 -0.1117
 1260XCA    COO11330  12.279  12.632   9.027  0.0411  0.0670 -0.1916
 1260XCA     C111331  12.657  12.891   8.763 -0.1107  0.3926  0.1756
 1260XCA     C211332  12.817  12.948   8.392  0.0315 -0.3716  0.1679
 1260XCA     C311333  12.863  13.143   7.953  0.0018 -0.0112 -0.1657
 1260XCA     C411334  13.164  13.462   7.938 -0.0461 -0.0543  0.2954
 1260XCA     C511335  13.325  13.801   8.078  0.1279  0.2108  0.4351
 1260XCA     C611336  13.735  14.084   7.885 -0.2549 -0.0456 -0.2148
 1261XCA    COO11337   0.368   5.606   4.379 -0.2684 -0.1401  0.0088
 1261XCA     C111338   0.346   5.612   4.823 -0.1695  0.1738 -0.1813
 1261XCA     C211339   0.543   5.626   5.247  0.2354 -0.1697  0.4020
 1261XCA     C311340   0.621   5.452   5.646 -0.1914 -0.1177  0.2473
 1261XCA     C411341   0.483   5.397   6.112  0.1397 -0.4395 -0.1642
 1261XCA     C511342   0.196   5.383   6.328 -0.0441  0.1233 -0.2730
 1261XCA     C611343   0.093   5.174   6.724  0.0585  0.1681 -0.3320
 1262PNCE   AM111344   5.510  13.187   4.942  0.3464 -0.1028 -0.3014
 1262PNCE   AM211345   5.568  13.544   5.056  0.1387 -0.0330  0.1111
 1262PNCE   T1A11346   5.309  12.949   5.303 -0.1299  0.0200  0.1982
 1262PNCE   C2A11347   5.032  13.028   5.661  0.1074  0.0034 -0.0672
 1262PNCE   C3A11348   5.142  12.971   6.055 -0.3094 -0.1109  0.0545
 1262PNCE   C1B11349   5.587  13.593   5.481 -0.1913 -0.0022  0.1455
 1262PNCE   C2B11350   5.587  13.538   5.929  0.0451 -0.1815 -0.4534
 1262PNCE   C3B11351   5.275  13.758   6.289 -0.0799 -0.0492 -0.0926
 1262PNCE   D4B11352   5.456  14.008   6.560  0.0530  0.1344  0.0404
 1262PNCE   C5B11353   5.549  14.360   6.423  0.2254  0.0262  0.3527
 1262PNCE   C6B11354   5.448  14.593   6.052  0.0458 -0.1093  0.0648
 1263XCA    COO11355  10.040   8.500   4.579  0.0386  0.0347  0.0179
 1263XCA     C111356  10.009   8.617   5.084 -0.2694 -0.3680  0.2011
 1263XCA     C211357   9.794   8.585   5.499  0.0613  0.2070 -0.2969
 1263XCA     C311358   9.760   8.700   5.960 -0.0347  0.0246  0.0963
 1263XCA     C411359  10.095   8.683   6.272  0.0888 -0.1539  0.0196
 1263XCA     C511360  10.438   8.501   6.434 -0.2984 -0.1402 -0.2490
 1263XCA     C611361  10.411   8.173   6.777  0.0683  0.0995  0.1906
 1264XCA    COO11362   2.354   8.532   4.828 -0.1738  0.0093 -0.1742
 1264XCA     C111363   2.199   8.433   5.242 -0.4381  0.0132  0.0288
 1264XCA     C211364   2.300   8.437   5.709  0.1259 -0.1132  0.0662
 1264XCA     C311365   2.108   8.428   6.116 -0.2204  0.1095 -0.0380
 1264XCA     C411366   1.973   8.508   6.544 -0.2723 -0.3679 -0.1357
 1264XCA     C511367   1.929   8.535   6.990  0.0089  0.2186  0.2386
 1264XCA     C611368   1.638   8.641   7.255  0.1188  0.0675 -0.0957
 1265WN      WN11369   6.104  11.893  11.687  0.2098  0.0117 -0.0648
 1266WN      WN11370   4.920   0.214   2.673 -0.0690 -0.0744 -0.1512
 1267WN      WN11371   7.632   4.147   3.673 -0.0247  0.3387 -0.0180
 1268WN      WN11372  14.766   4.125   3.268 -0.1225  0.0244  0.1708
 1269WN      WN11373   8.980   3.229   9.461  0.1782 -0.1766 -0.1335
 1270WN      WN11374   3.694   5.042   0.034 -0.2214  0.0402  0.2450
 1271WN      WN11375  13.874  13.122   3.908  0.0803  0.3623  0.0309
 1272WN      WN11376  11.933   4.537   0.925 -0.0692 -0.0560 -0.1134
 1273WN      WN11377   4.116   6.634  10.453  0.6038 -0.0427  0.0465
 1274WN      WN11378  11.266   9.431   2.396  0.0829  0.0584  0.1286
 1275WN      WN11379  11.128   2.441   1.325 -0.1320 -0.0884  0.0402
 1276WN      WN11380   7.308   1.582   9.553 -0.0568  0.3224  0.3637
 1277WN      WN11381  13.804  12.938   2.173  0.0375  0.7712  0.0133
 1278WN      WN11382  11.189   6.974   3.861  0.0849 -0.1091 -0.1781
 1279WN      WN11383   6.390   7.380  12.833  0.1227 -0.0817 -0.2401
 1280WN      WN11384   7.881  14.265  12.262  0.2027 -0.2257 -0.3106
 1281WN      WN11385  12.054  12.418   0.482  0.3022  0.1078 -0.2683
 1282WN      WN11386   4.580  15.622  11.454  0.1935  0.0213  0.0874
 1283WN      WN11387  10.775  13.029   2.674 -0.2457  0.5083  0.1154
 1284WN      WN11388   7.714  13.289  13.520  0.4261 -0.0595 -0.2037
 1285WN      WN11389   0.131   5.667  13.200 -0.1298 -0.2851  0.2340
 1286WN      WN11390   4.932   6.832   2.768 -0.2293  0.3197 -0.0673
 1287WN      WN11391   1.604  10.446   9.742  0.1771  0.1352 -0.2811
 1288WN      WN11392   2.386   7.053  11.226  0.1287  0.0950 -0.0264
 1289WN      WN11393  11.711   3.247   9.305 -0.1437  0.1413 -0.0750
 1290WN      WN11394   0.670   3.479   4.399  0.4569 -0.1745  0.0732
 1291WN      WN11395   8.643   1.159   9.255  0.0740 -0.0022 -0.2168
 1292WN      WN11396  12.205   2.682   2.080  0.0687  0.1109 -0.0553
 1293WN      WN11397  13.326   3.940   2.744  0.0562  0.0630 -0.0567
 1294WN      WN11398   6.932  10.579  13.110 -0.1356  0.0495  0.1251
 1295WN      WN11399   2.089  10.195   1.225  0.0288 -0.2706  0.0280
 1296WN      WN11400   8.490   8.186  11.238 -0.0230  0.2416  0.2708
 1297WN      WN11401  11.623   7.921   1.571 -0.2713 -0.1340 -0.0736
 1298WN      WN11402   0.202   6.839   8.658  0.3204 -0.1295  0.2001
 1299WN      WN11403   2.808  13.115  10.917 -0.1452  0.1034 -0.0769
 1300WN      WN11404  12.262   7.785  10.245  0.2234  0.2083 -0.0225
 1301WN      WN11405   6.236   0.723  10.556  0.0601  0.1091  0.0053
 1302WN      WN11406   5.663  14.347   2.756  0.0977 -0.1835 -0.0630
 1303WN      WN11407   1.348  12.165   4.161 -0.0104  0.0509  0.1124
 1304WN      WN11408  10.192   2.683   2.042 -0.1935  0.2980 -0.0139
 1305WN      WN11409   6.183  13.946   4.715 -0.0655 -0.3460 -0.0827
 1306WN      WN11410  14.556  13.242  13.755  0.1575  0.1170 -0.0738
 1307WN      WN11411  14.038   8.056  11.314  0.1685 -0.1775 -0.0172
 1308WN      WN11412  11.197   5.414   3.900 -0.0536 -0.1708 -0.0326
 1309WN      WN11413   1.971   9.992  11.811  0.0623  0.0206 -0.2476
 1310WN      WN11414  11.732   4.631  12.877  0.3521 -0.1551 -0.2113
 1311WN      WN11415  15.059   7.447   1.166 -0.2828  0.2799 -0.0508
 1312WN      WN11416   6.313   2.948  10.750 -0.0056  0.1821 -0.3862
 1313WN      WN11417   0.277   0.129  10.092  0.0394 -0.0808 -0.1412
 1314WN      WN11418  10.744  13.028   1.122 -0.0793  0.2984  0.2105
 1315WN      WN11419  13.972  10.020   1.504 -0.0500 -0.1719  0.2386
 1316WN      WN11420   1.754  15.079   4.030 -0.1363 -0.0924  0.3336
 1317WN      WN11421   5.129  11.563   2.811  0.2819 -0.0441 -0.4380
 1318WN      WN11422  11.340   6.600  11.326 -0.3755  0.0227 -0.2198
 1319WN      WN11423   5.812   6.360  11.236  0.0380  0.1535  0.0202
 1320WN      WN11424  11.994   5.241   1.570  0.0692 -0.0110  0.1099
 1321WN      WN11425  15.649   2.460   2.343  0.0911  0.2192 -0.0028
 1322WN      WN11426   8.975   0.552   9.486  0.0367  0.0231  0.0671
 1323WN      WN11427   9.518   7.115  11.523 -0.4592  0.1280  0.0231
 1324WN      WN11428   7.130   8.040   9.693  0.1889  0.2231  0.2360
 1325WN      WN11429   5.821   2.733   1.060 -0.2159  0.1013  0.0370
 1326WN      WN11430  10.207   4.828   1.574  0.1154  0.2747  0.2577
 1327WN      WN11431   4.982  11.086  11.445  0.1820 -0.2219  0.0452
 1328WN      WN11432   7.469  10.125   3.829 -0.1519 -0.5925 -0.0135
 1329WN      WN11433   1.288   9.661   2.091 -0.5413 -0.0669  0.0613
 1330WN      WN11434   2.600   5.767  11.538  0.2701 -0.0896  0.0009
 1331WN      WN11435   6.707   1.270  10.124  0.4315 -0.2143 -0.3220
 1332WN      WN11436   3.622  15.496  11.381 -0.2273  0.1036  0.1614
 1333WN      WN11437  15.541   0.982  11.506 -0.0627  0.3604 -0.2187
 1334WN      WN11438  13.132   7.909   9.180  0.2262  0.1010 -0.0505
 1335WN      WN11439  11.192  12.163   2.274 -0.2825 -0.2050 -0.0471
 1336WN      WN11440   1.209   6.915   9.780  0.3411 -0.4129  0.2997
 1337WN      WN11441  15.313  10.707   9.667  0.2401  0.2303  0.1692
 1338WN      WN11442  13.992   6.595   0.138 -0.1101 -0.0321 -0.0760
 1339WN      WN11443  14.715  15.579  12.524  0.4347 -0.2664  0.2422
 1340WN      WN11444   7.134   9.423  10.840 -0.4375  0.2143 -0.0204
 1341WN      WN11445   3.372   9.297  12.934 -0.1977  0.0253  0.1449
 1342WN      WN11446   8.949   2.025   0.488  0.2897 -0.3763  0.1826
 1343WN      WN11447   6.182  12.705   2.890  0.2566  0.0119  0.0785
 1344WN      WN11448   1.908   1.968   3.995 -0.1100 -0.3507 -0.0065
 1345WN      WN11449  12.331  10.742  10.794  0.2303 -0.0444 -0.1157
 1346WN      WN11450   8.779   2.953  11.618  0.0177 -0.1766  0.1246
 1347WN      WN11451   8.873   6.037  11.669  0.0896 -0.1851 -0.1781
 1348WN      WN11452   7.382   9.376   3.018 -0.0420  0.5425 -0.0133
 1349WN      WN11453  13.561   3.106  12.461 -0.1033  0.0644 -0.1834
 1350WN      WN11454  13.274   2.522  11.157 -0.1131 -0.0763  0.0780
 1351WN      WN11455  13.425   5.496   3.482 -0.1040 -0.2566  0.0170
 1352WN      WN11456   5.016   8.485   4.708  0.0861  0.0969 -0.0697
 1353WN      WN11457   1.440  13.383   4.899  0.3449 -0.2125 -0.0897
 1354WN      WN11458   0.893  15.059   3.629 -0.2308 -0.3142  0.0771
 1355WN      WN11459  11.016   7.964  11.352  0.0248 -0.0289  0.1222
 1356WN      WN11460  10.347   0.944  10.909  0.2228 -0.1965 -0.2371
 1357WN      WN11461   0.057   5.408  12.817  0.0500  0.0249 -0.0294
 1358WN      WN11462   5.640  13.567   3.994  0.0412 -0.1370  0.1733
 1359WN      WN11463  11.183   7.161  11.024  0.0265  0.1973 -0.0936
 1360WN      WN11464   5.275  10.552   1.726  0.1756  0.0014  0.1889
 1361WN      WN11465  13.921  11.748   1.490 -0.0329 -0.3142  0.1373
 1362WN      WN11466   2.067  11.301   0.133 -0.2732 -0.0188  0.2197
 1363WN      WN11467   0.390   5.022   9.074  0.0845 -0.1216  0.0645
 1364WN      WN11468   9.844   5.569   2.173 -0.1118  0.2904  0.1625
 1365WN      WN11469   1.935   5.856   9.367 -0.0064  0.0718  0.1478
 1366WN      WN11470   8.552   5.927   2.372 -0.2547  0.0151  0.2379
 1367WN      WN11471  14.962   6.564   2.363  0.2029  0.3802  0.1369
 1368WN      WN11472  13.473   1.937   0.551 -0.2117 -0.1739 -0.1719
 1369WN      WN11473   3.265   6.020   3.716  0.2728 -0.2298 -0.1106
 1370WN      WN11474  15.196  11.395  12.427 -0.1371  0.2006  0.1396
 1371WN      WN11475   1.724   8.030  10.575 -0.3145 -0.1548 -0.2517
 1372WN      WN11476   1.801   8.434   0.635  0.1105 -0.0008  0.0844
 1373WN      WN11477  11.566   0.046   4.143 -0.0587  0.0180  0.0297
 1374WN      WN11478   7.087   1.088   9.525 -0.0932 -0.3015  0.3002
 1375WN      WN11479  13.062  10.057  10.715  0.1595 -0.1694 -0.0418
 1376WN      WN11480   6.076  13.899  12.199 -0.1861 -0.0005 -0.1693
 1377WN      WN11481  13.046  14.431   3.468  0.0683 -0.2679  0.0219
 1378WN      WN11482  11.480   0.868   3.052 -0.2227  0.4520  0.2274
 1379WN      WN11483   8.004   9.937   9.762 -0.4660  0.1299  0.0184
 1380WN      WN11484   9.013   1.090  13.248  0.0140  0.0736 -0.1935
 1381WN      WN11485   7.833   2.635  11.743  0.1183  0.2581  0.0024
 1382WN      WN11486   3.377  10.141  11.380  0.0086  0.1547 -0.3659
 1383WN      WN11487  12.573   4.063  12.856 -0.0376 -0.2632 -0.0076
 1384WN      WN11488  14.742   7.841   0.911  0.0007 -0.0248  0.0727
 1385WN      WN11489   0.593  10.690  12.519 -0.2199 -0.1760 -0.0885
 1386WN      WN11490  10.033   6.002   9.981  0.0583  0.2444 -0.1472
 1387WN      WN11491   5.162  15.500   2.741 -0.1941 -0.1814  0.2221
 1388WN      WN11492   9.119  14.069   2.562 -0.0068 -0.1215 -0.1682
 1389WN      WN11493   6.749   7.092  13.022  0.2052 -0.0427  0.2635
 1390WN      WN11494   5.822  13.894  13.033  0.0721  0.1029 -0.1212
 1391WN      WN11495   4.213   2.727   2.086  0.0431  0.3128 -0.2776
 1392WN      WN11496  14.964   7.110   8.619 -0.2916  0.2427  0.1600
 1393WN      WN11497   5.861   0.667   9.772 -0.2317  0.0942 -0.0327
 1394WN      WN11498  14.956   2.099   3.720  0.1040 -0.1233  0.0667
 1395WN      WN11499  15.569  15.259   3.476 -0.1984 -0.0372 -0.0154
 1396WN      WN11500  12.365  10.057   9.437  0.0923  0.1723 -0.0295
 1397WN      WN11501  10.240   8.446   1.028 -0.3592  0.1382 -0.1422
 1398WN      WN11502   2.150   5.466  13.502 -0.0635  0.1078 -0.0190
 1399WN      WN11503   4.827  13.350  13.580 -0.2635  0.3705  0.2262
 1400WN      WN11504  12.414   5.857  12.677 -0.0947  0.0219  0.1498
 1401WN      WN11505  14.024   4.664  10.522 -0.1265  0.2462 -0.1710
 1402WN      WN11506  14.530   5.967   0.087 -0.0646  0.4376  0.2233
 1403WN      WN11507   6.070   6.151  10.031  0.2041 -0.1876  0.0420
 1404WN      WN11508  14.776  13.657   3.160  0.3671 -0.0733  0.1464
 1405WN      WN11509  14.288  12.242   4.155  0.1201  0.2689 -0.0325
 1406WN      WN11510  13.421  15.422  10.762  0.0472 -0.0235  0.0116
 1407WN      WN11511   6.499   0.594   4.279  0.0713 -0.1373 -0.5211
 1408WN      WN11512   2.093   4.854   3.261  0.1609  0.1483  0.3108
 1409WN      WN11513  15.097   0.107   0.679  0.1765  0.0975  0.2108
 1410WN      WN11514  11.420  11.675   9.514  0.1328 -0.1081 -0.3648
 1411WN      WN11515   9.536   0.880   2.484 -0.1389 -0.0821 -0.3081
 1412WN      WN11516   1.387   8.308  10.009  0.2685  0.0945  0.0336
 1413WN      WN11517   0.449  12.551   4.218 -0.0468 -0.0323 -0.0656
 1414WN      WN11518   8.085  13.524  10.499  0.0470  0.3725 -0.2838
 1415WN      WN11519  10.234   8.279  11.409 -0.3714 -0.2224 -0.0970
 1416WN      WN11520   3.929  15.055   9.956  0.1391 -0.1214  0.0621
 1417WN      WN11521   0.923   1.413   0.704  0.0833  0.1890 -0.0211
 1418WN      WN11522  13.461   2.772   9.153  0.0810 -0.0125  0.1473
 1419WN      WN11523   4.115   6.789   0.392 -0.0890 -0.1328  0.0555
 1420WN      WN11524   5.813   8.221   4.058 -0.0074  0.0450 -0.1724
 1421WN      WN11525   8.965   9.746   1.034  0.2829  0.1106  0.1340
 1422WN      WN11526   9.142   0.099  12.315 -0.1042 -0.2062  0.1265
 1423WN      WN11527   9.462   8.708  13.043 -0.0233 -0.0059  0.0468
 1424WN      WN11528   6.593   8.989  12.208  0.0852  0.0133 -0.3701
 1425WN      WN11529  13.358   0.582  12.724 -0.4305 -0.2459 -0.2473
 1426WN      WN11530   1.859   2.201   0.899 -0.0340 -0.0708  0.1941
 1427WN      WN11531   5.092   4.684   2.012 -0.0743  0.3561 -0.2935
 1428WN      WN11532   6.439   3.852   0.667  0.0841 -0.0117  0.2654
 1429WN      WN11533   1.238  11.902   0.161 -0.0964  0.2007 -0.0381
 1430WN      WN11534   3.122   0.895  10.478 -0.0277 -0.0416  0.0311
 1431WN      WN11535  10.528   1.185   1.561 -0.0869 -0.3804 -0.0243
 1432WN      WN11536   3.259  15.583  11.026 -0.1015  0.2349  0.0847
 1433WN      WN11537   0.718   6.133   4.088  0.2645  0.1804  0.1560
 1434WN      WN11538   4.844  10.439   1.934  0.2443 -0.3286  0.0015
 1435WN      WN11539   9.757   6.777   2.257  0.1766  0.2352 -0.0952
 1436WN      WN11540  11.348   3.837   1.434  0.1078 -0.5092  0.0266
 1437WN      WN11541  14.085   2.748   9.434  0.0021 -0.1054  0.0167
 1438WN      WN11542   0.742  13.149  12.698  0.4214 -0.1823 -0.1896
 1439WN      WN11543  11.720  13.821  10.924  0.2455  0.2485  0.0661
 1440WN      WN11544   0.374   6.468  13.709  0.2411 -0.2772  0.1190
 1441WN      WN11545  15.661   2.701   3.673  0.1251 -0.1223 -0.3650
 1442WN      WN11546  13.492   3.729   3.813 -0.1092 -0.2848  0.0477
 1443WN      WN11547  12.094   3.973   2.985  0.1114 -0.1105 -0.2919
 1444WN      WN11548  11.900   9.807  10.172  0.5640 -0.1666  0.2604
 1445WN      WN11549  11.061  15.657   1.014  0.1080  0.0996  0.0465
 1446WN      WN11550  10.754  11.292   1.020  0.2249  0.0002  0.2760
 1447WN      WN11551   4.467   1.901   1.341  0.0068  0.1115  0.4308
 1448WN      WN11552   1.924  15.699  11.360 -0.3321  0.0171  0.3483
 1449WN      WN11553  13.909  14.088   9.744 -0.0956  0.0765  0.2350
 1450WN      WN11554   7.416   7.398  10.572 -0.0295  0.1613 -0.0730
 1451WN      WN11555   8.565   0.724   9.060  0.0849  0.4595  0.0946
 1452WN      WN11556   9.954   0.973  10.529 -0.0961 -0.2086  0.1043
 1453WN      WN11557  15.173   2.463   2.416  0.2363  0.2309  0.2223
 1454WN      WN11558   4.586  15.090   1.636 -0.1306  0.0567 -0.3169
 1455WN      WN11559   6.652   9.898   9.765  0.0976 -0.0463  0.1936
 1456WN      WN11560   7.592  15.606   0.025  0.2122 -0.0069  0.0812
 1457WN      WN11561  14.800   9.592   1.223  0.2839 -0.1991  0.2057
 1458WN      WN11562  13.850  14.849   1.583  0.0359  0.1009  0.0108
 1459WN      WN11563   7.601   6.867  12.214  0.3213 -0.0853 -0.1532
 1460WN      WN11564  10.900   9.219   1.200  0.3738  0.2436 -0.0657
 1461WN      WN11565   7.829  15.167   9.909  0.3656  0.0329  0.1298
 1462WN      WN11566   5.117  11.967   9.373  0.1264  0.0600  0.3076
 1463WN      WN11567  14.601  10.999   1.970  0.0078 -0.0630 -0.1548
 1464WN      WN11568   0.644  14.325   9.724  0.1576 -0.0174  0.1147
 1465WN      WN11569   3.901   1.343   8.958 -0.2457  0.4157  0.0967
 1466WN      WN11570   2.346   8.717   2.460 -0.2322  0.2099  0.2897
 1467WN      WN11571   4.740   6.029   3.243 -0.2548 -0.1360  0.0796
 1468WN      WN11572   6.661   3.069   0.201 -0.4067 -0.1386 -0.1173
 1469WN      WN11573   4.846  12.996   4.124 -0.2467 -0.3755 -0.0052
 1470WN      WN11574   7.128  13.774  12.236  0.0577 -0.3641 -0.0283
 1471WN      WN11575   2.045  10.283  13.659  0.0815 -0.1767  0.3953
 1472WN      WN11576   5.023   5.778   1.802 -0.3376 -0.0815 -0.3015
 1473WN      WN11577  15.330   3.472  13.215 -0.0510  0.1139 -0.0287
 1474WN      WN11578  10.776   0.511   1.321  0.0592  0.0247  0.1569
 1475WN      WN11579   9.549   6.153  10.906  0.0937 -0.1101 -0.0795
 1476WN      WN11580  15.186   2.751  11.372  0.0972 -0.3913  0.0901
 1477WN      WN11581   9.013  14.534  10.401 -0.0474 -0.1145 -0.0969
 1478WN      WN11582   6.770  14.894  10.828  0.0969  0.3237 -0.4014
 1479WN      WN11583   2.574  10.399  10.816 -0.1632  0.0128 -0.0783
 1480WN      WN11584  10.410   4.574  13.483  0.1553  0.1651 -0.2240
 1481WN      WN11585   3.653  10.482   2.655  0.1678 -0.0099  0.2623
 1482WN      WN11586  11.131  13.005  11.800 -0.0804 -0.2033  0.1158
 1483WN      WN11587  14.470   1.194  13.429  0.0199 -0.3178 -0.1115
 1484WN      WN11588   0.237   6.003   1.294  0.3762  0.0224  0.0640
 1485WN      WN11589   8.473   0.752   1.584  0.4581 -0.0413 -0.0882
 1486WN      WN11590   6.110   4.140   0.953 -0.0299 -0.0588 -0.4291
 1487WN      WN11591  14.734  11.169   0.476  0.2886 -0.1229 -0.1867
 1488WN      WN11592  10.425   3.159   2.318 -0.2307  0.0743  0.0055
 1489WN      WN11593   5.264   2.523   9.972 -0.3161  0.0749  0.1126
 1490WN      WN11594   6.935   3.081   1.651 -0.2535 -0.1159  0.0436
 1491WN      WN11595  12.835   1.528  10.519 -0.0013  0.1077  0.1141
 1492WN      WN11596   6.966   0.332   9.192 -0.2131  0.0506  0.3860
 1493WN      WN11597   9.146  12.342   9.058  0.0294  0.0579  0.1511
 1494WN      WN11598   1.343   6.133   0.205  0.4682 -0.2628 -0.0924
 1495WN      WN11599  12.213   5.313  11.373  0.0420  0.0583 -0.2294
 1496WN      WN11600  13.426  14.416   9.895 -0.0050 -0.2641  0.1482
 1497WN      WN11601   3.190  15.287   4.311 -0.1720  0.2786  0.0531
 1498WN      WN11602   8.879  11.585   1.289  0.0184 -0.4538  0.2295
 1499WN      WN11603   9.526   3.376  12.855 -0.1916  0.2650 -0.0319
 1500WN      WN11604  10.457   0.069   4.292  0.0815  0.0200  0.1878
 1501WN      WN11605   5.384   8.741  13.398 -0.0466  0.4846  0.2451
 1502WN      WN11606  10.813  14.252   3.290  0.2531  0.2077  0.1014
 1503WN      WN11607  13.623   6.974  13.424  0.2638  0.0126  0.0633
 1504WN      WN11608  15.422  13.469   4.308 -0.0853  0.4300 -0.0287
 1505WN      WN11609  10.174   1.655   2.698 -0.2721 -0.2609 -0.3266
 1506WN      WN11610  14.769   0.032  13.487 -0.0632 -0.0147  0.0470
 1507WN      WN11611   4.203   1.435  13.017 -0.0256  0.1206  0.0487
 1508WN      WN11612  11.434  10.396  11.230  0.0121  0.1749 -0.0926
 1509WN      WN11613   9.109  13.220   9.823  0.0375 -0.1213  0.0368
 1510WN      WN11614  11.371   0.665   2.517  0.2850 -0.2047  0.0265
 1511WN      WN11615   2.082   6.425   0.425 -0.1186 -0.3398 -0.2086
 1512WN      WN11616   1.856   7.927   3.424  0.0074 -0.1751  0.2898
 1513WN      WN11617   9.299   3.580  10.312 -0.0153 -0.3707  0.2327
 1514WN      WN11618   4.822  12.575   9.977  0.0672  0.3161  0.1711
 1515WN      WN11619  13.972   5.706  10.456 -0.1321  0.0624  0.1665
 1516WN      WN11620  14.579   6.175  13.173  0.1876 -0.3768 -0.1254
 1517WN      WN11621   5.577   3.188  11.981  0.2357 -0.1394  0.3028
 1518WN      WN11622   3.205  12.537   0.533 -0.0430 -0.0816  0.1785
 1519WN      WN11623   0.895  13.375   4.058 -0.1478 -0.0200  0.0147
 1520WN      WN11624   7.763   1.615   0.284 -0.5467 -0.2653  0.1449
 1521WN      WN11625   3.371   5.698  10.766 -0.0213  0.0254  0.2426
 1522WN      WN11626   9.968  11.951   0.747 -0.0117 -0.1097  0.1510
 1523WN      WN11627  10.251  10.884   9.277  0.0440 -0.2571  0.1836
 1524WN      WN11628   6.395   1.015   1.573  0.1105 -0.2703  0.0375
 1525WN      WN11629   8.305   9.259   9.085  0.2241  0.0957 -0.0119
 1526WN      WN11630   1.743  11.085  11.020  0.2309  0.2469  0.2906
 1527WN      WN11631   2.661   6.989   9.959 -0.0496  0.1320 -0.1153
 1528WN      WN11632  14.657  10.969   4.147  0.1581 -0.0853 -0.0100
 1529WN      WN11633   6.586  12.131  11.932 -0.1203  0.1508  0.3240
 1530WN      WN11634  14.460  14.502  12.072 -0.0859 -0.1787 -0.2010
 1531WN      WN11635   4.108   5.394   9.850 -0.2615 -0.2309 -0.0247
 1532WN      WN11636  15.570   7.543   2.148  0.0129  0.2115 -0.2466
 1533WN      WN11637   1.996  14.516  13.692 -0.0200  0.2709 -0.0325
 1534WN      WN11638   3.193   7.447   3.265 -0.1676  0.0570  0.0582
 1535WN      WN11639  12.257  13.486  12.771 -0.2696  0.0294 -0.0941
 1536WN      WN11640  11.441  10.495   8.975 -0.1192 -0.1772  0.2231
 1537WN      WN11641   5.383  13.349  12.297 -0.0684 -0.1961  0.0124
 1538WN      WN11642  12.713  15.272   3.039 -0.1835 -0.0179  0.0845
 1539WN      WN11643   9.264   6.949   9.269 -0.0198  0.0616 -0.0212
 1540WN      WN11644   0.125  15.346   4.368 -0.1701 -0.0495  0.2588
 1541WN      WN11645   0.947   0.221   2.058  0.0767 -0.1567  0.0723
 1542WN      WN11646  12.843   2.999  13.754  0.0952 -0.0641  0.2150
 1543WN      WN11647  13.765   9.294   9.830  0.1385 -0.0126  0.2066
 1544WN      WN11648   7.180   0.234   0.775 -0.0147 -0.0295  0.3979
 1545WN      WN11649   3.193   9.308  11.967  0.1597 -0.0225 -0.1808
 1546WN      WN11650   9.159  10.698   0.697 -0.0074 -0.0643 -0.1469
 1547WN      WN11651   8.956  10.928  12.572  0.0168 -0.1694 -0.1931
 1548WN      WN11652   9.770  12.290   4.749  0.0274 -0.1171  0.0292
 1549WN      WN11653   9.562   3.676   0.654  0.0703  0.0416  0.3498
 1550WN      WN11654   2.427   4.607  11.334  0.3197 -0.0205  0.1775
 1551WN      WN11655   2.357   3.025   2.331  0.3112 -0.0765  0.4544
 1552WN      WN11656  11.080   1.165   2.826  0.1266  0.0296  0.2076
 1553WN      WN11657   9.200   5.183  12.689 -0.1044  0.1553  0.0036
 1554WN      WN11658   1.511   0.000  10.549 -0.0517  0.0638 -0.2159
 1555WN      WN11659   0.559  11.859   2.160 -0.3869 -0.0951  0.1160
 1556WN      WN11660   2.029   7.599   9.535 -0.1101  0.0749  0.2749
 1557WN      WN11661   5.488   1.650   3.302  0.0074 -0.0176  0.2022
 1558WN      WN11662  12.836   3.983   1.250  0.0888  0.0941 -0.1421
 1559WN      WN11663  10.723   6.741   2.278  0.0095 -0.1543  0.1222
 1560WN      WN11664   8.339   6.960   3.306  0.2023  0.0231 -0.3083
 1561WN      WN11665   0.779  13.106   4.504 -0.0980  0.2348  0.1738
 1562WN      WN11666   4.142  11.413  10.664 -0.1227  0.0070 -0.1962
 1563WN      WN11667   9.560   6.638  10.958 -0.0595 -0.0626  0.1288
 1564WN      WN11668  14.430   9.951   2.876  0.0657 -0.1756 -0.5026
 1565WN      WN11669   6.653  13.698  12.829  0.1220 -0.3716 -0.0330
 1566WN      WN11670  10.235  10.345   9.825  0.2426  0.1388 -0.2036
 1567WN      WN11671   7.094  13.904  13.128  0.0293  0.2412  0.1472
 1568WN      WN11672  10.969   7.882  12.572  0.0017  0.1973 -0.1078
 1569WN      WN11673   0.137  13.053   4.403 -0.2313  0.2817 -0.0735
 1570WN      WN11674   5.477   8.889   5.287 -0.0111 -0.1218  0.3138
 1571WN      WN11675  13.659  11.387  11.943  0.0087  0.0509  0.1049
 1572WN      WN11676  14.587   4.865  11.717 -0.1684 -0.1761 -0.0756
 1573WN      WN11677   8.365  10.238   3.276 -0.2865  0.1525  0.1208
 1574WN      WN11678   8.094   0.270   9.777 -0.2624 -0.3593  0.0493
 1575WN      WN11679  13.510   2.440   3.368  0.2074  0.3238 -0.1071
 1576WN      WN11680  11.423   2.077  12.139  0.2320 -0.1684  0.0109
 1577WN      WN11681   9.514  10.770  13.472 -0.0879  0.1066  0.1609
 1578WN      WN11682  14.070  11.464   3.879  0.3274 -0.0357  0.0128
 1579WN      WN11683   7.221  10.348   0.108  0.1005 -0.0644 -0.2834
 1580WN      WN11684   0.684   3.915  12.338 -0.3544 -0.0090  0.0520
 1581WN      WN11685   7.095  10.134   9.049  0.0768 -0.1832 -0.0313
 1582WN      WN11686  10.987  13.645  10.209  0.1417 -0.4707  0.1071
 1583WN      WN11687   4.062   6.155   9.220  0.1358 -0.2133  0.2135
 1584WN      WN11688   6.052   5.006   1.196 -0.3363 -0.3690 -0.1129
 1585WN      WN11689   3.302  10.803   2.571  0.0084 -0.0035 -0.0212
 1586WN      WN11690  12.634   5.890   1.244  0.2597  0.1540 -0.1263
 1587WN      WN11691   4.931  12.032   2.567 -0.0515 -0.0493 -0.4221
 1588WN      WN11692   6.864   7.382   4.504  0.1231  0.0273  0.2588
 1589WN      WN11693   4.191  10.502  12.266 -0.0833 -0.1821  0.0187
 1590WN      WN11694   7.026   8.256  11.987  0.2487  0.0393  0.0218
 1591WN      WN11695  13.961   8.379   3.388 -0.1073 -0.0086  0.0018
 1592WN      WN11696   9.584  12.079  12.296  0.1734 -0.1041 -0.1970
 1593WN      WN11697  15.214   2.540   8.590 -0.1525 -0.0730 -0.1102
 1594WN      WN11698  15.704   7.016  10.036 -0.3050 -0.1863  0.3691
 1595WN      WN11699   4.893  11.251   3.789 -0.0199  0.0414  0.0922
 1596WN      WN11700   5.650  10.733   2.656  0.3302 -0.0023  0.0358
 1597WN      WN11701   1.376   4.231   0.996  0.0088  0.2089 -0.0752
 1598WN      WN11702   9.411  10.304   2.144  0.0179 -0.3187  0.0339
 1599WN      WN11703  12.654   7.171   3.197 -0.1438 -0.3618 -0.1714
 1600WN      WN11704  12.036   2.306   1.752  0.0247 -0.1894 -0.2317
 1601WN      WN11705  11.061  13.292   3.105  0.2741  0.2981  0.0959
 1602WN      WN11706   3.050   1.633   1.297 -0.1482 -0.2138 -0.1163
 1603WN      WN11707   5.431   3.506   3.830 -0.0461  0.0537  0.0048
 1604WN      WN11708   5.090   0.009   1.847 -0.4404  0.0313  0.0077
 1605WN      WN11709   0.183   4.751  11.912  0.0608 -0.3160 -0.2348
 1606WN      WN11710   7.455   0.464   2.167 -0.0720 -0.0215 -0.2123
 1607WN      WN11711   5.688   9.816   9.927  0.1483  0.1604 -0.1007
 1608WN      WN11712   0.442  13.573   3.835 -0.1418 -0.1843  0.0706
 1609WN      WN11713   2.729  14.523   4.996  0.1402 -0.2200 -0.0752
 1610WN      WN11714   0.129   2.424  12.979 -0.0851  0.1286 -0.0905
 1611WN      WN11715  13.899   9.176  10.336 -0.2438  0.0490  0.1280
 1612WN      WN11716  11.850  11.085  10.909  0.1723  0.2560  0.0422
 1613WN      WN11717  12.225  11.856  11.711 -0.0439  0.1485 -0.2610
 1614WN      WN11718  13.860   5.014   9.555 -0.0744  0.1337 -0.0799
 1615WN      WN11719  11.927  10.182   9.218 -0.0298  0.0937  0.0925
 1616WN      WN11720  12.175   7.808   0.756  0.1066 -0.3460 -0.1972
 1617WN      WN11721  13.139   8.286   0.469  0.6275  0.3391  0.0008
 1618WN      WN11722   8.377  14.003   2.597  0.0233  0.1745 -0.2499
 1619WN      WN11723  13.890   6.805   3.340 -0.1151  0.1678 -0.0060
 1620WN      WN11724   7.591   5.902   8.918 -0.3347 -0.0651 -0.0432
 1621WN      WN11725  10.500  14.009  11.935 -0.2365  0.1708 -0.0210
 1622WN      WN11726  13.274  11.990   9.231  0.0177 -0.2362 -0.2471
 1623WN      WN11727  14.641  14.629   2.828 -0.1948 -0.0251  0.2775
 1624WN      WN11728   2.252  11.629   3.492 -0.1098  0.1369 -0.0018
 1625WN      WN11729  13.506  13.735   1.447 -0.0136  0.1286 -0.0481
 1626WN      WN11730   2.313  15.243  12.853  0.0749  0.1897  0.1532
 1627WN      WN11731   7.130   8.023  10.337 -0.2411 -0.0099  0.1104
 1628WN      WN11732   2.400  15.147   9.555  0.1072  0.0650 -0.2108
 1629WN      WN11733  14.475   6.659  11.498  0.2553 -0.2447  0.1413
 1630WN      WN11734  13.208   6.880   2.242 -0.1215  0.0593 -0.0397
 1631WN      WN11735  10.511   9.417   2.090  0.0071  0.1595 -0.1751
 1632WN      WN11736  15.503   3.583  10.666  0.1433 -0.2316 -0.0635
 1633WN      WN11737   6.341   8.165  10.050  0.1988  0.0193  0.2080
 1634WN      WN11738   3.556   6.763  11.688  0.0775  0.3637 -0.2257
 1635WN      WN11739  15.398  11.609  12.846  0.0776 -0.1704 -0.1487
 1636WN      WN11740  14.186   2.564   3.712 -0.4148  0.1993  0.1478
 1637WN      WN11741  11.236   8.184   1.865  0.0155  0.4884  0.0049
 1638WN      WN11742   4.773   5.731   0.930  0.2075 -0.1415 -0.1600
 1639WN      WN11743   5.063   4.615  12.475 -0.1862  0.2244  0.0043
 1640WN      WN11744   5.845   4.214  12.440  0.1989  0.3304 -0.1046
 1641WN      WN11745  13.448  15.505   9.809  0.0881  0.0724  0.2951
 1642WN      WN11746   6.641  15.361   9.441 -0.1870 -0.0123 -0.1339
 1643WN      WN11747   2.319   5.334  11.858  0.0369  0.1137 -0.0211
 1644WN      WN11748   3.366   9.402   2.234 -0.1789  0.0106  0.2927
 1645WN      WN11749  12.911   8.999  11.683 -0.1142 -0.1214 -0.2260
 1646WN      WN11750   8.106   2.738  11.204 -0.1491  0.1187  0.2140
 1647WN      WN11751  13.520  12.141   3.450  0.0530  0.2403  0.1234
 1648WN      WN11752   7.503   4.947  11.365 -0.2732  0.0944 -0.0717
 1649WN      WN11753  12.073  10.893  12.423  0.0833  0.3960 -0.3611
 1650WN      WN11754   2.877   7.839   1.613 -0.0688  0.1683  0.2405
 1651WN      WN11755   1.986   6.236  13.085  0.2450 -0.1017 -0.1114
 1652WN      WN11756   8.929   4.690  10.190 -0.1278 -0.1869 -0.1937
 1653WN      WN11757  12.788  14.534  10.772 -0.2176 -0.0210  0.0429
 1654WN      WN11758  11.017  11.766   2.064 -0.0239  0.2395 -0.2301
 1655WN      WN11759  14.544   1.991   2.696 -0.2535  0.1237 -0.0063
 1656WN      WN11760  10.550  10.136   9.310  0.0135  0.0445  0.0503
 1657WN      WN11761  12.949  12.848  11.032 -0.0171  0.1349  0.1518
 1658WN      WN11762  15.206   1.212  10.253 -0.0977 -0.0384  0.1169
 1659WN      WN11763  15.207   3.631   9.082 -0.1702 -0.3355  0.0175
 1660WN      WN11764  10.757  15.473   9.995  0.0303  0.0393  0.0830
 1661WN      WN11765   3.688  15.529   9.717 -0.0232  0.1686 -0.3313
 1662WN      WN11766  11.541   9.166   1.774 -0.1025  0.1388  0.0082
 1663WN      WN11767   3.432   8.826  10.115 -0.0829 -0.0688 -0.0213
 1664WN      WN11768   8.111   8.006  11.953  0.1301  0.1544  0.0885
 1665WN      WN11769  11.737   2.092   8.572  0.0287  0.1439 -0.1626
 1666WN      WN11770   8.087  11.368  10.056 -0.1583  0.1822 -0.2467
 1667WN      WN11771   7.724   0.432   3.095  0.0339  0.2245 -0.1702
 1668WN      WN11772   1.402  12.659   3.227  0.1017 -0.0045 -0.0916
 1669WN      WN11773   4.961   9.020   1.641  0.1567 -0.1002  0.1698
 1670WN      WN11774  15.115   9.191   1.391  0.2648  0.2757 -0.2413
 1671WN      WN11775  13.511  10.034   2.786 -0.0966  0.0409 -0.0328
 1672WN      WN11776   7.920   2.890   2.648  0.1875  0.1169 -0.4051
 1673WN      WN11777   8.280   7.867   2.006  0.2152 -0.2848  0.4048
 1674WN      WN11778   5.454  14.148   3.262 -0.0102  0.1463  0.2057
 1675WN      WN11779   1.704  12.495  10.837  0.1047 -0.1049 -0.1346
 1676WN      WN11780   0.559   3.211   2.170 -0.2426  0.0827 -0.1412
 1677WN      WN11781   4.258  14.704   3.238  0.2239  0.3721 -0.0574
 1678WN      WN11782   7.345  14.308   3.545  0.2163 -0.0310 -0.0198
 1679WN      WN11783   1.461  12.229  11.628 -0.2496  0.1024  0.3562
 1680WN      WN11784   0.088  13.356  11.578  0.0288 -0.1447  0.2285
 1681WN      WN11785  10.960   2.702  10.343  0.0386 -0.1134  0.0786
 1682WN      WN11786   7.259  15.187  13.256  0.1598 -0.3028 -0.0612
 1683WN      WN11787   2.525  13.327   1.490  0.2282  0.1076  0.1650
 1684WN      WN11788   3.111  14.750   4.046 -0.0549 -0.0966  0.2611
 1685WN      WN11789   8.430  10.452   1.682  0.0528  0.2154 -0.1499
 1686WN      WN11790   7.989   0.007   8.653  0.0646  0.0198 -0.0518
 1687WN      WN11791   2.385   6.173  12.173  0.1125  0.1409  0.0003
 1688WN      WN11792  14.028   5.022  10.900 -0.4850  0.1488 -0.0392
 1689WN      WN11793   7.841  14.411   1.422 -0.1834 -0.2880 -0.0740
 1690WN      WN11794  11.855   1.398  10.349  0.1837 -0.2495  0.4241
 1691WN      WN11795   9.707   7.074   0.049  0.0520  0.0096 -0.0556
 1692WN      WN11796   5.987   1.222   1.855 -0.1579 -0.0063  0.2873
 1693WN      WN11797   3.620  14.917   4.347 -0.1008 -0.0085  0.1598
 1694WN      WN11798   3.413  13.971  12.209 -0.0999  0.4075 -0.1566
 1695WN      WN11799   5.320   6.745   1.871  0.0847 -0.1276 -0.0749
 1696WN      WN11800   0.866   2.548   9.848  0.2192 -0.1733  0.3008
 1697WN      WN11801   9.334   3.743   4.000  0.0375 -0.1174  0.2181
 1698WN      WN11802   3.658  15.444   4.306 -0.0645 -0.0558  0.0571
 1699WN      WN11803  13.350   9.331  10.445  0.1272 -0.0135  0.3947
 1700WN      WN11804  15.224   4.664   1.131  0.3677 -0.0391  0.3178
 1701WN      WN11805   4.186   0.927   4.050  0.0393 -0.0211  0.2295
 1702WN      WN11806   2.293  10.449  10.269  0.1642 -0.1256 -0.3544
 1703WN      WN11807   1.485   5.243   4.104  0.0705  0.2871 -0.0487
 1704WN      WN11808  12.926   4.412  12.709  0.0347  0.4162 -0.0081
 1705WN      WN11809   4.332   7.808   3.890 -0.2989 -0.0519  0.0956
 1706WN      WN11810  15.341  14.435   1.007  0.2562  0.1716  0.2700
 1707WN      WN11811  14.506   4.302   9.413  0.1585  0.1361  0.1191
 1708WN      WN11812  15.377   8.678  12.249 -0.0233 -0.1056  0.0738
 1709WN      WN11813  14.930   3.290  12.172  0.0789 -0.3692  0.2696
 1710WN      WN11814   6.605   9.083   3.170 -0.0388 -0.2220  0.3186
 1711WN      WN11815  12.548  10.892  13.710 -0.1934 -0.0049  0.5091
 1712WN      WN11816  10.292   7.941  12.291 -0.1431  0.1208  0.2711
 1713WN      WN11817   5.461  11.694   3.696 -0.0633 -0.0922 -0.1905
 1714WN      WN11818  10.221   0.503  10.605 -0.1407  0.0202  0.1043
 1715WN      WN11819   0.405   3.906   0.694  0.0248  0.2319 -0.0790
 1716WN      WN11820  10.518   4.342   9.528 -0.3579  0.1444  0.1415
 1717WN      WN11821   9.405   0.786  11.796  0.0878  0.1721 -0.1010
 1718WN      WN11822   4.208   8.536  12.369  0.1083 -0.3705  0.2940
 1719WN      WN11823  13.943  13.700  11.079 -0.0475  0.3559 -0.0049
 1720WN      WN11824  14.836   3.755  12.505 -0.0766  0.1031 -0.1485
 1721WN      WN11825   7.239   0.736  12.748  0.2007 -0.0486 -0.1898
 1722WN      WN11826   5.153  14.219  11.942  0.3494  0.0306 -0.0975
 1723WN      WN11827   3.006   5.299   4.426  0.0621 -0.2279  0.0171
 1724WN      WN11828  10.956   9.249  13.722  0.0547  0.2366  0.3262
 1725WN      WN11829  11.657  15.489   1.672 -0.0230 -0.1003  0.0082
 1726WN      WN11830  15.700   8.377   1.590 -0.1064  0.0939  0.1337
 1727WN      WN11831   0.872  13.891   0.356 -0.0037 -0.2588 -0.1196
 1728WN      WN11832   6.164   8.999   0.001 -0.0599 -0.1012 -0.2432
 1729WN      WN11833   7.554  11.346   2.178  0.4351 -0.0364 -0.0104
 1730WN      WN11834  11.772   1.953  12.502  0.0897 -0.0005 -0.0935
 1731WN      WN11835   2.138  12.107   3.728 -0.0297  0.0775 -0.0635
 1732WN      WN11836  11.635   0.311   2.872 -0.3105 -0.0406 -0.0165
 1733WN      WN11837  11.530   3.856   1.937 -0.1499 -0.1680 -0.0823
 1734WN      WN11838   7.137   7.624  10.025 -0.2289 -0.0844  0.0910
 1735WN      WN11839   1.029   6.214   2.390 -0.1129 -0.2324 -0.2710
 1736WN      WN11840   5.763   5.523   2.616 -0.0279  0.0842  0.1538
 1737WN      WN11841  14.952   1.768   1.233 -0.4964 -0.0918 -0.2719
 1738WN      WN11842   8.429   7.902  10.132  0.0620  0.3184  0.0898
 1739WN      WN11843   3.415   8.764   0.981  0.0691  0.0238  0.1445
 1740WN      WN11844  15.083  14.545  10.252 -0.0171 -0.0074  0.0743
 1741WN      WN11845   8.847  12.613  12.438  0.2448 -0.1250 -0.0263
 1742WN      WN11846   9.694   9.634   3.081 -0.1421 -0.0389 -0.2422
 1743WN      WN11847   1.267   5.026   0.305 -0.0984  0.0936  0.2028
 1744WN      WN11848  11.625   3.525  13.331  0.0610  0.0675  0.1737
 1745WN      WN11849   7.528  11.265   1.287  0.1821 -0.1435  0.2287
 1746WN      WN11850   2.981   8.200   0.797  0.4756  0.0242  0.2467
 1747WN      WN11851   8.459   0.636   8.554  0.1711 -0.2182 -0.1872
 1748WN      WN11852   9.515   4.419   1.923 -0.0336  0.0976 -0.0428
 1749WN      WN11853   9.910   8.819   2.157  0.1631 -0.1544  0.1659
 1750WN      WN11854   1.741   7.182   0.053 -0.1935 -0.0956  0.1260
 1751WN      WN11855  12.030   6.962  13.568  0.0587  0.0910  0.1897
 1752WN      WN11856   5.152   9.556  10.779  0.0233  0.3278  0.2257
 1753WN      WN11857   1.897   5.854   0.117 -0.0782  0.3580 -0.0537
 1754WN      WN11858   7.754   4.914  10.940  0.0085  0.1414  0.2240
 1755WN      WN11859  11.091  10.943   0.193 -0.0445  0.0173 -0.2358
 1756WN      WN11860  10.403  11.381  12.786 -0.1880 -0.0516 -0.2425
 1757WN      WN11861  13.865   5.366  12.232 -0.0057 -0.3914  0.4957
 1758WN      WN11862   9.041   4.213   3.909  0.1184  0.0462 -0.1358
 1759WN      WN11863   1.236   1.067   0.418  0.0145  0.3131 -0.1030
 1760WN      WN11864   8.672  12.975   3.361  0.1380  0.2879  0.2621
 1761WN      WN11865   2.968   7.622   1.108  0.0456  0.0767  0.1296
 1762WN      WN11866  11.998   6.149   9.050  0.0929 -0.0829 -0.2018
 1763WN      WN11867   0.592   7.999  10.900  0.4243  0.1127 -0.1422
 1764WN      WN11868   9.753  10.038  12.745 -0.1137  0.2083 -0.1110
 1765WN      WN11869  11.796  13.892   2.511  0.4154  0.1617  0.3516
 1766WN      WN11870  12.894   2.886  11.133  0.2542 -0.2957 -0.0070
 1767WN      WN11871   7.042   3.532   1.678 -0.3795 -0.0366  0.0907
 1768WN      WN11872   3.743   4.287   1.175  0.3128  0.5449 -0.0223
 1769WN      WN11873   0.115  11.546  11.091  0.0785  0.3455  0.3655
 1770WN      WN11874   2.578   7.486  12.113  0.2274  0.1768 -0.1180
 1771WN      WN11875   4.513  12.576  10.865 -0.2831  0.1624 -0.0307
 1772WN      WN11876  12.903  14.663  12.164 -0.1954  0.1856 -0.0841
 1773WN      WN11877   8.495   1.501  11.876  0.0224 -0.3249  0.1738
 1774WN      WN11878   6.527   9.896   3.731 -0.0797  0.0931  0.2993
 1775WN      WN11879  12.423  11.656   1.440 -0.0096  0.0050 -0.1077
 1776WN      WN11880  15.193  14.424  12.356 -0.1443  0.1235 -0.2104
 1777WN      WN11881  12.642  12.309  13.287  0.1749  0.1742 -0.0947
 1778WN      WN11882   9.062  11.958   2.687 -0.2412  0.3867 -0.0050
 1779WN      WN11883   6.235   9.289   2.093  0.2165 -0.1549 -0.2139
 1780WN      WN11884   6.314   2.816   9.015 -0.0269 -0.0846  0.2501
 1781WN      WN11885   9.956   7.355  10.510  0.1350 -0.1901  0.0820
 1782WN      WN11886   8.132   4.262   0.065  0.0266  0.4636  0.3658
 1783WN      WN11887   1.630   3.389  11.697  0.2225  0.0524  0.2188
 1784WN      WN11888   7.494  12.509   4.918  0.2534  0.0931 -0.1611
 1785WN      WN11889   2.582   6.493   2.874 -0.2436  0.0335  0.0529
 1786WN      WN11890   6.722   5.676  10.515 -0.0370 -0.2921 -0.2084
 1787WN      WN11891   1.583  12.041  13.567  0.1882  0.1786  0.1223
 1788WN      WN11892  13.220  11.791   2.318  0.0014 -0.2975  0.2397
 1789WN      WN11893   3.751  14.529  10.005 -0.0468 -0.0977 -0.0910
 1790WN      WN11894  13.271  11.326   0.577  0.1955  0.2339  0.2252
 1791WN      WN11895   6.577   2.133   0.976 -0.0972  0.0977 -0.2499
 1792WN      WN11896   5.172   2.905  12.915  0.1344 -0.3102 -0.0275
 1793WN      WN11897  14.965   6.087   0.844  0.0101  0.0960  0.0028
 1794WN      WN11898  15.391   9.795  10.700 -0.1128 -0.0310 -0.0495
 1795WN      WN11899   6.095  15.410  10.244  0.1220 -0.2059  0.0380
 1796WN      WN11900  14.503   0.415   1.768  0.0379 -0.1058 -0.2642
 1797WN      WN11901   2.039  13.593  12.802 -0.0350 -0.0590 -0.0481
 1798WN      WN11902   8.065  10.066  10.239  0.1117 -0.0127 -0.0410
 1799WN      WN11903   9.164   6.827  11.237  0.0899 -0.0692  0.2201
 1800WN      WN11904   8.867  12.023  10.569 -0.0966 -0.0900 -0.0742
 1801WN      WN11905  12.166   5.520  13.097 -0.1848  0.3383 -0.0623
 1802WN      WN11906   6.601  11.780   2.553 -0.0024 -0.2588  0.3268
 1803WN      WN11907   5.507   5.970   1.552 -0.1727 -0.0368 -0.0963
 1804WN      WN11908   6.252   8.504  13.162 -0.0691 -0.0042 -0.1250
 1805WN      WN11909  15.471   8.933   1.705  0.1255  0.0117 -0.1378
 1806WN      WN11910   6.529   8.386   3.564 -0.1321 -0.2339  0.1543
 1807WN      WN11911  10.406   4.776   2.092  0.1144 -0.0079 -0.2546
 1808WN      WN11912   6.852   2.316  13.675 -0.1588 -0.0505 -0.0721
 1809WN      WN11913  14.805   2.879  12.380  0.3356 -0.0173 -0.1366
 1810WN      WN11914   5.442   8.333  11.095 -0.3719 -0.1044 -0.2259
 1811WN      WN11915  11.147   1.779   1.886 -0.0916  0.0424 -0.0303
 1812WN      WN11916   0.522  14.674  12.817  0.1075  0.0698 -0.2379
 1813WN      WN11917  15.457  12.189  11.370  0.3403  0.2870  0.0631
 1814WN      WN11918   5.813  14.052   4.336  0.1206  0.1752 -0.2795
 1815WN      WN11919   9.058   4.525   0.337 -0.0091  0.2254 -0.1985
 1816WN      WN11920  11.281   6.402   1.533  0.3032  0.3197 -0.0125
 1817WN      WN11921   0.055   5.091   3.183 -0.1369 -0.0680  0.0276
 1818WN      WN11922   1.957  10.370   9.331  0.3233  0.1845 -0.0158
 1819WN      WN11923  13.726  14.181   3.814  0.1607  0.1974  0.0538
 1820WN      WN11924   3.720  10.660   3.734 -0.1326  0.1343  0.2963
 1821WN      WN11925   4.753   0.317   4.494 -0.1375  0.1205 -0.2870
 1822WN      WN11926   5.531   4.677   9.530  0.1258  0.0633  0.0873
 1823WN      WN11927  15.519   2.763  11.743 -0.2279 -0.3503  0.0503
 1824WN      WN11928   8.169   4.574   8.801 -0.0172  0.1066  0.3316
 1825WN      WN11929  12.525   0.793   1.405  0.2274 -0.0054 -0.3702
 1826WN      WN11930  10.614   4.635  12.759  0.1032 -0.0217  0.0603
 1827WN      WN11931   0.341  10.512   0.206 -0.0120 -0.4426 -0.3026
 1828WN      WN11932   8.512   6.476  12.449 -0.1523 -0.1408  0.0901
 1829WN      WN11933   0.334   3.164   4.112 -0.0025 -0.2876  0.2288
 1830WN      WN11934  11.639   6.573  12.881 -0.1381 -0.1683  0.0015
 1831WN      WN11935   4.127  15.643   3.044 -0.0712 -0.1064 -0.2183
 1832WN      WN11936  15.559  11.150  12.120 -0.2588  0.1119  0.0548
 1833WN      WN11937   8.374   4.448   0.466  0.0121 -0.0005  0.0214
 1834WN      WN11938  14.463   8.438   9.620  0.0330  0.2047  0.1481
 1835WN      WN11939   6.916   6.319   4.126 -0.1346  0.0602 -0.1565
 1836WN      WN11940   1.232  14.569  13.322  0.0965  0.3117  0.2226
 1837WN      WN11941   2.226   2.976   3.190  0.0109 -0.2436 -0.1610
 1838WN      WN11942   2.478   2.480  13.175  0.2108  0.0898 -0.3313
 1839WN      WN11943   2.526   1.442   4.648  0.1494  0.2446 -0.0557
 1840WN      WN11944   1.067   1.488   4.191  0.1504 -0.1167 -0.3527
 1841WN      WN11945   7.031   8.136   1.629  0.3528  0.0783  0.0950
 1842WN      WN11946  15.410   8.405  11.843  0.1399  0.2122  0.1536
 1843WN      WN11947   4.259  12.223  10.043 -0.1039 -0.4394 -0.0528
 1844WN      WN11948  11.359   0.231  12.208 -0.0959  0.1048 -0.0342
 1845WN      WN11949   0.378   7.732   0.445  0.0461  0.3136  0.0848
 1846WN      WN11950  10.358  15.126  13.743 -0.0150  0.0031  0.1150
 1847WN      WN11951  15.569   7.189   0.826  0.0267  0.1713  0.0686
 1848WN      WN11952   3.756   1.926  13.649  0.1997 -0.2075 -0.1583
 1849WN      WN11953   2.815   6.432  10.904 -0.1897  0.1868  0.1765
 1850WN      WN11954  12.993  10.222   3.707 -0.1201  0.4393  0.0640
 1851WN      WN11955   0.299   0.729   4.057 -0.1200  0.2522  0.2036
 1852WN      WN11956   7.770   2.651  12.195  0.2944  0.0945 -0.1768
 1853WN      WN11957   6.004  11.802   0.014 -0.0914 -0.0487 -0.3196
 1854WN      WN11958   0.462   4.752  10.453 -0.2515 -0.0633 -0.0772
 1855WN      WN11959   8.072  15.220   4.025 -0.1538 -0.0871  0.1933
 1856WN      WN11960   4.545   6.538  11.277 -0.0103  0.2979 -0.1403
 1857WN      WN11961   7.774  12.683  13.315  0.1688  0.1203 -0.1370
 1858WN      WN11962   1.111   7.821   8.875  0.0198  0.1775  0.0013
 1859WN      WN11963   4.958  12.731   3.346  0.0660  0.0303  0.1103
 1860WN      WN11964  12.544   6.586  13.171 -0.0572  0.0770  0.0520
 1861WN      WN11965   5.402  10.605  13.359 -0.1049 -0.1974  0.0976
 1862WN      WN11966   5.158   6.115  12.500 -0.0942  0.1652 -0.1471
 1863WN      WN11967   4.046  12.930  11.508  0.0645 -0.4501 -0.2099
 1864WN      WN11968   0.358  13.584  11.939 -0.1284  0.1568  0.2929
 1865WN      WN11969   9.960  13.277   9.375 -0.0179  0.2607 -0.1492
 1866WN      WN11970   6.217   0.854   0.913  0.1087 -0.0721 -0.1124
 1867WN      WN11971   9.191   6.520   3.539 -0.3649 -0.1051 -0.4219
 1868WN      WN11972   9.309   7.762  11.756  0.1599  0.0089  0.0542
 1869WN      WN11973   6.188  11.970   2.819 -0.1882 -0.1587  0.0496
 1870WN      WN11974   9.431  10.661  12.621  0.1286 -0.1813 -0.1110
 1871WN      WN11975   0.934  10.755  13.581  0.5754 -0.1958  0.0157
 1872WN      WN11976   8.248   0.614   0.158  0.0573  0.1911  0.0988
 1873WN      WN11977   3.873   5.987  10.870 -0.2192  0.2225 -0.0088
 1874WN      WN11978   7.732  13.042  12.257 -0.0859 -0.2668 -0.0999
 1875WN      WN11979  12.525  14.441  12.485  0.1131  0.0097  0.1327
 1876WN      WN11980   7.585   8.289  11.837  0.1481  0.3242 -0.1029
 1877WN      WN11981  14.882   5.526  10.600 -0.1711 -0.0288 -0.0588
 1878WN      WN11982  14.184  12.428   0.594 -0.0748  0.3000 -0.1939
 1879WN      WN11983   6.710   9.632   0.087 -0.0694  0.0366 -0.0506
 1880WN      WN11984   3.533   5.625  10.326  0.2307  0.3823 -0.0386
 1881WN      WN11985   8.602  10.721   2.581 -0.1270 -0.0157 -0.0033
 1882WN      WN11986  11.668   4.248   9.428 -0.1243  0.1096 -0.2433
 1883WN      WN11987   0.634   8.609   3.293 -0.1770 -0.0767  0.0569
 1884WN      WN11988   7.137  13.106   9.926 -0.0852 -0.1814  0.0616
 1885WN      WN11989  12.095  13.701  10.361  0.0671 -0.3019 -0.3199
 1886WN      WN11990   1.848   5.150  10.772  0.3011 -0.1644  0.0286
 1887WN      WN11991  12.560   3.810   3.024  0.4166 -0.3058 -0.1312
 1888WN      WN11992   5.210   2.258   0.768  0.0748 -0.1278  0.3650
 1889WN      WN11993  15.038   4.954  12.210 -0.2313 -0.1785  0.1186
 1890WN      WN11994   1.036   0.460  12.816 -0.2510  0.1176 -0.1543
 1891WN      WN11995   3.329   7.485   4.083  0.3277 -0.2902 -0.0959
 1892WN      WN11996  15.053   1.150  12.088 -0.1206  0.0424 -0.0551
 1893WN      WN11997  13.769   3.469   8.650 -0.2314 -0.3379 -0.1388
 1894WN      WN11998   9.425   9.956   0.720 -0.1891  0.0173 -0.1527
 1895WN      WN11999  13.948   7.721  11.679  0.1810 -0.1443  0.0699
 1896WN      WN12000  15.704   4.941  11.480 -0.1342  0.0294 -0.0437
 1897WN      WN12001   5.253  12.777   2.026 -0.1610  0.0754 -0.2939
 1898WN      WN12002  14.467   2.803  10.509 -0.0190 -0.1642 -0.2375
 1899WN      WN12003   9.854   2.279   3.572 -0.0980  0.0699  0.2444
 1900WN      WN12004  14.770   4.700   0.660 -0.1736  0.0573 -0.0234
 1901WN      WN12005  15.269  12.381  10.036 -0.0110 -0.1258 -0.3640
 1902WN      WN12006   2.047   2.759  13.150  0.2193 -0.1375 -0.0926
 1903WN      WN12007   4.811  13.938   4.059 -0.2918  0.1229 -0.0044
 1904WN      WN12008  10.593   5.521  11.226  0.0693 -0.2055  0.0231
 1905WN      WN12009   4.377   4.030  10.624  0.0826  0.1533  0.0379
 1906WN      WN12010   2.463   6.129   0.644 -0.3063  0.2652 -0.0321
 1907WN      WN12011   3.973  15.282   0.831  0.0081  0.1287  0.3188
 1908WN      WN12012   2.468   1.975   0.627 -0.4036 -0.2252 -0.1921
 1909WN      WN12013   1.486   5.781  13.615 -0.0923 -0.1072  0.0406
 1910WN      WN12014   5.654  11.405   1.677 -0.0996 -0.0223 -0.0265
 1911WN      WN12015   4.571   0.266   1.651 -0.0257 -0.0098  0.0549
 1912WN      WN12016  11.272  11.151   9.592 -0.0495 -0.0788 -0.3284
 1913WN      WN12017   1.291   2.858   1.060 -0.1814 -0.0673 -0.1041
 1914WN      WN12018   8.198   1.104  10.345 -0.1077 -0.0191 -0.0093
 1915WN      WN12019  11.438  10.501   3.384 -0.1970 -0.0228 -0.2421
 1916WN      WN12020  15.581   3.971   4.048  0.0909  0.3136  0.0146
 1917WN      WN12021   6.075   9.606  11.475  0.1256 -0.3035 -0.1577
 1918WN      WN12022   8.904   8.261   9.487 -0.0860 -0.0811 -0.1415
 1919WN      WN12023   2.716   9.972   2.880  0.0771 -0.1803 -0.0328
 1920WN      WN12024   1.791   3.193   1.628 -0.4705  0.1632 -0.1543
 1921WN      WN12025  15.096  13.893  12.511 -0.2657  0.1218 -0.1407
 1922WN      WN12026   1.070   7.757   3.275  0.3483  0.1503  0.0131
 1923WN      WN12027  12.574   0.139   0.178 -0.0519  0.2418 -0.3577
 1924WN      WN12028  11.135   9.303   9.438 -0.0866  0.2309 -0.0412
 1925WN      WN12029   0.826   8.433  13.750  0.0351 -0.0769 -0.0961
 1926WN      WN12030   9.012  14.678  12.610  0.2037 -0.0411 -0.1946
 1927WN      WN12031   8.275  13.528   3.313  0.1991  0.0067  0.1617
 1928WN      WN12032  15.380   5.855   8.699 -0.2381  0.0240 -0.0467
 1929WN      WN12033   8.315  10.559   2.174 -0.1547 -0.0331  0.0742
 1930WN      WN12034   6.034  12.703  11.324  0.1584  0.2363 -0.0402
 1931WN      WN12035   4.942   1.152   3.076  0.0755 -0.2408 -0.2836
 1932WN      WN12036   5.279  10.634  12.228 -0.3216  0.0098  0.0804
 1933WN      WN12037   3.744  10.461   0.828  0.0868  0.5581  0.0910
 1934WN      WN12038   5.068  10.412  12.587 -0.1790 -0.1397  0.1455
 1935WN      WN12039   6.085   8.365   2.196  0.2998 -0.2590  0.2887
 1936WN      WN12040  15.219   2.580   0.847 -0.0808 -0.2684  0.1434
 1937WN      WN12041   0.752  10.479  10.318  0.0019  0.1440  0.0075
 1938WN      WN12042  13.619   1.580  11.072  0.2103  0.0584  0.1546
 1939WN      WN12043   4.763   0.249  10.719  0.1765  0.0856 -0.1777
 1940WN      WN12044   5.034  10.796   0.676 -0.0985 -0.0223 -0.0366
 1941WN      WN12045  13.879  10.036   0.908 -0.2550  0.0797 -0.0586
 1942WN      WN12046  13.350   7.595   3.928 -0.1097 -0.0907  0.0362
 1943WN      WN12047   0.220  14.436  11.201  0.1703  0.3377  0.1663
 1944WN      WN12048  10.565   2.239   9.486 -0.1251  0.2834 -0.2270
 1945WN      WN12049   5.967   0.270   3.661 -0.0970  0.0873 -0.2971
 1946WN      WN12050   7.567  11.621   3.192 -0.1645  0.0423 -0.2802
 1947WN      WN12051   9.471   7.909   1.462 -0.0274 -0.3043 -0.1506
 1948WN      WN12052  11.643   8.654   2.923  0.2406 -0.0741 -0.3107
 1949WN      WN12053  11.649   4.676   2.386 -0.1568 -0.2211 -0.0771
 1950WN      WN12054   2.125   6.439  13.546 -0.0411  0.0827 -0.1326
 1951WN      WN12055  14.049   9.141  10.811 -0.5377  0.3882 -0.1548
 1952WN      WN12056   7.680  10.602   0.435 -0.0453  0.1480 -0.0035
 1953WN      WN12057   7.778   0.501  13.730  0.1068 -0.1549  0.1134
 1954WN      WN12058   3.181   1.679   1.798 -0.0929 -0.1711  0.1430
 1955WN      WN12059  13.563   5.536  10.824 -0.0715  0.2713 -0.1518
 1956WN      WN12060  15.121   1.325   1.905  0.0307 -0.0453  0.0461
 1957WN      WN12061   8.885   7.961   9.852 -0.1016 -0.1118 -0.3584
 1958WN      WN12062   7.714   4.597   9.119 -0.0636 -0.0228 -0.0766
 1959WN      WN12063   4.450   9.806  10.497 -0.3498  0.0297 -0.0928
 1960WN      WN12064   4.098   2.255   1.258 -0.2306  0.1070  0.0006
 1961WN      WN12065   3.081  14.989  10.293 -0.3457 -0.2084  0.0773
 1962WN      WN12066   6.021   1.781  11.970 -0.2302 -0.1843 -0.1111
 1963WN      WN12067  11.961  14.771   2.793  0.1668  0.1768 -0.0127
 1964WN      WN12068   2.324  14.321   2.397 -0.2508  0.0627 -0.3817
 1965WN      WN12069   4.445  12.044   0.309 -0.0747  0.0455  0.3026
 1966WN      WN12070   7.936  12.393  12.938  0.2793 -0.2276 -0.0276
 1967WN      WN12071   5.821   3.611   2.446  0.1865  0.0286  0.0038
 1968WN      WN12072   6.852  14.598  11.271  0.1502  0.0844 -0.0065
 1969WN      WN12073   0.817   0.846  11.675 -0.0259 -0.1972  0.2898
 1970WN      WN12074   8.971   9.095  12.246  0.3016  0.1796 -0.0022
 1971WN      WN12075  14.740  14.918   3.750 -0.2302  0.0490  0.2346
 1972WN      WN12076  10.466   7.367  10.527  0.1394 -0.0142  0.1866
 1973WN      WN12077   3.949   5.685   9.425 -0.2994 -0.0764  0.1285
 1974WN      WN12078  14.676  14.643  11.627 -0.0236  0.0486 -0.0984
 1975WN      WN12079   1.568  10.201  12.038 -0.5473  0.3331  0.0012
 1976WN      WN12080   6.116   0.920  12.193 -0.1261 -0.2012  0.3572
 1977WN      WN12081   7.918  12.283   9.324  0.5894 -0.2719 -0.0686
 1978WN      WN12082   9.530  10.235   1.656 -0.0884  0.1967 -0.1081
 1979WN      WN12083  13.580   9.807   9.314  0.2314  0.0226  0.2356
 1980WN      WN12084  11.289   3.212  11.237 -0.1551  0.2310 -0.0208
 1981WN      WN12085  12.025   0.145   3.972  0.0272  0.1581  0.1912
 1982WN      WN12086   0.386   6.236   1.697 -0.3648  0.0627  0.0557
 1983WN      WN12087  11.416  14.872   3.465 -0.1445  0.1373  0.0329
 1984WN      WN12088   5.833  14.416   3.987  0.3489 -0.1693  0.0469
 1985WN      WN12089  11.578   3.542   8.922  0.0569  0.0907 -0.2402
 1986WN      WN12090   2.980   5.012  12.667 -0.0705 -0.0510  0.1138
 1987WN      WN12091  14.413  14.397   4.737  0.3024 -0.0822  0.1994
 1988WN      WN12092   1.051   4.211   2.803  0.0521  0.1688  0.0497
 1989WN      WN12093   3.076   7.945   3.283  0.2323 -0.1018 -0.0197
 1990WN      WN12094   8.627   6.411   0.382 -0.0944  0.1518  0.1185
 1991WN      WN12095   6.555  10.315  11.394 -0.0251  0.0093 -0.0001
 1992WN      WN12096   2.763  11.199  12.985 -0.3412  0.1164 -0.1783
 1993WN      WN12097  12.669   4.390   0.881 -0.2094 -0.1956  0.0466
 1994WN      WN12098  15.588   6.287   8.547 -0.0685  0.2266  0.2363
 1995WN      WN12099   1.417  10.165   1.064  0.2386  0.0576 -0.0145
 1996WN      WN12100  11.988   7.659  11.292  0.1876 -0.0171 -0.0316
 1997WN      WN12101  10.160   3.967   3.215  0.1139  0.0755  0.1736
 1998WN      WN12102   6.073  11.019   1.173 -0.0868  0.0303  0.1529
 1999WN      WN12103  15.381  13.938   2.519  0.2574 -0.2721  0.2640
 2000WN      WN12104  12.602  10.350  10.845 -0.0935 -0.1705  0.3073
 2001WN      WN12105  11.460  10.320   0.659 -0.0338 -0.0328 -0.0431
 2002WN      WN12106   6.789   2.821  10.950  0.0710 -0.3201  0.4415
 2003WN      WN12107   4.099   7.313   9.867  0.1439 -0.0810 -0.2005
 2004WN      WN12108  13.053   2.437   1.882  0.4845  0.2076  0.2236
 2005WN      WN12109   3.424   9.538   2.779  0.0747  0.3548 -0.1928
 2006WN      WN12110   8.439   4.758  10.198  0.1194  0.1544  0.2738
 2007WN      WN12111   9.139  14.587  12.167  0.1289  0.3061  0.1604
 2008WN      WN12112   1.740  12.054   2.015  0.0279 -0.0443  0.1199
 2009WN      WN12113   9.366  13.522   2.357 -0.0591 -0.1376  0.0990
 2010WN      WN12114   6.226  13.244   1.088  0.2785 -0.2297  0.1938
 2011WN      WN12115   9.476   4.652   2.587  0.0824 -0.0680  0.1075
 2012WN      WN12116   0.658   0.847  11.175  0.5499  0.1348  0.2088
 2013WN      WN12117   3.366   7.034   0.137  0.2816  0.2519  0.2872
 2014WN      WN12118   8.993   5.621  12.474 -0.2950 -0.2505 -0.1220
 2015WN      WN12119   4.878   2.264   1.291  0.2814  0.0965  0.0780
 2016WN      WN12120  13.313  15.425   4.177  0.0440 -0.1213 -0.0682
 2017WN      WN12121   0.156   2.581   2.856  0.1198 -0.3331 -0.0572
 2018WN      WN12122   0.500  12.569   1.831  0.0387 -0.0304  0.0514
 2019WN      WN12123   0.424  13.263   0.950 -0.0707 -0.2702 -0.2163
 2020WN      WN12124   3.561   6.050  13.210  0.0286 -0.2540 -0.2449
 2021WN      WN12125   1.669  11.107  10.307 -0.2125  0.0380  0.1045
 2022WN      WN12126   9.954   7.342   9.889  0.1938 -0.2757  0.2808
 2023WN      WN12127   7.305  15.656   9.287  0.2549  0.0534 -0.2003
 2024WN      WN12128  10.270   4.519   4.513  0.0503  0.0753  0.1303
 2025WN      WN12129   9.848   1.597   3.468 -0.1860  0.2561 -0.0695
 2026WN      WN12130   1.213  14.764   1.855  0.1259  0.1586 -0.0774
 2027WN      WN12131   7.336  13.971  11.415  0.2421 -0.0203 -0.0558
 2028WN      WN12132  15.252   6.916   9.811  0.1307 -0.3657  0.0691
 2029WN      WN12133   4.850   3.042   9.082 -0.3153 -0.0655  0.0468
 2030WN      WN12134   3.487   5.067  12.299  0.0491 -0.2242 -0.1566
 2031WN      WN12135  10.188   2.085  11.996 -0.0236 -0.2063 -0.2751
 2032WN      WN12136   8.270   6.777  11.626 -0.0174 -0.0970 -0.0189
 2033WN      WN12137  14.339   2.981  11.524  0.1112 -0.0704  0.2760
 2034WN      WN12138   6.432   8.857   0.597  0.1421 -0.0692 -0.2566
 2035WN      WN12139   9.913   3.361   0.445  0.0750 -0.3330  0.0501
 2036WN      WN12140  10.975   7.464   9.658 -0.0317 -0.1867 -0.0038
 2037WN      WN12141   3.318   6.307   3.344 -0.0323  0.1771  0.1631
 2038WN      WN12142   7.618  11.665   2.567 -0.1295 -0.2363  0.1929
 2039WN      WN12143   6.453   4.459  10.033 -0.0822  0.2753 -0.0016
 2040WN      WN12144   2.160  15.167   0.403 -0.0287  0.1471  0.2921
 2041WN      WN12145   1.417   0.385   0.324 -0.2144 -0.2523 -0.0508
 2042WN      WN12146   2.930  14.586   0.058  0.2852 -0.3847 -0.0620
 2043WN      WN12147   2.161   0.237   2.588  0.1461 -0.0795 -0.2292
 2044WN      WN12148  14.733  15.189   9.699 -0.0811 -0.0719 -0.2260
 2045WN      WN12149   6.806   4.241   0.457  0.2575 -0.0683  0.1024
 2046WN      WN12150  11.156   5.847  13.214 -0.3453 -0.1626 -0.0644
 2047WN      WN12151   8.805  13.480   2.369 -0.1129 -0.0263  0.0332
 2048WN      WN12152   6.254   6.717  10.620 -0.0895  0.1898 -0.1084
 2049WN      WN12153  13.550   4.955  12.460  0.0815 -0.2939  0.1521
 2050WN      WN12154   0.661   2.062   9.577  0.2578 -0.2323 -0.2443
 2051WN      WN12155   9.362  14.283   9.995  0.2734 -0.0661  0.1595
 2052WN      WN12156  12.293   4.248   9.596 -0.0784 -0.3539 -0.2924
 2053WN      WN12157   4.766  10.574  12.153 -0.0843 -0.0197  0.0420
 2054WN      WN12158   2.087  14.768  11.430 -0.0387 -0.0110 -0.3666
 2055WN      WN12159   5.784  13.140   3.248  0.1367  0.2042  0.4142
 2056WN      WN12160   3.711   1.875   3.408  0.0156 -0.1416  0.3695
 2057WN      WN12161  14.284   9.589  10.471  0.1683  0.0398 -0.3538
 2058WN      WN12162   2.195   2.966   0.442  0.1487 -0.0629  0.3707
 2059WN      WN12163  15.409   2.309   3.427  0.0620 -0.0745 -0.0880
 2060WN      WN12164   4.766   4.943   3.792  0.0262 -0.2627  0.3026
 2061WN      WN12165  10.019   0.415  12.340 -0.1806 -0.0613 -0.4282
 2062WN      WN12166  10.175   6.018   0.109  0.1303  0.0708  0.2710
 2063WN      WN12167   2.541   2.566   2.315 -0.0274  0.0228 -0.1765
 2064WN      WN12168   2.236  12.417  11.910  0.0268 -0.0244  0.2333
 2065WN      WN12169   4.387  13.258  10.602 -0.0900  0.3785 -0.1147
 2066WN      WN12170   6.961  14.796  11.995 -0.1045 -0.1001  0.0638
 2067WN      WN12171   8.298   2.042  10.273 -0.3305  0.3263 -0.1293
 2068WN      WN12172  14.815   8.751   2.176 -0.1197  0.1637  0.1062
 2069WN      WN12173   9.546   8.680   3.927 -0.0293  0.2389  0.0263
 2070WN      WN12174   2.441   3.049  13.287 -0.1680 -0.1280  0.0874
 2071WN      WN12175   7.105   5.078   9.301 -0.2122  0.0652  0.2303
 2072WN      WN12176   1.350  15.679  10.082  0.0064 -0.0744  0.3184
 2073WN      WN12177   8.227   8.219   8.802 -0.0158 -0.1677 -0.1908
 2074WN      WN12178   4.380  11.976   2.672 -0.2367 -0.1248  0.4524
 2075WN      WN12179  13.939   4.325   1.683 -0.1043  0.0276  0.0136
 2076WN      WN12180   7.330   2.203  12.268 -0.1072 -0.2837  0.2357
 2077WN      WN12181   5.617   4.254   9.980  0.0369  0.0081  0.3383
 2078WN      WN12182  13.870   3.200   9.147  0.0422 -0.1881  0.0672
 2079WN      WN12183   9.509   9.071   0.882  0.0706  0.1481  0.4496
 2080WN      WN12184   0.569   1.688   4.264 -0.1148  0.1574  0.0931
 2081WN      WN12185   1.734  12.823   4.571 -0.0777 -0.0547 -0.4504
 2082WN      WN12186   8.020  10.213   9.329 -0.1325  0.0241 -0.1084
 2083WN      WN12187   2.054  11.673  13.578  0.3314  0.1068 -0.0029
 2084WN      WN12188  14.094   6.137   0.273  0.0648 -0.2051 -0.0020
 2085WN      WN12189   8.186   4.322   9.839 -0.1972 -0.1363 -0.1637
 2086WN      WN12190   0.759   0.098   1.517  0.1707 -0.1235 -0.0938
 2087WN      WN12191   4.235   8.775   3.468 -0.2100  0.0275  0.0797
 2088WN      WN12192  15.520   0.026   4.328 -0.0102  0.1184 -0.1826
 2089WN      WN12193   8.064   3.469  10.533 -0.1547 -0.1301 -0.2706
 2090WN      WN12194   7.504  11.870   2.064  0.2018  0.2811 -0.0145
 2091WN      WN12195   3.807  12.597   1.728  0.1715  0.3050 -0.1326
 2092WN      WN12196   5.023   9.119  11.080  0.2461  0.2715 -0.0960
 2093WN      WN12197   2.269   7.103   3.921  0.2937  0.0699  0.2743
 2094WN      WN12198  10.340   5.446  12.423 -0.0433 -0.0990 -0.3966
 2095WN      WN12199   6.913  13.395  12.510  0.1590 -0.0747  0.3040
 2096WN      WN12200   6.013   7.338   2.099 -0.1449  0.0237 -0.0983
 2097WN      WN12201   7.750  13.876  10.426  0.3264  0.1548 -0.0850
 2098WN      WN12202   2.876   1.287   1.940  0.2374 -0.0633  0.0694
 2099WN      WN12203   9.998  13.401  13.236  0.0461  0.0001 -0.2508
 2100WN      WN12204   1.008   2.224   2.357  0.2067 -0.0415  0.1035
 2101WN      WN12205   3.663   0.371   4.169  0.1098 -0.2252  0.0484
 2102WN      WN12206   3.544  12.913   0.454  0.0754 -0.0972  0.5191
 2103WN      WN12207   5.408   1.497  12.910 -0.2421 -0.0679 -0.0157
 2104WN      WN12208   8.238   6.122  12.766 -0.1087 -0.0843 -0.2983
 2105WN      WN12209  14.319  15.216   2.122  0.1474  0.2162 -0.0988
 2106WN      WN12210   7.217   8.225  13.263 -0.1034 -0.1636  0.1066
 2107WN      WN12211   8.679   3.033   2.965 -0.0694  0.1270  0.2091
 2108WN      WN12212   2.555  14.252   3.684 -0.0557 -0.3027 -0.1374
 2109WN      WN12213   4.510   5.662   4.405  0.0535  0.1224 -0.3651
 2110WN      WN12214  10.816  15.628   1.947 -0.0844 -0.1644  0.1553
 2111WN      WN12215  13.117   5.229  10.939 -0.2256  0.0766  0.0659
 2112WN      WN12216  14.425   5.178  13.232 -0.4202 -0.0516  0.0924
 2113WN      WN12217  14.046   0.700   4.004 -0.0714  0.0547  0.0286
 2114WN      WN12218   9.176   2.566   3.047  0.1508  0.3300  0.0296
 2115WN      WN12219   0.129   8.160  11.073  0.3338 -0.1227  0.2724
 2116WN      WN12220   8.424   3.388  11.752  0.1295  0.0131  0.0103
 2117WN      WN12221   8.885  14.026  10.240 -0.0859  0.1040 -0.0649
 2118WN      WN12222   5.739  12.837   2.760 -0.1629 -0.1224  0.0755
 2119WN      WN12223   9.407  12.206   0.421  0.0294 -0.1195 -0.1505
 2120WN      WN12224  11.711   1.441  12.267  0.0287  0.0944  0.0876
 2121WN      WN12225   3.539   7.593  10.006 -0.0836  0.0882  0.0874
 2122WN      WN12226   1.827   5.446  11.792 -0.0118  0.1432  0.0310
 2123WN      WN12227  11.888  15.327   9.748  0.0322 -0.1866 -0.4707
 2124WN      WN12228   6.613   2.524   2.587 -0.2518 -0.2174 -0.1103
 2125WN      WN12229  12.696   9.444   1.191 -0.2864  0.0203 -0.1315
 2126WN      WN12230   0.960   4.093  13.751 -0.0704 -0.0607 -0.2104
 2127WN      WN12231   1.569  11.643  12.891 -0.1585 -0.1194  0.2096
 2128WN      WN12232   4.404   2.599   1.019 -0.2966  0.2682 -0.3220
 2129WN      WN12233   5.437   0.763  10.790  0.1613 -0.3418  0.1556
 2130WN      WN12234  11.199  10.527   2.929  0.0449  0.1853  0.0237
 2131WN      WN12235  14.950   3.228  12.705 -0.0168 -0.0689  0.0878
 2132WN      WN12236   1.662   0.612  10.784  0.2089 -0.1188  0.0287
 2133WN      WN12237  10.561   9.442   1.585 -0.0868 -0.2065 -0.0269
 2134WN      WN12238   9.137   4.956  11.139 -0.0121 -0.0743 -0.3481
 2135WN      WN12239   9.274   7.435  12.197 -0.0274  0.2748  0.0087
 2136WN      WN12240   8.143   7.483  12.071  0.0916 -0.3761  0.3462
 2137WN      WN12241  11.503  12.941  10.148 -0.2156  0.0881  0.0765
 2138WN      WN12242   1.097  14.270  12.244  0.1187 -0.0122 -0.0116
 2139WN      WN12243  10.456  13.264  11.180  0.1340  0.0301 -0.0653
 2140WN      WN12244   8.575  13.551  12.179  0.1018 -0.1588  0.4766
 2141WN      WN12245   0.451   9.343  10.761  0.2101  0.2997 -0.3258
 2142WN      WN12246   9.493   8.826   9.519  0.1496 -0.1625  0.1450
 2143WN      WN12247   3.663   9.841   3.895  0.1654  0.0430  0.3306
 2144WN      WN12248  13.890   8.225   9.426  0.0424  0.0391 -0.1082
 2145WN      WN12249  13.678   1.207  13.222  0.1123 -0.1545 -0.2463
 2146WN      WN12250   8.040   7.545   1.745  0.1560  0.0354 -0.0287
 2147WN      WN12251   1.783   5.562  10.533  0.1405 -0.4903  0.1226
 2148WN      WN12252  14.367   8.475   2.974 -0.1261 -0.0726 -0.1064
 2149WN      WN12253   4.764  10.532  10.878 -0.4963 -0.1565 -0.0322
 2150WN      WN12254   8.857  12.212  11.042 -0.1089  0.0598  0.1880
 2151WN      WN12255   1.641   4.093   9.877 -0.3815  0.1497  0.0185
 2152WN      WN12256  11.104   0.945  10.913  0.0342  0.1330  0.1455
 2153WN      WN12257  10.712   0.700  11.171 -0.1929 -0.0865 -0.1381
 2154WN      WN12258   8.257   0.556   1.150 -0.2054 -0.0822  0.0284
 2155WN      WN12259   5.276   2.565   2.340 -0.1652 -0.1203  0.0392
 2156WN      WN12260  13.189   6.030   2.671  0.2143 -0.2284  0.0380
 2157WN      WN12261   9.867  11.192  12.617  0.1277 -0.0037  0.2641
 2158WN      WN12262   0.182   3.731   8.804 -0.2756  0.0099  0.3380
 2159WN      WN12263  13.241   3.597   1.921  0.2931 -0.0061 -0.0233
 2160WN      WN12264   5.116   5.139  11.803  0.1838 -0.3307  0.0330
 2161WN      WN12265   3.681  13.209  13.630 -0.0802 -0.0870 -0.0634
 2162WN      WN12266   1.827  15.069   4.499 -0.0643  0.2905  0.0598
 2163WN      WN12267   5.213  13.912   2.036 -0.1468 -0.3174 -0.0720
 2164WN      WN12268   6.753   0.566   8.666  0.1217 -0.2220 -0.0229
 2165WN      WN12269   5.759   4.106   9.562  0.3741  0.0163  0.3935
 2166WN      WN12270  14.132  14.472   3.824 -0.3037  0.0334  0.3143
 2167WN      WN12271   5.604  12.048  12.692 -0.1340  0.0475 -0.4121
 2168WN      WN12272  14.564   7.676  11.351  0.0668 -0.0841 -0.0263
 2169WN      WN12273  14.120   0.293  10.371 -0.2360  0.3363  0.0349
 2170WN      WN12274   3.811  11.067  11.827 -0.1146 -0.1446  0.0255
 2171WN      WN12275   3.998  14.503  12.271  0.1591  0.0510  0.1354
 2172WN      WN12276   5.663   8.587  11.598  0.0075 -0.1260 -0.4104
 2173WN      WN12277   1.838   5.442   1.705 -0.0313 -0.1852 -0.2599
 2174WN      WN12278   4.778  13.142   3.113 -0.0561  0.0446 -0.2108
 2175WN      WN12279   5.707   7.837  13.501 -0.2269  0.1594  0.0714
 2176WN      WN12280  10.506   0.002   2.360 -0.2177 -0.3104 -0.2744
 2177WN      WN12281  13.988  11.387   3.380 -0.1375 -0.3026 -0.0212
 2178WN      WN12282  12.279   5.035  12.313 -0.2348 -0.0468 -0.1134
 2179WN      WN12283   8.292  15.299  11.318 -0.2737  0.0733  0.0818
 2180WN      WN12284  10.905  14.081   9.281 -0.0577  0.2350 -0.0631
 2181WN      WN12285   5.695   6.088  12.630  0.0090  0.1076  0.0166
 2182WN      WN12286   1.093   2.933  13.665  0.0821  0.0674  0.0788
 2183WN      WN12287   7.278  13.449  11.847  0.0425 -0.0515  0.1759
 2184WN      WN12288  13.793  12.609   9.815  0.1748  0.0732 -0.1436
 2185WN      WN12289  11.164  10.348   3.937 -0.1980  0.1919  0.1615
 2186WN      WN12290   4.055   1.904   4.128  0.2822 -0.1543  0.1084
 2187WN      WN12291  13.775   1.388   8.956  0.3852 -0.0887  0.2145
 2188WN      WN12292  13.319   4.757   0.772  0.0471  0.0893 -0.0614
 2189WN      WN12293   8.814  12.818   4.877  0.0654  0.3745 -0.0152
 2190WN      WN12294   9.627   6.241   2.238  0.1116 -0.4094 -0.0001
 2191WN      WN12295   9.792  14.442  10.815 -0.1196  0.0580  0.4280
 2192WN      WN12296   1.370  14.697   2.891 -0.2598 -0.0427  0.0811
 2193WN      WN12297   1.129   7.912   9.895 -0.0686 -0.0854  0.0952
 2194WN      WN12298   1.673   9.290   1.292  0.1419 -0.0537 -0.4445
 2195WN      WN12299   4.037   4.851  12.970 -0.2589  0.0780 -0.0384
 2196WN      WN12300  15.523  10.767  10.794  0.0093  0.1825  0.1114
 2197WN      WN12301   8.553   4.092   9.511  0.0033  0.1571  0.0736
 2198WN      WN12302  15.350   7.403  10.015  0.0388 -0.2658  0.0145
 2199WN      WN12303   9.757  10.986   4.321  0.1365 -0.0308 -0.0428
 2200WN      WN12304   0.504  10.681  11.940 -0.3794  0.3073 -0.0270
 2201WN      WN12305  13.889   0.363   9.568 -0.0080 -0.3358 -0.0066
 2202WN      WN12306   6.333  13.390   2.120 -0.2640  0.0478  0.0026
 2203WN      WN12307   3.013  13.646  11.151 -0.3055 -0.0571 -0.2303
 2204WN      WN12308  15.419   1.521   0.935  0.4719 -0.1905  0.1469
 2205WN      WN12309  10.570   7.732   1.488  0.2697 -0.0265  0.1654
 2206WN      WN12310   2.870  11.391   1.211  0.2265 -0.1179  0.0330
 2207WN      WN12311  13.270   0.256  10.188 -0.1721 -0.3654 -0.0754
 2208WN      WN12312   5.086   2.018  12.602 -0.0497  0.3105 -0.0166
 2209WN      WN12313   4.577  15.277   4.370  0.0739 -0.1404 -0.0620
 2210WN      WN12314   3.458  10.258   1.675 -0.2833  0.0667 -0.1867
 2211WN      WN12315   6.906   4.826   1.173 -0.1179 -0.0821 -0.0179
 2212WN      WN12316  14.615   2.722  11.039 -0.4117  0.0956 -0.1461
 2213WN      WN12317   5.038  10.284  13.516 -0.2103 -0.1578 -0.2002
 2214WN      WN12318   1.992   2.876   1.900 -0.0694 -0.0864 -0.2627
 2215WN      WN12319  14.497   1.956  10.480  0.1671  0.0469  0.2146
 2216WN      WN12320   9.964   9.974  11.723 -0.0249  0.1228  0.1227
 2217WN      WN12321  10.010   8.311  10.803  0.1166 -0.0012 -0.0284
 2218WN      WN12322  12.736   8.901  12.772  0.1473 -0.0978 -0.1687
 2219WN      WN12323  12.829   9.479  12.310  0.2489  0.1721  0.2481
 2220WN      WN12324  11.795   0.369   1.591 -0.3363 -0.4530 -0.2884
 2221WN      WN12325   4.987   4.199  12.860 -0.1013  0.2104 -0.2328
 2222WN      WN12326   5.470   0.135   2.765 -0.1846 -0.1805 -0.3214
 2223WN      WN12327   1.502   0.311   3.341 -0.0382  0.0987 -0.0468
 2224WN      WN12328   2.306  13.617   3.654 -0.0691 -0.2737  0.3248
 2225WN      WN12329   7.003   9.223   1.518 -0.2456 -0.3253 -0.2873
 2226WN      WN12330   2.874   9.570  13.350 -0.0889 -0.2209  0.1021
 2227WN      WN12331   8.788   5.197  10.134 -0.1068  0.1478  0.0916
 2228WN      WN12332   2.398   2.310   9.630 -0.1564  0.0446 -0.0482
 2229WN      WN12333   7.972  11.513  12.780 -0.0552  0.1242 -0.2468
 2230WN      WN12334   5.580   7.813  12.099 -0.0486 -0.4020  0.1245
 2231WN      WN12335   4.558  13.208  12.558 -0.0432  0.0650  0.2744
 2232WN      WN12336  11.848   3.896   9.821  0.3102 -0.0168  0.0737
 2233WN      WN12337   6.493   5.529  11.422  0.0398  0.1427  0.0969
 2234WN      WN12338  10.871   4.268   0.619 -0.3940  0.0973 -0.2032
 2235WN      WN12339   9.099   0.651  10.462  0.3676  0.3214 -0.0913
 2236WN      WN12340   4.980   5.668  11.807 -0.0119 -0.0734 -0.0007
 2237WN      WN12341   3.301   6.734  12.317 -0.1312  0.0234  0.3950
 2238WN      WN12342  15.659   6.953  12.646 -0.1241 -0.0738  0.1226
 2239WN      WN12343   3.595  10.322  13.577 -0.1030  0.1406  0.0975
 2240WN      WN12344   5.005  10.796   4.904 -0.1118  0.2675  0.2644
 2241WN      WN12345   8.248  13.276  12.485  0.0141 -0.1779 -0.1199
 2242WN      WN12346   2.892  12.672   1.687 -0.0370  0.0225 -0.0485
 2243WN      WN12347   9.321  11.088   3.287  0.1309 -0.0775 -0.4302
 2244WN      WN12348   0.037  13.867   4.179  0.1294  0.0396  0.1452
 2245WN      WN12349   1.087  12.365  13.301 -0.1229 -0.2174  0.1881
 2246WN      WN12350   9.280  14.087   3.069 -0.0279 -0.0888  0.0915
 2247WN      WN12351   2.895   9.589  10.421 -0.2368  0.1391 -0.0914
 2248WN      WN12352   7.739   4.746  13.189  0.1366 -0.0728  0.2621
 2249WN      WN12353   4.837  11.552   4.303  0.2611  0.1878 -0.1036
 2250WN      WN12354   6.566  15.646   3.016  0.1231 -0.1055 -0.1090
 2251WN      WN12355   7.988   3.967  11.567  0.1974 -0.3020  0.0619
 2252WN      WN12356   9.439  14.222  10.519 -0.1583  0.3721 -0.0630
 2253WN      WN12357   5.914   5.343   4.057 -0.1432 -0.0560 -0.0366
 2254WN      WN12358   0.009  10.469  13.106  0.1858  0.1246 -0.0793
 2255WN      WN12359   8.968   2.101  13.327 -0.0203  0.0425 -0.2875
 2256WN      WN12360  10.929  14.067   2.294  0.0693 -0.1121 -0.1438
 2257WN      WN12361   7.343  12.380   1.962  0.3456  0.2728 -0.1494
 2258WN      WN12362  13.800  11.933   0.484 -0.3690  0.2417  0.1145
 2259WN      WN12363   5.973  12.862   4.365 -0.1024 -0.0253 -0.1958
 2260WN      WN12364   2.861   2.019  11.238 -0.0429 -0.3358 -0.0780
 2261WN      WN12365   5.577  11.533   3.161 -0.1545  0.3035 -0.0528
 2262WN      WN12366   2.636  14.819  12.521  0.3133  0.0328 -0.1465
 2263WN      WN12367  13.325  13.016   5.281  0.4031 -0.0645 -0.0555
 2264WN      WN12368  12.596  12.440   0.440  0.1479 -0.2128  0.0313
 2265WN      WN12369  13.282  12.040   9.808  0.1021  0.4957 -0.1834
 2266WN      WN12370   3.991   0.969   2.611  0.2399  0.0925  0.2064
 2267WN      WN12371   2.113   2.311   1.777 -0.2508  0.2086  0.0447
 2268WN      WN12372   2.156   5.668   2.932 -0.5270  0.0720 -0.2005
 2269WN      WN12373   6.694   8.968   9.741 -0.1561  0.1141 -0.0246
 2270WN      WN12374   7.603   7.307  10.046 -0.1389 -0.3223 -0.3056
 2271WN      WN12375   2.336   0.939   1.158  0.0152 -0.0451 -0.1085
 2272WN      WN12376   2.384   9.364  12.273 -0.1077 -0.2069 -0.0666
 2273WN      WN12377   8.558   8.293  11.723 -0.1400  0.1907 -0.0301
 2274WN      WN12378   7.876   3.985  12.945 -0.2683  0.2393  0.2280
 2275WN      WN12379   6.551  11.879   4.151  0.2627 -0.0957  0.0951
 2276WN      WN12380  10.829  13.168   4.032 -0.1425  0.0152 -0.1825
 2277WN      WN12381   2.421   6.738   9.153  0.1267 -0.0204 -0.0426
 2278WN      WN12382  14.211   7.466   9.746  0.0070 -0.0323  0.0534
 2279WN      WN12383   7.405  10.130  11.450  0.0441  0.2725 -0.1675
 2280WN      WN12384  12.955  11.285  11.698 -0.0387 -0.0419 -0.1226
 2281WN      WN12385  12.943   3.224   2.052 -0.3499  0.0082  0.0795
 2282WN      WN12386   4.033   6.346  13.427  0.1799 -0.2969  0.0044
 2283WN      WN12387  11.547   2.388   9.264  0.0351  0.1046 -0.2260
 2284WN      WN12388   5.391  12.378  13.300  0.1765  0.1018  0.3846
 2285WN      WN12389  15.267   8.932  11.344  0.1852  0.1009 -0.1814
 2286WN      WN12390  10.078   0.587   2.446  0.0958  0.0313  0.2564
 2287WN      WN12391   9.927  15.329  10.611 -0.1451 -0.2110 -0.2730
 2288WN      WN12392  11.004  11.526   9.291 -0.0652 -0.4597  0.0226
 2289WN      WN12393  12.039  12.512   2.491  0.2611  0.1433  0.2641
 2290WN      WN12394   8.940   8.343   1.855  0.2131  0.0969 -0.1504
 2291WN      WN12395   0.589  12.957   9.789  0.0746  0.3278 -0.1237
 2292WN      WN12396  11.659   4.771  13.618  0.0582 -0.1110  0.0369
 2293WN      WN12397   8.509  14.692   2.141 -0.1370 -0.1937  0.0259
 2294WN      WN12398  14.735  15.416   1.942  0.0097  0.0383 -0.0484
 2295WN      WN12399   9.670   8.632  10.577 -0.1250 -0.1877 -0.1401
 2296WN      WN12400  12.994  12.372  10.860  0.0768 -0.1062 -0.0470
 2297WN      WN12401   9.554   3.161  10.154  0.2801 -0.2299 -0.2056
 2298WN      WN12402   6.577   2.954   8.584 -0.0691 -0.0070 -0.2244
 2299WN      WN12403  12.293  13.688   0.707  0.1724 -0.0203 -0.1305
 2300WN      WN12404   4.143  10.463  12.873  0.1276 -0.0063  0.2717
 2301WN      WN12405   5.558  13.091   3.982 -0.0084  0.0639 -0.0084
 2302WN      WN12406   8.625   9.698   0.142 -0.2121 -0.0326 -0.2895
 2303WN      WN12407  14.536   8.642  10.948 -0.1648 -0.3144 -0.2097
 2304WN      WN12408  12.131   5.568   9.512 -0.0302 -0.2028 -0.0024
 2305WN      WN12409   6.081   5.880   1.308 -0.0309  0.4153  0.3073
 2306WN      WN12410   3.241  15.698  12.005 -0.1245 -0.1367 -0.3777
 2307WN      WN12411   0.987   1.064   9.960 -0.2644 -0.0740  0.0714
 2308WN      WN12412   3.901   6.861   9.491 -0.1666  0.2321  0.0457
 2309WN      WN12413   1.865   0.403   0.583  0.4910 -0.2385 -0.1323
 2310WN      WN12414   1.359   2.594  13.119 -0.0944  0.1674  0.3835
 2311WN      WN12415   8.447   8.272  12.267  0.0569 -0.3131 -0.3295
 2312WN      WN12416   7.019  14.250   3.153  0.1753 -0.1694 -0.0695
 2313WN      WN12417  10.940   5.239   2.655  0.1046  0.2482  0.3032
 2314WN      WN12418  14.745   6.052  10.534 -0.0746  0.1213 -0.3112
 2315WN      WN12419   4.310  14.014   3.955  0.0905  0.1620  0.1603
 2316WN      WN12420  12.168   4.448   8.742  0.0080 -0.3706  0.1864
 2317WN      WN12421   5.888   3.315  11.147  0.0523  0.2612 -0.1634
 2318WN      WN12422   5.264   4.076   9.584  0.0049 -0.1859 -0.0176
 2319WN      WN12423   5.313   1.373  13.369 -0.0167  0.0271  0.1359
 2320WN      WN12424   8.045  12.017   9.803  0.2203  0.1636 -0.0358
 2321WN      WN12425   5.212  11.065   2.869  0.1209  0.1520 -0.0035
 2322WN      WN12426  13.231  11.978   1.706  0.0675 -0.1579 -0.2825
 2323WN      WN12427  13.713   1.838  11.499  0.3226 -0.2617  0.1176
 2324WN      WN12428   7.125   7.013   9.257 -0.0193  0.2898 -0.1737
 2325WN      WN12429   7.616   8.407   1.622  0.0366  0.2416 -0.1864
 2326WN      WN12430   2.616   3.505  12.193 -0.0055  0.1984  0.1001
 2327WN      WN12431   8.123   6.921  12.153 -0.0789  0.0379  0.0295
 2328WN      WN12432   0.726   5.179   8.643 -0.0447 -0.0243 -0.0700
 2329WN      WN12433  15.514   7.760  12.855  0.1352 -0.0419  0.1974
 2330WN      WN12434  13.827  11.824   3.085  0.2596  0.4703  0.0214
 2331WN      WN12435   2.358   0.575  10.761  0.0108 -0.1746 -0.1451
 2332WN      WN12436   5.115   3.752  12.623 -0.1760  0.0958  0.0201
 2333WN      WN12437   9.003   8.706  10.546 -0.1880 -0.1721  0.2642
 2334WN      WN12438   2.839  15.192  12.783 -0.2286 -0.1510 -0.1510
 2335WN      WN12439  14.974   6.856  10.885  0.1087  0.0239  0.3102
 2336WN      WN12440  15.336   4.205   2.534 -0.1272 -0.0028  0.0120
 2337WN      WN12441  14.197  13.798  10.049  0.1009  0.3810 -0.1678
 2338WN      WN12442   7.968   9.700   8.956 -0.0663  0.0851  0.0793
 2339WN      WN12443   3.179   2.137  12.651 -0.2662  0.0653  0.0042
 2340WN      WN12444   4.960  13.834  13.289 -0.3415  0.0171 -0.1847
 2341WN      WN12445   0.680   5.214  10.440  0.0485 -0.1228 -0.2054
 2342WN      WN12446  11.503  13.230   0.011  0.3256  0.3484  0.2195
 2343WN      WN12447  10.572  14.645  13.710 -0.4481 -0.0187  0.1956
 2344WN      WN12448   7.387  11.931   1.510  0.0248  0.2410 -0.0368
 2345WN      WN12449   2.858   0.350   4.629  0.1009  0.0237  0.0326
 2346WN      WN12450   5.624  15.569  10.285  0.1067  0.0312 -0.2893
 2347WN      WN12451   0.308   8.949   9.177 -0.4321 -0.0903 -0.3150
 2348WN      WN12452   1.209   3.806   3.647  0.0463  0.1801 -0.2176
 2349WN      WN12453  12.944  11.629  10.363 -0.1167  0.0734 -0.2615
 2350WN      WN12454  13.269  10.492   2.475  0.3863 -0.0824 -0.0566
 2351WN      WN12455  13.424  15.435   0.539  0.2750  0.1223  0.1709
 2352WN      WN12456   6.955   9.287  11.889  0.0178  0.2071 -0.1958
 2353WN      WN12457   4.299  15.535   1.537  0.1366 -0.1345 -0.0385
 2354PP      PP12458   0.288   7.945   3.031 -0.3873  0.0979 -0.0137
 2355PP      PP12459   4.305  13.975  10.336 -0.3613 -0.0085  0.1318
 2356PP      PP12460   8.571   8.577   9.723  0.3923  0.0022 -0.0454
 2357PP      PP12461   5.203  14.207   2.535  0.1908 -0.1382  0.1745
 2358PP      PP12462   5.593   0.257   9.404  0.2539 -0.0970  0.2165
 2359PP      PP12463   5.245  11.025  12.584  0.1913 -0.0552  0.3263
 2360PP      PP12464  14.352   4.188  10.386  0.0814  0.1263  0.1112
 2361PP      PP12465   2.889   3.017   4.080 -0.0563  0.0419  0.2579
 2362PP      PP12466   9.090   4.488   1.593 -0.1275  0.1467 -0.1824
 2363PP      PP12467   1.401  13.775   3.367  0.2164 -0.1660  0.2184
 2364PP      PP12468  12.580  12.905   0.368 -0.2555  0.1984 -0.0391
 2365PP      PP12469   4.119  14.100  13.395  0.1975  0.0195  0.1438
 2366PP      PP12470   8.252  13.048   2.917  0.1470 -0.2489  0.2802
 2367PP      PP12471   4.531   7.567   1.626  0.1034 -0.3273 -0.1190
 2368PP      PP12472   3.642   2.777  11.048  0.3458 -0.2071  0.0472
 2369PP      PP12473   7.245   9.085   9.922 -0.1467  0.2942 -0.1609
 2370PP      PP12474   1.013  13.773  13.024  0.2266 -0.2489 -0.2801
 2371PP      PP12475   5.840   3.361   3.029  0.0232  0.1780  0.3081
 2372PP      PP12476   6.841   6.761   3.771 -0.0495  0.3234  0.0657
 2373PP      PP12477   1.980   9.659   2.298  0.0468  0.0645 -0.1978
 2374PP      PP12478   3.790  12.811   9.517  0.1288  0.1591 -0.1282
 2375PP      PP12479  15.042  11.918  13.766  0.0359 -0.0360 -0.0390
 2376PP      PP12480   8.452   2.758   0.623 -0.1532  0.0274  0.1647
 2377PP      PP12481  11.607   2.721   2.716  0.0680 -0.3061  0.0561
 2378PP      PP12482   3.599   4.693   0.805 -0.1050 -0.2102  0.0972
 2379PP      PP12483  11.834   9.167   2.880  0.1275  0.0646 -0.1390
 2380PP      PP12484   0.773  10.858   3.336  0.0472  0.3130 -0.1163
 2381PP      PP12485   7.444   9.905  13.557 -0.0647 -0.1561  0.3045
 2382PP      PP12486   5.938  12.387   0.225  0.0059 -0.1894  0.3229
 2383PP      PP12487  12.243   1.732   4.015 -0.1251 -0.0354  0.0866
 2384PP      PP12488  11.292  14.266  13.189 -0.2344 -0.2671 -0.3844
 2385PP      PP12489   8.804   6.381   2.350 -0.1311 -0.1670  0.0243
 2386PP      PP12490   0.819   1.767  10.619 -0.0501 -0.0569 -0.1088
 2387PP      PP12491   8.840  11.669  13.097 -0.1927  0.1680  0.0893
 2388PP      PP12492   2.118  10.900  11.465  0.0403  0.1099  0.0257
 2389PP      PP12493   7.303   6.928  10.825  0.0165  0.1107  0.0227
 2390PP      PP12494  11.628  12.446   3.751 -0.2961  0.2438  0.2559
 2391PP      PP12495  11.222  10.796   2.501 -0.0565  0.0439  0.5522
 2392PP      PP12496   5.725   4.576   8.727  0.4871 -0.0678 -0.0348
 2393PP      PP12497  12.519   1.593   1.994 -0.2790 -0.0831 -0.3943
 2394PP      PP12498  13.119  15.063   0.676 -0.0664  0.1160  0.0312
 2395PP      PP12499   3.620  14.823   0.802 -0.1655 -0.2402  0.2301
 2396PP      PP12500   0.580   0.413   2.310 -0.1251  0.0418  0.0563
 2397PP      PP12501  10.829   9.927   3.796 -0.3444  0.2278  0.1169
 2398PP      PP12502  10.161   2.437   3.930  0.3148 -0.1297 -0.0026
 2399PP      PP12503   7.199  10.947  11.483  0.2433  0.4961  0.2842
 2400PP      PP12504   3.006  10.841   0.266 -0.0717 -0.0343  0.0319
 2401PP      PP12505   1.836  14.738   0.454 -0.2694  0.0145 -0.0064
 2402PP      PP12506   0.721   0.188  13.127  0.0073  0.0517 -0.5154
 2403PP      PP12507   5.476   5.721   9.431 -0.1505  0.1644 -0.0767
 2404PP      PP12508   6.705   6.407  12.503 -0.1430  0.0549  0.2303
 2405PP      PP12509   4.386   4.915   2.802  0.0778 -0.3546  0.0912
 2406PP      PP12510  12.274   6.331  10.178  0.0084 -0.0363  0.1314
 2407PP      PP12511   7.566   0.876   8.555 -0.4307  0.4564 -0.1412
 2408PP      PP12512   2.791   4.947  11.757 -0.1361  0.1975 -0.3117
 2409PP      PP12513   7.671  14.223  13.264  0.1390 -0.1302 -0.1278
 2410PP      PP12514   3.891   7.686   2.685  0.2301  0.4524  0.0070
 2411PP      PP12515   5.771   3.106  13.640  0.3051 -0.0092 -0.1836
 2412PP      PP12516  12.053   1.846   2.481  0.0068  0.2243 -0.1419
 2413PP      PP12517   5.673  11.661   1.031  0.1269  0.5358 -0.0517
 2414PP      PP12518  15.666  15.558  11.061 -0.3323 -0.2639 -0.0738
 2415PP      PP12519   2.408  10.038   3.577 -0.0437 -0.0561 -0.1097
 2416PP      PP12520   7.357   0.366  13.159 -0.1591 -0.1058  0.2681
 2417PP      PP12521  10.920  11.227   4.165 -0.0511  0.2047 -0.0023
 2418PP      PP12522   4.090   4.378  11.418 -0.0590 -0.0125 -0.3426
 2419PP      PP12523   6.077   7.989   2.661  0.2048 -0.2203  0.0416
 2420PP      PP12524   7.256   3.884  10.410  0.1884 -0.2639 -0.1095
 2421PP      PP12525   9.910  11.521   0.344  0.3808  0.1099 -0.1682
 2422PP      PP12526   2.718  14.819   3.757  0.0700 -0.1558  0.1803
 2423PP      PP12527  13.949  13.991   2.267  0.1029 -0.0904  0.4153
 2424PP      PP12528   8.593  12.493   0.965  0.3567 -0.1985  0.0239
 2425PP      PP12529   8.339   1.857  11.320  0.0987 -0.0589 -0.1278
 2426PP      PP12530  14.267  10.060   1.945 -0.2036  0.3356  0.0153
 2427PP      PP12531  11.377   1.375   9.128  0.0136  0.0435  0.2632
 2428PP      PP12532  10.192   4.865  12.945  0.0507 -0.0403 -0.1729
 2429PP      PP12533   2.117   2.426   4.689  0.3261  0.3078  0.1348
 2430PP      PP12534   7.181   9.222   1.014  0.0487  0.3222 -0.0866
 2431PP      PP12535  11.097   6.772   1.913  0.0366 -0.1512  0.0151
 2432PP      PP12536  15.017   1.943  10.831  0.1330  0.2379 -0.0841
 2433PP      PP12537  13.046   9.478  10.845 -0.2133  0.0489  0.0690
 2434PP      PP12538  11.473   3.576   0.331 -0.1320  0.2351 -0.0487
 2435PP      PP12539   9.263  14.640   1.273 -0.1639 -0.0049  0.1032
 2436PP      PP12540   8.363   7.521  13.747  0.1091 -0.0404 -0.2904
 2437PP      PP12541   8.430  12.129   9.439  0.0861 -0.0135 -0.0980
 2438PP      PP12542   0.890   5.094  13.350 -0.0160 -0.2260 -0.1337
 2439PP      PP12543  11.306  13.363   2.656  0.0397 -0.0328 -0.0653
 2440PP      PP12544   7.929   7.104  13.049  0.1002  0.2513 -0.0657
 2441PP      PP12545  11.611  13.967   9.981  0.2375 -0.0436  0.1149
 2442PP      PP12546   1.056   5.039   0.946 -0.0719  0.3292  0.3018
 2443PP      PP12547   0.794  15.422   1.031 -0.1260 -0.0792  0.2611
 2444PP      PP12548   3.854  10.894   9.809  0.1476 -0.2119 -0.1431
 2445PP      PP12549   8.139   3.172   8.285  0.1591 -0.0780 -0.1741
 2446PP      PP12550   2.119   5.837  11.878 -0.1112  0.1768  0.2929
 2447PP      PP12551  11.091  11.905   3.255  0.0971  0.0809  0.2186
 2448PP      PP12552   7.933   2.141   3.483  0.0300  0.0959 -0.0831
 2449PP      PP12553  11.422   9.077   0.272  0.2241 -0.1430 -0.1260
 2450PP      PP12554   0.385  11.473   3.764  0.0562  0.0452  0.0210
 2451PP      PP12555   8.207  13.662  11.856 -0.1459  0.0439 -0.2931
 2452PP      PP12556  12.076  11.706  12.831  0.0832  0.1281 -0.1101
 2453PP      PP12557   8.154  14.492  11.221  0.2644  0.0751 -0.5837
 2454PP      PP12558  15.143   6.944  10.361 -0.0048 -0.2809  0.1547
 2455PP      PP12559   3.206  10.011   4.041 -0.0797 -0.0212  0.1404
 2456PP      PP12560   7.289  14.889  11.064 -0.1105  0.1064  0.3787
 2457PP      PP12561   0.598   3.501   3.855  0.1321 -0.0289 -0.0808
 2458PP      PP12562  10.767  15.495  12.759  0.2989 -0.1932 -0.1685
 2459PP      PP12563  13.305  13.561  11.177 -0.0123 -0.2641  0.1861
 2460PP      PP12564   0.317   4.576  11.469 -0.1372 -0.1109 -0.0064
 2461PP      PP12565  15.697  12.751  11.700  0.2304 -0.2409  0.3605
 2462PP      PP12566   0.428   4.302  10.655  0.0643  0.2573 -0.1044
 2463PP      PP12567  11.723   2.890  12.496  0.0031 -0.2255 -0.0195
 2464PP      PP12568   3.590   4.156   2.718 -0.1381 -0.0276  0.1669
 2465PP      PP12569   5.420   3.772   0.519 -0.1367 -0.2075  0.4061
 2466PP      PP12570   7.286   2.587  13.279 -0.0285 -0.0606  0.2275
 2467PP      PP12571   9.890   9.205   8.363 -0.0463  0.0108 -0.5128
 2468PP      PP12572  13.241  12.325   4.080 -0.0327  0.1014  0.0714
 2469PP      PP12573  13.266   0.179   4.176 -0.0246 -0.0771 -0.0669
 2470PP      PP12574   4.440   1.053   2.292  0.0844  0.0679 -0.0239
 2471PP      PP12575   7.822   8.897  11.542  0.2373 -0.2428  0.0090
 2472PP      PP12576   3.504  13.881  11.017  0.2565 -0.0930  0.1461
 2473PP      PP12577  10.772  10.362   3.092 -0.1132  0.2859 -0.1051
 2474PP      PP12578   7.352  15.366  11.609 -0.3242  0.0057 -0.0680
 2475PP      PP12579   6.873   8.499   0.653 -0.1744  0.2536  0.2131
 2476PP      PP12580  13.472   3.567  12.748  0.0815 -0.3584  0.0185
 2477PP      PP12581  11.936   0.874  11.810 -0.1602 -0.0892  0.3071
 2478PP      PP12582  11.717   3.030   0.176  0.0698  0.1638  0.0088
 2479PP      PP12583  10.156   2.242  13.744  0.0292  0.2606  0.0111
 2480PP      PP12584  13.855  15.245   0.701 -0.0373  0.1205  0.0127
 2481PP      PP12585  15.041  12.788   4.074  0.1480  0.2479 -0.1428
 2482PP      PP12586  12.813  10.987  12.156 -0.0640 -0.0709  0.1931
 2483PP      PP12587  13.183  13.855   0.424 -0.2750 -0.1645 -0.0865
 2484PP      PP12588   5.270   1.497  11.395 -0.1009  0.0899  0.1226
 2485PP      PP12589   1.165  10.610   3.012  0.3079  0.0202  0.2455
 2486PP      PP12590   7.775  11.039   4.134  0.2752 -0.0935 -0.2028
 2487PP      PP12591   7.905   5.378   1.425 -0.2133 -0.0077 -0.1556
 2488PP      PP12592  14.825   7.801   0.227 -0.1512  0.1755 -0.0819
 2489PP      PP12593   8.470   0.045   2.374 -0.0629  0.1896 -0.0291
 2490PP      PP12594  11.440   8.383  13.512 -0.0792 -0.0944 -0.2701
 2491PP      PP12595  15.123  14.027   3.557  0.2852  0.0583  0.0636
 2492PP      PP12596   5.694  10.694  11.911  0.0432 -0.0914  0.0844
 2493PP      PP12597  14.536   6.512   0.360 -0.2870  0.2068  0.1746
 2494PP      PP12598  15.266   9.706  13.223 -0.1308  0.3442 -0.2478
 2495PP      PP12599   6.678   6.012   2.879 -0.1111 -0.0613  0.1181
 2496PP      PP12600   7.031   9.815  12.273 -0.0655  0.0869 -0.2843
 2497PP      PP12601   0.088   2.225   3.199  0.1414 -0.1516  0.1902
 2498PP      PP12602  10.024  13.149   3.123 -0.0825  0.3699 -0.1554
 2499PP      PP12603   9.756   8.319   9.408  0.1364  0.1538  0.0284
 2500PP      PP12604   6.446   9.345   2.671  0.0342 -0.0702 -0.2456
 2501PP      PP12605  11.201  14.421   9.594 -0.1189  0.0882  0.0376
 2502PP      PP12606   2.287  11.630   0.420 -0.0514  0.3676 -0.1083
 2503PP      PP12607  15.358   4.928  13.696  0.2186  0.1690 -0.0357
 2504PP      PP12608   9.963  15.260   9.151  0.2810 -0.0312  0.2096
 2505PP      PP12609   8.732  14.357   3.068 -0.1028 -0.0193 -0.0258
 2506PP      PP12610   2.733  15.590   5.188  0.1738 -0.2196  0.1802
 2507PP      PP12611   0.622  15.557   1.973 -0.3243  0.0701 -0.2191
 2508PP      PP12612  10.791  10.272   2.013  0.0795  0.0018  0.2391
 2509PP      PP12613   1.330   2.098   1.975 -0.0789  0.0345  0.0986
 2510PP      PP12614  10.685  10.334  11.736 -0.0359  0.0921 -0.0057
 2511PP      PP12615  10.270   5.571   2.473 -0.3428 -0.1822 -0.0145
 2512PP      PP12616   8.981  12.732  12.928  0.1771  0.1181 -0.1910
 2513PP      PP12617   5.180   1.045  11.143  0.2833 -0.0282 -0.0510
 2514PP      PP12618   1.674   8.033  13.388 -0.0760 -0.0183  0.1357
 2515PP      PP12619  10.596   6.436  11.437  0.2517  0.0343 -0.2252
 2516PP      PP12620   9.194   6.071  12.370  0.0642 -0.2555 -0.2398
 2517PP      PP12621  12.975   0.119   9.862  0.3756 -0.1874 -0.3127
 2518PP      PP12622  10.044   4.460   1.189  0.0682 -0.0829 -0.3572
 2519PP      PP12623  11.989   1.162  13.731 -0.1753 -0.1496  0.3455
 2520PP      PP12624  12.370   6.233   1.619 -0.0556 -0.1879  0.1503
 2521PP      PP12625   9.252  10.302  11.153 -0.0600  0.0933  0.2086
 2522PP      PP12626  10.817   3.201   0.895  0.1011  0.1518  0.1817
 2523PP      PP12627  13.944   5.035   8.824 -0.2562 -0.0412  0.0036
 2524PP      PP12628  11.287   4.015   3.890 -0.2499  0.1695  0.1747
 2525PP      PP12629  11.320   8.357  11.167  0.1339 -0.2516  0.0076
 2526PP      PP12630   7.199   5.013  12.285  0.4815 -0.0375  0.0490
 2527PP      PP12631  12.342   7.913   9.707 -0.0330 -0.1144  0.2166
 2528PP      PP12632  12.264  10.736   2.578  0.1565 -0.0295 -0.1098
 2529PP      PP12633  13.208  10.511  13.530 -0.0095 -0.1708 -0.0177
 2530PP      PP12634   1.763   1.616   3.208 -0.2872 -0.0999 -0.2081
 2531PP      PP12635   4.924   5.283   2.117 -0.0082 -0.1150  0.0899
 2532PP      PP12636   7.351   0.786  10.286  0.1569  0.0194  0.2146
 2533PP      PP12637   7.122   1.134   3.938  0.1182  0.0284 -0.2042
 2534PP      PP12638  13.499  15.689  12.170 -0.0614 -0.3568  0.1054
 2535PP      PP12639   6.435   3.256  12.575  0.2605 -0.0863 -0.0371
 2536PP      PP12640   4.683   3.147   9.567  0.0010  0.3915 -0.1722
 2537PP      PP12641  12.587   8.102  10.968 -0.0768 -0.0513 -0.3292
 2538PP      PP12642   1.381   0.691  12.333 -0.1073  0.5060  0.2684
 2539PP      PP12643  14.286   8.886  10.014 -0.3126 -0.1122 -0.0234
 2540PP      PP12644  15.219  10.855  12.422 -0.1230  0.0283  0.2649
 2541PP      PP12645  13.569   9.287   0.387 -0.0485  0.2414  0.1766
 2542PP      PP12646   9.763  13.308   2.553 -0.1245 -0.0107 -0.0383
 2543PP      PP12647   6.367  12.659   1.644  0.1210  0.0755  0.0262
 2544PP      PP12648  14.388   6.390  13.647  0.2473 -0.0170  0.1763
 2545PP      PP12649   7.853   4.768   2.631  0.1899 -0.0930  0.1019
 2546PP      PP12650   0.367   8.489   9.398 -0.2177 -0.1057  0.5801
 2547PP      PP12651   6.398   8.357  10.647 -0.1298  0.0885 -0.1336
 2548PP      PP12652   2.648   0.765  11.774 -0.3171 -0.0113 -0.0868
 2549PP      PP12653  12.308  14.437   3.860  0.2259 -0.2054 -0.1802
 2550PP      PP12654  12.791  11.243   1.432  0.0069  0.1325  0.0578
 2551PP      PP12655  11.736   3.893   3.456  0.1532  0.2786  0.1258
 2552PP      PP12656   7.516  15.283   0.660  0.0303  0.0318 -0.1433
 2553PP      PP12657   3.461  12.273  11.053 -0.1862  0.2165  0.0422
 2554PP      PP12658   4.208   7.781   0.397  0.1295 -0.0064  0.0975
 2555PP      PP12659   7.573   8.273  10.518 -0.1967 -0.1005  0.0620
 2556PP      PP12660   3.116   8.588   3.990 -0.1299  0.2032 -0.0697
 2557PP      PP12661   3.306   7.593   2.573 -0.0701 -0.0544  0.1011
 2558PP      PP12662   8.364   3.105  13.633  0.1577 -0.3191  0.1821
 2559PP      PP12663  14.189   6.103   4.096  0.0217 -0.1964  0.0915
 2560PP      PP12664   4.628   2.697   4.095 -0.0234 -0.3780  0.2486
 2561PP      PP12665  13.800   0.906  10.482 -0.0208 -0.3169 -0.2519
 2562PP      PP12666   4.697   7.426   1.107 -0.1671  0.1737 -0.1590
 2563PP      PP12667   1.615  11.969   2.657 -0.3285 -0.1342 -0.1547
 2564PP      PP12668   4.949   6.689   3.937  0.0313 -0.0322 -0.1265
 2565PP      PP12669  11.710  13.975  13.212 -0.1606  0.0318 -0.2087
 2566PP      PP12670   1.514  15.442   4.364  0.1239 -0.2100 -0.0938
 2567PP      PP12671   2.972  15.464   0.925 -0.3136 -0.0383  0.0152
 2568PP      PP12672   1.179  12.893  12.810  0.0785  0.0662 -0.0140
 2569PP      PP12673   3.278   7.889  12.213  0.0385 -0.0503  0.1034
 2570PP      PP12674   8.909   2.603   0.468 -0.1153 -0.3074  0.1982
 2571PP      PP12675   5.680   9.486  10.848  0.0074  0.0313  0.0884
 2572PP      PP12676   3.573   4.185   9.255  0.1626  0.4440  0.0371
 2573PP      PP12677   4.318  15.012  12.684 -0.0087 -0.1484 -0.1937
 2574PP      PP12678   8.409   6.193  13.729  0.4522  0.2194 -0.1166
 2575PP      PP12679   4.314   6.121   3.395  0.1510 -0.3503 -0.0985
 2576PP      PP12680  10.105  13.257   3.652  0.3459  0.2359 -0.1839
 2577PP      PP12681   3.043   2.970  10.603 -0.0542 -0.1731  0.2388
 2578PP      PP12682   5.616  10.158   3.531  0.1683  0.0085 -0.1203
 2579PP      PP12683  12.868  12.875   9.706 -0.1428 -0.0503 -0.0787
 2580PP      PP12684  11.064   7.775  10.372 -0.1308  0.2960  0.1955
 2581PP      PP12685   3.021   5.991   9.059  0.2473  0.0707  0.0602
 2582PP      PP12686  10.354   9.234  11.813 -0.0405  0.1075  0.0896
 2583PP      PP12687   6.737  13.605   2.558  0.3493 -0.1030 -0.1094
 2584PP      PP12688   4.292   6.083   4.164  0.1031  0.3272  0.1296
 2585PP      PP12689  10.527   8.421   0.548 -0.1188 -0.0513  0.0273
 2586PP      PP12690   9.450   5.795   0.194  0.0016  0.0003 -0.3155
 2587PP      PP12691  10.600   4.919  11.861 -0.0948 -0.0128  0.0256
 2588PP      PP12692   3.680   8.313   0.019 -0.1327 -0.3160  0.0680
 2589PP      PP12693   9.113  13.290  11.075  0.0367 -0.1242 -0.0328
 2590PP      PP12694  12.156   9.457   1.375 -0.1360  0.1062 -0.1408
 2591PP      PP12695   7.520  13.429  11.225  0.1408  0.2323  0.2271
 2592PP      PP12696   8.905  15.426  11.505 -0.0589 -0.1264 -0.2228
 2593PP      PP12697  11.257   7.808  12.179  0.3011 -0.0300 -0.2955
 2594PP      PP12698   4.916   7.055   2.188  0.0031 -0.2745  0.1818
 2595PP      PP12699   0.160  12.402   3.718 -0.1842 -0.0985  0.0134
 2596PP      PP12700   0.875   8.489   4.156 -0.2213  0.2044 -0.0356
 2597PP      PP12701  10.599  14.955  11.347 -0.1803 -0.0480  0.0637
 2598PP      PP12702   9.100   0.736  11.395 -0.0030  0.1533 -0.1010
 2599PP      PP12703  13.631   3.039   3.211 -0.2954 -0.2271  0.0270
 2600PP      PP12704  15.511   0.025   2.618 -0.0469  0.0532  0.1405
 2601PP      PP12705   7.433  10.089  11.975  0.0987 -0.0105 -0.0325
 2602PP      PP12706   5.482   4.913  11.589  0.3131 -0.2832  0.1022
 2603PP      PP12707  10.547  13.274   3.378 -0.2880 -0.3373 -0.2008
 2604PP      PP12708  10.082  15.083   3.486 -0.1005  0.0426 -0.3729
 2605PP      PP12709  15.555  13.583  13.769 -0.1413  0.0372  0.0747
 2606PP      PP12710  10.368   7.518  12.788  0.0245 -0.3349 -0.0345
 2607PP      PP12711   9.681  12.712   0.986  0.2939  0.2694 -0.2899
 2608PP      PP12712   9.972   1.180   2.249  0.1641 -0.1576  0.0038
 2609PP      PP12713  14.298   3.034  10.135 -0.2255 -0.0495 -0.0227
 2610PP      PP12714   4.818   3.909  10.043 -0.0240 -0.0470  0.1047
 2611PP      PP12715   5.802   9.743  13.092  0.0788 -0.0504 -0.0109
 2612PP      PP12716   3.259   6.562   0.397 -0.4899 -0.2213  0.0503
 2613PP      PP12717   1.836   5.443   3.200  0.0089  0.3127 -0.2561
 2614PP      PP12718  13.252  10.001   4.074  0.0255  0.1020 -0.0908
 2615PP      PP12719   7.343  13.563  10.100  0.0115 -0.0575 -0.0402
 2616PP      PP12720   6.146   9.568  12.844 -0.1575 -0.1680 -0.3190
 2617PP      PP12721   4.567   8.396  10.996  0.0124 -0.1282 -0.0437
 2618PP      PP12722   0.493   7.744   2.433  0.0990 -0.1735  0.1482
 2619PP      PP12723   7.548  13.796   3.665  0.3211  0.0159 -0.0437
 2620PP      PP12724   7.496   4.119   8.996 -0.1010 -0.1012  0.1320
 2621PP      PP12725   7.298   6.938   3.545 -0.0300 -0.1810 -0.0221
 2622PP      PP12726   6.931   5.646  10.034  0.1822  0.0705 -0.2100
 2623PP      PP12727   8.402  11.994   3.759  0.1831 -0.0654 -0.0388
 2624PP      PP12728  15.145   1.473   9.575 -0.2132 -0.1947 -0.0261
 2625PP      PP12729   8.148   9.632   2.178  0.0268  0.1063 -0.0253
 2626PP      PP12730  11.411  11.273  11.036 -0.2040  0.0314  0.0134
 2627PP      PP12731   3.455  11.589  12.400 -0.1142 -0.4718 -0.2284
 2628PP      PP12732  11.976  11.806  12.339 -0.0118 -0.1468  0.3366
 2629PP      PP12733   1.268   3.636   6.762  0.1164  0.0480  0.2675
 2630PP      PP12734   5.631   1.885  12.531  0.2723 -0.0020 -0.0094
 2631PP      PP12735  12.410   1.448  13.562 -0.2174  0.0583 -0.1965
 2632PP      PP12736  12.462   6.940   1.219  0.1823 -0.0053 -0.1833
 2633PP      PP12737  13.526  13.125  10.509 -0.2074  0.1782 -0.0014
 2634PP      PP12738   6.783  15.178   3.209  0.1780  0.2162 -0.0855
 2635PP      PP12739  14.854   6.811   3.260 -0.0635  0.2622 -0.0130
 2636PP      PP12740  13.866   7.149   1.580  0.1079  0.1360 -0.2736
 2637PP      PP12741   2.857  15.243   2.389  0.1447  0.0838  0.3105
 2638PP      PP12742  15.404   8.137   9.798 -0.0481  0.4304  0.0312
 2639PP      PP12743   3.882  13.365  12.243 -0.2896  0.4074 -0.3285
 2640PP      PP12744   4.837   2.902  10.133 -0.0236  0.2864 -0.0482
 2641PP      PP12745   5.273   9.776  10.315 -0.0831 -0.1916  0.0163
 2642PP      PP12746  10.815   1.223   3.810  0.0372  0.2373 -0.1901
 2643PP      PP12747   5.124   3.110   3.775  0.0771 -0.2268 -0.0913
 2644PP      PP12748   0.619   3.832   3.438 -0.0945 -0.1462 -0.2964
 2645PP      PP12749   9.159  13.212  13.060 -0.2076  0.4050 -0.0050
 2646PP      PP12750   0.087   4.449   3.663  0.0955  0.2727 -0.2254
 2647PP      PP12751  14.737   5.872  11.027  0.0845  0.0866  0.0233
 2648PP      PP12752   7.275   0.451  11.211  0.1102 -0.2286  0.0277
 2649PP      PP12753   0.545   8.900  12.978 -0.1358 -0.0324 -0.4118
 2650PP      PP12754  12.079  12.129  13.252  0.2709 -0.2056 -0.0203
 2651PP      PP12755  11.050   9.898   2.905  0.1363  0.0378  0.1594
 2652PP      PP12756   0.287   3.164   9.396  0.1266 -0.3165  0.1912
 2653PP      PP12757   4.862  10.066  10.784 -0.3197 -0.0170 -0.0720
 2654PP      PP12758  13.403   9.683  13.735 -0.1695 -0.2367 -0.0118
 2655PP      PP12759   7.118   3.054   8.608 -0.1928  0.0386  0.1611
 2656PP      PP12760   4.918   2.950  11.558  0.0908  0.0655 -0.0219
 2657PP      PP12761  15.096  10.380   0.208 -0.0918  0.1246 -0.0908
 2658PP      PP12762  10.512   8.676   3.637  0.0709  0.1881 -0.0477
 2659PP      PP12763   5.846   1.133   9.928  0.0144 -0.0397 -0.0348
 2660PP      PP12764  14.500  14.649  10.371  0.0107 -0.0467 -0.0165
 2661PP      PP12765   9.597   9.603  11.930 -0.1844  0.2145  0.1502
 2662PP      PP12766   1.101   0.732  13.200  0.1236 -0.2753  0.0512
 2663PP      PP12767   8.069   6.363   2.116  0.1141  0.0692  0.0138
 2664PP      PP12768   2.599  10.502   3.703 -0.2354  0.0035  0.1395
 2665PP      PP12769   3.857   1.029   3.561  0.2186 -0.0841 -0.2050
 2666PP      PP12770   3.612   6.336   1.304  0.1360  0.1536 -0.3586
 2667PP      PP12771   1.454  15.399   9.056 -0.0230 -0.2471 -0.0736
 2668PP      PP12772   8.295   0.569  12.148  0.2070  0.0467 -0.1294
 2669PP      PP12773   0.559   7.506   1.362 -0.3727 -0.1322 -0.2348
 2670PP      PP12774   1.824   3.686   3.889 -0.0466 -0.2009 -0.0769
 2671PP      PP12775  10.985   1.633   3.264  0.0469 -0.1674 -0.1192
 2672PP      PP12776   9.681   5.872   4.529 -0.5414  0.2801  0.0628
 2673PP      PP12777  14.253  11.161   4.201 -0.0450  0.0937  0.0504
 2674PP      PP12778  12.752   2.050   0.070 -0.2254  0.3136  0.2000
 2675PP      PP12779  11.727  13.533  12.879 -0.2474 -0.1290  0.1969
 2676PP      PP12780   1.244   6.946   4.443 -0.3057 -0.0662 -0.0898
 2677PP      PP12781   2.338   3.664  10.484  0.1607 -0.1337 -0.1234
 2678PP      PP12782  12.823   4.120  11.724  0.2283  0.3547 -0.2650
 2679PP      PP12783   9.847  12.664   9.716  0.0870  0.0895  0.0262
 2680PP      PP12784   2.600  15.454  11.812 -0.4012  0.1794  0.0145
 2681PP      PP12785  14.983   7.741   9.976 -0.2461  0.1019 -0.0576
 2682PP      PP12786  10.577   7.446   8.747  0.0148 -0.0596 -0.0225
 2683PP      PP12787   7.550  10.157   9.862 -0.0309  0.1026  0.3013
 2684PP      PP12788  11.498   3.731  12.003 -0.0457  0.2364 -0.1365
 2685PP      PP12789   5.952   5.400   1.578 -0.0415  0.0010 -0.1182
 2686PP      PP12790   2.254   6.580   1.451  0.1958  0.0206  0.2823
 2687PP      PP12791   4.721  14.542  10.097 -0.0455  0.1301  0.3042
 2688PP      PP12792   5.266  12.290  12.441  0.0445 -0.1407 -0.1179
 2689PP      PP12793  14.988  12.097   1.349  0.1864 -0.1296  0.4712
 2690PP      PP12794   9.956   3.842   8.576 -0.0435 -0.1471  0.1141
 2691PP      PP12795   4.791   1.048   0.374  0.0218 -0.2132 -0.2757
 2692PP      PP12796   0.532   2.789   4.453  0.1397 -0.2580 -0.0929
 2693PP      PP12797   6.196   1.133  10.311 -0.0118  0.1733  0.1388
 2694PP      PP12798  12.848   0.338  10.647  0.0418 -0.0332  0.1955
 2695PP      PP12799   8.258   1.302  11.425  0.0165 -0.1061 -0.3828
 2696PP      PP12800   0.639   2.472   2.935  0.1463 -0.0999  0.1402
 2697PP      PP12801  13.050   3.159  11.924  0.0394 -0.0436 -0.1919
 2698PP      PP12802   3.477   6.800   9.338  0.2125 -0.0434 -0.1674
 2699PP      PP12803  12.985   4.789   2.832 -0.0583 -0.1326 -0.3140
 2700PP      PP12804   3.818   4.765   3.733  0.0013 -0.0925 -0.0300
 2701PP      PP12805   0.420   1.329   2.371 -0.1590 -0.4856 -0.0119
 2702PP      PP12806   7.646  15.278  10.379 -0.1503 -0.3437  0.0368
 2703PP      PP12807   6.522   8.500  11.990 -0.0311 -0.2494  0.3024
 2704PP      PP12808   5.959   9.444   3.129  0.0337  0.0621 -0.1830
 2705PP      PP12809  15.371   6.806   4.321 -0.1870  0.2940  0.0734
 2706PP      PP12810   7.122  14.376   0.166  0.2489 -0.1663  0.3803
 2707PP      PP12811  13.169   6.819  11.291  0.1585 -0.2887 -0.0126
 2708PP      PP12812   8.726   7.281   0.815  0.0382 -0.3179  0.1529
 2709PP      PP12813  15.372  10.294   3.060 -0.1895 -0.2399  0.3179
 2710PP      PP12814  12.209  15.715  12.208  0.2701 -0.4345 -0.0500
 2711PP      PP12815  13.803   4.112  12.665  0.0333  0.1861 -0.0383
 2712PP      PP12816   3.472   2.816   0.991 -0.2158 -0.0146 -0.2171
 2713PP      PP12817   6.061  11.807   4.161 -0.1522  0.4823 -0.1631
 2714PP      PP12818   7.913  14.514   9.264  0.4315 -0.0038  0.1237
 2715PP      PP12819   5.428  12.184  10.503 -0.1407  0.0540 -0.1041
 2716PP      PP12820   6.869  12.992   3.281 -0.0328  0.4446 -0.0048
 2717PP      PP12821   8.147   2.524  10.316  0.0803 -0.0787 -0.0180
 2718PP      PP12822   1.402   9.039  11.801  0.0073 -0.3747  0.3037
 2719PP      PP12823   2.161  10.327   0.380 -0.1444 -0.1629 -0.0820
 2720PP      PP12824  14.187  10.974   1.620 -0.1452 -0.0777  0.1790
 2721PP      PP12825  12.214   0.634  11.465 -0.3095 -0.0493 -0.0844
 2722PP      PP12826  14.921  13.708   1.722 -0.1653  0.0191  0.3910
 2723PP      PP12827  10.398   9.113  10.255 -0.2678  0.1478 -0.0852
 2724PP      PP12828   4.612  14.518   4.867  0.2111  0.1397 -0.4009
 2725PP      PP12829  14.353   8.684  12.346  0.0762  0.0868 -0.0084
 2726PP      PP12830   1.999   7.495  13.064 -0.0574 -0.1173  0.3239
 2727PP      PP12831  12.877  11.580   3.420  0.1143 -0.1185  0.2054
 2728PP      PP12832   1.535   8.673  12.738  0.1328 -0.0930 -0.0423
 2729PP      PP12833  11.096   8.312   0.756 -0.1703 -0.1515 -0.2191
 2730PP      PP12834  12.620   9.341   0.701 -0.1892  0.1738 -0.0369
 2731PP      PP12835   8.490   3.822  12.437  0.0647  0.3050 -0.2336
 2732PP      PP12836   6.312  11.352   2.865  0.3577 -0.1264 -0.1767
 2733PP      PP12837   3.352   9.009  10.733  0.0127  0.2022  0.1105
 2734PP      PP12838   1.684   5.638  11.052  0.0829  0.0790 -0.2030
 2735PP      PP12839   9.559   6.342   4.347 -0.0477 -0.1220 -0.3492
 2736PP      PP12840  11.952   0.830   1.533 -0.1698  0.2996 -0.0866
 2737PP      PP12841   3.328   1.177   1.668 -0.1459 -0.2270 -0.1034
 2738PP      PP12842   7.977  15.346   2.503  0.1422 -0.0602 -0.2287
 2739PP      PP12843   2.653   8.284   1.526  0.2332  0.0234 -0.0127
 2740PP      PP12844   1.054   4.281  11.325 -0.1921  0.4662  0.1184
 2741PP      PP12845   4.651   8.993  13.147 -0.1859 -0.0132  0.1366
 2742PP      PP12846   7.600   8.764  10.778  0.2696  0.0648  0.3251
 2743PP      PP12847   6.340   3.585   9.164  0.0726  0.2356 -0.0446
 2744PP      PP12848   3.588   9.582   4.327 -0.0813 -0.0237 -0.1685
 2745PP      PP12849  11.743   1.581   2.213 -0.2986  0.2641 -0.3367
 2746PP      PP12850   4.410   2.366   9.811  0.6046  0.0543 -0.0151
 2747PP      PP12851  11.684   7.414   2.032  0.0562 -0.0490 -0.1022
 2748PP      PP12852   4.384   6.452  12.117  0.1347  0.1199  0.3645
 2749PP      PP12853   1.154   9.526   2.946 -0.0929  0.2736 -0.1369
 2750PP      PP12854   4.349   0.814  11.236  0.0099  0.3273  0.1603
 2751PP      PP12855   6.892   0.209   1.852 -0.0863 -0.2423  0.0952
 2752PP      PP12856   7.969  14.244   4.418 -0.0599 -0.0461  0.3052
 2753PP      PP12857   0.593  10.948   0.185  0.2888  0.1595  0.1492
 2754PP      PP12858   3.134   4.919   0.197  0.1658  0.2594 -0.1616
 2755PP      PP12859   9.500   9.654  10.050  0.0983  0.0127 -0.0314
 2756PP      PP12860  13.161   1.499   9.881 -0.0649  0.1164  0.0312
 2757PP      PP12861  15.632  10.282   9.874 -0.0685 -0.2625 -0.0160
 2758PP      PP12862   0.128   6.080   9.947 -0.1307  0.1832 -0.0354
 2759PP      PP12863  13.779   7.545  10.421  0.5089 -0.0045 -0.0454
 2760PP      PP12864   3.172  12.536  11.582 -0.0410 -0.0646 -0.1414
 2761PP      PP12865  10.636   0.108   3.753  0.0235 -0.1206 -0.1170
 2762PP      PP12866   1.646   2.056  12.866 -0.0139 -0.2396 -0.3414
 2763PP      PP12867   0.154   3.158   2.981  0.4054  0.1589  0.2421
 2764PP      PP12868  11.006   5.863   4.438 -0.0165  0.0254  0.1890
 2765PP      PP12869  14.649   5.308   8.386  0.1493 -0.4092  0.1085
 2766PP      PP12870  10.315   5.571   1.984 -0.2872 -0.1532 -0.1405
 2767PP      PP12871   5.140   6.266   1.738  0.1315 -0.2570  0.0522
 2768PP      PP12872   0.714   4.574   1.062  0.1313  0.2830 -0.1451
 2769PP      PP12873  12.527  13.129   3.121  0.0614  0.1471  0.1201
 2770PP      PP12874  13.182   1.078   9.619 -0.0131 -0.2031 -0.0319
 2771PP      PP12875   9.998   8.737  13.137  0.2682  0.1556  0.0338
 2772PP      PP12876   7.010   2.118   1.854  0.1475 -0.1020 -0.3863
 2773PP      PP12877   2.906  13.702  12.407 -0.2308  0.1357  0.4231
 2774PP      PP12878  11.760  11.941  11.802  0.2301 -0.1055 -0.3496
 2775PP      PP12879   5.028   6.800   1.278 -0.1178 -0.0280 -0.0470
 2776PP      PP12880  14.899   1.896   9.618 -0.0881 -0.1557 -0.1937
 2777PP      PP12881  14.260   0.469   1.158  0.2983 -0.1370  0.0222
 2778PP      PP12882   4.114  13.367   1.090 -0.1831  0.0898  0.2845
 2779PP      PP12883  14.886  10.244   0.654 -0.3069 -0.1503  0.1921
 2780PP      PP12884   0.744  11.291   0.628 -0.3094  0.1573  0.2732
 2781PP      PP12885  12.352  13.723   0.165 -0.2225  0.0652  0.2323
 2782PP      PP12886   8.400   5.101  11.171  0.0952  0.0616  0.1485
 2783PP      PP12887   3.039   3.965   9.305  0.3244  0.0076 -0.0290
 2784PP      PP12888   0.692  10.365   9.719  0.2483 -0.1960  0.2027
 2785PP      PP12889  15.591  12.585   0.854 -0.0386 -0.0947  0.0889
 2786PP      PP12890   7.205   4.536   9.282  0.0421  0.1947 -0.3254
 2787PP      PP12891   7.667   3.610  10.244  0.0460  0.2047 -0.1160
 2788PP      PP12892  15.644   4.356  12.754 -0.1241 -0.1235 -0.1445
 2789PP      PP12893   6.442  15.311   2.492  0.1131  0.0005  0.1490
 2790PP      PP12894   4.421   3.774   0.278 -0.0290 -0.0105 -0.2931
 2791PP      PP12895   9.319  10.261   0.299  0.1227  0.3225 -0.0299
 2792PP      PP12896   9.602   1.848   8.514 -0.4527  0.4507  0.2160
 2793PP      PP12897   9.718   6.333   3.848 -0.2779  0.2383 -0.0319
 2794PP      PP12898   2.680   2.806  12.857 -0.2206 -0.0399  0.2414
 2795PP      PP12899  13.296  11.106  12.096  0.0565  0.0901 -0.2606
 2796PP      PP12900  10.175   3.166  13.740 -0.1752  0.0537 -0.0998
 2797PP      PP12901  12.383  12.688   4.854 -0.1673 -0.4227  0.0557
 2798PP      PP12902   2.369   6.110   1.183 -0.4125 -0.1311 -0.0412
 2799PP      PP12903   8.294  11.530  12.334 -0.2952 -0.0763 -0.0911
 2800PP      PP12904   3.191   4.001   1.394  0.1696  0.1053  0.3516
 2801PP      PP12905   7.905   0.675   3.649 -0.1432 -0.1931 -0.1054
 2802PP      PP12906   6.716   5.215   0.324  0.0843 -0.1803 -0.3449
 2803PP      PP12907  10.854   0.752   0.590 -0.3563  0.0957 -0.2087
 2804PP      PP12908  10.685   7.932   9.003  0.1609  0.0010 -0.0477
 2805PP      PP12909   8.705   2.283  12.861 -0.0451 -0.0148  0.1642
 2806PP      PP12910   2.218  15.183  10.982  0.3091 -0.1079  0.2088
 2807PP      PP12911   8.484  15.549   3.226  0.1804  0.0153 -0.0495
 2808PP      PP12912  15.106   2.318  11.677 -0.2864 -0.0047 -0.1328
 2809PP      PP12913  12.967  13.465   0.806 -0.2482 -0.0499 -0.1399
 2810PP      PP12914   2.614   1.497   2.268  0.5151 -0.2194  0.1896
 2811PP      PP12915  13.413   8.139   2.974  0.1766  0.0675 -0.0625
 2812PP      PP12916   1.883   3.816   4.382  0.0623  0.0170 -0.1407
 2813PP      PP12917   9.805   0.614  13.493 -0.1428  0.2256 -0.2379
 2814PP      PP12918  12.359  11.613   2.014 -0.1828 -0.0198 -0.0395
 2815PP      PP12919  13.903   0.873   4.516 -0.2562 -0.0482 -0.2234
 2816PP      PP12920   7.352   8.126   4.403  0.0333 -0.0221  0.1503
 2817PP      PP12921   2.763  11.802   0.381  0.4129 -0.1294  0.2631
 2818PP      PP12922  13.217   4.958  11.354 -0.1416  0.0369  0.2725
 2819PP      PP12923   3.039   0.198  12.945 -0.1268 -0.0935  0.2980
 2820PP      PP12924   7.912  10.110   0.686  0.0188  0.0045  0.0421
 2821PP      PP12925   0.512   7.917   1.027 -0.1331 -0.0988  0.0217
 2822PP      PP12926   1.779  12.632   0.916 -0.2685  0.1217 -0.2012
 2823PP      PP12927  13.599   7.981   3.365  0.1724  0.1126  0.3781
 2824PP      PP12928   6.868  15.146  11.422 -0.0875  0.0700 -0.0901
 2825PP      PP12929  11.338   0.412  13.360  0.0205 -0.3471 -0.4657
 2826PP      PP12930   4.842  14.408  12.298 -0.1939  0.0795 -0.0331
 2827PP      PP12931  15.207   1.071   2.677 -0.1222 -0.2065  0.0890
 2828PP      PP12932   7.176   8.127  11.389 -0.1573 -0.2828  0.0422
 2829PP      PP12933   7.193   6.592   4.843  0.0402  0.0908 -0.1548
 2830PP      PP12934  11.284   1.295  10.493 -0.0743 -0.2236  0.0216
 2831PP      PP12935   0.594   7.126   8.774 -0.0086  0.2848  0.3586
 2832PP      PP12936  13.411  14.264   4.955  0.3425 -0.1258  0.0882
 2833PP      PP12937   0.148  12.528   0.294  0.1300  0.2874 -0.2640
 2834PP      PP12938  14.346   5.111  10.526 -0.1336 -0.0271  0.0757
 2835PP      PP12939  15.409  13.682  10.131 -0.3278  0.3341  0.0309
 2836PP      PP12940   5.970   3.089   0.697  0.0406 -0.1500  0.0081
 2837PP      PP12941   5.220   4.251   0.490  0.0296  0.2617  0.2688
 2838PP      PP12942  10.494   0.517  11.576 -0.0411  0.3539  0.0731
 2839PP      PP12943   9.987   4.379   1.831 -0.1240  0.1169  0.2577
 2840PP      PP12944  13.584   8.964  11.221 -0.2578  0.1600 -0.2223
 2841PP      PP12945  14.756  13.128  12.682  0.1934 -0.3876 -0.1469
 2842PP      PP12946  14.399   7.976   9.384 -0.1953 -0.0857 -0.0844
 2843PP      PP12947   8.291   1.334  13.158 -0.1244  0.2668  0.4394
 2844PP      PP12948  13.180  14.164  10.631  0.0453  0.1283 -0.1138
 2845PP      PP12949  12.183  14.046   1.036  0.1065  0.0641 -0.1883
 2846PP      PP12950  13.728   4.110   9.719 -0.0885  0.3312 -0.1471
 2847PP      PP12951   0.545   7.726   3.391 -0.2807  0.3595  0.1397
 2848PP      PP12952   3.045   4.366  12.469 -0.2243 -0.1943 -0.1971
 2849PP      PP12953  11.772   5.051  13.205  0.1132 -0.1769 -0.1500
 2850PP      PP12954   9.904   0.919   0.671  0.1099 -0.4076 -0.4921
 2851PP      PP12955   2.553  11.453  13.662  0.0071 -0.2323 -0.1386
 2852PP      PP12956   5.363  15.537  10.791  0.1403 -0.0842  0.3240
 2853PP      PP12957   4.919   8.126  11.251 -0.2278  0.2379  0.0088
 2854PP      PP12958  14.811   2.376  12.694  0.2555 -0.0566  0.1477
 2855PP      PP12959   9.957  14.767   9.322 -0.1767 -0.0854 -0.0278
 2856PP      PP12960  13.760   8.095   0.440  0.1813  0.0028  0.0779
 2857PP      PP12961   5.331   8.968   2.035  0.3693  0.1583  0.2914
 2858PP      PP12962   2.210   5.814   2.410  0.4077  0.2389 -0.0593
 2859PP      PP12963  12.377   1.765   0.205  0.3288 -0.1291 -0.2588
 2860PP      PP12964  11.894   9.526   1.882 -0.0464  0.2573 -0.0962
 2861PP      PP12965  12.039  14.345  11.230  0.0299 -0.1018  0.2106
 2862PP      PP12966  14.028   5.134  13.668  0.3021  0.1389  0.0134
 2863PP      PP12967   9.353  15.556  11.650  0.0271 -0.0271  0.2497
 2864PP      PP12968  13.156  12.012  12.103 -0.2123 -0.0171  0.2862
 2865PP      PP12969   7.586  12.371  11.141 -0.1446 -0.5151  0.0878
 2866PP      PP12970  11.356  13.073  11.336  0.1813 -0.1498 -0.1748
 2867PP      PP12971   9.831  11.997   1.567  0.0547  0.0072  0.2056
 2868PP      PP12972   2.625   5.513   3.086  0.1517  0.0586  0.0904
 2869PP      PP12973  12.971   7.280   3.534 -0.1651  0.3705 -0.0898
 2870PP      PP12974   5.339   4.363   3.539 -0.1340 -0.1433  0.0223
 2871PP      PP12975   0.737  13.874   4.485 -0.0870  0.0151  0.2403
 2872PP      PP12976   1.236   6.926  13.035 -0.0227  0.1136  0.3974
 2873PP      PP12977  14.532  10.623   0.398 -0.2135 -0.1600  0.3391
 2874PP      PP12978   4.080   9.691  10.833 -0.1921  0.2705  0.0832
 2875PP      PP12979   3.687   1.857  11.077  0.1305 -0.0733 -0.1446
 2876PP      PP12980   4.641  12.050  10.552  0.1830  0.0446  0.2447
 2877PP      PP12981  13.926   0.272  12.057 -0.0561 -0.1404 -0.3089
 2878PP      PP12982  10.964   0.977   1.395  0.0647 -0.0979  0.1574
 2879PP      PP12983  12.967  12.183  10.398  0.0661 -0.0006  0.2215
 2880PP      PP12984   8.897   3.043   0.720 -0.2156  0.0563 -0.2402
 2881PP      PP12985   5.805   7.240   3.001 -0.2111 -0.0538 -0.0526
 2882PP      PP12986   6.881   9.529   0.597 -0.3538  0.1539 -0.1246
 2883PP      PP12987  12.291   9.409   2.282 -0.3444  0.1809 -0.2679
 2884PP      PP12988   5.777   0.208   4.087 -0.1556 -0.3331 -0.0785
 2885PP      PP12989   8.926   4.966   1.705 -0.3370 -0.0378 -0.1231
 2886PP      PP12990   7.034  12.738   9.156 -0.0426  0.0120  0.2283
 2887PP      PP12991   4.304  12.422   1.939  0.1179 -0.3480  0.2156
 2888PP      PP12992   9.243   2.515  13.334 -0.3577 -0.2580  0.2590
 2889PP      PP12993  11.394   3.267   2.498  0.1521  0.1681 -0.1052
 2890PP      PP12994   6.983   4.985  10.548 -0.0139 -0.3564  0.2604
 2891PP      PP12995   0.136  12.010  10.396 -0.1199  0.0853  0.3220
 2892PP      PP12996   4.960  12.054   1.261 -0.1753  0.1467 -0.0653
 2893PP      PP12997  11.754   4.302  13.483 -0.2444 -0.0820  0.0255
 2894PP      PP12998   3.423   3.644   0.614  0.3357 -0.2317 -0.0398
 2895PP      PP12999   3.635   0.925  10.014 -0.6089  0.0380  0.1647
 2896PP      PP13000   9.977   1.777  12.424  0.1531  0.0084 -0.2139
 2897PP      PP13001  12.618  11.529  12.013  0.1762 -0.0925 -0.0801
 2898PP      PP13002   8.368  13.133   3.831  0.2051 -0.0253 -0.1628
 2899PP      PP13003   3.863  15.497   2.677 -0.2178 -0.2766  0.3845
 2900PP      PP13004   8.409  15.056   4.374  0.2030  0.4661  0.2587
 2901PP      PP13005   1.747   5.821   2.685  0.1032  0.2312  0.3113
 2902PP      PP13006  12.954   3.780   3.496 -0.0013 -0.0205  0.2412
 2903PP      PP13007   4.006  15.214   1.793 -0.0898 -0.0338 -0.0253
 2904PP      PP13008   1.383  14.366   2.055 -0.0609  0.1604  0.3924
 2905PP      PP13009   9.936   4.304  11.354 -0.4242  0.0446 -0.0544
 2906PP      PP13010   6.174   1.551   9.528  0.2838  0.0976 -0.0386
 2907PP      PP13011   1.281  15.421  10.863 -0.2282 -0.1731 -0.1843
 2908PP      PP13012   5.544   6.008   0.137 -0.0984  0.2106  0.2782
 2909PP      PP13013   6.324   4.578   8.821 -0.2247 -0.0269 -0.1067
 2910PP      PP13014  12.005   3.618   8.649  0.1142 -0.1335  0.2967
 2911PP      PP13015   8.898   4.638  12.506 -0.2163  0.1961 -0.2632
 2912PP      PP13016   8.442   7.324  11.591  0.3565  0.0852  0.0372
 2913PP      PP13017   2.710   9.449   3.925 -0.0625 -0.0174  0.0507
 2914PP      PP13018   9.159   2.378   9.837 -0.0491 -0.0924 -0.0338
 2915PP      PP13019   3.379  14.630  11.294 -0.1575 -0.1281 -0.2018
 2916PP      PP13020   9.952   9.595   1.870 -0.1811  0.0268  0.1721
 2917PP      PP13021   8.951   3.799  13.704 -0.1342 -0.2110 -0.1676
 2918PP      PP13022  12.306  13.969   3.462  0.2956 -0.2129 -0.0241
 2919PP      PP13023   0.740   9.203   9.664  0.4418  0.1686 -0.1144
 2920PP      PP13024   0.822   0.215   4.629 -0.0751 -0.0030  0.0380
 2921PP      PP13025   3.306   6.254   1.729 -0.0503 -0.0590  0.3128
 2922PP      PP13026   9.479   8.346  13.633 -0.0042  0.0818 -0.0888
 2923PP      PP13027   8.229  11.492   4.938  0.1567 -0.1615 -0.1155
 2924PP      PP13028   3.157   8.104   1.253 -0.0371  0.0513 -0.2349
 2925PP      PP13029   9.826  10.301   3.359  0.0513  0.1499  0.2341
 2926PP      PP13030   6.071  14.087   1.523 -0.0862 -0.0971 -0.2506
 2927PP      PP13031  15.114   0.183   2.925 -0.1844 -0.4395  0.1498
 2928PP      PP13032   5.810   7.902   0.883  0.0923 -0.1730  0.1582
 2929PP      PP13033   8.630   9.375   0.899 -0.2950  0.1036  0.1528
 2930PP      PP13034   4.220  14.313   4.375  0.1826  0.3566 -0.0480
 2931PP      PP13035   3.143   0.313   3.521 -0.1892 -0.0178 -0.0134
 2932PP      PP13036   1.306  11.762   1.597  0.3168  0.1696  0.1711
 2933PP      PP13037   7.109   9.814   2.346 -0.0926 -0.1996  0.3719
 2934PP      PP13038  13.396   3.892   8.783 -0.0827  0.1513 -0.1471
 2935PP      PP13039  13.632   2.212   8.549  0.3394  0.0702  0.1322
 2936PP      PP13040   6.041   3.797   0.418 -0.2259  0.1525 -0.0522
 2937PP      PP13041   0.499  14.259   2.479  0.0541  0.3956 -0.2495
 2938PP      PP13042   3.020   8.121  13.139  0.1790 -0.4056 -0.4551
 2939PP      PP13043   3.517  15.330  12.872  0.2473 -0.3031  0.1359
 2940PP      PP13044   2.062   1.031  13.108  0.1776 -0.1572  0.0935
 2941PP      PP13045   9.842   2.932   9.631  0.3471 -0.0443  0.2059
 2942PP      PP13046  11.781  11.717  10.383  0.1611 -0.1608 -0.0395
 2943PP      PP13047  14.937  13.026   0.667  0.3726 -0.0243 -0.1210
 2944PP      PP13048  12.505   2.304   3.826  0.0102  0.0285  0.1146
 2945PP      PP13049  13.884   2.714   8.878 -0.1818  0.1626  0.1093
 2946PP      PP13050   3.392   8.744  12.835 -0.0367 -0.0857 -0.1159
 2947PP      PP13051  14.553  15.478   3.312  0.1344 -0.1839 -0.4165
 2948PP      PP13052   8.355  13.517   4.735  0.1438 -0.1774  0.0177
 2949PP      PP13053  11.206   5.145   9.423  0.1216 -0.0209  0.4090
 2950PP      PP13054   7.840   0.434  13.240 -0.3274  0.0812  0.3197
 2951PP      PP13055   4.698  12.938   0.623 -0.0990 -0.1685 -0.0987
 2952PP      PP13056  13.544   8.069  11.671 -0.1108  0.1010  0.0626
 2953PP      PP13057  14.428  11.803   3.888 -0.0503 -0.2095  0.0678
 2954PP      PP13058   3.378   9.880   1.980  0.1268  0.3358 -0.0430
 2955PP      PP13059   8.778   4.656   4.073 -0.0252  0.1348 -0.0386
 2956PP      PP13060  13.033   0.930  11.287 -0.3539 -0.4016  0.1619
 2957PP      PP13061   9.978  12.740  11.195 -0.2282  0.1538  0.0628
 2958PP      PP13062  14.975   4.583   3.418 -0.2325 -0.1647  0.0514
 2959PP      PP13063   8.025  11.543   9.361  0.3096  0.2872  0.3822
 2960PP      PP13064  11.491   1.712   0.543  0.2892  0.2357  0.0560
 2961PP      PP13065   0.650  11.686  12.058  0.0423 -0.0491 -0.0968
 2962PP      PP13066   4.716   5.288   9.593  0.1869 -0.4727 -0.0325
 2963PP      PP13067   6.499   2.668  12.814  0.2826 -0.0256  0.0672
 2964PP      PP13068  12.571   2.533   0.809 -0.0651  0.0018 -0.2557
 2965PP      PP13069   0.975  10.017   3.727 -0.1092 -0.0869  0.0223
 2966PP      PP13070   9.076   8.661   9.698  0.2725  0.1070 -0.4465
 2967PP      PP13071   1.320  11.187   2.224  0.2176 -0.0211 -0.1522
 2968PP      PP13072   0.236   2.214  11.150 -0.3156 -0.0309 -0.0675
 2969PP      PP13073   3.032   6.206   2.881 -0.0242 -0.0538 -0.0538
 2970PP      PP13074   0.426  12.428   3.316  0.1461  0.2755 -0.1885
 2971PP      PP13075   4.376  12.769   1.574  0.0828  0.0557  0.1768
 2972PP      PP13076   0.044  10.600  11.199 -0.0676  0.1029  0.1321
 2973PP      PP13077  10.260   2.799  11.254  0.0851  0.1390  0.0799
 2974PP      PP13078   3.152   1.090  11.780  0.0171 -0.0396  0.3282
 2975PP      PP13079   5.647   8.741  12.888 -0.4238  0.4072 -0.0544
 2976PP      PP13080   0.771   4.381   0.505 -0.1403 -0.2917  0.1159
 2977PP      PP13081   4.967  12.637  13.563  0.0658  0.0270 -0.1545
 2978PP      PP13082   9.534   1.872  10.312 -0.0222 -0.0782  0.0408
 2979PP      PP13083   8.958  15.405  13.062  0.1176 -0.3535 -0.3548
 2980PP      PP13084  10.137   6.226  11.616 -0.0785 -0.0539  0.0034
 2981PP      PP13085  13.501  10.745   2.073  0.0899  0.0054  0.2068
 2982PP      PP13086   9.768  10.741  11.212 -0.1425  0.1370 -0.0050
 2983PP      PP13087  14.085  11.930   9.307 -0.0332  0.1762  0.0739
 2984PP      PP13088  11.920  12.041   3.637 -0.1784 -0.1179  0.1037
 2985PP      PP13089   5.269   6.709   9.512  0.0429 -0.2931 -0.0489
 2986PP      PP13090  11.059   1.309  11.375  0.2914 -0.1591 -0.1343
 2987PP      PP13091   6.538   6.924  10.225  0.0312  0.0214  0.0571
 2988PP      PP13092   8.661   9.633  11.950  0.0313 -0.1379 -0.0149
 2989PP      PP13093   6.564   8.191   3.126 -0.0006 -0.2201  0.0154
 2990PP      PP13094   6.512   8.521   0.307 -0.0227  0.1137 -0.0705
 2991PP      PP13095  14.665   0.095   9.602  0.1283  0.0697 -0.1655
 2992PP      PP13096   2.330   6.574  10.957 -0.3267  0.0010 -0.3361
 2993PP      PP13097  10.610  11.836   4.010 -0.0568 -0.1547  0.1710
 2994PP      PP13098  10.193   4.277   8.753 -0.1909  0.0215 -0.0340
 2995PP      PP13099  14.623   2.527   3.999 -0.2436  0.2724 -0.1029
 2996PP      PP13100  11.661  13.605   9.527  0.3774 -0.0121  0.2785
 2997PP      PP13101   1.353   0.803   1.295  0.3665 -0.2952 -0.2331
 2998PP      PP13102   2.406  12.566   3.688  0.0939  0.0275 -0.0016
 2999PP      PP13103  10.191   4.268   2.636  0.0251 -0.1406  0.1229
 3000PP      PP13104   7.678   8.353  13.229 -0.2310 -0.1669  0.1608
 3001PP      PP13105   6.154   8.991   2.874  0.1341  0.0913 -0.0574
 3002PP      PP13106  13.579   7.730  11.278 -0.2217 -0.0075 -0.0718
 3003PP      PP13107   5.733   9.601   0.359 -0.2518  0.0426 -0.0864
 3004PP      PP13108   4.824  15.596   1.458  0.0452  0.2489  0.1576
 3005PP      PP13109   0.292   8.837  12.521  0.0572 -0.1520  0.0049
 3006PP      PP13110  13.503   3.120   9.584 -0.1087  0.1393 -0.0637
 3007PP      PP13111   3.390   0.894   0.970 -0.0645 -0.3212 -0.3675
 3008PP      PP13112  10.102  11.201  10.275  0.2595  0.1943  0.1082
 3009PP      PP13113   1.465  14.053  12.475  0.1064 -0.3732  0.0298
 3010PP      PP13114   4.200  11.647   0.074 -0.0366  0.2323  0.0975
 3011PP      PP13115   8.707   5.465  10.987  0.1808  0.0053  0.1971
 3012PP      PP13116   8.542   1.193   0.687  0.1905 -0.3903  0.1226
 3013PP      PP13117  10.073  14.104   2.875  0.3686  0.0123 -0.4623
 3014PP      PP13118   4.503  14.420   2.755  0.0766 -0.0496  0.1370
 3015PP      PP13119   6.079   3.590   0.906 -0.0119  0.1353  0.0051
 3016PP      PP13120   7.535   3.887   3.166  0.1758 -0.0672 -0.0396
 3017PP      PP13121   1.307  10.065   0.509 -0.0998 -0.3494 -0.1340
 3018PP      PP13122  12.800   5.550   1.577 -0.0904  0.1611  0.3068
 3019PP      PP13123   3.839   9.544  10.109  0.0350 -0.1132  0.3051
 3020PP      PP13124   5.067   4.573   9.441  0.0710 -0.0492  0.1129
 3021PP      PP13125   2.283   7.956   9.837 -0.0646 -0.1658 -0.1237
 3022PP      PP13126  11.073  14.587  13.731  0.0774  0.2047  0.0323
 3023PP      PP13127   2.017   8.470  12.059  0.0998 -0.0565  0.0016
 3024PP      PP13128   3.366   9.127   0.462 -0.1105  0.3235  0.0157
 3025PP      PP13129  14.762   6.058   2.375 -0.0805  0.0349 -0.0586
 3026PP      PP13130   8.151   0.535  11.177 -0.0280 -0.2285 -0.0645
 3027PP      PP13131   6.991   5.792   3.869  0.1209  0.0095 -0.4569
 3028PP      PP13132   0.589   7.626   8.808  0.2217  0.0357  0.2026
 3029PP      PP13133  13.372   3.379   9.089 -0.2628 -0.1227  0.2004
 3030PP      PP13134   5.543  11.884   4.144 -0.0057 -0.0248 -0.1069
 3031PP      PP13135   1.504   5.153   1.359  0.0654 -0.1939  0.0340
 3032PP      PP13136  14.928  12.940  11.494  0.0870  0.2050  0.0524
 3033PP      PP13137  15.245   7.259  12.821  0.0298  0.0273 -0.1998
 3034PP      PP13138   6.689  10.409  10.808  0.1906 -0.0112 -0.1654
 3035PP      PP13139   2.415  10.129  11.692 -0.3900  0.1659  0.2552
 3036PP      PP13140  12.706   4.741   9.606 -0.0868 -0.0692 -0.2607
 3037PP      PP13141  11.035   3.821  13.227 -0.0675  0.1192 -0.2234
 3038PP      PP13142   0.776   9.765   1.175 -0.2730  0.2095  0.0566
 3039PP      PP13143   9.778   3.441   2.281 -0.0948  0.1942  0.3413
 3040PP      PP13144  15.321  13.941   0.756 -0.0531 -0.2473  0.1969
 3041PP      PP13145   3.197   8.739   9.664  0.2072 -0.2190  0.1930
 3042PP      PP13146   5.306   0.026  13.523 -0.1731 -0.0876  0.2691
 3043PP      PP13147   7.557   6.795   3.945  0.3014  0.2543  0.0241
 3044PP      PP13148   9.255  13.406   8.320 -0.3071 -0.2232  0.1464
 3045PP      PP13149   5.353   7.953   1.095  0.0312 -0.1861 -0.2009
 3046PP      PP13150  12.981  12.829   3.458  0.0978  0.2886 -0.2452
 3047PP      PP13151  14.201   3.715   1.644 -0.1970 -0.0983 -0.1509
 3048PP      PP13152   3.606  13.176   2.513 -0.0492 -0.2989  0.0409
 3049PP      PP13153  12.424   9.713  12.039  0.1019  0.0919 -0.1651
 3050PP      PP13154   4.324  12.316  12.880 -0.1173  0.1045  0.1198
 3051PP      PP13155  11.664   9.191   9.555  0.3401  0.1183  0.0097
 3052PP      PP13156  10.970   8.226  10.301 -0.7594 -0.1494 -0.3569
 3053PP      PP13157  14.967  11.882   2.678  0.0039 -0.3322  0.2723
 3054PP      PP13158   1.064   3.242   3.672  0.1195  0.1466 -0.2781
 3055PP      PP13159  11.137   0.692  12.270  0.1479  0.2048 -0.2554
 3056PP      PP13160   1.058  13.591  11.177  0.1767 -0.0081 -0.3647
 3057PP      PP13161  15.156  11.389   4.396 -0.0200 -0.0034 -0.1639
 3058PP      PP13162  11.655   0.139  13.019  0.0219 -0.2800  0.0156
 3059PP      PP13163   0.401   5.502   9.381  0.0811 -0.1906  0.2418
 3060PP      PP13164   4.838   5.495   0.473 -0.0248  0.0601 -0.1146
 3061PP      PP13165  13.266   0.997   2.003  0.0969 -0.0631 -0.2637
 3062PP      PP13166   8.056   1.239  12.692 -0.0982 -0.0036 -0.0729
 3063PP      PP13167   4.941   9.947   2.792  0.0503 -0.1871 -0.0237
 3064PP      PP13168   7.666   7.372   2.048  0.1607 -0.0644 -0.3554
 3065PP      PP13169  13.547  10.384   4.385 -0.1916  0.1118 -0.0442
 3066PP      PP13170   0.073  11.814   0.951  0.1636  0.1114 -0.0611
 3067PP      PP13171  13.117   8.022   1.779  0.0160  0.2188  0.0315
 3068PP      PP13172   3.603   2.261   1.475 -0.1706 -0.0585  0.2248
 3069PP      PP13173   8.823   0.099   3.954 -0.1113 -0.0384 -0.2018
 3070PP      PP13174   0.479   2.983   9.896 -0.0540  0.1913 -0.1644
 3071PP      PP13175  15.463   4.113   3.604 -0.0642 -0.1499 -0.0030
 3072PP      PP13176  15.446   0.189  12.376  0.0716 -0.0688 -0.2694
 3073PP      PP13177   7.738   0.079   9.118  0.0453  0.1738  0.3104
 3074PP      PP13178   5.431   9.978   0.038  0.1667 -0.2135  0.1321
 3075PP      PP13179  10.012  10.788   9.709 -0.3722 -0.1606  0.0304
 3076PP      PP13180  10.786  14.122  11.044  0.0525 -0.0901  0.3717
 3077PP      PP13181  10.845   9.022  10.616 -0.0465  0.1504  0.2190
 3078PP      PP13182  11.683   4.383   0.161  0.3216 -0.1015 -0.0601
 3079PP      PP13183   4.709   8.347  12.368  0.0807  0.0148 -0.1091
 3080PP      PP13184   8.199  15.597   3.679  0.0534 -0.1028  0.1096
 3081PP      PP13185   4.029  11.586   4.946 -0.1336  0.0718 -0.1260
 3082PP      PP13186  12.373  11.290   4.251  0.1263 -0.2336 -0.0023
 3083PP      PP13187   7.149  10.705   3.722  0.0199 -0.1034  0.1566
 3084PP      PP13188  13.057   1.438  13.003 -0.0895 -0.2192  0.1602
 3085PP      PP13189  12.589  14.236  10.416 -0.0297  0.2806  0.1627
 3086PP      PP13190   5.477  12.610  12.818 -0.1451  0.1124 -0.1362
 3087PP      PP13191  11.787   3.375   3.485 -0.0098 -0.3216 -0.4199
 3088PP      PP13192  12.748  12.247   2.976 -0.0747 -0.0891  0.1593
 3089PP      PP13193   7.305   3.476   0.608 -0.0306  0.3883  0.0106
 3090PP      PP13194  12.865  10.960   3.434 -0.0393  0.0513  0.0505
 3091PP      PP13195   7.667   2.567   9.101 -0.2436  0.0852 -0.0981
 3092PP      PP13196   3.310  13.647   1.949  0.0412  0.1564 -0.4185
 3093PP      PP13197   1.981   1.641  12.968  0.0010  0.0031  0.0946
 3094PP      PP13198   0.461  10.153  12.908  0.1371 -0.0723  0.3343
 3095PP      PP13199   2.551  10.130   0.245 -0.0738 -0.1385 -0.2448
 3096PP      PP13200   0.647   8.094  12.933 -0.2465 -0.1783  0.3648
 3097PP      PP13201  15.035   6.489   3.907  0.0223  0.0513  0.1747
 3098PP      PP13202  10.949   8.391   0.280  0.1936 -0.2684  0.0012
 3099PP      PP13203   0.283   1.076  13.313 -0.0797  0.0611  0.1168
 3100PP      PP13204  13.469   2.201  12.634 -0.1401 -0.0740 -0.0416
 3101PP      PP13205  12.257  13.674   2.502  0.0107 -0.0268  0.1541
 3102PP      PP13206   0.045   8.718   3.782 -0.1318  0.0923  0.1141
 3103PP      PP13207  15.233  12.616   0.539  0.0728  0.0793 -0.3725
 3104PP      PP13208  11.334   7.113   2.370 -0.1984  0.1026  0.3253
 3105PP      PP13209   2.326   1.271   9.105 -0.1858  0.0271  0.3111
 3106PP      PP13210   2.510  13.818  11.105 -0.0171  0.1786 -0.2046
 3107PP      PP13211  11.439  14.519   3.818 -0.1393 -0.2187 -0.1982
 3108PP      PP13212   4.149   7.908  11.134  0.2378  0.2094 -0.4585
 3109PP      PP13213  14.307   1.129  12.545  0.2293 -0.0554  0.4301
 3110PP      PP13214  14.296   3.572   8.833  0.0750 -0.2831 -0.1005
 3111PP      PP13215   9.506  15.675  13.440 -0.1661 -0.1401 -0.0379
 3112PP      PP13216  10.769   5.272  10.701  0.2910 -0.0155 -0.0547
 3113PP      PP13217  13.834  10.606   2.524 -0.1435  0.1890 -0.1109
 3114PP      PP13218  11.050  11.362  11.460  0.1219 -0.1001  0.1572
 3115PP      PP13219   7.848  14.117   2.723 -0.1415 -0.2920  0.1353
 3116PP      PP13220   9.723   4.076   9.550  0.0240  0.2025  0.1232
 3117PP      PP13221   8.032   1.154  11.018 -0.0053  0.0629  0.3631
 3118PP      PP13222   1.848  13.587  13.702  0.0556 -0.0563 -0.0551
 3119PP      PP13223   4.459   0.873   1.310 -0.0548  0.2711 -0.2758
 3120PP      PP13224   3.619  13.413  12.645 -0.1820  0.2080  0.1008
 3121PP      PP13225   5.358   7.396  11.240  0.1923  0.1817 -0.1334
 3122PP      PP13226   5.256   3.620   1.903  0.0694 -0.0270  0.2437
 3123PP      PP13227   0.407  13.367   2.830  0.0611  0.0019  0.0308
 3124PP      PP13228  10.623   1.386   2.473 -0.1685  0.0971 -0.2738
 3125PP      PP13229   8.306   3.365  12.315  0.0937  0.2275 -0.0783
 3126PP      PP13230  12.672   6.876   3.662  0.1122 -0.1377 -0.0964
 3127PP      PP13231  14.879   4.683   9.877  0.0441  0.1435  0.1557
 3128PP      PP13232   1.157   8.399   0.628  0.0025  0.0777 -0.1097
 3129PP      PP13233   0.000   9.466  11.007 -0.0276  0.4093  0.1731
 3130PP      PP13234  14.054  10.115   2.428 -0.1015 -0.3070  0.2371
 3131PP      PP13235   7.390  11.623   4.116  0.1837 -0.1049  0.1234
 3132PP      PP13236   9.244   0.996   4.177 -0.1134 -0.1784  0.0532
 3133PP      PP13237  13.921   1.365  11.585 -0.0314 -0.3909  0.0137
 3134PP      PP13238   7.064  14.052  12.627  0.1294 -0.1795  0.0589
 3135PP      PP13239  15.252   8.487   1.949 -0.2340 -0.0111  0.0222
 3136PP      PP13240  12.406   2.804  10.718 -0.0462 -0.3111 -0.1740
 3137PP      PP13241  10.833   2.120   1.568  0.0987 -0.0945 -0.0069
 3138PP      PP13242  13.893  14.218   4.794 -0.0031 -0.0063  0.1721
 3139PP      PP13243   6.636   8.710  12.631 -0.1589 -0.1157  0.3592
 3140PP      PP13244  10.962   7.624   3.386  0.0072 -0.2338  0.0071
 3141PP      PP13245   2.693  15.024   2.862 -0.2448  0.2646  0.4212
 3142PP      PP13246   0.189   6.557   2.287  0.0060  0.2434 -0.0300
 3143PP      PP13247   8.388  15.684   9.987  0.0128  0.0072  0.1912
 3144PP      PP13248  12.096   2.412  10.329  0.3389  0.1893 -0.1198
 3145PP      PP13249  15.149   5.510   9.582  0.0615  0.0695  0.0156
 3146PP      PP13250   2.583  13.850   0.207  0.0167 -0.0224  0.4239
 3147PP      PP13251  10.793   6.970   8.633 -0.0155 -0.1952 -0.1916
 3148PP      PP13252   0.704   4.471  12.502 -0.2225 -0.2657  0.0161
 3149PP      PP13253   7.414  15.227   2.354  0.3495  0.1776 -0.1053
 3150PP      PP13254  11.751  14.205   1.279  0.2760  0.0172  0.0667
 3151PP      PP13255   8.242   9.126   1.144  0.0746  0.1817  0.3028
 3152PP      PP13256  14.623   8.517  13.545 -0.0806 -0.1010 -0.1981
 3153PP      PP13257  10.587   1.966   3.244 -0.1454 -0.0879 -0.0213
 3154PP      PP13258   9.356   2.259   1.410 -0.1781 -0.0328 -0.4456
 3155PP      PP13259   1.308   8.664   8.449 -0.3307 -0.2206  0.2433
 3156PP      PP13260   1.465  13.216   9.427 -0.2173  0.1504  0.1196
 3157PP      PP13261   9.262   4.044  10.797 -0.0877  0.0092  0.0979
 3158PP      PP13262   2.165  15.696   1.268 -0.1315  0.1826  0.2104
 3159PP      PP13263   4.116   0.595  12.661 -0.0368 -0.1258 -0.2022
 3160PP      PP13264   5.884  14.666   3.102  0.0548  0.2271 -0.3173
 3161PP      PP13265   5.087   9.490   3.964  0.1022 -0.2570 -0.0768
 3162PP      PP13266  13.669  14.861   2.978  0.1801  0.1440  0.2293
 3163PP      PP13267  14.637  13.503   2.143  0.0182  0.4056  0.1555
 3164PP      PP13268   1.718  15.591  11.780  0.0975  0.1769 -0.0873
 3165PP      PP13269   1.604   8.895  13.251 -0.1431 -0.2069 -0.1751
 3166PP      PP13270   9.767   9.516   0.765  0.2142 -0.3434  0.1800
 3167PP      PP13271  11.761   8.473   2.460  0.1721 -0.4077  0.1649
 3168PP      PP13272   3.851   8.518  11.982  0.0874  0.0046 -0.2909
 3169PP      PP13273   6.415   7.337  12.063 -0.2963  0.3018  0.0176
 3170PP      PP13274  13.790   0.001  13.430 -0.0831  0.2471 -0.0524
 3171PP      PP13275   9.439  11.306  13.197 -0.2125 -0.0537 -0.0779
 3172PP      PP13276   8.739   0.722  10.901 -0.0689 -0.0662 -0.0083
 3173PP      PP13277   4.656  13.463  11.699 -0.0095  0.0163 -0.1116
 3174PP      PP13278   5.959   0.054  10.664  0.1911  0.1020 -0.1194
 3175PP      PP13279   5.304   1.211   9.623 -0.2443  0.0600 -0.1030
 3176PP      PP13280   8.933  10.653   3.884 -0.0493  0.3864 -0.0492
 3177PP      PP13281  12.722   2.562  13.360 -0.0400  0.2458  0.1843
 3178PP      PP13282  12.305   4.919   1.593 -0.3149 -0.3781 -0.1342
 3179PP      PP13283  13.159  14.532   2.481  0.1207  0.3443  0.1517
 3180PP      PP13284   4.595   3.319  10.053  0.1201  0.1704  0.1200
 3181PP      PP13285   7.384  14.907  12.231  0.3796  0.0441  0.0556
 3182PP      PP13286   3.143   6.125  10.024 -0.0346 -0.0723 -0.2745
 3183PP      PP13287   6.067   0.796   3.165 -0.0563  0.0779 -0.0124
 3184PP      PP13288   6.510   1.874  11.902 -0.2336  0.2307  0.3595
 3185PP      PP13289   4.001  10.850  12.536 -0.0519  0.2366 -0.0812
 3186PP      PP13290   9.284  10.810   0.189 -0.0770  0.1537  0.1115
 3187PP      PP13291  15.404   3.085  10.995 -0.1399 -0.2311 -0.1786
 3188PP      PP13292  15.545   7.866   9.406 -0.3786  0.2038  0.0578
 3189PP      PP13293   2.846   3.164   3.543 -0.3702 -0.2337 -0.1617
 3190PP      PP13294  15.617   8.559  11.289 -0.1433 -0.0289  0.2873
 3191PP      PP13295   4.402   2.673   2.545  0.1701  0.0853 -0.1019
 3192PP      PP13296  10.051   7.433   4.066 -0.0359  0.0250  0.3069
 3193PP      PP13297   1.372   8.427  13.378 -0.0739 -0.1680 -0.1841
 3194PP      PP13298  11.654   9.795   0.962  0.3201 -0.1257 -0.2480
 3195PP      PP13299  14.898   6.121  10.100 -0.1414  0.0734  0.2208
 3196PP      PP13300   6.621  15.201  11.965 -0.1762  0.0143  0.1005
 3197PP      PP13301   7.992  12.569   0.061 -0.2184  0.2524  0.0008
 3198PP      PP13302   4.057  14.054  10.871  0.0097  0.3242 -0.3500
 3199PP      PP13303   8.953   5.579  12.981 -0.0409 -0.1837 -0.0819
 3200PP      PP13304   8.763  10.329  11.277  0.0776 -0.0397  0.2474
 3201PP      PP13305   3.919   6.891  10.017 -0.2679 -0.1756 -0.0696
 3202PP      PP13306  13.230   9.948   8.970 -0.1835  0.2801 -0.0474
 3203PP      PP13307  13.644   1.319   9.581  0.1326 -0.0296  0.3279
 3204PP      PP13308   9.497  15.410  12.702 -0.0639 -0.1827  0.0562
 3205PP      PP13309  14.524   7.228  12.189 -0.0879  0.2287 -0.2038
 3206PP      PP13310  11.437  12.122  11.397 -0.1229 -0.1031  0.0693
 3207PP      PP13311  13.163  13.148   3.891  0.0844 -0.1264  0.1085
 3208PP      PP13312   7.828   8.594  12.758  0.0597 -0.2283 -0.3071
 3209PP      PP13313  14.492   3.933   8.565 -0.2146  0.1283  0.0825
 3210PP      PP13314  12.927   1.699  13.495  0.1538  0.4247  0.0742
 3211PP      PP13315   6.470   4.130  11.181  0.0183 -0.0371  0.2194
 3212PP      PP13316   1.558  10.328   2.781  0.0875 -0.1379 -0.1819
 3213PP      PP13317  10.870  14.599  13.240 -0.0525 -0.0174 -0.5239
 3214PP      PP13318   7.700  11.727   0.482 -0.1255 -0.0029  0.0167
 3215PP      PP13319  10.367   2.644  12.621 -0.3408 -0.3982  0.0839
 3216PP      PP13320   1.204   0.695   3.355 -0.0699  0.3679  0.1276
 3217PP      PP13321  14.368  14.273  10.706 -0.1109  0.0557 -0.1986
 3218PP      PP13322   0.791  12.548   9.508 -0.1693 -0.0236  0.1430
 3219PP      PP13323   2.718   4.947  10.508  0.1061  0.1005  0.4197
 3220PP      PP13324   5.507  11.917   9.711 -0.2025 -0.0211  0.2000
 3221PP      PP13325  10.360  12.832   2.959 -0.1668 -0.1769 -0.0372
 3222PP      PP13326   8.574   1.274   3.813  0.0889 -0.0069 -0.0926
 3223PP      PP13327  14.984   7.731  12.971 -0.0735 -0.1612 -0.1926
 3224PP      PP13328   2.214   3.786   9.974  0.0090  0.1126  0.0700
 3225PP      PP13329  10.620  11.390  10.669 -0.1303 -0.0704  0.0749
 3226PP      PP13330  10.012  14.398   4.376 -0.0538 -0.0605  0.1094
 3227PP      PP13331   5.179   8.690  10.857 -0.0761 -0.2994 -0.0950
 3228PP      PP13332   8.717  14.869   0.595  0.1207 -0.3209 -0.0798
 3229PP      PP13333  13.987  14.724   4.864  0.0491  0.3335  0.1347
 3230PP      PP13334  10.034  13.891  13.322  0.0959 -0.1153 -0.2681
 3231PP      PP13335  11.673   5.641  10.755 -0.2930  0.1155  0.0364
 3232PP      PP13336   0.341   1.949   0.003 -0.2264  0.2004 -0.0735
 3233PP      PP13337  11.918  14.364   4.101  0.0837 -0.1418 -0.0960
 3234PP      PP13338   0.854   7.523   2.040 -0.0634 -0.1334  0.0355
 3235PP      PP13339   4.806   4.420   9.879  0.1080  0.0531 -0.2472
 3236PP      PP13340  11.866  15.393   0.388 -0.3079 -0.0662 -0.1720
 3237PP      PP13341   5.142   3.862   0.078 -0.0213  0.0345 -0.1870
 3238PP      PP13342   7.619   7.736   4.205  0.1298  0.0039  0.1663
 3239PP      PP13343   4.488   8.476   3.888  0.1741 -0.2250 -0.5929
 3240PP      PP13344   9.594  10.137   8.549  0.0009  0.0390  0.1140
 3241PP      PP13345   9.736  14.460   2.808 -0.3619 -0.3408  0.1798
 3242PP      PP13346  15.232  13.209   3.854  0.1006  0.1479  0.2472
 3243PP      PP13347   5.191   0.830   3.923 -0.0948  0.0080 -0.1195
 3244PP      PP13348  15.144   2.941   3.513 -0.2428  0.0765 -0.2061
 3245PP      PP13349   7.673  10.640   2.892 -0.1316  0.1714  0.0548
 3246PP      PP13350  12.746   2.656   9.211  0.0135 -0.3015  0.3491
 3247PP      PP13351   5.448   7.202   0.338 -0.2158  0.1103 -0.3054
 3248PP      PP13352   4.400   3.727  11.952  0.0419  0.1092 -0.1222
 3249PP      PP13353   9.926   9.943   9.298 -0.0373  0.0021 -0.1161
 3250PP      PP13354   4.898   2.022  10.720  0.0521  0.0197  0.0013
 3251PP      PP13355  13.020  15.644  10.407 -0.1582  0.0322  0.1199
 3252PP      PP13356  13.928   8.619   1.124 -0.0171  0.1437  0.0867
 3253PP      PP13357   5.646  11.646  11.846  0.1785 -0.1728 -0.0551
 3254PP      PP13358   2.995   9.164   1.884 -0.0870  0.1209  0.0204
 3255PP      PP13359   2.451   1.060  10.590  0.1988 -0.2034  0.2271
 3256PP      PP13360   0.822  12.166   3.849 -0.1046 -0.1131 -0.3270
 3257PP      PP13361   2.401   1.601   9.958  0.0703  0.0830  0.0524
 3258PP      PP13362   9.717  15.368   2.690  0.0920  0.0404 -0.1338
 3259PP      PP13363  15.524   0.636   1.402 -0.1174 -0.0050 -0.2656
 3260PP      PP13364   8.644  13.615  10.485  0.0492 -0.0662  0.0459
 3261PP      PP13365   5.550  11.552  13.437  0.0084  0.2032 -0.2152
 3262PP      PP13366   9.463  13.147  10.158 -0.1118 -0.0259 -0.2372
 3263PP      PP13367   4.828   5.611   8.728  0.0309  0.2530 -0.1434
 3264PP      PP13368  12.438   5.230  11.838 -0.2231  0.2760 -0.0101
 3265PP      PP13369   7.406  12.448   0.480  0.4027 -0.5732  0.1359
 3266PP      PP13370   3.261  13.958   2.349 -0.1918  0.1093 -0.1790
 3267PP      PP13371   0.274   5.359   0.425 -0.1550 -0.1056 -0.1195
 3268PP      PP13372  13.628   1.226   0.741  0.4903  0.0038  0.1141
 3269PP      PP13373   4.124  15.647   3.606  0.1334  0.2686  0.1352
 3270PP      PP13374   4.406   3.475   1.752 -0.2682 -0.0403  0.0119
 3271PP      PP13375  12.095  14.605   1.002  0.1026 -0.0204  0.0393
 3272PP      PP13376   9.174   5.182  10.475 -0.1817 -0.0809  0.3941
 3273PP      PP13377  11.003   6.652   2.936  0.5612 -0.1473 -0.3574
 3274PP      PP13378   7.338   8.361  10.980  0.0255  0.1281 -0.0878
 3275PP      PP13379   5.300  13.150   3.101  0.2860  0.0289  0.2177
 3276PP      PP13380  10.075  11.473   4.621  0.2899  0.2024 -0.2028
 3277PP      PP13381  15.382   2.159  11.288  0.0629 -0.0719 -0.2026
 3278PP      PP13382   0.148  15.619   2.271  0.0850  0.2733  0.2131
 3279PP      PP13383   9.953  10.596   0.019  0.2136  0.0350  0.1382
 3280PP      PP13384   7.948   3.169  13.068  0.0845 -0.0184  0.2925
 3281PP      PP13385   1.711  14.400  13.234  0.1385  0.0985  0.0136
 3282PP      PP13386  13.547  11.474   3.777 -0.2855 -0.0404 -0.1996
 3283PP      PP13387   3.037   5.801  10.380  0.1478  0.0757 -0.2962
 3284PP      PP13388   8.287   5.553   9.523 -0.2393 -0.1278 -0.3682
 3285PP      PP13389   8.872   6.138   8.885 -0.1521 -0.0187  0.0127
 3286PP      PP13390   5.419   6.808   3.746 -0.0258 -0.1332 -0.1950
 3287PP      PP13391   3.236  11.293   2.195 -0.4207  0.3549 -0.0252
 3288PP      PP13392   8.816   9.108   2.868  0.0775  0.1853 -0.0558
 3289PP      PP13393   2.453   9.257   3.528 -0.0812  0.1798 -0.0101
 3290PP      PP13394   7.877  11.539   4.366 -0.1981 -0.1233 -0.3218
 3291PP      PP13395  14.897  15.178   0.293  0.3748  0.0889  0.0398
 3292PP      PP13396   6.346   3.507   9.650  0.0362 -0.1157  0.3972
 3293PP      PP13397   7.320   2.057   9.764  0.2550 -0.1900  0.1979
 3294PP      PP13398   8.628   0.408   9.880  0.0474  0.0101 -0.1502
 3295PP      PP13399   8.466   7.792  12.419  0.1368 -0.0040  0.1399
 3296PP      PP13400   1.631   1.568   2.212 -0.0421 -0.2100 -0.1197
 3297PP      PP13401  12.091   6.625   1.588 -0.1841 -0.1784 -0.2178
 3298PP      PP13402   1.228   1.063  11.895  0.3382  0.0819  0.4180
 3299PP      PP13403   6.664  13.081  12.788 -0.0958 -0.0590 -0.1311
 3300PP      PP13404   0.244   1.158   0.347  0.0512 -0.4528 -0.1730
 3301PP      PP13405  10.812  15.580   9.053 -0.3170  0.1330 -0.4481
 3302PP      PP13406   8.706  13.183   4.547 -0.0747  0.1130  0.2028
 3303PP      PP13407  13.161   1.872   9.565 -0.3567 -0.3452 -0.1751
 3304PP      PP13408   9.853   0.001   1.414  0.1470 -0.3075 -0.0851
 3305PP      PP13409   8.729   0.430   2.979  0.1789  0.1871 -0.0027
 3306PP      PP13410   7.325   3.591   1.148 -0.0637  0.1545  0.4412
 3307PP      PP13411  15.715   5.878   0.707  0.0026  0.2638 -0.0153
 3308PP      PP13412  11.906   6.603   3.015 -0.0124 -0.5698 -0.1656
 3309PP      PP13413  11.262   6.004   9.751  0.0364 -0.2854 -0.3968
 3310PP      PP13414   4.164   7.090   3.386 -0.0490 -0.1501  0.4247
 3311PP      PP13415  10.936   5.838   1.037 -0.2789  0.1148  0.3114
 3312PP      PP13416  11.886   6.517   0.629 -0.4155 -0.0569  0.3658
 3313PP      PP13417   4.749   4.857   9.139  0.2554 -0.0223 -0.0215
 3314PP      PP13418  15.377   3.573  11.175  0.1656  0.0998 -0.0104
 3315PP      PP13419   3.667  12.064   0.030  0.0199 -0.1353 -0.2796
 3316PP      PP13420  10.827  10.192   4.253 -0.0214 -0.0486  0.0871
 3317PP      PP13421   3.583   4.576  12.249 -0.2309  0.1100  0.0429
 3318PP      PP13422  10.006  13.823   8.457 -0.0052 -0.2477 -0.0168
 3319PP      PP13423   8.467   9.154  10.967  0.0007 -0.1204  0.0042
 3320PP      PP13424  13.531   8.866  10.181  0.1347 -0.0050  0.2257
 3321PP      PP13425  10.579  11.770  10.997  0.2364 -0.4824 -0.0589
 3322PP      PP13426   4.090  14.693   4.870  0.0225 -0.1028 -0.4140
 3323PP      PP13427  11.278  14.714  11.873 -0.0612  0.0924 -0.4974
 3324PP      PP13428   4.466  11.685   3.510 -0.0682 -0.1070 -0.0371
 3325PP      PP13429   2.915   7.525   2.861  0.3460 -0.0368  0.0974
 3326PP      PP13430  15.282  10.676  11.300 -0.1364 -0.3971  0.0754
 3327PP      PP13431   6.127  13.644   4.242 -0.0538 -0.0990  0.4785
 3328PP      PP13432   5.122   1.186   1.024  0.0080  0.0717  0.3095
 3329PP      PP13433  12.946  11.094  10.058  0.1345 -0.0467  0.0531
 3330PP      PP13434   9.624   2.011   9.792  0.0241 -0.1681 -0.0141
 3331PP      PP13435   3.594   1.290  11.591 -0.1459  0.0497 -0.5164
 3332PP      PP13436  11.710   4.345   1.831  0.2856  0.1153  0.0915
 3333PP      PP13437   3.794   1.333  11.073 -0.0772  0.1319 -0.0887
 3334PP      PP13438  14.140   7.515  12.153 -0.0344 -0.3115 -0.3841
 3335PP      PP13439  15.097   7.595   0.609 -0.0501 -0.1856  0.0704
 3336PP      PP13440   3.765   5.690  12.889  0.1816  0.1338 -0.0259
 3337PP      PP13441   7.967   6.575  13.718 -0.0357  0.1358 -0.0356
 3338PP      PP13442  10.416  12.343   2.805 -0.2928 -0.1173  0.1060
 3339PP      PP13443   9.891   5.598  13.566 -0.3435 -0.2028  0.2405
 3340PP      PP13444   2.683   7.334   3.376 -0.1384 -0.0961  0.2634
 3341PP      PP13445   9.107  10.965  10.017  0.0528 -0.0963  0.2150
 3342PP      PP13446  12.332   1.248  10.125  0.4789  0.4361 -0.0771
 3343PP      PP13447  14.001   1.585  13.342  0.1824 -0.1184 -0.0299
 3344PP      PP13448   7.422   4.896   3.319 -0.4060  0.1667  0.2953
 3345PP      PP13449   1.672   1.628   1.047  0.1928 -0.2207  0.0190
 3346PP      PP13450   8.643   0.141   0.974 -0.2829 -0.0751  0.2322
 3347PP      PP13451   2.946   7.331  11.790 -0.0699  0.0160 -0.2644
 3348PP      PP13452   9.416   5.374  13.618  0.0589  0.0225 -0.0354
 3349PP      PP13453   5.987  10.720   2.212  0.0635 -0.1932 -0.0038
 3350PP      PP13454  10.137  14.029   0.430 -0.1699  0.0865  0.2055
 3351PP      PP13455   7.472  13.882  13.593 -0.0019 -0.2906 -0.1544
 3352PP      PP13456  14.209   7.766   8.575 -0.1306 -0.1930 -0.3654
 3353PP      PP13457   1.880  12.048   0.223 -0.0552  0.1452 -0.0027
 3354PP      PP13458   1.736   4.873  12.051 -0.0665  0.0927 -0.0802
 3355PP      PP13459  11.202  14.189  10.814 -0.3890 -0.1008 -0.1425
 3356PP      PP13460   5.606   9.647   3.457 -0.2080  0.2007  0.0473
 3357PP      PP13461  11.764  10.307  11.635  0.3590 -0.1499 -0.0367
 3358PP      PP13462   8.160  12.984  13.452 -0.0250  0.0111  0.2428
 3359PP      PP13463  15.587  12.137  12.736  0.0364  0.0486  0.1268
 3360PP      PP13464   3.296   2.936  13.670  0.2440 -0.0022  0.2176
 3361PP      PP13465   1.716   3.452  12.569 -0.2833  0.3612  0.0685
 3362PP      PP13466  14.070   5.546   8.968 -0.0825 -0.0376  0.0256
 3363PP      PP13467  11.323  10.225   2.008 -0.0572  0.2068  0.0079
 3364PP      PP13468   0.309  11.133   4.170  0.2465 -0.1557  0.0094
 3365PP      PP13469   2.382  10.614  13.746  0.2894 -0.1098 -0.0676
 3366PP      PP13470   7.035   8.571   9.686 -0.0578 -0.1641 -0.0416
 3367PP      PP13471  15.479  12.451   1.348  0.0895  0.2338  0.3949
 3368PP      PP13472  11.594   3.561  10.598 -0.0926  0.2123  0.1625
 3369PP      PP13473   3.150   0.550  13.316 -0.1767  0.2640 -0.0281
 3370PP      PP13474  14.504   1.948   8.977  0.1661  0.3213 -0.0724
 3371PP      PP13475  12.431   3.846  10.957 -0.2119 -0.1211 -0.4449
 3372PP      PP13476   6.470   8.110   0.057 -0.1683 -0.0470 -0.1824
 3373PP      PP13477   7.942   5.172   8.275 -0.0299  0.3152  0.1742
 3374PP      PP13478   8.416  15.116   1.315 -0.1249 -0.0096  0.3560
 3375PP      PP13479   4.059   8.125  11.549  0.0872  0.1304  0.1320
 3376PP      PP13480  10.316   9.839   0.935 -0.0538 -0.1453 -0.0177
 3377PP      PP13481   3.371   7.861   0.668 -0.0822 -0.1850 -0.2085
 3378PP      PP13482   1.813   7.410   3.269  0.0016 -0.1453 -0.0428
 3379PP      PP13483  12.065  11.005   3.204  0.1640 -0.0491 -0.0992
 3380PP      PP13484  10.174   1.302  10.173  0.0248 -0.1855 -0.2183
 3381PP      PP13485   2.180  13.369  12.342 -0.2373  0.1324 -0.0577
 3382PP      PP13486   5.661   4.508   0.923  0.0025  0.0273 -0.1257
 3383PP      PP13487   7.751  13.571   0.988 -0.1450  0.1011 -0.4974
 3384PP      PP13488   7.437  11.682  12.303  0.0646  0.0900 -0.0740
 3385PP      PP13489  11.380   6.426   9.994  0.0860 -0.1007  0.0687
 3386PP      PP13490   3.301   6.843   1.109  0.0585  0.1617 -0.0904
 3387PP      PP13491   1.703   1.553  11.909  0.0104 -0.0676  0.1792
 3388PP      PP13492  11.016   4.970  12.664  0.1984  0.2003  0.2075
 3389PP      PP13493   4.477   4.291  11.145  0.2364 -0.0242 -0.1504
 3390PP      PP13494   4.947   1.591   3.407 -0.4068 -0.0273  0.1729
 3391PP      PP13495   9.136   1.185   9.240 -0.1605 -0.2981 -0.0660
 3392PP      PP13496  10.230   0.205   1.949  0.3428 -0.0468  0.0364
 3393PP      PP13497  12.940  13.376  13.460  0.0245 -0.3228 -0.0986
 3394PP      PP13498  10.559  12.814   0.012  0.1562 -0.1904 -0.2548
 3395PP      PP13499   2.580  13.313   4.108  0.0888 -0.2616  0.0890
 3396PP      PP13500  14.242   3.934   9.686  0.0731  0.1816 -0.0299
 3397PP      PP13501   5.575  11.570   0.159 -0.1371  0.3448  0.2466
 3398PP      PP13502   2.352  13.956  12.631 -0.0209 -0.1493 -0.2509
 3399PP      PP13503   2.661   2.298   1.757  0.1617 -0.1546 -0.3013
 3400PP      PP13504   0.251  12.746   1.346 -0.1820  0.0006  0.0590
 3401PP      PP13505   1.349   5.284   2.306 -0.1327  0.0486  0.1821
 3402PP      PP13506  11.813   0.998   0.471  0.1536 -0.1350  0.1883
 3403PP      PP13507  12.848   2.044  13.128 -0.2890 -0.0639 -0.3130
 3404PP      PP13508   6.421  13.838   3.729 -0.0614 -0.0768  0.1273
 3405PP      PP13509   2.012  10.827  12.263 -0.0055  0.0675  0.1933
 3406PP      PP13510  11.032  11.359  10.224  0.2122 -0.0682  0.3376
 3407PP      PP13511  12.434  14.170   2.923 -0.0312  0.1949  0.0795
 3408PP      PP13512   1.799  14.457  12.466  0.0179  0.5629 -0.2026
 3409PP      PP13513   8.787  10.794   1.548 -0.1278  0.2092 -0.1507
 3410PP      PP13514  15.230   7.418  11.130  0.0282  0.1330  0.1251
 3411PP      PP13515   5.417   4.634  13.229 -0.2623  0.0019  0.1372
 3412PP      PP13516   4.666   0.392  11.272  0.3956 -0.1024 -0.2356
 3413PP      PP13517   3.221   1.781   3.353  0.1742  0.1871  0.2005
 3414PP      PP13518   3.850  14.372   0.960  0.0812  0.0864 -0.1938
 3415PP      PP13519   0.010  11.450   0.555  0.4021 -0.2705 -0.0744
 3416PP      PP13520   5.145   3.021   9.573 -0.0158  0.0412 -0.3171
 3417PP      PP13521   8.916  13.740  12.958  0.0158  0.1331  0.3242
 3418PP      PP13522   7.582  10.785   4.653  0.3699  0.2976  0.1404
 3419PP      PP13523   2.809  14.643  12.091  0.0521  0.0566 -0.1307
 3420PP      PP13524   2.224  10.628   4.911 -0.1710 -0.1821 -0.2377
 3421PP      PP13525   0.347   2.352   8.918 -0.3193  0.1065  0.0917
 3422PP      PP13526  12.348   9.678   9.751 -0.0238  0.0411  0.0958
 3423PP      PP13527  10.436   4.605   9.126 -0.2926  0.1557  0.0103
 3424PP      PP13528   9.976  11.727   3.642  0.1707  0.1823  0.1167
 3425PP      PP13529  15.341   5.635  12.031 -0.1711  0.1800 -0.0528
 3426PP      PP13530   3.406   6.271   2.214  0.0270  0.0069  0.0060
 3427PP      PP13531   0.875  14.903   4.222 -0.1737 -0.3066 -0.1555
 3428PP      PP13532   3.596   6.720   3.413  0.2066  0.0553  0.2329
 3429PP      PP13533   0.850   3.353   0.291  0.0024  0.0531  0.0437
 3430PP      PP13534   4.043   5.654   0.284  0.0005  0.0890  0.0716
 3431PP      PP13535   0.812   9.903   1.717  0.0143  0.1678  0.2006
 3432PP      PP13536   8.782   8.412   8.992  0.0847  0.1493 -0.3069
 3433PP      PP13537  11.070   8.561   9.910  0.0082 -0.0265  0.2831
 3434PP      PP13538   0.626   1.333  11.550 -0.0554  0.0032 -0.2952
 3435PP      PP13539   9.684  14.613  10.156 -0.1929  0.2359  0.0105
 3436PP      PP13540  14.254  15.566  13.701  0.0643  0.1423 -0.0740
 3437PP      PP13541   1.433   7.572   0.158 -0.1076 -0.3230 -0.0302
 3438PP      PP13542  10.938   0.454   8.569  0.1570  0.0129  0.0267
 3439PP      PP13543   7.742   0.673   8.992  0.1149 -0.1991  0.1782
 3440PP      PP13544  14.904   4.373   8.193  0.3149  0.2634 -0.2316
 3441PP      PP13545   1.649   6.626  13.236 -0.4733  0.0459 -0.4113
 3442PP      PP13546   7.926  13.825   4.108  0.0786  0.4894  0.1043
 3443PP      PP13547   1.549   2.731  13.586 -0.0760 -0.1196  0.0118
 3444PP      PP13548   1.832   8.924   4.082  0.0567  0.1629 -0.0414
 3445PP      PP13549   6.855   7.000   1.764 -0.2780 -0.0385  0.1753
 3446PP      PP13550   5.264   9.813   2.415 -0.2314  0.0734 -0.2200
 3447PP      PP13551   7.642   1.096   3.750 -0.1215 -0.1302  0.0079
 3448PP      PP13552  14.968   4.031  10.796 -0.4817 -0.1359  0.0758
 3449PP      PP13553  10.446  14.511   3.032  0.0507 -0.0904  0.0306
 3450PP      PP13554   1.013   1.989   4.640 -0.1745 -0.1995  0.5071
 3451PP      PP13555   2.386   6.780   2.510  0.1055 -0.0144 -0.2704
 3452PP      PP13556  14.246   5.764  12.160  0.1191  0.0648 -0.3055
 3453PP      PP13557  12.473   1.574  11.047  0.0429 -0.2278  0.0990
 3454PP      PP13558  15.366  13.940  12.967 -0.0519 -0.1085  0.2088
 3455PP      PP13559   6.289   7.694   2.294 -0.2618  0.3683  0.0069
 3456PP      PP13560   2.006   7.654  10.221  0.3028 -0.1641  0.3293
 3457PP      PP13561   3.746   0.627  13.191  0.0812 -0.1103  0.2360
 3458PP      PP13562  12.613   8.580   1.315  0.0364 -0.0085 -0.2928
 3459PP      PP13563   6.452   3.751  10.334  0.0834  0.1621 -0.0497
 3460PP      PP13564   0.822  13.429   9.136  0.2225 -0.3616  0.1876
 3461PP      PP13565   4.554  15.168  11.126 -0.1916  0.0400  0.0219
 3462PP      PP13566   4.882  13.645   4.484  0.1711 -0.3415 -0.2126
 3463PP      PP13567   6.995   5.161  11.831  0.3248 -0.2060 -0.1515
 3464PP      PP13568   3.803   4.695  13.408  0.2021  0.1951 -0.2285
 3465PP      PP13569  11.481  11.442   9.940 -0.1534  0.0581  0.2158
 3466PP      PP13570  12.083  11.628   3.992  0.1811 -0.0506 -0.1811
 3467PP      PP13571  12.660  15.342  10.113 -0.1559  0.4122 -0.0695
 3468PP      PP13572   3.774   3.613  11.149  0.4904  0.2520 -0.1604
 3469PP      PP13573  13.739   6.244  13.680 -0.0654 -0.2015 -0.2548
 3470PP      PP13574  15.725   6.090   2.021  0.0695 -0.0952  0.1212
 3471PP      PP13575   0.303  13.521  10.196  0.4905 -0.1448  0.2164
 3472PP      PP13576   5.618  14.581   0.900 -0.1272 -0.1561  0.1926
 3473PP      PP13577  10.974  13.116  12.795  0.2161 -0.0309 -0.2209
 3474PP      PP13578   8.615   4.987   4.389  0.2211  0.0672  0.1853
 3475PP      PP13579   1.666   3.494   9.703 -0.1753  0.2198  0.0275
 3476PP      PP13580   8.233  14.250  13.163 -0.0019 -0.0563  0.2619
 3477PP      PP13581   0.355   9.506   9.439  0.1206 -0.0630 -0.0790
 3478PP      PP13582  14.659   7.627  10.312 -0.2206 -0.1729 -0.1984
 3479PP      PP13583   3.922   8.614   1.124  0.1401 -0.2716  0.1857
 3480PP      PP13584  10.571  12.849  13.207 -0.0542 -0.1157  0.2636
 3481PP      PP13585  13.307   7.125   9.641  0.4355  0.0665 -0.4366
 3482PP      PP13586   9.479  14.802  12.742  0.2473  0.0306 -0.1410
 3483PP      PP13587   9.682   7.531  10.930 -0.1471 -0.1296  0.2263
 3484PP      PP13588  10.730   6.160  13.291  0.2039 -0.6034  0.1223
 3485PP      PP13589  13.413   1.219  10.691  0.1599  0.2094 -0.0790
 3486PP      PP13590   9.425   3.418   2.861  0.2172 -0.1864  0.2983
 3487PP      PP13591  15.164   3.763   2.194 -0.2593 -0.1588 -0.1308
 3488PP      PP13592   8.872  13.615   4.814  0.2950 -0.0903 -0.0170
 3489PP      PP13593  11.074   6.976   0.673  0.0663 -0.0775 -0.3944
 3490PP      PP13594   7.029   5.802   2.601  0.0036 -0.1815  0.4624
 3491PP      PP13595   1.268  15.262   0.906  0.1382 -0.1291 -0.0203
 3492PP      PP13596  12.278   6.717  11.214 -0.1703  0.3251  0.0963
 3493PP      PP13597   3.948   3.922   9.432  0.1584  0.0431  0.0563
 3494PP      PP13598   5.251   4.932   2.466 -0.0125 -0.0227 -0.1214
 3495PP      PP13599  11.125   7.450   9.111 -0.0393  0.1902 -0.0522
 3496PP      PP13600   6.366  11.125   0.548 -0.0483 -0.1455  0.0050
 3497PP      PP13601   1.672  12.100  12.602  0.0271 -0.3179  0.1896
 3498PP      PP13602   1.090   6.541   4.055  0.1063 -0.1897 -0.1867
 3499PP      PP13603   6.516  14.747   9.990  0.0400  0.1783  0.1443
 3500PP      PP13604   4.391   4.493   3.651  0.0599 -0.2048 -0.1021
 3501PP      PP13605   6.444  10.844  13.572 -0.2882 -0.0542  0.2952
 3502PP      PP13606   2.188   7.122   3.436 -0.0188 -0.0539 -0.1625
 3503PP      PP13607  12.794   0.639   9.899 -0.0156  0.0271  0.1179
 3504PP      PP13608  11.127   0.015  13.054 -0.0345 -0.0542  0.2159
 3505PP      PP13609  10.834   5.742   9.872 -0.4192  0.1373  0.0018
 3506PP      PP13610   3.356   1.589  13.005  0.0501  0.0531 -0.1026
 3507PP      PP13611   8.309   7.798   1.428  0.2118  0.1591 -0.1135
 3508PP      PP13612   4.417   8.876   5.376  0.0209 -0.0815 -0.1103
 3509PP      PP13613   6.622   4.577  11.011  0.2843  0.1961  0.2488
 3510PP      PP13614  13.291  13.366   2.545  0.2162  0.3914  0.1077
 3511PP      PP13615   4.473   6.222  12.580 -0.0981 -0.1224 -0.1337
 3512PP      PP13616   7.514  15.521   9.978 -0.0845 -0.3222 -0.0303
 3513PP      PP13617   3.598   7.718   2.098 -0.0401  0.1497  0.2217
 3514PP      PP13618   6.841   8.669   1.522  0.1972 -0.1250 -0.3861
 3515PP      PP13619   9.725   7.245   3.286 -0.3683  0.0956 -0.2158
 3516PP      PP13620   1.185   2.388   4.385  0.0786 -0.1449 -0.0436
 3517PP      PP13621   8.877   1.007  12.639 -0.0032 -0.0252  0.2275
 3518PP      PP13622   3.743   4.442   9.668 -0.1378 -0.0859 -0.0411
 3519PP      PP13623  15.112  15.493   2.673  0.2093 -0.1116 -0.0279
 3520PP      PP13624   0.053   5.083   2.678  0.0840  0.2845 -0.1873
 3521PP      PP13625   7.558   7.043   3.103 -0.0786  0.1612 -0.2084
 3522PP      PP13626   2.373   7.506   1.030  0.0561 -0.0521  0.0313
 3523PP      PP13627   5.666  13.205   0.234 -0.3168 -0.2908  0.1243
 3524PP      PP13628  10.800   3.055  12.999 -0.0439 -0.1286 -0.0976
 3525PP      PP13629   6.400   0.184   9.832 -0.0683 -0.0361 -0.1429
 3526PP      PP13630   6.144  12.535   3.806  0.1389 -0.4271  0.1062
 3527PP      PP13631  10.780  11.062   9.452  0.1032 -0.0663 -0.1090
 3528PP      PP13632  10.197   8.230  10.212  0.1768 -0.0565 -0.0448
 3529PP      PP13633   3.278   7.515   4.592 -0.3293 -0.0950 -0.0546
 3530PP      PP13634  14.130  14.517  11.699 -0.0360  0.1755 -0.2524
 3531PP      PP13635  14.585  12.268  13.008 -0.3387  0.0514 -0.3222
 3532PP      PP13636   5.158   2.272   8.964 -0.0055 -0.1386 -0.0167
 3533PP      PP13637   0.266   8.230  12.044  0.1540 -0.1196 -0.0244
 3534PP      PP13638   6.311   4.988   3.791  0.0910 -0.1802  0.1844
 3535PP      PP13639  15.295   3.044  12.323  0.0074 -0.0969 -0.1796
 3536PP      PP13640   2.574  15.497   0.462  0.1142  0.1773  0.0639
 3537PP      PP13641  10.711   7.969   0.128 -0.0404 -0.2219 -0.2255
 3538PP      PP13642   2.830   8.375   9.650 -0.1748  0.0395  0.0423
 3539PP      PP13643   9.209  12.669   0.051 -0.0519 -0.1861 -0.0715
 3540PP      PP13644   4.926   8.813   5.225 -0.0658 -0.1295 -0.2677
 3541PP      PP13645   8.331  11.703  11.739 -0.1486  0.0127  0.0952
 3542PP      PP13646  11.353   0.583   3.429  0.1722 -0.0168  0.2209
 3543PP      PP13647  11.189   8.867   1.447  0.0539  0.0322  0.0596
 3544PP      PP13648   9.916  13.778   1.409 -0.2337 -0.0432  0.1152
 3545PP      PP13649   7.715  10.494   1.019 -0.2719  0.0280 -0.2443
 3546PP      PP13650   1.625   2.986  11.406  0.0101  0.1689  0.0268
 3547PP      PP13651   8.106   2.837   7.786  0.2181 -0.0419 -0.2482
 3548PP      PP13652  14.702   1.441   0.315  0.0262  0.1603 -0.0750
 3549PP      PP13653  11.522   1.703   2.690  0.2752  0.2886 -0.1835
 3550PP      PP13654   5.895  13.575  10.180  0.0993  0.2049  0.0127
 3551PP      PP13655  10.745  11.826   1.204 -0.0653  0.2711 -0.2840
 3552PP      PP13656   3.590  11.885  10.809  0.2610  0.3003 -0.1297
 3553PP      PP13657   0.014   6.495   1.310  0.2734  0.0283 -0.3313
 3554PP      PP13658   4.389   1.681  11.769  0.0080 -0.0063 -0.0750
 3555PP      PP13659   6.075  14.867  10.091  0.1268  0.1554  0.2723
 3556PP      PP13660  11.004  13.060  10.264  0.0325  0.5267  0.1768
 3557PP      PP13661   8.183  10.923   0.199 -0.0295  0.0223 -0.1285
 3558PP      PP13662   5.132   6.682  10.624  0.0385 -0.1136 -0.1313
 3559PP      PP13663   5.046   0.404  13.191  0.0191  0.0422  0.1455
 3560PP      PP13664   6.822  13.301   1.252 -0.1261 -0.1268  0.0409
 3561PP      PP13665  10.761  14.562   9.754  0.2557  0.0269  0.2504
 3562PP      PP13666   2.586   8.993   1.058 -0.4356  0.1987  0.1175
 3563PP      PP13667   2.106   5.549   4.368 -0.2726 -0.1065 -0.1293
 3564PP      PP13668  10.571   9.407   9.469 -0.1963  0.0836  0.0675
 3565PP      PP13669  12.047   4.379   2.265 -0.0534  0.0436 -0.0720
 3566PP      PP13670   3.248   5.849  12.891  0.2103  0.0516 -0.3181
 3567PP      PP13671   3.435   9.182  11.206  0.0389 -0.2087  0.1475
 3568PP      PP13672  10.988  13.139   0.728 -0.1014  0.0239  0.0383
 3569PP      PP13673   1.384   1.688   0.549  0.1123  0.0218 -0.4043
 3570PP      PP13674  10.495   2.492  12.122  0.2730 -0.0991 -0.1596
 3571PP      PP13675   3.026  10.842   2.135  0.1142  0.2775  0.2093
 3572PP      PP13676  11.256   8.313  12.376 -0.1368  0.2534  0.0303
 3573PP      PP13677   2.769   5.383  13.062 -0.1271  0.5218  0.0846
 3574PP      PP13678  11.192   1.414  12.306  0.0277 -0.1531 -0.0604
 3575PP      PP13679   6.441   1.393  13.369 -0.2440 -0.0739  0.1100
 3576PP      PP13680   1.887   4.326   3.336  0.0508 -0.0460  0.1090
 3577PP      PP13681   6.554   0.391   2.251 -0.0007  0.2165 -0.2292
 3578PP      PP13682   1.630  10.586   3.232  0.0719 -0.1736 -0.0502
 3579PP      PP13683   6.980  12.165  12.790  0.0787  0.1323 -0.4026
 3580PP      PP13684   4.815  11.664  10.300  0.1219  0.2312 -0.0906
 3581PP      PP13685   1.781   9.927  10.891  0.3033  0.2926  0.3090
 3582PP      PP13686   5.831   0.126  13.463  0.0977  0.2535 -0.2402
 3583PP      PP13687  15.219   6.924  11.301  0.1583 -0.0452 -0.2517
 3584PP      PP13688   6.430   4.783   9.336 -0.1235  0.1306  0.0226
 3585PP      PP13689  10.060  10.165  13.418 -0.0906  0.3807  0.1382
 3586PP      PP13690  10.132   1.058   8.688  0.0175  0.0130  0.2356
 3587PP      PP13691  12.583   3.723  11.600 -0.1790  0.1317 -0.2000
 3588PP      PP13692  13.529   1.110   4.094  0.1418 -0.3428 -0.0720
 3589PP      PP13693   9.618  13.114  13.262 -0.0781  0.0348  0.2051
 3590PP      PP13694   0.051   1.683   2.410  0.0182 -0.3234 -0.1180
 3591PP      PP13695  10.263   7.343   3.364 -0.0090  0.2237  0.1286
 3592PP      PP13696   4.125   9.210  11.687 -0.0454 -0.0209 -0.0539
 3593PP      PP13697  15.480   8.969  13.764 -0.0075 -0.3814  0.0763
 3594PP      PP13698  15.573  12.753   3.575 -0.1334 -0.0133 -0.0068
 3595PP      PP13699   5.926  10.973   3.678 -0.2732  0.0306 -0.0443
 3596PP      PP13700   8.320  10.120  13.331  0.3704  0.1678 -0.5949
 3597PP      PP13701  15.620  10.284  10.827 -0.0611  0.2464 -0.3956
 3598PP      PP13702   9.980   8.795   9.408  0.1010 -0.3037  0.4875
 3599PP      PP13703  13.580  10.918  13.431  0.0787 -0.4440  0.3590
 3600PP      PP13704   8.324   3.400   8.913 -0.0383 -0.1766 -0.1496
 3601PP      PP13705  12.222  13.543   4.398  0.1573  0.0705 -0.1844
 3602PP      PP13706   4.190   4.039   0.690  0.0164  0.0502 -0.2430
 3603PP      PP13707   5.323   9.918  12.521  0.2537  0.4990 -0.0523
 3604PP      PP13708   4.315   1.461   2.564 -0.2321 -0.0176 -0.0523
 3605PP      PP13709   6.989   6.687   9.817 -0.2911  0.1142  0.3837
 3606PP      PP13710   2.716  10.877  10.553  0.1038 -0.2161  0.0208
 3607PP      PP13711  15.459   6.289   2.895  0.0285 -0.1789 -0.1320
 3608PP      PP13712  15.690   3.748   0.929  0.2031 -0.0522  0.2497
 3609PP      PP13713  12.398   6.195  11.240 -0.0395  0.0240 -0.0946
 3610PP      PP13714   6.088   2.911   8.417  0.2533  0.0240 -0.0441
 3611PP      PP13715   5.235  14.354   4.106  0.2159 -0.0180  0.1375
 3612PP      PP13716   7.330   9.058  13.513 -0.0445  0.0634  0.0162
 3613PP      PP13717  15.203   1.712   3.966 -0.1424  0.1073 -0.0048
 3614PP      PP13718   4.473   7.278   3.745 -0.1136  0.0355 -0.2269
 3615PP      PP13719  10.375  10.001  10.303  0.1982 -0.1171 -0.2045
 3616PP      PP13720  14.205   3.512   8.335 -0.0249 -0.0357 -0.0531
 3617PP      PP13721  13.760   1.658  11.942  0.3223  0.1338 -0.1730
 3618PP      PP13722   3.524  15.320   0.655 -0.3362  0.0230 -0.1590
 3619PP      PP13723   1.912  10.670   0.626 -0.1709 -0.0398 -0.1643
 3620PP      PP13724   1.956  15.551   2.780  0.0948 -0.3401 -0.2588
 3621PP      PP13725   7.755   8.675   3.792 -0.1216  0.0898  0.1159
 3622PP      PP13726  10.198   6.860  11.389  0.1909 -0.1957  0.1070
 3623PP      PP13727   9.846   0.302   9.304 -0.1834 -0.1708 -0.0756
 3624PP      PP13728  13.667   0.796   9.559 -0.1088  0.0468 -0.0014
 3625PP      PP13729   3.370   2.921   4.376 -0.0222  0.0801  0.0660
 3626PP      PP13730  14.387  15.040  11.923 -0.1001 -0.0828 -0.1367
 3627PP      PP13731  14.506   1.582   0.846 -0.2287  0.1382  0.0994
 3628PP      PP13732  11.941  14.623  10.376 -0.1400 -0.0334  0.3315
 3629PP      PP13733   0.952  14.672   2.376  0.1037 -0.1070 -0.0520
 3630PP      PP13734  13.310  10.941  10.342  0.0001 -0.1285  0.1721
 3631PP      PP13735   2.644  10.698   1.746  0.0879 -0.1715  0.2030
 3632PP      PP13736   2.077   0.742  10.393 -0.3094 -0.1804 -0.3032
 3633PP      PP13737   8.307   9.496  12.737 -0.0151  0.1338  0.1864
 3634PP      PP13738   6.453   8.772  10.943 -0.0894  0.1504 -0.0745
 3635PP      PP13739   2.583   6.657   4.475  0.2402 -0.1237  0.0927
 3636PP      PP13740   5.689   1.959  13.086 -0.2909 -0.2416 -0.1475
 3637PP      PP13741   8.727   2.595   0.989  0.0420  0.2403  0.0742
 3638PP      PP13742   4.857   7.414   2.638  0.2259 -0.1043 -0.0736
 3639PP      PP13743   6.883   6.647   1.175 -0.1736 -0.0276 -0.2562
 3640PP      PP13744   1.913   5.813  12.709 -0.1400  0.0511 -0.2932
 3641PP      PP13745   2.996   1.320   0.920  0.0319 -0.1690 -0.0023
 3642PP      PP13746  10.523   6.715   2.842  0.0621  0.2740 -0.0973
 3643PP      PP13747   4.683   6.916  13.366 -0.0209 -0.0965 -0.0654
 3644PP      PP13748  10.402   5.300   1.349 -0.2023  0.4025 -0.0162
 3645PP      PP13749   0.862   2.461  13.622  0.1346 -0.0170 -0.1211
 3646PP      PP13750   8.816   6.762   4.668  0.4019 -0.0627 -0.1523
 3647PP      PP13751   1.218  14.980  10.272  0.0845  0.1711  0.0777
 3648PP      PP13752   8.018   4.793   9.894  0.1880 -0.2923  0.0248
 3649PP      PP13753   0.396  15.459   9.818  0.2850 -0.4018 -0.0949
 3650PP      PP13754  15.048   8.170   8.807 -0.1648 -0.0581  0.1075
 3651PP      PP13755   0.675  15.703   2.447 -0.2161 -0.2860  0.3548
 3652PP      PP13756  12.542   2.057  11.916  0.0714  0.1997 -0.2638
 3653PP      PP13757   9.753   7.979  11.830 -0.0474  0.1314 -0.1002
 3654PP      PP13758   4.807   2.500   0.145 -0.1911  0.1325 -0.1328
 3655PP      PP13759   0.620   7.084   2.095 -0.0245 -0.0198 -0.1606
 3656PP      PP13760  15.250   3.616   3.833  0.0658 -0.1405  0.3038
 3657PP      PP13761   9.392   6.916  10.166 -0.0904 -0.0227  0.0363
 3658PP      PP13762   5.245   6.956   3.271  0.1215 -0.2355 -0.3005
 3659PP      PP13763  12.713   0.766   1.925 -0.1147  0.2189  0.2145
 3660PP      PP13764   1.420   9.126   3.938  0.2074  0.2731 -0.3203
 3661PP      PP13765   3.437   2.708  10.606  0.0649  0.1369  0.1020
 3662PP      PP13766  13.128   3.489   9.633  0.3324 -0.2846 -0.0887
 3663PP      PP13767   7.499  10.391   1.989 -0.2200  0.1543 -0.2262
 3664PP      PP13768   6.946  13.685   1.588 -0.1728  0.1969 -0.2309
 3665PP      PP13769  12.059  10.100   4.531  0.0247  0.1514  0.2770
 3666PP      PP13770  11.959  10.694  10.518  0.0841  0.1105 -0.2723
 3667PP      PP13771   4.053   5.879  11.786  0.0229 -0.1827  0.1152
 3668PP      PP13772  10.114   0.354   3.811  0.3402 -0.2354  0.1199
 3669PP      PP13773   2.125  10.025   4.065  0.1346 -0.2946  0.2861
 3670PP      PP13774   6.117  12.926   0.156 -0.0724  0.3148  0.1450
 3671PP      PP13775  11.664  15.040  11.837 -0.1378 -0.1137 -0.0495
 3672PP      PP13776  11.611   4.751  11.919  0.0918 -0.0409  0.1309
 3673PP      PP13777   9.235  11.675   2.182 -0.1706  0.3024  0.0140
 3674PP      PP13778   0.358   0.433  11.047  0.0675  0.1518  0.0071
 3675PP      PP13779  14.410   1.614   3.002  0.1768 -0.3448  0.1470
 3676PP      PP13780  15.286   1.019   1.150 -0.1228 -0.1263  0.0053
 3677PP      PP13781   1.437  10.721  13.697  0.3652 -0.1194 -0.2053
 3678PP      PP13782   9.197   6.154   1.234  0.3795 -0.0467 -0.1098
 3679PP      PP13783   0.551  13.504  11.252 -0.3213 -0.2966 -0.1585
 3680PP      PP13784   5.865  13.519   2.838  0.4138 -0.0534  0.1714
 3681PP      PP13785   8.954   4.655   8.634  0.1930 -0.1791  0.2622
 3682PP      PP13786  14.554   8.933  10.473  0.0829  0.0385 -0.3041
 3683PP      PP13787   1.282   6.735   2.602 -0.1505 -0.0826  0.0181
 3684PP      PP13788  14.996   0.692   0.519 -0.1483 -0.2083  0.1357
 3685PP      PP13789  15.251   7.386   3.445 -0.1557 -0.0046 -0.1441
 3686PP      PP13790  13.239   1.767   4.187 -0.1875 -0.0008  0.0555
 3687PP      PP13791   0.839   6.861  11.535 -0.1199 -0.3931  0.1017
 3688PP      PP13792  12.916  15.172  12.233  0.3387 -0.2929 -0.0162
 3689PP      PP13793   2.875  11.937  13.698  0.0707  0.1355 -0.0829
 3690PP      PP13794  11.857   8.299  12.962 -0.1131  0.1159  0.2447
 3691PP      PP13795  14.480   6.227   3.639  0.0331  0.1474  0.2611
 3692PP      PP13796   6.400   3.258   1.009 -0.0493  0.4262 -0.1497
 3693PP      PP13797  14.618   6.292   1.619  0.1767  0.0974  0.0882
 3694PP      PP13798   4.139   6.659  13.086 -0.0600  0.0994  0.4838
 3695PP      PP13799   6.977  12.496  13.430  0.0391 -0.2411 -0.1136
 3696PP      PP13800   9.573   7.744   3.917 -0.1247  0.1729 -0.0889
 3697PP      PP13801   9.677   4.764  11.414  0.3469 -0.1588 -0.3961
 3698PP      PP13802   7.211   8.330   9.254  0.0268 -0.4710 -0.0352
 3699PP      PP13803   2.785  13.426   0.049  0.0268  0.1134 -0.0438
 3700PP      PP13804   9.921  15.424  13.412  0.0745 -0.0185  0.0597
 3701PP      PP13805   4.218  14.108   4.837 -0.0546 -0.3767 -0.0061
 3702PP      PP13806   6.660  14.094   2.704  0.2409  0.1477  0.0112
 3703PP      PP13807   7.354   3.095   3.939 -0.1994 -0.1142 -0.2283
 3704PP      PP13808   0.797   5.909  11.910 -0.0795  0.1316 -0.2882
 3705PP      PP13809   9.159  12.215  11.455 -0.1550 -0.1936 -0.1114
 3706PP      PP13810   4.379   4.668  10.430 -0.1285 -0.0449 -0.1321
 3707PP      PP13811   9.449   9.758  10.897 -0.1445  0.0847 -0.1618
 3708PP      PP13812  13.730  14.421  11.440 -0.2859  0.2339  0.1290
 3709PP      PP13813   7.405   5.339  10.138  0.2814  0.0782 -0.5146
 3710PP      PP13814   6.723   0.869   3.010  0.0197 -0.2107 -0.1416
 3711PP      PP13815   6.201  13.024  13.317 -0.0292  0.0446  0.0929
 3712PP      PP13816  10.579   3.832   9.382 -0.1589  0.2403  0.2669
 3713PP      PP13817   1.779   7.527   0.511 -0.0742 -0.0315  0.3649
 3714PP      PP13818   5.655  14.127  12.045 -0.1509  0.0079  0.0928
 3715PP      PP13819   2.026   1.464   3.990 -0.0056  0.1519  0.2565
 3716PP      PP13820  10.396   5.838   0.987 -0.1143  0.3495 -0.1137
 3717PP      PP13821   2.024   3.662   3.074  0.0278 -0.0151 -0.2376
 3718PP      PP13822   1.091   6.379   9.067 -0.0859 -0.4121  0.1715
 3719PP      PP13823   1.698   5.022   0.661  0.0558  0.0728  0.2823
 3720PP      PP13824   2.980   8.574   1.269  0.2211  0.2833  0.3346
 3721PP      PP13825   3.268   0.199   0.164 -0.0377 -0.0135  0.2990
 3722PP      PP13826  10.937   3.052   0.153  0.0395 -0.1253  0.2338
 3723PP      PP13827  14.482   9.213   3.892  0.1417 -0.2437  0.2063
 3724PP      PP13828   1.684   0.491   1.510 -0.2349  0.0000 -0.1251
 3725PP      PP13829  10.069   6.726   1.757  0.2015 -0.1723 -0.5044
 3726PP      PP13830   5.206   6.698  13.339 -0.1098 -0.1947 -0.0131
 3727PP      PP13831   0.965   8.434  13.058 -0.3326 -0.1605  0.0325
 3728PP      PP13832  10.708  10.378  13.410  0.1905 -0.1314  0.1168
 3729PP      PP13833  13.750   5.878   1.264  0.2232 -0.0612  0.1837
 3730PP      PP13834   3.649  12.420   4.638  0.0350  0.1457 -0.3849
 3731PP      PP13835   0.177  11.106  10.294  0.2817  0.2442 -0.5128
 3732PP      PP13836   2.300   3.747  11.912  0.2659 -0.2879  0.4062
 3733PP      PP13837   9.040   1.081   0.503  0.2785  0.0689  0.0596
 3734PP      PP13838  13.455   2.688   1.809 -0.0152 -0.1255 -0.1348
 3735PP      PP13839  12.632   6.048   3.706 -0.1159  0.1107 -0.1500
 3736PP      PP13840   7.490   6.924   1.236 -0.1910  0.0262  0.0789
 3737PP      PP13841  14.722  14.563  12.570  0.0860 -0.0365  0.0651
 3738PP      PP13842   0.808   0.130  10.066  0.6089  0.0855  0.2089
 3739PP      PP13843  14.265   6.058  10.210  0.0980 -0.2142 -0.1793
 3740PP      PP13844   3.152   5.251   1.978 -0.2152  0.0916 -0.1830
 3741PP      PP13845  15.535   9.789   3.799  0.0528  0.0374  0.1681
 3742PP      PP13846   5.238   8.990   3.799  0.0669 -0.3725 -0.0535
 3743PP      PP13847  15.699  10.237  12.610  0.0568  0.0253 -0.0577
 3744PP      PP13848   9.077   3.624  12.664 -0.2349 -0.1234 -0.2003
 3745PP      PP13849   3.035   5.241  12.142  0.2308 -0.0007 -0.1602
 3746PP      PP13850   2.147  11.340  11.201 -0.2219 -0.1558  0.2121
 3747PP      PP13851   9.213   2.178   9.395 -0.3485 -0.0831 -0.3951
 3748PP      PP13852   6.821  13.951   4.035  0.0559 -0.2017 -0.0098
 3749PP      PP13853   7.593   4.437   3.126 -0.0607 -0.1338  0.1234
 3750PP      PP13854  12.256   1.163  12.195 -0.3299 -0.0376  0.2493
 3751PP      PP13855   1.987   3.852   9.538 -0.1375  0.3440 -0.0107
 3752PP      PP13856   2.581   8.482   1.001 -0.0086  0.0307 -0.3067
 3753PP      PP13857   2.006   3.329  12.125 -0.0982  0.1088  0.1539
 3754PP      PP13858   9.804   0.395   1.000 -0.2411 -0.1335 -0.0620
 3755PP      PP13859   7.730   7.718   8.724  0.1749 -0.1937 -0.1170
 3756PP      PP13860   1.832  12.758   1.658 -0.2990  0.0044 -0.1754
 3757PP      PP13861  11.168  12.785   2.257  0.2049 -0.1257  0.1259
 3758PP      PP13862   5.796   8.375  13.184 -0.1342  0.1230  0.2565
 3759PP      PP13863   0.130  13.908   2.774  0.2180 -0.0607  0.1777
 3760PP      PP13864   4.105  10.181  13.607  0.2338  0.4046 -0.3500
 3761PP      PP13865   8.476   1.856  13.167  0.2612  0.0144  0.2221
 3762PP      PP13866   0.979   2.995   9.704  0.3347  0.0016  0.2850
 3763PP      PP13867  10.413   0.053   4.813  0.1944  0.3656 -0.1494
 3764PP      PP13868  14.449   3.787   3.636  0.0892 -0.1062 -0.2007
 3765PP      PP13869  15.695  14.483   9.071 -0.1569  0.0371 -0.1966
 3766PP      PP13870  11.617   3.835  13.724 -0.0172 -0.0651  0.1863
 3767PP      PP13871   0.629  15.032  12.481  0.0805  0.0254  0.0191
 3768PP      PP13872   6.813  15.211   9.890  0.0301 -0.1123  0.0008
 3769PP      PP13873   5.998   1.808  10.967  0.2218 -0.2621 -0.3232
 3770PP      PP13874   7.398   9.039  11.174  0.4393 -0.0099 -0.0044
 3771PP      PP13875   6.212  14.971   4.443 -0.1963  0.1985 -0.0333
 3772PP      PP13876   4.774   9.820  13.301  0.0576 -0.0249  0.0103
 3773PP      PP13877   8.032   5.652   2.662 -0.0214 -0.0168  0.2226
 3774PP      PP13878  12.258   3.768  13.071 -0.0174 -0.1496 -0.3399
 3775PP      PP13879   3.927  11.671   4.235  0.0353  0.0587 -0.0204
 3776PP      PP13880   2.761  13.891  13.469 -0.1004  0.1422  0.4085
 3777PP      PP13881   7.084  13.366  13.017  0.0124 -0.4085 -0.0352
 3778PP      PP13882   7.008  12.106   2.223  0.1992  0.1380 -0.1293
 3779PP      PP13883   3.963   9.774  11.514 -0.1361 -0.1513 -0.1827
 3780PP      PP13884  14.111  13.618   2.019  0.1547  0.0544 -0.1808
 3781PP      PP13885  10.301   8.733   2.794  0.0859 -0.2195 -0.0347
 3782PP      PP13886   4.605  10.518   1.320 -0.0122  0.1275  0.1758
 3783PP      PP13887   1.025   8.807  10.477 -0.0757 -0.0674 -0.0418
 3784PP      PP13888  10.683   0.373   2.638  0.0919  0.1542  0.2168
 3785PP      PP13889  14.126   7.976  10.395 -0.1557  0.0176  0.1234
 3786PP      PP13890  10.629   8.286   9.869 -0.0781  0.3543 -0.4299
 3787PP      PP13891   3.391  10.298  11.926 -0.3114 -0.0422 -0.0707
 3788PP      PP13892  15.277   6.709   8.604  0.0304 -0.1337 -0.1288
 3789PP      PP13893   1.427   0.179  11.515  0.2854 -0.2028  0.4713
 3790PP      PP13894  10.925   5.471  12.779  0.0568 -0.0897  0.1801
 3791PP      PP13895   2.911   4.521  10.614  0.1710 -0.0988  0.4436
 3792PP      PP13896   2.335   8.203   8.538  0.1703  0.1962  0.1245
 3793PP      PP13897  14.724   1.905  12.473  0.0224 -0.2202  0.0420
 3794PP      PP13898   5.599  14.096   0.724 -0.0321  0.0402  0.0887
 3795PP      PP13899   8.802   7.451   3.029  0.1077 -0.0867 -0.3885
 3796PP      PP13900  12.481  10.823   3.107 -0.1084  0.0082  0.0837
 3797PP      PP13901   7.337   3.306   8.241  0.0395 -0.2785  0.1102
 3798PP      PP13902  10.933   7.438  11.295  0.2351  0.1064 -0.0037
 3799PP      PP13903   7.196   3.125  11.772  0.1503  0.2281  0.1920
 3800PP      PP13904   2.783   7.866   4.287 -0.2713  0.0600  0.1332
 3801PP      PP13905   1.237   8.785   9.545  0.0450 -0.2031 -0.2236
 3802PP      PP13906   3.764   7.369   4.315  0.2322 -0.0848 -0.1423
 3803PP      PP13907   1.637   3.512   9.216 -0.0832  0.2758  0.1890
 3804PP      PP13908   2.306   1.750   0.193  0.0113 -0.0077 -0.0925
 3805PP      PP13909   6.255   4.358   0.477 -0.0744 -0.0872  0.0251
 3806PP      PP13910   9.477   3.159  10.681  0.1242  0.1287 -0.1024
 3807PP      PP13911   6.998   8.348   2.810 -0.0424 -0.0108  0.1326
 3808PP      PP13912   8.777   6.456   3.233 -0.1836 -0.0346 -0.2491
 3809PP      PP13913  15.394  13.002   9.739 -0.1377 -0.0305 -0.1163
 3810PP      PP13914   3.064  11.477   0.727 -0.0157  0.2441  0.2677
 3811PP      PP13915  10.651   7.919   8.481 -0.2738  0.0551  0.2416
 3812PP      PP13916   6.243   2.665  10.277 -0.2041 -0.1418  0.1331
 3813PP      PP13917   2.968   5.192   2.557  0.1195 -0.2417  0.2085
 3814PP      PP13918   7.208  12.116   1.034  0.1669 -0.0363 -0.0764
 3815PP      PP13919  10.100  11.948   8.572 -0.0255  0.1030  0.2298
 3816PP      PP13920   8.222   4.314   1.901  0.1088  0.0036 -0.3561
 3817PP      PP13921   1.111   1.195  11.424 -0.0145  0.1836  0.1283
 3818PP      PP13922   5.831   5.992  11.736  0.1979 -0.2429 -0.0815
 3819PP      PP13923   8.227   1.107   2.944 -0.0938  0.0858  0.1123
 3820PP      PP13924   5.864   3.234   9.761 -0.4888  0.0589  0.2423
 3821PP      PP13925  11.046   7.623   1.422  0.0779  0.2214  0.1204
 3822PP      PP13926   9.624   3.603  13.357  0.2310  0.0943  0.0093
 3823PP      PP13927   4.877   6.342  13.407  0.0392  0.4492  0.0373
 3824PP      PP13928   8.896  11.098   1.071  0.1813  0.0389 -0.1233
 3825PP      PP13929  14.390  13.898  11.031 -0.0024  0.0939  0.3964
 3826PP      PP13930   3.280  11.370   4.303  0.3310  0.2420 -0.0955
 3827PP      PP13931   7.168  13.795   2.614 -0.1226 -0.1942  0.1612
 3828PP      PP13932  14.198   7.631   2.338  0.1489  0.1067  0.0386
 3829PP      PP13933   1.938   4.918   2.329  0.1333 -0.1337 -0.0239
 3830PP      PP13934   3.077  11.988   9.533 -0.0088  0.0239  0.0188
 3831PP      PP13935   1.613  11.551   0.087 -0.0987 -0.0958 -0.0882
 3832PP      PP13936  12.126  11.218  10.401  0.0751 -0.0416 -0.1179
 3833PP      PP13937   2.865  14.624  10.070  0.2298 -0.3194  0.1557
 3834PP      PP13938   8.694  13.798   1.663 -0.0897  0.1191 -0.1299
 3835PP      PP13939   5.911   4.562  12.810  0.2094 -0.1822  0.3227
 3836PP      PP13940  11.905   9.859  10.854  0.1888  0.0809 -0.1851
 3837PP      PP13941  10.517   6.891   3.436 -0.3583  0.0250 -0.1916
 3838PP      PP13942   1.096   6.952   8.339 -0.0755  0.2233  0.1705
 3839PP      PP13943   6.846   7.471  10.487 -0.6487  0.1353  0.1075
 3840PP      PP13944   1.249  10.274  10.160  0.0104  0.1152  0.0494
 3841PP      PP13945   0.310  15.202   2.049  0.0495  0.0678  0.2636
 3842PP      PP13946  13.548   5.676  10.129 -0.1996 -0.0683 -0.1431
 3843PP      PP13947   7.369   1.409   8.485  0.2043  0.1647 -0.0299
 3844PP      PP13948   7.547  13.475   4.131 -0.1382  0.2611 -0.0530
 3845PP      PP13949   2.592  11.080  12.302  0.2000 -0.2055 -0.2100
 3846PP      PP13950   5.411   1.902  10.799  0.0277 -0.2041 -0.0872
 3847PP      PP13951  15.400  14.574   4.790  0.0568  0.1726 -0.1382
 3848PP      PP13952   4.924  10.654  13.025  0.0027 -0.0907  0.0145
 3849PP      PP13953   4.521   9.237  11.368  0.0208 -0.0636 -0.5270
 3850PP      PP13954   0.270   7.570  10.850 -0.1525 -0.2064  0.0924
 3851PP      PP13955   7.969  15.646  10.291  0.0202 -0.3654  0.1804
 3852PP      PP13956   4.941   1.499  11.780  0.0813  0.0677 -0.1358
 3853PP      PP13957   2.950   8.015   9.244  0.0762  0.3709  0.0650
 3854PP      PP13958  11.471  10.751  10.790  0.2087 -0.0253 -0.2277
 3855PP      PP13959  11.998  11.586  11.313  0.3138 -0.0047 -0.0187
 3856PP      PP13960   4.629   3.182   3.873 -0.0987 -0.0401  0.1766
 3857PP      PP13961  13.173   8.981   0.158  0.3663  0.2793  0.2527
 3858PP      PP13962   1.055   5.132   1.906  0.0941  0.1231 -0.0758
 3859PP      PP13963   1.536   7.028   8.594  0.1961  0.2429  0.2830
 3860PP      PP13964  15.383  11.938  10.398  0.0648 -0.0101 -0.1528
 3861PP      PP13965  12.051  12.961   2.981  0.1615 -0.2955 -0.1459
 3862PP      PP13966  14.145   8.852   2.553 -0.1277 -0.0473  0.0553
 3863PP      PP13967  14.049  13.519  11.802  0.0583  0.0076 -0.0405
 3864PP      PP13968   3.137   0.234   5.089  0.0551  0.1169  0.1619
 3865PP      PP13969   4.685  10.237  13.003  0.0480  0.0752 -0.0413
 3866PP      PP13970  12.339   3.807   1.185 -0.0558  0.3428  0.3634
 3867PP      PP13971   1.736   3.895   0.653  0.1859 -0.0648 -0.1439
 3868PP      PP13972   6.939   5.852   3.308  0.0986  0.1566 -0.1303
 3869PP      PP13973   1.290  10.759  12.622 -0.1951 -0.2498 -0.0184
 3870PP      PP13974   8.343   2.555   2.652 -0.0602  0.2145  0.0461
 3871PP      PP13975  11.754   4.031   8.857  0.0918  0.2547  0.0986
 3872PP      PP13976   4.561  14.064   3.538  0.0114 -0.0204 -0.1275
 3873PP      PP13977   9.527   6.083   9.854 -0.1775 -0.0485  0.1835
 3874PP      PP13978   2.076  14.847  10.531 -0.1526  0.0337 -0.1653
 3875PP      PP13979  15.705   6.461  13.391 -0.0934 -0.1658 -0.1046
 3876PP      PP13980   7.211   3.428   2.509 -0.0113 -0.1140  0.1216
 3877PP      PP13981   2.237  14.509   0.861  0.1582  0.1214 -0.0672
 3878PP      PP13982  15.566   7.799   8.881  0.0141 -0.3212  0.0053
 3879PP      PP13983   7.278  13.001  12.071 -0.0208 -0.2079  0.0046
 3880PP      PP13984  12.735   6.885   0.443  0.1859 -0.1822 -0.1300
 3881PP      PP13985  15.397   4.760   3.287 -0.1951  0.2364  0.2621
 3882PP      PP13986  15.519  10.620   0.375 -0.0825 -0.0222 -0.2165
 3883PP      PP13987  11.013  15.544  12.234  0.1141 -0.1522  0.0639
 3884PP      PP13988   6.725  12.390   9.119 -0.1463  0.1766 -0.1666
 3885PP      PP13989   7.848  10.908  12.653 -0.4470  0.2222  0.1072
 3886PP      PP13990   6.410   7.214  10.789  0.1104  0.0766 -0.0945
 3887PP      PP13991   8.000  14.203  13.590  0.3491  0.1650  0.2612
 3888PP      PP13992   9.855   5.349   2.633 -0.0515 -0.1979 -0.1502
 3889PP      PP13993   2.646  15.000  11.504 -0.1656 -0.0773  0.0014
 3890PP      PP13994   2.801   0.836   1.033 -0.1229  0.1101 -0.2808
 3891PP      PP13995   3.038  10.795  11.900  0.6597 -0.4839 -0.0079
 3892PP      PP13996   0.145   3.600   1.866 -0.1453 -0.2571  0.0135
 3893PP      PP13997   9.301  13.338   3.817  0.1988 -0.0790  0.1409
 3894PP      PP13998   5.427   4.343  12.820 -0.2332 -0.0809 -0.2201
 3895PP      PP13999   7.511   7.550   1.596  0.2243  0.0255 -0.1399
 3896PP      PP14000   9.082  13.825   9.246 -0.1987  0.0895  0.0364
 3897PP      PP14001   4.944   8.509   4.107 -0.1356  0.3148 -0.1205
 3898PP      PP14002  14.600   0.741  13.257 -0.0836  0.0554  0.0164
 3899PP      PP14003   7.711   3.472  12.817  0.0955 -0.1191 -0.0133
 3900PP      PP14004  12.505   7.499   1.177  0.5402 -0.4758 -0.0544
 3901PP      PP14005   2.910  14.265   1.589 -0.0065 -0.2815  0.2264
 3902PP      PP14006   4.948  10.919  13.573  0.0263  0.1764 -0.0489
 3903PP      PP14007  11.182   1.350   2.343  0.2988 -0.0044 -0.0894
 3904PP      PP14008  15.286  15.627   9.311  0.1555  0.2095 -0.1358
 3905PP      PP14009   6.792   4.683  12.986 -0.2219  0.3419  0.1075
 3906PP      PP14010   3.523  11.629  10.282  0.0479  0.1304  0.2750
 3907PP      PP14011  10.057  14.334  10.339 -0.2753  0.0379  0.2241
 3908PP      PP14012   8.243  13.843  10.859  0.0480 -0.0523  0.0353
 3909PP      PP14013   8.215  12.002  13.089 -0.1053 -0.0455  0.2894
 3910PP      PP14014   5.020   5.270   1.131  0.1936  0.1894 -0.2383
 3911PP      PP14015   8.486   4.273   4.113 -0.0625  0.3978 -0.3431
 3912PP      PP14016   4.346   2.844   9.956 -0.2398  0.2309 -0.0346
 3913PP      PP14017   2.722   4.939   0.538  0.3809 -0.1278  0.2591
 3914PP      PP14018  14.760  13.307  11.190 -0.3318 -0.0523  0.1894
 3915PP      PP14019   9.437  12.679   0.528 -0.0905  0.2116  0.0908
 3916PP      PP14020   7.322   9.165  12.227  0.0740 -0.0056  0.0376
 3917PP      PP14021   6.089  10.016   3.410 -0.0228  0.1336  0.0277
 3918PP      PP14022   4.648   9.804   3.574  0.3922  0.1386 -0.1418
 3919PP      PP14023  10.787   4.033  11.933 -0.2866  0.1116 -0.0356
 3920PP      PP14024   7.883  11.995  12.667  0.0330  0.1724  0.5799
 3921PP      PP14025   0.102   1.700   4.541 -0.2993  0.0630 -0.4489
 3922PP      PP14026   1.918  13.009   9.540 -0.1722  0.5705 -0.1733
 3923PP      PP14027  10.608   5.844   3.274  0.1209  0.0181 -0.0118
 3924PP      PP14028   3.932   7.035   8.495  0.3375 -0.1848 -0.0783
 3925PP      PP14029   2.733   7.575  12.918  0.2255 -0.1785 -0.3480
 3926PP      PP14030  11.400  12.440   1.197  0.0748  0.2188 -0.0127
 3927PP      PP14031  12.936   5.586   3.574  0.4176  0.1116 -0.1226
 3928PP      PP14032  13.559  13.807  10.673  0.1337  0.0935 -0.3058
 3929PP      PP14033   0.851  12.321   4.305 -0.0371  0.4267 -0.2850
 3930PP      PP14034   4.726   1.397   9.507  0.0588  0.2278 -0.0378
 3931PP      PP14035  14.164   6.904  10.742 -0.1750 -0.1655 -0.1163
 3932PP      PP14036   1.297   8.403  10.538  0.1044  0.1899 -0.0882
 3933PP      PP14037   0.758   6.845   0.055 -0.4305 -0.1486  0.0742
 3934PP      PP14038  14.624  14.142   3.015 -0.1760  0.0589  0.2771
 3935PP      PP14039   4.869  11.067  10.109  0.1342  0.1911  0.1242
 3936PP      PP14040  14.043  13.737   4.901  0.0699 -0.3466  0.0599
 3937PP      PP14041   2.806   0.073  12.209 -0.0720  0.0350  0.1204
 3938PP      PP14042  15.392  12.910   2.579 -0.1708 -0.2213 -0.2605
 3939PP      PP14043  10.469   1.724  12.087 -0.0238 -0.1361 -0.2497
 3940PP      PP14044   9.245   6.711   2.936 -0.0070 -0.0503 -0.0438
 3941PP      PP14045  11.913   2.623  13.542  0.0278 -0.1704  0.1229
 3942PP      PP14046   7.839   0.892   1.079  0.5444 -0.0845  0.0305
 3943PP      PP14047   1.527   5.894   3.106 -0.0804 -0.3585  0.1422
 3944PP      PP14048   0.821  15.495   2.884  0.1769  0.6056  0.1488
 3945PP      PP14049   8.542   0.024  11.348  0.0465  0.0914  0.1016
 3946PP      PP14050  11.768   4.970  10.060 -0.0096  0.1655 -0.1522
 3947PP      PP14051   8.859   5.804   1.003 -0.0395  0.1817 -0.0157
 3948PP      PP14052  13.759   0.036   4.127 -0.0940  0.0861  0.1820
 3949PP      PP14053   8.208   6.690   2.916  0.0198 -0.1857  0.1127
 3950PP      PP14054   0.906  10.278  11.367 -0.2855  0.1046  0.2667
 3951PP      PP14055  11.589   1.225  11.594 -0.1388 -0.1155 -0.3769
 3952PP      PP14056   6.948   8.672  13.350 -0.0218 -0.0772  0.0528
 3953PP      PP14057  11.159   4.779   2.591 -0.0012  0.0305  0.2057
 3954PP      PP14058  15.373  10.011   2.568 -0.0018  0.1940 -0.3683
 3955PP      PP14059  11.090  12.482  11.992 -0.1174  0.0042 -0.0398
 3956PP      PP14060   4.375  15.614  13.532  0.0023  0.1480 -0.0460
 3957PP      PP14061   9.353   0.186  10.044  0.1396  0.1910 -0.0872
 3958PP      PP14062   6.947   4.409  10.641 -0.0197  0.0991 -0.0401
 3959PP      PP14063   2.794  10.353  13.621 -0.0787 -0.0128  0.3059
 3960PP      PP14064  10.418   6.593  10.938  0.0923 -0.1065 -0.2241
 3961PP      PP14065   3.648   2.682   3.526 -0.0156  0.2729 -0.0519
 3962PP      PP14066   0.186  11.979   3.021 -0.0672  0.0230 -0.1121
 3963PP      PP14067   0.913   7.927   4.201 -0.1197  0.2171 -0.0546
 3964PP      PP14068   7.562   4.830   9.568 -0.2398  0.3307  0.0193
 3965PP      PP14069   5.530  11.635  10.585 -0.1464 -0.0181  0.2869
 3966PP      PP14070   8.080   4.344  13.252  0.4054  0.1188 -0.2435
 3967PP      PP14071  15.625   1.353   3.187  0.1317 -0.3037 -0.1624
 3968PP      PP14072   5.017  11.695  11.333 -0.0208  0.0704  0.0832
 3969PP      PP14073  10.493  10.756   0.840 -0.0198 -0.1923 -0.2919
 3970PP      PP14074   1.307   2.569  10.586  0.0791 -0.2414  0.0661
 3971PP      PP14075   9.008  14.668  11.287 -0.0699 -0.2403  0.0882
 3972PP      PP14076   5.534   1.972   9.233  0.1724  0.3525  0.4348
 3973PP      PP14077   9.009  13.428   1.219  0.2866 -0.0373 -0.0051
 3974PP      PP14078   0.727   6.020   3.277  0.2447  0.0533 -0.0696
 3975PP      PP14079   0.878   2.062  12.101 -0.0772 -0.1568 -0.1632
 3976PP      PP14080   0.211   5.202  10.361  0.0686  0.0298  0.1954
 3977PP      PP14081  14.910   0.196  10.022 -0.1793 -0.0716  0.1911
 3978PP      PP14082  15.041  13.471  12.244  0.3335 -0.0245 -0.0812
 3979PP      PP14083  11.369   8.181  10.688  0.2798 -0.1832  0.0821
 3980PP      PP14084   8.825   5.855   9.373  0.0741 -0.0967 -0.2470
 3981PP      PP14085  10.618  10.175  12.862 -0.1837 -0.3355 -0.1201
 3982PP      PP14086   1.991  15.566   4.177 -0.0740  0.0529 -0.0478
 3983PP      PP14087   3.440   6.494  12.692  0.0301  0.0126 -0.0746
 3984PP      PP14088   1.196   7.305  10.581 -0.0904 -0.0907  0.3772
 3985PP      PP14089   9.204   2.056   2.699 -0.0969  0.1211 -0.1389
 3986PP      PP14090   2.984   2.474  10.863  0.1870 -0.1580  0.0550
 3987PP      PP14091   7.185   3.606   3.063 -0.1776 -0.0027 -0.1602
 3988PP      PP14092   2.212   7.515  11.325 -0.1445 -0.1351  0.1869
 3989PP      PP14093   4.645  10.610   4.647  0.2092 -0.0307  0.1317
 3990PP      PP14094   7.965  12.327  12.112  0.1511 -0.1426 -0.1559
 3991PP      PP14095   3.270   0.023   1.525  0.1385  0.0978 -0.2356
 3992PP      PP14096   5.042   4.044  10.722 -0.1781  0.0916 -0.0845
 3993PP      PP14097   1.826   8.313  11.425 -0.2010  0.1740 -0.2851
 3994PP      PP14098   1.527  12.876  10.400 -0.2238 -0.1110  0.4213
 3995PP      PP14099  15.638  14.926  13.500  0.1597  0.1353 -0.3554
 3996PP      PP14100  12.818   3.521   1.099  0.1230 -0.0806 -0.1561
 3997PP      PP14101   9.896   4.478   2.286 -0.2415 -0.0177 -0.3491
 3998PP      PP14102   2.959  12.314   1.221  0.2584 -0.0571 -0.1268
 3999PP      PP14103   3.440  13.625   2.690  0.1018 -0.3252 -0.1393
 4000PP      PP14104  14.132   4.462   1.240  0.0206  0.0263  0.0003
 4001PP      PP14105   4.311  14.847   1.969 -0.1358  0.3279  0.1502
 4002PP      PP14106  15.162   3.995   9.962  0.2987 -0.0434 -0.2227
 4003PP      PP14107  14.927  11.900  11.336 -0.0439 -0.1104 -0.0898
 4004PP      PP14108   4.904   4.503  11.043  0.0439 -0.0369  0.1784
 4005PP      PP14109   6.808  12.807   1.493  0.1793  0.1070  0.2637
 4006PP      PP14110   8.919  13.834  11.151  0.1767  0.1281 -0.0237
 4007PP      PP14111  13.406   0.553   3.715 -0.0023 -0.2320  0.0644
 4008PP      PP14112   0.500  10.806   9.408 -0.0045  0.0613  0.0963
 4009PP      PP14113   8.669   5.955  10.264 -0.0533  0.1516  0.3947
 4010PP      PP14114  14.541   9.933   1.517 -0.0384  0.0624  0.1504
 4011PP      PP14115  15.375   4.138  11.063 -0.2197 -0.2440  0.1121
 4012PP      PP14116   7.962  11.088   9.133 -0.1151 -0.2561  0.2744
 4013PP      PP14117   7.002  12.281  12.048 -0.1160  0.0862 -0.2098
 4014PP      PP14118   0.185  13.877  12.511 -0.1577 -0.2428 -0.0572
 4015PP      PP14119   9.186  10.740  12.162 -0.2311 -0.2632 -0.0729
 4016PP      PP14120   5.777   4.525   3.778 -0.0546  0.1850  0.1595
 4017PP      PP14121   3.981   2.941   2.555  0.1981 -0.2811 -0.1299
 4018PP      PP14122  13.507  14.592   1.375  0.0491 -0.0193  0.1224
 4019PP      PP14123   7.325   4.505   3.524 -0.3831  0.1887 -0.4103
 4020PP      PP14124   1.543   6.507   0.531  0.0554  0.3769 -0.0604
 4021PP      PP14125   3.034   9.572   9.243 -0.1432  0.1353 -0.0004
 4022PP      PP14126   8.988   2.538  11.460 -0.2037 -0.2174  0.2341
 4023PP      PP14127   3.213  11.292   2.743 -0.2312  0.2769  0.0277
 4024PP      PP14128   8.420  14.584   1.650 -0.2315  0.2585 -0.3462
 4025PP      PP14129   2.816   1.565  11.296  0.2858 -0.0747 -0.3287
 4026PP      PP14130   2.486  14.558  10.442 -0.0402  0.1134  0.2826
 4027PP      PP14131  15.663   0.374  11.441 -0.2614  0.0026 -0.2807
 4028PP      PP14132   4.295   6.326   0.781 -0.2124  0.0704 -0.1158
 4029PP      PP14133   7.673   4.313   2.601  0.2414  0.1884  0.1619
 4030PP      PP14134   6.227   7.637   9.948 -0.0112  0.0660 -0.2337
 4031PP      PP14135   0.939   5.495   0.547 -0.1191  0.1151  0.1814
 4032PP      PP14136   4.177   4.536   1.363 -0.3117 -0.0042  0.1031
 4033PP      PP14137  14.467  10.251  11.965 -0.1358 -0.3331 -0.3841
 4034PP      PP14138  14.121   6.524   9.619  0.2416 -0.0380  0.3430
 4035PP      PP14139   3.088  12.735  12.582  0.2069  0.0479 -0.2326
 4036PP      PP14140   2.925  15.054   9.793  0.2885 -0.0027 -0.0656
 4037PP      PP14141   5.054   6.253   0.422 -0.1446 -0.1906 -0.0044
 4038PP      PP14142  15.526   8.835  10.479  0.5196 -0.1380 -0.2214
 4039PP      PP14143   1.859   7.981  11.815 -0.2543  0.1166 -0.0072
 4040PP      PP14144  11.508  10.025   3.773  0.0629 -0.2824  0.1101
 4041PP      PP14145   9.642   1.489   9.967  0.0497 -0.0667  0.2122
 4042PP      PP14146   3.280   4.249  11.598 -0.1327  0.0106  0.2515
 4043PP      PP14147   0.107   7.055   1.851 -0.0325  0.1350  0.0601
 4044PP      PP14148  13.467   1.864  13.219 -0.0176 -0.2919 -0.1510
 4045PP      PP14149   2.805   4.832   1.024 -0.0136 -0.2650  0.0592
 4046PP      PP14150  12.065  13.701   9.818  0.0037  0.1677  0.2059
 4047PP      PP14151   4.508  14.015  12.911  0.3193 -0.1223  0.1821
 4048PP      PP14152   6.317   5.223  12.587  0.1447  0.1238  0.0000
 4049PP      PP14153  15.308   7.178   0.237 -0.0621  0.2058 -0.1942
 4050PP      PP14154   1.488  10.939   1.888 -0.0052  0.1128  0.2579
 4051PP      PP14155   9.420   1.002  10.774  0.1526 -0.2459  0.5116
 4052PP      PP14156   8.790  13.893   2.994 -0.3203 -0.1194  0.0887
 4053PP      PP14157   8.071  10.977  11.987  0.1817  0.1977  0.1296
 4054PP      PP14158   1.673   6.251   4.047 -0.2170 -0.0604  0.1146
 4055PP      PP14159   3.141  14.403  11.734 -0.0561  0.0383 -0.1175
 4056PP      PP14160   6.860   4.354   3.306 -0.2021 -0.0051 -0.1399
 4057PP      PP14161   6.663   0.613  12.891 -0.0294  0.0542 -0.2939
 4058PP      PP14162   1.754   2.428   2.629 -0.2289 -0.0714 -0.0094
 4059PP      PP14163  15.639   8.053  13.618  0.0925  0.1875 -0.0466
 4060PP      PP14164   5.450  11.667   5.277  0.1386 -0.1009 -0.1378
 4061PP      PP14165   0.427  13.273   2.307 -0.2602 -0.0725 -0.3441
 4062PP      PP14166  14.736   1.567   3.499  0.2550  0.1007 -0.3399
 4063PP      PP14167  12.051   7.720   1.226 -0.2296 -0.0366 -0.0707
 4064PP      PP14168  14.683  11.436   4.335  0.0493 -0.1623 -0.1388
 4065PP      PP14169   7.613   0.062  12.023 -0.3236  0.1988  0.3603
 4066PP      PP14170  13.123   4.859  10.443  0.1526  0.1193  0.0576
 4067PP      PP14171   6.593   2.269  12.299  0.3373  0.1061 -0.1632
 4068PP      PP14172   7.913   9.675   0.401  0.1846  0.1788  0.1211
 4069PP      PP14173   5.283   0.607   0.533 -0.1066  0.0597 -0.3486
 4070PP      PP14174  10.675   1.296   3.059  0.0512 -0.0050 -0.1659
 4071PP      PP14175   1.007  10.652  11.741  0.0162 -0.0153 -0.2304
 4072PP      PP14176   9.400  10.328   3.713  0.0382  0.0790 -0.0775
 4073PP      PP14177   3.187   9.481  10.793 -0.3420 -0.2276  0.0620
 4074PP      PP14178   5.602  15.013   0.009 -0.0375 -0.0035 -0.1105
 4075PP      PP14179   9.607  12.173   3.732  0.2029  0.1807 -0.0562
 4076PP      PP14180   8.381  12.207  10.786  0.0329  0.3135 -0.1945
 4077PP      PP14181   3.172  10.639   1.718  0.1447 -0.2221  0.2665
 4078PP      PP14182  14.627   8.277   3.462  0.1112 -0.0049  0.1291
 4079PP      PP14183  10.214  15.340   2.574  0.1481  0.0297 -0.0433
 4080PP      PP14184   3.791  12.717   2.670  0.1057 -0.1749 -0.1565
 4081PP      PP14185  12.128  14.886  12.610  0.0965 -0.1235  0.1414
 4082PP      PP14186  14.432   2.363   1.925  0.0635  0.0255 -0.0166
 4083PP      PP14187   1.000   6.841   8.821 -0.0223 -0.1035 -0.1729
 4084PP      PP14188   1.446   4.231   2.067  0.0132  0.1801 -0.0365
 4085PP      PP14189  13.869  12.553   1.364 -0.1062 -0.1392  0.1477
 4086PP      PP14190   6.578   1.793   1.954 -0.1390  0.1710  0.0927
 4087PP      PP14191  13.637  10.524  10.464  0.3303 -0.3150  0.0752
 4088PP      PP14192   6.293   0.734   3.608  0.3027  0.2105  0.0778
 4089PP      PP14193   5.429   8.758   1.432 -0.0699  0.1087 -0.3144
 4090PP      PP14194   4.127   4.087  12.721  0.0365 -0.2723  0.0071
 4091PP      PP14195   9.028   0.718   1.628  0.0877 -0.1975 -0.0788
 4092PP      PP14196  12.930  10.227   0.530 -0.0166 -0.2402 -0.0668
 4093PP      PP14197  13.136   5.196   0.859  0.1461  0.1313  0.0647
 4094PP      PP14198   1.299  12.687   9.856 -0.3576 -0.0323 -0.0424
 4095PP      PP14199  14.301   3.265   3.527  0.2219  0.1396  0.3115
 4096PP      PP14200   7.168   4.268   1.379  0.1883  0.0964 -0.0797
 4097PP      PP14201   2.384   9.930  12.206  0.2801 -0.5365 -0.0661
 4098PP      PP14202  11.193   8.444   2.864  0.4409 -0.0171  0.0816
 4099PP      PP14203  11.391   3.645  10.152 -0.2063 -0.0185  0.0691
 4100PP      PP14204   9.444   7.855  13.301 -0.2384  0.3588 -0.1066
 4101PP      PP14205   9.733   3.970  10.599 -0.3268 -0.0749  0.0601
 4102PP      PP14206  12.488   6.639  12.637  0.2344  0.0523  0.1924
 4103PP      PP14207   5.288  11.004  13.108 -0.0264 -0.0188  0.1530
 4104PP      PP14208  11.664  15.256   9.318  0.0100  0.0262 -0.1109
 4105PP      PP14209   7.928  14.011   1.156 -0.1923  0.0974  0.1363
 4106PP      PP14210   6.572   5.171   8.611  0.0852 -0.0887  0.0181
 4107PP      PP14211  12.600   6.209  11.797 -0.1247  0.0891  0.0934
 4108PP      PP14212  10.470   3.613   0.707  0.0250 -0.3621  0.0194
 4109PP      PP14213   7.285   7.247  12.906  0.1435 -0.0129 -0.1002
 4110PP      PP14214   2.087   4.703  12.425 -0.1241  0.0410  0.0207
 4111PP      PP14215  10.764   8.277   2.699  0.1077  0.1068 -0.0094
 4112PP      PP14216   2.423   8.499  12.372  0.1264 -0.0158 -0.2390
 4113PP      PP14217   8.830  14.840   3.523  0.3261 -0.0149 -0.0478
 4114PP      PP14218   4.550   0.635   0.290  0.1134 -0.0767  0.1607
 4115PP      PP14219   4.174   4.247   2.135 -0.1778  0.1110  0.1083
 4116PP      PP14220   7.416  14.434  12.416 -0.0121  0.3096  0.0449
 4117PP      PP14221   1.972   0.147   1.801 -0.2218 -0.1030 -0.2607
 4118PP      PP14222   0.055   7.707   0.823 -0.1599 -0.0276 -0.0885
 4119PP      PP14223  10.925   5.490   1.404  0.0335 -0.2550 -0.0064
 4120PP      PP14224   1.310   8.202   9.417 -0.1981  0.3355 -0.1843
 4121PP      PP14225  14.473   7.450  13.778  0.1037  0.0482 -0.0269
 4122PP      PP14226   3.979   0.535   3.849 -0.0998 -0.0352 -0.4461
 4123PP      PP14227   0.475   2.710   3.793  0.0965 -0.2264  0.0546
 4124PP      PP14228   8.908  10.696   2.013  0.1517 -0.0296  0.2194
 4125PP      PP14229   1.967  13.786   3.262 -0.2766 -0.3687 -0.0588
 4126PP      PP14230  11.494  10.213   4.300 -0.0048 -0.2871 -0.3444
 4127PP      PP14231   1.514  10.332   5.097 -0.0002 -0.2030  0.0939
 4128PP      PP14232   5.902  10.321   2.588  0.1376 -0.0252 -0.1733
 4129PP      PP14233  10.421   3.969   1.146 -0.4122  0.2002 -0.0050
 4130PP      PP14234  11.151  10.954   9.036  0.1599  0.1603  0.1314
 4131PP      PP14235   4.968   3.198  13.319  0.0576  0.2123 -0.0823
 4132PP      PP14236   4.770  12.676   2.863  0.3030 -0.0197  0.0496
 4133PP      PP14237  10.999   3.100   1.881 -0.0304 -0.2116  0.0507
 4134PP      PP14238  15.285   3.946  10.424  0.0687  0.1808 -0.1482
 4135PP      PP14239   6.328   7.642  11.081  0.0497  0.1551 -0.0082
 4136PP      PP14240   9.767   5.570  11.820 -0.1289  0.1681 -0.1219
 4137PP      PP14241   4.391   6.988   9.602 -0.0617  0.0421  0.1884
 4138PP      PP14242   7.163   3.967   3.519  0.4137  0.0537  0.0853
 4139PP      PP14243   6.225  12.331   1.163 -0.0925 -0.3893 -0.1513
 4140PP      PP14244   9.482   9.126   2.218  0.0929 -0.2138  0.0178
 4141PP      PP14245  13.752   6.375  10.129  0.2718 -0.1838  0.0578
 4142PP      PP14246  15.001  15.013   4.660 -0.1831 -0.2261  0.1458
 4143PP      PP14247  14.133   8.304   9.968 -0.0014  0.1383  0.2767
 4144PP      PP14248   4.808   9.110  12.674  0.4244  0.0044 -0.1181
 4145PP      PP14249  10.269  11.874   1.829 -0.3020 -0.1070  0.4063
 4146PP      PP14250   9.783   7.606  12.172 -0.1111  0.1854  0.2923
 4147PP      PP14251   2.819   8.769   9.248  0.0241 -0.0525 -0.0638
 4148PP      PP14252   0.385   3.270   8.901 -0.0084 -0.1781 -0.1937
 4149PP      PP14253  13.564   3.967  13.102  0.1087  0.1591  0.1373
 4150PP      PP14254  14.873   8.509  10.515 -0.1395  0.0824 -0.4279
 4151PP      PP14255   9.293  12.276   4.183 -0.0840  0.1636 -0.1940
 4152PP      PP14256   6.010   0.719   4.039 -0.1472  0.0693  0.2974
 4153PP      PP14257   5.789  12.035  13.330 -0.1672  0.0338 -0.0075
 4154PP      PP14258   5.635  13.787  12.370 -0.3020  0.1065 -0.1279
 4155PP      PP14259  12.042   1.832  10.101  0.0863  0.0329  0.0614
 4156PP      PP14260  10.266   4.225   0.034  0.2216  0.1340  0.3407
 4157PP      PP14261   2.585  14.463  11.681 -0.1993 -0.0734 -0.1733
 4158PP      PP14262   1.941  12.543   3.422  0.0354 -0.0426  0.0299
 4159PP      PP14263   5.050   5.323   9.221  0.1115 -0.4317  0.1630
 4160PP      PP14264  14.445   8.752   1.074  0.0874 -0.0163 -0.1101
 4161PP      PP14265   9.497  11.810  11.265 -0.0055 -0.2390  0.0322
 4162PP      PP14266   5.387  13.260   2.279 -0.1742 -0.2591 -0.2521
 4163PP      PP14267  14.164   6.190   1.407 -0.0390  0.4224 -0.0924
 4164PP      PP14268   8.010  11.167   2.125 -0.1191  0.1303  0.2279
 4165PP      PP14269   3.308   5.614   2.298 -0.0885 -0.0481 -0.0669
 4166PP      PP14270   7.186   1.267   9.942  0.0037  0.3168  0.3093
 4167PP      PP14271  14.795   1.876  11.473 -0.1341  0.2020  0.1745
 4168PP      PP14272  14.013  12.729  11.292  0.0615  0.3700  0.1200
 4169PP      PP14273  11.682   1.743   1.767 -0.2447  0.0166  0.1727
 4170PP      PP14274   2.082   5.294  11.213 -0.1664  0.1946  0.0940
 4171PP      PP14275   3.779  12.888   4.358  0.0961  0.0480 -0.3067
 4172PP      PP14276   2.783   4.102   9.796 -0.1127 -0.0257 -0.1301
 4173PP      PP14277   4.499   8.139   3.354  0.2536  0.0476 -0.2709
 4174PP      PP14278   3.292   4.116  12.106  0.3439  0.1741  0.4086
 4175PP      PP14279   8.438   2.278   8.518  0.0052  0.4048  0.1324
 4176PP      PP14280   9.288   1.726  13.121  0.0518  0.2144 -0.2569
 4177PP      PP14281   9.564   6.993  12.007 -0.1704 -0.0732 -0.1116
 4178PP      PP14282   0.449   0.950  10.237  0.0525 -0.2071 -0.4028
 4179PP      PP14283  13.156   3.816   0.275 -0.2531 -0.0634  0.0132
 4180PP      PP14284   6.381   6.897   3.624 -0.2732 -0.0892 -0.3154
 4181PP      PP14285   4.221   3.332   0.146  0.1152  0.0237  0.1131
 4182PP      PP14286   8.178   9.352  13.246  0.2671 -0.2862  0.1042
 4183PP      PP14287   4.239   5.083   3.811  0.1637 -0.2041 -0.1909
 4184PP      PP14288   7.948   5.190   9.573 -0.0046  0.0275  0.0674
 4185PP      PP14289  14.370   4.029   1.272 -0.2991 -0.0499  0.3282
 4186PP      PP14290   1.933  13.554   1.032  0.1548  0.2581 -0.0032
 4187PP      PP14291  12.199   9.555  11.227 -0.1976 -0.0494 -0.0655
 4188PP      PP14292   4.555  13.031  11.531  0.0586  0.2773  0.5148
 4189PP      PP14293  14.547   9.276  12.123  0.1770  0.1255  0.2264
 4190PP      PP14294  14.491   1.999   3.604 -0.0779 -0.0746  0.1641
 4191PP      PP14295   4.281   2.608   3.680 -0.0907  0.2209 -0.0210
 4192PP      PP14296   4.072   9.502  12.211 -0.0601 -0.0408 -0.0434
 4193PP      PP14297   3.908   3.210  13.080  0.0249  0.1408  0.1871
 4194PP      PP14298  12.457  11.339   3.241  0.1063 -0.0421 -0.0184
 4195PP      PP14299  11.071   6.529   3.533  0.1388  0.3031  0.1265
 4196PP      PP14300  15.683  11.296  11.629  0.0575  0.0517  0.2579
 4197PP      PP14301   8.800   2.755   1.451 -0.3231  0.0486  0.0120
 4198PP      PP14302  10.093  13.138   0.286 -0.0354  0.2646 -0.2506
 4199PP      PP14303   8.579  12.062   0.550 -0.0643  0.0270  0.2274
 4200PP      PP14304  14.110   3.024  12.701 -0.0643  0.4272 -0.5729
 4201PP      PP14305   7.355   1.435  13.388 -0.0253 -0.1332  0.5189
 4202PP      PP14306  10.014  12.322  10.863 -0.3886  0.0595  0.2159
 4203PP      PP14307  13.118   1.905   2.116 -0.2122 -0.0507  0.1947
 4204PP      PP14308   3.357  13.057  10.496  0.3336  0.0960 -0.3697
 4205PP      PP14309   4.551   9.711  10.008 -0.2680 -0.1966  0.2904
 4206PP      PP14310   0.586  15.231   4.028 -0.2189  0.0270  0.1252
 4207PP      PP14311   9.230  13.758   3.420  0.1354 -0.1411 -0.1047
 4208PP      PP14312   1.760   4.287   3.812  0.0534 -0.1054 -0.0842
 4209PP      PP14313   9.570  10.056   4.167  0.0496  0.2173 -0.3840
 4210PP      PP14314  10.505   7.920   2.394  0.1246  0.2126 -0.2584
 4211PP      PP14315  13.457  11.841  13.575  0.1421 -0.1641 -0.1946
 4212PP      PP14316   8.212  13.963  10.223  0.0301 -0.1856  0.0807
 4213PP      PP14317   3.828   3.386   1.695 -0.0830  0.0378  0.2692
 4214PP      PP14318   3.470   7.212   2.855 -0.0081  0.0678 -0.0750
 4215PP      PP14319  10.142   0.008  11.425  0.0288 -0.1150  0.2820
 4216PP      PP14320  13.839  12.672   3.647  0.1122  0.3273  0.2834
 4217PP      PP14321   1.206   0.716  11.212  0.1134  0.0163  0.1285
 4218PP      PP14322  13.064  12.488   4.552  0.2070 -0.1990 -0.2602
 4219PP      PP14323  13.150   8.939   9.020  0.1164 -0.1944 -0.3232
 4220PP      PP14324   6.933  12.047  13.753 -0.0193  0.0828  0.0594
 4221PP      PP14325  15.394   8.826   2.324  0.3602  0.1954  0.2019
 4222PP      PP14326   4.152   8.031   2.870 -0.3351 -0.0265  0.1633
 4223PP      PP14327  14.134   6.909  13.543 -0.1703 -0.3277 -0.0734
 4224PP      PP14328  15.455   2.400   0.196  0.0075  0.2757  0.1046
 4225PP      PP14329   6.202  14.821   4.973  0.1245 -0.0170 -0.1979
 4226PP      PP14330   6.704   5.783   1.301  0.0686 -0.1876  0.1462
 4227PP      PP14331   0.353   7.799  12.254 -0.3261 -0.1039 -0.0216
 4228PP      PP14332  14.719   5.017  13.749 -0.0457 -0.1177 -0.2057
 4229PP      PP14333   7.816   9.442  12.892  0.0580  0.2561  0.0033
 4230PP      PP14334   2.332  15.730   3.326  0.0040  0.0209  0.0092
 4231PP      PP14335   2.807   4.509  11.601 -0.1111  0.1667 -0.0516
 4232PP      PP14336   3.286   6.563  13.644 -0.0883  0.1795  0.1513
 4233PP      PP14337   6.616   3.349   2.688 -0.4018  0.3199 -0.0012
 4234PP      PP14338   6.531   9.030  11.737 -0.2071  0.1296  0.2761
 4235PP      PP14339  13.554   9.977  12.905  0.1203 -0.1720  0.3100
 4236PP      PP14340   1.535   7.155  13.393 -0.0967  0.1808 -0.0314
 4237PP      PP14341   7.919   2.402   9.776 -0.0959 -0.0498  0.2214
 4238PP      PP14342  10.534   6.135   9.801  0.2303 -0.0606  0.1518
 4239PP      PP14343  11.083   0.032  10.281 -0.1322  0.1062  0.1379
 4240PP      PP14344   9.717   9.461   2.594 -0.2262 -0.5335 -0.3010
 4241PP      PP14345  14.184  13.745  12.846  0.4333 -0.0729 -0.0411
 4242PP      PP14346  14.116   2.002   1.699 -0.0974  0.1587 -0.1892
 4243PP      PP14347   4.124   0.165  11.692  0.2092  0.1134 -0.1328
 4244PP      PP14348  12.338   6.277  10.724  0.1080  0.0357 -0.2419
 4245PP      PP14349   0.546   2.183   4.454 -0.2352 -0.2648 -0.0559
 4246PP      PP14350   3.706   6.904  12.540 -0.1286 -0.0526 -0.1439
 4247PP      PP14351   8.451   9.242  12.202  0.1053  0.2331 -0.0763
 4248PP      PP14352   8.901   7.402  11.868 -0.1957  0.2446  0.1434
 4249PP      PP14353   6.549   9.202  10.727  0.2258 -0.3286 -0.2237
 4250PP      PP14354   7.271   3.639   8.712 -0.4830 -0.1192  0.1252
 4251PP      PP14355  14.806   7.744  13.466 -0.0963  0.1047 -0.3406
 4252PP      PP14356  10.460   8.277  13.568 -0.1901  0.0827  0.0383
 4253PP      PP14357  12.915  13.517   2.193 -0.1343 -0.0268  0.0493
 4254PP      PP14358   0.234   7.650   9.097  0.0124 -0.2787 -0.3578
 4255PP      PP14359   7.408   5.968   9.454 -0.0842  0.0479  0.5256
 4256PP      PP14360   4.435   8.673   1.398 -0.2507  0.0589 -0.1901
 4257PP      PP14361   1.615   0.793  13.159 -0.1965 -0.0726 -0.0173
 4258PP      PP14362   8.050   6.093  11.937 -0.0739 -0.2429  0.1734
 4259PP      PP14363   5.269  12.848   2.674  0.2833 -0.0100  0.2030
 4260PP      PP14364   9.225  13.151  13.664 -0.1837 -0.2154 -0.0444
 4261PP      PP14365   4.645   7.786   2.851 -0.1916 -0.0178 -0.0323
 4262PP      PP14366   4.599  10.235   0.091  0.2297 -0.2029 -0.1152
 4263PP      PP14367   8.594   6.879   3.720 -0.0877 -0.0569  0.0431
 4264PP      PP14368   8.405   3.353   1.479 -0.0405 -0.1349 -0.1517
 4265PP      PP14369   9.117   7.493  13.282 -0.1338  0.2008  0.3223
 4266PP      PP14370   3.786   3.398  11.610  0.4158  0.2911 -0.0447
 4267PP      PP14371   1.832  14.139   1.836 -0.1828 -0.0094  0.0847
 4268PP      PP14372   9.391   9.986   3.298  0.0217 -0.1573 -0.0286
 4269PP      PP14373   3.222   5.518   9.936  0.2336 -0.0484 -0.0528
 4270PP      PP14374   4.811  13.927   1.754 -0.1474  0.0174 -0.4100
 4271PP      PP14375  14.034  13.705   1.521 -0.3957  0.0700  0.1387
 4272PP      PP14376  13.241  14.528   0.511 -0.0694 -0.0123 -0.4497
 4273PP      PP14377   4.993   0.113  12.543 -0.1161 -0.1557 -0.1331
 4274PP      PP14378  13.931   9.621   1.737  0.1457  0.0725  0.0565
 4275PP      PP14379   3.963   7.364   3.806 -0.0097  0.0534 -0.1424
 4276PP      PP14380  11.784  11.319   9.519  0.0353 -0.1041  0.2356
 4277PP      PP14381  14.823   6.805   9.050  0.1309 -0.2799  0.2101
 4278PP      PP14382   0.076   6.036  13.657  0.0499  0.0818  0.4717
 4279PP      PP14383   1.333  10.922  10.799 -0.1195 -0.2015  0.0248
 4280PP      PP14384   7.168   9.900   4.770  0.1397  0.0225 -0.1003
 4281PP      PP14385   5.283   8.597  12.534  0.1542 -0.0445 -0.2754
 4282PP      PP14386  14.060  15.242   4.900  0.1363 -0.3235  0.0709
 4283PP      PP14387  10.522   9.093   2.524 -0.2981 -0.0201 -0.2303
 4284PP      PP14388   8.059   7.250   0.323 -0.1600  0.1766  0.0955
 4285PP      PP14389   6.971  13.854  11.787  0.0520 -0.1310  0.0373
 4286PP      PP14390   6.912   7.781  12.222  0.1275  0.0866  0.0062
 4287PP      PP14391   2.301  13.894  13.156 -0.0542  0.1413 -0.3125
 4288PP      PP14392   8.782  13.600   8.353 -0.1382 -0.0717  0.0562
 4289PP      PP14393   6.360   2.308  10.015  0.1253 -0.2650 -0.2275
 4290PP      PP14394   5.392   1.428   1.922 -0.1534 -0.1015  0.2839
 4291PP      PP14395   3.391   7.387  11.467  0.0798  0.2033  0.0635
 4292PP      PP14396   9.910   6.422   2.749  0.2286 -0.0342 -0.0818
 4293PP      PP14397   7.459  14.645   1.601  0.0146 -0.0813  0.1368
 4294PP      PP14398  15.360  13.187  11.431  0.2118  0.1562  0.0355
 4295PP      PP14399   5.536   0.339  10.439 -0.1217 -0.0583  0.1959
 4296PP      PP14400   6.905   6.860   4.435 -0.0441  0.2782 -0.1059
 4297PP      PP14401  13.953   6.467  13.310  0.0628 -0.3139  0.0219
 4298PP      PP14402  10.475   5.801   1.474  0.0089  0.2025  0.0141
 4299PP      PP14403   9.698   4.505  10.442 -0.2199  0.2170 -0.0946
 4300PP      PP14404   6.143  15.576   1.505  0.1537  0.0521  0.0053
 4301PP      PP14405  10.267   1.895   0.419  0.1106  0.0018  0.1136
 4302PP      PP14406   6.725  13.004  12.257  0.1277  0.0470  0.1089
 4303PP      PP14407   4.177  10.741   3.915  0.2331 -0.0836  0.2251
 4304PP      PP14408  15.377  11.638  11.337  0.3243 -0.2193 -0.1436
 4305PP      PP14409   0.245  11.267   2.467  0.3903 -0.0970 -0.0204
 4306PP      PP14410   6.121   6.157   1.778 -0.2599  0.2660  0.3200
 4307PP      PP14411   5.603   7.074  11.834 -0.0638 -0.1478  0.1925
 4308PP      PP14412   9.314  13.872  13.682 -0.3165  0.0490  0.1390
 4309PP      PP14413  10.066   7.384  13.606 -0.2372 -0.4187  0.0906
 4310PP      PP14414  14.622  15.521  10.133 -0.3463 -0.1505  0.0359
 4311PP      PP14415   4.529   0.148   0.212  0.2660 -0.1932 -0.1251
 4312PP      PP14416  14.259   0.074   9.351  0.2159 -0.0959  0.1918
 4313PP      PP14417   4.200   4.422   9.740  0.5213  0.0711 -0.2237
 4314PP      PP14418   0.939   0.907  12.261  0.0293  0.4519  0.2457
 4315PP      PP14419   6.387  12.087  12.520  0.0104  0.4438  0.2052
 4316PP      PP14420  10.315   0.781  11.943  0.0433 -0.0781  0.2023
 4317PP      PP14421  10.197   6.964   2.566 -0.1152  0.1334 -0.1095
 4318PP      PP14422  15.204   0.489   1.037  0.1168  0.2636  0.0942
 4319PP      PP14423   0.414   2.476   0.308  0.0709  0.1822 -0.1894
 4320PP      PP14424   9.891   1.014   9.883 -0.4216  0.0226  0.0351
 4321PP      PP14425   1.274   8.020  10.830 -0.3174  0.0565  0.1105
 4322PP      PP14426  11.025   5.107   3.508  0.1701 -0.1249 -0.2858
 4323PP      PP14427  12.134  10.601   2.066  0.1241 -0.1233 -0.1084
 4324PP      PP14428  14.934   7.495   3.901  0.1056  0.1038  0.2273
 4325PP      PP14429   5.202   7.563   9.963 -0.2879 -0.0342 -0.2176
 4326PP      PP14430   1.406   3.116  13.293 -0.0452 -0.3925 -0.1351
 4327PP      PP14431  13.940   5.483   8.484 -0.3429 -0.1387  0.0754
 4328PP      PP14432   9.976  14.787   8.656  0.1488  0.0676 -0.1733
 4329PP      PP14433   2.839  11.691  13.271 -0.0514 -0.0948  0.3354
 4330PP      PP14434   8.629  15.591   1.353  0.2855  0.0975  0.0460
 4331PP      PP14435  13.512   9.154  13.612  0.2520  0.0475  0.0174
 4332PP      PP14436   6.134  15.147   1.190 -0.1524 -0.1001  0.1168
 4333PP      PP14437   8.938   2.883   9.009 -0.3681  0.2477  0.0541
 4334PP      PP14438  15.218   0.014  11.356  0.1282  0.1655  0.2302
 4335PP      PP14439   4.492  12.637   3.886 -0.2304  0.1092  0.0925
 4336PP      PP14440   4.176   1.358   1.985 -0.0680 -0.4072 -0.2355
 4337PP      PP14441   4.377   3.049  10.509 -0.1404 -0.1547 -0.2936
 4338PP      PP14442   7.330  13.389   0.707  0.0578  0.0068  0.0113
 4339PP      PP14443   0.570   8.092   0.172  0.0537 -0.1811  0.2115
 4340PP      PP14444   7.071   2.023   3.871  0.1581  0.0528 -0.1168
 4341PP      PP14445   0.070  14.374   1.870  0.2954 -0.0043 -0.1361
 4342PP      PP14446   7.792  14.937   2.266 -0.3075  0.1595  0.0656
 4343PP      PP14447  13.825   5.897  13.196  0.0640  0.1002 -0.4139
 4344PP      PP14448   5.125   6.424   2.939  0.0454  0.1128 -0.0281
 4345PP      PP14449   7.385  10.147  10.346 -0.0402  0.1178  0.0161
 4346PP      PP14450   4.953   3.694   3.008 -0.2980  0.3056 -0.0193
 4347PP      PP14451   1.053  12.024   1.220 -0.1606  0.2168 -0.0532
 4348PP      PP14452   4.547  12.968   0.118 -0.0432  0.1205  0.0670
 4349PP      PP14453  14.803  12.702   2.677 -0.1240 -0.0772 -0.0630
 4350PP      PP14454   1.908   7.311  12.306  0.3106  0.1015 -0.2426
 4351PP      PP14455   7.759   7.155   3.566  0.0428  0.0266  0.0015
 4352PP      PP14456   2.597   1.043   3.356 -0.0168  0.1447 -0.0778
 4353PP      PP14457  14.908   8.674   3.188 -0.0903  0.1899 -0.3425
 4354PP      PP14458   7.432   1.128   9.124  0.0412 -0.1119 -0.1010
 4355PP      PP14459  12.275   0.925   3.336 -0.2987  0.1052 -0.0955
 4356PP      PP14460   2.227  12.050   4.582  0.0545  0.0872  0.2004
 4357PP      PP14461   7.757   6.193  12.750 -0.0876 -0.1567  0.4854
 4358PP      PP14462  14.344   2.325  10.241 -0.0220 -0.0833  0.0750
 4359PP      PP14463   9.802   1.910  13.234  0.0452  0.0598 -0.1828
 4360PP      PP14464   9.264   7.945  10.163 -0.0895  0.0500 -0.0999
 4361PP      PP14465  11.228  11.153   1.098 -0.1639 -0.3730 -0.2779
 4362PP      PP14466   4.151   6.609  12.596  0.0833 -0.0422 -0.0439
 4363PP      PP14467  11.893  13.490  13.513 -0.2275  0.1760  0.3657
 4364PP      PP14468   8.392  12.519   3.054 -0.2174 -0.0123 -0.4101
 4365PP      PP14469   9.145  12.690   9.767  0.1280 -0.0920  0.0676
 4366PP      PP14470  10.806   9.546   2.640  0.0137  0.0847  0.0235
 4367PP      PP14471   5.703  13.014  12.549  0.3321 -0.0446  0.1225
 4368PP      PP14472   4.929  13.499  10.693  0.2199 -0.0702 -0.2935
 4369PP      PP14473  15.085  15.586  10.331 -0.0626  0.0833  0.2706
 4370PP      PP14474  13.890   3.508   9.874 -0.4174  0.0056  0.0214
 4371PP      PP14475   8.531   2.449  10.637 -0.0907 -0.0551 -0.1675
 4372PP      PP14476   5.636   0.392  12.085 -0.4774 -0.3243 -0.0325
 4373PP      PP14477   4.415   1.322   3.798  0.2366 -0.0866  0.1074
 4374PP      PP14478   6.683   1.196  11.462 -0.1645  0.1702 -0.0577
 4375PP      PP14479   7.756  11.106   0.294  0.1994  0.1186 -0.0843
 4376PP      PP14480  10.318   8.197   2.956  0.1907  0.3343  0.1524
 4377PP      PP14481   3.587   6.309   9.485  0.2083 -0.0510  0.1921
 4378PP      PP14482   6.084   1.989   9.799  0.0855 -0.1052  0.2821
 4379PP      PP14483   3.172   0.217   4.291 -0.0594  0.1884 -0.0113
 4380PP      PP14484  10.719   1.156  12.142 -0.3686 -0.2919  0.0128
 4381PP      PP14485  10.672   1.916  13.012 -0.0049  0.0495  0.2223
 4382PP      PP14486   2.061   1.984   2.988  0.2066  0.2728 -0.2943
 4383PP      PP14487   7.904   8.644   0.380 -0.2940 -0.2934 -0.1545
 4384PP      PP14488   8.312   3.827   1.568  0.0097 -0.0513 -0.0323
 4385PP      PP14489  13.183   4.292   8.495 -0.1505  0.3051 -0.0632
 4386PP      PP14490   8.417   9.767   0.640 -0.4960 -0.0321  0.1468
 4387PP      PP14491  12.532   8.700  12.387  0.0458  0.1085 -0.2434
 4388PP      PP14492   8.131  14.518   2.514 -0.3113 -0.2055 -0.2703
 4389PP      PP14493   4.964   5.764   9.452  0.0779  0.0501  0.0190
 4390PP      PP14494  13.843   7.812  13.347  0.0564 -0.2804 -0.0371
 4391PP      PP14495   2.005   0.358  13.288  0.1087  0.2763  0.2484
 4392PP      PP14496   4.079   0.856   1.718  0.2387  0.0260 -0.3508
 4393PP      PP14497   2.857  12.193  10.476  0.0676 -0.0404 -0.0656
 4394PP      PP14498   5.406   3.482  13.586 -0.0177  0.0404  0.1055
 4395PP      PP14499   3.020   2.483  12.976  0.2676  0.3135  0.0312
 4396PP      PP14500   4.131   6.286   0.201  0.1705 -0.4526  0.1457
 4397PP      PP14501   5.189  10.676   1.212 -0.6104 -0.0579 -0.2483
 4398PP      PP14502   7.733   8.877   1.663 -0.0947 -0.1398  0.0285
 4399PP      PP14503  11.006  12.031  12.445 -0.0825  0.0739  0.4202
 4400PP      PP14504   6.500   6.235   9.620 -0.2015 -0.3232  0.2349
 4401PP      PP14505   6.771  11.259   4.856 -0.0918 -0.1854 -0.1106
 4402PP      PP14506   8.915   1.280  12.257  0.0286  0.1617 -0.0420
 4403PP      PP14507  12.100   6.032  12.183 -0.1596  0.0728 -0.2405
 4404PP      PP14508   3.793   6.065   0.522  0.2196 -0.2374  0.1303
 4405PP      PP14509   7.823   5.867   0.126  0.2947 -0.0048  0.2431
 4406PP      PP14510   8.083   6.910   8.954 -0.4964  0.4166 -0.2075
 4407PP      PP14511  12.800   3.321   3.392  0.2433  0.1476 -0.2318
 4408PP      PP14512   5.115   4.384   2.453 -0.1416 -0.4681 -0.2225
 4409PP      PP14513  11.660   6.090   0.420 -0.1184  0.0082  0.1299
 4410PP      PP14514   1.540  15.519   3.844  0.1681  0.0835 -0.1984
 4411PP      PP14515  14.861   4.798   8.647 -0.1016  0.3317  0.1664
 4412PP      PP14516  11.524   2.661  11.178 -0.0499 -0.2443 -0.2634
 4413PP      PP14517   2.105   7.598  11.827 -0.0784  0.2913 -0.0844
 4414PP      PP14518   1.357   2.777   3.821  0.2058 -0.0011 -0.0887
 4415PP      PP14519   0.834   7.891  12.501 -0.3262  0.1804 -0.1901
 4416PP      PP14520   1.075   2.192   3.191 -0.0223  0.3150  0.0493
 4417PP      PP14521  12.649   5.463  10.370 -0.2208 -0.2271 -0.3134
 4418PP      PP14522   6.143   6.531   8.856 -0.0921 -0.2850  0.0608
 4419PP      PP14523  12.182  10.705  10.022 -0.0491  0.0884 -0.0919
 4420PP      PP14524   9.206  10.220   2.821  0.2415  0.0125  0.0293
 4421PP      PP14525   8.261  10.299  11.432  0.3874  0.0589  0.0785
 4422PP      PP14526   5.436   6.325  10.714 -0.1591  0.0041  0.1203
 4423PP      PP14527  10.142  11.186   3.870  0.0698 -0.0934  0.2619
 4424PP      PP14528   3.664  10.393  13.090 -0.1616  0.1668  0.0201
 4425PP      PP14529   9.844   8.359   1.345 -0.0601 -0.1005  0.0586
 4426PP      PP14530  12.838   7.082   9.487  0.2111  0.1443 -0.0702
 4427PP      PP14531   1.901  13.621   1.934 -0.2386 -0.0243 -0.0348
 4428PP      PP14532  13.042  10.384   1.879 -0.2992  0.2172 -0.0936
 4429PP      PP14533   7.444   0.936  11.308  0.4252  0.1152 -0.0033
 4430PP      PP14534   3.822   5.837   9.985 -0.1958  0.0227 -0.3053
 4431PP      PP14535  11.919   1.864   9.408  0.0036  0.0544 -0.1744
 4432PP      PP14536   9.870  14.981   9.789 -0.1231  0.1214  0.0650
 4433PP      PP14537   1.711   5.973  10.257 -0.0694 -0.2267 -0.0563
 4434PP      PP14538   6.269  14.583   4.186  0.0036 -0.1570  0.0912
 4435PP      PP14539  15.275  11.846   4.199 -0.3952  0.0016 -0.1498
 4436PP      PP14540   1.190   9.147   3.476 -0.2038  0.0697  0.0040
 4437PP      PP14541   9.363  10.243   4.644  0.2325  0.2076  0.0695
 4438PP      PP14542  14.599   9.230   0.882  0.1053 -0.0478  0.2902
 4439PP      PP14543  15.424   1.585   9.965  0.2603 -0.0098  0.0612
 4440PP      PP14544   2.289  13.232   5.324 -0.0835 -0.2636  0.0087
 4441PP      PP14545   7.663   4.077  11.988 -0.3408  0.0856 -0.1287
 4442PP      PP14546   2.421   3.183  11.780 -0.0164 -0.0864 -0.2479
 4443PP      PP14547   9.932   4.939   9.388 -0.0109 -0.0730 -0.2295
 4444PP      PP14548  13.206   8.928   0.642  0.0606  0.1726 -0.3888
 4445PP      PP14549  11.596   9.749  11.234  0.0129 -0.1861  0.1731
 4446PP      PP14550   9.595  15.036  10.404  0.2749 -0.1366 -0.0338
 4447PP      PP14551  10.927   9.831  13.617 -0.1313  0.2408  0.0390
 4448PP      PP14552   1.145   0.913   2.888  0.0524  0.2689 -0.0383
 4449PP      PP14553  10.407   3.795   8.869 -0.1815  0.0864 -0.1315
 4450PP      PP14554  12.902  15.627   3.884 -0.3669  0.0031  0.3388
 4451PP      PP14555   8.566  14.045   9.876 -0.1577  0.3015 -0.1522
 4452PP      PP14556  11.066   0.125   2.793  0.0077  0.3952 -0.0912
 4453PP      PP14557  14.000   0.340   2.192  0.1888  0.1056 -0.1695
 4454PP      PP14558  11.888   6.057  10.799 -0.1240  0.0430  0.2122
 4455PP      PP14559   1.435   4.347   3.073 -0.0855  0.0120  0.3265
 4456PP      PP14560  13.336   6.196  12.053 -0.0651  0.1046 -0.1909
 4457PP      PP14561   9.753  11.749  13.063 -0.0790 -0.3012  0.1522
 4458PP      PP14562   6.158  11.092  10.529 -0.3274  0.0110 -0.0183
 4459PP      PP14563   4.519   7.496  12.799 -0.1785 -0.1661  0.1413
 4460PP      PP14564   1.009   9.710   9.215 -0.0031 -0.0876 -0.0423
 4461PP      PP14565   1.501  12.891   8.988 -0.1893  0.1364 -0.0606
 4462PP      PP14566   7.068   0.771  11.605 -0.1067 -0.0810 -0.2213
 4463PP      PP14567   1.451   8.046   0.489  0.2418  0.0787  0.3218
 4464PP      PP14568   1.416   6.471   2.122 -0.3238  0.0746 -0.1229
 4465PP      PP14569  11.861  15.356   4.006  0.0326  0.1803 -0.0681
 4466PP      PP14570  15.563   3.949   1.881  0.1516 -0.0247  0.0896
 4467PP      PP14571   4.274  14.892   5.619  0.2105  0.0447  0.2825
 4468PP      PP14572   2.278  12.366   9.936 -0.4312  0.2486  0.0490
 4469PP      PP14573   2.602   6.907  13.494 -0.0874 -0.6758 -0.0714
 4470PP      PP14574  10.918   6.609  10.950 -0.0486  0.0161 -0.1780
 4471PP      PP14575   2.728  11.303   4.230  0.0853  0.0213  0.0956
 4472PP      PP14576   2.889  10.117   1.825  0.0563  0.1133 -0.3944
 4473PP      PP14577   6.274   4.305  10.707 -0.1756  0.0421 -0.2038
 4474PP      PP14578   9.212  10.760  13.044 -0.0207 -0.1342 -0.0192
 4475PP      PP14579  12.635   9.319   2.721 -0.0082  0.0545  0.1483
 4476PP      PP14580   7.245   5.849  12.243 -0.0599  0.2314 -0.1725
 4477PP      PP14581   2.053   5.145  12.259  0.2067 -0.1339 -0.2915
 4478PP      PP14582  11.413   0.681   0.568  0.3271 -0.1587 -0.0913
 4479PP      PP14583   1.367   2.059  11.885 -0.0340 -0.0269 -0.1012
 4480PP      PP14584  11.439  11.725  12.579 -0.1408  0.0976  0.0475
 4481PP      PP14585   3.312   1.016   3.568  0.0706  0.2120  0.0463
 4482PP      PP14586   0.472   6.740   1.775 -0.1565 -0.0663  0.1638
 4483PP      PP14587   5.913  13.677   3.302  0.0808 -0.1304  0.1609
 4484PP      PP14588   1.995  14.252   2.751  0.1746  0.0863  0.3422
 4485PP      PP14589   7.226   7.148  12.375  0.3523  0.2505 -0.0130
 4486PP      PP14590   3.199  13.185   4.863  0.0958  0.0319  0.0216
 4487PP      PP14591   1.350   0.346  13.225  0.4400  0.1974 -0.2062
 4488PP      PP14592   4.467  14.483  12.569 -0.0321 -0.2027 -0.0689
 4489PP      PP14593  13.042   3.458   2.953  0.1185 -0.4370  0.0394
 4490PP      PP14594  11.102   2.256  10.982  0.1297  0.1052 -0.2609
 4491PP      PP14595   7.749  14.588   4.736  0.2118 -0.2148  0.0513
 4492PP      PP14596   7.817   7.169  11.867 -0.0818 -0.1298 -0.1463
 4493PP      PP14597  14.258   4.271  13.555  0.1606 -0.1049 -0.2944
 4494PP      PP14598   6.589  11.252   1.181  0.2935 -0.1329  0.1501
 4495PP      PP14599   3.030  12.208  13.267 -0.2100  0.0426 -0.0414
 4496PP      PP14600   8.721  14.940   2.818 -0.1396  0.0163 -0.2153
 4497PP      PP14601   2.968   2.591   0.099 -0.3067 -0.2414 -0.0621
 4498PP      PP14602  14.013  11.039  12.405 -0.1229 -0.2168 -0.1630
 4499PP      PP14603  12.677   4.481  10.879 -0.1943 -0.3750  0.0011
 4500PP      PP14604   6.842   1.407  11.943  0.1313 -0.3280  0.0644
 4501PP      PP14605  10.470   7.978   1.034  0.0111  0.3146 -0.2306
 4502PP      PP14606  14.896   3.588  10.930  0.3749  0.0526  0.2696
 4503PP      PP14607   9.021  12.976   0.853  0.1446  0.0424  0.2312
 4504PP      PP14608   4.120   9.452   1.582  0.0539  0.1540 -0.4843
 4505PP      PP14609   3.252   7.260   0.884 -0.2416  0.2848  0.0651
 4506PP      PP14610  12.565  11.807   2.944 -0.4088 -0.2204  0.0563
 4507PP      PP14611   6.514   7.719   9.238 -0.0535 -0.1990  0.0884
 4508PP      PP14612  12.984  10.058  13.352  0.0405  0.0747 -0.0126
 4509PP      PP14613   4.485   8.292   2.518 -0.0559 -0.1759  0.1678
 4510PP      PP14614  15.162  14.910   0.721 -0.2971  0.4467 -0.0357
 4511PP      PP14615  11.765   4.269  11.976  0.1635  0.3299 -0.0026
 4512PP      PP14616   6.884  15.358  10.887 -0.1142 -0.0743  0.0351
 4513PP      PP14617   6.335   3.483  11.671 -0.0793  0.1122 -0.0614
 4514PP      PP14618   4.033   8.393   1.631 -0.0644  0.1818  0.3248
 4515PP      PP14619  11.838  10.355   0.125 -0.1046 -0.1344  0.0914
 4516PP      PP14620   4.549   9.489   3.920 -0.3364  0.1821  0.0576
 4517PP      PP14621  14.614   7.950   8.819  0.0321  0.1443 -0.1226
 4518PP      PP14622   1.270   3.450   0.029  0.1595 -0.1801 -0.0984
 4519PP      PP14623   9.453  12.132   1.000 -0.0549 -0.2307 -0.0051
 4520PP      PP14624   0.312   6.531   2.991 -0.0212  0.0358  0.1703
 4521PP      PP14625  11.649  12.390   9.780 -0.1405  0.0111 -0.2597
 4522PP      PP14626   2.673  10.666  13.229 -0.0522  0.3094  0.4978
 4523PP      PP14627  12.683   2.750   2.013 -0.4623 -0.2971  0.1086
 4524PP      PP14628  12.154  11.155  12.833  0.2108 -0.0241 -0.1268
 4525PP      PP14629  10.592  10.522  11.287  0.1664  0.0972 -0.0809
 4526PP      PP14630  12.225   6.953   3.896  0.2139  0.2766 -0.1312
 4527PP      PP14631   7.065  10.837   2.714  0.0083 -0.0831 -0.1889
 4528PP      PP14632  12.999  12.295   2.062 -0.0329 -0.1566 -0.1022
 4529PP      PP14633   1.741   9.269   2.096 -0.2729  0.2075  0.1842
 4530PP      PP14634  10.900   6.723   1.422 -0.0158 -0.3559  0.0506
 4531PP      PP14635   8.615   7.745   3.932  0.4023 -0.1315  0.0178
 4532PP      PP14636  15.097   0.289   4.533  0.0632  0.0759 -0.0482
 4533PP      PP14637  14.321   6.993   0.307 -0.1394  0.0867 -0.0857
 4534PP      PP14638   3.362   9.967   0.754 -0.0651 -0.0865 -0.1423
 4535PP      PP14639  11.383   7.363   0.603  0.0904  0.1223  0.0707
 4536PP      PP14640   4.930   8.637   9.991 -0.3877 -0.2337 -0.1068
 4537PP      PP14641   3.791   2.351   2.276 -0.0106  0.3982  0.0790
 4538PP      PP14642   0.086   3.997  10.632  0.1174 -0.2176  0.3105
 4539PP      PP14643  12.664  12.264   9.061 -0.1155  0.0146  0.2398
 4540PP      PP14644   3.116   5.421   3.968  0.1981 -0.2780  0.0618
 4541PP      PP14645   5.804  11.589  13.014 -0.1851 -0.1821 -0.1573
 4542PP      PP14646   0.481  13.033  11.491 -0.3750 -0.3178  0.1212
 4543PP      PP14647  10.827  13.580   9.065  0.2693 -0.2297  0.1183
 4544PP      PP14648   3.922   8.433  11.180  0.1227  0.1049  0.2188
 4545PP      PP14649   4.398  11.554   4.067  0.1063  0.1384 -0.2790
 4546PP      PP14650   8.254  14.795  12.467 -0.0319  0.2750  0.0052
 4547PP      PP14651   8.705  15.363   9.401  0.2583  0.1129  0.3188
 4548PP      PP14652  10.425   0.924   9.097  0.1546 -0.0596 -0.2302
 4549PP      PP14653  10.631   3.785  11.519 -0.1748  0.0081 -0.0538
 4550PP      PP14654   7.274   7.876   2.808 -0.0231  0.2059 -0.0401
 4551PP      PP14655   7.414   9.155  10.452 -0.3219  0.1242  0.2052
 4552PP      PP14656  10.683   2.063  11.835  0.3696 -0.2019  0.0301
 4553PP      PP14657   9.916   4.941   0.597 -0.1783 -0.4600 -0.0340
 4554PP      PP14658   2.618   3.840   1.971 -0.1094 -0.0891  0.1037
 4555PP      PP14659   8.899   3.539   3.716 -0.2281  0.2162  0.0001
 4556PP      PP14660   1.762   2.118  12.246 -0.1863 -0.6612 -0.2223
 4557PP      PP14661   4.616   0.644   4.067 -0.2145  0.0069  0.2259
 4558PP      PP14662   9.884   2.332  10.732 -0.2957  0.0824 -0.0575
 4559PP      PP14663  12.230   5.701  10.934  0.0635  0.2171 -0.1509
 4560PP      PP14664   5.863   7.583  11.313  0.2145  0.1586  0.1844
 4561PP      PP14665  15.374   0.115  11.797 -0.2119 -0.2695  0.1126
 4562PP      PP14666  13.814   4.850  11.795 -0.4073  0.1687  0.0440
 4563PP      PP14667   8.651   5.941   1.476  0.3093  0.1643  0.0155
 4564PP      PP14668  14.530   3.348   1.660  0.0129 -0.2040  0.0314
 4565PP      PP14669  14.495   4.519   0.242  0.0569  0.0858 -0.0914
 4566PP      PP14670  12.570  14.999  10.889  0.0794 -0.0975 -0.3687
 4567PP      PP14671   6.074  14.250   2.472  0.1155  0.0326 -0.0224
 4568PP      PP14672  11.618   2.486   1.031 -0.0119  0.0609 -0.0347
 4569PP      PP14673   1.547   5.378   2.784  0.0521  0.0957  0.1459
 4570PP      PP14674   0.293   9.389   9.953  0.2689  0.0319 -0.0900
 4571PP      PP14675   8.377   3.275   0.568 -0.1977 -0.2637 -0.0465
 4572PP      PP14676   9.621   9.157   3.970  0.2299 -0.3344  0.1611
 4573PP      PP14677   6.506  10.367  13.317  0.0895  0.0092 -0.2055
 4574PP      PP14678   9.350   9.586   4.076 -0.1596  0.1036  0.0566
 4575PP      PP14679   5.094   7.132  11.917  0.1524  0.1156  0.1252
 4576PP      PP14680   7.194   4.208   2.934  0.0925 -0.5113 -0.0652
 4577PP      PP14681   0.701   0.071  10.730  0.2402 -0.0342 -0.2379
 4578PP      PP14682   3.241   4.994   9.065 -0.1261  0.1396 -0.2071
 4579PP      PP14683   0.176   0.317  12.928 -0.0373 -0.2751  0.1754
 4580PP      PP14684   9.389  14.701   4.182 -0.0427 -0.0409 -0.0596
 4581PP      PP14685   2.114   3.597   2.109  0.0165  0.1112  0.2030
 4582PP      PP14686  10.496   8.280   1.958  0.1881  0.2117 -0.2051
 4583PP      PP14687   1.426  15.202   1.452  0.1538  0.0611  0.3060
 4584PP      PP14688  14.724   6.387  12.667 -0.4421  0.1706  0.0593
 4585PP      PP14689   8.225  10.445  12.512 -0.0098  0.1555 -0.4162
 4586PP      PP14690   2.198  11.294  11.788  0.0569  0.1345 -0.0573
 4587PP      PP14691   2.033  14.461   1.381 -0.0638 -0.1385 -0.1475
 4588PP      PP14692  14.186  14.319  10.121  0.1009  0.0505 -0.0459
 4589PP      PP14693  10.891  11.600   0.302 -0.0671  0.0374 -0.2588
 4590PP      PP14694   7.876   0.977   2.548 -0.1174 -0.2373 -0.1197
 4591PP      PP14695  11.344   3.490   3.296 -0.1300 -0.2448  0.0466
 4592PP      PP14696   5.191   9.856   3.646  0.1322 -0.0062  0.0025
 4593PP      PP14697  11.525   0.656   1.244  0.1731  0.5193 -0.0415
 4594PP      PP14698   8.973   8.932   0.142 -0.0630 -0.0353  0.0570
 4595PP      PP14699  10.653  13.806  12.899 -0.0297 -0.2461  0.1284
 4596PP      PP14700   2.328  13.415   0.175 -0.3503 -0.2834  0.0711
 4597PP      PP14701   7.054   5.938  10.882  0.0575 -0.0084 -0.0804
 4598PP      PP14702   0.136  15.130  11.187  0.2753  0.3391 -0.2760
 4599PP      PP14703  13.197   8.120  10.044  0.3661  0.0717  0.1808
 4600PP      PP14704   7.381  14.261   2.691  0.1927  0.1718  0.2417
 4601PP      PP14705  15.329   1.983   1.502 -0.1067  0.1017  0.4436
 4602PP      PP14706  10.490   0.123  12.492  0.4430  0.3535  0.0140
 4603PP      PP14707  12.422   9.971   0.149 -0.1646 -0.0912 -0.2558
 4604PP      PP14708   6.227   4.500  11.862 -0.2150 -0.3295 -0.2904
 4605PP      PP14709   9.325  15.022  12.325  0.2889 -0.4990  0.1952
 4606PP      PP14710   3.343   4.459   1.501 -0.0033 -0.2351 -0.1777
 4607PP      PP14711   2.996   4.018  10.441  0.0730 -0.2923  0.3592
 4608PP      PP14712  12.328  11.104   3.644 -0.0177  0.1156  0.0935
 4609PP      PP14713   9.642  10.470  11.992 -0.0620 -0.3580  0.2032
 4610PP      PP14714   5.631   5.955  13.302  0.1011  0.1680  0.2693
 4611PP      PP14715   7.697   8.802   2.153 -0.0842 -0.0732  0.0637
 4612PP      PP14716   9.055  12.853   4.358  0.2255 -0.1017 -0.1817
 4613PP      PP14717   5.762   5.717  12.210  0.0601 -0.2747  0.0411
 4614PP      PP14718  15.508  14.088   9.715 -0.0119 -0.0191 -0.0276
 4615PP      PP14719  14.500  11.065   1.191 -0.1187  0.1806  0.2164
 4616PP      PP14720   2.861   8.906   3.166 -0.2670  0.4242 -0.0687
 4617PP      PP14721  15.228   8.098   0.788  0.1311 -0.0685 -0.1202
 4618PP      PP14722  11.324   2.628   0.042 -0.0542  0.2244  0.2418
 4619PP      PP14723   4.343   1.132   3.301 -0.3083  0.1791  0.2688
 4620PP      PP14724   8.290  10.632   1.107  0.1080  0.1742  0.2465
 4621PP      PP14725   0.386  12.678  11.915  0.0116  0.1917 -0.0721
 4622PP      PP14726  13.683   0.416   1.034 -0.1312  0.0132 -0.4920
 4623PP      PP14727  10.459   8.425  12.347 -0.0735 -0.2913  0.0096
 4624PP      PP14728  10.443   5.827  12.820 -0.1083 -0.0181  0.1799
 4625PP      PP14729   7.872   0.476   1.429  0.3299  0.1126 -0.2018
 4626PP      PP14730   3.674   3.643   3.335  0.0516 -0.0082 -0.0502
 4627PP      PP14731   2.892   6.408   2.005 -0.0881 -0.0558  0.1385
 4628PP      PP14732   7.695   0.367  10.084  0.2012 -0.0419  0.2512
 4629PP      PP14733   8.932   5.615   3.832 -0.1344 -0.0321  0.0608
 4630PP      PP14734   8.827  13.974   0.001 -0.1129 -0.3215 -0.0997
 4631PP      PP14735   2.102  13.933   1.442 -0.4074  0.2397  0.0673
 4632PP      PP14736   9.780   3.619   1.573  0.1394  0.0196 -0.1319
 4633PP      PP14737   4.477  14.397   9.561  0.1031  0.0969  0.0642
 4634PP      PP14738  11.140   4.034   2.732  0.1044 -0.0313 -0.0185
 4635PP      PP14739  14.066  10.306   0.285  0.0304  0.2535  0.2836
 4636PP      PP14740   1.048   2.544   1.944  0.1021 -0.0818 -0.1037
 4637PP      PP14741  11.966  12.917   4.916 -0.3463  0.3066 -0.1832
 4638PP      PP14742   9.429  15.245  13.134 -0.1918 -0.1676 -0.0020
 4639PP      PP14743  10.706   1.242  13.613  0.0518 -0.2233 -0.0033
 4640PP      PP14744   2.523   1.577  10.446  0.0189  0.1906  0.3895
 4641PP      PP14745  11.475   7.655   3.104 -0.1523  0.0039  0.3686
 4642PP      PP14746   2.783  10.186  11.214 -0.1225 -0.0859  0.0315
 4643PP      PP14747   3.083  14.285   9.322  0.1990  0.2302  0.3256
 4644PP      PP14748  13.379   5.965  10.481 -0.1145  0.1736 -0.1260
 4645PP      PP14749   1.233   4.670   0.680  0.0104 -0.0353  0.1717
 4646PP      PP14750   9.165   9.099   9.285 -0.0227  0.2988  0.1848
 4647PP      PP14751   7.924  15.534  13.345 -0.2432  0.0678  0.3213
 4648PP      PP14752   3.302  12.757   4.593  0.1459  0.0396 -0.2306
 4649PP      PP14753   3.332  12.450  12.943  0.1778 -0.0354 -0.3572
 4650PP      PP14754   5.387  14.749   1.336 -0.0357 -0.3393 -0.0369
 4651PP      PP14755   5.278  13.174  10.417  0.0104 -0.0568 -0.0920
 4652PP      PP14756   6.723  11.392   1.622 -0.0690  0.0308 -0.1557
 4653PP      PP14757   3.269  13.532  10.675 -0.0082  0.1610  0.1499
 4654PP      PP14758  15.653  13.480   2.427 -0.2521  0.0389 -0.1201
 4655PP      PP14759  14.606   1.296   1.900  0.1194  0.2364 -0.0061
 4656PP      PP14760  10.221   6.216   9.351  0.0072 -0.0512 -0.1348
 4657PP      PP14761  12.634  15.038   0.932  0.0548  0.0183  0.0647
 4658PP      PP14762   2.761   6.968  10.848  0.0348  0.0337 -0.4177
 4659PP      PP14763   4.339  12.838   2.606  0.2031  0.2348 -0.2072
 4660PP      PP14764  12.468   3.948   9.945  0.2633  0.0049  0.2731
 4661PP      PP14765   4.664   1.965   8.863 -0.2809  0.0440 -0.1283
 4662PP      PP14766   6.325  11.918  11.015  0.0313 -0.1242 -0.1453
 4663PP      PP14767  10.452  13.383   9.384 -0.2038  0.4472  0.1833
 4664PP      PP14768   0.259  15.533   2.739  0.0942 -0.1311 -0.0508
 4665PP      PP14769  13.839   2.204  11.809  0.0396  0.0162 -0.1306
 4666PP      PP14770   9.672  11.376   3.869  0.0381 -0.0445 -0.2140
 4667PP      PP14771   4.211   8.687   9.588 -0.0654  0.0715 -0.0806
 4668PP      PP14772   6.323   0.150  11.595 -0.0557 -0.1133  0.1177
 4669PP      PP14773  12.006   7.442  13.730  0.1663  0.1180  0.1327
 4670PP      PP14774  14.553   4.787   3.456  0.0708  0.0869  0.0695
 4671PP      PP14775   2.232   2.063  10.108  0.0352 -0.0803  0.3224
 4672PP      PP14776  12.509   5.300  12.713 -0.0145  0.0055  0.0768
 4673PP      PP14777   3.333  13.180  11.023  0.2294  0.2813  0.1095
 4674PP      PP14778   5.332   9.745  13.391 -0.2512  0.0935 -0.0133
 4675PP      PP14779   5.502  10.045  11.217  0.0229 -0.1011 -0.2448
 4676PP      PP14780  10.358  14.518   9.513  0.2948 -0.1551  0.1972
 4677PP      PP14781   3.089  13.972   0.049 -0.0818 -0.1597  0.1247
 4678PP      PP14782   1.956   4.286   2.322  0.2970  0.0085 -0.1891
 4679PP      PP14783   8.219   0.657  12.626  0.0527 -0.0811  0.0522
 4680PP      PP14784   1.216   4.117  12.956  0.0497 -0.0246  0.0168
 4681PP      PP14785  12.750   8.556  10.716  0.0613 -0.0266  0.0217
 4682PP      PP14786  10.326  15.185   9.693  0.0778  0.2118 -0.1719
 4683PP      PP14787  11.235  14.641  12.893 -0.1970  0.0048 -0.2059
 4684PP      PP14788   3.317  14.993   2.548  0.0368  0.0433  0.2349
 4685PP      PP14789   1.156  10.777  11.289 -0.0674  0.0141  0.4746
 4686PP      PP14790   5.235  10.927   3.978  0.1443  0.0028 -0.3266
 4687PP      PP14791   8.191  10.123   1.123 -0.0197  0.0187 -0.0874
 4688PP      PP14792  15.160   8.176   3.148  0.1861 -0.0715  0.0546
 4689PP      PP14793  14.918  11.526  10.328  0.2508  0.1025  0.3448
 4690PP      PP14794   7.974  14.087   2.126  0.2977  0.0323  0.2710
 4691PP      PP14795   5.806   8.704   1.897 -0.0139 -0.1077 -0.3529
 4692PP      PP14796  10.565   7.803  11.182 -0.2600 -0.1903 -0.0251
 4693PP      PP14797  11.393  14.809   2.356  0.0380  0.2460  0.1619
 4694PP      PP14798  13.235   2.844  12.912  0.1511 -0.0831  0.2394
 4695PP      PP14799  13.378  14.021  13.750  0.3200 -0.0300  0.1916
 4696PP      PP14800  10.301   5.166   8.284 -0.4357 -0.2199 -0.1487
 4697PP      PP14801  14.054  14.371  13.062 -0.0937 -0.0324  0.0931
 4698PP      PP14802   5.789   8.277   9.711 -0.3370  0.1026  0.0418
 4699PP      PP14803  10.968   2.057   9.818 -0.0137 -0.0671  0.0725
 4700PP      PP14804   4.923  12.490  10.580 -0.3467 -0.0053 -0.2517
 4701PP      PP14805   1.409  15.414   9.568 -0.0142 -0.0545 -0.1135
 4702PP      PP14806  11.909   7.188   2.949  0.2581  0.1447 -0.1272
 4703PP      PP14807   6.118   1.892   1.246  0.2178 -0.1235  0.2806
 4704PP      PP14808  15.405  10.869   1.272  0.0740  0.2234 -0.0429
 4705PP      PP14809   1.543  12.650   9.426 -0.0876 -0.2919  0.2409
 4706PP      PP14810   6.973  14.176   4.460  0.2646  0.1330  0.0045
 4707PP      PP14811  10.675   2.803   3.537  0.0605 -0.0174  0.2046
 4708PP      PP14812  15.568  14.833   4.413  0.0299 -0.0988  0.0204
 4709PP      PP14813   7.916   3.511  11.994  0.2322  0.0860  0.0140
 4710PP      PP14814   2.223   7.188   9.270 -0.2901 -0.0846 -0.2178
 4711PP      PP14815   4.364   9.170   4.585 -0.1391  0.4154  0.1223
 4712PP      PP14816  14.560  11.340   2.971  0.1790 -0.0425 -0.1405
 4713PP      PP14817  10.001   7.849   2.539 -0.2354 -0.0363  0.0294
 4714PP      PP14818   9.411   1.086  12.896  0.1683 -0.2749 -0.0694
 4715PP      PP14819  11.844  14.878  12.998  0.1577  0.3449  0.3867
 4716PP      PP14820   4.727   3.985  12.223  0.1384 -0.1618  0.0897
 4717PP      PP14821  13.209   3.734   1.382 -0.0400 -0.2337 -0.1601
 4718PP      PP14822   6.633   3.245  10.509  0.0059 -0.3287  0.0181
 4719PP      PP14823   1.567  13.430   0.245  0.1568  0.0668 -0.4373
 4720PP      PP14824   2.438   0.441  12.128 -0.4943  0.2025 -0.0695
 4721PP      PP14825   6.593   9.598  12.105 -0.1193  0.0132  0.2078
 4722PP      PP14826   3.066  11.069   3.884 -0.3017  0.0147  0.1705
 4723PP      PP14827   3.226   3.162  10.119 -0.2438  0.1070 -0.0359
 4724PP      PP14828  11.589   6.594   2.120  0.3351  0.1581  0.2232
 4725PP      PP14829  10.216  10.434  12.039  0.0514  0.1582 -0.1323
 4726PP      PP14830   9.154   4.895   9.796  0.0242  0.0386 -0.0793
 4727PP      PP14831  13.766  14.113   1.721 -0.2776 -0.1727  0.0220
 4728PP      PP14832  14.264  14.399   5.206 -0.2035 -0.0554  0.1375
 4729PP      PP14833   2.086   5.885  11.325 -0.3608  0.0268 -0.0698
 4730PP      PP14834   9.109  14.162  11.552 -0.2009 -0.3265 -0.0205
 4731PP      PP14835   2.364   0.088  11.467  0.0726  0.0411  0.0052
 4732PP      PP14836   1.687   9.032   9.798 -0.1159 -0.0289 -0.2326
 4733PP      PP14837   8.463   3.185  13.070 -0.3464  0.0331  0.0087
 4734PP      PP14838   8.833   2.109  11.547 -0.1401  0.0245  0.0602
 4735PP      PP14839  10.928  11.527  12.500 -0.0258  0.4251  0.0786
 4736PP      PP14840   3.373   5.375   1.177 -0.2133  0.2601  0.1113
 4737PP      PP14841  12.459  13.612   3.937 -0.0424  0.2894 -0.0216
 4738PP      PP14842   0.542  10.155  11.809  0.1044 -0.2689 -0.3480
 4739PP      PP14843   4.749  11.529   1.940 -0.0507  0.0144  0.2298
 4740PP      PP14844  10.404   3.212  11.523  0.2054 -0.2916 -0.0696
 4741PP      PP14845  14.238   7.526   3.921 -0.0119  0.0318 -0.0751
 4742PP      PP14846  15.690   0.271   0.572 -0.2678 -0.0573  0.1057
 4743PP      PP14847  14.275  10.056  12.423 -0.3212  0.0446 -0.2449
 4744PP      PP14848   3.666  11.890   4.616 -0.0074  0.2686  0.1498
 4745PP      PP14849   4.675  12.028   4.245  0.1795  0.0242 -0.0226
 4746PP      PP14850   8.686  15.504  10.307  0.0774 -0.0158  0.0173
 4747PP      PP14851  13.017   8.307  11.103  0.0053 -0.1615  0.1025
 4748PP      PP14852   6.509   5.966  12.758 -0.2096 -0.0963 -0.1173
 4749PP      PP14853  12.242  14.164  11.680 -0.1685  0.1843  0.2356
 4750PP      PP14854  12.118   0.746  12.465 -0.0864 -0.0729 -0.1075
 4751PP      PP14855   6.372  15.257   3.436 -0.0430  0.1515 -0.1077
 4752PP      PP14856  15.682   1.053  13.672 -0.2484  0.0239  0.5346
 4753PP      PP14857   8.668   3.022   0.221 -0.0660 -0.0643 -0.1069
 4754PP      PP14858   0.066  13.606   9.755 -0.0525 -0.1003 -0.2623
 4755PP      PP14859   7.728   5.353   3.715 -0.0047  0.0787 -0.0600
 4756PP      PP14860   4.384  12.043  13.547  0.1562 -0.1003 -0.4673
 4757PP      PP14861  15.324  14.724   2.497 -0.0783  0.0719  0.1314
 4758PP      PP14862   7.580   6.243  11.043 -0.0328 -0.1617 -0.4667
 4759PP      PP14863   9.865   4.449   3.068  0.2778 -0.1322 -0.0610
 4760PP      PP14864  15.182   0.215   3.953  0.0232 -0.1236  0.0039
 4761PP      PP14865   5.151  13.731   3.685  0.0594 -0.0656 -0.2992
 4762PP      PP14866   5.916   7.342  13.782  0.1139 -0.2427  0.0268
 4763PP      PP14867   1.776  12.610  10.030 -0.0467 -0.1723  0.3916
 4764PP      PP14868   7.818   0.678  10.402 -0.2421  0.1872  0.2281
 4765PP      PP14869   4.998  12.830  13.094 -0.0670 -0.0813 -0.1377
 4766PP      PP14870   7.778   9.949   1.138 -0.3217  0.1200  0.0091
 4767PP      PP14871  11.736  13.219   4.509 -0.1508 -0.0756  0.1243
 4768PP      PP14872  14.321   5.163   9.688  0.0245 -0.3524  0.1629
 4769PP      PP14873  12.102   3.878   2.139 -0.0317  0.1064 -0.4618
 4770PP      PP14874   8.311   7.588   2.905 -0.0466 -0.3594  0.1101
 4771PP      PP14875   5.049  15.150   1.346 -0.0516 -0.1572 -0.1965
 4772PP      PP14876   4.353   4.736   8.330 -0.0195  0.1031  0.2305
 4773PP      PP14877  11.830   2.923   3.761  0.1282  0.0868  0.2610
 4774PP      PP14878   9.681   7.974   9.052  0.4185  0.0292 -0.1194
 4775PP      PP14879   4.256  10.859  10.483  0.0916  0.1526  0.1194
 4776PP      PP14880  13.985  12.084  10.582 -0.3862 -0.0947  0.3235
 4777PP      PP14881  14.670   6.573  10.531  0.0030 -0.0064 -0.1323
 4778PP      PP14882   2.725  12.676   2.815 -0.0259  0.0864  0.2378
 4779PP      PP14883  14.686  12.848  13.063 -0.1215  0.1851 -0.0484
 4780PP      PP14884   0.332   5.032  13.141  0.2760 -0.0793 -0.2742
 4781PP      PP14885   1.625   6.417  10.600  0.0286 -0.0914  0.1111
 4782PP      PP14886   0.705  11.955  12.616 -0.1147 -0.1714 -0.1422
 4783PP      PP14887  12.018   9.945   1.371 -0.1199 -0.2251 -0.1311
 4784PP      PP14888   6.292   0.158   4.030 -0.0085 -0.1931 -0.0988
 4785PP      PP14889  11.303   7.446   1.049  0.2356 -0.1137 -0.1649
 4786PP      PP14890  11.983  11.544  10.793 -0.1299 -0.0104 -0.2653
 4787PP      PP14891  11.943   2.385   9.605  0.1022 -0.1606  0.0806
 4788PP      PP14892   7.029  15.634   9.715  0.0666 -0.0443  0.0903
 4789PP      PP14893  10.245  13.535  11.991 -0.2259  0.1808  0.0794
 4790PP      PP14894  11.079  10.458   0.072  0.2560  0.0202 -0.0125
 4791PP      PP14895  10.093   3.584   1.075 -0.1001  0.1737 -0.1382
 4792PP      PP14896  12.057  14.673  11.620  0.0764 -0.1654 -0.0590
 4793PP      PP14897  13.869  13.086   1.247 -0.2370 -0.0104 -0.0156
 4794PP      PP14898   5.554  12.523  11.385 -0.3046 -0.0222 -0.0759
 4795PP      PP14899   7.310  11.096   4.941  0.1289  0.4553 -0.2129
 4796PP      PP14900  10.738  12.418   2.033  0.1867  0.2092 -0.1370
 4797PP      PP14901   2.460  14.563   1.534  0.1702 -0.1859 -0.0979
 4798PP      PP14902   2.772  15.087   1.187  0.2088  0.0974  0.1194
 4799PP      PP14903   1.532   9.558  13.697  0.0183  0.3275 -0.1616
 4800PP      PP14904  11.961  11.452   9.941  0.2285 -0.0067 -0.1101
 4801PP      PP14905  15.330   9.682   4.444  0.0493  0.4548  0.0690
 4802PP      PP14906  10.587   9.132  12.978 -0.2244  0.2200 -0.2207
 4803PP      PP14907   1.587  15.213  12.588  0.1968  0.0257  0.1467
 4804PP      PP14908   2.391  11.997   0.077 -0.0602 -0.1711  0.4066
 4805PP      PP14909   5.197  13.961   0.351  0.1459  0.0990  0.0450
 4806PP      PP14910   4.565  11.485   5.232  0.2215  0.0545  0.1676
 4807PP      PP14911   2.402  14.175   1.853 -0.2696 -0.1637 -0.2550
 4808PP      PP14912   8.385  11.147   8.878  0.0542 -0.1509  0.3916
 4809PP      PP14913   1.458  13.856   9.272 -0.0335  0.0737  0.0100
 4810PP      PP14914  11.260  13.542   0.843 -0.2450  0.1218  0.2083
 4811PP      PP14915  13.137   0.524   1.960 -0.3075  0.0201  0.0598
 4812PP      PP14916   6.595   4.007   3.622  0.2357 -0.1687  0.1812
 4813PP      PP14917  10.504  10.745   3.175  0.3622  0.0653 -0.3350
 4814PP      PP14918   7.972   5.495  12.064 -0.0482  0.1075  0.0132
 4815PP      PP14919   2.733  11.278   2.843  0.0555  0.1864  0.2436
 4816PP      PP14920  15.675  10.308  11.843  0.2269  0.0737  0.2484
 4817PP      PP14921  10.874  13.543   1.154  0.0368 -0.0898 -0.2440
 4818PP      PP14922   5.403   5.362   1.519 -0.2395  0.1694  0.1148
 4819PP      PP14923   4.138   4.723  12.508  0.1533 -0.1619 -0.3588
 4820PP      PP14924   8.992   6.027   9.824  0.0934  0.1025 -0.4818
 4821PP      PP14925   0.675   9.589  13.730  0.0775  0.1199  0.0985
 4822PP      PP14926   7.856   3.977  10.466  0.0116  0.3041 -0.0383
 4823PP      PP14927   4.616   8.723   1.917 -0.0192 -0.0056 -0.0537
 4824PP      PP14928   5.028   7.623  10.424  0.0489 -0.0897 -0.0498
 4825PP      PP14929   0.715   3.036  11.685  0.0201 -0.0706 -0.0363
 4826PP      PP14930   3.301   1.752  13.477 -0.3134  0.1199 -0.0470
 4827PP      PP14931   6.851   2.021  10.567  0.0373  0.0402  0.2329
 4828PP      PP14932  10.663   5.075   8.896  0.2617 -0.2651  0.1803
 4829PP      PP14933  14.701   5.809   3.413 -0.0301 -0.4079  0.1916
 4830PP      PP14934   2.108   2.928  10.990 -0.0157 -0.1184 -0.0054
 4831PP      PP14935  15.535   1.222   2.237  0.0828  0.2911  0.0645
 4832PP      PP14936  10.753   1.812   2.820 -0.0817 -0.0727 -0.1007
 4833PP      PP14937   4.032  12.002  13.082 -0.2766  0.1222 -0.1546
 4834PP      PP14938   4.803   6.634   1.749  0.1190  0.2602  0.0224
 4835PP      PP14939   2.235  13.888   9.246  0.0249 -0.0435  0.4446
 4836PP      PP14940   9.566  12.562   8.898  0.0357 -0.1914 -0.0779
 4837PP      PP14941   4.103  13.136   2.939 -0.0553 -0.2252  0.1305
 4838PP      PP14942  14.002   0.428   1.597  0.1785 -0.2137  0.0101
 4839PP      PP14943   6.505   3.848   1.738  0.0075 -0.1864  0.1745
 4840PP      PP14944  12.595  10.810  12.699  0.1892  0.2126  0.1121
 4841PP      PP14945   1.498   7.348  12.593  0.1599  0.2414 -0.0284
 4842PP      PP14946   3.156  13.245   0.676 -0.0410  0.1910 -0.0775
 4843PP      PP14947   9.900  11.012   0.295  0.1990  0.0593  0.0450
 4844PP      PP14948   8.420  13.706   5.180 -0.1363  0.1844  0.1272
 4845PP      PP14949   0.116   5.082   0.890  0.0566 -0.3564  0.0882
 4846PP      PP14950  10.876  12.916   3.313 -0.2187 -0.3026 -0.1565
 4847PP      PP14951   4.334  14.527  10.748  0.0432 -0.1515 -0.1094
 4848PP      PP14952  13.399   0.623  11.586  0.0190 -0.1188  0.0870
 4849PP      PP14953  14.708   6.874   1.246  0.1985  0.1134  0.1296
 4850PP      PP14954  10.868   4.939   9.738 -0.5494 -0.0102 -0.0315
 4851PP      PP14955   5.677   6.381   1.838 -0.0180 -0.3183  0.1695
 4852PP      PP14956   0.486   6.474   1.230  0.0989  0.0430  0.0605
 4853PP      PP14957   8.249   2.078   2.317 -0.1190 -0.0901  0.0848
 4854PP      PP14958   6.774   9.976  13.167 -0.0316 -0.1440  0.0637
 4855PP      PP14959  13.049  13.085  12.669  0.1127  0.2764  0.1356
 4856PP      PP14960   3.748   1.159   3.063 -0.0282 -0.1681 -0.1196
 4857PP      PP14961   4.812   7.748  13.119  0.0296  0.3211  0.4163
 4858PP      PP14962  12.730  14.003   0.991 -0.0414 -0.4075 -0.0139
 4859PP      PP14963  14.236  14.891  12.429 -0.1653  0.0168 -0.2151
 4860PP      PP14964  14.139  13.945   3.789  0.0180  0.2610 -0.0073
 4861PP      PP14965   4.172   1.166   9.376  0.5623 -0.1462 -0.0591
 4862PP      PP14966   6.718   3.530  12.949  0.1581 -0.0173 -0.0415
 4863PP      PP14967  11.621   5.215   3.792 -0.3395 -0.0470  0.2356
 4864PP      PP14968  12.803  15.723  11.117  0.2456  0.4627  0.1065
 4865PP      PP14969   3.285   2.695  11.552  0.1476  0.1456 -0.0828
 4866PP      PP14970  12.209   9.097   9.721 -0.0633  0.0417 -0.3760
 4867PP      PP14971  13.067  14.854   0.169 -0.2074 -0.0413  0.1474
 4868PP      PP14972   8.357   3.117   2.578  0.1549 -0.1551  0.0328
 4869PP      PP14973  15.538   5.041   9.477  0.1619  0.3123 -0.0781
 4870PP      PP14974   7.626   7.520   3.279  0.1685  0.0033 -0.2150
 4871PP      PP14975   1.805   2.318   0.040 -0.1730 -0.1204  0.0509
 4872PP      PP14976   3.278   3.297   0.284 -0.0073  0.0760 -0.0819
 4873PP      PP14977  14.304   2.126  12.414 -0.0880  0.1467 -0.0708
 4874PP      PP14978   3.328  14.148   1.889 -0.2006  0.0201 -0.0044
 4875PP      PP14979   3.435  12.493  10.607  0.1590 -0.0081  0.1819
 4876PP      PP14980   1.039  12.646  10.294 -0.0463 -0.2144  0.1478
 4877PP      PP14981   1.222   7.668  13.519 -0.1729  0.1676  0.1007
 4878PP      PP14982   3.439   3.657  10.821 -0.1331 -0.1423 -0.1120
 4879PP      PP14983  12.052  13.026   9.574  0.0204  0.0647  0.1455
 4880PP      PP14984   8.744  13.808  11.761  0.1309 -0.2323  0.3267
 4881PP      PP14985   6.060   5.530  11.611  0.1996  0.0351 -0.0598
 4882PP      PP14986   7.545   3.847  12.449  0.0856 -0.3277 -0.0214
 4883PP      PP14987   9.920  11.243   9.047 -0.1647  0.0105 -0.1958
 4884PP      PP14988   3.931   8.093   2.363 -0.1373 -0.1612  0.0691
 4885PP      PP14989  15.214   0.558  11.646 -0.0788  0.0466  0.0208
 4886PP      PP14990   3.953  13.679   2.719 -0.0645 -0.1387 -0.1860
 4887PP      PP14991   3.821   1.078   2.129 -0.1782  0.1651  0.0937
 4888PP      PP14992   0.834   9.693  13.065  0.1495 -0.0497 -0.0810
 4889PP      PP14993   4.188   3.172   9.570  0.0741 -0.6407 -0.4110
 4890PP      PP14994   0.903  15.083   2.100  0.1470 -0.1955 -0.0511
 4891PP      PP14995  10.769   8.485   3.175 -0.2678  0.2493 -0.1800
 4892PP      PP14996   4.010  10.114   2.496 -0.2607 -0.1646 -0.0476
 4893PP      PP14997   1.061  14.593   9.438 -0.2010  0.0798  0.1198
 4894PP      PP14998   1.605   7.142   2.556  0.1083  0.1274  0.1002
 4895PP      PP14999   6.652   9.187  12.783  0.1212  0.1461 -0.2165
 4896PP      PP15000   1.161   5.329   3.712  0.2327  0.0720  0.1044
 4897PP      PP15001   4.209   5.286   9.297  0.0813 -0.0148 -0.1216
 4898PP      PP15002   2.839  13.855   2.806  0.0542 -0.2052 -0.3080
 4899PP      PP15003  11.353   4.209  13.131 -0.1220 -0.1995 -0.0801
 4900PP      PP15004  14.359  12.475   2.832 -0.3044 -0.1388  0.1035
 4901PP      PP15005   5.646  14.035   0.172  0.0873 -0.1925  0.1053
 4902PP      PP15006   4.681  13.802   1.190  0.0906  0.3732  0.0295
 4903PP      PP15007   7.435   8.816   0.837 -0.2710 -0.1810 -0.2278
 4904PP      PP15008  12.201   1.675   1.628 -0.1801 -0.1044  0.0113
 4905PP      PP15009   8.693   4.878   0.510 -0.2032  0.0494  0.0161
 4906PP      PP15010   8.908  15.668   9.867  0.1935  0.0399  0.1345
 4907PP      PP15011  14.892   9.746  12.921  0.3107 -0.0031 -0.1360
 4908PP      PP15012  14.340   5.419   2.479  0.1604 -0.0906 -0.0579
 4909PP      PP15013   9.630  10.259  13.173  0.0280  0.0014 -0.2113
 4910PP      PP15014   9.169   9.610   2.980 -0.1160 -0.1080  0.0957
 4911PP      PP15015  11.120   6.843   9.851 -0.2374 -0.0984  0.2135
 4912PP      PP15016   9.354   7.529   1.831 -0.0449  0.0407  0.0553
 4913PP      PP15017   8.672   2.122   3.451 -0.4619  0.0643  0.1416
 4914PP      PP15018   2.234  14.377   9.578 -0.0495  0.0168  0.0716
 4915PP      PP15019   9.227   3.894   8.859  0.1338  0.0399  0.0273
 4916PP      PP15020   0.350   7.512   1.978 -0.0141 -0.3262 -0.0329
 4917PP      PP15021   3.627   4.897  12.709 -0.0151 -0.4464  0.3130
 4918PP      PP15022   0.921  11.617   4.826  0.2328 -0.2069 -0.3690
 4919PP      PP15023   1.383   0.908  10.438 -0.0245 -0.1442 -0.1807
 4920PP      PP15024  10.365  14.493   0.624 -0.0743 -0.0606 -0.2763
 4921PP      PP15025  15.384   7.542  13.256 -0.1664 -0.0624 -0.4372
 4922PP      PP15026   8.947   8.266  10.948  0.0125  0.0097  0.1386
 4923PP      PP15027   8.413   7.160  13.117  0.0939  0.0109  0.0941
 4924PP      PP15028   6.947   7.773   0.166  0.0733  0.0510  0.2442
 4925PP      PP15029   5.228   1.855  13.120 -0.2743 -0.1532  0.3823
 4926PP      PP15030  10.080   2.343  11.185 -0.0223 -0.0302 -0.0340
 4927PP      PP15031   1.086  15.153   3.169  0.1435 -0.0152  0.0335
 4928PP      PP15032   3.524   3.617   2.012  0.0998  0.0695 -0.2903
 4929PP      PP15033  13.014   7.833   3.626  0.0599 -0.2579  0.1861
 4930PP      PP15034   5.393  12.562   3.104  0.0906  0.0281 -0.0933
 4931PP      PP15035  14.837   1.442   2.866  0.1606  0.0688 -0.3566
 4932PP      PP15036   2.063   9.358   9.259  0.0379  0.0247  0.1356
 4933PP      PP15037   9.126   3.336   0.028  0.2713  0.0430 -0.1343
 4934PP      PP15038  15.623  10.989   2.269  0.1126  0.0491  0.0661
 4935PP      PP15039   9.085   1.839   9.915  0.0380  0.0637  0.2603
 4936PP      PP15040  15.548   3.055   9.159  0.2750  0.0192 -0.2840
 4937PP      PP15041   6.457   9.041   1.382  0.2102 -0.0120 -0.1104
 4938PP      PP15042   2.562   2.947   0.814  0.0527  0.0216  0.2172
 4939PP      PP15043   6.141   4.037   1.450  0.0600  0.2160  0.0785
 4940PP      PP15044   8.490   7.492   1.688 -0.1417  0.1380 -0.2923
 4941PP      PP15045  13.975  14.925  12.948  0.0366  0.0093 -0.2646
 4942PP      PP15046   6.536  12.144  13.004  0.1193  0.0274  0.1197
 4943PP      PP15047   7.644   7.239   0.638 -0.0486 -0.1945  0.1549
 4944PP      PP15048   6.553  14.201   1.333  0.3880 -0.1977  0.0764
 4945PP      PP15049   2.454  15.207   3.594 -0.3404  0.1339  0.1117
 4946PP      PP15050  14.645   2.656  13.368  0.1990  0.0160 -0.2226
 4947PP      PP15051   7.844   0.421  12.346 -0.1182 -0.2938  0.0537
 4948PP      PP15052   5.926   8.837  11.911  0.1224 -0.3678  0.1683
 4949PP      PP15053   1.206   6.550   3.016 -0.3953  0.0131  0.2436
 4950PP      PP15054   1.747  10.951   3.623  0.3979  0.2244  0.1488
 4951PP      PP15055  14.695   5.463   9.382  0.0586  0.0770  0.1023
 4952PP      PP15056   3.658   2.557  13.752  0.1521 -0.0316  0.0692
 4953PP      PP15057   4.002  15.092  13.148 -0.0953 -0.0397  0.0851
 4954PP      PP15058   4.188   4.093   3.376 -0.0009  0.2332 -0.3239
 4955PP      PP15059  10.457   3.520   2.873 -0.0144  0.2789  0.0081
 4956PP      PP15060   9.376  14.752   9.128  0.2980  0.0822 -0.1205
 4957PP      PP15061   4.745  12.608  11.387  0.0450 -0.1044  0.2610
 4958PP      PP15062  12.858   9.956   3.327 -0.0830  0.1430  0.0978
 4959PP      PP15063   7.713  11.160   9.720 -0.2645 -0.1058 -0.0614
 4960PP      PP15064   9.945   3.944   0.372  0.2335 -0.3630 -0.1240
 4961PP      PP15065   5.627   8.670   3.838 -0.1310 -0.1163 -0.1128
 4962PP      PP15066   1.999   4.413   1.372 -0.1619  0.2023  0.0704
 4963PP      PP15067   5.649   3.261   8.452 -0.1102 -0.1044 -0.1557
 4964PP      PP15068   2.378   9.829   2.508  0.1204  0.0407 -0.1278
 4965PP      PP15069  13.266   1.060   2.622 -0.0231 -0.0320 -0.3517
 4966PP      PP15070   3.831  13.824   8.908  0.1697 -0.0467 -0.3630
 4967PP      PP15071  10.504  11.599   3.125  0.1526  0.0099  0.3745
 4968PP      PP15072  12.546  12.977   3.735  0.2792  0.0407 -0.0823
 4969PP      PP15073   1.362  14.119   3.743 -0.0336  0.3351  0.0253
 4970PP      PP15074   4.780   1.569   1.188 -0.1563 -0.0706 -0.1760
 4971PP      PP15075   5.756   2.324   0.795 -0.0049  0.0184 -0.2918
 4972PP      PP15076   7.480   2.561   8.595  0.1146  0.1592 -0.0665
 4973PP      PP15077   2.367   4.338   3.562  0.3710  0.3573  0.1664
 4974PP      PP15078   6.528  11.799  13.725  0.2322 -0.0875 -0.1828
 4975PP      PP15079   3.616   9.344   1.701  0.1703 -0.0652  0.0316
 4976PP      PP15080   5.416   2.054   9.963 -0.2108  0.1687 -0.1429
 4977PP      PP15081   2.716  13.304   9.861 -0.0808  0.1020 -0.3019
 4978PP      PP15082  10.618   4.453   1.047 -0.1187  0.0700  0.2554
 4979PP      PP15083   1.887   8.612   2.371  0.0978  0.0428  0.1161
 4980PP      PP15084  11.484  14.927   0.014  0.2505  0.2316 -0.0508
 4981PP      PP15085   0.437  15.565   4.896  0.1321 -0.0668 -0.3301
 4982PP      PP15086  10.354   4.962   3.706  0.0001 -0.0258 -0.1657
 4983PP      PP15087   7.461   4.559   3.973 -0.0939  0.1631 -0.0327
 4984PP      PP15088  11.503   7.915   3.536  0.1270 -0.1692  0.2418
 4985PP      PP15089  12.911  11.264   1.951 -0.0153 -0.1314 -0.2374
 4986PP      PP15090   6.300  15.706   1.056 -0.2048 -0.1470  0.0883
 4987PP      PP15091  10.669   7.191   3.084 -0.1310 -0.2443 -0.1959
 4988PP      PP15092  10.303  14.143   3.330  0.3343 -0.1026  0.1550
 4989PP      PP15093   2.692   0.328  13.233 -0.0265 -0.0837 -0.0856
 4990PP      PP15094  15.029   3.528  10.418 -0.0679 -0.2813 -0.1399
 4991PP      PP15095  10.559   1.056  11.528  0.0546  0.0122  0.1851
 4992PP      PP15096  14.414   2.338   3.219  0.3213 -0.0432 -0.1372
 4993PP      PP15097   3.881  14.304   3.980 -0.3581 -0.1560 -0.1593
 4994PP      PP15098   7.013   4.203  13.063  0.1201 -0.0154  0.3627
 4995PP      PP15099  13.068  12.764   1.512  0.1663 -0.0561 -0.1278
 4996PP      PP15100  11.477   9.704   9.516 -0.0712  0.2217  0.1929
 4997PP      PP15101   2.162   6.709  11.522 -0.1291  0.2978  0.1595
 4998PP      PP15102   9.468   9.714   2.005  0.1508 -0.0266 -0.0178
 4999PP      PP15103   6.237   2.939   2.646  0.0956 -0.0949  0.2762
 5000PP      PP15104  11.684   9.324  11.056 -0.1077 -0.0149 -0.3200
 5001PP      PP15105   8.126  12.381   0.764  0.3592 -0.0520 -0.0292
 5002PP      PP15106  13.851   7.123  11.878  0.4639 -0.0510  0.1989
 5003PP      PP15107   1.477  13.801   2.164 -0.1497  0.5231 -0.2466
 5004PP      PP15108   3.399   6.151  11.057 -0.1969 -0.0029  0.2016
 5005PP      PP15109   0.922  14.345   4.291 -0.1059  0.2514  0.0047
 5006PP      PP15110   2.815   0.181  11.005 -0.0053  0.3271 -0.1715
 5007PP      PP15111   4.076   3.701  10.289 -0.4497  0.2420  0.1856
 5008PP      PP15112  12.986   3.914  10.186 -0.1760 -0.1188  0.0892
 5009PP      PP15113  15.623   3.791  12.913 -0.1388 -0.1748  0.0006
 5010PP      PP15114  14.756  15.518  11.167 -0.0346  0.0570 -0.0864
 5011PP      PP15115  14.413   9.677   2.302  0.0170  0.2447 -0.0611
 5012PP      PP15116   8.446  15.508   4.140 -0.1347  0.1882 -0.1698
 5013PP      PP15117   6.528  12.243  13.477  0.2642  0.1380  0.2437
 5014PP      PP15118   6.007   2.742   3.447  0.1004  0.0676  0.1223
 5015PP      PP15119  15.726  15.601  12.620 -0.0248  0.0879 -0.3872
 5016PP      PP15120   1.476   6.184  13.079  0.4680  0.0454  0.0189
 5017PP      PP15121   6.703   0.335   2.731 -0.1863 -0.1293 -0.0254
 5018PP      PP15122   6.842   2.157   0.394 -0.3677  0.2617  0.1501
 5019PP      PP15123   3.697   3.061   9.779 -0.2034  0.1688  0.1932
 5020PP      PP15124   0.921  12.330   3.298 -0.0345  0.0486 -0.1075
 5021PP      PP15125   4.673   8.718   2.677  0.0350  0.0450 -0.3190
 5022PP      PP15126  14.263   8.447   9.179  0.0795  0.1752 -0.1700
 5023PP      PP15127  15.724  14.112   3.782  0.2055  0.0321  0.0957
 5024PP      PP15128   8.418  11.414  12.911  0.3497  0.4806 -0.1956
 5025PP      PP15129   8.029   5.645  10.417 -0.0458 -0.0603 -0.2066
 5026PP      PP15130   2.016   1.775   0.590 -0.2263 -0.1700  0.0589
 5027PP      PP15131   7.718  12.150   0.730  0.2670 -0.0650  0.0336
 5028PP      PP15132   0.041  12.227   4.235 -0.0560 -0.0871 -0.1193
 5029PP      PP15133  15.137   8.374   2.534  0.1092 -0.2121  0.0645
 5030PP      PP15134   3.343   9.555   4.784  0.3100 -0.2739 -0.0622
 5031PP      PP15135  13.919  14.162   1.242 -0.1210 -0.2339 -0.0274
 5032PP      PP15136  11.853  13.171  10.560  0.3255 -0.0656 -0.1284
 5033PP      PP15137  14.377   4.934   8.597 -0.0040  0.0179 -0.0847
 5034PP      PP15138  14.389   9.545  10.989  0.2217  0.2615 -0.3524
 5035PP      PP15139  14.093   3.100   8.691  0.0227 -0.1216 -0.4072
 5036PP      PP15140  11.160  13.199  10.842 -0.1494  0.1465 -0.1876
 5037PP      PP15141   1.078   5.082   9.952 -0.3157 -0.1825 -0.0572
 5038PP      PP15142   8.564   4.391   3.111 -0.2511  0.1556 -0.1405
 5039PP      PP15143   5.839   9.763   0.796  0.1080  0.0605  0.2107
 5040PP      PP15144   2.876   0.731   3.603  0.1461  0.0966 -0.2589
 5041PP      PP15145   3.165  11.685  11.764  0.0190 -0.3325  0.3053
 5042PP      PP15146   8.539   6.408   3.872  0.1840  0.0437  0.1982
 5043PP      PP15147   6.544  14.664  12.801  0.0461  0.0201  0.4052
 5044PP      PP15148   8.619   4.612   8.985 -0.2199  0.0776 -0.1711
 5045PP      PP15149   1.881  12.019   4.126  0.3851 -0.1937  0.2306
 5046PP      PP15150  12.500   2.801   9.614 -0.2135 -0.1248  0.1574
 5047PP      PP15151  10.667  14.828  12.755 -0.0175 -0.0942  0.3722
 5048PP      PP15152   2.650  11.751   0.937 -0.0273 -0.1951 -0.0111
 5049PP      PP15153  13.332   5.261   1.783 -0.3446  0.0102 -0.0392
 5050PP      PP15154   2.801   1.025  11.373  0.2221  0.3514 -0.1063
 5051PP      PP15155   2.538   2.440   9.135  0.0146 -0.0010 -0.3705
 5052PP      PP15156   8.067   8.973   3.603 -0.0391 -0.1270  0.0012
 5053PP      PP15157  15.256   8.296   9.296 -0.0737 -0.0773  0.0787
 5054PP      PP15158   0.399  12.830  10.898 -0.2490  0.1152  0.0033
 5055PP      PP15159  13.215   2.377  13.090  0.1024 -0.2817 -0.0923
 5056PP      PP15160   4.948   1.108  10.701  0.2057  0.0763 -0.1109
 5057PP      PP15161   6.825  11.748  10.107  0.0448 -0.0441  0.1976
 5058PP      PP15162   9.227   2.799  11.060  0.1176 -0.1378 -0.1526
 5059PP      PP15163   0.078   2.156  12.473  0.0162  0.1118 -0.2829
 5060PP      PP15164   0.514  10.484  10.881  0.6064  0.1073 -0.0545
 5061PP      PP15165   2.994  10.907   3.098  0.0486 -0.0146  0.0116
 5062PP      PP15166   3.433  10.956  10.743 -0.0220 -0.0404 -0.0669
 5063PP      PP15167  15.301   6.139  10.373 -0.0584 -0.0327  0.0146
 5064PP      PP15168   6.170   3.395  10.690  0.0819 -0.1031  0.3889
 5065PP      PP15169   2.401   0.067   3.929 -0.1693 -0.1967  0.1252
 5066PP      PP15170   8.449   8.368  10.148  0.2255 -0.0321 -0.0876
 5067PP      PP15171   3.046   3.317  10.974 -0.0699 -0.2153 -0.0119
 5068PP      PP15172  10.275   9.317   4.206 -0.1884  0.1527 -0.1280
 5069PP      PP15173   3.307  11.633   1.200  0.0401  0.2028  0.0559
 5070PP      PP15174   8.960   5.393  13.474  0.2244  0.2303 -0.3967
 5071PP      PP15175  14.995   9.381  11.764  0.1265  0.0988  0.2176
 5072PP      PP15176  13.128   5.726   8.657  0.0588 -0.2507 -0.0436
 5073PP      PP15177  15.074  11.575   1.789 -0.3702  0.0991 -0.0390
 5074PP      PP15178  11.916   3.726  12.224  0.2913  0.2000 -0.1232
 5075PP      PP15179   0.461  15.677  11.259  0.1564 -0.4090 -0.1795
 5076PP      PP15180   1.180  14.387  11.112  0.0863 -0.1346 -0.0473
 5077PP      PP15181  14.504   8.929   0.045 -0.1574  0.2578  0.1854
 5078PP      PP15182   8.041   0.485   8.475 -0.0001 -0.0627 -0.0152
 5079PP      PP15183   1.544   1.732  10.995  0.2341  0.1911  0.1818
 5080PP      PP15184   9.383  14.720  10.715  0.0167  0.2514 -0.2592
 5081PP      PP15185  11.556   7.588   0.089 -0.0291 -0.0239 -0.0365
 5082PP      PP15186  15.236   0.773   0.045 -0.1527  0.0746 -0.0176
 5083PP      PP15187   2.239   9.086   1.961 -0.1225  0.1479  0.0357
 5084PP      PP15188   0.596  15.141   4.614  0.2371  0.2781  0.2015
 5085PP      PP15189  10.532   8.114  13.128  0.0058  0.1208 -0.2260
 5086PP      PP15190  14.538   3.002   2.694  0.2215  0.0316  0.0457
 5087PP      PP15191   3.572  15.392   3.699 -0.1544  0.1662 -0.2168
 5088PP      PP15192   6.419  11.300   3.985  0.1019  0.0781 -0.0944
 5089PP      PP15193  13.454  14.538   0.027  0.0734 -0.0984 -0.1608
 5090PP      PP15194   4.436   0.166   9.849  0.1910 -0.0411 -0.1323
 5091PP      PP15195   0.160  11.522  12.039 -0.1809  0.0353 -0.2093
 5092PP      PP15196   8.232   1.030   3.537 -0.1158 -0.0750  0.0928
 5093PP      PP15197  12.491   2.178   0.475 -0.0143 -0.0675 -0.0722
 5094PP      PP15198   8.954   6.439   1.517  0.2293 -0.1761  0.0098
 5095PP      PP15199   4.511   6.886   0.109  0.2618  0.2385  0.0065
 5096PP      PP15200  14.677   9.792  10.188  0.0822  0.2068 -0.0004
 5097PP      PP15201   4.433  15.647   0.633 -0.1120 -0.0409  0.0422
 5098PP      PP15202   9.998   4.014   1.368  0.1888 -0.0934 -0.1854
 5099PP      PP15203   3.897   3.432   9.229  0.0940 -0.0803 -0.1746
 5100PP      PP15204  13.169   0.141   0.249  0.1957 -0.0226 -0.0052
 5101PP      PP15205   2.373  12.225   3.238 -0.0207 -0.2528 -0.0983
 5102PP      PP15206   6.200   4.179   4.055 -0.0428  0.1002  0.1887
 5103PP      PP15207  14.397  14.127   9.631 -0.1361 -0.1195 -0.1317
 5104PP      PP15208   3.905   9.940   0.842  0.0811 -0.2824 -0.0182
 5105PP      PP15209   8.616   2.976  12.072 -0.0850 -0.1770 -0.0698
 5106PP      PP15210  12.222  12.835  12.530  0.1874  0.1287 -0.4139
 5107PP      PP15211  12.463  11.776   4.409  0.0669  0.1863 -0.2213
 5108PP      PP15212   2.521   9.021   4.895 -0.1547  0.3089  0.1985
 5109PP      PP15213  12.940   5.482  11.802  0.1794  0.0670 -0.1440
 5110PP      PP15214   0.354  11.427   0.190  0.0840  0.1544 -0.0118
 5111PP      PP15215  15.588   1.442  10.958 -0.4200 -0.0886  0.3168
 5112PP      PP15216  11.298   4.441   3.518 -0.1504 -0.0030  0.0441
 5113PP      PP15217   5.425   3.173  12.458  0.1169 -0.2315  0.0153
 5114PP      PP15218   7.385   7.391   1.040  0.0827  0.0394  0.2190
 5115PP      PP15219  14.048   4.328   0.389 -0.0165  0.2066  0.0520
 5116PP      PP15220   4.106  13.276   2.410  0.0615  0.0266  0.2419
 5117PP      PP15221   5.461   4.178   8.316  0.0022  0.0098 -0.1172
 5118PP      PP15222   1.870   1.899   1.866 -0.2663 -0.4489 -0.1270
 5119PP      PP15223  10.039   1.827   8.806  0.2325  0.3021 -0.1784
 5120PP      PP15224   0.184  14.012  13.694 -0.1098 -0.2811  0.2596
 5121PP      PP15225   2.145   7.249   2.584 -0.1280 -0.0423  0.4619
 5122PP      PP15226  13.733   0.002   9.191 -0.0157 -0.5052 -0.0490
 5123PP      PP15227  12.619   3.369   0.334  0.1903  0.0424  0.0483
 5124PP      PP15228   2.414   6.132  10.730 -0.2870  0.0183 -0.1581
 5125PP      PP15229  12.762   1.153   9.133  0.0160  0.0722 -0.0667
 5126PP      PP15230   1.716   9.061   9.302  0.2873  0.1273  0.0858
 5127PP      PP15231   8.695  14.288   3.900  0.2724  0.0089  0.1599
 5128PP      PP15232   2.339  10.949  10.964  0.0542  0.1659 -0.0764
 5129PP      PP15233  11.707   1.308   4.047  0.0953  0.2121  0.0626
 5130PP      PP15234   6.414  12.229  11.447 -0.0501 -0.3000 -0.2460
 5131PP      PP15235   8.832  12.513   2.581 -0.1084  0.2584 -0.0815
 5132PP      PP15236   4.823   7.514   9.324  0.1291  0.3823 -0.2347
 5133PP      PP15237  13.332  11.238  10.809  0.1959 -0.1381  0.1330
 5134PP      PP15238   6.194   3.343  13.427  0.0025 -0.2282 -0.2981
 5135PP      PP15239   5.034  14.624   0.277  0.1176 -0.1947 -0.1255
 5136PP      PP15240   5.994  10.805  10.979 -0.2314 -0.0279  0.1368
 5137PP      PP15241   5.311   7.641   0.688 -0.0966 -0.1307 -0.1168
 5138PP      PP15242  11.773   2.770   9.053  0.0493 -0.4147  0.1922
 5139PP      PP15243  10.165   3.849  10.240 -0.0370 -0.0242 -0.1828
 5140PP      PP15244   6.048   9.022   3.961  0.0376 -0.0960  0.1591
 5141PP      PP15245   6.712  10.876   0.807  0.1163  0.0496 -0.2095
 5142PP      PP15246  12.315   9.744  10.467  0.1802  0.1889  0.1090
 5143PP      PP15247  14.773   4.562  13.518  0.2743 -0.0824  0.0595
 5144PP      PP15248  14.424   6.930   0.823 -0.1631 -0.0497 -0.0668
 5145PP      PP15249  10.635  15.373   2.857 -0.0538 -0.1267  0.1369
 5146PP      PP15250  15.474   6.433   2.436 -0.1022 -0.1734  0.1967
 5147PP      PP15251   1.879   6.013   3.476 -0.2619  0.0215 -0.1025
 5148PP      PP15252   6.551   5.391  11.879  0.2082  0.0356  0.0442
 5149PP      PP15253   6.568  10.920   2.699  0.3853  0.0982  0.1646
 5150PP      PP15254  10.409   6.048  11.168  0.1569 -0.2389 -0.3348
 5151PP      PP15255   2.355   0.305   4.422 -0.1581  0.1674  0.0033
 5152PP      PP15256   4.900   0.800   9.709  0.1238 -0.3277 -0.5098
 5153PP      PP15257   4.345   3.498   8.658 -0.0572 -0.0304 -0.0997
 5154PP      PP15258   8.783   7.765  10.891  0.0674  0.1472  0.3096
 5155PP      PP15259  11.802   5.160  12.186  0.1744 -0.0833  0.1226
 5156PP      PP15260   6.467   8.511   2.744  0.0689  0.2500 -0.0366
 5157PP      PP15261  10.998  13.141   1.628  0.1206  0.3270 -0.1713
 5158PP      PP15262   5.524  14.074   3.747  0.1449 -0.1931  0.3706
 5159PP      PP15263  11.071   0.305   2.281 -0.0591  0.0216  0.1152
 5160PP      PP15264   9.110  14.338  10.900  0.1215  0.0439 -0.1199
 5161PP      PP15265   4.075  15.127   4.598 -0.1995 -0.3629  0.3047
 5162PP      PP15266  12.792   9.509  11.759 -0.3637 -0.0755  0.1350
 5163PP      PP15267   0.782  11.971  11.372 -0.2020 -0.0544  0.0161
 5164PP      PP15268   8.666  13.362   3.032 -0.0837  0.5334  0.0664
 5165PP      PP15269  10.295   5.491   4.013  0.1546  0.2076 -0.2189
 5166PP      PP15270   2.912   1.279  12.241 -0.1850  0.0946  0.3065
 5167PP      PP15271   5.587   0.416   2.242 -0.1532 -0.1637  0.3876
 5168PP      PP15272   9.781   7.576  11.481 -0.0238  0.1148 -0.2483
 5169PP      PP15273   9.159  14.489   3.812 -0.2029 -0.2931  0.1121
 5170PP      PP15274   5.786   7.346  12.744  0.3690  0.3366  0.1123
 5171PP      PP15275   8.543  12.498  12.054 -0.0232  0.1961 -0.1059
 5172PP      PP15276  10.262   0.094   0.951 -0.1975 -0.0095 -0.0644
 5173PP      PP15277   2.387   4.599  10.147 -0.0690 -0.0809  0.1896
 5174PP      PP15278  10.392   5.657  10.062 -0.1894  0.0230  0.0556
 5175PP      PP15279   9.824   5.871   2.908 -0.1414 -0.0026  0.3603
 5176PP      PP15280   5.604   7.147   4.075 -0.0627 -0.2603 -0.0224
 5177PP      PP15281  11.101  10.337   1.523  0.1120  0.0817  0.2056
 5178PP      PP15282  13.124  13.792  12.014  0.0664  0.0651 -0.3286
 5179PP      PP15283   7.073   6.460  11.096  0.1295 -0.3604 -0.0834
 5180PP      PP15284  12.723   2.407  11.017  0.0638  0.0886  0.0453
 5181PP      PP15285   8.164   9.742   3.173  0.0355 -0.1761  0.3448
 5182PP      PP15286   8.964   7.751  12.440 -0.1862 -0.2222 -0.1720
 5183PP      PP15287   5.063  11.470  13.330 -0.1728  0.5986 -0.1055
 5184PP      PP15288   1.935   8.410  12.525 -0.0205  0.0040 -0.2960
 5185PP      PP15289   1.616   7.613  10.840 -0.0723  0.1109 -0.1722
 5186PP      PP15290   9.838  13.731   2.312 -0.2717  0.0376 -0.1908
 5187PP      PP15291   7.419  10.355   8.718 -0.0235  0.0691 -0.2888
 5188PP      PP15292   3.372   3.473  12.258 -0.0870 -0.0673  0.0206
 5189PP      PP15293   7.103   1.217  10.417  0.0104  0.2599 -0.0324
 5190PP      PP15294   8.517  14.168   2.132  0.0347  0.0176  0.0025
 5191PP      PP15295   3.112   5.405   0.165  0.1627 -0.0924 -0.4263
 5192PP      PP15296   2.719  15.447   4.052  0.1651  0.3417 -0.1849
 5193PP      PP15297   9.007  15.710   3.187  0.3840 -0.2678  0.0754
 5194PP      PP15298   1.692   1.765   0.191 -0.1625  0.1710  0.1524
 5195PP      PP15299   9.971  11.328  13.145  0.1395 -0.0553 -0.0008
 5196PP      PP15300   3.289   8.770   3.502  0.2159  0.1089  0.3664
 5197PP      PP15301   7.395   6.894  13.191 -0.0979 -0.1158 -0.0741
 5198PP      PP15302  14.334  12.674  12.760 -0.0353 -0.0505  0.2136
 5199PP      PP15303   1.095   5.709   3.303  0.2453  0.1244 -0.1246
 5200PP      PP15304   0.808   1.291  13.164  0.2840  0.0516  0.2978
 5201PP      PP15305   9.348   8.900  13.503 -0.1101  0.0111 -0.1927
 5202PP      PP15306   9.747   6.090  10.395 -0.2044 -0.0968 -0.1593
 5203PP      PP15307   8.658   5.865   8.488  0.2086  0.1552 -0.2755
 5204PP      PP15308  11.281  13.027   1.225  0.0464  0.1834  0.0891
 5205PP      PP15309   1.348   0.806  13.678  0.2841  0.2426 -0.2832
 5206PP      PP15310  15.030   3.446   9.932 -0.5071 -0.0562  0.1486
 5207PP      PP15311   6.081  12.925  12.817 -0.0865 -0.0668  0.0726
 5208PP      PP15312  11.909   5.915  12.754  0.3209  0.3737 -0.0977
 5209PP      PP15313   4.400  10.804   9.967  0.1635  0.0624 -0.0905
 5210PP      PP15314   1.363   7.815   1.332 -0.0490  0.2373 -0.0599
 5211PP      PP15315  12.132   2.663  12.318  0.3552  0.1611 -0.2297
 5212PP      PP15316  10.779   7.226   2.085 -0.0773  0.0889 -0.1643
 5213PP      PP15317   8.139   6.764   3.795  0.2425  0.1473 -0.0855
 5214PP      PP15318  11.610   8.647  10.121  0.2471 -0.0729 -0.2035
 5215PP      PP15319  11.914  12.416   4.149  0.2011  0.3291  0.0074
 5216PP      PP15320  13.327   1.446  11.510  0.0461  0.0198  0.1241
 5217PP      PP15321   6.616  15.284   1.222 -0.0602 -0.0408  0.2132
 5218PP      PP15322   4.900  12.876  11.896  0.0427 -0.0550 -0.2267
 5219PP      PP15323   5.438   5.118  13.710 -0.1581  0.2139  0.1882
 5220PP      PP15324   5.808  13.363  13.168 -0.1135 -0.0459  0.1810
 5221PP      PP15325  11.465   8.688  12.028  0.2086  0.1791 -0.4790
 5222PP      PP15326   1.795   3.736  10.252  0.0108  0.0080  0.3137
 5223PP      PP15327   6.444  13.991  11.861  0.2440  0.2457 -0.1193
 5224PP      PP15328   7.404   6.394  13.045 -0.2446  0.0466  0.1116
 5225PP      PP15329  14.733  12.868   1.105 -0.0463  0.3411  0.1406
 5226PP      PP15330  12.971   4.936   9.073  0.0412  0.0349 -0.0708
 5227PP      PP15331   0.860  13.122   3.620  0.2285  0.4497  0.2556
 5228PP      PP15332   9.667   0.449   2.803  0.0378  0.1901  0.0307
 5229PP      PP15333   0.714   0.790   1.219 -0.1975  0.1742  0.0694
 5230PP      PP15334  12.582  11.474  13.725 -0.0492 -0.0906  0.1087
 5231PP      PP15335   1.904   9.110  12.092 -0.1163  0.1352 -0.0461
 5232PP      PP15336  10.313   2.727   0.000 -0.1425  0.1059  0.1032
 5233PP      PP15337  13.720  13.656   0.367  0.1268 -0.0128 -0.5539
 5234PP      PP15338   3.869  11.475   9.926  0.2867  0.1201  0.0683
 5235PP      PP15339   4.763  15.224  12.876  0.3092 -0.1166  0.0816
 5236PP      PP15340   5.264  12.118  11.948  0.0392 -0.1806 -0.5860
 5237PP      PP15341   3.205  15.320  13.244 -0.0852  0.3475 -0.0736
 5238PP      PP15342  10.663   5.594   9.051 -0.1454  0.0842  0.0043
 5239PP      PP15343   2.964  11.790   2.042 -0.1527  0.0296  0.2110
 5240PP      PP15344  13.951   2.621   1.896 -0.0455  0.3615  0.1098
 5241PP      PP15345   9.876   8.604   3.084 -0.1445 -0.0513 -0.0326
 5242PP      PP15346  13.969   8.473   1.798  0.0079 -0.3345  0.2260
 5243PP      PP15347   0.661   6.913   9.764 -0.0829 -0.0033  0.0116
 5244PP      PP15348  13.453  10.209   3.287  0.0703  0.0228 -0.2089
 5245PP      PP15349  14.462   6.432   2.557 -0.0449 -0.1633 -0.0193
 5246PP      PP15350   1.042   4.909   2.378 -0.0980 -0.1081 -0.1479
 5247PP      PP15351   5.371  15.018  12.964  0.0480 -0.3380 -0.1866
 5248PP      PP15352   9.752   1.908   2.739 -0.0463 -0.1820 -0.0185
 5249PP      PP15353   0.132  12.981   9.989 -0.1114  0.0467  0.1264
 5250PP      PP15354  15.161   0.694   4.086 -0.0992 -0.2024 -0.3258
 5251PP      PP15355  10.294   5.966   2.840 -0.1382  0.1200  0.0991
 5252PP      PP15356  12.893   3.014  10.395 -0.2185  0.1261 -0.0250
 5253PP      PP15357   9.160   5.702   3.391 -0.0197  0.1014  0.2505
 5254PP      PP15358   3.935   7.170   2.563  0.0207  0.0016  0.0850
 5255PP      PP15359   0.176  12.981   2.578  0.1682 -0.3032 -0.2989
 5256PP      PP15360  10.355  13.839  10.352 -0.0481  0.0682 -0.0922
 5257PP      PP15361   1.076   1.733   2.278  0.0788  0.1587 -0.1292
 5258PP      PP15362   0.741   0.318   4.113 -0.0333  0.1621 -0.0129
 5259PP      PP15363  12.713  15.039   1.724 -0.0752 -0.1754  0.1587
 5260PP      PP15364   8.149   3.379   9.950  0.0343 -0.1450 -0.1278
 5261PP      PP15365  10.230  10.900  12.867  0.0903 -0.2523 -0.1667
 5262PP      PP15366  10.818   5.277  12.328  0.0332 -0.4441  0.0393
 5263PP      PP15367  14.397  10.100  10.971  0.1849 -0.0937  0.0524
 5264PP      PP15368  10.819   2.420   3.241 -0.0315  0.2409 -0.0850
 5265PP      PP15369   1.643  14.502   3.637  0.3548 -0.3016  0.3853
 5266PP      PP15370  13.317   5.808   9.329 -0.0702 -0.0095 -0.2495
 5267PP      PP15371  11.339   4.561  12.301 -0.3119  0.0921  0.4775
 5268PP      PP15372  10.861   6.855  11.349 -0.1469  0.0304  0.0207
 5269PP      PP15373   6.256   7.112   3.051 -0.0647  0.0317  0.0705
 5270PP      PP15374   4.809   9.939   3.993 -0.1277 -0.0086  0.4362
 5271PP      PP15375   9.353  11.221   2.502  0.1551 -0.1461  0.0715
 5272PP      PP15376  13.889  15.319   1.816 -0.0820  0.0248 -0.2096
 5273PP      PP15377  12.950   5.403   2.120 -0.3069  0.3674 -0.2870
 5274PP      PP15378   4.817  12.126  11.027 -0.0087 -0.2054  0.1548
 5275PP      PP15379   6.855  11.435   9.666  0.2196  0.2049 -0.0325
 5276PP      PP15380   5.907   7.031  10.466 -0.0555  0.1483  0.3253
 5277PP      PP15381   3.592   8.954   2.122  0.0921 -0.2124 -0.0161
 5278PP      PP15382   0.813  11.039  11.522  0.2707  0.2125 -0.3507
 5279PP      PP15383  14.393  14.520  11.142  0.0941 -0.2084 -0.0012
 5280PP      PP15384   7.985   3.994   2.373 -0.1486 -0.0741  0.0830
 5281PP      PP15385   0.018   6.779   0.094  0.1548 -0.2126 -0.1898
 5282PP      PP15386  10.192   4.390  13.030  0.0381 -0.0186  0.0825
 5283PP      PP15387  10.246   7.417   1.648  0.0974  0.0793 -0.2086
 5284PP      PP15388   5.117  12.275  11.450 -0.1597 -0.1366  0.0562
 5285PP      PP15389   4.088   8.980   1.977  0.3890 -0.2186  0.1720
 5286PP      PP15390   0.932  13.135   0.800 -0.1755 -0.1766 -0.0867
 5287PP      PP15391   6.473   7.846   3.514  0.0159 -0.1240 -0.2308
 5288PP      PP15392   9.445   4.342   1.258 -0.1736 -0.1417  0.1788
 5289PP      PP15393   9.421   0.989   2.965 -0.1201  0.2684 -0.0292
 5290PP      PP15394  13.945   6.763  12.886  0.3816 -0.1023 -0.0363
 5291PP      PP15395   0.517   1.640   0.330 -0.0443 -0.5104 -0.1113
 5292PP      PP15396  13.610   8.724  11.937 -0.1133 -0.0493 -0.1449
 5293PP      PP15397   0.852   6.149  10.501 -0.0993  0.1350 -0.2697
 5294PP      PP15398  10.964  11.450  11.968  0.1632 -0.0877 -0.1002
 5295PP      PP15399   2.421  10.168   0.797 -0.2641  0.0856 -0.2336
 5296PP      PP15400   0.470  11.950   3.469 -0.0901  0.4119  0.1664
 5297PP      PP15401   6.101   8.240   4.550 -0.1333  0.0714  0.1005
 5298PP      PP15402   5.557   9.002   0.886  0.1602  0.1094 -0.2180
 5299PP      PP15403   1.875   6.606  10.071 -0.2853 -0.0809 -0.0285
 5300PP      PP15404   0.406  14.960  13.495  0.0924  0.1947  0.0977
 5301PP      PP15405  11.701   8.773   0.031 -0.1044  0.0020 -0.0036
 5302PP      PP15406  14.228   8.086   2.021 -0.0821  0.1418  0.2482
 5303PP      PP15407  13.774   1.750   9.892 -0.0724  0.0703  0.2862
 5304PP      PP15408  14.834   9.735   9.212 -0.1572 -0.2872 -0.0847
 5305PP      PP15409   4.354  13.216  11.137  0.1665  0.0842 -0.0954
 5306PP      PP15410   4.141   6.581   3.326  0.0548 -0.2207  0.1289
 5307PP      PP15411   1.356  13.603  13.569  0.0413 -0.0011 -0.2111
 5308PP      PP15412  13.230   2.207   0.972 -0.0631  0.0165  0.1446
 5309PP      PP15413  10.828  12.945  11.331 -0.1937  0.3104 -0.1584
 5310PP      PP15414   6.732  10.577   0.097  0.1467 -0.0492  0.0670
 5311PP      PP15415   7.443   7.980   0.135  0.3051 -0.1373  0.3271
 5312PP      PP15416  14.831  15.053  13.079  0.0181  0.1213 -0.0500
 5313PP      PP15417  15.622   9.888  11.157  0.1097  0.2412  0.0620
 5314PP      PP15418   8.649   0.748   3.607 -0.0601  0.1923 -0.1247
 5315PP      PP15419   4.420   2.159   3.884  0.2901 -0.1242  0.1198
 5316PP      PP15420   9.048   8.998   0.728  0.2319  0.3163 -0.0144
 5317PP      PP15421   3.455  15.055   9.981 -0.1471 -0.0208 -0.1181
 5318PP      PP15422  12.667   6.543  10.923  0.2940  0.5077 -0.1416
 5319PP      PP15423  11.516   1.914   9.703 -0.0361 -0.0840  0.0585
 5320PP      PP15424   6.642   7.691   4.069  0.1144 -0.1027  0.4951
 5321PP      PP15425   0.853  15.399  11.094  0.0725 -0.1018 -0.1692
 5322PP      PP15426   1.805  14.838   1.898 -0.0988 -0.1628  0.3442
 5323PP      PP15427   1.262   3.857   9.669 -0.0437 -0.2504  0.1076
 5324PP      PP15428  10.423  13.495   0.677  0.1150 -0.0702  0.0773
 5325PP      PP15429   7.467   0.910  13.556  0.0168 -0.0925 -0.0530
 5326PP      PP15430  14.679  13.617  12.539 -0.1344 -0.0008 -0.1830
 5327PP      PP15431   6.707  14.241   5.000 -0.0564 -0.2730  0.0817
 5328PP      PP15432   0.678   7.416   8.360 -0.2834  0.1937 -0.3102
 5329PP      PP15433   1.454  14.469   9.809 -0.3260 -0.0303  0.3155
 5330PP      PP15434  14.159  10.973   2.983 -0.1019  0.4121 -0.0946
 5331PP      PP15435  10.565  14.534   1.671 -0.0106 -0.2353  0.0776
 5332PP      PP15436   4.623   4.862  12.551 -0.1730 -0.3035  0.3199
 5333PP      PP15437   5.419   3.042  11.485  0.2546  0.2593 -0.2160
 5334PP      PP15438  15.001   3.281   9.391 -0.1366 -0.3070  0.0462
 5335PP      PP15439  11.809   6.325  12.499 -0.0778 -0.0206  0.3158
 5336PP      PP15440   4.280   6.679   8.648 -0.0356  0.2553 -0.0418
 5337PP      PP15441  12.008   2.275  13.187 -0.3259 -0.0151 -0.2870
 5338PP      PP15442   6.202   6.643   1.642  0.1746 -0.1900  0.0240
 5339PP      PP15443  12.456  11.846  12.337  0.1917  0.1453  0.2232
 5340PP      PP15444   2.890   3.694   3.334  0.0100  0.1868 -0.0247
 5341PP      PP15445   7.832   1.415  13.472 -0.0310  0.1116  0.3829
 5342PP      PP15446   0.090   2.791  10.229 -0.1240 -0.1392 -0.3441
 5343PP      PP15447   7.242  13.035  11.492 -0.1655  0.0355  0.0464
 5344PP      PP15448  11.161  10.846  12.734  0.0483 -0.1745  0.0913
 5345PP      PP15449   2.890   6.800   0.064 -0.0280  0.1365  0.1982
 5346PP      PP15450  10.717   8.357  11.292  0.1013 -0.0630 -0.1605
 5347PP      PP15451   6.151   2.974   0.244 -0.0953 -0.1062  0.1320
 5348PP      PP15452   7.306   6.351   2.564 -0.2006 -0.0816  0.1021
 5349PP      PP15453   7.618  15.394   2.916  0.0079  0.1265 -0.1822
 5350PP      PP15454   0.367   7.630   3.936 -0.1307 -0.5325  0.1586
 5351PP      PP15455   8.845   0.322   8.901  0.0042  0.1304  0.3238
 5352PP      PP15456   9.003  14.309   0.453 -0.0478 -0.0424 -0.3652
 5353PP      PP15457  13.451  15.436  11.716 -0.3473 -0.0764  0.0010
 5354PP      PP15458  14.684   5.525   0.871  0.2369  0.0834 -0.0291
 5355PP      PP15459   3.661  15.609   9.211 -0.1716  0.0443  0.0654
 5356PP      PP15460   1.551  15.263   4.873  0.1023  0.0170 -0.0270
 5357PP      PP15461  10.745   7.478  13.612 -0.1519 -0.3447 -0.0143
 5358PP      PP15462   5.632   1.484   0.960  0.0419 -0.0828 -0.1031
 5359PP      PP15463  10.136  12.705  10.422  0.2675  0.0253  0.0473
 5360PP      PP15464   5.053   1.907   0.445  0.0977 -0.1768  0.1796
 5361PP      PP15465   3.965   4.286  10.263 -0.3079  0.2336  0.1600
 5362PP      PP15466  11.792   3.588   1.220 -0.1687 -0.2150  0.0805
 5363PP      PP15467  15.366  11.371   1.392  0.1389  0.0755  0.0018
 5364PP      PP15468  13.541  12.142   2.809  0.0685  0.1253  0.0710
 5365PP      PP15469  11.999  15.232  12.249  0.0766  0.0330 -0.0588
 5366PP      PP15470  10.503   6.257  11.936 -0.0937 -0.2359 -0.0145
 5367PP      PP15471   5.246   7.159   0.879  0.1786 -0.2940 -0.1429
 5368PP      PP15472  11.918   4.964  11.567 -0.2216  0.2385 -0.0851
 5369PP      PP15473  11.261   4.220   1.753  0.3170 -0.0182  0.1447
 5370PP      PP15474  11.879  14.855   1.373 -0.0189 -0.2377  0.1050
 5371PP      PP15475  12.591   1.659   9.374 -0.1412 -0.1024  0.0381
 5372PP      PP15476  14.578   9.243   9.057 -0.1141  0.0065  0.0318
 5373PP      PP15477  13.774   3.038  13.495 -0.1593  0.1601 -0.2097
 5374PP      PP15478   6.761   7.331   3.520 -0.0414  0.1259 -0.0396
 5375PP      PP15479  12.094  11.633   0.919 -0.1382 -0.2038  0.3581
 5376PP      PP15480  10.235  10.854  12.173  0.3101 -0.3027  0.0558
 5377PP      PP15481   3.944   3.881   1.924  0.0602 -0.0078 -0.3433
 5378PP      PP15482  13.480   4.643   2.498 -0.1893  0.1857 -0.1858
 5379PP      PP15483   0.440   9.850   0.808 -0.1054 -0.1589  0.0421
 5380PP      PP15484  12.196   1.348   2.435  0.1222  0.0353  0.0403
 5381PP      PP15485  11.217   3.494   2.016  0.3671 -0.2318  0.1541
 5382PP      PP15486   7.283   8.859   2.957 -0.1546 -0.0085  0.3236
 5383PP      PP15487   3.147   7.052   9.583  0.1232  0.1241 -0.0322
 5384PP      PP15488   3.049  12.733  13.229  0.1283 -0.1354 -0.0494
 5385PP      PP15489   0.485   4.084  12.776 -0.0693  0.3304 -0.1145
 5386PP      PP15490   9.616  12.127  13.378  0.1575  0.0012  0.0581
 5387PP      PP15491  13.280  10.622   0.357 -0.1387  0.3746  0.1217
 5388PP      PP15492  13.536   0.758   0.664  0.0201  0.2215  0.2402
 5389PP      PP15493  12.093   2.854   9.374 -0.1448 -0.1586 -0.0666
 5390PP      PP15494   9.475   1.442  10.988 -0.0547  0.1986 -0.1066
 5391PP      PP15495  13.329   8.332   8.891 -0.2651  0.2289 -0.1829
 5392PP      PP15496   1.830   8.397   1.851  0.0070  0.3399  0.0616
 5393PP      PP15497  10.143   1.246  12.236  0.2997  0.3267  0.1621
 5394PP      PP15498  12.897  14.915  11.306  0.2178 -0.1685  0.0644
 5395PP      PP15499  13.851  11.883  13.207 -0.0104  0.2362  0.0000
 5396PP      PP15500   3.716   4.304   3.237  0.0736 -0.1304  0.0645
 5397PP      PP15501   5.787  14.492   9.834  0.1463  0.2273 -0.1970
 5398PP      PP15502   9.376   9.401  11.271  0.2281  0.0149 -0.2752
 5399PP      PP15503   3.103   0.662  11.412 -0.3701  0.1372 -0.0221
 5400PP      PP15504  14.127   7.854   0.224  0.0950  0.1082 -0.1594
 5401PP      PP15505  13.250   8.671  11.511  0.0736 -0.0797 -0.0630
 5402PP      PP15506   1.117   3.536  12.398 -0.0419 -0.0087 -0.3248
 5403PP      PP15507   5.878   0.423  11.517 -0.2006 -0.2920  0.2697
 5404PP      PP15508  11.274   9.384   3.013  0.2578 -0.0228 -0.0474
 5405PP      PP15509  11.838  10.418  12.524 -0.1634 -0.2205 -0.1003
 5406PP      PP15510   3.408   3.106   9.336  0.1324 -0.1693  0.0038
 5407PP      PP15511  13.769  13.812   4.157 -0.0870  0.0497  0.2641
 5408PP      PP15512  10.238  13.691   3.181 -0.1486 -0.4505  0.1085
 5409PP      PP15513   8.987  15.442  12.561 -0.4447  0.0022 -0.0583
 5410PP      PP15514  10.512   0.842   9.886  0.0466  0.0866  0.1734
 5411PP      PP15515  12.949   6.888   4.150 -0.0116  0.1948  0.2256
 5412PP      PP15516  10.630   2.718  10.704 -0.1520 -0.0131 -0.1987
 5413PP      PP15517   5.857   3.708   9.940 -0.0426  0.0721  0.0506
 5414PP      PP15518  12.792   3.832  10.609 -0.2372  0.0778  0.0473
 5415PP      PP15519  11.000  14.034   1.313  0.0342  0.1928 -0.1130
 5416PP      PP15520  15.249   8.708  13.350 -0.0232  0.3569 -0.0897
 5417PP      PP15521   0.087  13.721  13.255  0.2891 -0.0581 -0.3000
 5418PP      PP15522  10.514   4.049  11.021  0.0784 -0.2294  0.0441
 5419PP      PP15523  12.256   7.215  11.107  0.0981  0.0581  0.1369
 5420PP      PP15524   9.160   9.651  11.710  0.1101 -0.1479  0.0176
 5421PP      PP15525  11.599   0.833  10.811 -0.2736  0.0966  0.1233
 5422PP      PP15526   6.791  14.893   2.259  0.0740  0.1140 -0.0724
 5423PP      PP15527   1.941   9.846   0.114  0.0237  0.0286  0.2674
 5424PP      PP15528   7.137   2.648   0.895 -0.0426 -0.0566 -0.2756
 5425PP      PP15529   3.366   1.507  10.869 -0.0564 -0.0727  0.3261
 5426PP      PP15530  11.364   5.098   2.305 -0.3180  0.0471 -0.0549
 5427PP      PP15531  15.598  14.775  10.473 -0.1344  0.1111  0.4498
 5428PP      PP15532   8.863  15.214   3.213  0.1272 -0.1126 -0.2228
 5429PP      PP15533   8.312   9.205  11.604  0.2196 -0.4516  0.3043
 5430PP      PP15534  12.610  14.025  12.736  0.2036  0.2499  0.1063
 5431PP      PP15535   6.547  14.250   0.742  0.2095 -0.0684  0.0618
 5432PP      PP15536   6.375   6.669  12.799 -0.0295  0.0028  0.1830
 5433PP      PP15537   5.569  10.466  11.468  0.0347  0.2547 -0.1235
 5434PP      PP15538  12.977  14.412  13.752  0.0894  0.0040  0.1439
 5435PP      PP15539  15.045  11.217   3.885  0.1519  0.0894 -0.1294
 5436PP      PP15540  13.882  10.265  11.737 -0.2705 -0.1639 -0.0626
 5437PP      PP15541   7.751   9.444   1.955  0.0124  0.1943 -0.1010
 5438PP      PP15542   1.582   1.801  13.311 -0.0388  0.1612 -0.1967
 5439PP      PP15543   8.857   5.115  11.571  0.0044  0.1604 -0.1482
 5440PP      PP15544   6.962  14.034   0.595  0.1337 -0.0321 -0.2261
 5441PP      PP15545  10.516  11.684   9.487  0.1203 -0.1508  0.3339
 5442PP      PP15546  11.260   3.020   9.373 -0.2325  0.0356  0.3033
 5443PP      PP15547   5.240   9.672   0.433 -0.0899 -0.0513 -0.0107
 5444PP      PP15548   4.914   2.469  12.194  0.0138 -0.1072  0.1392
 5445PP      PP15549   6.689   4.414   9.152 -0.1516 -0.0987  0.0309
 5446PP      PP15550  11.184   5.591  11.441  0.1071  0.0961 -0.2698
 5447PP      PP15551   0.087  12.893  12.933 -0.2196  0.0190 -0.0962
 5448PP      PP15552   9.364  10.609   9.328 -0.0372 -0.0333 -0.0157
 5449PP      PP15553   2.415   4.280   1.154 -0.0210  0.0000 -0.3002
 5450PP      PP15554   2.960   7.635  10.793 -0.1022  0.0745  0.1228
 5451PP      PP15555   8.918   8.067  11.469 -0.0624  0.2469 -0.0923
 5452PP      PP15556   5.373   3.655   1.438 -0.0428 -0.1895 -0.0809
 5453PP      PP15557   4.006  13.381   4.013 -0.2000  0.0813 -0.3169
 5454PP      PP15558   8.441   5.715  13.241 -0.1782 -0.1251 -0.0586
 5455PP      PP15559   7.618   2.292   0.880 -0.1109 -0.0677 -0.0324
 5456PP      PP15560   7.607   0.960   0.683  0.5125  0.2061 -0.1343
 5457PP      PP15561  10.519  10.161  10.787  0.1227  0.0526  0.1230
 5458PP      PP15562   9.620  11.550  12.409 -0.1249  0.1822 -0.1799
 5459PP      PP15563   5.407  13.641  10.119  0.1703  0.0132 -0.1201
 5460PP      PP15564  15.335   5.070   2.878 -0.1343 -0.1024  0.0747
 5461PP      PP15565   6.137   8.131   1.157 -0.0815 -0.1591 -0.2825
 5462PP      PP15566  11.514  15.183  11.161 -0.0048  0.1485 -0.0324
 5463PP      PP15567   5.783   2.028   8.755 -0.0729 -0.0116  0.2402
 5464PP      PP15568  11.401  13.740  11.310  0.2409  0.2958 -0.1382
 5465PP      PP15569   9.920   1.260  10.978 -0.0917 -0.0310 -0.0361
 5466PP      PP15570  10.468   4.949   9.431  0.1707  0.0806 -0.2828
 5467PP      PP15571  12.499   9.300   1.835 -0.3549  0.0849  0.1735
 5468PP      PP15572   1.685   8.914   2.956  0.1035 -0.0121 -0.2089
 5469PP      PP15573   4.290  10.901   1.258  0.1805 -0.0060  0.1613
 5470PP      PP15574   8.865   1.178  11.715 -0.0533  0.0929 -0.0981
 5471PP      PP15575  14.022   6.227   0.837  0.0241 -0.1456  0.1083
 5472PP      PP15576   1.612   6.013   1.750  0.0629 -0.0921 -0.2622
 5473PP      PP15577  15.588   8.035   3.379  0.1938 -0.0534  0.0805
 5474PP      PP15578   9.272  12.981  10.624  0.0302 -0.2394  0.0582
 5475PP      PP15579   0.873  10.258   0.797  0.1692  0.0364 -0.2510
 5476PP      PP15580   4.670   6.594   3.170  0.2136  0.3895  0.1801
 5477PP      PP15581   1.325  13.184   3.459  0.0675  0.0106 -0.0190
 5478PP      PP15582   3.591   0.416   1.508  0.0182  0.3707 -0.3081
 5479PP      PP15583   6.732  10.860   3.206  0.0670  0.0976  0.0287
 5480PP      PP15584  14.733   3.865  10.210 -0.1921 -0.3534  0.0341
 5481PP      PP15585   1.647  15.327   0.592  0.1011 -0.3489 -0.2228
 5482PP      PP15586  10.503   7.575   0.260 -0.3012  0.1663 -0.2421
 5483PP      PP15587  12.403  12.085   9.452  0.2584  0.2069  0.1513
 5484PP      PP15588  10.226   0.039   3.393 -0.0071 -0.1653 -0.1129
 5485PP      PP15589   1.687  15.635  12.739 -0.2872 -0.1351 -0.0944
 5486PP      PP15590   5.873  15.672   9.856 -0.1058 -0.1632  0.1949
 5487PP      PP15591   2.169   6.967   4.421 -0.0697 -0.0147  0.3514
 5488PP      PP15592   7.982  13.759  13.317  0.0089  0.2805  0.1517
 5489PP      PP15593   5.065  14.346  11.417 -0.1097 -0.0118 -0.1154
 5490PP      PP15594  12.213   2.210   4.172  0.0320  0.2698 -0.1322
 5491PP      PP15595   7.384  12.094   2.620  0.1659 -0.1819  0.1170
 5492PP      PP15596  13.547   5.870   3.126 -0.0548 -0.1123  0.0664
 5493PP      PP15597   7.585   4.786   0.079  0.0346  0.1545 -0.0856
 5494PP      PP15598   4.562   4.269   0.545  0.1221  0.0404 -0.0686
 5495PP      PP15599  14.317   1.474   9.047  0.0669 -0.1283  0.1555
 5496PP      PP15600   4.583   4.325  12.590  0.3551 -0.2669  0.1941
 5497PP      PP15601   0.287  14.097  12.049  0.1070  0.3712 -0.2467
 5498PP      PP15602  12.423  12.572   4.064  0.3998 -0.0670  0.3628
 5499PP      PP15603  10.139   4.103   9.237 -0.2666  0.1459 -0.2510
 5500PP      PP15604  10.621  10.793   0.012  0.0170 -0.0421 -0.0626
 5501PP      PP15605   9.470   3.573   3.572  0.0938 -0.2195 -0.1021
 5502PP      PP15606  15.063   8.819  12.800 -0.0680 -0.0281 -0.1656
 5503PP      PP15607  11.139  13.677   1.668 -0.0017 -0.0432 -0.2434
 5504PP      PP15608   2.439  11.799   2.228  0.1825  0.3123  0.2758
 5505PP      PP15609   8.002   8.559   9.867  0.1702  0.2177  0.2450
 5506PP      PP15610   7.350  14.341  12.908  0.1418 -0.0844  0.3933
 5507PP      PP15611   4.499   5.764  12.020  0.1547  0.0141 -0.0627
 5508PP      PP15612  11.177   4.989  12.113 -0.1377 -0.0230  0.0655
 5509PP      PP15613   8.087   2.956   8.745 -0.0626 -0.0049  0.0447
 5510PP      PP15614   3.644   7.838   0.272  0.0530  0.1996  0.0061
 5511PP      PP15615  12.220   2.647   3.599 -0.1430  0.1597 -0.1435
 5512PP      PP15616  11.930  10.397  10.942  0.0345 -0.1846 -0.4522
 5513PP      PP15617   1.208   3.828  10.349  0.1214  0.1307  0.3561
 5514PP      PP15618  12.151  15.519  11.770  0.0408  0.0553  0.1640
 5515PP      PP15619   1.866   8.829   1.603 -0.0978  0.2748 -0.0228
 5516PP      PP15620   4.765   2.377  10.185  0.2782  0.1592  0.1736
 5517PP      PP15621   6.954  15.099  12.473 -0.3004  0.1284  0.1065
 5518PP      PP15622  10.215  11.841  10.486  0.2051  0.1892  0.1245
 5519PP      PP15623   1.297   2.495   1.498 -0.1625 -0.0920 -0.0228
 5520PP      PP15624   2.919  11.118   1.717 -0.0533 -0.1400 -0.3532
 5521PP      PP15625   0.177   3.687   9.643  0.0625  0.0533 -0.0506
 5522PP      PP15626   3.989  13.891  11.420  0.3254  0.0133  0.0624
 5523PP      PP15627   7.934  12.528   2.144 -0.1327  0.0245 -0.1545
 5524PP      PP15628   9.373  12.246  10.957 -0.1493  0.1309 -0.1223
 5525PP      PP15629   1.820   2.290  13.262  0.1757  0.4396 -0.0585
 5526PP      PP15630   3.027   7.667   8.778 -0.3048  0.1295 -0.1432
 5527PP      PP15631   2.862   8.270   0.271  0.0858 -0.0120  0.1180
 5528PP      PP15632  11.295   3.914  10.662 -0.0382  0.1770  0.1403
 5529PP      PP15633   3.512  10.973   4.062  0.1371  0.0887 -0.0329
 5530PP      PP15634  14.141  11.890  11.657 -0.0734 -0.2456  0.1528
 5531PP      PP15635  11.213  11.994   9.221  0.0147  0.1859  0.0390
 5532PP      PP15636   7.555  11.247  10.162 -0.0571 -0.0634 -0.2438
 5533PP      PP15637   0.814   6.489  10.118 -0.1222 -0.0970 -0.1903
 5534PP      PP15638  10.913   0.338   1.830 -0.1284 -0.0276  0.1064
 5535PP      PP15639  11.485   5.516   1.679  0.1038 -0.1044  0.3662
 5536PP      PP15640  11.476   2.773  10.187 -0.1078 -0.1270  0.0679
 5537PP      PP15641  14.555   9.220   1.373  0.1049  0.3765  0.0398
 5538PP      PP15642   1.003  14.852   4.738  0.1495 -0.4685  0.1807
 5539PP      PP15643  11.653   8.517  11.531  0.1293 -0.5008 -0.1623
 5540PP      PP15644  11.430   0.045  11.124 -0.0686 -0.0625  0.0636
 5541PP      PP15645   8.860  12.523  13.394 -0.0478  0.2016  0.1843
 5542PP      PP15646  12.509  14.163   0.028 -0.0674 -0.0111  0.2975
 5543PP      PP15647  15.153   9.979  10.179  0.2065 -0.0953 -0.1585
 5544PP      PP15648   6.092  11.409   0.893  0.1680  0.1036 -0.1905
 5545PP      PP15649   7.050   2.269   1.309 -0.5077 -0.2519 -0.0611
 5546PP      PP15650   7.875  14.759  12.076  0.2170 -0.2058 -0.0213
 5547PP      PP15651  14.529   7.838  10.743 -0.0703 -0.2274  0.0208
 5548PP      PP15652  12.016   6.762  10.274  0.0855 -0.0947  0.0221
 5549PP      PP15653  13.017   5.196   1.386 -0.1922 -0.1425  0.1875
 5550PP      PP15654   6.335  13.252   3.260 -0.5815  0.2799  0.0684
 5551PP      PP15655  10.579   0.540  12.825 -0.1858  0.3330  0.1109
 5552PP      PP15656   4.986  13.194   3.565  0.1704 -0.4716  0.0965
 5553PP      PP15657   6.547   1.905   0.106 -0.3207 -0.5089 -0.0242
 5554PP      PP15658   6.352   6.690   1.000  0.1249 -0.0819 -0.0159
 5555PP      PP15659   8.534   5.315   0.140  0.3470 -0.0300  0.0643
 5556PP      PP15660   5.987   4.527   1.387  0.3345 -0.4068  0.2407
 5557PP      PP15661   9.632  13.018   3.552 -0.1235 -0.0493  0.0115
 5558PP      PP15662   5.478   6.083   3.201  0.0211  0.0069  0.0299
 5559PP      PP15663   5.141   8.780   0.677 -0.0704  0.0070 -0.2870
 5560PP      PP15664  13.823   4.573   2.936 -0.0703  0.2766  0.0222
 5561PP      PP15665   0.287   6.003   3.050  0.1644  0.0325 -0.0178
 5562PP      PP15666  11.604   4.056  10.300  0.0588  0.1105 -0.0551
 5563PP      PP15667  11.475   0.025   2.470  0.1218 -0.1867 -0.1639
 5564PP      PP15668   8.141   7.702   4.353  0.2350  0.1687  0.0273
 5565PP      PP15669   6.259  11.430   4.553 -0.0220  0.0334  0.2105
 5566PP      PP15670   2.274   4.252   4.026  0.5469  0.0646 -0.2653
 5567PP      PP15671  12.550  12.332   4.461  0.0061  0.3566 -0.1230
 5568PP      PP15672   4.922   3.723  13.122  0.1431  0.1703  0.2195
 5569PP      PP15673   3.966   4.524   2.883  0.0088 -0.2829  0.1959
 5570PP      PP15674   4.366   5.763  10.105 -0.0534 -0.4927 -0.2081
 5571PP      PP15675   4.792   5.580   9.968  0.1676  0.0182 -0.0821
 5572PP      PP15676   1.252  13.258  10.584  0.2102 -0.0535  0.0838
 5573PP      PP15677   2.556   7.401   1.494  0.0015  0.0793 -0.2919
 5574PP      PP15678  15.172   9.249   1.975 -0.0675 -0.1191 -0.1443
 5575PP      PP15679  13.565  12.859   1.641 -0.2933  0.0437 -0.3511
 5576PP      PP15680   4.529   1.886   9.462  0.6721 -0.0900 -0.0510
 5577PP      PP15681   7.421   2.343  13.770  0.1420 -0.1129  0.0629
 5578PP      PP15682  12.052  11.069   0.751 -0.1241 -0.1060 -0.1281
 5579PP      PP15683   1.116   6.559  10.639  0.0270 -0.0828 -0.0804
 5580PP      PP15684  15.269   0.484   3.377 -0.2441  0.0017 -0.3532
 5581PP      PP15685   7.692   4.986   1.946  0.1299 -0.1005  0.0881
 5582PP      PP15686   0.835   4.583  11.605  0.0072  0.2329 -0.0546
 5583PP      PP15687  13.058   6.945   1.377 -0.1828  0.0862  0.3620
 5584PP      PP15688   7.801  10.822  11.572  0.1915 -0.1444 -0.0639
 5585PP      PP15689  11.974   9.447   3.307  0.1095  0.2387  0.1713
 5586PP      PP15690  12.777  12.185   1.626 -0.2158 -0.0297 -0.1907
 5587PP      PP15691  12.646  11.565  11.511 -0.2205 -0.0243  0.1385
 5588PP      PP15692  13.051  10.288  11.181 -0.0198  0.1643  0.1086
 5589PP      PP15693  15.075  11.145  11.997  0.1453  0.1716 -0.1665
 5590PP      PP15694  15.317   3.985   0.110  0.1982 -0.1160  0.3671
 5591PP      PP15695   3.967   4.796   1.837  0.0646  0.3291 -0.0957
 5592PP      PP15696   2.288  11.147  12.797  0.1426 -0.1937  0.0954
 5593PP      PP15697  15.712  11.004   0.176  0.1465  0.0106 -0.0482
 5594PP      PP15698   7.828  12.271   1.731  0.1159 -0.0560  0.0550
 5595PP      PP15699  10.221   2.402   0.430  0.0429 -0.2894  0.1252
 5596PP      PP15700  13.860  13.197   0.629  0.0103  0.0929 -0.1383
 5597PP      PP15701   3.302   5.844   9.514 -0.1761  0.0301 -0.1208
 5598PP      PP15702   1.233   9.190   0.907 -0.0540 -0.3354  0.4672
 5599PP      PP15703   4.330   8.261  10.197 -0.2171  0.2349  0.0624
 5600PP      PP15704   4.730  15.081  11.589 -0.4061  0.0922  0.0107
 5601PP      PP15705   9.974   9.248   8.883 -0.1820  0.2770  0.1016
 5602PP      PP15706   7.259   5.966  11.424  0.2383 -0.1197  0.3220
 5603PP      PP15707   6.667   6.831   3.204  0.0979  0.0552 -0.1400
 5604PP      PP15708   6.941  10.760   5.044 -0.0415  0.3167  0.2913
 5605PP      PP15709   5.798   0.469  10.879 -0.1614  0.0460  0.1617
 5606PP      PP15710  11.437  14.380   0.442 -0.1556  0.2570 -0.1435
 5607PP      PP15711  14.726   9.543   2.703 -0.0305  0.2850 -0.2663
 5608PP      PP15712   1.529   9.882   2.952 -0.2825  0.1152  0.3673
 5609PP      PP15713  14.264   9.310   2.754 -0.1649  0.0470  0.2152
 5610PP      PP15714   6.807   9.828   2.829  0.1917  0.0073  0.0435
 5611PP      PP15715   1.785   6.698   2.781 -0.2422 -0.0524  0.0919
 5612PP      PP15716   1.988  10.234   5.156 -0.3840 -0.1173  0.0980
 5613PP      PP15717   8.985  14.149  12.133 -0.1929 -0.1777 -0.0499
 5614PP      PP15718  14.475  14.891   4.794 -0.0318  0.0304  0.1027
 5615PP      PP15719   9.529  12.524   3.371 -0.2127 -0.2944 -0.0538
 5616PP      PP15720   8.204   0.344   8.965 -0.0919 -0.0626 -0.0513
 5617PP      PP15721  11.896  14.704   3.515 -0.1258  0.0027 -0.1576
 5618PP      PP15722   1.295   1.335  12.351 -0.1181  0.1870 -0.0292
 5619PP      PP15723  11.562   7.503   2.628 -0.2993  0.2548  0.0859
 5620PP      PP15724  12.689   6.254  12.873 -0.2384  0.1232  0.0961
 5621PP      PP15725   9.256  15.385   9.634 -0.1176 -0.0435 -0.1436
 5622PP      PP15726   6.194   7.419   8.866  0.0211 -0.1493  0.0196
 5623PP      PP15727   7.458  13.475  10.733 -0.1987  0.0346 -0.1810
 5624PP      PP15728   6.256   3.950  12.071  0.1557 -0.1023  0.1631
 5625PP      PP15729   8.001  15.401  10.736  0.3021  0.0166 -0.1538
 5626PP      PP15730  11.888   5.637   1.171  0.0518  0.1770  0.2988
 5627PP      PP15731  11.495  11.597  12.113 -0.1002 -0.0407 -0.3415
 5628PP      PP15732  15.606   4.604   0.797  0.1992 -0.1444  0.0772
 5629PP      PP15733   4.662  10.411   0.540  0.0973 -0.0329  0.1410
 5630PP      PP15734   7.451  12.599   2.388 -0.0023  0.0364  0.2380
 5631PP      PP15735   6.165  10.635   1.566  0.2244 -0.1192 -0.2161
 5632PP      PP15736  13.130   7.196   0.456  0.0509  0.1732  0.0276
 5633PP      PP15737   1.583   7.733   9.328 -0.0043 -0.1702 -0.0271
 5634PP      PP15738  15.271   7.883   2.626 -0.3490 -0.1365 -0.0988
 5635PP      PP15739   8.278  12.391  13.429  0.3423 -0.0762  0.0705
 5636PP      PP15740  15.201   9.865  13.711  0.1782  0.0073  0.0078
 5637PP      PP15741  10.070   9.779  13.046 -0.0723  0.0123 -0.0586
 5638PP      PP15742   9.876  15.076  12.999 -0.2599 -0.0315 -0.0666
 5639PP      PP15743   5.538   1.901   0.520  0.4839  0.1142  0.0896
 5640PP      PP15744  13.840   8.342   2.854  0.2269 -0.1044  0.0848
 5641PP      PP15745  12.099   8.401   0.505  0.0358 -0.0770  0.0759
 5642PP      PP15746   5.865   9.240  12.297  0.0385 -0.1268 -0.2373
 5643PP      PP15747  14.432  11.014   0.086 -0.0590 -0.4276 -0.2314
 5644PP      PP15748   9.177   0.101  12.902  0.2671 -0.1064  0.0498
 5645PP      PP15749   8.590   0.774  10.316  0.0778 -0.1654 -0.3018
 5646PP      PP15750  12.039   3.818   3.987 -0.1468 -0.0292 -0.1144
 5647PP      PP15751   9.635   7.524   8.795  0.0956  0.0636  0.1543
 5648PP      PP15752  13.981   4.888   3.603  0.0957  0.2434 -0.2847
 5649PP      PP15753  12.891  12.533   0.930  0.2812 -0.2776 -0.1113
 5650PP      PP15754   7.421   0.982   2.815  0.1974 -0.1602 -0.0570
 5651PP      PP15755   0.763   3.974  13.257 -0.1875 -0.1776 -0.2873
 5652PP      PP15756   2.823  14.374  13.423 -0.0243 -0.1105 -0.0011
 5653PP      PP15757   4.148   0.497   4.385  0.0531  0.0064  0.3475
 5654PP      PP15758  15.041  13.303   9.464  0.1001 -0.2572 -0.1381
 5655PP      PP15759   2.344  14.947  11.941  0.1608  0.0127 -0.0758
 5656PP      PP15760   4.686   7.130   3.086 -0.1260 -0.0450  0.1319
 5657PP      PP15761  11.502  11.658  11.453 -0.0442 -0.0174 -0.1148
 5658PP      PP15762   3.298   5.782   3.108  0.1397 -0.1100  0.0632
 5659PP      PP15763   4.536  10.877   0.473  0.0033  0.0132 -0.1577
 5660PP      PP15764  13.597   9.696  11.675  0.0914 -0.1973 -0.0956
 5661PP      PP15765   3.183  10.477   3.036 -0.1830  0.0038 -0.0911
 5662PP      PP15766   0.614  14.871  11.831 -0.1135 -0.0191  0.0177
 5663PP      PP15767   2.225   7.983   4.038  0.2708 -0.2046 -0.0683
 5664PP      PP15768  13.338  13.319   0.297 -0.0320 -0.2048 -0.1121
 5665PP      PP15769   6.389  11.075   3.537  0.2731  0.0480  0.0798
 5666PP      PP15770   7.601   9.916  12.954 -0.2165 -0.0745  0.1337
 5667PP      PP15771   6.283   0.289  11.071  0.0825 -0.0058 -0.0414
 5668PP      PP15772  14.552   0.160   3.721 -0.2630 -0.0911 -0.1581
 5669PP      PP15773   2.284  12.735   0.805  0.2793  0.1161 -0.1851
 5670PP      PP15774  11.159  13.350   2.063  0.0604  0.0375  0.3136
 5671PP      PP15775   8.710  13.263   1.664 -0.0303  0.0273  0.1024
 5672PP      PP15776  12.579  15.443   2.069  0.3139 -0.0928  0.1400
 5673PP      PP15777  10.947   3.663   3.907  0.3084  0.2851 -0.2139
 5674PP      PP15778  13.398  11.977   4.713  0.2298 -0.0616  0.0656
 5675PP      PP15779  10.882   7.823   4.193 -0.3898 -0.1012  0.3326
 5676PP      PP15780  10.837   7.720   1.905 -0.0124 -0.4065 -0.3392
 5677PP      PP15781   2.306  15.300   3.109  0.0025  0.2149  0.1343
 5678PP      PP15782   6.647   3.234  12.070 -0.0157  0.0366  0.4783
 5679PP      PP15783  12.847  10.890   1.020 -0.0576  0.0411  0.2300
 5680PP      PP15784   3.441   2.791   2.411  0.0804 -0.4485  0.0503
 5681PP      PP15785   4.651  15.100  10.219 -0.1857 -0.3391  0.0738
 5682PP      PP15786  11.729   4.221   3.819 -0.1987 -0.0233  0.0567
 5683PP      PP15787   6.375   1.115   9.821 -0.0102 -0.2102  0.2935
 5684PP      PP15788   6.064  13.020   1.938  0.1752 -0.0286  0.3213
 5685PP      PP15789   9.345   1.931   0.767 -0.0473  0.3277 -0.4077
 5686PP      PP15790  15.562   9.238  10.002  0.0375 -0.0032 -0.1420
 5687PP      PP15791   4.730   1.384  13.164 -0.1059 -0.4057  0.2344
 5688PP      PP15792  11.430  12.149  12.222 -0.1337 -0.0483  0.2438
 5689PP      PP15793   8.298   0.407   3.776 -0.3016 -0.1327 -0.1915
 5690PP      PP15794  13.343   6.055   3.632  0.0494  0.1211 -0.0651
 5691PP      PP15795  15.620   6.706  11.050  0.2443 -0.0405 -0.3430
 5692PP      PP15796   6.041  15.597  13.127 -0.0016 -0.0120  0.0239
 5693PP      PP15797   9.421  15.447   1.607 -0.0504  0.0457  0.1394
 5694PP      PP15798   1.551  12.281   9.763  0.0587  0.0660 -0.1758
 5695PP      PP15799  15.583   2.560  10.580  0.3259 -0.1523  0.3336
 5696PP      PP15800   2.871   2.973   2.298  0.0022 -0.1775 -0.0302
 5697PP      PP15801   1.739  15.373   1.118  0.0360  0.0327  0.0050
 5698PP      PP15802   0.155   6.161   3.990  0.1692 -0.0553  0.1123
 5699PP      PP15803   5.806  11.867  10.955 -0.0980 -0.0050  0.1123
 5700PP      PP15804  14.873  14.501   2.217 -0.0303 -0.1881  0.4424
 5701PP      PP15805   1.242  10.801  10.277 -0.1116 -0.0061  0.0705
 5702PP      PP15806   4.717  13.500  10.136 -0.3156  0.1434 -0.2049
 5703PP      PP15807   8.741  14.594   4.580  0.0485  0.1939  0.1878
 5704PP      PP15808   3.743   2.979   2.069 -0.4229 -0.0582 -0.2873
 5705PP      PP15809  11.821  15.029   1.873  0.0010  0.0008 -0.0753
 5706PP      PP15810  11.737  14.471  10.822 -0.2965 -0.0841 -0.0626
 5707PP      PP15811   2.125   2.697   0.887  0.0206  0.0200  0.2801
 5708PP      PP15812  11.599   0.760  13.100 -0.2130  0.0675 -0.0934
 5709PP      PP15813   7.709  13.698   9.472  0.0646  0.1317  0.1630
 5710PP      PP15814   0.761   1.995  13.528 -0.0739 -0.2450 -0.1284
 5711PP      PP15815  11.631  10.205   3.011  0.2060 -0.1781  0.3878
 5712PP      PP15816  12.985  15.355  11.504 -0.3156  0.0129  0.2178
 5713PP      PP15817  13.451  11.665  12.869  0.1953  0.2454 -0.2343
 5714PP      PP15818   4.258   0.228   2.024 -0.0255 -0.1439 -0.3797
 5715PP      PP15819  10.391   8.750   9.792 -0.1610 -0.0193  0.1357
 5716PP      PP15820  11.948  10.030   0.608 -0.1471  0.0502 -0.1097
 5717PP      PP15821  14.661  12.230   9.910  0.1757 -0.0690  0.3956
 5718PP      PP15822  14.321   8.263   1.080 -0.2174 -0.1129 -0.0635
 5719PP      PP15823   3.106   6.382   4.062  0.0098  0.1589  0.3608
 5720PP      PP15824   6.837  14.355   3.653  0.1026  0.1814  0.5491
 5721PP      PP15825   8.520   8.180   1.699 -0.3298 -0.0927  0.2048
 5722PP      PP15826   7.239  14.788   9.028 -0.1419 -0.0556  0.1373
 5723PP      PP15827   9.915   4.805   9.880  0.1980  0.0385 -0.0191
 5724PP      PP15828  13.752   6.295   3.314 -0.0256 -0.4405 -0.2033
 5725PP      PP15829  13.326   3.573   0.874 -0.0461 -0.0465 -0.2814
 5726PP      PP15830   9.269   6.388   9.478 -0.1505 -0.1480 -0.0933
 5727PP      PP15831   7.004   3.999   0.881 -0.0189 -0.2870  0.0222
 5728PP      PP15832   1.298   3.741   0.903  0.1272  0.0149 -0.3021
 5729PP      PP15833   6.594   1.002  12.461 -0.2659  0.1551  0.2772
 5730PP      PP15834   9.892   0.710  10.942  0.0210  0.1661 -0.0513
 5731PP      PP15835   7.511   5.141   2.790 -0.0525 -0.1479 -0.1612
 5732PP      PP15836   6.444  10.448   1.028 -0.1620  0.3181 -0.1337
 5733PP      PP15837   1.413   5.697  12.779 -0.0836  0.3798  0.0391
 5734PP      PP15838   5.775  11.010   4.581  0.1373 -0.1102 -0.2301
 5735PP      PP15839   0.568  12.387   0.439  0.0787  0.1261 -0.3209
 5736PP      PP15840   6.817  10.027   4.410  0.0208  0.3939  0.2897
 5737PP      PP15841  12.185  10.458  13.502 -0.3639 -0.1481  0.0790
 5738PP      PP15842   3.570   6.181   4.040  0.0918 -0.1653  0.0052
 5739PP      PP15843  12.418   9.459   3.772  0.2718  0.0826 -0.0987
 5740PP      PP15844   5.826  15.093   3.331 -0.2801  0.1524  0.2866
 5741PP      PP15845   6.792  14.580   4.093 -0.0898  0.1018 -0.2894
 5742PP      PP15846   9.443  10.816   2.796  0.1291 -0.3580  0.1107
 5743PP      PP15847   9.370  13.922  12.939 -0.1090 -0.2273  0.2173
 5744PP      PP15848   5.853  12.882  11.816  0.2267 -0.2442 -0.2229
 5745PP      PP15849   9.094   4.316  11.833 -0.3308 -0.1157 -0.2930
 5746PP      PP15850   5.967  13.903   3.854  0.2348  0.0284  0.2464
 5747PP      PP15851  12.574   5.905  10.547  0.1988 -0.0040  0.0507
 5748PP      PP15852  13.879   2.083  12.944 -0.0401  0.2949 -0.2068
 5749PP      PP15853  13.103  12.019   3.253  0.3045  0.3057  0.0807
 5750PP      PP15854   1.424   8.396   2.178 -0.0262 -0.1506 -0.2726
 5751PP      PP15855   2.964  15.558   4.687 -0.0593  0.1160  0.0068
 5752PP      PP15856  14.982  14.248  11.441  0.0151  0.1259 -0.3621
 5753PP      PP15857  15.057  10.715  10.833  0.0214 -0.1600  0.0079
 5754PP      PP15858   5.609   3.493  11.570  0.0395  0.1087  0.0084
 5755PP      PP15859  12.417   4.828  11.101  0.2594  0.4838 -0.2516
 5756PP      PP15860  14.793   2.399  12.172 -0.3005 -0.0069  0.3914
 5757PP      PP15861   7.987   3.172   1.339 -0.0038  0.0889  0.0385
 5758PP      PP15862   9.199   6.725   2.447 -0.0625 -0.1818  0.0376
 5759PP      PP15863   6.567  12.861   4.117 -0.0843  0.0283 -0.2660
 5760PP      PP15864  12.575   3.452  11.992  0.3347 -0.0514  0.1772
 5761PP      PP15865   2.540  14.283   9.994  0.1793 -0.0020  0.3227
 5762PP      PP15866   3.179   4.115   8.777  0.0327 -0.0423  0.0072
 5763PP      PP15867   7.661  13.088   1.901 -0.1615 -0.2523  0.3978
 5764PP      PP15868   9.523  15.263   8.880 -0.2772  0.1899  0.1591
 5765PP      PP15869  12.313   1.711  10.518  0.2498  0.1668 -0.0144
 5766PP      PP15870  10.011   5.863  12.618  0.2579 -0.1529  0.2451
 5767PP      PP15871  13.616   2.249   9.053 -0.0927 -0.0805 -0.1522
 5768PP      PP15872   6.422   3.348   0.551 -0.2265  0.1669 -0.0089
 5769PP      PP15873   5.435   5.405   3.391 -0.1174 -0.1162  0.1917
 5770PP      PP15874   9.850  15.418  11.127 -0.0302  0.2379  0.0268
 5771PP      PP15875   8.495  14.796   9.572 -0.0143 -0.2555  0.0259
 5772PP      PP15876   2.413   6.539  10.012 -0.1331  0.1576  0.1103
 5773PP      PP15877  11.095   1.392   8.682  0.1326 -0.0687  0.1190
 5774PP      PP15878   6.542  10.196   3.285 -0.2793 -0.2895 -0.0559
 5775PP      PP15879  11.585  14.816   9.008  0.1835  0.1467 -0.0359
 5776PP      PP15880   8.588  12.806   5.343 -0.1370 -0.1169  0.0994
 5777PP      PP15881   6.504  11.253   0.046 -0.0745 -0.1501  0.0961
 5778PP      PP15882   5.596  10.292  12.350 -0.0455  0.0020 -0.0198
 5779PP      PP15883  12.738   1.141  12.267  0.2282 -0.0489 -0.0435
 5780PP      PP15884  15.462   7.467  11.908  0.1318 -0.1191 -0.0080
 5781PP      PP15885  15.513   6.416   3.776  0.3377  0.0365 -0.0527
 5782PP      PP15886   0.763   0.801   3.197 -0.1821  0.5475 -0.1571
 5783PP      PP15887  15.392   4.624   3.843 -0.1677 -0.1395  0.1647
 5784PP      PP15888  14.732  13.693   9.702 -0.1404  0.0723 -0.0085
 5785PP      PP15889   5.885   3.850   2.941 -0.0900  0.1903  0.1152
 5786PP      PP15890   7.049  11.608   1.305 -0.0165  0.1348  0.2831
 5787PP      PP15891   0.253   9.131   4.016 -0.1060  0.0547  0.1439
 5788PP      PP15892   1.343   9.999   4.205 -0.0316  0.2630  0.2865
 5789PP      PP15893  15.547   3.215  11.432 -0.1137  0.4108 -0.0085
 5790PP      PP15894   7.325  11.913   8.963  0.0107 -0.0366 -0.2355
 5791PP      PP15895  12.063   6.641   2.373 -0.2227 -0.0344 -0.0892
 5792PP      PP15896   4.028   4.400   9.009 -0.0416  0.0475 -0.0738
 5793PP      PP15897   7.136  15.128   3.895  0.1037  0.2631  0.2870
 5794PP      PP15898   9.512   2.786  11.898  0.0153 -0.2206 -0.2037
 5795PP      PP15899   3.102  15.046   0.713  0.1054  0.1295  0.0649
 5796PP      PP15900  11.927   2.384   2.978 -0.2277 -0.0204 -0.0769
 5797PP      PP15901  15.213  10.601   1.766 -0.3135 -0.0818  0.0247
 5798PP      PP15902   4.287  13.434  13.303  0.2061 -0.1602 -0.0686
 5799PP      PP15903   7.558   0.142  10.942 -0.0933  0.0426  0.1977
 5800PP      PP15904   7.363   3.371   3.510 -0.1359 -0.0287 -0.1723
 5801PP      PP15905   7.052   7.122   3.208  0.0670 -0.4614  0.1756
 5802PP      PP15906   0.603  12.892   9.205 -0.2909 -0.2817 -0.0384
 5803PP      PP15907   5.775  15.570   0.895 -0.0268  0.0600  0.2207
 5804PP      PP15908  13.450   3.260   2.219 -0.0117 -0.2138 -0.1744
 5805PP      PP15909  10.549   9.379   4.669  0.3277  0.0669  0.1385
 5806PP      PP15910   3.761   8.845  11.462 -0.4917 -0.0982  0.2097
 5807PP      PP15911   1.769   9.286   3.623 -0.0537  0.0557  0.1160
 5808PP      PP15912   0.059  14.135   0.798  0.0845 -0.0508  0.1130
 5809PP      PP15913   4.913  11.809   0.430 -0.2542 -0.1732  0.0820
 5810PP      PP15914  11.416   5.658   0.930 -0.0316  0.0837 -0.0681
 5811PP      PP15915   3.895   5.315  12.573  0.0285 -0.1114  0.2004
 5812PP      PP15916  10.796  12.020   2.811 -0.2515 -0.1507  0.1680
 5813PP      PP15917   8.808   9.951  11.574  0.1106 -0.0377  0.1513
 5814PP      PP15918   0.782  13.449  13.329 -0.2466 -0.0201  0.1476
 5815PP      PP15919   4.739   8.505  13.180  0.2644 -0.1458  0.1908
 5816PP      PP15920  10.605  15.511   0.363 -0.2223  0.0170 -0.1150
 5817PP      PP15921   3.017  12.761   3.836  0.1309 -0.0059 -0.1354
 5818PP      PP15922   0.063   1.384  11.679 -0.2803  0.3805 -0.0932
 5819PP      PP15923   9.839   4.471  12.740  0.1179 -0.1115  0.0777
 5820PP      PP15924  12.926   0.198  13.600  0.1890 -0.0121  0.2836
 5821PP      PP15925   7.959  13.668   2.414 -0.0538 -0.1944  0.0321
 5822PP      PP15926  15.369   7.537   1.701  0.2177  0.0979  0.1738
 5823PP      PP15927   6.374  11.392  10.890  0.0526 -0.0640 -0.2979
 5824PP      PP15928  14.776   3.623   3.972  0.2963 -0.1055  0.0968
 5825PP      PP15929  11.143   1.693  11.874 -0.0096  0.1297 -0.4738
 5826PP      PP15930   5.972   7.774   3.501 -0.1695  0.1406  0.0267
 5827PP      PP15931  14.519   8.205   1.562  0.1085 -0.0933  0.1442
 5828PP      PP15932  10.668   2.465   0.990 -0.2393  0.0357 -0.0505
 5829PP      PP15933   0.686  10.336   4.045  0.3168  0.0559  0.2996
 5830PP      PP15934   1.964   5.552   3.817  0.0532  0.0612 -0.2165
 5831PP      PP15935   8.853   8.528   2.357 -0.1685 -0.0026  0.0605
 5832PP      PP15936   2.443  13.253  11.901  0.1801  0.2273 -0.2137
 5833PP      PP15937   6.843  10.385   2.629 -0.0728 -0.0110  0.0358
 5834PP      PP15938   8.280   1.574  12.363 -0.3215  0.2535 -0.2046
 5835PP      PP15939   7.499   9.221   0.493  0.1610 -0.0513 -0.0852
 5836PP      PP15940   5.971   3.151  11.675 -0.2806 -0.2578 -0.0957
 5837PP      PP15941   6.108   5.736  13.622 -0.3087 -0.2477 -0.0182
 5838PP      PP15942   9.553   2.739  12.544 -0.2173 -0.1392  0.1034
 5839PP      PP15943   6.865   1.381  12.495 -0.1427 -0.0279  0.0787
 5840PP      PP15944   7.519  11.829  11.202 -0.0184 -0.3032  0.0426
 5841PP      PP15945   6.645   2.136  12.952  0.1873 -0.2116  0.1013
 5842PP      PP15946   2.804   6.163  11.759 -0.1363  0.1635  0.1138
 5843PP      PP15947   1.345   2.550   9.725 -0.1098 -0.1079  0.1002
 5844PP      PP15948   9.746   1.823   0.337 -0.1004  0.0390 -0.0558
 5845PP      PP15949   3.035   5.365  11.515  0.2994  0.2973  0.2588
 5846PP      PP15950   9.993   3.274   9.965 -0.2723 -0.0150 -0.3152
 5847PP      PP15951  12.201  15.420  10.240 -0.2816  0.1335  0.1268
 5848PP      PP15952  10.002  12.908   8.959  0.1313  0.2237 -0.0410
 5849PP      PP15953  10.046   2.020   3.154 -0.0202  0.2410  0.0332
 5850PP      PP15954  14.945   1.683   9.143  0.0522  0.2127  0.0828
 5851PP      PP15955   6.710   2.104   8.425  0.3030 -0.1940  0.2722
 5852PP      PP15956   4.083   7.480   1.063  0.2321  0.0229  0.2653
 5853PP      PP15957  10.805   3.142  12.520  0.3220  0.0894  0.2534
 5854PP      PP15958   8.736  15.421  13.636  0.1642  0.3912 -0.1309
 5855PP      PP15959   0.184   7.614  11.798 -0.1062 -0.2495  0.0998
 5856PP      PP15960   5.922   9.485   4.235  0.2120 -0.0509  0.0172
 5857PP      PP15961   0.935   3.514   8.908  0.3120  0.1653  0.0150
 5858PP      PP15962  13.459  12.273   0.767  0.1200  0.1902 -0.0239
 5859PP      PP15963   5.823  10.617   0.375 -0.0592 -0.2201  0.0669
 5860PP      PP15964   1.776   6.941   0.459  0.0193 -0.0652  0.2034
 5861PP      PP15965  15.404  15.524   0.443  0.2116  0.1302  0.1001
 5862PP      PP15966  14.915  10.042  13.356  0.1830 -0.1494  0.1596
 5863PP      PP15967  14.514   0.851   0.543  0.2179  0.0727  0.2957
 5864PP      PP15968   8.718   1.557  11.399 -0.1068  0.0551 -0.2433
 5865PP      PP15969   0.595   2.002   3.258 -0.0528 -0.2418 -0.0852
 5866PP      PP15970  10.830   6.282  12.309 -0.0752 -0.1530  0.0807
 5867PP      PP15971   9.194   9.166  10.317  0.1353  0.1837  0.1586
 5868PP      PP15972   0.065   3.294  12.870  0.3028 -0.0370  0.0178
 5869PP      PP15973   5.431   7.746   1.844 -0.2550  0.0155  0.2396
 5870PP      PP15974   5.500  15.371  11.397  0.3806  0.1066 -0.2778
 5871PP      PP15975  14.663  13.015  10.743  0.1720 -0.0042  0.0758
 5872PP      PP15976  15.092   5.348   1.587  0.3031 -0.2604 -0.1977
 5873PP      PP15977   0.947  15.672  11.596 -0.2980  0.0532 -0.3078
 5874PP      PP15978   5.030   7.383  12.701 -0.5625 -0.1203 -0.2898
 5875PP      PP15979   8.775   6.031   4.095  0.3012  0.0585  0.1710
 5876PP      PP15980   0.647   1.900  11.062 -0.0472  0.1992  0.1735
 5877PP      PP15981   0.606   1.157   4.039  0.3337  0.0739 -0.0167
 5878PP      PP15982  13.609   4.591  10.271 -0.0527 -0.2318  0.1570
 5879PP      PP15983  12.173  10.947   9.416 -0.1427  0.1102 -0.0536
 5880PP      PP15984   8.470  14.264   1.258 -0.0623  0.1611 -0.2494
 5881PP      PP15985  10.856  13.975  10.544  0.1457  0.1649  0.1768
 5882PP      PP15986  10.847   6.472   8.528 -0.1862 -0.0110 -0.0698
 5883PP      PP15987   6.134   6.402  11.845  0.0344 -0.1166  0.0520
 5884PP      PP15988   4.839  15.519  13.344  0.1699  0.0286 -0.3313
 5885PP      PP15989   9.705  14.637  13.753 -0.0553  0.2391 -0.0753
 5886PP      PP15990  10.962  13.862  13.295 -0.1553  0.1846  0.0378
 5887PP      PP15991   5.141   9.236   4.431 -0.1150 -0.1062  0.1583
 5888PP      PP15992   0.138   1.772  11.337 -0.1371 -0.0020  0.1405
 5889PP      PP15993   0.242   6.133  13.172 -0.0685  0.2358  0.0265
 5890PP      PP15994   9.399  14.018   2.170 -0.2780 -0.0568  0.2787
 5891PP      PP15995  14.016  13.941  10.543 -0.0747 -0.4396 -0.3026
 5892PP      PP15996   2.003   1.972   3.486 -0.2234  0.0014  0.0131
 5893PP      PP15997   9.126   6.429  13.280 -0.0883  0.0214  0.0233
 5894PP      PP15998   7.968   7.560   9.734  0.3283 -0.1798 -0.4508
 5895PP      PP15999   4.936   3.583   8.783 -0.4148  0.1624  0.2940
 5896PP      PP16000  10.073   5.484   3.040  0.0932 -0.2585 -0.0659
 5897PP      PP16001   0.407  11.952   4.056 -0.1578 -0.5151  0.0110
 5898PP      PP16002  11.082  10.959  10.902  0.1240  0.1881 -0.1121
 5899PP      PP16003  10.560   4.050   3.933 -0.0210 -0.0804 -0.5211
 5900PP      PP16004  13.995   5.673   2.843 -0.1028  0.0045  0.0269
 5901PP      PP16005   6.286   2.537   9.512  0.1158 -0.0768 -0.0244
 5902PP      PP16006   4.409  11.932   2.147  0.0726  0.1410 -0.0242
 5903PP      PP16007  11.362  13.335   3.979  0.0145 -0.3578  0.3773
 5904PP      PP16008   6.935   5.090  12.689 -0.0320 -0.0673  0.0796
 5905PP      PP16009   3.054  11.322   3.326  0.1890 -0.1986  0.1454
 5906PP      PP16010   9.041   7.607   2.601 -0.0666 -0.0389  0.0069
 5907PP      PP16011   3.111   0.077  11.477  0.0037 -0.0154  0.0117
 5908PP      PP16012   3.203   9.839  12.195 -0.2466  0.2344  0.0959
 5909PP      PP16013   3.770   2.781  10.263  0.0196  0.2947 -0.1997
 5910PP      PP16014   4.525  11.269   0.974  0.1220  0.0460  0.1388
 5911PP      PP16015  12.970  13.015   4.869  0.3086 -0.0151 -0.0289
 5912PP      PP16016  11.118   9.115  12.881 -0.0623 -0.2554  0.1371
 5913PP      PP16017   9.898   7.660   3.508  0.2713  0.0557 -0.0448
 5914PP      PP16018   8.538   4.314   3.619 -0.0828 -0.0885 -0.1769
 5915PP      PP16019   3.987   7.196  11.715 -0.1806 -0.1162 -0.5241
 5916PP      PP16020   7.756   6.597   1.647 -0.1976 -0.1152  0.0873
 5917PP      PP16021   2.030   9.684  11.425 -0.0073 -0.1680  0.2038
 5918PP      PP16022   4.662  12.181   3.746 -0.1293  0.2160  0.0960
 5919PP      PP16023  12.822  13.254   1.571  0.3236  0.2593  0.2304
 5920PP      PP16024  13.352  13.884   2.560 -0.0671 -0.3028 -0.0041
 5921PP      PP16025   0.889   9.759  10.204  0.2569 -0.1917  0.0006
 5922PP      PP16026   7.885  12.443  11.549 -0.2707 -0.0617  0.1985
 5923PP      PP16027   3.391   8.184   2.321  0.0464  0.2568 -0.1477
 5924PP      PP16028   3.670   3.179   3.412 -0.2172  0.1142 -0.1523
 5925PP      PP16029   3.894  10.051   5.305  0.1847 -0.3260 -0.1980
 5926PP      PP16030  11.073   0.125   9.570  0.1454  0.3820 -0.1193
 5927PP      PP16031   4.361   8.171  12.028 -0.0366 -0.0709 -0.3996
 5928PP      PP16032   6.129   9.751  12.115  0.1015  0.0908  0.0492
 5929PP      PP16033  14.995   7.845  11.107 -0.0565 -0.2292  0.0141
 5930PP      PP16034  11.025  14.296   4.131 -0.2418 -0.1394 -0.1346
 5931PP      PP16035   0.598  14.398  10.449 -0.0622  0.0533  0.2348
 5932PP      PP16036   0.679  11.365  10.173  0.0266  0.1244  0.1063
 5933PP      PP16037   3.456  12.040  12.061  0.3098  0.1034 -0.1205
 5934PP      PP16038   7.773   6.678  11.305 -0.1067  0.0678 -0.2936
 5935PP      PP16039   6.049  14.173   0.978  0.1804 -0.1174  0.0221
 5936PP      PP16040   3.487   2.630   4.028  0.1353  0.0219 -0.0388
 5937PP      PP16041   6.965   5.517   9.535  0.1536 -0.3977 -0.1244
 5938PP      PP16042   0.543   8.394   1.547  0.1184 -0.0423 -0.0939
 5939PP      PP16043  12.706   9.026   9.981  0.0056 -0.1274  0.1004
 5940PP      PP16044  12.816   1.801  11.523 -0.1189  0.5276 -0.6029
 5941PP      PP16045   5.339  11.801  12.329 -0.1130 -0.0137  0.1423
 5942PP      PP16046   5.231   4.116  12.287 -0.2476 -0.2741 -0.2102
 5943PP      PP16047   7.029   7.894   0.747 -0.0033  0.1470 -0.1642
 5944PP      PP16048  14.208  13.100   3.573  0.1299  0.1300 -0.0267
 5945PP      PP16049   1.796  14.568  10.925 -0.1146 -0.0074  0.0870
 5946PP      PP16050  14.295   9.696   3.636 -0.1854  0.1258 -0.2391
 5947PP      PP16051  11.040   0.062   0.522  0.1184 -0.2466  0.2149
 5948PP      PP16052   4.086  14.242   9.821 -0.0920  0.0060  0.3649
 5949PP      PP16053  11.438   8.698   3.842  0.1750 -0.0859  0.3072
 5950PP      PP16054   9.614   6.228  13.221 -0.2557  0.0675 -0.0323
 5951PP      PP16055   9.818   5.953   0.873 -0.2758 -0.0480 -0.4096
 5952PP      PP16056   9.627   0.479  12.971  0.0915 -0.3378  0.0352
 5953PP      PP16057   2.755   7.221   0.848 -0.1384  0.1795  0.1111
 5954PP      PP16058   5.564   3.781  12.413 -0.2495 -0.1004  0.1004
 5955PP      PP16059   6.673   4.922   2.692  0.2747  0.1204  0.1664
 5956PP      PP16060   9.513   6.907   1.013 -0.1154  0.1858 -0.0510
 5957PP      PP16061   3.433   4.998   3.877  0.4502 -0.0599  0.1324
 5958PP      PP16062   8.469  11.039   0.857 -0.2635  0.3291 -0.1511
 5959PP      PP16063   3.384  14.814   9.129  0.2338  0.0084  0.0775
 5960PP      PP16064  11.534   5.407  11.832  0.1741  0.1025  0.2431
 5961PP      PP16065  14.887   7.107  13.171  0.1100 -0.1885  0.1948
 5962PP      PP16066  11.182   2.642   9.003  0.1973  0.0229 -0.1842
 5963PP      PP16067   8.393   1.038  11.829  0.0393  0.1002 -0.0509
 5964PP      PP16068  13.952  12.032   4.528 -0.0920 -0.0674  0.2529
 5965PP      PP16069   2.546  14.890   2.385 -0.1487  0.2190 -0.2554
 5966PP      PP16070   5.370   4.363  11.056 -0.0761 -0.1478  0.0631
 5967PP      PP16071   7.046  11.205   1.983  0.2033 -0.1974 -0.0521
 5968PP      PP16072   0.725   0.126  12.056  0.2725 -0.1020 -0.0861
 5969PP      PP16073   1.207   9.896   4.705 -0.1281  0.0304 -0.2070
 5970PP      PP16074  14.117   9.852  11.935  0.1632 -0.1225  0.0380
 5971PP      PP16075  12.567  13.070  12.824  0.1533 -0.1278 -0.1663
 5972PP      PP16076   7.892   0.377   0.467  0.0837 -0.3344  0.0334
 5973PP      PP16077   9.334  13.227   0.329  0.0424  0.3999  0.0024
 5974PP      PP16078  11.691   7.639  12.316 -0.3377 -0.1971 -0.0046
 5975PP      PP16079   4.194   4.005   1.309  0.1028 -0.3068  0.1061
 5976PP      PP16080   7.011  10.843  10.878  0.0457 -0.1398 -0.1104
 5977PP      PP16081   0.088  14.294  10.709 -0.0230 -0.4750  0.0744
 5978PP      PP16082   3.765   5.100   0.529  0.1726  0.0484  0.1834
 5979PP      PP16083   0.999   3.329  10.199  0.1798 -0.3540 -0.0477
 5980PP      PP16084   0.250  13.266  10.713 -0.0909 -0.0578 -0.2391
 5981PP      PP16085  14.049   3.354  11.802 -0.0951 -0.2480  0.1511
 5982PP      PP16086   0.772   7.249  11.256 -0.1627  0.0904  0.2263
 5983PP      PP16087  11.824   7.302  10.087 -0.3086 -0.0809  0.2249
 5984PP      PP16088  14.423  11.115   3.397  0.2067  0.3012 -0.3999
 5985PP      PP16089   5.332   4.114   1.973 -0.3105  0.3206 -0.1310
 5986PP      PP16090  11.941   4.416  11.485 -0.1030 -0.1006  0.1400
 5987PP      PP16091  13.006   6.112   0.530 -0.1652  0.0676  0.2437
 5988PP      PP16092  12.890   9.423   3.486 -0.0356 -0.4091 -0.3439
 5989PP      PP16093  13.505  14.894   2.415  0.2842  0.1383  0.3102
 5990PP      PP16094   4.271   8.714  10.633 -0.0130  0.0130  0.0301
 5991PP      PP16095  14.419   5.335   2.975 -0.0033  0.1636 -0.1387
 5992PP      PP16096   7.389  12.446   4.413 -0.0270  0.3479 -0.1639
 5993PP      PP16097   9.006   7.869  12.958  0.0823  0.0115  0.1104
 5994PP      PP16098  10.331   3.189   0.830  0.0307 -0.3544  0.1815
 5995PP      PP16099   1.028  11.683   2.052 -0.0142  0.4862 -0.0621
 5996PP      PP16100   8.682  12.704   3.860 -0.0932  0.2754  0.1865
 5997PP      PP16101   8.137  15.555   1.409  0.0448 -0.2222 -0.2701
 5998PP      PP16102  13.483  13.721   1.931 -0.0030  0.2266 -0.1991
 5999PP      PP16103   9.711   4.090  13.104 -0.0055  0.0423 -0.1843
 6000PP      PP16104   2.518   7.448  13.334  0.0047  0.2228  0.0507
 6001PP      PP16105  13.734   9.736  11.185 -0.1906 -0.2115 -0.0281
 6002PP      PP16106   2.712  11.629  11.556 -0.2513  0.0659 -0.2516
 6003PP      PP16107  12.827   9.037   3.869  0.3677  0.1818 -0.1304
 6004PP      PP16108  15.000  13.356  11.737  0.3104 -0.0174 -0.2237
 6005PP      PP16109   8.755   8.178  12.642  0.0424 -0.0150 -0.3667
 6006PP      PP16110  13.997   2.109   9.640  0.0246  0.1413 -0.0246
 6007PP      PP16111   4.725  12.277   0.649  0.2859 -0.1016  0.2254
 6008PP      PP16112   2.570   5.142  11.403 -0.0609 -0.1777  0.1963
 6009PP      PP16113  15.667   0.776   0.403  0.3630  0.4200  0.0276
 6010PP      PP16114   5.470   6.694   0.939  0.0753 -0.0144  0.0493
 6011PP      PP16115   0.663  13.184  13.754 -0.1595  0.0440 -0.0712
 6012PP      PP16116  10.022  12.735   4.769 -0.0719  0.1254 -0.4464
 6013PP      PP16117   9.401  10.072  11.864  0.1732 -0.1826 -0.4396
 6014PP      PP16118   4.607  10.657   5.381 -0.2157 -0.2123 -0.0102
 6015PP      PP16119  15.452   2.461  13.247 -0.1800 -0.2494 -0.2220
 6016PP      PP16120   2.705   1.928  10.049 -0.3133  0.2013 -0.0487
 6017PP      PP16121  12.104  15.136  13.359  0.2946  0.2723  0.1231
 6018PP      PP16122   5.237  13.435  13.254 -0.5604 -0.2769 -0.3811
 6019PP      PP16123  11.713   8.348   2.020  0.2039 -0.0216  0.0286
 6020PP      PP16124   1.167  10.525   4.125  0.0805 -0.2273 -0.3076
 6021PP      PP16125   9.486  13.993   8.214  0.2272 -0.0003  0.4149
 6022PP      PP16126  12.207   3.408   3.006 -0.0894 -0.1572 -0.2755
 6023PP      PP16127  10.680  10.681  13.006 -0.0578 -0.1408 -0.4659
 6024PP      PP16128  12.666   4.565  13.127  0.4505 -0.2855 -0.1087
 6025PP      PP16129  13.825   3.865  11.969 -0.0153  0.1379 -0.0996
 6026PP      PP16130  13.470  12.548  11.134 -0.0876  0.0932  0.2151
 6027PP      PP16131   3.611  10.493   9.591 -0.0857 -0.1756 -0.0271
 6028PP      PP16132   6.757  12.072  11.143  0.0208 -0.0091  0.0431
 6029PP      PP16133   6.339   7.250   0.292  0.0002  0.0207  0.0929
 6030PP      PP16134  13.110   1.133  13.595  0.6552  0.1395 -0.3219
 6031PP      PP16135  12.448  10.754   1.316 -0.3667  0.1410 -0.0207
 6032PP      PP16136   9.963   5.549   1.179  0.2404 -0.0167 -0.1879
 6033PP      PP16137   9.901   2.668  12.934 -0.0385 -0.0177 -0.0278
 6034PP      PP16138   0.006  10.945   9.858 -0.3382  0.2672 -0.3341
 6035PP      PP16139   6.340   3.382   4.163 -0.1491  0.0644 -0.1134
 6036PP      PP16140   9.238  14.251   0.911 -0.4371 -0.1617 -0.2010
 6037PP      PP16141   6.168   0.997   9.390 -0.2914  0.0843 -0.1725
 6038PP      PP16142   2.331  13.549  13.497  0.1186 -0.0060 -0.2604
 6039PP      PP16143   0.022   6.567   1.802 -0.1571 -0.2572 -0.4217
 6040PP      PP16144  14.297  10.440   2.774 -0.1128 -0.0488 -0.0722
 6041PP      PP16145   5.703   4.963   3.082  0.2401  0.1701 -0.2312
 6042PP      PP16146   9.320   8.818  11.993 -0.0385 -0.2056 -0.1238
 6043PP      PP16147   6.126   6.769  11.495 -0.1693 -0.1119 -0.0256
 6044PP      PP16148   0.613   3.744   1.283  0.1357  0.0535  0.1604
 6045PP      PP16149   4.725  13.487  12.994 -0.1201  0.2848 -0.2395
 6046PP      PP16150   6.425   0.220   1.680 -0.1025 -0.1602  0.0068
 6047PP      PP16151   1.440  14.937   9.348 -0.1948 -0.0948  0.3492
 6048PP      PP16152   6.049   0.303   8.828  0.1297  0.0956 -0.0614
 6049PP      PP16153   6.077  10.593   5.187 -0.1393 -0.0036 -0.0822
 6050PP      PP16154   2.039   0.326   9.664 -0.2218  0.0173 -0.1306
 6051PP      PP16155   2.116  12.187  10.982 -0.0669  0.4914 -0.2275
 6052PP      PP16156   7.345   0.238  12.600  0.0624 -0.0414  0.2233
 6053PP      PP16157  12.666   6.457   1.271  0.0539 -0.3532 -0.1740
 6054PP      PP16158   8.383  14.532   4.260 -0.2522 -0.0117  0.2666
 6055PP      PP16159   3.649   3.510  13.645  0.0474  0.2527 -0.1111
 6056PP      PP16160   8.313   9.249   2.770 -0.1633  0.1623 -0.0072
 6057PP      PP16161   2.640  15.121   4.864 -0.0676  0.1585  0.0007
 6058PP      PP16162   1.499  12.849  12.284  0.0202 -0.1095  0.1559
 6059PP      PP16163   9.817  14.291   8.780 -0.1116  0.1998  0.1839
 6060PP      PP16164   8.237   5.565  11.404  0.2297 -0.2583 -0.1907
 6061PP      PP16165   9.483  15.441   8.375 -0.1792 -0.2812  0.1411
 6062PP      PP16166   1.513   6.270   2.706  0.1924 -0.1510  0.0178
 6063PP      PP16167   3.783   2.921   9.057  0.1705  0.2071 -0.3321
 6064PP      PP16168   1.982   1.172   3.035  0.2737 -0.0705  0.0944
 6065PP      PP16169  10.273   0.459   8.979  0.1772  0.1830  0.0382
 6066PP      PP16170   1.212   9.371  12.622  0.0854  0.1918  0.0756
 6067PP      PP16171   3.272   7.256   8.999  0.2216  0.4449  0.0660
 6068PP      PP16172   6.538   4.404  13.713  0.1754  0.2842  0.0851
 6069PP      PP16173  10.582   4.041  13.467 -0.0875 -0.1265 -0.3114
 6070PP      PP16174   3.166  15.607  12.539 -0.1744  0.0236 -0.1199
 6071PP      PP16175  12.834  11.792   2.001 -0.2118 -0.0190 -0.2314
 6072PP      PP16176   7.204   0.556   2.566  0.0740  0.0412 -0.2484
 6073PP      PP16177   2.309   0.686  13.546  0.2484  0.0487 -0.1551
 6074PP      PP16178  11.903   6.943   1.923  0.1409  0.1576  0.2689
 6075PP      PP16179  12.444   8.645   0.713 -0.2400  0.1576  0.0233
 6076PP      PP16180  12.227  15.576  13.699  0.0259 -0.0010  0.2539
 6077PP      PP16181  15.300   0.918   3.574  0.2484  0.0236 -0.0142
 6078PP      PP16182  13.362   4.380   3.009 -0.3273 -0.0782 -0.0434
 6079PP      PP16183  11.388   7.382  10.563 -0.2317 -0.0582  0.0370
 6080PP      PP16184   1.318   7.810  12.401  0.2494  0.0339  0.1660
 6081PP      PP16185  14.721   3.604   0.147 -0.0305  0.2154 -0.1004
 6082PP      PP16186   8.816   1.673   3.688  0.2262 -0.0408  0.0420
 6083PP      PP16187   5.474   9.503   1.016  0.0774  0.0988 -0.2649
 6084PP      PP16188  10.488  14.281  10.661 -0.0514 -0.0584 -0.4716
 6085PP      PP16189   4.324   2.128  11.280 -0.0832 -0.0946  0.2273
 6086PP      PP16190  13.153   0.193  12.388 -0.0605  0.4356  0.3661
 6087PP      PP16191  13.896   8.216  13.653  0.3827  0.0852 -0.0479
 6088PP      PP16192  11.504   5.114  10.892 -0.1329 -0.1078 -0.1428
 6089PP      PP16193   6.474   3.565   8.175  0.4197  0.0403 -0.3479
 6090PP      PP16194   7.005   3.826  12.580  0.1409  0.2888 -0.0224
 6091PP      PP16195   6.721   1.928  13.392 -0.0990  0.5796  0.0774
 6092PP      PP16196  13.839  11.225  11.056  0.0136 -0.2010  0.1007
 6093PP      PP16197   7.362  10.279  10.926  0.2131 -0.3894  0.2211
 6094PP      PP16198  12.927  12.425  12.820  0.0509  0.1758  0.2008
 6095PP      PP16199   6.745  13.892  10.544  0.4158 -0.0819 -0.0547
 6096PP      PP16200   3.534   1.423   3.504  0.2983 -0.0731  0.0030
 6097PP      PP16201   7.951  13.105   2.315  0.2168 -0.0374 -0.0427
 6098PP      PP16202   4.353  10.958  13.651 -0.1793  0.0858 -0.1983
 6099PP      PP16203  11.508   1.057   1.465 -0.1654 -0.2116 -0.0805
 6100PP      PP16204   5.493  13.459   3.476  0.0405 -0.0090  0.1438
 6101PP      PP16205   4.466   9.140   1.679  0.0539 -0.5127 -0.1365
 6102PP      PP16206   6.663   1.076  12.979 -0.0167 -0.0378  0.1495
 6103PP      PP16207  12.476  10.582   9.261 -0.3178  0.0450  0.0752
 6104PP      PP16208   6.182  11.630  10.010  0.0658  0.3983  0.0592
 6105PP      PP16209   4.016   9.347  11.214 -0.2220 -0.1695 -0.4043
 6106PP      PP16210   3.096  14.961   2.055  0.2691  0.3089  0.0656
 6107PP      PP16211  15.558   9.195   4.243  0.0118  0.2992 -0.0131
 6108PP      PP16212   2.508   6.208   9.024  0.1112 -0.0056  0.2058
 6109PP      PP16213  13.459   4.909   2.955 -0.0304 -0.1705 -0.0660
 6110PP      PP16214   5.469  13.968  13.458 -0.1798 -0.2935 -0.3507
 6111PP      PP16215   8.489   2.928  10.182  0.2779 -0.1994 -0.0526
 6112PP      PP16216   4.908  14.712  11.810 -0.1306  0.3269 -0.0445
 6113PP      PP16217   2.338  15.266   1.490  0.1443 -0.2254 -0.1114
 6114PP      PP16218  14.223   5.121   9.214  0.1522  0.1092 -0.4038
 6115PP      PP16219  11.777  13.800   0.799  0.0903 -0.0266 -0.1652
 6116PP      PP16220  12.307   4.400   1.775 -0.0756 -0.1925 -0.0730
 6117PP      PP16221   5.127  11.704   2.209 -0.1906 -0.1052 -0.1022
 6118PP      PP16222   8.770   5.951  12.154  0.1450  0.1268  0.0295
 6119PP      PP16223   6.590   1.967   1.475  0.0612 -0.1095 -0.0334
 6120PP      PP16224   7.354  10.007   4.306 -0.5436  0.0254 -0.0151
 6121PP      PP16225   4.516   4.166  11.695 -0.0322  0.3711  0.1391
 6122PP      PP16226  14.953  10.756  10.343 -0.2238 -0.2243  0.0548
 6123PP      PP16227   0.616  12.970  10.442 -0.0887  0.0672 -0.1834
 6124PP      PP16228   4.976   7.657   3.803 -0.0840  0.0722 -0.1012
 6125PP      PP16229  13.454   5.727  11.775  0.2112  0.0249 -0.0694
 6126PP      PP16230   2.498   1.535   1.321  0.1753  0.1100 -0.2258
 6127PP      PP16231   4.100  15.257   4.102 -0.0855 -0.1059  0.3828
 6128PP      PP16232   3.768   2.329  11.421 -0.1434 -0.0590 -0.2425
 6129PP      PP16233  14.847   3.120   0.160  0.0947  0.3474  0.1731
 6130PP      PP16234   6.589   8.003  11.814 -0.1250 -0.0637  0.2264
 6131PP      PP16235  12.336   2.646   0.228  0.0866 -0.1671  0.1254
 6132PP      PP16236  14.441   4.683   9.036  0.0297 -0.0500 -0.1434
 6133PP      PP16237   0.364  13.859  10.565 -0.2216  0.2854  0.2296
 6134PP      PP16238   4.385  11.978   1.589 -0.1860 -0.1587  0.1353
 6135PP      PP16239   0.023   3.646   3.755 -0.4452 -0.1028  0.0941
 6136PP      PP16240  13.636   8.054  12.601  0.0363  0.0621  0.1972
 6137PP      PP16241   7.373   5.729   9.862 -0.0458  0.1794  0.0724
 6138PP      PP16242   8.121  11.606   2.439  0.0728 -0.0439 -0.0393
 6139PP      PP16243   0.148   0.734   4.652 -0.1461 -0.0873 -0.0634
 6140PP      PP16244   8.332   6.681  13.336 -0.2110 -0.1877  0.1035
 6141PP      PP16245  10.425   3.261   3.854 -0.1886 -0.2948  0.0184
 6142PP      PP16246   7.402   6.812   2.185 -0.0074 -0.2727 -0.1125
 6143PP      PP16247   7.028   3.094  11.292 -0.1780 -0.1217 -0.0243
 6144PP      PP16248   2.180   5.744   1.481  0.2739 -0.2526  0.0044
 6145PP      PP16249   9.254   8.303  10.524 -0.0651  0.0188 -0.1937
 6146PP      PP16250  13.676  11.850   2.079 -0.0312 -0.0443 -0.1546
 6147PP      PP16251  12.814   7.884  11.977  0.2396 -0.1564 -0.0484
 6148PP      PP16252   9.636   9.818   3.714 -0.4354 -0.1222 -0.3047
 6149PP      PP16253   7.883   3.820   2.833 -0.1480  0.1251 -0.2050
 6150PP      PP16254   3.586   0.876  11.317  0.1343  0.0198 -0.0446
 6151PP      PP16255   6.173   7.613   1.208 -0.0068  0.0197 -0.2903
 6152PP      PP16256  12.408   5.356   1.260 -0.0429 -0.3014  0.0574
 6153PP      PP16257   3.133  14.880  11.752 -0.1841 -0.1741  0.1737
 6154PP      PP16258   7.483   3.285  11.145  0.1762  0.1026  0.0682
 6155PP      PP16259  15.096   2.815   2.988 -0.4939  0.0356 -0.1417
 6156PP      PP16260   7.655   1.820  11.343  0.2634 -0.1172 -0.0542
 6157PP      PP16261   1.561   5.332   9.517  0.3674 -0.2415 -0.1687
 6158PP      PP16262   6.235   1.902   8.696 -0.1985  0.4298  0.2251
 6159PP      PP16263  12.484   6.251   2.181  0.0189  0.0517 -0.3860
 6160PP      PP16264   9.083  15.234   0.800  0.0474 -0.1087  0.1487
 6161PP      PP16265   0.771   0.413  13.601 -0.2318  0.0448  0.2618
 6162PP      PP16266  10.603   7.919   9.515  0.1066  0.2354 -0.0102
 6163PP      PP16267  10.020  14.868  13.446 -0.1086 -0.0936 -0.1491
 6164PP      PP16268   8.693   5.630   1.932 -0.0125 -0.3438  0.1328
 6165PP      PP16269  15.025   8.230  10.088 -0.0273 -0.0494  0.2467
 6166PP      PP16270  13.620  13.081  12.524 -0.0883  0.0323 -0.0971
 6167PP      PP16271   5.648  10.135   0.539  0.1198  0.0659 -0.3865
 6168PP      PP16272   9.485  12.374   1.519  0.1468  0.3337 -0.2133
 6169PP      PP16273  12.514  13.801   1.902  0.1139  0.2386 -0.0603
 6170PP      PP16274   3.212  11.423  12.914  0.0835  0.0713 -0.0421
 6171PP      PP16275   8.538  13.187  10.224  0.0583 -0.1578  0.0672
 6172PP      PP16276   0.723   9.748   9.683  0.0207  0.1492  0.0368
 6173PP      PP16277  10.866   3.204   3.186  0.4143  0.0826  0.5489
 6174PP      PP16278   0.816  13.148  10.845  0.0519 -0.0988 -0.2225
 6175PP      PP16279  14.592  13.722  11.434  0.0938  0.0252 -0.0320
 6176PP      PP16280  11.106  10.105   3.381  0.2620  0.2841  0.2359
 6177PP      PP16281  13.804   2.348   2.521 -0.0168  0.1290  0.0270
 6178PP      PP16282  11.419   6.660  10.797  0.0581  0.0010 -0.1088
 6179PP      PP16283  12.968  13.898   5.141  0.1111  0.3559 -0.0038
 6180PP      PP16284  14.530  12.236   2.438 -0.1808  0.2250 -0.0516
 6181PP      PP16285  12.371  13.147   4.168 -0.1505 -0.0707 -0.0695
 6182PP      PP16286   2.261  11.688   3.950 -0.0142  0.1104  0.1425
 6183PP      PP16287   6.341  10.786   4.055 -0.1548 -0.0134  0.0232
 6184PP      PP16288  12.921   8.095  13.332 -0.2313  0.0872 -0.0526
 6185PP      PP16289   0.547   9.998  11.069  0.1616  0.0247  0.2480
 6186PP      PP16290  12.935  10.564   9.445 -0.2497 -0.0180  0.0769
 6187PP      PP16291   9.912   9.511   0.207 -0.1514  0.1571  0.3128
 6188PP      PP16292  12.339  13.107   5.200 -0.2160  0.1037 -0.0628
 6189PP      PP16293   4.451  12.169   3.294  0.1663  0.1269  0.1413
 6190PP      PP16294   5.451   7.256   1.780  0.1520 -0.0189  0.0638
 6191PP      PP16295   7.038  12.823   1.970  0.1228  0.2219  0.0340
 6192PP      PP16296  13.720   1.183   1.907 -0.0549  0.0874 -0.0845
 6193PP      PP16297  14.808   3.324   2.103 -0.0227  0.1473  0.2340
 6194PP      PP16298   8.061   7.192   2.445 -0.0333  0.0039 -0.0297
 6195PP      PP16299   6.403   3.902   2.679  0.0197  0.0269  0.3257
 6196PP      PP16300  10.087   9.805   3.357  0.1699  0.0578  0.1532
 6197PP      PP16301   9.576   1.369  11.481 -0.2195  0.3088  0.2894
 6198PP      PP16302   6.045  14.784  12.433 -0.3901  0.2786 -0.0246
 6199PP      PP16303   3.038   6.608   2.544  0.0800 -0.0239  0.1114
 6200PP      PP16304   2.527   1.689   4.209 -0.1859 -0.3651  0.1973
 6201PP      PP16305  10.493  13.619  13.352  0.0849 -0.2617 -0.4799
 6202PP      PP16306  14.075  14.761  10.682 -0.2636 -0.3595  0.4108
 6203PP      PP16307   6.331   6.283   0.605  0.3479  0.1613  0.0192
 6204PP      PP16308   1.749  13.820   3.794  0.3341  0.0712  0.1401
 6205PP      PP16309   4.764   6.951   3.539 -0.0105  0.0863  0.2279
 6206PP      PP16310   0.155  12.996   0.040  0.0987  0.3003  0.1986
 6207PP      PP16311   8.386  13.703  11.359 -0.0587  0.1934 -0.0181
 6208PP      PP16312   0.010  11.842  11.708  0.0434  0.2090 -0.0491
 6209PP      PP16313  12.776   9.966   2.003 -0.1324 -0.0907 -0.0449
 6210PP      PP16314  15.623   4.313   1.562 -0.0678  0.0587 -0.2984
 6211PP      PP16315   5.237   0.243   4.414  0.1574  0.0927  0.0483
 6212PP      PP16316   5.172  15.592   3.653 -0.1464 -0.2615 -0.3119
 6213PP      PP16317   5.348   2.534   1.190  0.0246 -0.0870 -0.1999
 6214PP      PP16318   0.289   6.902  13.518  0.2216  0.0320 -0.0101
 6215PP      PP16319  15.067  10.213   1.495  0.0079  0.1818  0.0538
 6216PP      PP16320   4.866  15.416  10.598  0.1971 -0.0735  0.1155
 6217PP      PP16321  10.877   3.673   1.033  0.0557 -0.1204  0.1114
 6218PP      PP16322  15.009   8.916  10.891  0.0854 -0.0707 -0.3378
 6219PP      PP16323  11.505   4.417   0.741  0.0830 -0.1477 -0.1864
 6220PP      PP16324  12.940   6.864  13.751  0.0856  0.1446 -0.0479
 6221PP      PP16325  13.020   3.122   2.586  0.0112  0.1544 -0.1810
 6222PP      PP16326   4.131   7.692   4.414 -0.0344 -0.0648 -0.0073
 6223PP      PP16327   5.443   8.979  12.052 -0.0835  0.3253 -0.0236
 6224PP      PP16328   8.847   4.278  10.544 -0.1672  0.0252 -0.3360
 6225PP      PP16329  11.766  14.508  13.469  0.0176  0.1541  0.1215
 6226PP      PP16330   5.906  13.405  12.244  0.0803  0.2568  0.1722
 6227PP      PP16331   3.359  12.790   2.109  0.0111 -0.4343  0.1519
 6228PP      PP16332   8.767   4.148  12.861  0.2113 -0.0316 -0.5022
 6229PP      PP16333  11.598  12.224   3.285  0.3675  0.2161  0.1518
 6230PP      PP16334   1.620   0.760   9.714  0.0876 -0.0051  0.1149
 6231PP      PP16335   0.342   9.572   1.260 -0.3885 -0.1297 -0.0295
 6232PP      PP16336   5.189  11.832   3.285  0.2930 -0.1410  0.6314
 6233PP      PP16337   1.934   7.825  11.119 -0.0394 -0.2252 -0.1337
 6234PP      PP16338   4.335   2.323  11.910  0.2615 -0.1206  0.0414
 6235PP      PP16339   4.488   1.595   9.935 -0.0503 -0.2407  0.2897
 6236PP      PP16340  11.629   3.135  12.963  0.1387  0.1938 -0.0778
 6237PP      PP16341  12.829   8.402  12.784 -0.1672 -0.2282  0.1451
 6238PP      PP16342   8.479   0.342  10.714  0.0650  0.1584 -0.0103
 6239PP      PP16343  14.082   2.473   1.452 -0.1414 -0.0853  0.1554
 6240PP      PP16344  11.630   9.865  11.885 -0.0713 -0.2277  0.0220
 6241PP      PP16345  10.403  11.576  13.531 -0.0672 -0.0599 -0.2613
 6242PP      PP16346   5.632  12.350   9.966  0.2594  0.0248  0.1631
 6243PP      PP16347   6.376   4.505   3.539 -0.3541  0.2416 -0.1187
 6244PP      PP16348   2.748   4.834   8.977 -0.1275 -0.2584  0.1123
 6245PP      PP16349  14.423   4.470  13.100 -0.0637 -0.1655 -0.3736
 6246PP      PP16350   1.025   3.042   2.013  0.1298  0.0806  0.1718
 6247PP      PP16351   7.801   2.141   0.328  0.1367  0.0208  0.1096
 6248PP      PP16352   8.653   2.834   2.261  0.0235  0.3045 -0.4915
 6249PP      PP16353  14.309   7.225  11.686 -0.2380 -0.2020 -0.1041
 6250PP      PP16354  12.315   8.268  10.486  0.1399 -0.3096 -0.1346
 6251PP      PP16355   3.727  11.318   2.091  0.2344  0.0705  0.2482
 6252PP      PP16356   9.472  12.180  12.791  0.1650 -0.1022 -0.1477
 6253PP      PP16357   1.842   5.477   0.542  0.0515 -0.1088 -0.1909
 6254PP      PP16358   3.446   4.613   1.976  0.0950 -0.3068 -0.3480
 6255PP      PP16359   4.009   0.350   3.372  0.1619  0.2777  0.0307
 6256PP      PP16360   4.343   6.887   2.841  0.1870 -0.3465 -0.0270
 6257PP      PP16361   5.595   6.023  10.282  0.4098 -0.0634  0.2223
 6258PP      PP16362  10.328   9.414   8.639 -0.3318  0.2055  0.0505
 6259PP      PP16363  13.420  13.681   5.110  0.0679 -0.1708  0.2169
 6260PP      PP16364   7.187  13.406  13.524 -0.3212  0.2039  0.1367
 6261PP      PP16365   7.203   9.681   1.283  0.2599  0.0073 -0.1274
 6262PP      PP16366   0.492   4.347   1.516  0.1398 -0.3183  0.0778
 6263PP      PP16367   2.968  11.713  12.275  0.1201  0.2727 -0.0776
 6264PP      PP16368  15.148   5.774  11.363 -0.2105  0.0703 -0.6419
 6265PP      PP16369   2.032   2.499   9.947  0.0587  0.0442  0.0577
 6266PP      PP16370  11.814   6.114  13.667  0.1100 -0.0211 -0.1305
 6267PP      PP16371  15.478   3.838  12.034 -0.2506 -0.1612 -0.2444
 6268PP      PP16372   7.114   4.130  13.713  0.2439 -0.2775  0.0880
 6269PP      PP16373   4.984  12.570   3.778  0.1381 -0.1299  0.2082
 6270PP      PP16374   9.225  11.820   4.064  0.0268 -0.0316  0.0758
 6271PP      PP16375  11.084   0.508   0.225 -0.1231  0.0386 -0.0258
 6272PP      PP16376   4.464   9.897   2.432  0.1603  0.0892  0.3591
 6273PP      PP16377   9.481   7.201   3.770 -0.0228 -0.2142  0.3390
 6274PP      PP16378   9.427  12.629  11.411  0.0146  0.0320  0.0304
 6275PP      PP16379   5.542  10.691   3.585  0.1412  0.1378 -0.3256
 6276PP      PP16380   9.586   5.451   0.703 -0.0041  0.1214 -0.2017
 6277PP      PP16381  15.358   3.225   3.052  0.3986  0.0025  0.2040
 6278PP      PP16382   5.450  11.419  11.429  0.0390 -0.0956 -0.1386
 6279PP      PP16383   1.206  13.536  10.079  0.0951 -0.0157 -0.0388
 6280PP      PP16384   0.962   7.287   1.580 -0.3597  0.1405  0.2395
 6281PP      PP16385   1.200   1.519  12.907  0.2214 -0.0479  0.0715
 6282PP      PP16386   2.851   0.319   3.932  0.0087  0.0088 -0.1434
 6283PP      PP16387   2.172   1.830  12.504  0.1203  0.1466  0.0430
 6284PP      PP16388  13.206   2.698  10.708 -0.1213 -0.1371 -0.1898
 6285PP      PP16389   1.896  11.164   2.149  0.4366  0.2763 -0.4153
 6286PP      PP16390   5.496   7.317   3.545  0.0149  0.2981  0.2988
 6287PP      PP16391  12.034  10.905  13.767  0.1217  0.1506 -0.0447
 6288PP      PP16392   0.695   6.391  13.338  0.1469  0.1014  0.0123
 6289PP      PP16393   4.506   2.660  13.543 -0.0837 -0.0855  0.0747
 6290PP      PP16394   8.842   3.951   2.862  0.0460 -0.2599 -0.0627
 6291PP      PP16395  11.767  15.270  13.639  0.2332 -0.1110 -0.2388
 6292PP      PP16396   1.520  15.236   2.902 -0.0808 -0.0222 -0.0197
 6293PP      PP16397   6.584   0.538  13.721 -0.0123  0.1477 -0.0795
 6294PP      PP16398   7.372  10.980  12.472  0.0850 -0.2167  0.3487
 6295PP      PP16399   8.348   1.763   3.584 -0.1804 -0.0015  0.1115
 6296PP      PP16400   3.238  11.098   1.363  0.0472 -0.0492 -0.0392
 6297PP      PP16401   1.464   4.161   2.569 -0.0991  0.0819 -0.0815
 6298PP      PP16402   8.008   0.851  11.588  0.0792 -0.2830  0.0485
 6299PP      PP16403   3.678   2.311   3.181  0.2554  0.3814  0.0033
 6300PP      PP16404   6.498   5.443   3.882 -0.1748  0.1181 -0.1701
 6301PP      PP16405   8.086   5.157  13.612 -0.1393  0.1791 -0.0622
 6302PP      PP16406   7.184   4.325   8.235 -0.1476  0.3363  0.2786
 6303PP      PP16407   1.460  14.646  13.738 -0.1853  0.3286  0.0564
 6304PP      PP16408   2.344   2.111  12.859 -0.0154  0.0278 -0.0963
 6305PP      PP16409  13.231   9.231   3.765 -0.0543 -0.1987  0.0434
 6306PP      PP16410  10.338  10.678   2.734  0.0577  0.1795 -0.1136
 6307PP      PP16411  10.374   7.130  10.107 -0.0313  0.1242 -0.2611
 6308PP      PP16412   2.547  12.622  13.168  0.1076 -0.1536 -0.0270
 6309PP      PP16413   3.192   8.628   2.105  0.5030 -0.2513  0.0869
 6310PP      PP16414  12.588  13.628  11.150  0.0537 -0.1667 -0.3593
 6311PP      PP16415   2.603   4.502  13.476  0.0436 -0.3523 -0.1094
 6312PP      PP16416   7.301   8.553  13.648 -0.3553  0.1021  0.3160
 6313PP      PP16417  12.057   3.087  10.453 -0.2546  0.1048  0.1272
 6314PP      PP16418  14.160   8.830   3.506 -0.1506  0.0936 -0.0119
 6315PP      PP16419   4.862   7.160  10.330 -0.3007 -0.0588 -0.0137
 6316PP      PP16420   1.598   1.017   4.844 -0.1375  0.0213 -0.2299
 6317PP      PP16421  13.454  13.615   3.810 -0.2516 -0.2264  0.1833
 6318PP      PP16422  10.490   6.758   4.595 -0.1500  0.0265  0.0309
 6319PP      PP16423   8.037   4.656  13.588 -0.0746 -0.2833 -0.3256
 6320PP      PP16424   6.745   6.115   2.327 -0.0435 -0.2364  0.0250
 6321PP      PP16425   3.038   8.209  11.008 -0.0381  0.1365 -0.0430
 6322PP      PP16426  10.810   7.094  13.173  0.2456  0.1622 -0.1408
 6323PP      PP16427   6.591  11.463  11.899 -0.0279  0.1776 -0.2588
 6324PP      PP16428   5.162  11.475   1.653  0.3251 -0.1090  0.0805
 6325PP      PP16429  10.201   6.304  12.888  0.1869 -0.2882  0.4224
 6326PP      PP16430   6.788  14.362   9.833 -0.1404  0.0853  0.0773
 6327PP      PP16431  12.439   8.292  12.014 -0.0872 -0.1560  0.0108
 6328PP      PP16432   5.861   2.768  12.119 -0.1911 -0.1044 -0.0852
 6329PP      PP16433  12.147   3.185   8.217  0.2577  0.0040  0.0412
 6330PP      PP16434  15.671   5.857   2.448  0.0506 -0.0372 -0.0477
 6331PP      PP16435  15.703  12.399  13.200  0.0086  0.0512  0.2293
 6332PP      PP16436   9.677   6.545  11.489  0.0690 -0.2196  0.1460
 6333PP      PP16437  11.680  13.679   4.334  0.1623  0.0524 -0.1518
 6334PP      PP16438   9.127   5.699   8.842  0.0956 -0.1058  0.0158
 6335PP      PP16439  11.489  10.034  13.689  0.3291  0.2217  0.0473
 6336PP      PP16440  11.909  13.872  11.404  0.0956 -0.0116 -0.0010
 6337PP      PP16441   3.236  14.516   2.331  0.1194 -0.0859 -0.3175
 6338PP      PP16442  15.460  14.002  12.173  0.1104 -0.0519  0.1434
 6339PP      PP16443   3.876   8.671  13.521  0.2216 -0.2039  0.3711
 6340PP      PP16444   0.505   4.154  11.101 -0.1941 -0.2963  0.3161
 6341PP      PP16445   4.559  15.280   1.142 -0.0069 -0.1844 -0.4139
 6342PP      PP16446  14.253  10.780   3.767  0.3470 -0.0786  0.2697
 6343PP      PP16447   7.088  14.332  11.679  0.2931 -0.1534  0.1349
 6344PP      PP16448   7.520  10.481   3.413 -0.1594  0.1720 -0.1560
 6345PP      PP16449   7.597   1.901  13.641  0.1838 -0.1642  0.2619
 6346PP      PP16450   7.839   4.033   1.797  0.2557  0.0803  0.0075
 6347PP      PP16451  10.209   7.411  11.076  0.3521 -0.2895  0.1597
 6348PP      PP16452   6.901   8.831   1.066  0.0748  0.2047  0.3755
 6349PP      PP16453   9.642   9.433   9.230 -0.1707 -0.0855  0.0031
 6350PP      PP16454  13.132   4.719   1.533  0.2567  0.0162  0.1530
 6351PP      PP16455  14.765  14.958   1.391  0.1190 -0.2068 -0.3542
 6352PP      PP16456  10.938   1.347   1.831  0.0981 -0.1718  0.1352
 6353PP      PP16457   0.629   2.815   1.830  0.0537  0.2268 -0.1823
 6354PP      PP16458  10.471  12.728  11.067 -0.1287  0.2287  0.0536
 6355PP      PP16459  13.388   7.140  10.318  0.0380  0.3110 -0.2644
 6356PP      PP16460   9.692  14.924   2.459  0.1151  0.2306  0.1046
 6357PP      PP16461  12.096  12.806  10.057 -0.0019 -0.0365  0.1646
 6358PP      PP16462   9.449  11.704   1.663 -0.1910 -0.1871 -0.0979
 6359PP      PP16463   3.734   7.754  10.498  0.3507 -0.1162 -0.0374
 6360PP      PP16464  13.150  14.506  11.135  0.2688 -0.0076 -0.0240
 6361PP      PP16465  13.694   6.737   9.368 -0.0403  0.2343 -0.0366
 6362PP      PP16466   8.877   6.083   2.800  0.1863  0.0816 -0.0381
 6363PP      PP16467  10.202   1.268   0.906  0.0637  0.2243  0.3112
 6364PP      PP16468   4.144  13.433  11.597  0.1948 -0.0200  0.4190
 6365PP      PP16469   9.631   8.934   9.078  0.2644  0.0374 -0.1695
 6366PP      PP16470   0.818  12.459  11.598  0.1954 -0.0725  0.1554
 6367PP      PP16471  14.483  13.295   3.114 -0.1570 -0.1857 -0.3593
 6368PP      PP16472   3.388   7.880   9.056 -0.0670  0.2746  0.0022
 6369PP      PP16473  10.254  14.033   9.866 -0.1924  0.1612  0.1969
 6370PP      PP16474   9.061  13.413  10.293  0.0143 -0.0591  0.4213
 6371PP      PP16475   0.878   2.783   2.422 -0.0232  0.0148 -0.0883
 6372PP      PP16476   6.251   1.095   0.056  0.0023 -0.1303  0.1169
 6373PP      PP16477  15.066  15.657  12.179 -0.1844 -0.0747 -0.1800
 6374PP      PP16478  11.789   2.681  12.982 -0.0894  0.3191 -0.2212
 6375PP      PP16479  11.115   4.945   3.080 -0.0151  0.1963 -0.0405
 6376PP      PP16480  13.456   7.304   1.365  0.0744 -0.1030  0.2495
 6377PP      PP16481   2.770  15.534   2.831  0.3761  0.0273 -0.0785
 6378PP      PP16482   6.501   9.949   0.925 -0.1071 -0.2489 -0.1013
 6379PP      PP16483   3.548  11.962  13.103 -0.1258 -0.0896  0.0769
 6380PP      PP16484   6.442   1.460   3.510  0.2095  0.0489  0.0023
 6381PP      PP16485  12.721   5.022  10.664  0.1575  0.1352  0.3618
 6382PP      PP16486   6.656  10.211  10.350 -0.0354  0.1092  0.1502
 6383PP      PP16487  13.591   8.012  10.289 -0.1095  0.0115  0.2068
 6384PP      PP16488   3.080  15.478   0.416  0.0635  0.3363 -0.0437
 6385PP      PP16489   1.400   7.332   9.514  0.1217 -0.0831  0.1147
 6386PP      PP16490  15.672  10.651  12.196  0.1770  0.1100  0.0954
 6387PP      PP16491   0.829   5.840   3.710  0.2333 -0.1805  0.3542
 6388PP      PP16492   6.312   8.839   1.816  0.0185  0.2205 -0.3791
 6389PP      PP16493  10.991   6.982   9.327 -0.1613 -0.4664  0.0912
 6390PP      PP16494   0.210   1.383   9.934  0.0464 -0.2678 -0.1866
 6391PP      PP16495   6.872  11.276  10.646 -0.0682  0.0168  0.1087
 6392PP      PP16496   0.375  13.538  13.646  0.0508 -0.2997 -0.0831
 6393PP      PP16497  11.372   4.251   2.268  0.0827 -0.0632  0.1876
 6394PP      PP16498   2.679   3.739   8.952 -0.1353 -0.0360  0.2337
 6395PP      PP16499   2.106   5.992   4.031  0.0173  0.2484 -0.2559
 6396PP      PP16500   4.859   8.639  12.743  0.1612 -0.1290  0.0281
 6397PP      PP16501   7.167  11.394  11.049 -0.0606 -0.0137 -0.0358
 6398PP      PP16502   6.064  14.670  13.760 -0.2075 -0.3223  0.0891
 6399PP      PP16503  11.417  11.204  11.837  0.1994  0.3521  0.0264
 6400PP      PP16504  14.503   5.927   1.119 -0.0027  0.0679  0.0113
 6401PP      PP16505   2.736  13.047  12.358  0.1635  0.0871 -0.4349
 6402PP      PP16506   2.771   1.506   2.743 -0.0592  0.2502  0.2362
 6403PP      PP16507   9.128   9.466   0.619  0.0911  0.0595 -0.0857
 6404PP      PP16508   4.266   9.285  10.670 -0.0140 -0.2989  0.3718
 6405PP      PP16509  10.009   6.735   9.154 -0.0372  0.0297  0.1745
 6406PP      PP16510   5.170  15.104   0.195  0.3068 -0.0356 -0.1092
 6407PP      PP16511   1.144   6.196  13.425  0.0001 -0.0377 -0.0102
 6408PP      PP16512   2.544  11.161   0.900  0.1315 -0.0338 -0.1257
 6409PP      PP16513   3.970   4.982   0.936  0.0143 -0.3002  0.0650
 6410PP      PP16514   9.982   5.393   9.636  0.1693  0.0271 -0.2737
 6411PP      PP16515   3.415   2.564   1.928 -0.0013  0.0100 -0.1458
 6412PP      PP16516   4.899  12.416   5.136 -0.2421  0.0452 -0.2217
 6413PP      PP16517   2.191   9.487  11.817 -0.1366 -0.1986  0.2027
 6414PP      PP16518   0.549  10.022   2.689 -0.0489  0.1707  0.2041
 6415PP      PP16519   5.203   1.785   0.945 -0.1075  0.2100 -0.2586
 6416PP      PP16520  12.303   5.696   9.054  0.1388  0.0596 -0.0482
 6417PP      PP16521   6.979   4.214  11.163  0.2938 -0.1951 -0.0160
 6418PP      PP16522   4.021   2.443   2.792  0.0711 -0.0057  0.0419
 6419PP      PP16523  10.913  14.601   3.666 -0.2509  0.4007 -0.1014
 6420PP      PP16524   5.110  10.525  11.730 -0.1103 -0.3351 -0.0401
 6421PP      PP16525   5.437   4.617   2.763  0.0740 -0.1772 -0.2674
 6422PP      PP16526   0.429  10.033   1.519 -0.3100 -0.2737 -0.2032
 6423PP      PP16527   9.443  11.260  13.715 -0.1299 -0.0781  0.3771
 6424PP      PP16528   6.475  10.273   4.072  0.0367  0.0331 -0.1115
 6425PP      PP16529   3.795  15.672   1.599 -0.0331 -0.1981  0.0576
 6426PP      PP16530   5.485  14.308   4.509  0.2958 -0.3355  0.2655
 6427PP      PP16531   1.372   7.722  10.378 -0.1456  0.0264  0.0271
 6428PP      PP16532  12.901   7.304   1.020  0.0845  0.1813  0.0091
 6429PP      PP16533  10.257   4.459  10.990  0.1034 -0.0389 -0.2462
 6430PP      PP16534   2.451  13.590   1.028 -0.2211 -0.3073  0.0535
 6431PP      PP16535   4.911   0.468   3.686  0.0821  0.2496  0.2865
 6432PP      PP16536   0.095  12.857   2.099  0.0475  0.1261 -0.0323
 6433PP      PP16537  10.457   3.885   1.733  0.0488 -0.1310  0.1206
 6434PP      PP16538  13.836   8.845   9.205  0.2929 -0.3874  0.2443
 6435PP      PP16539   2.266  12.935  10.027  0.0387 -0.0413  0.1576
 6436PP      PP16540  15.341  12.675  11.339  0.3771  0.0843 -0.2293
 6437PP      PP16541  11.696  12.982   2.524 -0.3014  0.0779 -0.0775
 6438PP      PP16542   2.240  11.981   1.712 -0.1077  0.1780 -0.2166
 6439PP      PP16543   5.362  12.815   1.438 -0.1693 -0.1912  0.0384
 6440PP      PP16544   0.940   4.340   1.870  0.1073  0.0555 -0.0219
 6441PP      PP16545   0.913   1.588   1.794 -0.0780  0.1307  0.0700
 6442PP      PP16546   1.337   5.246   3.219  0.3633 -0.1543 -0.1197
 6443PP      PP16547  13.450   6.679  12.676 -0.4392 -0.3915  0.1612
 6444PP      PP16548  12.069  12.141   2.141  0.0942 -0.1385 -0.0765
 6445PP      PP16549   1.434  12.206   3.344  0.1328  0.0285  0.2809
 6446PP      PP16550   2.402   3.212   3.974 -0.0383 -0.0638  0.0532
 6447PP      PP16551  12.087   5.760   2.331  0.2282  0.1441 -0.2252
 6448PP      PP16552   9.174   3.933   3.461  0.0330  0.1009 -0.1409
 6449PP      PP16553   8.204   3.533  13.341  0.2271 -0.0888  0.2607
 6450PP      PP16554   9.838   3.424   3.137 -0.0895 -0.2078 -0.2780
 6451PP      PP16555   7.114   9.287   3.404 -0.0961  0.0866  0.2727
 6452PP      PP16556   2.675   1.249  11.798  0.0953 -0.1375  0.0603
 6453PP      PP16557  13.341   5.413   2.939  0.0582  0.1438  0.0646
 6454PP      PP16558   4.477   5.276   8.856  0.1909 -0.0746  0.0367
 6455PP      PP16559  12.227  12.356   3.029 -0.1879 -0.2107  0.5653
 6456PP      PP16560   8.650   2.683   9.405  0.1732  0.1593  0.3935
 6457PP      PP16561   2.934   3.217  13.705  0.0678 -0.0508  0.0238
 6458PP      PP16562   4.441   2.551   1.586  0.1936 -0.2034  0.0504
 6459PP      PP16563   3.598   8.341   0.819  0.2088  0.0675 -0.1017
 6460PP      PP16564   8.593   7.096  13.590  0.0261 -0.1078  0.1165
 6461PP      PP16565   2.109  13.503  10.676  0.2018  0.0530 -0.0035
 6462PP      PP16566   3.627   7.182   9.736 -0.1428 -0.1760 -0.1586
 6463PP      PP16567   7.870  12.722   4.616  0.2394  0.3320 -0.1455
 6464PP      PP16568  13.588  15.576   0.101  0.2639 -0.0215 -0.1906
 6465PP      PP16569  11.554   7.219  12.093 -0.4887 -0.2277  0.1180
 6466PP      PP16570   4.112   1.243  11.490 -0.3562 -0.0451  0.0127
 6467PP      PP16571  12.065  12.997  12.976 -0.2118 -0.2711 -0.0874
 6468PP      PP16572   3.166   8.305   1.720 -0.2791  0.0972 -0.2156
 6469PP      PP16573  13.767   9.758   2.211 -0.2137 -0.3422 -0.2895
 6470PP      PP16574   9.738   4.483  11.810  0.1641 -0.0492  0.2815
 6471PP      PP16575  13.735  12.130   9.579  0.2764  0.1162 -0.1142
 6472PP      PP16576   3.717   3.836   8.943  0.2568  0.0015 -0.0867
 6473PP      PP16577  15.530   3.239   0.805  0.1481 -0.0783 -0.1434
 6474PP      PP16578   6.035   7.500  13.319  0.0634  0.0245 -0.0005
 6475PP      PP16579   8.939  10.863   3.432 -0.2802 -0.1019  0.1319
 6476PP      PP16580  11.418   9.650   1.993 -0.0394  0.0386 -0.3134
 6477PP      PP16581  14.431  10.090  10.438  0.1163  0.2129  0.1694
 6478PP      PP16582  10.405   0.275  11.998 -0.0166  0.2804  0.1090
 6479PP      PP16583   3.466   4.605   8.302 -0.1425  0.1458  0.0971
 6480PP      PP16584  14.333  15.395   9.669 -0.1386 -0.2096 -0.0343
 6481PP      PP16585  14.348  11.455  11.915  0.3605  0.1122  0.2403
 6482PP      PP16586  10.251  10.953   1.905 -0.2984  0.2860  0.0446
 6483PP      PP16587   4.425   0.407  10.286  0.2943  0.0324  0.1344
 6484PP      PP16588   2.368   4.043  13.181 -0.2523 -0.1425 -0.1104
 6485PP      PP16589   4.576   7.684  11.207 -0.0388  0.1779 -0.3872
 6486PP      PP16590   1.774   8.215   2.764 -0.4077 -0.0327  0.0803
 6487PP      PP16591   1.167   5.682   1.283 -0.0533  0.2708  0.0726
 6488PP      PP16592   6.286   4.450  13.185  0.4645  0.3371  0.1341
 6489PP      PP16593  12.520  13.324   4.705 -0.0107 -0.1521  0.0779
 6490PP      PP16594   2.918   2.917   1.816 -0.0868  0.2372  0.2269
 6491PP      PP16595   3.341   0.698  12.877 -0.1157  0.3663 -0.3338
 6492PP      PP16596  14.328   9.722  13.673  0.1706  0.1475  0.1790
 6493PP      PP16597   4.111   8.529   2.151 -0.0614  0.0466  0.0040
 6494PP      PP16598   6.497   9.286  10.169 -0.0200 -0.1412 -0.1304
 6495PP      PP16599  11.540   8.000  12.638 -0.0460  0.1526 -0.1319
 6496PP      PP16600   8.700   1.000   2.996  0.0651  0.2390  0.0527
 6497PP      PP16601  11.604  12.039  13.004  0.0348 -0.1120  0.2250
 6498PP      PP16602   0.640   4.323  10.212  0.4360  0.1409  0.1076
 6499PP      PP16603   9.750   2.297   8.732  0.0338  0.1298 -0.0039
 6500PP      PP16604   1.056  14.073  13.420  0.0742  0.0426 -0.2275
 6501PP      PP16605   9.250   7.043   8.821  0.1680  0.2584 -0.0208
 6502PP      PP16606  15.411   1.372   3.620  0.1372 -0.2019  0.2199
 6503PP      PP16607   1.259   9.477   4.394 -0.0757  0.1573 -0.2267
 6504PP      PP16608  13.775   1.805   0.004 -0.0419 -0.1304  0.2926
 6505PP      PP16609   1.611   7.159   9.078  0.1705  0.1639 -0.1888
 6506PP      PP16610   5.449   0.914   1.389 -0.0433  0.3750 -0.0756
 6507PP      PP16611   5.935  12.178  11.274  0.1154  0.0853 -0.0408
 6508PP      PP16612   8.806   9.198  11.771 -0.4170 -0.1309  0.0253
 6509PP      PP16613   0.066   7.440  12.574  0.0780  0.0691 -0.3584
 6510PP      PP16614   4.696  13.880   4.893 -0.0182  0.3031  0.0202
 6511PP      PP16615   2.988  11.836   3.341  0.2109  0.0729 -0.2054
 6512PP      PP16616  14.433   7.736  12.463  0.1135 -0.1783  0.0840
 6513PP      PP16617   5.850   6.534  12.751 -0.2566  0.0401 -0.2443
 6514PP      PP16618  12.761   8.833   2.938 -0.3426  0.6242  0.2416
 6515PP      PP16619  10.863   5.805  10.984  0.2276 -0.2359 -0.2981
 6516PP      PP16620  15.154   9.216  13.139  0.1726  0.0067 -0.2748
 6517PP      PP16621  10.121  10.414  11.052 -0.2831 -0.1428 -0.0061
 6518PP      PP16622   2.841  12.144   4.606 -0.1755 -0.0929  0.0760
 6519PP      PP16623  10.377   3.163  12.794  0.0719 -0.2241 -0.2561
 6520PP      PP16624   0.013   3.188  10.522  0.3837 -0.0449  0.2051
 6521PP      PP16625  10.993   2.352  12.181  0.0529 -0.2535 -0.2907
 6522PP      PP16626   1.020   3.625   1.440  0.2396  0.2758  0.2203
 6523PP      PP16627   0.744   3.737   2.947 -0.0661  0.2684 -0.0727
 6524PP      PP16628   5.900  11.567  11.380  0.1274 -0.1601  0.0151
 6525PP      PP16629   8.958   7.301   1.537  0.2942  0.0909 -0.0432
 6526PP      PP16630   3.787  14.500   1.799 -0.0892 -0.1254 -0.2357
 6527PP      PP16631  10.027   4.443   0.635 -0.1497  0.0535 -0.0757
 6528PP      PP16632  10.338   6.045   3.964  0.1167  0.0470 -0.2192
 6529PP      PP16633   3.105   4.678  13.545  0.2083  0.0885 -0.3660
 6530PP      PP16634   6.922  14.560  13.103 -0.0332 -0.1998 -0.1845
 6531PP      PP16635   8.125  14.749  10.462 -0.0834  0.0555 -0.0007
 6532PP      PP16636  10.713  15.128  12.324 -0.0109  0.0284  0.0362
 6533PP      PP16637   0.947   2.818  10.265  0.1019 -0.1124  0.0447
 6534PP      PP16638  13.524  10.360   9.468  0.0758  0.0910 -0.0703
 6535PP      PP16639   5.790   2.916   8.886  0.0245  0.0022  0.0482
 6536PP      PP16640   8.061   4.438   3.476 -0.0675  0.1396 -0.1479
 6537PP      PP16641   9.268   1.248   1.623 -0.4327 -0.1011  0.1163
 6538PP      PP16642   4.629   9.499   0.332  0.1279  0.1257  0.0351
 6539PP      PP16643   7.636   2.093  12.987 -0.0002 -0.0815  0.0721
 6540PP      PP16644   3.610  14.331   3.440  0.3461 -0.1911  0.0989
 6541PP      PP16645   4.908  15.501   2.297  0.0758  0.2957  0.0621
 6542PP      PP16646   9.179   5.333   2.109  0.1377  0.1792  0.1778
 6543PP      PP16647  13.535   0.052  12.698  0.0763  0.0367 -0.3248
 6544PP      PP16648  14.448   8.061  13.686 -0.0520  0.2202 -0.0642
 6545PP      PP16649   9.888   8.969   2.675 -0.1767  0.0159  0.0082
 6546PP      PP16650   8.528  12.944  12.681  0.0543 -0.1322 -0.1525
 6547PP      PP16651   0.889   8.323  10.784 -0.0651  0.1762  0.2400
 6548PP      PP16652  11.764   7.594  12.958  0.2319  0.2260 -0.1318
 6549PP      PP16653  13.392   3.683  11.684  0.0591 -0.1960  0.0950
 6550PP      PP16654  11.326  12.293   2.700 -0.1096 -0.0165  0.2367
 6551PP      PP16655   7.263  13.065   5.285 -0.1945  0.0641  0.0131
 6552PP      PP16656   4.268   9.934   3.896  0.0644 -0.3795  0.2393
 6553PP      PP16657   0.042   8.055   0.301  0.0197 -0.0240 -0.0034
 6554PP      PP16658   8.524   6.058  11.292  0.2481 -0.1184  0.0481
 6555PP      PP16659   2.548   5.274   8.635  0.2991 -0.0397 -0.0924
 6556PP      PP16660   7.821   5.570   9.174  0.1678 -0.3206 -0.1108
 6557PP      PP16661   8.968  12.410   0.559  0.0348 -0.0721 -0.0475
 6558PP      PP16662  10.010   3.274   8.643  0.0300 -0.0858 -0.0623
 6559PP      PP16663  13.936  10.897  11.460  0.0716 -0.1915 -0.0668
 6560PP      PP16664   8.723  12.415   4.429  0.1461 -0.1089 -0.1974
 6561PP      PP16665  12.990   1.348  10.982 -0.2141  0.2926 -0.0448
 6562PP      PP16666   8.863  11.579   3.051 -0.3233 -0.0875 -0.0057
 6563PP      PP16667   3.667  13.368  10.263 -0.0437  0.3168 -0.3672
 6564PP      PP16668   7.223   6.105   2.972  0.1248  0.2885  0.1175
 6565PP      PP16669  11.833  14.605   2.207  0.2507  0.1235  0.1900
 6566PP      PP16670   0.341   8.771   0.834 -0.2474  0.2990 -0.3086
 6567PP      PP16671   3.097   0.495   9.096 -0.0144  0.0154 -0.0055
 6568PP      PP16672   5.886   5.330   2.119 -0.2719  0.2300  0.0390
 6569PP      PP16673   6.751   5.984  11.307 -0.3689 -0.3366  0.0955
 6570PP      PP16674  11.307   6.803   8.584 -0.0702  0.2783  0.1418
 6571PP      PP16675   0.841   2.515  11.813 -0.0602  0.0371  0.2627
 6572PP      PP16676  15.192   0.341   9.679  0.1928  0.1462  0.1357
 6573PP      PP16677  10.397   3.136   8.437 -0.2350  0.1001  0.1126
 6574PP      PP16678   8.229   4.393   1.393  0.0186  0.1098 -0.3111
 6575PP      PP16679   3.113   4.675  12.056  0.0444 -0.1975 -0.2406
 6576PP      PP16680  13.229   8.111  12.920 -0.2887 -0.1999 -0.4440
 6577PP      PP16681   5.676  12.399  10.887  0.2726 -0.2573  0.2774
 6578PP      PP16682  15.252   0.671  10.070  0.0609 -0.0789 -0.0020
 6579PP      PP16683   7.295   4.471   9.818  0.0105  0.1074 -0.0708
 6580PP      PP16684   0.197   8.880  10.256  0.1741 -0.1881 -0.2682
 6581PP      PP16685   3.838  13.740   3.707 -0.0566 -0.0937  0.2435
 6582PP      PP16686  15.218   1.727  10.411 -0.1349  0.1467 -0.1484
 6583PP      PP16687   8.037   2.302  10.788  0.1380  0.1163  0.3259
 6584PP      PP16688   5.185   3.008   2.034 -0.1264 -0.1895  0.2995
 6585PP      PP16689   0.620   2.482   0.734  0.2788 -0.0592 -0.0899
 6586PP      PP16690   4.433  12.149  11.986  0.1185  0.4105  0.2267
 6587PP      PP16691   0.090   2.297  10.189 -0.4609  0.0615 -0.4273
 6588PP      PP16692  15.414  11.383   2.548 -0.1529  0.0817 -0.0984
 6589PP      PP16693  13.773   5.945  12.114  0.1860  0.1471  0.0698
 6590PP      PP16694   2.355   4.161  13.730 -0.2088 -0.1920  0.2115
 6591PP      PP16695   0.393   3.605  13.023 -0.4262 -0.0558  0.0361
 6592PP      PP16696   4.359   5.465   1.200 -0.3285 -0.0614 -0.2960
 6593PP      PP16697   9.350   1.281  11.936  0.0518  0.0742 -0.3084
 6594PP      PP16698   8.937   8.654  12.812  0.1367 -0.1427 -0.1191
 6595PP      PP16699   8.411  11.544   1.951 -0.1924  0.0552  0.2137
 6596PP      PP16700   0.896   9.636  12.067 -0.2950  0.1762  0.1221
 6597PP      PP16701  11.740   5.376  11.242 -0.0740 -0.0932 -0.0644
 6598PP      PP16702  10.329  11.279  12.285 -0.2479  0.0751 -0.3551
 6599PP      PP16703  13.303  13.776   9.754 -0.1752 -0.1280 -0.0038
 6600PP      PP16704   8.814   9.063   8.849 -0.1208 -0.2995  0.0891
 6601PP      PP16705  12.746   9.743   0.468  0.2169 -0.0079 -0.1185
 6602PP      PP16706   7.854  15.281   1.030 -0.0071  0.0945 -0.0995
 6603PP      PP16707   0.729  14.382  11.922 -0.2777 -0.0416 -0.5183
 6604PP      PP16708  12.212  12.253  12.396 -0.1725 -0.1845 -0.0633
 6605PP      PP16709   5.497   9.085   0.398  0.2148  0.0399  0.2942
 6606PP      PP16710   2.790   7.299  10.430  0.2912 -0.0080  0.3795
 6607PP      PP16711   9.499   7.302   0.740  0.2059  0.0514  0.3415
 6608PP      PP16712  13.595   4.497  12.182  0.2728 -0.3262 -0.0008
 6609PP      PP16713   1.808   8.626   4.486 -0.0928  0.2011 -0.1539
 6610PP      PP16714   8.232   4.164  11.214  0.2445  0.1382  0.1396
 6611PP      PP16715  14.805  14.483   3.323 -0.1781 -0.1202 -0.2283
 6612PP      PP16716   7.645  13.923  12.771  0.1821  0.1134 -0.1012
 6613PP      PP16717   7.772   4.470   1.600 -0.0099 -0.1603 -0.1979
 6614PP      PP16718   3.512   1.716   1.468  0.1384 -0.0677  0.2443
 6615PP      PP16719   4.813  11.653  10.850  0.0914 -0.3691 -0.1706
 6616PP      PP16720   3.368  11.793   0.301  0.1868 -0.0115 -0.0194
 6617PP      PP16721   0.055  12.312  11.835 -0.0010  0.2073 -0.1204
 6618PP      PP16722   9.929  14.230  11.236 -0.1266 -0.1779  0.1587
 6619PP      PP16723   2.119   4.842   1.044 -0.2903  0.2372 -0.4756
 6620PP      PP16724   9.120   5.953   2.299 -0.2374 -0.0175 -0.1819
 6621PP      PP16725  14.172   6.308  12.842  0.0017 -0.4180  0.1804
 6622PP      PP16726  14.042   3.659   3.249 -0.0175 -0.1114  0.1860
 6623PP      PP16727   2.173   7.261  10.618  0.0702 -0.2000  0.1520
 6624PP      PP16728  14.147   6.441   8.524 -0.0519  0.3856  0.2296
 6625PP      PP16729  12.297  14.568   0.190 -0.4823 -0.0571  0.2624
 6626PP      PP16730  10.549   3.670   3.618  0.0438  0.2412 -0.0447
 6627PP      PP16731  10.831  13.477   2.440 -0.0049 -0.2061  0.1386
 6628PP      PP16732   7.916   9.793  12.530 -0.4530  0.3641  0.1599
 6629PP      PP16733   6.036  14.807  10.880  0.0687 -0.0507 -0.0717
 6630PP      PP16734  12.351  10.186  11.925 -0.1596 -0.1011 -0.0304
 6631PP      PP16735   2.719   0.662   4.239 -0.0673 -0.0928  0.1871
 6632PP      PP16736   6.269   9.813   1.742  0.2506 -0.0550 -0.2083
 6633PP      PP16737  15.062   3.249   4.104  0.3976 -0.1735  0.0897
 6634PP      PP16738   9.993   1.373   0.385  0.0796  0.0069 -0.1116
 6635PP      PP16739  12.032   1.767  13.537 -0.2164  0.1111  0.3058
 6636PP      PP16740  13.873   7.874   2.842  0.2264  0.1493 -0.0578
 6637PP      PP16741  12.683   6.099   2.755  0.0262 -0.0578 -0.1140
 6638PP      PP16742   2.411  13.620   1.938 -0.2342  0.1923  0.0865
 6639PP      PP16743   3.000   5.290  10.286 -0.0753 -0.0210  0.1066
 6640PP      PP16744   4.707   3.372   0.339 -0.1698 -0.0109 -0.0025
 6641PP      PP16745   6.197  10.073  13.078 -0.0396  0.1741 -0.1319
 6642PP      PP16746  12.479  14.172   4.250 -0.1432  0.2302 -0.2114
 6643PP      PP16747   3.023  14.234   9.817  0.1998  0.1940  0.0634
 6644PP      PP16748   2.464   2.477  11.055 -0.1295  0.0769 -0.0870
 6645PP      PP16749   8.760   2.328   2.869 -0.1019 -0.0919 -0.0634
 6646PP      PP16750  15.024   2.264  13.160 -0.1130 -0.1800  0.0721
 6647PP      PP16751  10.348   2.029   1.420 -0.0129 -0.0605  0.0897
 6648PP      PP16752   1.315   3.767   2.863 -0.0600 -0.2219  0.1176
 6649PP      PP16753  12.725  11.994  11.852 -0.1100 -0.1075  0.0553
 6650PP      PP16754   4.201   9.828   1.237 -0.0451  0.2218 -0.0889
 6651PP      PP16755  13.599  13.808   4.643  0.3278  0.3303  0.0753
 6652PP      PP16756   2.718  10.005   3.953  0.2978 -0.1451  0.0190
 6653PP      PP16757  14.241  13.510   2.708  0.0401  0.0488  0.1205
 6654PP      PP16758   5.783   0.777  11.855  0.0482  0.1786  0.1413
 6655PP      PP16759  12.694   1.350   1.133  0.1232 -0.2506  0.0406
 6656PP      PP16760  10.144   3.149   2.703 -0.2118 -0.1327  0.0808
 6657PP      PP16761  12.799   2.203   9.621  0.1868 -0.0839 -0.0034
 6658PP      PP16762  11.181   2.817   2.469  0.0158  0.1443 -0.1589
 6659PP      PP16763   1.367  10.389   1.543 -0.1532 -0.0005  0.0940
 6660PP      PP16764  13.656   8.353   1.423 -0.3207 -0.2479  0.0574
 6661PP      PP16765  12.737   4.252   3.568 -0.2299  0.0635 -0.1078
 6662PP      PP16766   6.298  10.167   1.387 -0.1533  0.1890 -0.1097
 6663PP      PP16767   6.846   6.788   2.305 -0.0978 -0.0770 -0.0179
 6664PP      PP16768  15.034  13.180  10.451  0.0934  0.2026  0.3681
 6665PP      PP16769  12.365   1.935   9.039  0.0020  0.5738  0.0824
 6666PP      PP16770  14.543   7.902   3.879 -0.2434 -0.1116 -0.2710
 6667PP      PP16771  11.573   1.821  10.206  0.3678 -0.3483 -0.4158
 6668PP      PP16772  10.520  12.301  13.110 -0.1466  0.0630  0.0611
 6669PP      PP16773   9.730  12.049   4.261 -0.1708  0.1168 -0.0190
 6670PP      PP16774  11.523   9.184  12.048  0.1774  0.2495  0.1034
 6671PP      PP16775   3.595  13.482  13.174  0.1412  0.1954 -0.0721
 6672PP      PP16776   7.029  12.143   9.917 -0.1171 -0.1112  0.3176
 6673PP      PP16777   5.154   5.969   3.575 -0.3144  0.1075  0.1980
 6674PP      PP16778   8.016   8.814   2.721 -0.4102  0.2643  0.1426
 6675PP      PP16779   4.828   3.455   2.113 -0.1179 -0.0261  0.0747
 6676PP      PP16780   2.409  10.243   1.806 -0.1482 -0.1943 -0.3740
 6677PP      PP16781   3.366  10.519   4.265  0.2488 -0.0461  0.4022
 6678PP      PP16782   9.460   7.926   0.607  0.0674  0.0711  0.2467
 6679PP      PP16783   3.435   4.718  13.111  0.1067  0.0269  0.1244
 6680PP      PP16784  11.720   2.942   0.757  0.1613  0.3672  0.0608
 6681PP      PP16785   9.378   2.762   1.551 -0.2319  0.1776  0.0808
 6682PP      PP16786   9.900   0.857  13.057 -0.1872  0.1047 -0.0003
 6683PP      PP16787  14.547   2.807  12.821  0.0324 -0.1254  0.5467
 6684PP      PP16788  12.195   6.095   3.138  0.1915 -0.1792  0.1750
 6685PP      PP16789  15.511  14.648   9.974 -0.3300  0.0065  0.1027
 6686PP      PP16790   8.653  12.614   9.917 -0.0520 -0.1035  0.0462
 6687PP      PP16791   7.362  10.919  11.967  0.0937 -0.0115  0.1066
 6688PP      PP16792   7.708  12.181   1.256 -0.1136  0.1250  0.1144
 6689PP      PP16793  15.712   0.727  10.471 -0.1376 -0.1062  0.1654
 6690PP      PP16794   4.484   3.114   2.278 -0.0034  0.0651  0.0403
 6691PP      PP16795   6.641  14.195  12.912  0.0558 -0.0934 -0.0024
 6692PP      PP16796  12.896  11.290   3.832  0.0958 -0.0551  0.0940
 6693PP      PP16797   4.539  15.719   9.377 -0.4208 -0.2280  0.2287
 6694PP      PP16798  15.411   8.677   9.976 -0.0414 -0.0892  0.1641
 6695PP      PP16799   4.764   9.565   4.383  0.0035 -0.1145 -0.2436
 6696PP      PP16800   3.890   7.808  13.632 -0.1280 -0.2019  0.1909
 6697PP      PP16801   2.144   3.879   3.564  0.1642 -0.2697 -0.1623
 6698PP      PP16802   9.542  11.424  10.803 -0.0121  0.0839 -0.1750
 6699PP      PP16803   9.520  12.486   9.392  0.0365 -0.1236  0.2377
 6700PP      PP16804   2.654  14.141   9.434 -0.2092 -0.0946 -0.0800
 6701PP      PP16805  13.876   5.893   3.790 -0.1222 -0.0723  0.0138
 6702PP      PP16806  10.043   4.845   2.599 -0.0718  0.2758 -0.0823
 6703PP      PP16807   1.124  10.308   2.520  0.2955 -0.2830 -0.0425
 6704PP      PP16808   9.446  14.157   3.578  0.1502 -0.3109 -0.1764
 6705PP      PP16809  11.102   7.254  12.333 -0.0941  0.1732  0.2532
 6706PP      PP16810   1.850   6.213   2.325  0.3465  0.1098  0.2759
 6707PP      PP16811  13.938  14.669   9.759  0.0581  0.1589  0.2511
 6708PP      PP16812   4.855   7.993   1.296 -0.0053 -0.0420 -0.0162
 6709PP      PP16813  14.288   8.629  11.448  0.2023 -0.0246 -0.0268
 6710PP      PP16814  12.399   1.788   1.157  0.2228  0.1879  0.1733
 6711PP      PP16815   1.032   7.578  12.085  0.0580 -0.2466 -0.3617
 6712PP      PP16816   8.153   8.602   4.174  0.0691  0.0676  0.1847
 6713PP      PP16817  15.150   3.401   2.528  0.3429  0.1869 -0.0987
 6714PP      PP16818  13.270   3.364   3.512  0.0712 -0.0609  0.1825
 6715PP      PP16819   1.955   8.919  11.020  0.1513 -0.1228  0.0643
 6716PP      PP16820  10.719   9.005   3.048  0.0097  0.0114  0.0417
 6717PP      PP16821   4.105  12.260   2.363  0.2826  0.0119  0.1625
 6718PP      PP16822   2.487   1.187  13.218 -0.0794 -0.2099  0.1715
 6719PP      PP16823  11.626   4.179  12.549 -0.0824 -0.0497 -0.0030
 6720PP      PP16824   5.850   5.384   1.055  0.0364 -0.0462 -0.3260
 6721PP      PP16825   6.270   2.436   1.249  0.0901 -0.1039  0.2217
 6722PP      PP16826   8.181  12.964   3.414 -0.2785  0.0093  0.2671
 6723PP      PP16827   4.475   0.991   9.741 -0.2753  0.0935 -0.3372
 6724PP      PP16828   6.670   3.981   8.449  0.1599 -0.2241 -0.1956
 6725PP      PP16829   9.263   0.445   8.074 -0.1302  0.1722  0.1225
 6726PP      PP16830   1.593  13.955   2.611 -0.0701 -0.1438 -0.0240
 6727PP      PP16831   6.583   1.805   9.246  0.0013 -0.2167  0.0915
 6728PP      PP16832  10.220  12.860   1.371  0.4785  0.1108 -0.1847
 6729PP      PP16833   1.383  10.158   3.380 -0.0341 -0.1567  0.0930
 6730PP      PP16834   6.251   5.031   0.218  0.0316 -0.0637 -0.0761
 6731PP      PP16835   3.141   9.851   3.156  0.0450 -0.2692 -0.4763
 6732PP      PP16836   9.472   1.682   9.494  0.4558 -0.5236 -0.1742
 6733PP      PP16837   8.555   6.389  10.070  0.1897 -0.1302 -0.1758
 6734PP      PP16838  14.613   7.602  11.884  0.0739  0.0456  0.3476
 6735PP      PP16839   9.757  14.753   0.435  0.0438 -0.0740  0.2086
 6736PP      PP16840  12.332   4.130   2.554  0.1407 -0.0945  0.0659
 6737PP      PP16841   5.912   4.436   1.878 -0.2904 -0.2274 -0.0427
 6738PP      PP16842   6.721   0.471  10.903 -0.0794 -0.5279 -0.0814
 6739PP      PP16843   9.384   4.403   0.765 -0.1573 -0.1406  0.0958
 6740PP      PP16844   3.217  14.568   1.786 -0.2837 -0.2318 -0.3430
 6741PP      PP16845   0.951  10.440   0.323 -0.1088  0.0116 -0.3019
 6742PP      PP16846   3.097   6.786  10.480 -0.2034 -0.0087 -0.0321
 6743PP      PP16847   4.986   9.303   9.846  0.2492 -0.1076 -0.3624
 6744PP      PP16848  15.266   6.606   1.515 -0.3362 -0.2786 -0.1690
 6745PP      PP16849  13.079   9.024   1.934  0.3731  0.1659 -0.1305
 6746PP      PP16850  11.805   8.343  11.079 -0.2058  0.1995 -0.1309
 6747PP      PP16851   4.813   4.247   2.098  0.0014  0.1811 -0.0929
 6748PP      PP16852  14.319  12.948   0.797  0.1861  0.2591  0.1708
 6749PP      PP16853   9.965   8.526   3.699 -0.1350 -0.3077 -0.1108
 6750PP      PP16854   6.188   9.525   0.148 -0.1136  0.2261 -0.0143
 6751PP      PP16855   4.599  13.450   1.700 -0.2123  0.1994 -0.0234
 6752PP      PP16856  11.733   6.870   3.774 -0.0795 -0.0368  0.1184
 6753PP      PP16857   4.412   5.149  11.524 -0.1992 -0.1494 -0.0652
 6754PP      PP16858   1.045   9.038   1.935  0.0300 -0.0923  0.0680
 6755PP      PP16859  12.348  12.344  11.842 -0.1712  0.0662 -0.0300
 6756PP      PP16860  14.084  12.553  13.780 -0.2660  0.1534 -0.2995
 6757PP      PP16861   9.912  15.380   1.744 -0.0131 -0.4479 -0.1359
 6758PP      PP16862   0.592  12.184   1.253  0.1533  0.1803 -0.1709
 6759PP      PP16863   4.653  10.777   3.805 -0.1257 -0.0243  0.0614
 6760PP      PP16864  10.749   8.408   1.117  0.0257 -0.0344 -0.0299
 6761PP      PP16865   0.182   2.263   9.357  0.0609  0.3490 -0.1282
 6762PP      PP16866  13.008   5.137   9.498 -0.0998 -0.2968  0.2116
 6763PP      PP16867   4.559  12.275  12.483 -0.1068 -0.2473  0.1577
 6764PP      PP16868  15.277   6.194  13.321 -0.1048 -0.2370  0.3055
 6765PP      PP16869   9.599   5.136  11.815  0.0117  0.2278  0.0320
 6766PP      PP16870  14.988  11.965  10.075  0.0214 -0.1618 -0.0548
 6767PP      PP16871   7.360   3.222   2.024 -0.4200  0.1304 -0.0196
 6768PP      PP16872   5.884   2.565   2.529  0.0328 -0.1454 -0.1504
 6769PP      PP16873  12.499  11.621   3.769 -0.0945 -0.1453  0.0567
 6770PP      PP16874  14.706   6.843  13.673  0.0817  0.1473  0.0378
 6771PP      PP16875   0.748  14.419  11.443  0.2650 -0.1131  0.1539
 6772PP      PP16876   8.857  13.022   0.336  0.1785 -0.2743 -0.1473
 6773PP      PP16877   5.415   7.854  11.332  0.0682 -0.0554 -0.1424
 6774PP      PP16878   5.842   7.413  12.208 -0.1286 -0.3420 -0.0928
 6775PP      PP16879  15.510   3.334  11.956 -0.1497 -0.0086  0.0926
 6776PP      PP16880   2.961   7.145   1.327 -0.1220  0.1764  0.0827
 6777PP      PP16881  13.451   4.635   8.194  0.0539  0.2309 -0.2103
 6778PP      PP16882   2.546  12.241   2.555 -0.0195 -0.1643 -0.1777
 6779PP      PP16883   8.456  15.518  11.742  0.0450  0.1131 -0.0462
 6780PP      PP16884   9.528  10.771   9.807 -0.1722 -0.0869  0.4309
 6781PP      PP16885   7.434   0.978  11.861 -0.0272 -0.0953  0.0553
 6782PP      PP16886   0.747  15.220  13.035  0.2000 -0.0022  0.1377
 6783PP      PP16887   6.481  13.833   1.727 -0.1826  0.1135 -0.0960
 6784PP      PP16888  15.402   3.308   1.984 -0.0857 -0.0676  0.2063
 6785PP      PP16889   9.718  14.517   8.288  0.1777 -0.1228  0.0872
 6786PP      PP16890  14.988   2.927   1.170  0.0335 -0.1369  0.0526
 6787PP      PP16891   5.365   0.686  12.837 -0.0009 -0.0710  0.0230
 6788PP      PP16892  11.098   3.387  10.812 -0.1134  0.0604  0.0364
 6789PP      PP16893   4.861   4.634   2.816  0.1002  0.1698  0.0895
 6790PP      PP16894   0.081   8.097  13.098 -0.0568  0.3221  0.0622
 6791PP      PP16895   0.043  11.574   4.171 -0.3425 -0.1689  0.4440
 6792PP      PP16896   9.993  12.880   2.360 -0.1431 -0.0404 -0.0948
 6793PP      PP16897   8.040   8.078  10.372  0.2607 -0.1481 -0.1493
 6794PP      PP16898   0.574   0.386  12.621  0.1272  0.2142 -0.1770
 6795PP      PP16899   9.643  11.668   9.174 -0.2160 -0.0026  0.1033
 6796PP      PP16900   5.688   2.932   2.858 -0.2425 -0.0120 -0.3250
 6797PP      PP16901  11.282  13.974   9.611 -0.0041  0.2561  0.0940
 6798PP      PP16902   9.942   2.510  12.276  0.0051 -0.0627  0.2177
 6799PP      PP16903  14.168   1.641   3.808 -0.0666 -0.2160  0.3830
 6800PP      PP16904   4.415   9.352   2.176  0.2030  0.1203  0.0222
 6801PP      PP16905   6.315   9.831  10.191  0.0484 -0.1116 -0.2445
 6802PP      PP16906  13.087   9.000   3.288 -0.2748 -0.0151 -0.1449
 6803PP      PP16907   9.115  15.608   1.170  0.0371  0.1328  0.2358
 6804PP      PP16908   5.329   9.930   3.115  0.2687 -0.0602  0.0849
 6805PP      PP16909   5.345   7.461  13.688  0.3437  0.0135 -0.1745
 6806PP      PP16910   3.592  12.393   2.288  0.4975 -0.2415  0.0830
 6807PP      PP16911  12.026   5.545  11.938  0.1796  0.3529 -0.2288
 6808PP      PP16912   7.610   1.863   8.611 -0.0881  0.2167 -0.0382
 6809PP      PP16913   1.848  11.661  10.835 -0.1728  0.0368  0.0171
 6810PP      PP16914   4.740   6.498   8.969 -0.0393 -0.4319 -0.2465
 6811PP      PP16915  10.979  11.924  11.200 -0.0937  0.1014 -0.2100
 6812PP      PP16916  10.420  11.773   0.297  0.3060 -0.0450  0.0016
 6813PP      PP16917  14.662   0.956   3.368 -0.0732 -0.0906  0.4012
 6814PP      PP16918   1.647   0.610  11.424 -0.1680 -0.0587 -0.0247
 6815PP      PP16919   2.966  11.954   1.574  0.0444 -0.2050  0.0026
 6816PP      PP16920  15.216   5.208  12.907  0.2377 -0.0032  0.1526
 6817PP      PP16921   8.446   5.877   0.380  0.1430 -0.1570 -0.1721
 6818PP      PP16922  11.234   9.604   1.413 -0.0158  0.1532 -0.1153
 6819PP      PP16923   7.186  11.624   2.294 -0.0277  0.1672  0.2577
 6820PP      PP16924  14.968   3.950   0.526  0.1400 -0.0306 -0.1040
 6821PP      PP16925   0.305   9.479   3.345  0.0852  0.0070  0.0940
 6822PP      PP16926   8.058   9.339   0.082 -0.1866  0.1129 -0.0781
 6823PP      PP16927  14.180   7.009  11.244  0.1797 -0.1715 -0.2069
 6824PP      PP16928  15.039   1.233   3.245  0.0733 -0.1376 -0.1872
 6825PP      PP16929  11.968  13.273  10.055  0.1375  0.3934  0.0723
 6826PP      PP16930  13.409   0.407  13.531 -0.1869 -0.0153 -0.0023
 6827PP      PP16931  13.812   7.047   3.784  0.0321  0.3231  0.1498
 6828PP      PP16932   4.288  14.394   2.223 -0.2768 -0.2862 -0.0532
 6829PP      PP16933  10.608  10.213   1.435  0.2734 -0.0661  0.0958
 6830PP      PP16934  10.759  13.104   9.779 -0.0594  0.0866  0.1943
 6831PP      PP16935   5.082   0.512   2.087  0.1287 -0.1428  0.2113
 6832PP      PP16936   2.547   6.778  10.423 -0.3125  0.0795  0.3021
 6833PP      PP16937  13.763   5.406  13.225  0.1525  0.0052  0.0626
 6834PP      PP16938   3.339  15.500   2.821 -0.1204 -0.0555  0.0007
 6835PP      PP16939   5.905   5.027  11.413  0.0752 -0.0808 -0.2056
 6836PP      PP16940  13.990   6.663  11.516  0.1855  0.0106 -0.2660
 6837PP      PP16941   9.198  14.454  13.013  0.1028  0.0263  0.0957
 6838PP      PP16942   3.708  14.996  11.139 -0.0674 -0.0560  0.2136
 6839PP      PP16943   1.048   2.917   1.538  0.2452  0.3313 -0.1997
 6840PP      PP16944  15.456   3.120   3.829  0.2501 -0.1442 -0.3022
 6841PP      PP16945  12.300   6.413   0.352  0.0024 -0.1715  0.1225
 6842PP      PP16946   0.679   0.771   4.412  0.1481  0.0957  0.2223
 6843PP      PP16947   3.574  11.122  11.244 -0.0606  0.0499 -0.1747
 6844PP      PP16948   4.869   8.499   3.538 -0.1909  0.1132 -0.1226
 6845PP      PP16949   8.577  11.861  12.729 -0.0394  0.1900  0.0089
 6846PP      PP16950   4.679   5.591  12.972  0.1070  0.0835 -0.0607
 6847PP      PP16951   8.369  12.594   4.691 -0.3239  0.1673 -0.1343
 6848PP      PP16952   2.807   9.437   1.082 -0.1029  0.0352  0.2078
 6849PP      PP16953  12.940   4.589   2.218 -0.3707 -0.1491 -0.2512
 6850PP      PP16954   6.254   5.538   0.289  0.0851  0.0259  0.0532
 6851PP      PP16955  11.226   8.068   3.897 -0.1041 -0.2827 -0.0680
 6852PP      PP16956  10.323  10.213   3.447  0.0092 -0.0536 -0.1772
 6853PP      PP16957  14.502  11.612   2.076  0.2907  0.0547  0.0381
 6854PP      PP16958   6.153  10.219   0.637 -0.0611 -0.3910 -0.2049
 6855PP      PP16959  11.169   1.972   3.005  0.3417 -0.1852 -0.0465
 6856PP      PP16960   0.288  11.027   0.651 -0.1227 -0.4059 -0.1877
 6857PP      PP16961  13.164  14.354   1.127 -0.1392  0.1886  0.0903
 6858PP      PP16962  10.537   5.438  11.749 -0.3004  0.4154  0.0781
 6859PP      PP16963  14.351  12.712   9.892 -0.2006 -0.0827 -0.0135
 6860PP      PP16964   7.467  15.048   1.850  0.2188  0.1311  0.2217
 6861PP      PP16965   1.593  12.838   0.480 -0.1790 -0.0837  0.2229
 6862PP      PP16966  12.987  15.296  10.993 -0.2764  0.1954 -0.1088
 6863PP      PP16967   7.896  13.663   8.588  0.2280  0.1767  0.0229
 6864PP      PP16968  10.224   2.031   2.348 -0.2171 -0.3888  0.3457
 6865PP      PP16969  14.169   8.527   0.113 -0.0199  0.0237  0.2762
 6866PP      PP16970  13.617   6.926   0.567  0.1087  0.0784  0.3306
 6867PP      PP16971   1.500   8.800   1.089 -0.2244  0.0093  0.1715
 6868PP      PP16972   4.550   8.577   4.878 -0.0303  0.0464 -0.1846
 6869PP      PP16973   7.572   5.328   0.135  0.0404 -0.0056 -0.2117
 6870PP      PP16974   3.859   9.214   4.070  0.0811 -0.1528 -0.3696
 6871PP      PP16975   0.479   4.034   9.695 -0.2517  0.0625 -0.2411
 6872PP      PP16976  15.525  14.326   2.879  0.0017 -0.1388  0.1655
 6873PP      PP16977  13.698  10.893  10.081 -0.3430  0.0687 -0.1686
 6874PP      PP16978   5.662  14.620   3.519  0.1383 -0.0134 -0.3023
 6875PP      PP16979   9.563   5.258  11.202 -0.0424 -0.1529 -0.2825
 6876PP      PP16980   5.035  14.181  10.071  0.2724 -0.0276  0.2041
 6877PP      PP16981   3.470  10.940   3.009 -0.2157 -0.0799  0.3052
 6878PP      PP16982  13.502   6.541   1.014  0.1782  0.4121 -0.2930
 6879PP      PP16983  14.334  14.619   1.599 -0.0402 -0.0282 -0.0103
 6880PP      PP16984   5.933   1.500  12.831  0.1205  0.0523 -0.1452
 6881PP      PP16985   3.550  11.009   1.726 -0.0261  0.1217 -0.3123
 6882PP      PP16986   1.938   0.967   3.914 -0.0469  0.0684 -0.2478
 6883PP      PP16987  14.944   8.839   0.857  0.3350  0.0910  0.1625
 6884PP      PP16988   6.860   9.722   9.279 -0.0601 -0.0037  0.0470
 6885PP      PP16989  10.190   8.735  11.044  0.0668  0.1134 -0.0328
 6886PP      PP16990  10.093  12.548   8.634 -0.2942 -0.2235 -0.2401
 6887PP      PP16991  10.956  14.771   3.170 -0.0440 -0.1086 -0.3242
 6888PP      PP16992  11.410  12.905   1.720 -0.0121  0.1750 -0.2105
 6889PP      PP16993  11.141   7.855   0.513 -0.0520  0.0550 -0.0305
 6890PP      PP16994   2.116   3.279   2.728  0.0841  0.1328 -0.2616
 6891PP      PP16995  12.188  12.054   2.607  0.3994  0.1819 -0.1390
 6892PP      PP16996   6.950   6.229  11.811  0.0087  0.2193 -0.0441
 6893PP      PP16997   8.619  11.269  12.109  0.0223  0.2178 -0.1084
 6894PP      PP16998   7.509   4.340  10.330  0.0124  0.0709  0.2075
 6895PP      PP16999   0.005   0.511   9.915 -0.2050 -0.2602 -0.2879
 6896PP      PP17000   2.056  12.644  13.226  0.0017 -0.1904 -0.1617
 6897PP      PP17001   4.799  10.126   3.220  0.2900 -0.0197  0.0282
 6898PP      PP17002  11.818  14.594   0.174  0.1449  0.0314  0.1934
 6899PP      PP17003   0.691   6.958  13.288 -0.1197 -0.4103 -0.2749
 6900PP      PP17004  12.039   1.790  11.031  0.0275  0.0805 -0.1174
 6901PP      PP17005   9.054   7.539   9.936  0.1327 -0.0394 -0.0079
 6902PP      PP17006   9.711   6.026  13.646  0.0616 -0.0996 -0.1511
 6903PP      PP17007   4.143  12.995  13.572 -0.0505 -0.1307 -0.0076
 6904PP      PP17008  12.377  12.078   3.990  0.3810 -0.0442  0.1213
 6905PP      PP17009   3.593   1.259  12.340  0.4760  0.1275  0.0536
 6906PP      PP17010   8.095  11.318   1.233 -0.1136 -0.0478 -0.1146
 6907PP      PP17011   7.066   2.154   0.854 -0.1948  0.1596  0.3170
 6908PP      PP17012   9.366  13.317   1.553  0.1018 -0.1421  0.0432
 6909PP      PP17013  15.022   8.950  10.312 -0.2734 -0.0650  0.0631
 6910PP      PP17014   9.454  11.183   0.469 -0.0313  0.1605  0.2545
 6911PP      PP17015  12.953   9.864   0.982  0.2404  0.2136 -0.1007
 6912PP      PP17016  10.785   2.496   9.916 -0.0839 -0.2007  0.1096
 6913PP      PP17017  12.708   4.858  12.717 -0.0165  0.0446 -0.0326
 6914PP      PP17018   0.051   4.470  11.012  0.0866  0.4624 -0.1487
 6915PP      PP17019   4.284   1.161   0.213 -0.1257 -0.0706  0.2104
 6916PP      PP17020  12.275  11.186   1.168 -0.2429 -0.1276 -0.0303
 6917PP      PP17021   7.307   5.497  11.534 -0.1734 -0.0956  0.2165
 6918PP      PP17022   9.069  12.698  11.107 -0.1129  0.0961  0.1189
 6919PP      PP17023  14.871   3.153  13.218 -0.0079  0.1155  0.2943
 6920PP      PP17024   6.801  11.813  13.193  0.2580  0.4190 -0.3162
 6921PP      PP17025   0.948   2.163   1.056  0.2580  0.1665 -0.0624
 6922PP      PP17026   6.354   8.595   1.230  0.6074  0.2710 -0.1877
 6923PP      PP17027  14.565  12.716   4.311 -0.1740 -0.2057 -0.0548
 6924PP      PP17028   7.924  11.720   1.394  0.0498  0.0577  0.0007
 6925PP      PP17029   0.292   0.185  11.781  0.2322  0.2881  0.2906
 6926PP      PP17030  11.915  10.656   0.471 -0.1289 -0.0779 -0.0406
 6927PP      PP17031  12.194  11.389  12.428 -0.1855  0.0228  0.0440
 6928PP      PP17032  13.853   6.606  11.985  0.0247 -0.1781  0.0897
 6929PP      PP17033  13.828  13.251  11.392  0.0954  0.2833  0.0710
 6930PP      PP17034   1.267  13.094   1.438  0.0121  0.5724 -0.2707
 6931PP      PP17035   2.303  15.207   4.063  0.2827  0.1849 -0.0845
 6932PP      PP17036   0.443   5.696  10.454 -0.1645 -0.0833  0.1376
 6933PP      PP17037   9.276  14.269  12.548 -0.1279  0.0743 -0.0878
 6934PP      PP17038  13.953  13.456   4.514 -0.2708 -0.1378 -0.0948
 6935PP      PP17039  11.220   2.240  10.218  0.2043 -0.2721 -0.0710
 6936PP      PP17040   8.658   0.847   0.244 -0.4255  0.1337  0.1171
 6937PP      PP17041  12.291  12.842  13.668  0.0724 -0.3351  0.1778
 6938PP      PP17042  14.208   1.035  11.374  0.0799 -0.1319 -0.2213
 6939PP      PP17043   6.851   8.591   3.277  0.0830 -0.0851  0.0908
 6940PP      PP17044   9.544   0.431  12.109 -0.3529  0.1755  0.2845
 6941PP      PP17045   2.549   0.322   1.273 -0.2131 -0.0848  0.0191
 6942PP      PP17046   2.477   0.611  11.315  0.0381  0.0630  0.1434
 6943PP      PP17047  11.362   2.544  11.959 -0.1887  0.0649  0.0572
 6944PP      PP17048   9.131  12.959   3.494  0.0754  0.2494 -0.0849
 6945PP      PP17049   9.406  13.426  12.303  0.0928 -0.0874  0.3479
 6946PP      PP17050   5.959   1.163   2.833 -0.0703  0.0239  0.0024
 6947PP      PP17051   2.614   2.101   3.412  0.0656 -0.2656  0.1424
 6948PP      PP17052   3.694   8.085  10.856  0.1373 -0.2977 -0.2386
 6949PP      PP17053  13.153   2.186  10.712  0.0019  0.2219  0.0106
 6950PP      PP17054  12.186  11.880   9.884  0.0520 -0.0863 -0.0775
 6951PP      PP17055  10.287  12.361   1.675 -0.0245  0.1910  0.0251
 6952PP      PP17056   5.724   5.825  10.778 -0.0082 -0.1410  0.1163
 6953PP      PP17057  14.112  10.314   9.401 -0.0406 -0.0741 -0.0714
 6954PP      PP17058  12.434   7.220  10.276 -0.1315 -0.4823  0.1101
 6955PP      PP17059   6.753   3.995   2.279 -0.0178  0.1425  0.1432
 6956PP      PP17060   2.517   9.849   6.929  0.1099 -0.0970 -0.2636
 6957PP      PP17061  14.573   4.642  12.356  0.0006 -0.1648  0.0008
 6958PP      PP17062   8.600  10.836  13.349 -0.0063 -0.3469  0.1114
 6959PP      PP17063  12.849  12.494  11.980  0.0665  0.0259  0.2967
 6960PP      PP17064   9.626   2.615   1.109 -0.4056  0.0733  0.1796
 6961PP      PP17065   4.399   7.986   2.034 -0.1259  0.1021 -0.3649
 6962PP      PP17066  14.839  10.425  11.198 -0.2888  0.1509 -0.0578
 6963PP      PP17067  11.234  11.978   1.544  0.1932  0.1573 -0.1238
 6964PP      PP17068   9.573   9.827   8.911  0.1178 -0.1021  0.0570
 6965PP      PP17069  14.752   9.973   0.208 -0.0603 -0.0317  0.4080
 6966PP      PP17070  12.730   6.683  12.073 -0.0012  0.2637 -0.0323
 6967PP      PP17071  15.269   4.800   2.450 -0.1582  0.1792 -0.0317
 6968PP      PP17072   6.926   9.953   0.381  0.0260 -0.1660  0.3295
 6969PP      PP17073   0.211   2.465   1.873 -0.1864  0.0317  0.1328
 6970PP      PP17074   2.497   3.818   9.554  0.1778 -0.0815  0.1240
 6971PP      PP17075   8.622   1.422   3.268 -0.0619  0.0665 -0.2012
 6972PP      PP17076   7.111  10.036  12.721 -0.0235  0.0389  0.0707
 6973PP      PP17077   3.633  10.568  11.174 -0.3396 -0.0985  0.0263
 6974PP      PP17078  14.415   5.163   3.899 -0.2756 -0.0368 -0.2930
 6975PP      PP17079   4.940   5.016   8.682 -0.2221 -0.0154 -0.0576
 6976PP      PP17080  10.315   5.190   0.348 -0.0416 -0.2733 -0.0375
 6977PP      PP17081   2.358   1.086  10.073 -0.0702 -0.1376  0.0838
 6978PP      PP17082   2.565  12.663   1.229  0.0312 -0.2286 -0.0911
 6979PP      PP17083  12.026  12.884   3.803  0.2482  0.1367  0.3747
 6980PP      PP17084   6.401   5.311   3.424  0.0547  0.3818  0.1432
 6981PP      PP17085  13.415  15.163  12.148 -0.2444  0.1657 -0.0539
 6982PP      PP17086   2.044  15.466   3.639  0.1158 -0.0118 -0.3606
 6983PP      PP17087   7.004  15.063   1.562  0.2689 -0.1711 -0.3436
 6984PP      PP17088   6.151   3.743   3.837  0.0659 -0.0339 -0.1001
 6985PP      PP17089   2.060  13.902  11.314 -0.0924 -0.0813  0.0034
 6986PP      PP17090   1.625   4.384  11.299 -0.2508 -0.0173  0.1940
 6987PP      PP17091   2.027   1.691  11.404 -0.1157  0.0460 -0.0234
 6988PP      PP17092   7.043   9.274   0.167 -0.3886 -0.1259 -0.0514
 6989PP      PP17093   7.298  15.059   2.813  0.0699  0.2317  0.4639
 6990PP      PP17094   3.760   4.725  10.491  0.0018  0.1572 -0.2551
 6991PP      PP17095  10.494   2.773   0.657  0.0437 -0.4232 -0.0268
 6992PP      PP17096  14.304   3.843  11.749  0.1873 -0.1208 -0.1902
 6993PP      PP17097   2.501   2.657   4.091 -0.1420 -0.1203  0.2445
 6994PP      PP17098  13.766   4.886   1.649 -0.0932 -0.0291 -0.5441
 6995PP      PP17099   7.791   5.773  11.433  0.2312  0.0648  0.1834
 6996PP      PP17100   2.724   7.050   8.085 -0.5012 -0.1018  0.0339
 6997PP      PP17101  13.459   6.683   0.072 -0.1037  0.1055 -0.1116
 6998PP      PP17102   6.585  15.165   1.768 -0.1613  0.3261  0.1442
 6999PP      PP17103   2.831  10.789   1.232  0.0007  0.4247  0.1686
 7000PP      PP17104  11.722  12.517   9.093  0.0846  0.1103  0.0657
 7001PP      PP17105  10.785   9.575  11.960  0.1917  0.0618  0.0337
 7002PP      PP17106   6.533  11.007   4.463  0.0180  0.4212 -0.1067
 7003PP      PP17107   3.165   2.659  12.548  0.1306 -0.0481 -0.1908
 7004PP      PP17108  11.694   5.712  13.401  0.2654 -0.0343 -0.1170
 7005PP      PP17109   9.090  14.930  13.041 -0.2833  0.3081 -0.1019
 7006PP      PP17110   6.800  10.856  12.562  0.0348  0.3979  0.2822
 7007PP      PP17111   3.186  13.307   2.954 -0.1041  0.0594  0.0548
 7008PP      PP17112   4.894  11.300   0.613  0.1627 -0.0423  0.0657
 7009PP      PP17113   8.915  13.487  13.378  0.1134 -0.3789 -0.1266
 7010PP      PP17114   6.786   2.619   0.446  0.1974 -0.1749 -0.1480
 7011PP      PP17115  12.486  14.846   9.612  0.3082  0.1650  0.3438
 7012PP      PP17116   7.996   7.116  13.541  0.0050  0.1347  0.3146
 7013PP      PP17117   0.540  10.423   2.203  0.0625 -0.1243 -0.3254
 7014PP      PP17118   5.320   5.506   0.272  0.2706  0.1966  0.0814
 7015PP      PP17119   9.050   9.128   1.211 -0.1095 -0.3300  0.0589
 7016PP      PP17120  12.874  12.848   9.205 -0.1309 -0.3384  0.2415
 7017PP      PP17121   5.386   6.971   2.343  0.0511 -0.3934 -0.3001
 7018PP      PP17122   0.716   9.184  13.316 -0.0720 -0.1845 -0.0023
 7019PP      PP17123  11.323   8.974  12.444  0.2001  0.1726  0.0888
 7020PP      PP17124  12.688   4.584   0.123 -0.0069 -0.0590 -0.0935
 7021PP      PP17125  13.835   3.584   0.052  0.0941 -0.2465 -0.1141
 7022PP      PP17126   2.079  12.014   2.835  0.0844 -0.4061  0.2004
 7023PP      PP17127   7.738  10.882   3.655  0.2585 -0.1416  0.0622
 7024PP      PP17128   4.146  14.744  11.142  0.0273  0.0635  0.0517
 7025PP      PP17129  11.190   2.646   3.670 -0.0888  0.1238 -0.1621
 7026PP      PP17130   1.628   5.723   2.182  0.3386  0.0384  0.4134
 7027PP      PP17131   1.833   6.722   3.959  0.0649 -0.2605  0.0528
 7028PP      PP17132   8.468   8.278  10.748 -0.0309  0.1667  0.0041
 7029PP      PP17133  14.084   8.434   0.657 -0.3505 -0.1389 -0.2393
 7030PP      PP17134   2.030   3.724   0.262 -0.0801 -0.1858 -0.2441
 7031PP      PP17135   8.821  10.302   3.586  0.3174  0.1462  0.0317
 7032PP      PP17136  11.610   2.040   3.223 -0.1424  0.1009  0.2347
 7033PP      PP17137   4.876   5.325   3.549 -0.0519  0.0149 -0.2013
 7034PP      PP17138   1.494   7.707   3.829 -0.0598  0.1402 -0.2192
 7035PP      PP17139  12.435   5.348   1.835  0.0051 -0.0093 -0.0311
 7036PP      PP17140  12.176   8.613   3.303 -0.0498  0.1397 -0.1223
 7037PP      PP17141  15.154   2.549  10.894 -0.2116  0.1122  0.0548
 7038PP      PP17142   4.696   8.737   9.468 -0.0614  0.5698 -0.1178
 7039PP      PP17143   9.119   8.081   4.072  0.1098 -0.0294 -0.2890
 7040PP      PP17144  15.195  12.044   3.521  0.0822  0.2040 -0.3671
 7041PP      PP17145   8.326  13.079   0.654  0.1015 -0.0245  0.2284
 7042PP      PP17146   6.274  13.940  13.224  0.0399  0.1261 -0.1265
 7043PP      PP17147  14.813   5.268   9.851 -0.4438 -0.1320  0.0851
 7044PP      PP17148   6.715  13.526  12.041  0.1402  0.2145  0.0003
 7045PP      PP17149   8.305  10.306  10.927 -0.0819  0.0266  0.4729
 7046PP      PP17150   1.498   1.298   1.358 -0.3151 -0.0269 -0.1683
 7047PP      PP17151  10.747   7.775  11.797  0.0009 -0.1326  0.1770
 7048PP      PP17152   2.388   8.519   9.862  0.0792  0.0843 -0.0363
 7049PP      PP17153   2.013   9.934   1.644 -0.0799  0.1315 -0.0200
 7050PP      PP17154   4.845  11.276  12.838 -0.0395 -0.0711 -0.2460
 7051PP      PP17155  12.292   3.397   0.858 -0.0309 -0.1216  0.3492
 7052PP      PP17156  12.418   8.892  10.401  0.1396  0.2078  0.0004
 7053PP      PP17157  13.299  11.658  11.814 -0.4277 -0.0038 -0.1059
 7054PP      PP17158   9.008  10.133  10.685  0.0102 -0.2987  0.2105
 7055PP      PP17159  13.796  11.366  10.029 -0.1000 -0.0079 -0.1990
 7056PP      PP17160  11.896   0.611   9.474  0.0062 -0.0105  0.0657
 7057PP      PP17161   7.185   2.796   9.113  0.0168 -0.0748  0.2101
 7058PP      PP17162   7.571   7.205   9.476 -0.2172  0.0631 -0.3309
 7059PP      PP17163   4.649   6.765  10.637 -0.1819 -0.0239 -0.2207
 7060PP      PP17164   6.926   9.696   3.926  0.3340  0.1383  0.0142
 7061PP      PP17165   6.255   7.352  10.319  0.0975  0.1090  0.2358
 7062PP      PP17166   0.928   7.351   4.168  0.2017  0.1088  0.2677
 7063PP      PP17167   9.774  13.937   0.034 -0.1977  0.1332 -0.0759
 7064PP      PP17168  13.941   4.906  10.030  0.0817  0.1151  0.0655
 7065PP      PP17169   3.461  12.802   1.397  0.0591 -0.0875  0.5303
 7066PP      PP17170   9.168   1.461  12.662 -0.1882 -0.1109  0.0241
 7067PP      PP17171  12.966  10.184   2.870 -0.2604 -0.0204 -0.1656
 7068PP      PP17172   7.210   2.121  13.363 -0.0083  0.0718 -0.2161
 7069PP      PP17173   0.989  11.066   1.088  0.0942  0.0896  0.3988
 7070PP      PP17174   6.248  13.140  10.286 -0.0714  0.1259  0.0826
 7071PP      PP17175   6.810   3.604   8.981  0.0115 -0.0369 -0.1549
 7072PP      PP17176   1.111   4.420  13.342 -0.0911  0.1250 -0.0213
 7073PP      PP17177  10.656  10.930   3.737  0.0413  0.0589  0.0625
 7074PP      PP17178   7.672   6.118  13.404  0.2943 -0.0366 -0.3271
 7075PP      PP17179   0.735  15.311   9.425  0.0194  0.2720  0.0434
 7076PP      PP17180   5.099  12.991   4.691  0.1789  0.2564 -0.1439
 7077PP      PP17181   7.684   7.488  12.888 -0.1579  0.1776  0.0756
 7078PP      PP17182  12.216   3.012  13.689  0.0648 -0.0534  0.4013
 7079PP      PP17183  11.503  14.384   4.480  0.2937  0.0891  0.0663
 7080PP      PP17184   2.369   8.290   4.368  0.2152 -0.2581  0.1270
 7081PP      PP17185   7.256  15.634   3.728 -0.0128  0.0632  0.2026
 7082PP      PP17186   5.303   3.244   4.951  0.0183 -0.0756  0.0824
 7083PP      PP17187   2.308  12.943   1.659  0.1154  0.0557 -0.2995
 7084PP      PP17188  13.246  14.890  11.738 -0.0935 -0.0125 -0.2035
 7085PP      PP17189  12.943  14.868   2.156  0.1106 -0.2999 -0.2213
 7086PP      PP17190  13.697   6.804  11.070 -0.2190  0.0518 -0.0442
 7087PP      PP17191  12.614   0.067  11.593  0.1576 -0.1953 -0.1513
 7088PP      PP17192   4.067   5.846  12.343  0.0291  0.0238 -0.0998
 7089PP      PP17193   8.547   8.672   1.946  0.1917 -0.1141  0.0598
 7090PP      PP17194  12.295   2.186   2.181 -0.2409  0.2556 -0.0537
 7091PP      PP17195  14.463  11.853  12.153  0.1858  0.0169 -0.0269
 7092PP      PP17196  14.102   4.161   0.839  0.0106  0.1202  0.0784
 7093PP      PP17197   8.766   6.201  12.816 -0.1685  0.0777  0.0578
 7094PP      PP17198  12.227   7.396  13.225  0.0730  0.2867 -0.1686
 7095PP      PP17199   9.287   8.933  12.594 -0.1544  0.1030 -0.2757
 7096PP      PP17200   1.439   2.223   3.992  0.0361  0.0446 -0.2462
 7097PP      PP17201   1.139   5.784   8.882 -0.1124  0.1946 -0.1024
 7098PP      PP17202  11.191  14.250  12.401 -0.0748  0.0691  0.0718
 7099PP      PP17203  12.917   3.598   9.079  0.1383  0.1104 -0.0406
 7100PP      PP17204   4.087  14.143   2.599  0.0465  0.1547 -0.0246
 7101PP      PP17205  13.622   3.528  13.362  0.0118 -0.3117  0.0643
 7102PP      PP17206   0.804  12.289   2.201  0.0198  0.0068  0.0419
 7103PP      PP17207   1.019   4.041   3.263  0.0659  0.1138  0.0177
 7104PP      PP17208   3.608   8.044   1.662  0.1539 -0.3656 -0.0372
 7105PP      PP17209   1.951  13.847  10.265  0.1913 -0.1319 -0.1144
 7106PP      PP17210  12.559   1.106  11.153  0.0373 -0.0669  0.1503
 7107PP      PP17211  13.941  10.351   3.550  0.0228 -0.0453  0.3502
 7108PP      PP17212  12.712  11.413  12.538  0.0181  0.2787  0.0642
 7109PP      PP17213   0.343  10.935   2.065 -0.0736 -0.2692 -0.0784
 7110PP      PP17214  11.328   5.410  12.337 -0.2511  0.3450  0.1816
 7111PP      PP17215   6.761   7.937  10.786 -0.1835 -0.0063  0.2499
 7112PP      PP17216   8.004  11.772   3.540 -0.0675  0.1333  0.2304
 7113PP      PP17217   2.920  12.927   0.326 -0.1752  0.1665  0.5944
 7114PP      PP17218   4.239  11.815   9.770  0.0166  0.0384 -0.0443
 7115PP      PP17219   1.314   4.664   1.922  0.0530 -0.2369 -0.1018
 7116PP      PP17220  14.557  12.910   1.839  0.0113  0.2313  0.1283
 7117PP      PP17221  12.455  11.507  10.615  0.2339 -0.1414 -0.0754
 7118PP      PP17222   2.828   9.615   2.570 -0.0150  0.0002 -0.1684
 7119PP      PP17223   7.155   2.172  12.869  0.1148 -0.1674 -0.0918
 7120PP      PP17224   9.604   9.290   1.751  0.0697  0.1653 -0.2163
 7121PP      PP17225   7.515   0.028   3.219  0.1400 -0.2774 -0.1152
 7122PP      PP17226  10.099   0.302  12.889 -0.2491  0.1288  0.2128
 7123PP      PP17227  13.958   6.058   9.812  0.3064 -0.0851  0.1670
 7124PP      PP17228   2.658   6.518   9.533  0.1605  0.1037  0.3300
 7125PP      PP17229  15.120   7.440   9.581 -0.1101 -0.1528 -0.3228
 7126PP      PP17230   7.831  13.646   9.933 -0.0551 -0.1334  0.2747
 7127PP      PP17231  13.676  11.480  13.357 -0.4148 -0.1213 -0.0681
 7128PP      PP17232  10.713   6.297   2.576 -0.0862  0.3631  0.1321
 7129PP      PP17233   4.427  10.891  10.953 -0.3763 -0.0756  0.0419
 7130PP      PP17234   7.774   0.070   2.299 -0.0816  0.1430 -0.1146
 7131PP      PP17235   6.201   4.836   2.570 -0.1994 -0.1841 -0.2159
 7132PP      PP17236   7.434  10.777   2.358 -0.3838 -0.0015 -0.0769
 7133PP      PP17237   3.963   2.364   1.801 -0.0298  0.1625 -0.1173
 7134PP      PP17238  13.744   6.384   9.013 -0.0204 -0.2456 -0.1932
 7135PP      PP17239  11.607   2.074  13.524  0.0875 -0.1088  0.2447
 7136PP      PP17240  15.717  14.664  12.974  0.3561 -0.0134 -0.1146
 7137PP      PP17241  12.480   3.042   9.088  0.1268  0.0055 -0.1219
 7138PP      PP17242   2.603   5.690  12.036 -0.4374 -0.1880  0.3851
 7139PP      PP17243  14.658   2.135   1.510 -0.0648 -0.0902 -0.3956
 7140PP      PP17244  13.965  13.377   3.105 -0.0123  0.2287  0.1317
 7141PP      PP17245   0.615  12.879   0.448 -0.1213  0.0978 -0.1490
 7142PP      PP17246  11.997   9.986  12.242  0.1445 -0.0091  0.0302
 7143PP      PP17247  10.134   5.919   3.403 -0.0067 -0.0100 -0.0907
 7144PP      PP17248   3.833   6.353   9.958 -0.4102 -0.4763 -0.2852
 7145PP      PP17249   8.021   2.558   2.200 -0.1980  0.0053 -0.0362
 7146PP      PP17250   5.081   7.665  12.119 -0.0661  0.0986 -0.1540
 7147PP      PP17251   5.673   7.134   9.411  0.0171 -0.0311  0.2872
 7148PP      PP17252   5.731   9.851   2.817  0.0878  0.1104 -0.0786
 7149PP      PP17253   7.240  12.911  13.507  0.1451  0.3990  0.0666
 7150PP      PP17254   4.777   6.132   2.605 -0.2866 -0.0860 -0.1293
 7151PP      PP17255  13.752  15.467  13.022  0.0558 -0.0023 -0.0351
 7152PP      PP17256   8.547   1.918   9.856  0.0362  0.0120 -0.0916
 7153PP      PP17257   7.563   1.448  11.008  0.1288 -0.2197  0.4439
 7154PP      PP17258   0.317   2.630  11.599  0.3159 -0.0459  0.1379
 7155PP      PP17259   2.182   9.403  12.747 -0.0854 -0.0315 -0.2279
 7156PP      PP17260   3.214   5.063   0.795 -0.1186 -0.3060  0.0828
 7157PP      PP17261  11.278   0.851  11.416  0.0874  0.0633 -0.1063
 7158PP      PP17262   4.368  10.227   5.468 -0.2830  0.2180  0.1523
 7159PP      PP17263  10.455   0.640   8.561 -0.1100 -0.1251  0.0469
 7160PP      PP17264   8.872  10.352  10.232 -0.3089  0.0272 -0.0648
 7161PP      PP17265   3.798   8.378  12.542  0.0003  0.0760 -0.2280
 7162PP      PP17266   2.488   6.812   8.673 -0.2000  0.2336 -0.2922
 7163PP      PP17267  11.020   0.198  12.582  0.1169 -0.1329 -0.0748
 7164PP      PP17268   8.433   3.186  11.273  0.2116 -0.0652  0.0270
 7165PP      PP17269   9.761   6.395   9.508  0.0651  0.1796 -0.0564
 7166PP      PP17270  12.095  15.726  13.179  0.1790  0.1467  0.0098
 7167PP      PP17271   7.122   1.784   8.703 -0.1128 -0.2979  0.0834
 7168PP      PP17272   9.187  12.009   1.396  0.0896 -0.3057  0.5281
 7169PP      PP17273  10.174   4.775  10.309 -0.1168  0.1709 -0.3590
 7170PP      PP17274  10.239   2.200   9.874  0.3623  0.0882  0.1000
 7171PP      PP17275   7.292   5.229  11.002  0.0097  0.1728 -0.1202
 7172PP      PP17276   6.617  13.797   4.642 -0.2463 -0.0312 -0.0010
 7173PP      PP17277   5.180   2.904  12.040  0.0316  0.0022 -0.0367
 7174PP      PP17278   1.249   7.015   3.955  0.2476 -0.2451 -0.2165
 7175PP      PP17279  12.761  13.853   2.493 -0.1002 -0.0276  0.0375
 7176PP      PP17280  12.703  10.504  13.315 -0.0097  0.1336 -0.1588
 7177PP      PP17281  10.601  14.048   8.874 -0.1833 -0.1171 -0.1175
 7178PP      PP17282  15.646   0.610  13.281  0.3488 -0.2419 -0.1115
 7179PP      PP17283  10.648   0.683  13.761  0.0083  0.0514 -0.1026
 7180PP      PP17284   7.820   1.996  10.018 -0.1543  0.2412 -0.1183
 7181PP      PP17285  12.275   3.106   3.430 -0.3013  0.2160 -0.1097
 7182PP      PP17286   4.306  14.094   1.807 -0.2104 -0.0178 -0.4031
 7183PP      PP17287   3.229   6.651  10.999 -0.1228 -0.0455  0.1242
 7184PP      PP17288   1.152   8.642   3.752  0.0627  0.2061 -0.0121
 7185PP      PP17289   4.717   2.156  11.689 -0.0534  0.1430  0.1179
 7186PP      PP17290   1.466  10.572   9.183  0.2545 -0.0755 -0.0382
 7187PP      PP17291   2.017  14.770   2.430  0.0040 -0.0930 -0.0035
 7188PP      PP17292   0.180   9.130   1.607  0.1324 -0.1780 -0.0210
 7189PP      PP17293   0.448  14.750   2.219  0.0698 -0.0769  0.0735
 7190PP      PP17294   1.919   0.253   3.663 -0.0186 -0.1165  0.1835
 7191PP      PP17295   8.676   9.622  10.742  0.0856  0.1699 -0.1393
 7192PP      PP17296   2.364   2.183   4.273  0.0403 -0.0355  0.0584
 7193PP      PP17297  10.133   7.649  10.175 -0.4179 -0.1090 -0.0098
 7194PP      PP17298   9.133   9.962   9.062  0.0422 -0.1140 -0.1252
 7195PP      PP17299  10.072   0.916  11.370  0.2426 -0.0413 -0.0841
 7196PP      PP17300   6.132   3.733   8.606 -0.0409 -0.1822 -0.3153
 7197PP      PP17301   4.563   8.328   9.745 -0.0045 -0.0639  0.0102
 7198PP      PP17302  12.744   9.523  13.233 -0.0272  0.0358  0.0277
 7199PP      PP17303  12.986  10.309  11.733 -0.1337  0.0892  0.0063
 7200PP      PP17304   9.836  12.115   9.012  0.0200 -0.0018 -0.3453
 7201PP      PP17305   3.592  14.929  12.460  0.0882 -0.0169  0.0210
 7202PP      PP17306   0.222   6.960   1.311 -0.1327  0.5865  0.1363
 7203PP      PP17307  11.301   8.508   2.281 -0.0016  0.3344  0.1855
 7204PP      PP17308   9.238   5.949  10.266  0.0921 -0.3261  0.1406
 7205PP      PP17309   7.534  13.205   9.568 -0.0184  0.0955  0.1097
 7206PP      PP17310   1.074  15.154   2.657 -0.0769  0.0298  0.2415
 7207PP      PP17311  11.915   3.423  13.735  0.3159 -0.3455  0.2382
 7208PP      PP17312   6.897   6.382   3.314 -0.1193 -0.1526  0.0192
 7209PP      PP17313   2.036   2.850   4.360  0.1460  0.0930 -0.0931
 7210PP      PP17314   2.477  10.680   0.918  0.2111 -0.0842 -0.3376
 7211PP      PP17315  12.215  10.253  10.432 -0.1555  0.1158  0.4175
 7212PP      PP17316   4.929  13.617   3.258 -0.2592  0.1736  0.1980
 7213PP      PP17317   6.942   6.591  10.442 -0.1624  0.2336  0.2773
 7214PP      PP17318  12.781   4.803   3.661  0.3848  0.0143  0.0574
 7215PP      PP17319  10.411   9.226  10.797  0.3605  0.1361 -0.2729
 7216PP      PP17320   1.304  12.172   2.296 -0.1495 -0.1104 -0.1596
 7217PP      PP17321  10.395  11.309   4.299 -0.1215  0.1279  0.2474
 7218PP      PP17322   4.419  10.388   4.153 -0.2770 -0.1667  0.0986
 7219PP      PP17323   4.183   0.666   9.966  0.0868  0.4600  0.2295
 7220PP      PP17324  10.673  12.308  10.893  0.1830 -0.0072 -0.1136
 7221PP      PP17325  10.286   0.302   9.572 -0.0494 -0.0474 -0.0349
 7222PP      PP17326   5.731  10.198  12.894  0.2301  0.2234 -0.0067
 7223PP      PP17327   8.110   4.963  12.048  0.2351 -0.1293 -0.1750
 7224PP      PP17328   8.833   2.762   9.843  0.2381 -0.0843 -0.0754
 7225PP      PP17329   2.965   6.790   9.162 -0.0049 -0.3486  0.1172
 7226PP      PP17330   1.042  14.164   3.263  0.0011 -0.0372 -0.1071
 7227PP      PP17331   3.963   2.813  12.774 -0.1241  0.1763  0.0865
 7228PP      PP17332   3.452  13.989  11.635  0.0259 -0.2094  0.1737
 7229PP      PP17333   3.557   8.379   1.336  0.0606  0.2344 -0.0540
 7230PP      PP17334   1.315  14.709  12.422 -0.2032 -0.3361  0.1033
 7231PP      PP17335   9.908  12.169   9.572 -0.2833 -0.1369  0.0621
 7232PP      PP17336   1.723   2.899   3.438 -0.0856  0.0973  0.1110
 7233PP      PP17337   8.322   2.214   1.342 -0.1861 -0.2672 -0.1647
 7234PP      PP17338  10.670   4.895  13.203  0.1944  0.3593  0.1179
 7235PP      PP17339   5.220  13.818   0.906 -0.3010  0.1958  0.1490
 7236PP      PP17340   2.221   4.284   9.754  0.0523 -0.3166 -0.2766
 7237PP      PP17341   8.545   0.834  11.354  0.0049 -0.1986 -0.0711
 7238PP      PP17342   4.055  14.953   1.149 -0.1479  0.2118 -0.0560
 7239PP      PP17343   8.377   5.223  11.726  0.4057  0.2605  0.0785
 7240PP      PP17344  13.408   9.142  11.715 -0.1191 -0.1073  0.1467
 7241PP      PP17345   5.470   6.201   0.763 -0.1644 -0.1579 -0.2912
 7242PP      PP17346  14.362  10.178   0.689  0.3135  0.0038  0.0342
 7243PP      PP17347  14.798   0.765   1.116 -0.1818  0.0587 -0.0898
 7244PP      PP17348   5.571   5.766   4.296 -0.1101 -0.0084  0.0280
 7245PP      PP17349   7.710  14.691   2.753 -0.1058  0.2150 -0.1255
 7246PP      PP17350   6.658   6.139   3.708  0.2082  0.0525 -0.1469
 7247PP      PP17351   4.004  15.004  10.660 -0.0487  0.0240 -0.2547
 7248PP      PP17352  12.102  12.542  10.979 -0.0805 -0.0770 -0.0651
 7249PP      PP17353   7.293   2.788  10.955  0.0141 -0.1445  0.0001
 7250PP      PP17354   6.496   3.480   3.682 -0.3077 -0.1558  0.2400
 7251PP      PP17355   3.003  12.019  11.432 -0.1567 -0.0024 -0.0456
 7252PP      PP17356   0.478   2.788  11.152  0.3241 -0.4314 -0.2800
 7253PP      PP17357  13.197   8.481  13.269 -0.2480 -0.0647 -0.4623
 7254PP      PP17358  12.828   9.449   2.205 -0.3277 -0.1522 -0.1430
 7255PP      PP17359   2.537   4.168  10.325 -0.1411 -0.3682  0.3146
 7256PP      PP17360   1.099  12.663   2.358  0.0551  0.1182  0.1035
 7257PP      PP17361   3.874   5.511  10.770 -0.2378  0.1873  0.1287
 7258PP      PP17362   5.173   2.772  10.426  0.0423  0.1990 -0.4892
 7259PP      PP17363  13.347  11.015   2.620 -0.0126  0.0981 -0.1440
 7260PP      PP17364  15.646   1.174  12.647 -0.0656  0.3101  0.1437
 7261PP      PP17365   1.949   3.996   1.116 -0.1887 -0.1526  0.1060
 7262PP      PP17366   3.196   6.062   1.283 -0.0530 -0.1835 -0.0409
 7263PP      PP17367  13.117  13.717   1.204  0.0114 -0.2149  0.3153
 7264PP      PP17368  13.420   0.609   0.192  0.1497 -0.1224 -0.5525
 7265PP      PP17369  15.027   8.242  13.728  0.3337  0.0457 -0.1280
 7266PP      PP17370   4.588   1.549   0.257 -0.1500  0.0362  0.0317
 7267PP      PP17371   8.190  14.894  13.073  0.1460  0.0659 -0.0408
 7268PP      PP17372   9.757  12.992  12.364  0.0025  0.0204 -0.1072
 7269PP      PP17373  14.117  13.007   4.906  0.1857  0.2932  0.2402
 7270PP      PP17374  14.909   8.038  12.528 -0.1272  0.0160 -0.3766
 7271PP      PP17375  12.088   0.125  11.275 -0.1205 -0.0816  0.2757
 7272PP      PP17376   3.196   8.276  13.685  0.0495  0.2374 -0.0359
 7273PP      PP17377  12.169   9.187   0.925  0.0335  0.0045 -0.1532
 7274PP      PP17378  14.904   5.287  13.371 -0.0516  0.0838  0.1321
 7275PP      PP17379   8.419   2.535   3.735 -0.0574  0.2516  0.0591
 7276PP      PP17380  11.022   1.497   4.268  0.1147 -0.1006 -0.0779
 7277PP      PP17381   2.012   2.872  11.799  0.1555 -0.0079  0.1123
 7278PP      PP17382   9.222   5.931   0.716  0.3220  0.0893 -0.2614
 7279PP      PP17383   3.312   9.498   1.087  0.0716 -0.0564 -0.1811
 7280PP      PP17384   8.427  15.430   6.663  0.0851 -0.1356 -0.0526
 7281PP      PP17385  13.422  10.994   0.105  0.1820  0.0878  0.1078
 7282PP      PP17386  11.897  10.256   4.000 -0.0607 -0.0325 -0.2663
 7283PP      PP17387  12.333  14.360  13.360  0.2095  0.0934 -0.2889
 7284PP      PP17388   2.713   8.310   3.329  0.1120 -0.2276  0.0975
 7285PP      PP17389  14.277  15.661  13.218  0.0671  0.1227  0.2919
 7286PP      PP17390   0.682  10.477   2.941  0.2263  0.0678 -0.0374
 7287PP      PP17391   6.599  12.970  13.725  0.0937 -0.0594  0.0373
 7288PP      PP17392  12.340  11.426  13.185  0.0994  0.0190  0.0799
 7289PP      PP17393  13.407   1.274  12.626  0.0359  0.0333 -0.0581
 7290PP      PP17394  11.992   3.860  12.665  0.0568 -0.2050 -0.0826
 7291PP      PP17395   0.044   8.516   2.362 -0.1227 -0.1169  0.1466
 7292PP      PP17396   6.655   0.966  13.505  0.0257 -0.0700 -0.1829
 7293PP      PP17397  13.055   9.288  13.584  0.0376  0.0092 -0.1592
 7294PP      PP17398   6.773   4.343   2.722  0.0153 -0.2374  0.0718
 7295PP      PP17399   6.458   5.525   1.754 -0.1150 -0.3486 -0.0731
 7296PP      PP17400  12.099  11.573   2.840 -0.0619 -0.2810 -0.0429
 7297PP      PP17401  12.546   2.962   2.503 -0.1108  0.4934  0.0341
 7298PP      PP17402   0.262   2.800   9.023 -0.1635  0.0532  0.0111
 7299PP      PP17403  13.703  12.480  11.686 -0.0378 -0.0410  0.0182
 7300PP      PP17404   6.338   0.885   2.191  0.0810  0.0081  0.1410
 7301PP      PP17405  12.633   0.874   2.748  0.1056 -0.1099 -0.1750
 7302PP      PP17406  13.832   7.971   2.284 -0.0616 -0.0853 -0.1388
 7303PP      PP17407   4.992   7.570  11.500 -0.1333 -0.1534 -0.0955
 7304PP      PP17408   5.008   2.503  12.683 -0.0576  0.2897 -0.1047
 7305PP      PP17409   1.682  10.694  11.309 -0.5477 -0.0323  0.0214
 7306PP      PP17410   5.435  13.732   2.966  0.1538 -0.0037 -0.2996
 7307PP      PP17411  10.817  14.064   1.779  0.2241  0.3651  0.0069
 7308PP      PP17412   4.128   4.875   8.816 -0.1539  0.2146 -0.1384
 7309PP      PP17413   5.305  10.171  10.045  0.2819 -0.2821 -0.2106
 7310PP      PP17414   4.200   5.368  13.013 -0.0656  0.0116 -0.2639
 7311PP      PP17415   1.381   4.506   0.175 -0.1181  0.1552  0.1415
 7312PP      PP17416   9.061  11.482   0.223 -0.0877 -0.1514  0.0761
 7313PP      PP17417   8.780  10.430  13.147  0.0213  0.0014 -0.0660
 7314PP      PP17418  10.374   8.898   0.351 -0.3023  0.0494 -0.1828
 7315PP      PP17419   6.902   5.448   4.173 -0.0335 -0.1304 -0.2273
 7316PP      PP17420   3.994  10.635  13.452 -0.0342 -0.0326  0.0970
 7317PP      PP17421  11.813   6.077   0.894 -0.2328  0.1347 -0.0325
 7318PP      PP17422  11.485   5.684  10.215 -0.1858 -0.3114  0.3485
 7319PP      PP17423   9.375   4.430  13.289 -0.2982 -0.2939  0.0633
 7320PP      PP17424   2.280  11.213   2.432  0.2165 -0.1179  0.1384
 7321PP      PP17425   0.115   8.168   9.132  0.3436 -0.0684 -0.3441
 7322PP      PP17426  15.521  13.567  12.399 -0.0629  0.0499 -0.0598
 7323PP      PP17427  12.823  10.696   0.560 -0.0949  0.0925 -0.0394
 7324PP      PP17428   6.340   5.423   1.182 -0.1136 -0.1669 -0.1614
 7325PP      PP17429   7.038   7.773  11.762  0.2518  0.0828 -0.0400
 7326PP      PP17430   8.283  15.307   9.676 -0.1696  0.0094  0.0572
 7327PP      PP17431  10.174   8.966   3.843  0.0916 -0.1747 -0.1145
 7328PP      PP17432   8.924   4.459   1.116  0.0172  0.0939 -0.2771
 7329PP      PP17433   0.629   6.405   3.682 -0.0180  0.2648  0.0062
 7330PP      PP17434   4.821   9.943   1.161  0.1382  0.1502  0.2504
 7331PP      PP17435  14.966  14.247   2.622  0.1917 -0.2948  0.1817
 7332PP      PP17436   7.734  15.140  13.022 -0.1693  0.1005 -0.2037
 7333PP      PP17437   9.614  11.508   4.346 -0.0080  0.0788  0.2050
 7334PP      PP17438   5.513   5.718   1.104  0.0688  0.1249  0.0493
 7335PP      PP17439   2.786   5.053  13.630  0.2003 -0.0305  0.0953
 7336PP      PP17440   7.809   2.655  12.910  0.2147  0.0177 -0.1635
 7337PP      PP17441  13.906   8.815   3.011 -0.1337  0.2617 -0.1380
 7338PP      PP17442   0.563   3.314  13.411  0.0466  0.2063  0.1024
 7339PP      PP17443   7.581  15.658   1.114  0.0691  0.1167  0.1942
 7340PP      PP17444  11.948  11.463  11.906  0.2584 -0.1620 -0.3334
 7341PP      PP17445  15.354   8.503  10.843 -0.0105  0.1900  0.2106
 7342PP      PP17446  10.609   5.750   0.469 -0.1488  0.2328 -0.2378
 7343PP      PP17447   2.798   2.013   2.418  0.2370  0.2272 -0.2844
 7344PP      PP17448   4.132   1.585   9.618 -0.2224 -0.0546  0.1843
 7345PP      PP17449   3.084  11.248  10.425  0.1618  0.0204  0.1715
 7346PP      PP17450  11.880   0.298   9.085  0.1833  0.0612 -0.1879
 7347PP      PP17451   2.954  12.756  10.442  0.2997 -0.1606 -0.3073
 7348PP      PP17452  14.075  10.056  13.167 -0.0018 -0.0745 -0.1503
 7349PP      PP17453  13.814  13.044   0.126  0.1396  0.0543  0.1374
 7350PP      PP17454   4.841  15.282   0.556 -0.3537  0.3442  0.0207
 7351PP      PP17455   1.875  13.372   3.694  0.2167  0.0914 -0.0478
 7352PP      PP17456   7.030   1.228   2.579 -0.4528 -0.0198 -0.3426
 7353PP      PP17457   1.591  10.209   4.628 -0.0588  0.1442 -0.0787
 7354PP      PP17458   7.999   8.071   9.841 -0.3244 -0.0445  0.0442
 7355PP      PP17459   2.812  13.847  12.911  0.3844  0.2276 -0.0324
 7356PP      PP17460  10.893   1.758   8.941  0.1077  0.0594  0.0840
 7357PP      PP17461  12.777  12.062   2.483  0.0599  0.5123 -0.2068
 7358PP      PP17462   0.504   4.263   2.448  0.1069  0.4301  0.2165
 7359PP      PP17463  10.671  13.159  11.896 -0.2389  0.2496  0.0079
 7360PP      PP17464   8.995  11.422  13.519  0.0477 -0.0994  0.2972
 7361PP      PP17465  14.203   7.515   1.737  0.0551 -0.3762 -0.3663
 7362PP      PP17466   5.832   7.375   4.689  0.1439  0.1273 -0.0290
 7363PP      PP17467   2.217  14.123  11.858  0.1016  0.2113 -0.2444
 7364PP      PP17468   3.729   6.439  12.211 -0.2917 -0.2135  0.1493
 7365PP      PP17469   4.109   6.154  11.327  0.1112 -0.0641 -0.0674
 7366PP      PP17470   4.248   9.925  13.180  0.2515 -0.1224 -0.1739
 7367PP      PP17471   2.608  10.038  10.401 -0.0675  0.0013  0.2331
 7368PP      PP17472   2.836  15.556  13.770 -0.3053 -0.0067 -0.0316
 7369PP      PP17473  12.051  15.586   1.365 -0.1850 -0.2848  0.0080
 7370PP      PP17474   9.098   6.918  11.717 -0.0813  0.1800  0.0773
 7371PP      PP17475   0.805   2.793   0.236 -0.2502  0.2960  0.3962
 7372PP      PP17476   0.787  14.227  12.745 -0.0332 -0.2223 -0.2311
 7373PP      PP17477   2.668  11.342   3.706 -0.0862 -0.4468 -0.1932
 7374PP      PP17478   6.450   2.496   8.634 -0.1866 -0.1658 -0.0627
 7375PP      PP17479  12.058   7.256   9.640 -0.0613 -0.2656  0.4483
 7376PP      PP17480  13.032   6.749   3.320  0.2473  0.0726  0.0682
 7377PP      PP17481  12.126   0.898   2.838  0.2124  0.3077  0.0483
 7378PP      PP17482   0.353   8.104   8.653  0.1979 -0.1915 -0.0270
 7379PP      PP17483  11.736   6.163   3.290 -0.0748  0.0139  0.0669
 7380PP      PP17484   1.477   6.488   1.126  0.0668 -0.1574 -0.3887
 7381PP      PP17485   9.559   0.776   1.276 -0.0716 -0.0082  0.2546
 7382PP      PP17486   0.433   4.535  12.942  0.1045  0.1128  0.0733
 7383PP      PP17487  12.474  15.378  12.516  0.1788  0.1301 -0.2784
 7384PP      PP17488   2.927   6.464   3.588  0.3718 -0.1102  0.0526
 7385PP      PP17489   2.151   6.868   0.140 -0.2103  0.1832  0.3926
 7386PP      PP17490   6.735  10.791  11.561 -0.0380  0.0824  0.1818
 7387PP      PP17491   9.277  15.503   4.046 -0.2626 -0.0913 -0.0375
 7388PP      PP17492  14.508   3.722   2.007  0.5678 -0.4183  0.3377
 7389PP      PP17493   7.468   8.065  12.291 -0.1201  0.2237 -0.1976
 7390PP      PP17494  14.466  11.933  10.329 -0.0206  0.1825 -0.0889
 7391PP      PP17495   4.301   8.528  12.900 -0.0549 -0.1441  0.1130
 7392PP      PP17496  13.976  15.176   2.472 -0.2902  0.1939  0.0595
 7393PP      PP17497   2.643   8.955   2.781 -0.0433  0.2667  0.0944
 7394PP      PP17498  12.077   5.157   4.020 -0.1761 -0.0828  0.2410
 7395PP      PP17499  15.083  14.881  10.690 -0.3144 -0.1033  0.1902
 7396PP      PP17500   2.151   4.206  11.285  0.1701  0.1273  0.2490
 7397PP      PP17501  13.594  10.824  12.497  0.0822  0.0597  0.0745
 7398PP      PP17502   6.937   3.062   2.335  0.0172  0.0182  0.5329
 7399PP      PP17503   9.410   1.635   2.463  0.2150 -0.3651 -0.0821
 7400PP      PP17504   2.605  13.083   1.023 -0.0019 -0.0436  0.1276
 7401PP      PP17505   7.194   1.395   3.492  0.0429 -0.2784 -0.0850
 7402PP      PP17506   2.688  10.681  11.256  0.0750 -0.0248  0.3176
 7403PP      PP17507   2.339  12.829  12.137  0.3935 -0.0334 -0.2177
 7404PP      PP17508   1.208   4.733   8.935 -0.0448  0.0755  0.0071
 7405PP      PP17509   3.967  13.113  13.019 -0.4276  0.0038  0.0012
 7406PP      PP17510   7.614  12.624  12.530 -0.0961  0.0601  0.2743
 7407PP      PP17511   3.170   9.235  13.744  0.0361 -0.0158 -0.4089
 7408PP      PP17512  15.059  13.879  11.823  0.0806  0.2786 -0.0641
 7409PP      PP17513   6.960  10.162   3.727 -0.0899  0.0119  0.1112
 7410PP      PP17514   8.854   0.163  13.377  0.0919  0.1172 -0.1536
 7411PP      PP17515  13.045   4.133   9.145 -0.1125 -0.1870 -0.2776
 7412PP      PP17516   2.322   9.623   1.958 -0.1252  0.0156 -0.1602
 7413PP      PP17517   4.678   8.399  13.734  0.2301 -0.2570  0.0151
 7414PP      PP17518   1.355   6.409   4.427 -0.3834 -0.1633  0.0465
 7415PP      PP17519   5.335   0.193   9.924  0.2747  0.3084  0.0752
 7416PP      PP17520   8.674   3.843   8.002  0.0735 -0.0247 -0.1710
 7417PP      PP17521  12.605  13.365   5.610 -0.1657 -0.2067  0.0431
 7418PP      PP17522  14.657   0.210   1.322 -0.1172 -0.3358  0.0975
 7419PP      PP17523  13.650   5.667   9.664 -0.0478 -0.0833  0.0615
 7420PP      PP17524   0.238   2.771   1.478  0.2564  0.2912  0.1110
 7421PP      PP17525  11.720   6.776   9.880  0.0638  0.1205 -0.0192
 7422PP      PP17526   4.573   5.662   1.973 -0.1390 -0.0239 -0.0496
 7423PP      PP17527  10.747  12.040   1.700  0.3571 -0.2215  0.0151
 7424PP      PP17528   2.546   0.110  10.447  0.0118 -0.1090  0.1267
 7425PP      PP17529   5.500   9.022  10.832 -0.1613  0.0508  0.0756
 7426PP      PP17530   1.236   0.063   2.428  0.0826  0.3887  0.1228
 7427PP      PP17531   1.934  15.473   9.692  0.3808 -0.0407 -0.2630
 7428PP      PP17532   9.210  13.084   2.554 -0.0887 -0.0003 -0.2273
 7429PP      PP17533   9.482  14.190  12.056  0.0299  0.2665 -0.2369
 7430PP      PP17534   5.885   3.624  11.958 -0.0065  0.1846 -0.2979
 7431PP      PP17535   8.859   0.312  11.132  0.2666  0.1376  0.0350
 7432PP      PP17536  14.352   4.784  13.497  0.0093  0.1357 -0.1831
 7433PP      PP17537  11.492   9.231   3.410 -0.0800  0.0193 -0.2229
 7434PP      PP17538   1.425   7.155  12.114 -0.4053 -0.0078 -0.0227
 7435PP      PP17539   6.508  14.862  11.518 -0.0033 -0.0930  0.3375
 7436PP      PP17540   1.147  12.574   3.718  0.0908  0.3911  0.2352
 7437PP      PP17541   2.342  12.502  13.733  0.3689 -0.0423 -0.0173
 7438PP      PP17542   7.654   8.690  10.202  0.0135 -0.0012 -0.3103
 7439PP      PP17543  13.059   0.144   3.250  0.2136 -0.1409  0.1123
 7440PP      PP17544   1.004   8.938  10.003 -0.0259 -0.0645 -0.0208
 7441PP      PP17545   3.896  11.841  12.249  0.2136 -0.1746 -0.0256
 7442PP      PP17546  11.571  11.737   3.405 -0.1340  0.1115  0.3087
 7443PP      PP17547   7.948   3.211  11.022  0.0669  0.0966  0.5091
 7444PP      PP17548   5.172  12.553  11.039 -0.0915  0.2428 -0.1639
 7445PP      PP17549   6.477   3.800   1.150  0.0337 -0.0978 -0.4840
 7446PP      PP17550  14.298   0.190  11.026 -0.2292  0.0588 -0.2253
 7447PP      PP17551   7.837   4.820   3.678  0.0757 -0.2098 -0.1109
 7448PP      PP17552  10.937   2.249  13.526 -0.2695  0.4296 -0.1507
 7449PP      PP17553  15.438   8.461   0.046  0.1907  0.2468 -0.1298
 7450PP      PP17554   0.959  12.835   3.185  0.0679  0.0829 -0.1524
 7451PP      PP17555  10.339  12.393  11.396 -0.4833  0.0873 -0.1797
 7452PP      PP17556   9.300   2.935   9.788  0.0548  0.4059  0.0031
 7453PP      PP17557  11.812   1.104   8.862  0.0429  0.3785  0.0438
 7454PP      PP17558   6.462   8.092   1.507  0.0335  0.3222 -0.2436
 7455PP      PP17559  13.047   5.484   9.113 -0.0941  0.0812 -0.0684
 7456PP      PP17560   1.237  10.315  12.353  0.1100  0.0813 -0.2353
 7457PP      PP17561   7.307   6.283  10.672 -0.2797  0.1632 -0.2894
 7458PP      PP17562   7.149  12.929   2.726  0.0533  0.0270 -0.0189
 7459PP      PP17563  11.120   0.378  11.525  0.5466  0.1223 -0.0749
 7460PP      PP17564   2.057  15.179  10.033  0.0910  0.2230 -0.0184
 7461PP      PP17565  14.714  10.914  11.152 -0.2138  0.1877  0.2466
 7462PP      PP17566  10.826   8.503   3.926 -0.3370 -0.2250 -0.0298
 7463PP      PP17567   6.729  12.381   1.211 -0.0975  0.3941  0.1904
 7464PP      PP17568   2.089   8.354   1.026  0.1239  0.2440  0.0769
 7465PP      PP17569  15.715   7.686   9.834 -0.0568  0.0370  0.0277
 7466PP      PP17570   8.155   6.465   0.870 -0.0273 -0.1096  0.3001
 7467PP      PP17571  15.567   8.238   2.837 -0.0291 -0.1637  0.1626
 7468PP      PP17572   8.639   9.530   3.035  0.0915  0.2542 -0.0211
 7469PP      PP17573  12.890   8.346   3.729  0.1606  0.1172  0.0108
 7470PP      PP17574   5.566  14.468  13.781 -0.1278  0.2354  0.3061
 7471PP      PP17575  10.945  10.871   0.703  0.2316  0.0365 -0.3303
 7472PP      PP17576  12.905   0.611   3.705 -0.2202 -0.0452  0.0130
 7473PP      PP17577  13.867   0.902   2.532  0.1334  0.1389  0.1831
 7474PP      PP17578   0.526   2.573  10.262  0.1527  0.2827 -0.1737
 7475PP      PP17579  15.103  12.543   3.571 -0.1443  0.0223 -0.3086
 7476PP      PP17580   8.475   4.712   0.076  0.3794 -0.1322  0.4072
 7477PP      PP17581  11.669  10.668   2.406 -0.1741 -0.2384  0.1762
 7478PP      PP17582  14.026   6.406   3.682  0.0056 -0.3004  0.0044
 7479PP      PP17583   8.667  11.127  13.768 -0.1687 -0.3575 -0.0258
 7480PP      PP17584  12.366   6.520  13.665 -0.5401 -0.0725 -0.1232
 7481PP      PP17585   7.748   1.112   0.231  0.0084  0.1202 -0.1477
 7482PP      PP17586   0.225  10.814   3.156 -0.0651  0.2207 -0.0998
 7483PP      PP17587  13.897   9.763   3.333 -0.0590 -0.2757  0.0909
 7484PP      PP17588  11.588   9.496   9.100 -0.2932 -0.2007  0.1035
 7485PP      PP17589   9.626  13.941   0.800  0.0224  0.0868 -0.0642
 7486PP      PP17590  14.407   5.792   3.825 -0.2220 -0.1604  0.0601
 7487PP      PP17591   5.461  13.342   0.965  0.1625  0.2341  0.3133
 7488PP      PP17592   4.467  10.228  10.006 -0.1808  0.0236 -0.2211
 7489PP      PP17593  12.384  14.809  13.067 -0.1412  0.1498 -0.2135
 7490PP      PP17594  13.426  11.901   4.195 -0.0379  0.1784 -0.0036
 7491PP      PP17595  11.490   1.484   3.180  0.1389  0.1409  0.1119
 7492PP      PP17596   1.347  13.977   1.669 -0.1325 -0.2500 -0.1655
 7493PP      PP17597  12.538  11.629   2.487 -0.1371 -0.0181 -0.0310
 7494PP      PP17598  14.119   8.029   9.004  0.1213  0.0207  0.2445
 7495PP      PP17599   6.487  10.716  11.160 -0.0112 -0.1965 -0.0867
 7496PP      PP17600  14.241  13.856   1.021 -0.0494 -0.2157  0.1295
 7497PP      PP17601  14.534   4.887   2.732 -0.2688 -0.0809  0.3267
 7498PP      PP17602   0.192   1.384  12.272  0.3517  0.2071  0.0926
 7499PP      PP17603   3.785   5.189  13.234  0.1002 -0.1462 -0.0268
 7500PP      PP17604  13.784   4.025   1.307 -0.1048 -0.3852 -0.0230
 7501PP      PP17605   5.919   9.802   1.324  0.3665 -0.3733  0.3483
 7502PP      PP17606   3.333   9.727  11.689 -0.3175  0.1654  0.0705
 7503PP      PP17607  11.429  14.950  10.624  0.0546  0.2089  0.3952
 7504PP      PP17608   6.568   2.948   2.055 -0.1818  0.2146  0.0920
 7505PP      PP17609   5.460   7.532  11.728  0.1055 -0.0514 -0.1932
 7506PP      PP17610   8.686   3.322   8.460 -0.1163 -0.0759 -0.0328
 7507PP      PP17611   2.819   1.600  13.622 -0.2282 -0.0023  0.2023
 7508PP      PP17612   5.482  14.970  10.996 -0.3351  0.0651 -0.1945
 7509PP      PP17613  15.533   4.114   0.579  0.0054  0.0750 -0.1846
 7510PP      PP17614  12.675   8.109   9.220 -0.0544 -0.1521 -0.0234
 7511PP      PP17615   4.068   7.664  13.073  0.0015  0.0398 -0.1354
 7512PP      PP17616   1.068   5.964   0.573  0.1868 -0.1151 -0.0444
 7513PP      PP17617  14.383  10.943  13.335  0.0031  0.0659 -0.2113
 7514PP      PP17618  12.578   7.679  13.578 -0.4793 -0.0640 -0.2922
 7515PP      PP17619  15.715   4.864  10.066 -0.0705  0.2318 -0.4369
 7516PP      PP17620   4.024   0.709   0.261  0.1553  0.1201 -0.4278
 7517PP      PP17621  11.691  13.365  12.141  0.1956 -0.0991  0.3980
 7518PP      PP17622   9.927   8.087   0.788  0.2365  0.0258  0.0045
 7519PP      PP17623   9.850  13.815  12.020 -0.1018 -0.0631 -0.2330
 7520PP      PP17624   1.022   9.458   4.836 -0.2164 -0.1671  0.0616
 7521PP      PP17625   7.100   4.737   2.901  0.3573  0.0260 -0.0899
 7522PP      PP17626   1.728   2.813   0.299 -0.0022 -0.2676 -0.0374
 7523PP      PP17627   2.636   4.251   4.362 -0.0474 -0.1917  0.0982
 7524PP      PP17628   1.657   3.897   3.206  0.0773 -0.3360 -0.2353
 7525PP      PP17629   8.028   8.614  10.521  0.2174  0.0413 -0.2507
 7526PP      PP17630   0.293   3.868  10.185  0.0057  0.1212 -0.0003
 7527PP      PP17631   8.098   1.898   9.570 -0.1376 -0.3297 -0.0284
 7528PP      PP17632   1.226   1.839  12.389  0.4617 -0.1307  0.1074
 7529PP      PP17633   5.968   6.950  13.435  0.0062  0.2954 -0.1870
 7530PP      PP17634   2.945   6.021   0.837  0.0169  0.0780  0.4810
 7531PP      PP17635  12.922   2.330  11.540 -0.3585 -0.2780  0.0554
 7532PP      PP17636   1.558   3.006  12.136  0.0434 -0.2324  0.1471
 7533PP      PP17637  12.773   6.412   0.161  0.3752  0.1483 -0.0640
 7534PP      PP17638  12.984   3.317  12.829  0.1914 -0.1381 -0.0274
 7535PP      PP17639   4.992   0.963  11.964  0.2231 -0.0673  0.2665
 7536PP      PP17640  15.105   8.537   0.393 -0.0548 -0.0041  0.0094
 7537PP      PP17641  13.026   6.193   1.031  0.0975  0.0486 -0.0103
 7538PP      PP17642   0.142   6.271  12.532  0.0107 -0.1078 -0.1736
 7539PP      PP17643   0.565   4.622   8.706 -0.3051 -0.1973 -0.0258
 7540PP      PP17644   6.151   9.097   0.992 -0.0670  0.0051 -0.0834
 7541PP      PP17645   4.207   2.884  11.794  0.3402  0.0174  0.0363
 7542PP      PP17646   5.551   9.127   9.283 -0.3036 -0.0951  0.0757
 7543PP      PP17647  15.127   9.436  12.600 -0.0729 -0.0053 -0.0806
 7544PP      PP17648  11.415   6.720   4.206  0.3079 -0.2032 -0.1235
 7545PP      PP17649  13.290   9.817   9.813 -0.3090 -0.2558 -0.1518
 7546PP      PP17650   8.298  12.215  11.710 -0.0714  0.0777  0.1544
 7547PP      PP17651  12.564   5.157  13.259 -0.0346  0.1003 -0.1165
 7548PP      PP17652  12.435  11.992  10.364  0.0423  0.0810  0.2795
 7549PP      PP17653  10.765   1.202   0.959  0.2760 -0.0236 -0.0611
 7550PP      PP17654   0.617   4.885   0.577 -0.0113  0.2443  0.1584
 7551PP      PP17655  11.092   1.069  13.039 -0.1321 -0.0919  0.0624
 7552PP      PP17656   3.150  13.114   1.757  0.2043  0.3295 -0.1390
 7553PP      PP17657  12.620   0.643  11.061 -0.3062 -0.1684  0.1652
 7554PP      PP17658   2.650  10.429   4.676  0.2132 -0.1902  0.0773
 7555PP      PP17659  10.344  15.255  13.201  0.1640  0.1343 -0.0046
 7556PP      PP17660   8.713   8.613   0.647 -0.5045  0.0860  0.2137
 7557PP      PP17661  14.753  13.645  10.723 -0.0002 -0.2002 -0.1531
 7558PP      PP17662  15.489  12.405  10.499  0.2290 -0.0154  0.1082
 7559PP      PP17663   8.781   7.373   3.559 -0.3133  0.0237 -0.0871
 7560PP      PP17664  10.688   7.615  13.096  0.1544  0.0058  0.0332
 7561PP      PP17665   9.832   7.623   9.488  0.1876  0.2711 -0.2260
 7562PP      PP17666  10.414  13.948   1.468 -0.0264 -0.1751  0.0629
 7563PP      PP17667  13.859   8.881   0.583  0.1010 -0.0586 -0.1986
 7564PP      PP17668  15.450   6.064   1.060 -0.0284 -0.2495 -0.1969
 7565PP      PP17669   9.736   4.197  13.595  0.0760  0.1392  0.1841
 7566PP      PP17670   7.261   0.429   8.317 -0.0994  0.1272 -0.2334
 7567PP      PP17671   3.225   2.871   9.699 -0.0515  0.2021  0.1964
 7568PP      PP17672   7.001   0.032  12.190 -0.3364  0.1532 -0.0432
 7569PP      PP17673  11.418   0.515   9.390 -0.2623  0.0321 -0.0634
 7570PP      PP17674  12.460  13.925   9.380 -0.0685 -0.2016 -0.0146
 7571PP      PP17675  12.998   3.698  11.956 -0.0252  0.1576  0.2092
 7572PP      PP17676  14.266   4.263  12.683  0.1988 -0.2301 -0.4125
 7573PP      PP17677   2.708  14.973   1.742 -0.0005  0.0663  0.0695
 7574PP      PP17678   5.577  12.603   3.906  0.0832  0.2624  0.2068
 7575PP      PP17679   6.333   2.777   0.692 -0.0166 -0.2846  0.0571
 7576PP      PP17680   5.852   0.821   2.332 -0.3021  0.4111 -0.0678
 7577PP      PP17681   7.604   3.484  13.365 -0.0233 -0.0715  0.0059
 7578PP      PP17682  12.402  12.735   2.709 -0.1247 -0.0682  0.2480
 7579PP      PP17683   5.076   6.475   3.451 -0.0402  0.0368 -0.1523
 7580PP      PP17684   9.013  15.206   1.387  0.0187  0.1993  0.0303
 7581PP      PP17685   4.411   9.754  11.290 -0.0102 -0.0276  0.1652
 7582PP      PP17686  13.415  11.481  10.406  0.1835  0.0044  0.1380
 7583PP      PP17687   2.003   7.283   8.670 -0.0473  0.0662  0.1828
 7584PP      PP17688   1.448  10.757  12.097  0.2512  0.3615  0.1037
 7585PP      PP17689  14.435   4.322   1.672 -0.0364 -0.1532  0.1958
 7586PP      PP17690   1.453   0.741   1.906  0.0575 -0.0202  0.0448
 7587PP      PP17691  13.928  10.520  13.348  0.0396 -0.2474  0.0757
 7588PP      PP17692   6.376   5.630  13.085  0.2293 -0.1123 -0.0408
 7589PP      PP17693   9.619  13.361  11.858 -0.2771 -0.1814 -0.4173
 7590PP      PP17694  10.186  13.707   1.819  0.0919  0.0219  0.0075
 7591PP      PP17695   3.517  10.680   2.134  0.1531  0.1965  0.0029
 7592PP      PP17696  10.939  15.275   4.503  0.0082 -0.2432  0.2371
 7593PP      PP17697   0.735   6.884   4.032 -0.0430 -0.0146 -0.1359
 7594PP      PP17698  11.289  10.029  11.592  0.0613 -0.2673  0.0317
 7595PP      PP17699   2.445  12.898   9.500 -0.1199 -0.1084  0.1623
 7596PP      PP17700  13.855   1.238   3.706 -0.0080 -0.1374 -0.0098
 7597PP      PP17701  11.031  12.025   0.086 -0.2691  0.1360  0.1093
 7598PP      PP17702  13.108   4.690  12.345  0.1254  0.2432  0.0485
 7599PP      PP17703   9.911  14.557   3.281 -0.1090 -0.1083 -0.0317
 7600PP      PP17704  13.686  12.629  12.709 -0.1114  0.2322 -0.1546
 7601PP      PP17705   1.098  11.555  12.149 -0.2096 -0.2348 -0.4036
 7602PP      PP17706  13.908  11.790  11.118 -0.0484  0.1996 -0.1206
 7603PP      PP17707   8.594  11.155   3.338 -0.0441 -0.0758  0.0778
 7604PP      PP17708  13.534   2.747   2.797 -0.0213 -0.3686 -0.1822
 7605PP      PP17709   1.759  15.040  11.179  0.2497 -0.0486 -0.2507
 7606PP      PP17710   1.572  12.574   0.002 -0.2111  0.1570  0.0207
 7607PP      PP17711   1.713  12.116   4.983 -0.2203 -0.0182  0.1661
 7608PP      PP17712   5.836   6.160   2.879  0.1708 -0.2505 -0.1419
 7609PP      PP17713   3.851   6.886   2.986 -0.1102  0.0834 -0.0981
 7610PP      PP17714   7.086   4.820   7.899 -0.0680  0.1107  0.0036
 7611PP      PP17715   4.500   5.810   3.817 -0.0405  0.0589 -0.2390
 7612PP      PP17716   0.927   5.166  12.504 -0.0307 -0.0797  0.0158
 7613PP      PP17717  10.654   7.143   0.433 -0.0913  0.0479 -0.1870
 7614PP      PP17718  12.401  14.802   1.297 -0.2257  0.0960 -0.1264
 7615PP      PP17719   0.901  12.652  10.834 -0.0681  0.3699  0.0487
 7616PP      PP17720   5.633   0.604  13.257 -0.1561 -0.0804 -0.1754
 7617PP      PP17721   1.325   5.965  10.650 -0.2457 -0.2261  0.0529
 7618PP      PP17722   6.905  12.678  11.769  0.0243 -0.0142  0.1813
 7619PP      PP17723  10.824  10.300   0.895  0.2863  0.1145 -0.2590
 7620PP      PP17724   9.848   6.685  12.987  0.0521 -0.1197 -0.2242
 7621PP      PP17725   8.676   4.098   2.391  0.4157 -0.0477 -0.3706
 7622PP      PP17726  15.580   8.750   2.800  0.0773 -0.3772 -0.2799
 7623PP      PP17727  13.891   5.700  12.571  0.0053 -0.3397 -0.0175
 7624PP      PP17728   8.427  14.080  12.058 -0.1506  0.0281  0.1033
 7625PP      PP17729   9.897   7.199  12.880  0.0334 -0.1346 -0.0995
 7626PP      PP17730   0.138  14.900   2.651 -0.0046  0.0638 -0.4380
 7627PP      PP17731  14.397   2.867   1.876  0.0501  0.3716  0.1288
 7628PP      PP17732   3.627   1.844  10.538  0.1429 -0.0259  0.2711
 7629PP      PP17733   6.170  12.263   3.201  0.1791 -0.0219 -0.1968
 7630PP      PP17734  13.496   5.009   3.513 -0.4512  0.0527  0.2022
 7631PP      PP17735  10.513   7.230   4.151 -0.0835  0.0609  0.0546
 7632PP      PP17736   6.163   7.984   8.985  0.2788  0.0587  0.0354
 7633PP      PP17737   0.732   1.336  11.038  0.1812 -0.4034 -0.0122
 7634PP      PP17738  13.915   2.454  12.288  0.0960  0.1860  0.3113
 7635PP      PP17739  14.250  11.454  12.517 -0.0151  0.2847  0.1706
 7636PP      PP17740   2.444   5.623   3.937  0.0612  0.0783  0.2444
 7637PP      PP17741  12.079   9.282  12.919  0.4164 -0.3921  0.0940
 7638PP      PP17742   7.958   7.708  11.557  0.2851  0.0679 -0.2873
 7639PP      PP17743  13.452   6.034  12.674  0.1635 -0.0501 -0.1528
 7640PP      PP17744  12.497  15.207  11.426  0.1254 -0.1313 -0.2012
 7641PP      PP17745   1.654   8.955   0.630  0.0269  0.1491  0.0587
 7642PP      PP17746   2.617   1.968   2.919 -0.1046 -0.0462  0.3939
 7643PP      PP17747   8.862   1.278   8.824  0.1955  0.0167  0.1118
 7644PP      PP17748  12.669   3.499  10.043 -0.2753  0.0986  0.0176
 7645PP      PP17749   3.393   5.101  11.833 -0.2544  0.2122  0.2624
 7646PP      PP17750  11.438   2.878   8.639 -0.0890 -0.0781 -0.0329
 7647PP      PP17751  14.372  15.158  10.467  0.1479  0.1317 -0.2296
 7648PP      PP17752  11.494  14.597   1.816 -0.0321 -0.1284 -0.2347
 7649PP      PP17753   5.833   9.119  10.396  0.0060 -0.0785 -0.1713
 7650PP      PP17754  12.476  13.203   9.867 -0.0124 -0.2817 -0.0755
 7651PP      PP17755   3.742   5.783   3.587  0.0560 -0.2012  0.3386
 7652PP      PP17756  11.912   0.416  12.166 -0.0590  0.0410 -0.0449
 7653PP      PP17757   3.696  15.429   3.221  0.0040  0.0884  0.0105
 7654PP      PP17758  12.529   7.067  12.991  0.1495 -0.1387  0.0405
 7655PP      PP17759   0.480   4.954   9.962  0.2857  0.0225 -0.0846
 7656PP      PP17760   7.339   8.301   1.182  0.3698 -0.0889 -0.1171
 7657PP      PP17761  15.226  15.121   9.908 -0.1184 -0.0332  0.1664
 7658PP      PP17762  13.923  10.075  13.632 -0.1460 -0.1235  0.1209
 7659PP      PP17763   0.040   7.760   8.406  0.1644  0.3450 -0.2440
 7660PP      PP17764   2.538   3.648  12.840  0.3429 -0.0940 -0.1366
 7661PP      PP17765  13.937   4.668  13.768  0.0840 -0.0745 -0.0119
 7662PP      PP17766   7.860   2.096   2.039 -0.1633 -0.1102  0.2441
 7663PP      PP17767  12.521  13.132   0.833 -0.2159  0.2045  0.0962
 7664PP      PP17768  10.142  14.484   0.189  0.1913  0.2226 -0.1793
 7665PP      PP17769   1.590   6.093  12.494 -0.1185 -0.2111 -0.0526
 7666PP      PP17770   3.750   9.161   2.640 -0.3453 -0.0473  0.0162
 7667PP      PP17771  14.125   9.121   0.864 -0.0179  0.1881 -0.1628
 7668PP      PP17772   2.415   6.049   0.076  0.1560  0.0818 -0.0741
 7669PP      PP17773   5.625  12.708   4.733  0.0017  0.0243 -0.0439
 7670PP      PP17774   5.283  11.455  12.808 -0.0457  0.3242  0.3994
 7671PP      PP17775   4.824   1.316   2.529  0.1421 -0.0983  0.1309
 7672PP      PP17776  14.471   3.016  12.064  0.0318 -0.0359 -0.0028
 7673PP      PP17777  10.708   3.324   9.551  0.0686 -0.1485  0.0021
 7674PP      PP17778  13.874   0.789   3.434 -0.1127 -0.3050  0.0368
 7675PP      PP17779   1.528   7.557   8.810 -0.3355 -0.0075 -0.0198
 7676PP      PP17780  12.914  11.303  11.208 -0.2472  0.1525 -0.0917
 7677PP      PP17781  11.982   3.987  10.620  0.1364  0.0890 -0.1599
 7678PP      PP17782   7.719  12.760   1.487  0.3647  0.0926  0.2675
 7679PP      PP17783   0.761   9.425  11.143 -0.1366 -0.0439  0.5991
 7680PP      PP17784   3.292   8.730   1.608  0.1011 -0.0835  0.2794
 7681PP      PP17785  15.558   5.518  13.644 -0.0161  0.2410  0.0387
 7682PP      PP17786  14.490   0.589  10.682 -0.0876 -0.0044 -0.0209
 7683PP      PP17787   0.846   3.009   4.022 -0.1459 -0.0445 -0.2312
 7684PP      PP17788   4.969   7.780  13.603 -0.2303 -0.3654 -0.0399
 7685PP      PP17789  10.247  14.227  12.807  0.1899 -0.2600 -0.1522
 7686PP      PP17790  12.863  12.476   5.018 -0.1520 -0.0041  0.2647
 7687PP      PP17791   2.640  14.248  10.800 -0.2641 -0.0519 -0.1560
 7688PP      PP17792  10.398  15.433   1.532 -0.1761 -0.0533 -0.3079
 7689PP      PP17793   0.810  11.387   2.465 -0.1194  0.2210 -0.0353
 7690PP      PP17794   1.602  13.822  11.619  0.0142  0.0785  0.0121
 7691PP      PP17795   7.216   8.594  10.384 -0.0225  0.0091 -0.0655
 7692PP      PP17796   7.845  11.255   1.640 -0.1255  0.1392 -0.2827
 7693PP      PP17797  14.612  10.457  10.121 -0.0809 -0.1172 -0.0396
 7694PP      PP17798  10.212   7.564   2.157 -0.2380  0.1789 -0.2731
 7695PP      PP17799   5.627  14.593  12.263  0.3959  0.0283 -0.0176
 7696PP      PP17800   5.348  10.710   2.240  0.1763 -0.1827 -0.2931
 7697PP      PP17801   7.230  12.888   4.824 -0.1554 -0.0865  0.0663
 7698PP      PP17802   1.955   7.929   1.277 -0.2225 -0.1889 -0.1334
 7699PP      PP17803   6.355   8.887   2.414 -0.2744  0.1679 -0.2407
 7700PP      PP17804  13.983   6.128   2.865  0.0336 -0.3617 -0.0289
 7701PP      PP17805  14.218   7.477  10.637 -0.1624  0.0155 -0.0988
 7702PP      PP17806   2.354   9.850  13.630 -0.1136  0.0606 -0.5692
 7703PP      PP17807   8.941   1.162   1.100  0.1637  0.2571 -0.0366
 7704PP      PP17808  14.848  13.001  11.985 -0.1756 -0.1821 -0.0241
 7705PP      PP17809   5.347   6.309  12.968  0.0332 -0.0812 -0.1708
 7706PP      PP17810   6.767   7.891   4.501  0.1740  0.0189 -0.2117
 7707PP      PP17811  11.240  14.910   9.339 -0.5920 -0.1825  0.0383
 7708PP      PP17812   7.411   4.827   2.395  0.0616  0.0983  0.2094
 7709PP      PP17813   5.026   5.968  13.776  0.4806 -0.2813  0.1503
 7710PP      PP17814   7.621   9.810   9.418  0.1942  0.0208 -0.1009
 7711PP      PP17815   6.991   4.959   8.411 -0.0748  0.2965 -0.2155
 7712PP      PP17816   8.616  10.214   2.792  0.0049 -0.0975 -0.0118
 7713PP      PP17817   0.667  14.864   2.907 -0.0175  0.1563 -0.4508
 7714PP      PP17818   6.079  13.569   1.621 -0.4414  0.1355 -0.5379
 7715PP      PP17819  10.835   2.627  12.532 -0.1183  0.2039  0.4802
 7716PP      PP17820   3.120   6.421  11.396  0.1680  0.0368 -0.2998
 7717PP      PP17821  10.768  11.844  10.491  0.0866 -0.1714 -0.1031
 7718PP      PP17822   4.861   6.502  12.479 -0.0455 -0.0140 -0.0592
 7719PP      PP17823  11.419   7.690   9.723 -0.0197  0.3600  0.0206
 7720PP      PP17824  12.473   5.921   9.973  0.0382 -0.0855  0.3234
 7721PP      PP17825   9.743  10.960  12.146 -0.1509  0.3347 -0.0634
 7722PP      PP17826   8.792  14.467  11.805 -0.1153  0.0628 -0.3838
 7723PP      PP17827   7.943   1.483   2.194 -0.1553 -0.0481 -0.0696
 7724PP      PP17828   5.714   9.321   2.068 -0.0393  0.1334 -0.0403
 7725PP      PP17829  12.667   0.032   1.587 -0.0791 -0.0357 -0.0175
 7726PP      PP17830  10.614   5.149   1.795 -0.0483  0.1811  0.2858
 7727PP      PP17831   3.245   1.086   2.196  0.3769  0.5439  0.0019
 7728PP      PP17832   5.729   6.624   9.227  0.0061  0.0611  0.0600
 7729PP      PP17833  15.069   4.503   2.862  0.0448 -0.2122 -0.1462
 7730PP      PP17834  11.152   9.111   3.947 -0.0493  0.2540  0.1285
 7731PP      PP17835   7.025  13.073  10.840  0.0774  0.0174  0.1168
 7732PP      PP17836   3.279   1.165   2.682  0.2037 -0.2091 -0.0196
 7733PP      PP17837   1.718  13.300  13.130 -0.2375 -0.3387 -0.0052
 7734PP      PP17838   7.142  11.647  10.450 -0.1286 -0.3155  0.1996
 7735PP      PP17839   4.448   7.144   2.384  0.0311  0.1375 -0.2145
 7736PP      PP17840   4.440   3.997   1.767 -0.3068 -0.1521  0.0722
 7737PP      PP17841  12.681   2.040   1.868  0.0618 -0.1451 -0.0973
 7738PP      PP17842   4.762  13.011  10.820 -0.2302 -0.0205  0.0163
 7739PP      PP17843  14.844   6.950   3.936  0.1868 -0.0685  0.3274
 7740PP      PP17844   3.477   3.764  11.671  0.0455 -0.1609  0.0190
 7741PP      PP17845   9.712  10.619   4.763 -0.0991 -0.1636 -0.3306
 7742PP      PP17846  13.063   6.893  12.486  0.2755  0.3253 -0.3759
 7743PP      PP17847   4.825  14.181  10.977  0.0925 -0.0152 -0.2732
 7744PP      PP17848  15.062  13.566   2.377  0.1403  0.2498 -0.1459
 7745PP      PP17849   6.734   4.439  11.543  0.3603  0.0420  0.2063
 7746PP      PP17850  12.181   1.381   3.606  0.0916  0.0902 -0.1081
 7747PP      PP17851  11.253  12.783   9.133 -0.0896 -0.2320  0.2249
 7748PP      PP17852   6.591  14.135   2.231  0.3384 -0.0602  0.0320
 7749PP      PP17853  11.218   2.490   0.515  0.0939  0.2621 -0.0603
 7750PP      PP17854   3.437   2.367   0.864  0.1087  0.2597 -0.2528
 7751PP      PP17855   4.313   9.174  12.708 -0.0338  0.1090  0.2847
 7752PP      PP17856   0.603   4.021   8.761 -0.2581  0.0689  0.2582
 7753PP      PP17857  13.120  11.977  12.656  0.0580  0.0239  0.1882
 7754PP      PP17858  13.025   3.996   1.822  0.1344 -0.0049 -0.1595
 7755PP      PP17859  15.708  13.585   0.870  0.0887  0.1444 -0.0899
 7756PP      PP17860   8.340  10.947   1.790  0.0774 -0.1194  0.1626
 7757PP      PP17861   5.668   9.187   3.601 -0.0434  0.2409 -0.1897
 7758PP      PP17862   4.443  13.131   2.093 -0.0587 -0.1291  0.0740
 7759PP      PP17863   6.074   2.247  11.804 -0.1186  0.2926 -0.2886
 7760PP      PP17864  14.195   7.538   3.398 -0.0611  0.0573 -0.0087
 7761PP      PP17865  10.327  10.685   1.349  0.0897 -0.0949 -0.0899
 7762PP      PP17866  13.116   4.922   0.282 -0.2472  0.1624 -0.1610
 7763PP      PP17867   4.884   7.024   4.327  0.0830 -0.3019 -0.1526
 7764PP      PP17868   4.649   9.832   5.192  0.1676  0.1903  0.2270
 7765PP      PP17869   2.051   3.788  12.949  0.1350  0.0705 -0.2738
 7766PP      PP17870  11.782   2.516   0.249 -0.1542 -0.1342  0.1224
 7767PP      PP17871   7.756  13.051  10.571  0.0178  0.0297 -0.0142
 7768PP      PP17872   6.052   4.349   8.447 -0.4181  0.0155  0.1313
 7769PP      PP17873   8.081   4.032   8.744  0.0127 -0.2526 -0.2693
 7770PP      PP17874  12.201  15.191   1.655  0.0373  0.1960  0.0700
 7771PP      PP17875  13.144   0.675   1.037 -0.0411  0.1222  0.1121
 7772PP      PP17876   2.081   7.586   3.709  0.1463 -0.0878 -0.2043
 7773PP      PP17877   8.645   4.677   2.466  0.3178 -0.1148  0.0368
 7774PP      PP17878   7.924   2.621   3.425  0.1716 -0.1131  0.0378
 7775PP      PP17879   7.172   1.067   0.460 -0.1938 -0.2112 -0.3705
 7776PP      PP17880   7.508   6.347   2.037  0.1475  0.4201 -0.0652
 7777PP      PP17881  13.005   1.057   1.358 -0.0755  0.2135 -0.0473
 7778PP      PP17882  11.739  11.375  13.097 -0.2975 -0.0172 -0.1848
 7779PP      PP17883   6.431   5.875  11.786 -0.2523 -0.0723 -0.2993
 7780PP      PP17884   0.217   4.015   1.287  0.1491 -0.4627 -0.3569
 7781PP      PP17885  11.206   5.390   9.841 -0.0680  0.4239 -0.2063
 7782PP      PP17886   4.210  14.534  10.297  0.2254  0.3342  0.4446
 7783PP      PP17887   8.928   0.307   1.415  0.1819  0.2550 -0.1884
 7784PP      PP17888   6.522   5.020   0.965  0.1358  0.1832 -0.1133
 7785PP      PP17889  15.454   6.055   9.170 -0.3206  0.2808 -0.1564
 7786PP      PP17890   5.839   6.998   2.531  0.2958 -0.2234  0.0277
 7787PP      PP17891  14.945  13.209   4.327 -0.1286  0.1457  0.0939
 7788PP      PP17892   6.664  12.430   2.011 -0.0427 -0.0258  0.1051
 7789PP      PP17893  13.986   1.062   9.260  0.1095 -0.1455 -0.0324
 7790PP      PP17894   0.278  14.492  10.080 -0.0687  0.2017  0.1428
 7791PP      PP17895   8.282   5.741  13.716  0.0441  0.0008  0.1403
 7792PP      PP17896   1.287   7.358   9.985 -0.0523 -0.1588 -0.1178
 7793PP      PP17897  15.634   6.016   3.359 -0.1988 -0.3039 -0.0519
 7794PP      PP17898   0.052   4.928   2.195 -0.1253 -0.0379 -0.0280
 7795PP      PP17899   5.176   5.368  13.220 -0.1153 -0.1065 -0.0607
 7796PP      PP17900   1.462   1.297   0.001 -0.1430  0.0832  0.0126
 7797PP      PP17901  13.616   4.514  10.787 -0.1465 -0.1042 -0.0631
 7798PP      PP17902   2.732   8.804  11.468  0.1413 -0.0388  0.4137
 7799PP      PP17903   5.314   7.337   2.936  0.0964  0.3983  0.1640
 7800PP      PP17904   2.589   8.152  12.738 -0.0920 -0.1180 -0.1994
 7801PP      PP17905   9.167  12.530   1.027  0.0193  0.1373 -0.1663
 7802PP      PP17906   1.945   1.286   0.384  0.2040  0.2184  0.1987
 7803PP      PP17907  11.506   4.746   1.099  0.1772  0.0951  0.2647
 7804PP      PP17908   8.476  15.494  13.205 -0.5889 -0.0732  0.2941
 7805PP      PP17909  11.330  12.432   9.420  0.1759 -0.3699 -0.0974
 7806PP      PP17910   9.848  12.573   3.889 -0.3465 -0.3397  0.0464
 7807PP      PP17911  12.362  13.071   9.159 -0.3047  0.1367 -0.2479
 7808PP      PP17912   6.121   7.662   4.089  0.2884  0.1518  0.2384
 7809PP      PP17913   5.877   4.839  10.884 -0.3359 -0.0423  0.0284
 7810PP      PP17914   1.271   6.616  11.683 -0.2699  0.0817 -0.1763
 7811PP      PP17915   1.707   6.347   9.546  0.1888 -0.0197 -0.2194
 7812PP      PP17916   5.394   1.645   2.459 -0.1773 -0.1452  0.0251
 7813PP      PP17917  13.111   1.475  12.017  0.1910 -0.0796 -0.0959
 7814PP      PP17918   8.654  14.664  10.847 -0.2117  0.0337 -0.0861
 7815PP      PP17919   3.674   3.180   0.723  0.0043 -0.0930 -0.0967
 7816PP      PP17920  10.480  12.394   3.921  0.1053 -0.0036 -0.0365
 7817PP      PP17921   4.464   2.158  13.419  0.1070  0.1156  0.1453
 7818PP      PP17922  13.947   9.322  11.294 -0.1208  0.1328  0.2416
 7819PP      PP17923   6.333  14.127   4.203 -0.1262  0.0810  0.1148
 7820PP      PP17924   6.686   8.199  13.402  0.0679 -0.2023 -0.0430
 7821PP      PP17925  15.726   9.670   2.862  0.1148  0.1366  0.0407
 7822PP      PP17926   4.438  15.719  10.957  0.0481 -0.1882 -0.0642
 7823PP      PP17927   1.434   5.668   0.307 -0.0734 -0.0773 -0.2322
 7824PP      PP17928   8.636   8.023   2.709 -0.3961 -0.0150 -0.1749
 7825PP      PP17929  15.540   2.896   2.644 -0.3994  0.1415 -0.1505
 7826PP      PP17930   5.826  12.011   5.522 -0.1779 -0.5059  0.2289
 7827PP      PP17931  10.126   7.989   1.843  0.2014  0.1185 -0.1804
 7828PP      PP17932  15.627   0.316  10.927 -0.0115  0.1745  0.2509
 7829PP      PP17933  14.591   1.083   4.779 -0.0596 -0.0512  0.2152
 7830PP      PP17934   6.782   5.888   0.051 -0.4203  0.0968 -0.2418
 7831PP      PP17935  11.737  10.880  12.768  0.1533 -0.1953  0.0419
 7832PP      PP17936   6.086  12.202   9.727 -0.0395 -0.0868 -0.0346
 7833PP      PP17937   0.587   2.212  12.866  0.3569 -0.1095 -0.0892
 7834PP      PP17938   2.664   3.984   3.694  0.0135 -0.0745  0.0059
 7835PP      PP17939  14.222  15.677   1.897 -0.0707  0.3009  0.3570
 7836PP      PP17940  11.541   7.464  11.304 -0.1385  0.0709 -0.1298
 7837PP      PP17941  12.889   2.473  11.999 -0.0637  0.4106  0.0544
 7838PP      PP17942   1.986   5.403   2.535 -0.0267  0.2107  0.0402
 7839PP      PP17943   2.884  15.647   1.918 -0.1579  0.0614 -0.0143
 7840PP      PP17944  13.546   7.259   0.110 -0.1161 -0.0727  0.0421
 7841PP      PP17945   8.627   8.879   1.069  0.0942 -0.5961 -0.0162
 7842PP      PP17946  11.194  10.862  10.372  0.2839 -0.1461 -0.2465
 7843PP      PP17947   4.113   2.970   1.646 -0.2460 -0.0517  0.1922
 7844PP      PP17948  15.051   6.850  12.675  0.1332  0.3197  0.1275
 7845PP      PP17949  10.346  12.908  11.491  0.1161 -0.1561 -0.2431
 7846PP      PP17950  14.896   6.397  13.559  0.0594 -0.3095  0.0693
 7847PP      PP17951  15.123   7.958   3.603  0.4164 -0.0054 -0.3666
 7848PP      PP17952   6.662   5.986   1.721 -0.1023  0.0398  0.2944
 7849PP      PP17953   8.912  11.883   9.136  0.2349 -0.3253 -0.1459
 7850PP      PP17954  13.206  15.072   2.770 -0.0441 -0.1715 -0.2262
 7851PP      PP17955  10.784   1.305   9.160 -0.0498 -0.0651 -0.1918
 7852PP      PP17956   5.887   1.388  12.286  0.0964  0.1075  0.1239
 7853PP      PP17957   3.088  10.387   5.296  0.2047 -0.0946 -0.1877
 7854PP      PP17958   7.239   9.675  11.641 -0.2023 -0.0141 -0.1023
 7855PP      PP17959   8.951  14.411   9.324  0.1395  0.3195 -0.0107
 7856PP      PP17960  13.921   2.215   0.323  0.0311  0.0513 -0.1337
 7857PP      PP17961   2.081   8.844  10.120 -0.0869  0.0202  0.0227
 7858PP      PP17962   1.960  10.838   0.142 -0.0912 -0.1760  0.4168
 7859PP      PP17963  14.936   3.986  11.264 -0.0177 -0.0124  0.1676
 7860PP      PP17964   5.023   7.064   9.776  0.2194  0.0060  0.3778
 7861PP      PP17965   0.629   1.666  11.907 -0.0455  0.2192  0.1728
 7862PP      PP17966   0.819   9.811  11.486 -0.0544  0.0020  0.2942
 7863PP      PP17967  10.656   0.220   9.884  0.1644  0.0030 -0.1579
 7864PP      PP17968  15.329   5.656  13.205  0.0021 -0.3519 -0.2655
 7865PP      PP17969   0.995   0.206  11.128 -0.1910  0.0983  0.1333
 7866PP      PP17970  12.191   1.906  12.860 -0.2314 -0.1285 -0.0581
 7867PP      PP17971   2.280  14.716   1.970  0.0851 -0.4517 -0.1417
 7868PP      PP17972   0.771  14.621   3.376 -0.1674 -0.0437 -0.0229
 7869PP      PP17973   9.851   0.046  10.330  0.1326  0.1197  0.2357
 7870PP      PP17974   0.035   9.092  12.972  0.0044 -0.3027 -0.1051
 7871PP      PP17975   1.495   2.795   4.325 -0.2153  0.0564 -0.1869
 7872PP      PP17976   3.812  11.396   2.813 -0.2557  0.0122 -0.0388
 7873PP      PP17977   4.773   6.463   9.556 -0.2293 -0.0354  0.0029
 7874PP      PP17978   4.720   3.706  10.924  0.1511 -0.1394 -0.1688
 7875PP      PP17979   4.128  12.574  11.240 -0.1903  0.1680 -0.0744
 7876PP      PP17980   8.849   1.609   0.790 -0.1395  0.1591  0.0431
 7877PP      PP17981  14.333  14.837   0.743  0.0585 -0.3772  0.0683
 7878PP      PP17982   9.905   5.163  10.610 -0.0880  0.0436 -0.1397
 7879PP      PP17983  12.247   4.732   3.784 -0.3255  0.1471  0.2493
 7880PP      PP17984  14.640   5.331  12.125  0.0923 -0.1762 -0.0510
 7881PP      PP17985   8.402  11.776  10.296 -0.1256  0.0157  0.1314
 7882PP      PP17986   3.196  13.741   1.496 -0.3106  0.0148  0.0040
 7883PP      PP17987  14.772   6.988   9.511 -0.1603 -0.2431  0.0849
 7884PP      PP17988  15.231  11.679   3.192 -0.3271  0.2566 -0.2602
 7885PP      PP17989   4.908   9.944  12.196  0.0769 -0.1527  0.1158
 7886PP      PP17990  15.642   8.189   1.099  0.0378  0.0113 -0.1552
 7887PP      PP17991  11.931   1.535   0.386 -0.0518  0.0598 -0.1141
 7888PP      PP17992   5.940   2.647  11.412 -0.3007  0.2344  0.0142
 7889PP      PP17993   8.493   8.539   2.883  0.2367 -0.1597  0.1578
 7890PP      PP17994   9.199   2.328  11.905  0.4749 -0.1069 -0.2429
 7891PP      PP17995  14.574  12.198  10.967 -0.3858 -0.1279 -0.1463
 7892PP      PP17996   3.762  13.821   1.182  0.0692 -0.2161  0.0082
 7893PP      PP17997   1.190   1.704   1.070  0.1473  0.5803 -0.4065
 7894PP      PP17998   1.923   4.940   1.492 -0.1942  0.0789 -0.0661
 7895PP      PP17999   9.303   3.278   0.482  0.3406 -0.0596 -0.1901
 7896PP      PP18000   0.150   4.350   8.823  0.1265 -0.0911  0.0719
 7897PP      PP18001   9.170   2.871   1.112 -0.0997  0.2640  0.1336
 7898PP      PP18002  10.447   6.482   8.963 -0.0408 -0.1941  0.4913
 7899PP      PP18003   1.897   6.508   1.808  0.0164  0.0875  0.0663
 7900PP      PP18004   8.454   5.308  12.988 -0.0883 -0.0248 -0.1638
 7901PP      PP18005  10.483  11.127  13.341 -0.2465  0.1259 -0.1961
 7902PP      PP18006   9.342   8.837   3.413  0.0342  0.0301  0.0805
 7903PP      PP18007   5.725  14.930   2.062  0.0687  0.2821  0.0473
 7904PP      PP18008   1.479   8.788  10.204  0.0269 -0.0954 -0.0576
 7905PP      PP18009  15.034   9.256   4.468  0.1823 -0.1028 -0.1094
 7906PP      PP18010   8.555  12.805  13.747 -0.1203 -0.0472 -0.2216
 7907PP      PP18011   3.900   9.415   2.102  0.3053  0.0928  0.0863
 7908PP      PP18012  15.678   0.460   4.322  0.2373 -0.3096 -0.0883
 7909PP      PP18013   5.480   5.188   9.432 -0.0439 -0.2507 -0.0199
 7910PP      PP18014  10.020  11.809  12.619 -0.0017 -0.0807  0.2299
 7911PP      PP18015  13.084  15.380  13.735 -0.0879  0.0897  0.0463
 7912PP      PP18016   3.759   1.405   2.525 -0.2467  0.2970 -0.2627
 7913PP      PP18017   2.396   9.494  10.601 -0.1815 -0.1435 -0.0691
 7914PP      PP18018   4.895   0.643   0.882 -0.0522  0.1618 -0.3524
 7915PP      PP18019  10.234  13.524   9.916 -0.0554 -0.1145  0.2103
 7916PP      PP18020  11.219   5.993   0.633 -0.1531 -0.1143  0.1240
 7917PP      PP18021   0.743   3.602   8.461 -0.0558 -0.0995  0.0802
 7918PP      PP18022   0.938   3.767  12.824 -0.0202  0.2097  0.1891
 7919PP      PP18023   2.978  14.697   2.682  0.0583 -0.0183 -0.2942
 7920PP      PP18024  12.339  14.995   2.031 -0.0146 -0.0886 -0.2501
 7921PP      PP18025  12.614   8.835   1.962 -0.2160  0.3523  0.0392
 7922PP      PP18026   3.564  12.048   3.716 -0.0880  0.1459 -0.2081
 7923PP      PP18027   2.052   4.514  13.319  0.1833 -0.4208  0.4115
 7924PP      PP18028   9.911   0.864   2.841 -0.0067  0.1419  0.0673
 7925PP      PP18029   3.244  13.222  13.315  0.2868 -0.0352  0.2268
 7926PP      PP18030   5.792  12.350   2.730  0.3002  0.0603 -0.1445
 7927PP      PP18031   8.986   4.677  13.666 -0.0877 -0.1496  0.0728
 7928PP      PP18032  10.836  14.016   9.824 -0.0669  0.0284 -0.2810
 7929PP      PP18033   4.552   4.403   2.466 -0.0139  0.0913  0.1909
 7930PP      PP18034   4.727   3.663  13.627  0.3167 -0.1911 -0.0205
 7931PP      PP18035   6.946  12.239   2.825 -0.2248 -0.0744  0.1150
 7932PP      PP18036  15.636  10.562   3.435  0.2098  0.0183  0.1294
 7933PP      PP18037  12.105  10.640  11.531  0.2057 -0.2083 -0.0688
 7934PP      PP18038   5.457   3.826   9.204  0.0215 -0.3284  0.0839
 7935PP      PP18039   6.369  15.429   4.013  0.0748 -0.0795 -0.0773
 7936PP      PP18040   2.950   3.569   0.486  0.0533  0.0214 -0.0534
 7937PP      PP18041   6.441   2.848  13.560  0.0687  0.2784  0.1849
 7938PP      PP18042   0.658   7.007   3.277 -0.0356 -0.1201  0.2049
 7939PP      PP18043  13.442   0.676   2.364 -0.3190 -0.1297  0.1253
 7940PP      PP18044  12.008  11.102  11.392 -0.1532  0.1437 -0.1208
 7941PP      PP18045   0.965   3.398   2.533 -0.2105  0.1875  0.0407
 7942PP      PP18046  15.013   0.026   1.708 -0.2000 -0.0742 -0.2397
 7943PP      PP18047  12.618  12.080   3.428  0.0248  0.4351 -0.1772
 7944PP      PP18048   9.391  12.224   2.337  0.1030  0.1901  0.1289
 7945PP      PP18049   6.849  11.928  12.364 -0.3775 -0.4661  0.0488
 7946PP      PP18050   3.129   3.346   2.639  0.3090 -0.1166 -0.1600
 7947PP      PP18051  14.558   3.710   3.115  0.0832 -0.0478 -0.1536
 7948PP      PP18052   3.397   1.382   0.640  0.3652  0.0679 -0.0386
 7949PP      PP18053   9.722   3.096   0.860 -0.0231 -0.1839  0.0040
 7950PP      PP18054   6.390  12.708   3.379  0.1631  0.0060 -0.0913
 7951PP      PP18055   2.391  10.361   2.605 -0.3433  0.0252 -0.2006
 7952PP      PP18056   2.269  13.277  13.093 -0.2293  0.0364 -0.2475
 7953PP      PP18057  11.332  12.638   3.250  0.1939  0.2528 -0.0266
 7954PP      PP18058  12.419   1.025  11.741 -0.0329  0.0356 -0.0375
 7955PP      PP18059   5.560   7.980   9.296  0.0875 -0.1119  0.3302
 7956PP      PP18060   1.325   8.134   3.034  0.2544 -0.0662 -0.2914
 7957PP      PP18061   9.259   7.771  11.148  0.6671 -0.3044 -0.2193
 7958PP      PP18062   9.396  15.189  11.324  0.1114  0.1174 -0.0783
 7959PP      PP18063  14.163   0.663  12.306  0.0235  0.4995 -0.2391
 7960PP      PP18064   2.251   5.526   2.027  0.1083 -0.0059 -0.0937
 7961PP      PP18065   9.162   4.880   1.269 -0.1504  0.4220  0.3216
 7962PP      PP18066   8.591   1.789   1.389 -0.0767  0.1247 -0.2080
 7963PP      PP18067   5.739  13.598  13.704  0.1517 -0.1228 -0.1100
 7964PP      PP18068   0.798   6.905  12.807  0.0683  0.1043 -0.0157
 7965PP      PP18069   8.030   4.591  12.747  0.2288 -0.3360 -0.1066
 7966PP      PP18070  13.790   7.279  13.057 -0.0845  0.1190  0.1013
 7967PP      PP18071   1.340   6.796   9.288 -0.1514 -0.0555 -0.0939
 7968PP      PP18072  12.680   9.281   0.149 -0.1232 -0.1156  0.1553
 7969PP      PP18073   6.845   1.511   9.628 -0.2198  0.2716 -0.1431
 7970PP      PP18074   4.663   9.456   7.978  0.1847  0.1927 -0.1190
 7971PP      PP18075   3.213   7.162  10.920  0.0490 -0.0438 -0.1512
 7972PP      PP18076   6.591  11.338  12.447 -0.1511  0.3239 -0.3606
 7973PP      PP18077   7.966  13.699   2.901  0.2802  0.2592  0.3446
 7974PP      PP18078   4.909   3.007   2.561  0.2609  0.1177  0.0370
 7975PP      PP18079   5.395   8.826   2.737 -0.1574 -0.0871 -0.0652
 7976PP      PP18080  15.514   6.071  12.863 -0.1855 -0.1543 -0.0192
 7977PP      PP18081   6.569   4.369   0.930 -0.0102 -0.0473  0.0587
 7978PP      PP18082   1.324  11.551   3.215 -0.0376  0.3092 -0.0170
 7979PP      PP18083   2.408   9.332   2.415 -0.3849 -0.0032 -0.3104
 7980PP      PP18084   8.759  13.092  10.646 -0.2268  0.0991  0.2730
 7981PP      PP18085  12.847   4.094  12.271 -0.0257 -0.2013  0.0413
 7982PP      PP18086  15.202  13.067   1.190 -0.0880 -0.0390 -0.0835
 7983PP      PP18087   3.286   7.176  12.497  0.1550 -0.0492 -0.0907
 7984PP      PP18088   8.331  14.164  11.584  0.0818 -0.0759 -0.1244
 7985PP      PP18089   1.552   3.259   3.731 -0.0167 -0.0011  0.2825
 7986PP      PP18090   0.060  10.191   2.485  0.2433 -0.2638 -0.0802
 7987PP      PP18091  15.291   4.831  10.393  0.0120 -0.3149 -0.1819
 7988PP      PP18092   6.535  12.929   1.988  0.0296  0.2101  0.0109
 7989PP      PP18093   9.562   0.741   3.369 -0.1985  0.2006  0.0713
 7990PP      PP18094  11.379   8.967   2.625  0.2785  0.0214  0.1350
 7991PP      PP18095  11.227   0.475   9.935 -0.1732 -0.1212  0.1443
 7992PP      PP18096   2.939   5.894  10.836  0.0513 -0.0315  0.1651
 7993PP      PP18097   9.343   4.407  11.327  0.2362  0.0873  0.2238
 7994PP      PP18098   5.710   0.209   1.410 -0.1814 -0.0853  0.0295
 7995PP      PP18099   5.243   3.540   0.962  0.1451 -0.0507 -0.1477
 7996PP      PP18100   6.079  11.343  13.514 -0.0127  0.3816  0.1056
 7997PP      PP18101   3.827   5.932   3.029 -0.1076  0.0045  0.1036
 7998PP      PP18102   0.869   7.936   8.392  0.0378 -0.4066 -0.0671
 7999PP      PP18103   5.244   8.150   1.574  0.2443  0.2710  0.1785
 8000PP      PP18104  12.674  15.288  13.546  0.2177 -0.7432 -0.0775
 8001PP      PP18105  14.985   6.579   9.620 -0.2559  0.2370 -0.0309
 8002PP      PP18106   2.659   6.454  13.501 -0.0518  0.0546  0.0079
 8003PP      PP18107   3.094  14.375   3.554  0.0540 -0.0080 -0.2758
 8004PP      PP18108  15.659   7.441  10.441  0.0003  0.1359  0.3407
 8005PP      PP18109   2.697   2.975   2.761 -0.5037  0.1328 -0.0774
 8006PP      PP18110   4.568  11.419   9.819 -0.1467  0.0386 -0.0299
 8007PP      PP18111  15.026   4.638   0.233  0.1644 -0.0067 -0.1426
 8008PP      PP18112   7.149   4.129  12.055 -0.0662 -0.1910  0.0569
 8009PP      PP18113  13.432   2.490  11.632 -0.0377  0.1745  0.0004
 8010PP      PP18114  14.781  12.261   3.925 -0.2594  0.0986  0.1448
 8011PP      PP18115   6.820   7.956  12.651 -0.1606  0.0311  0.1212
 8012PP      PP18116  14.205  15.661   1.294 -0.1827  0.2959  0.1246
 8013PP      PP18117   8.367   7.198   1.170  0.0413  0.0380  0.5046
 8014PP      PP18118  11.719   1.045   2.467 -0.1346  0.3310  0.0542
 8015PP      PP18119  13.779   7.246  10.822 -0.0288 -0.0476  0.3443
 8016PP      PP18120   3.618  11.554   0.769  0.0325  0.1041  0.5069
 8017PP      PP18121   8.695   2.493  11.850 -0.2137 -0.0643  0.0043
 8018PP      PP18122   7.844  11.908  11.606 -0.3649  0.3557 -0.0294
 8019PP      PP18123  11.757   0.180   2.050 -0.3026 -0.0067  0.1547
 8020PP      PP18124   9.331   8.270   3.319 -0.2457  0.2527 -0.2159
 8021PP      PP18125  10.154  15.404   3.063 -0.0855  0.0777 -0.4083
 8022PP      PP18126   9.886  12.459   2.633 -0.2840 -0.0430  0.2582
 8023PP      PP18127   1.660  13.633   4.345 -0.0321 -0.0631 -0.1009
 8024PP      PP18128   6.003   4.997   9.496  0.1929 -0.2012 -0.1145
 8025PP      PP18129  11.942  10.152  12.943  0.0462 -0.1527 -0.1024
 8026PP      PP18130  12.872   9.571   8.923  0.1291 -0.0430 -0.1779
 8027PP      PP18131   8.104  11.543  11.306  0.1835 -0.3309 -0.0629
 8028PP      PP18132   8.489   3.516   9.538 -0.1894 -0.2176  0.1374
 8029PP      PP18133   4.606  14.633  11.387 -0.0986 -0.1213 -0.0111
 8030PP      PP18134   7.876   3.389   3.241 -0.0700 -0.1469  0.0943
 8031PP      PP18135   0.504  15.391  11.689  0.4342 -0.1623 -0.0307
 8032PP      PP18136   6.802   6.394  12.985  0.1504 -0.1595  0.4342
 8033PP      PP18137   7.155   2.636   9.989 -0.2137 -0.0019 -0.1007
 8034PP      PP18138   6.221  13.874  12.728 -0.0646 -0.4590 -0.0676
 8035PP      PP18139   3.204   9.741   3.623 -0.1067 -0.1559  0.2287
 8036PP      PP18140   2.973   3.925   0.959 -0.1435  0.0914  0.0302
 8037PP      PP18141   2.268  12.737  11.040 -0.0695  0.1366 -0.1304
 8038PP      PP18142   6.731   1.535  10.682  0.0100  0.2673 -0.1412
 8039PP      PP18143   3.622   6.967  10.683  0.2375  0.1106 -0.5975
 8040PP      PP18144  10.924   1.494  12.703 -0.3028 -0.2021  0.2459
 8041PP      PP18145   6.992   9.352   2.740  0.2381 -0.0680 -0.4041
 8042PP      PP18146  14.659   2.565   1.002 -0.0855  0.1372  0.1913
 8043PP      PP18147  14.769  13.078   3.524  0.1426  0.0632 -0.3675
 8044PP      PP18148  11.800   5.096   9.595  0.1858  0.0986  0.0321
 8045PP      PP18149   4.155  12.383   2.877 -0.0890  0.1324  0.0733
 8046PP      PP18150  11.979   2.999   1.801  0.4318 -0.2508  0.2353
 8047PP      PP18151   8.111   6.349   0.387 -0.1822 -0.0336  0.1300
 8048PP      PP18152   0.955   1.084  13.626  0.2249  0.4163 -0.4523
 8049PP      PP18153  11.229  13.402   0.357  0.1600 -0.0121  0.0621
 8050PP      PP18154   2.003   6.237   2.816  0.0143  0.3022 -0.2187
 8051PP      PP18155   6.809  12.206   0.411  0.1190 -0.1779 -0.0116
 8052PP      PP18156   8.760   4.249   0.068 -0.0250 -0.2239  0.0310
 8053PP      PP18157  15.452   9.019   9.275 -0.0654  0.0964 -0.2632
 8054PP      PP18158   8.298   3.901  11.912  0.1515 -0.0367  0.1417
 8055PP      PP18159   1.812   9.600  10.400  0.1029  0.0222  0.0883
 8056PP      PP18160   3.775   2.990   4.013  0.1849  0.0157 -0.2324
 8057PP      PP18161   0.183   5.159  13.713 -0.3420  0.2560  0.0029
 8058PP      PP18162  13.460  14.617  12.132  0.0462  0.0947  0.1353
 8059PP      PP18163  11.326   0.101   9.145  0.1550  0.1704  0.0599
 8060PP      PP18164   9.579  15.615   9.236  0.0449 -0.0642 -0.0480
 8061PP      PP18165   3.354  11.773  13.522 -0.4833  0.1065 -0.2126
 8062PP      PP18166   1.408  14.561   4.540  0.1951 -0.1729 -0.3534
 8063PP      PP18167   2.371   3.854   2.534  0.0811  0.1075  0.3004
 8064PP      PP18168   6.521   4.005  12.944 -0.4117 -0.0654 -0.3035
 8065PP      PP18169   5.508  13.123   1.793 -0.1038 -0.1647 -0.2287
 8066PP      PP18170   5.789   9.632  10.375  0.1029 -0.4015  0.1385
 8067PP      PP18171  12.504   3.486   8.828  0.3703  0.4140 -0.0144
 8068PP      PP18172   6.302  11.183  11.424  0.3828 -0.1029  0.1523
 8069PP      PP18173   4.846  10.296   5.625  0.1168 -0.2406 -0.1240
 8070PP      PP18174   3.121   0.724   9.545 -0.0524 -0.1661  0.0360
 8071PP      PP18175   4.323   3.953  13.613 -0.0548  0.1903  0.0274
 8072PP      PP18176   9.410  14.325   1.719 -0.4078 -0.1821 -0.0984
 8073PP      PP18177  14.629   7.538   9.500  0.1512  0.4915 -0.1960
 8074PP      PP18178   1.581   7.496   2.165  0.0382  0.2152 -0.1909
 8075PP      PP18179   5.338  13.144  11.850  0.0457 -0.2309  0.1975
 8076PP      PP18180  13.382   1.038  10.071 -0.1527 -0.0536  0.0490
 8077PP      PP18181   2.004   4.628   4.253 -0.0320  0.0161 -0.1029
 8078PP      PP18182  14.953  12.724   9.917 -0.2214 -0.0908 -0.1468
 8079PP      PP18183   0.722   1.660   9.947 -0.1243 -0.0174  0.0650
 8080PP      PP18184   2.788   5.025   3.921 -0.3995 -0.2884 -0.1727
 8081PP      PP18185   2.358   3.263   1.856 -0.2753 -0.0362 -0.3172
 8082PP      PP18186  15.714   7.864   1.800 -0.0465  0.1002 -0.0860
 8083PP      PP18187  14.513   5.564  10.279 -0.3407 -0.0738 -0.1116
 8084PP      PP18188   8.369  14.073   4.212  0.0275 -0.0999 -0.0998
 8085PP      PP18189   4.915  13.342   0.349 -0.0864  0.2016 -0.3116
 8086PP      PP18190   4.994   6.900   9.141 -0.0707  0.1090  0.0462
 8087PP      PP18191  11.640   9.335  10.031 -0.0446 -0.1591  0.2022
 8088PP      PP18192  12.680   8.107   1.564 -0.0862  0.1093  0.0588
 8089PP      PP18193  12.732  14.675   0.530 -0.1244 -0.0192  0.1282
 8090PP      PP18194  13.291   5.504  11.337 -0.1825 -0.1152  0.3031
 8091PP      PP18195  14.556  11.317   3.809  0.0665  0.0108  0.1180
 8092PP      PP18196  11.499  10.206  12.245  0.0895  0.2584  0.0046
 8093PP      PP18197   1.814   4.647   4.782 -0.0788 -0.0442  0.0948
 8094PP      PP18198   6.690   9.737   1.357  0.3060 -0.0177 -0.2349
 8095PP      PP18199   3.877  10.999   0.184 -0.0624 -0.1393 -0.1511
 8096PP      PP18200  10.254  15.706   9.132  0.0398 -0.0447  0.3427
 8097PP      PP18201  15.260  12.646   3.011  0.2676  0.0332  0.3789
 8098PP      PP18202   5.467   9.789   4.061 -0.1486  0.0547  0.1944
 8099PP      PP18203  11.390  11.461   1.450 -0.1041  0.0484 -0.2407
 8100PP      PP18204   4.326  13.879   3.078  0.0470  0.1428  0.0865
 8101PP      PP18205   5.492  12.774   0.968  0.0720  0.2462 -0.1641
 8102PP      PP18206  12.951   1.836   9.064  0.2315  0.1921  0.0580
 8103PP      PP18207   8.232   4.712   9.318  0.1599  0.1021 -0.2961
 8104PP      PP18208   8.821   6.894   8.582 -0.2339 -0.4647  0.2091
 8105PP      PP18209   7.622   5.997   1.648 -0.0568  0.0306 -0.1423
 8106PP      PP18210   5.052   6.616  10.135  0.2183  0.0667  0.0361
 8107PP      PP18211   8.748  13.021  11.299 -0.2675 -0.0276 -0.0617
 8108PP      PP18212   2.701  11.861   4.185 -0.1749  0.0956  0.3321
 8109PP      PP18213  13.213   5.964  13.123 -0.0578  0.1876  0.0643
 8110PP      PP18214   1.719   9.083  12.641  0.0714 -0.0786 -0.1911
 8111PP      PP18215  12.775   6.554   0.793 -0.1530 -0.1767 -0.1221
 8112PP      PP18216  11.692  14.374  12.947  0.0270  0.0598 -0.1270
 8113PP      PP18217   9.385   3.034   8.894 -0.1113  0.3113  0.4143
 8114PP      PP18218   9.736   8.558  11.138 -0.2689 -0.0206 -0.0321
 8115PP      PP18219   2.189   4.215   0.717 -0.0006  0.0813  0.3386
 8116PP      PP18220   2.018  10.330  12.234  0.0701 -0.1192 -0.2172
 8117PP      PP18221   9.314   5.516  11.525 -0.1338 -0.0226 -0.0441
 8118PP      PP18222   6.226   8.895   9.948 -0.0852  0.1271  0.1361
 8119PP      PP18223   5.155   3.348  10.065  0.4485 -0.0376 -0.0426
 8120PP      PP18224  14.813   5.716   0.420  0.3679  0.1546 -0.1785
 8121PP      PP18225  14.263  12.349  11.407 -0.0737 -0.0812 -0.0917
 8122PP      PP18226  13.620  14.741   4.547  0.1251 -0.0493  0.0694
 8123PP      PP18227   9.947   3.002  11.741 -0.1164  0.2095  0.1537
 8124PP      PP18228   6.788  11.937   4.655 -0.2603 -0.2922 -0.2598
 8125PP      PP18229   8.308   0.777   4.079 -0.3731  0.0306 -0.1549
 8126PP      PP18230   0.723   5.183   9.602  0.2402 -0.0420 -0.0900
 8127PP      PP18231   0.146   5.592   1.057  0.1066  0.0110  0.2153
 8128PP      PP18232   5.101   5.969   1.275 -0.2502  0.0087 -0.0556
 8129PP      PP18233   4.677  15.519   2.834 -0.0314  0.1952 -0.1129
 8130PP      PP18234  11.769   9.708   4.126  0.0736  0.1804 -0.3372
 8131PP      PP18235  15.531   5.241   0.289  0.0944 -0.0182  0.1474
 8132PP      PP18236  10.066   2.090   8.414  0.0479  0.1488  0.1863
 8133PP      PP18237   0.607   2.323   1.400 -0.1377 -0.2759  0.2486
 8134PP      PP18238  14.328  14.362   0.928  0.0498 -0.1150  0.0774
 8135PP      PP18239   3.137   0.591  11.916 -0.1676 -0.2242  0.3043
 8136PP      PP18240  11.984  12.079  11.312  0.0651 -0.2606  0.0338
 8137PP      PP18241  13.825  14.007   3.369  0.1024  0.1320 -0.1863
 8138PP      PP18242   0.407   1.581   2.848  0.1831 -0.2528  0.1297
 8139PP      PP18243   5.274   0.269  10.825  0.0521 -0.0501 -0.2181
 8140PP      PP18244  10.702   7.854   2.873 -0.3139  0.4178 -0.1232
 8141PP      PP18245   5.328   2.433   0.336 -0.1480 -0.1517  0.3345
 8142PP      PP18246   3.332  10.480   0.552 -0.0342  0.2540  0.0840
 8143PP      PP18247   9.633  11.741   9.661  0.0049 -0.0100 -0.0580
 8144PP      PP18248   4.574   6.669   2.259 -0.1549 -0.0442  0.0808
 8145PP      PP18249   1.698  13.308  12.453  0.0355 -0.2244  0.1816
 8146PP      PP18250  13.741   0.491  13.149 -0.0104 -0.0116 -0.0490
 8147PP      PP18251   2.139   2.827   3.622 -0.2174 -0.1437  0.3709
 8148PP      PP18252   4.253   6.174   9.668  0.0700  0.0950 -0.2196
 8149PP      PP18253   0.646  13.949  12.331  0.1704  0.0099  0.2162
 8150PP      PP18254   8.171   8.120   2.803  0.1480  0.1296  0.7363
 8151PP      PP18255   2.242   5.318  10.421  0.0270  0.1144  0.0507
 8152PP      PP18256  14.119   5.452   1.089  0.0229  0.1263 -0.0238
 8153PP      PP18257  11.955  12.579  12.137 -0.0547  0.2456  0.0186
 8154PP      PP18258   3.808   9.523   1.155 -0.2126 -0.0056 -0.1592
 8155PP      PP18259   1.636   9.548   4.071 -0.2150  0.1309  0.0672
 8156PP      PP18260   7.503  13.831   4.541  0.1850 -0.0677  0.0283
 8157PP      PP18261  10.640   7.067   9.677  0.0078  0.2607  0.0923
 8158PP      PP18262   9.528   8.214   3.753 -0.0516 -0.1121  0.2878
 8159PP      PP18263   7.023   4.138   8.788  0.3692 -0.3452  0.0673
 8160PP      PP18264  15.578   9.545  12.844 -0.1520 -0.2094  0.0065
 8161PP      PP18265   4.295   2.607  10.391  0.1432  0.0656 -0.2243
 8162PP      PP18266  11.770   5.267   2.018  0.1581 -0.0466  0.1257
 8163PP      PP18267  15.264   6.501   1.994  0.1408  0.2968 -0.0920
 8164PP      PP18268   9.775   5.686  10.976 -0.2856  0.0588 -0.2833
 8165PP      PP18269  12.747  13.533   9.560 -0.5357 -0.1143  0.1383
 8166PP      PP18270   5.212  12.460   0.761  0.2668 -0.2663 -0.0207
 8167PP      PP18271  10.127   9.286  12.983 -0.0110  0.0672  0.2399
 8168PP      PP18272  11.507   1.639   8.699 -0.1540  0.0451  0.0929
 8169PP      PP18273  15.152  12.763  13.416  0.3966  0.0784 -0.2666
 8170PP      PP18274   0.203   0.400   1.878 -0.0290  0.1854  0.1037
 8171PP      PP18275   7.493   5.607   2.513  0.2484 -0.3697  0.1295
 8172PP      PP18276  12.148   6.466   1.048  0.1501 -0.0183 -0.3600
 8173PP      PP18277  15.036   9.671   2.223  0.1662  0.0762  0.1464
 8174PP      PP18278   5.979  10.380   3.776  0.2471 -0.2371 -0.0025
 8175PP      PP18279  10.303  10.652  13.390 -0.0736 -0.0956 -0.2712
 8176PP      PP18280  12.588   2.105  10.438  0.3163 -0.0211  0.0177
 8177PP      PP18281   4.860  11.904  12.240 -0.0028 -0.1599  0.0117
 8178PP      PP18282  12.825   5.954   9.038 -0.1752 -0.0474 -0.2152
 8179PP      PP18283   7.243   0.185  11.713  0.0695 -0.0884  0.3887
 8180PP      PP18284   8.655  12.417   3.473  0.0191 -0.0861 -0.0299
 8181PP      PP18285  10.546   2.632   2.483  0.0653 -0.1506  0.0278
 8182PP      PP18286   2.635   1.572   0.880 -0.0728  0.0304  0.3627
 8183PP      PP18287  10.618  11.748  11.574 -0.0151 -0.4604  0.1337
 8184PP      PP18288   2.159   7.017  10.175  0.0219  0.0873 -0.0516
 8185PP      PP18289  15.534  12.938   1.681 -0.0904 -0.0681  0.1837
 8186PP      PP18290   9.242  13.867   1.641 -0.0839 -0.0476 -0.1663
 8187PP      PP18291  12.109  15.049   0.123 -0.0813  0.3292 -0.1662
 8188PP      PP18292   1.248   8.047  11.779  0.2346  0.1714 -0.1529
 8189PP      PP18293   8.040   5.754   8.222 -0.0222  0.1258  0.0238
 8190PP      PP18294   1.315   5.412  11.449 -0.3268  0.1657  0.0447
 8191PP      PP18295   7.657   6.315   9.762 -0.3311 -0.1833  0.0469
 8192PP      PP18296  13.412  13.223   4.787  0.1601  0.0590 -0.1633
 8193PP      PP18297   1.718   6.019   0.523  0.0059  0.0638 -0.3128
 8194PP      PP18298   5.283   9.276   2.405  0.0941  0.1988  0.2218
 8195PP      PP18299   2.748   0.448   3.220 -0.1010  0.0072  0.2202
 8196PP      PP18300   2.793  15.643   1.327  0.2733 -0.0848  0.0494
 8197PP      PP18301   5.356   0.138   0.784 -0.3191 -0.3181 -0.0230
 8198PP      PP18302   2.436   1.444  12.768  0.2315  0.1935  0.0876
 8199PP      PP18303   9.205   3.229   1.715 -0.1983 -0.2458  0.2331
 8200PP      PP18304   2.486  14.863  10.022  0.1085 -0.4357  0.0966
 8201PP      PP18305   5.778   3.846   1.784  0.0788 -0.2424 -0.0186
 8202PP      PP18306  10.487  12.744   2.380 -0.0725 -0.2971 -0.0339
 8203PP      PP18307  13.598  11.606   2.581 -0.4476  0.1318  0.1530
 8204PP      PP18308   1.704   9.652   6.183 -0.1189 -0.0420  0.2571
 8205PP      PP18309  12.155  13.228   0.311  0.1344  0.0026 -0.1028
 8206PP      PP18310  11.202   1.512   9.932  0.4067  0.4629 -0.0349
 8207PP      PP18311   5.328   1.965  12.048 -0.0948 -0.1123 -0.2925
 8208PP      PP18312   2.710  14.798  13.010 -0.2845  0.0662 -0.3384
 8209PP      PP18313  13.280   9.541   2.064  0.2763 -0.0090  0.1222
 8210PP      PP18314  13.847   1.752   9.348  0.1819 -0.0063  0.1305
 8211PP      PP18315   3.140   1.890   9.238  0.0519  0.3365 -0.0127
 8212PP      PP18316   0.730   4.801   1.629  0.1531  0.2359  0.0184
 8213PP      PP18317   2.383   8.593   1.887  0.0665  0.1075 -0.0655
 8214PP      PP18318  10.084   3.775  12.937 -0.1110 -0.3472 -0.0513
 8215PP      PP18319   2.184   2.748   9.501 -0.1759  0.0718  0.1527
 8216PP      PP18320  12.794   3.805   8.622  0.0457  0.1835  0.0525
 8217PP      PP18321  14.126   4.903  12.295 -0.3569  0.0543  0.0535
 8218PP      PP18322   1.392  12.959   2.094 -0.1056 -0.0338  0.1542
 8219PP      PP18323  12.440  14.522  11.988  0.2428  0.0943 -0.2559
 8220PP      PP18324   3.651   0.559  13.727 -0.0422 -0.3083 -0.1543
 8221PP      PP18325   1.867  10.638  11.821  0.0138 -0.2873 -0.2049
 8222PP      PP18326  15.690   8.683   8.950 -0.0684  0.1285  0.1730
 8223PP      PP18327   9.989  14.594   2.135  0.2692 -0.0669  0.1678
 8224PP      PP18328  13.406   3.752  11.194 -0.0122  0.3317 -0.0405
 8225PP      PP18329   2.279   2.926  12.313  0.3062 -0.1956 -0.0843
 8226PP      PP18330   0.183  10.324   2.990 -0.2692 -0.2204 -0.4333
 8227PP      PP18331  14.044   3.464   4.082 -0.1473 -0.0057  0.2371
 8228PP      PP18332   1.920   3.257  13.151  0.6146 -0.1844  0.0317
 8229PP      PP18333  11.340  14.361   2.216 -0.0500  0.0375 -0.2141
 8230PP      PP18334  10.699   5.214   3.974  0.0023  0.3514  0.1681
 8231PP      PP18335   7.292  14.866  12.792  0.0091  0.2270 -0.0752
 8232PP      PP18336   8.176   9.259   0.606  0.1309 -0.1103 -0.1226
 8233PP      PP18337   0.256   0.783   1.560 -0.1951 -0.6270 -0.2484
 8234PP      PP18338  14.611   6.741   2.874 -0.1190 -0.1327  0.3258
 8235PP      PP18339  15.053  13.552   3.505  0.0814 -0.1938  0.0442
 8236PP      PP18340   7.423  13.374   0.171 -0.0980 -0.0836  0.1631
 8237PP      PP18341  11.600   8.713  13.162  0.1830 -0.2183  0.2507
 8238PP      PP18342   1.133   6.133   1.471  0.0056 -0.1228 -0.1259
 8239PP      PP18343  12.110   5.487  12.480  0.2529 -0.1151  0.0387
 8240PP      PP18344   3.427   3.526  12.838 -0.2169 -0.1871 -0.1503
 8241PP      PP18345  14.150   4.883   3.140  0.2491  0.1206  0.4095
 8242PP      PP18346  14.085   0.782  13.458  0.0064 -0.1319  0.0140
 8243PP      PP18347  13.064  11.995  11.277  0.0324 -0.0330 -0.2059
 8244PP      PP18348  15.311   9.893   1.196  0.0639  0.1924 -0.0561
 8245PP      PP18349   8.161   0.717   9.981  0.3253  0.1082 -0.4703
 8246PP      PP18350   7.756  13.494  12.026  0.1421  0.3517  0.1456
 8247PP      PP18351   8.484  10.804  12.869 -0.2033  0.0402 -0.0384
 8248PP      PP18352  14.412  15.059   9.022 -0.0508  0.2620 -0.3403
 8249PP      PP18353  15.494   5.647   1.976  0.0570 -0.0662  0.0079
 8250PP      PP18354  12.702   6.155  13.461 -0.0593 -0.0706  0.3713
 8251PP      PP18355   9.211   5.730   4.321 -0.2524  0.1652  0.1996
 8252PP      PP18356   5.465  13.571   0.429  0.1403 -0.0019 -0.1294
 8253PP      PP18357  12.643  14.799  13.549 -0.3220 -0.0364 -0.1025
 8254PP      PP18358  15.209  14.803  11.701 -0.1799  0.1125  0.1737
 8255PP      PP18359   9.304   8.552   2.097 -0.0150  0.2694 -0.1294
 8256PP      PP18360   3.777   8.414   4.617  0.0015 -0.0186 -0.2727
 8257PP      PP18361   1.120   3.375   9.388 -0.2439 -0.2394 -0.1785
 8258PP      PP18362   1.616   3.243   0.740 -0.0222  0.0762 -0.0274
 8259PP      PP18363   3.925   2.298  10.349  0.1024  0.1072 -0.0238
 8260PP      PP18364  12.745   7.066  11.014  0.1606  0.1523 -0.2676
 8261PP      PP18365   5.747   5.237   0.281 -0.1991 -0.0021 -0.3139
 8262PP      PP18366  14.036   4.575   9.574  0.0140  0.0123  0.1784
 8263PP      PP18367   6.343   9.285   4.455  0.1869 -0.0801  0.0254
 8264PP      PP18368   3.599   1.542   2.028 -0.1003  0.1736  0.0257
 8265PP      PP18369  10.704   1.398  13.138  0.0494  0.0031  0.1429
 8266PP      PP18370   8.886   6.152   3.611 -0.0186 -0.1104  0.3707
 8267PP      PP18371   9.316  13.785  11.930  0.1553 -0.1745 -0.2440
 8268PP      PP18372   3.710  12.735  13.771  0.1759  0.2462 -0.0353
 8269PP      PP18373   9.347   3.172   2.395  0.0273  0.1026  0.0355
 8270PP      PP18374  13.541   3.851   2.258  0.3031 -0.2135 -0.5027
 8271PP      PP18375   2.273   5.702   3.465  0.0052  0.0353  0.3102
 8272PP      PP18376   9.497   4.015   4.464 -0.1158  0.0560  0.0752
 8273PP      PP18377  14.513  12.389   0.163 -0.4499  0.1734  0.0163
 8274PP      PP18378  14.078  10.716   1.179 -0.1322 -0.4632  0.2190
 8275PP      PP18379   7.759  10.707  13.696 -0.0769  0.2102  0.1509
 8276PP      PP18380   8.606  13.629   3.869  0.2920 -0.3623 -0.0190
 8277PP      PP18381   8.182   6.002   8.606 -0.1276  0.0614  0.1138
 8278PP      PP18382  13.746   3.808   8.296  0.1731  0.0913 -0.1006
 8279PP      PP18383   9.533  11.375   2.043  0.2531  0.3232 -0.0133
 8280PP      PP18384  13.321   0.681  10.456  0.0091  0.2672 -0.1744
 8281PP      PP18385   0.108   4.670   1.315 -0.1360 -0.2927 -0.2525
 8282PP      PP18386  12.982  13.108  10.398  0.1223 -0.2367  0.3319
 8283PP      PP18387   7.724   3.745   0.611  0.1037 -0.2614  0.1362
 8284PP      PP18388   0.502   1.760   3.704 -0.3566 -0.1166  0.2661
 8285PP      PP18389   7.742  14.977  10.756  0.0108  0.4403  0.1042
 8286PP      PP18390   4.963   5.470  13.679  0.1952  0.2705 -0.1606
 8287PP      PP18391  10.628   2.065   0.122  0.0822  0.1735  0.1131
 8288PP      PP18392  13.310   7.080   3.881 -0.0548 -0.3988 -0.1336
 8289PP      PP18393   2.458  13.477   9.501 -0.1321  0.0267 -0.1761
 8290PP      PP18394  10.963   2.764   8.616 -0.1412  0.0983  0.1097
 8291PP      PP18395   9.514   6.592  13.614 -0.0820 -0.0929  0.1860
 8292PP      PP18396   3.129   7.804  11.472  0.1529 -0.0935  0.1618
 8293PP      PP18397  13.383  13.188   0.806  0.0142  0.0503 -0.2244
 8294PP      PP18398   1.068  15.424   1.709  0.0260  0.1442  0.0259
 8295PP      PP18399  11.097  13.544  13.683 -0.0028 -0.2371 -0.0144
 8296PP      PP18400   7.884  11.165   4.718  0.0881  0.0397 -0.2805
 8297PP      PP18401   4.918  13.711   9.684  0.3223 -0.0407  0.0208
 8298PP      PP18402   3.035   9.096   1.362 -0.0911  0.0383  0.0704
 8299PP      PP18403   5.844  11.168   2.184 -0.3058 -0.2058  0.1776
 8300PP      PP18404  15.711   0.789  11.106 -0.2312  0.3349  0.0158
 8301PP      PP18405   8.503   7.088   2.796 -0.0271 -0.0107 -0.0723
 8302PP      PP18406   7.560   7.862   3.688  0.0513  0.1788  0.3756
 8303PP      PP18407   6.428   4.804   8.248  0.0184 -0.1842 -0.0326
 8304PP      PP18408  10.263   0.981  13.571 -0.1660 -0.3545 -0.0704
 8305PP      PP18409   4.409  10.320  10.525 -0.0767 -0.0866 -0.2957
 8306PP      PP18410   9.214   6.366  11.616  0.0727  0.0350  0.0869
 8307PP      PP18411  14.493  10.997  12.610  0.1889 -0.0132 -0.2375
 8308PP      PP18412   8.159   9.894   1.555  0.0868 -0.1318  0.0232
 8309PP      PP18413   9.516   0.739   9.333 -0.1263  0.0047 -0.2445
 8310PP      PP18414   5.893   9.905   3.850 -0.2489  0.0569 -0.0484
 8311PP      PP18415   2.503   2.449  10.075  0.2288  0.0310 -0.1686
 8312PP      PP18416   4.620   3.120   1.258 -0.1292  0.2654 -0.4664
 8313PP      PP18417  10.020   6.789   3.090 -0.0691 -0.1998 -0.0029
 8314PP      PP18418   9.046  14.706   1.812 -0.1756 -0.1691  0.2334
 8315PP      PP18419   2.920   1.303   3.703 -0.0852 -0.3126  0.3611
 8316PP      PP18420   2.618   6.621   3.963 -0.0702  0.3041 -0.3297
 8317PP      PP18421  12.980   9.862   2.440 -0.1530 -0.1287  0.2224
 8318PP      PP18422   8.294  10.300   4.358  0.1928 -0.0799 -0.1299
 8319PP      PP18423   2.896  12.672   2.182 -0.0236  0.1773 -0.2994
 8320PP      PP18424  13.344   8.055   9.575 -0.1866  0.0206  0.1817
 8321PP      PP18425  12.014   7.191   0.456 -0.0224 -0.0539  0.1210
 8322PP      PP18426   8.214   7.127  12.605 -0.0031  0.1042  0.1234
 8323PP      PP18427   0.374   2.845   0.946 -0.0913  0.0551  0.1418
 8324PP      PP18428   1.216  11.343  13.096 -0.1603  0.3822  0.0347
 8325PP      PP18429  13.986   1.616   3.351 -0.0712  0.1466 -0.0893
 8326PP      PP18430   6.009  12.967   4.882 -0.1377  0.2955 -0.0324
 8327PP      PP18431   7.893  10.460   9.927  0.2369 -0.2069 -0.0649
 8328PP      PP18432   4.640   3.986   0.963 -0.2103  0.0939 -0.0953
 8329PP      PP18433  13.058   3.460  11.444 -0.4099 -0.0394  0.3876
 8330PP      PP18434   7.852   5.168   0.984 -0.3276  0.0297 -0.0008
 8331PP      PP18435  13.630   2.618   9.577  0.0102  0.3027 -0.0600
 8332PP      PP18436   3.501  10.099   2.912 -0.1105  0.0686  0.2966
 8333PP      PP18437   8.205   8.758   1.465 -0.0373  0.0090 -0.0987
 8334PP      PP18438   0.286   3.625   3.166 -0.1484 -0.1499 -0.1325
 8335PP      PP18439   4.551   0.671   1.994 -0.0570  0.0989  0.1272
 8336PP      PP18440  10.839   9.788   0.717  0.1892 -0.1519  0.1734
 8337PP      PP18441   2.824   4.855  11.013  0.0956  0.1475 -0.0794
 8338PP      PP18442   8.435   6.016   0.837  0.1045  0.0882 -0.3013
 8339PP      PP18443  14.506   7.666   1.336  0.0375 -0.0883  0.4382
 8340PP      PP18444  10.269  11.772  13.104  0.0651 -0.0123 -0.0872
 8341PP      PP18445   0.847   5.527   2.344  0.0902  0.1928  0.4382
 8342PP      PP18446   0.655  13.396   0.442  0.0629  0.1636 -0.3977
 8343PP      PP18447   7.283  10.705   9.111  0.0024 -0.2095 -0.0593
 8344PP      PP18448   6.563   9.562  11.623 -0.0793 -0.0434  0.2150
 8345PP      PP18449   1.557  14.598   1.540  0.0872  0.0634  0.2062
 8346PP      PP18450   4.076   7.355  11.269 -0.1295 -0.0213  0.2495
 8347PP      PP18451  10.120  13.087  13.582  0.0761  0.1514  0.2949
 8348PP      PP18452  13.786  12.216   1.744  0.0823 -0.2495  0.0469
 8349PP      PP18453   5.001   4.748  12.930 -0.0816  0.2832  0.4286
 8350PP      PP18454   2.296   9.747   1.085 -0.2064  0.0205  0.0350
 8351PP      PP18455   8.925  12.967   2.044 -0.2373 -0.1141  0.0770
 8352PP      PP18456   7.376   9.868   0.275 -0.2408 -0.1636 -0.0204
 8353PP      PP18457  12.781   9.529   9.956 -0.0027 -0.1733 -0.2521
 8354PP      PP18458   9.748  10.357   9.641  0.0969 -0.0295 -0.4392
 8355PP      PP18459   3.690  11.652   1.654 -0.1500  0.1245 -0.1890
 8356PP      PP18460   7.844   6.470   4.191  0.0034  0.0342  0.0171
 8357PP      PP18461   4.355   8.796  11.738  0.1214 -0.1507  0.2448
 8358PP      PP18462   0.760   9.681  12.565 -0.5237 -0.2884 -0.1038
 8359PP      PP18463   2.720   3.304  10.565  0.0623  0.0751  0.0803
 8360PP      PP18464   6.711  15.668  10.120  0.1168  0.3673  0.0853
 8361PP      PP18465  11.577   2.210   0.617 -0.2498  0.2119 -0.0389
 8362PP      PP18466  12.884   0.585  12.106 -0.2864  0.3085  0.0473
 8363PP      PP18467   9.921   9.098   0.481 -0.3933  0.0483 -0.0893
 8364PP      PP18468  13.646  15.667   2.381  0.3598  0.2047  0.0405
 8365PP      PP18469   5.165   8.464  11.568  0.3140 -0.3303  0.0529
 8366PP      PP18470   3.596   6.645  10.275  0.0103 -0.1818  0.0122
 8367PP      PP18471   0.798   8.243   9.564  0.2612 -0.1952 -0.0367
 8368PP      PP18472  12.511  11.028   2.235 -0.1118  0.0977 -0.0674
 8369PP      PP18473   6.325  13.919   0.004  0.1666  0.1910  0.2882
 8370PP      PP18474  12.233   3.685   9.613 -0.0802  0.0731 -0.0533
 8371PP      PP18475  12.012  14.735  12.131 -0.1730 -0.4190  0.0534
 8372PP      PP18476  14.031   3.358   0.705  0.0788  0.0559 -0.0519
 8373PP      PP18477   2.160   6.444   4.248  0.0060 -0.0847 -0.0455
 8374PP      PP18478   9.424   8.010  12.787  0.0189  0.0035 -0.1775
 8375PP      PP18479  12.566   3.766   0.703  0.0635  0.1220  0.0367
 8376PP      PP18480   8.869  15.301   4.231 -0.3049  0.0768 -0.1817
 8377PP      PP18481   8.324   0.107  13.465 -0.1811  0.1443 -0.1707
 8378PP      PP18482   8.863  15.713   2.707 -0.0258  0.0323  0.1102
 8379PP      PP18483  10.435  15.332   4.488 -0.0827  0.1343  0.1237
 8380PP      PP18484   5.513   4.965   1.256  0.1015 -0.0979 -0.0574
 8381PP      PP18485  10.179  11.378  11.863 -0.3841  0.0804 -0.0442
 8382PP      PP18486   8.508  14.835  11.366 -0.1182 -0.2559 -0.2061
 8383PP      PP18487  10.042   2.449   9.402 -0.1133  0.0319  0.0411
 8384PP      PP18488   7.378  10.221   1.233  0.0993 -0.1747  0.0979
 8385PP      PP18489  10.281   1.923  11.499  0.0820 -0.0345  0.1476
 8386PP      PP18490   0.928  12.855   1.910 -0.2108  0.0367 -0.1644
 8387PP      PP18491   2.658   6.778   1.698  0.1023  0.0339 -0.0284
 8388PP      PP18492   7.931  12.098   2.467 -0.0701 -0.3201 -0.6123
 8389PP      PP18493  15.458  15.314   1.945  0.0919 -0.1838 -0.0290
 8390PP      PP18494   2.048   1.305   9.688  0.2332 -0.1482 -0.4413
 8391PP      PP18495   0.518   8.579   0.392 -0.0042  0.1414  0.0886
 8392PP      PP18496  14.902  13.226   2.797  0.0303  0.0445 -0.0803
 8393PP      PP18497   9.439   1.484   4.065 -0.1884 -0.0893 -0.2155
 8394PP      PP18498   1.759   2.977   1.097 -0.1075  0.0438 -0.2178
 8395PP      PP18499   6.857   6.518   0.656 -0.1597  0.1344  0.0313
 8396PP      PP18500   6.029  15.191  12.105  0.1088 -0.0688  0.0845
 8397PP      PP18501  11.090  15.350   3.083 -0.1855  0.3673 -0.0356
 8398PP      PP18502   4.241   3.030  12.329  0.3391  0.2070  0.1815
 8399PP      PP18503   3.435  12.594   5.078  0.3760  0.1772 -0.2468
 8400PP      PP18504   8.510  11.528  13.414  0.0020 -0.3076 -0.0781
 8401PP      PP18505   2.963  15.027   9.295  0.2984  0.1671 -0.1534
 8402PP      PP18506   3.404  12.487   4.049  0.1107 -0.1485  0.0629
 8403PP      PP18507   9.650  12.371   0.025  0.0512 -0.0373  0.0774
 8404PP      PP18508  10.131  11.681   4.104 -0.5301 -0.3356  0.0511
 8405PP      PP18509   4.976   7.123  11.391 -0.0387  0.1433 -0.0406
 8406PP      PP18510   1.383   3.313   1.219 -0.0321 -0.1401 -0.3248
 8407PP      PP18511  14.922   2.314  11.234  0.2454  0.2690 -0.1653
 8408PP      PP18512  11.020   0.785   3.775  0.0828 -0.1219 -0.0947
 8409PP      PP18513   0.783   3.029   2.887 -0.0694 -0.0721  0.1585
 8410PP      PP18514  15.012   2.403   1.301 -0.1154 -0.4273 -0.0284
 8411PP      PP18515  13.470  13.602   3.220  0.0029 -0.1253  0.4613
 8412PP      PP18516   4.346  11.051  12.121  0.0894  0.3438  0.0623
 8413PP      PP18517  12.490  11.228   9.156 -0.0988 -0.0437 -0.2205
 8414PP      PP18518  12.335  13.108   1.416 -0.0155  0.3187 -0.1208
 8415PP      PP18519   9.694   2.081  12.184 -0.1669 -0.0813  0.4056
 8416PP      PP18520  15.623   5.632   3.029 -0.3546 -0.1458 -0.0041
 8417PP      PP18521   3.352  10.027  12.659  0.0499 -0.0969 -0.2262
 8418PP      PP18522   4.848   9.960  11.729 -0.1716  0.0789  0.0160
 8419PP      PP18523   6.695   3.997   7.883  0.1840 -0.1428  0.1013
 8420PP      PP18524   5.336  14.228  12.391  0.2091  0.2566 -0.0716
 8421PP      PP18525  10.979   4.539  11.849 -0.2525  0.0258 -0.2044
 8422PP      PP18526  14.284   6.259  12.223  0.0330  0.3429  0.1625
 8423PP      PP18527  12.828   1.935   3.894  0.1168 -0.1996  0.0626
 8424PP      PP18528  15.079   0.874   9.459  0.1756 -0.0858  0.1421
 8425PP      PP18529   5.689   3.268   1.066  0.0185 -0.0370  0.1800
 8426PP      PP18530  12.789   3.027  13.238  0.0372 -0.2070  0.1038
 8427PP      PP18531  12.944   6.939   8.867 -0.2389 -0.0865 -0.0432
 8428PP      PP18532   3.941   9.831   2.944  0.0359  0.0343  0.1629
 8429PP      PP18533   1.118  13.851   2.853  0.1626  0.0474 -0.0952
 8430PP      PP18534   3.786   2.324   9.134 -0.2842 -0.1526  0.1702
 8431PP      PP18535   0.973   2.728  12.749  0.0214 -0.0924  0.1704
 8432PP      PP18536   7.376   6.987  11.325 -0.0236  0.2954  0.4403
 8433PP      PP18537   0.026   0.667  12.399 -0.1500  0.0484  0.3065
 8434PP      PP18538  11.477   9.114  13.529 -0.0283  0.2882  0.0462
 8435PP      PP18539  14.852   0.876  11.440 -0.0221  0.0905 -0.0442
 8436PP      PP18540  12.053  13.623   2.035 -0.3307 -0.0498  0.1317
 8437PP      PP18541  10.578   7.713   3.758 -0.0574  0.0417 -0.0651
 8438PP      PP18542  13.310   7.151   2.877 -0.0520  0.0939  0.0114
 8439PP      PP18543  14.868  15.539  13.026  0.2697 -0.0838 -0.1365
 8440PP      PP18544   6.116   7.050  12.976  0.0340  0.0462 -0.1263
 8441PP      PP18545   7.114  15.375  10.239 -0.2476 -0.0991 -0.1948
 8442PP      PP18546  10.978   9.826   2.222 -0.1807 -0.1236  0.0084
 8443PP      PP18547  13.408   9.699   1.548 -0.0124 -0.0098 -0.3325
 8444PP      PP18548   8.603  14.399   0.773  0.0773 -0.0547  0.4683
 8445PP      PP18549   5.503  13.481  12.795 -0.3064 -0.2425  0.2550
 8446PP      PP18550  12.402   2.908  11.985  0.3918  0.2299  0.0359
 8447PP      PP18551   5.247   9.218   4.948 -0.2242  0.1387  0.0849
 8448PP      PP18552  13.256   6.303  13.455  0.0976 -0.1329  0.2396
 8449PP      PP18553   5.905   5.994   2.397 -0.1371 -0.1414 -0.0527
 8450PP      PP18554  15.623   2.799   8.670  0.1687 -0.0073  0.0783
 8451PP      PP18555   8.672   5.016   1.053 -0.0958 -0.0692 -0.4031
 8452PP      PP18556  11.503   1.131   3.595 -0.0519 -0.0578  0.1078
 8453PP      PP18557   2.691  13.317  11.376 -0.1748 -0.0602  0.1915
 8454PP      PP18558  15.069  14.492   3.796  0.0852  0.1530  0.2466
 8455PP      PP18559   1.137  14.094   0.787  0.0770  0.1128 -0.1380
 8456PP      PP18560   3.235  10.422   4.772 -0.2518  0.1408  0.0132
 8457PP      PP18561   5.491   6.775   2.794 -0.0324  0.1539 -0.0012
 8458PP      PP18562   8.914  13.482   0.106 -0.1298  0.5069 -0.1108
 8459PP      PP18563   9.611  12.856   1.464 -0.3153 -0.1065 -0.1155
 8460PP      PP18564   7.536   3.676  10.841 -0.2057 -0.0192  0.1516
 8461PP      PP18565  10.328  10.911  10.761  0.1807  0.0072  0.1517
 8462PP      PP18566   0.087  14.285   4.488 -0.1831 -0.0190  0.1646
 8463PP      PP18567   7.429  13.908   0.416 -0.2816  0.1367 -0.3136
 8464PP      PP18568   7.378   3.848  12.958 -0.3064  0.3767 -0.1943
 8465PP      PP18569   4.362  11.164   3.712  0.2044  0.0350 -0.0404
 8466PP      PP18570  10.935   7.557   2.407  0.0423  0.3141 -0.0801
 8467PP      PP18571   6.601  14.447  11.747 -0.0955 -0.3214 -0.0267
 8468PP      PP18572   2.338   8.425  13.232 -0.2701  0.3249  0.1667
 8469PP      PP18573   6.968   2.928  12.809  0.0596  0.0678 -0.0594
 8470PP      PP18574   1.837  10.034   3.333 -0.2689  0.1595 -0.1532
 8471PP      PP18575   1.663  14.745  10.178 -0.5355  0.3025 -0.0468
 8472PP      PP18576   8.204  12.172   1.330 -0.0912  0.2552  0.0973
 8473PP      PP18577   2.735   8.243   3.854  0.3445 -0.1025  0.2282
 8474PP      PP18578  11.981  15.410   2.943  0.1061  0.4040  0.0931
 8475PP      PP18579   6.123   0.271  12.062  0.0170 -0.0774 -0.0520
 8476PP      PP18580   3.801   2.006   4.562 -0.2453  0.2052 -0.2580
 8477PP      PP18581   9.176   4.285   2.487 -0.1199 -0.0601  0.1464
 8478PP      PP18582   1.323  13.604   3.978  0.2228  0.0637 -0.1436
 8479PP      PP18583   4.962   0.992   2.139 -0.1421 -0.1235  0.2482
 8480PP      PP18584   6.434  14.591  11.088  0.0031  0.0543 -0.0683
 8481PP      PP18585  15.704  11.219   1.028 -0.2172  0.2370  0.0139
 8482PP      PP18586   9.688  14.787   4.578 -0.5489 -0.1162 -0.0162
 8483PP      PP18587   6.392  14.345  12.485 -0.2141 -0.2570  0.2094
 8484PP      PP18588  10.994  10.176  11.132  0.0655 -0.1308 -0.3349
 8485PP      PP18589   2.099  11.759   0.828 -0.4113  0.1851  0.1302
 8486PP      PP18590   7.682  12.742   3.598  0.2795  0.1104  0.2076
 8487PP      PP18591   6.255  13.758   1.226  0.0783  0.2610  0.0031
 8488PP      PP18592   9.146   3.189  11.917 -0.2059 -0.0202  0.1521
 8489PP      PP18593   7.442   9.910   1.652 -0.2793 -0.1979 -0.2879
 8490PP      PP18594   4.307   1.555   9.091 -0.0552 -0.1174 -0.1149
 8491PP      PP18595   0.295   4.936   9.539  0.2127 -0.3316  0.0213
 8492PP      PP18596  12.009  11.416  13.517 -0.1773  0.3418  0.1651
 8493PP      PP18597  12.829   8.137   9.672 -0.2221 -0.0921 -0.0272
 8494PP      PP18598  10.861  11.557   1.642  0.0894  0.0747 -0.0973
 8495PP      PP18599  14.197   0.911   9.716  0.2802  0.3604  0.0005
 8496PP      PP18600  13.914  10.125  10.357  0.0401 -0.0422 -0.1474
 8497PP      PP18601   4.312  14.106  12.296  0.1439  0.2115  0.2902
 8498PP      PP18602  15.510  10.777   2.956  0.5353  0.0299  0.1095
 8499PP      PP18603   9.272   0.391  13.452 -0.1827 -0.0161 -0.3281
 8500PP      PP18604   9.352  14.361   8.669  0.1916 -0.1067  0.2148
 8501PP      PP18605   8.703   8.507   1.447  0.1329 -0.1076  0.2897
 8502PP      PP18606   2.618  12.239   1.962  0.2033 -0.0294 -0.1773
 8503PP      PP18607   9.066   9.672   1.548  0.0648 -0.0806 -0.0195
 8504PP      PP18608  15.130   4.314   0.773 -0.1656 -0.0844 -0.0581
 8505PP      PP18609   8.925   1.466   9.637  0.1064 -0.2373 -0.1388
 8506PP      PP18610   0.432   9.916   3.159 -0.0680  0.0929  0.1766
 8507PP      PP18611   9.288   6.006   3.855  0.2198 -0.2232  0.0555
 8508PP      PP18612   1.279  15.155  13.036  0.1129  0.1041 -0.1852
 8509PP      PP18613   7.209  15.245   8.795 -0.3356 -0.3356 -0.1840
 8510PP      PP18614   5.177   8.566   0.128  0.1517 -0.1203  0.1689
 8511PP      PP18615   2.529   7.204   1.992  0.0764 -0.0091  0.0029
 8512PP      PP18616  11.831   4.807   8.655  0.1696  0.1579 -0.3876
 8513PP      PP18617  14.457   0.878   0.026  0.2462  0.2080  0.1992
 8514PP      PP18618   8.851   8.877  10.082 -0.0250 -0.0824 -0.1256
 8515PP      PP18619  14.074   9.454   4.168  0.1668  0.0528  0.1358
 8516PP      PP18620   0.881  11.138   9.654 -0.3477  0.0967 -0.2857
 8517PP      PP18621   2.856   2.387   3.833  0.2267  0.0197  0.1043
 8518PP      PP18622   4.153   5.041   3.301  0.2989  0.2480  0.1399
 8519PP      PP18623   1.169  13.509   0.590 -0.0794  0.2184  0.2997
 8520PP      PP18624   2.445   1.699  11.656  0.0999  0.0903 -0.0027
 8521PP      PP18625  11.210   9.464  13.314  0.0684  0.0498 -0.3115
 8522PP      PP18626   0.045  11.309   2.915 -0.2391  0.0726 -0.3553
 8523PP      PP18627  14.821  11.607  11.790  0.0196 -0.1169 -0.4429
 8524PP      PP18628   4.647   2.564   8.882 -0.0388  0.0765 -0.0266
 8525PP      PP18629  10.675  10.665   4.549 -0.3758  0.0452  0.3729
 8526PP      PP18630  14.537  12.446   4.730  0.0734 -0.0675  0.0094
 8527PP      PP18631   9.294  11.064   4.469  0.0676 -0.2662 -0.1564
 8528PP      PP18632  13.750   1.545   1.539  0.0409 -0.3180 -0.3725
 8529PP      PP18633  10.061  14.794  12.526  0.0321  0.0509 -0.1508
 8530PP      PP18634   0.225  15.719   3.201  0.1896  0.1697 -0.3548
 8531PP      PP18635  12.728   5.709   9.491  0.0599 -0.1616 -0.0659
 8532PP      PP18636   1.669   3.347   2.114  0.0291 -0.2117 -0.2049
 8533PP      PP18637   8.066   1.637   8.529 -0.0378  0.3683 -0.0516
 8534PP      PP18638   4.185   3.041   0.995 -0.1552 -0.0069  0.0490
 8535PP      PP18639   8.963   7.979  13.448 -0.1825  0.0030  0.0053
 8536PP      PP18640   9.796   3.097  12.204  0.1124 -0.0193 -0.2372
 8537PP      PP18641   8.578   2.018  11.976  0.2192 -0.2774 -0.1949
 8538PP      PP18642   1.415  14.355   9.179 -0.1437  0.1597  0.1872
 8539PP      PP18643   8.985   8.958   2.104  0.1439 -0.2544  0.0144
 8540PP      PP18644  14.702   8.457  12.637  0.3257 -0.0261  0.0478
 8541PP      PP18645   9.143  11.452   9.228 -0.2220 -0.0934 -0.0672
 8542PP      PP18646  12.239   9.597   0.418 -0.2490 -0.0937 -0.0126
 8543PP      PP18647  11.584   5.221   8.456 -0.4208 -0.0888 -0.1468
 8544PP      PP18648  14.135  15.724  12.785 -0.0478  0.4245  0.3014
 8545PP      PP18649   4.648  13.710   0.302 -0.0601 -0.0922 -0.0857
 8546PP      PP18650   1.487   7.884  11.337  0.0323  0.1478  0.0929
 8547PP      PP18651  10.184   6.152  10.687 -0.2405  0.0491  0.0721
 8548PP      PP18652   8.329   2.974   3.586 -0.0773 -0.0698 -0.3174
 8549PP      PP18653   1.076   4.934  11.286 -0.1763  0.0421  0.0042
 8550PP      PP18654  13.392  13.129  13.470  0.2071  0.0156  0.1066
 8551PP      PP18655   8.160   3.943   3.341 -0.2820  0.2358 -0.2174
 8552PP      PP18656  13.284  12.728   2.043  0.1307  0.5845  0.0301
 8553PP      PP18657  13.291  10.604   3.603 -0.2161 -0.1545 -0.2182
 8554PP      PP18658   5.033   6.884  12.943  0.0752 -0.2879 -0.1061
 8555PP      PP18659   6.045   6.686   2.954  0.1432  0.4529  0.1475
 8556PP      PP18660   3.795  10.823   1.294 -0.1433  0.0980  0.2039
 8557PP      PP18661  11.638  14.902   9.681  0.0447 -0.1076  0.0679
 8558PP      PP18662   3.463   0.267   2.576  0.0185  0.1499  0.0884
 8559PP      PP18663   3.147   7.840   0.238 -0.1844 -0.1282  0.3288
 8560PP      PP18664  14.793   7.175   0.350 -0.0157  0.2088  0.1824
 8561PP      PP18665  11.659  14.692  11.328  0.2804  0.0301  0.1864
 8562PP      PP18666   0.340   0.937  10.756  0.0172 -0.0669  0.0009
 8563PP      PP18667  10.655   7.593  12.300  0.1656  0.4591 -0.2007
 8564PP      PP18668   3.035   7.320   2.044  0.2725 -0.1694  0.2357
 8565PP      PP18669  15.691   9.846  11.694  0.0885  0.1923 -0.2891
 8566PP      PP18670   7.634   6.067   8.416 -0.1495  0.2111  0.1143
 8567PP      PP18671   7.507  11.998  10.287 -0.2732 -0.1980 -0.0002
 8568PP      PP18672   2.025  11.728  12.613 -0.1334  0.1326 -0.2585
 8569PP      PP18673   8.318  14.612  11.906 -0.1310 -0.2954  0.2759
 8570PP      PP18674   5.362   2.483  10.913 -0.3141  0.1243 -0.0777
 8571PP      PP18675  14.349  15.329   4.498 -0.2188 -0.6222  0.0596
 8572PP      PP18676  12.754  12.838   1.924  0.0519 -0.2905  0.0726
 8573PP      PP18677  10.334   5.361   3.459 -0.1227 -0.2742  0.2431
 8574PP      PP18678   7.799  12.143   0.192 -0.2405 -0.0166  0.3374
 8575PP      PP18679  12.304  14.924   0.635  0.1234  0.0917 -0.0885
 8576PP      PP18680   3.735   1.483  13.352  0.3499 -0.1186 -0.0781
 8577PP      PP18681  15.064   5.653  10.119  0.3122 -0.2121  0.1203
 8578PP      PP18682   5.057   6.530   2.363 -0.1513  0.1140 -0.3301
 8579PP      PP18683   0.137  10.686   2.550  0.1270 -0.2458 -0.4242
 8580PP      PP18684  12.429  11.786  11.103  0.1021 -0.1463  0.4116
 8581PP      PP18685  12.462   4.815   2.132  0.2416 -0.4384 -0.2128
 8582PP      PP18686  13.432   8.104   3.829 -0.2797 -0.0677  0.0850
 8583PP      PP18687  11.829  15.476  11.416 -0.2979  0.4874 -0.0390
 8584PP      PP18688   2.403  11.137   1.982  0.0317  0.1563  0.1393
 8585PP      PP18689   5.750  15.154   4.678 -0.1647 -0.0295 -0.0079
 8586PP      PP18690   3.525   0.375   9.360  0.0376 -0.2131  0.1464
 8587PP      PP18691   2.401  12.636   2.176  0.1294  0.1112  0.3611
 8588PP      PP18692   0.529   8.638   9.856  0.2113 -0.2758 -0.0299
 8589PP      PP18693   3.358   3.013  12.897 -0.3186 -0.1001  0.1895
 8590PP      PP18694  13.991   2.848   2.774  0.0757  0.2671  0.0452
 8591PP      PP18695   0.543  13.977   3.460  0.1130 -0.0976 -0.1206
 8592PP      PP18696   3.811  12.440   0.457 -0.0900  0.2387  0.0474
 8593PP      PP18697  12.447   8.389   1.968  0.1543 -0.0093  0.1089
 8594PP      PP18698   1.565   3.393  11.138 -0.0785 -0.2377  0.0747
 8595PP      PP18699   4.507   6.210  11.663  0.0032 -0.0986  0.0755
 8596PP      PP18700   1.787  13.818  13.272  0.1295  0.0370 -0.0228
 8597PP      PP18701  11.687   7.922   8.939 -0.0410 -0.1495  0.1053
 8598PP      PP18702   9.057   2.455   1.863  0.2558  0.0812 -0.2867
 8599PP      PP18703  10.393  13.162   8.887  0.0105  0.0330 -0.0954
 8600PP      PP18704  15.583   5.231  11.885  0.2267 -0.1670 -0.1570
 8601PP      PP18705  15.354   4.517   9.999  0.1507 -0.1788 -0.1705
 8602PP      PP18706  12.201  10.750   4.042  0.0022  0.1632 -0.0007
 8603PP      PP18707  10.186   4.851   8.775 -0.1744  0.1672  0.1536
 8604PP      PP18708   2.120   0.881   3.466 -0.2256  0.2692 -0.2731
 8605PP      PP18709   2.498   9.532   2.910  0.1628 -0.0871 -0.2251
 8606PP      PP18710  15.317   6.991  11.837  0.2338 -0.1262  0.2769
 8607PP      PP18711  15.336  10.513   3.865  0.2560 -0.1608 -0.2597
 8608PP      PP18712   2.868   9.031  10.554 -0.1118 -0.0239  0.0068
 8609PP      PP18713   1.124   7.818  12.942 -0.2926  0.0749 -0.0956
 8610PP      PP18714   1.299   7.156  11.217  0.1121  0.1079 -0.0051
 8611PP      PP18715   5.201   4.817   0.822 -0.1093  0.1042 -0.0444
 8612PP      PP18716  10.790  15.678  10.806  0.0747 -0.0190  0.0230
 8613PP      PP18717   3.478   1.376   1.140 -0.1101  0.2172 -0.2020
 8614PP      PP18718  12.639   5.303   2.957  0.4937  0.0560 -0.0597
 8615PP      PP18719  10.196  12.227  12.393  0.0061  0.1493  0.1369
 8616PP      PP18720   9.876  11.822  10.938  0.1445  0.0078  0.3569
 8617PP      PP18721  12.043  10.315   1.006 -0.0960 -0.1149  0.3909
 8618PP      PP18722  14.748   5.074  12.582  0.0741 -0.0647 -0.1466
 8619PP      PP18723   9.085   4.832   2.323 -0.1727 -0.1225 -0.1031
 8620PP      PP18724   3.490   6.848   8.820 -0.0998 -0.1237 -0.2329
 8621PP      PP18725  13.164  11.857   3.742  0.1864  0.0831 -0.1825
 8622PP      PP18726   5.618   6.772   1.455  0.0080 -0.1957 -0.0435
 8623PP      PP18727   0.940  13.945   9.354  0.1976 -0.0744  0.1125
 8624PP      PP18728   1.884   5.578   9.813  0.0235 -0.2706 -0.2021
 8625PP      PP18729  10.717  10.573   0.405 -0.2084 -0.1989 -0.2691
 8626PP      PP18730   0.972   9.058   4.165 -0.0579 -0.3045 -0.2272
 8627PP      PP18731  14.912   5.694   8.607  0.0688  0.0494 -0.1314
 8628PP      PP18732   3.296   7.047   1.690  0.3838 -0.0682 -0.0489
 8629PP      PP18733  11.372   5.952   1.345  0.1765  0.3355  0.2221
 8630PP      PP18734  11.858   9.725   0.125  0.1362 -0.0643 -0.2071
 8631PP      PP18735   2.261   9.098   3.131  0.2930  0.4007  0.4704
 8632PP      PP18736   1.944  13.166  10.341  0.1102 -0.0341 -0.1462
 8633PP      PP18737   7.574   3.812   9.440 -0.0657  0.2126  0.0007
 8634PP      PP18738   8.100   4.187   9.265 -0.2287  0.2096  0.0729
 8635PP      PP18739   4.177   8.304   0.005  0.1349  0.2089 -0.3347
 8636PP      PP18740   1.694   1.647  12.491  0.2603 -0.1776  0.0956
 8637PP      PP18741   6.016  15.398  11.120  0.2922 -0.1567 -0.1702
 8638PP      PP18742  14.115   3.744  10.452 -0.2141  0.0901  0.0171
 8639PP      PP18743   1.616  10.074  12.543  0.0620  0.1151 -0.1798
 8640PP      PP18744  11.928   8.446  11.988 -0.0233  0.0858 -0.2362
 8641PP      PP18745   4.505  15.459   3.856  0.0867 -0.1207 -0.0522
 8642PP      PP18746   1.516  10.795   2.604 -0.4040 -0.0687  0.1638
 8643PP      PP18747   8.402   6.055   9.614  0.0330 -0.2913 -0.3559
 8644PP      PP18748   7.769  10.596   9.079 -0.2328 -0.1768 -0.0717
 8645PP      PP18749  10.733  12.369   9.189 -0.1800 -0.0422  0.0437
 8646PP      PP18750   1.856   0.967  13.636 -0.0763 -0.0850 -0.2121
 8647PP      PP18751   5.140   1.607   2.957  0.2857  0.0511 -0.1270
 8648PP      PP18752   2.511   1.601  12.212  0.2990  0.0258 -0.1940
 8649PP      PP18753  15.015  15.319   3.680  0.0508  0.0161 -0.1020
 8650PP      PP18754   0.808  11.090  13.219 -0.2029 -0.3192 -0.0881
 8651PP      PP18755  12.765  10.032   4.200 -0.0673  0.1169  0.1251
 8652PP      PP18756   7.016  10.925   4.539 -0.0397  0.1197  0.0913
 8653PP      PP18757  14.526   5.911   2.883 -0.0284  0.0918 -0.0398
 8654PP      PP18758  12.311  13.226   2.670  0.3670  0.2908 -0.0631
 8655PP      PP18759  11.373   6.963  13.164  0.2378 -0.1421  0.1365
 8656PP      PP18760   4.396   0.752  13.560 -0.1780 -0.5890  0.2738
 8657PP      PP18761   7.346  11.331   2.901 -0.0805 -0.1712  0.0342
 8658PP      PP18762   8.045   4.441  11.826 -0.2501 -0.2920  0.0612
 8659PP      PP18763   3.818   7.062  13.065 -0.2255  0.0092  0.0398
 8660PP      PP18764  14.111   2.845   3.300 -0.1045  0.0209  0.3613
 8661PP      PP18765  13.419  15.092  10.309 -0.0020  0.1631 -0.2052
 8662PP      PP18766   0.121  11.435  13.085 -0.2936 -0.1932  0.0288
 8663PP      PP18767   8.767  11.995  11.674 -0.0523  0.0980  0.0018
 8664PP      PP18768  10.967  10.660  12.216 -0.1510  0.1684 -0.1364
 8665PP      PP18769   3.011   8.733  10.995  0.1414 -0.1761 -0.2931
 8666PP      PP18770   1.112   2.460   0.702  0.0082 -0.2773 -0.2218
 8667PP      PP18771   6.933  11.145   3.558  0.0394  0.0248 -0.0362
 8668PP      PP18772  14.258   6.600  10.309 -0.1815 -0.0526 -0.2055
 8669PP      PP18773   8.118  10.070   4.803 -0.1106  0.0906 -0.1876
 8670PP      PP18774  13.767   0.885  12.869 -0.2864  0.2373 -0.1587
 8671PP      PP18775  10.390   3.778   2.364 -0.0189  0.2103  0.4278
 8672PP      PP18776   4.403  15.322  10.645  0.0955  0.0226  0.2175
 8673PP      PP18777  15.335  15.383  13.317  0.1682  0.1114  0.1793
 8674PP      PP18778  15.050   5.566   2.192 -0.1490  0.3370  0.0401
 8675PP      PP18779   8.955   3.248  10.049  0.1628 -0.2625 -0.1505
 8676PP      PP18780  14.782   3.848   9.531  0.1758  0.1067 -0.5302
 8677PP      PP18781   5.509   0.616   4.269 -0.1964  0.5430  0.1018
 8678PP      PP18782   7.154   0.306  10.173 -0.0811  0.4935  0.3521
 8679PP      PP18783   8.897   7.121   2.489  0.1247 -0.2753  0.0807
 8680PP      PP18784   2.982   4.597   4.203  0.0362 -0.1899  0.1578
 8681PP      PP18785   9.205   4.040  12.959 -0.1461  0.0949  0.0127
 8682PP      PP18786   5.686   0.865   3.728 -0.3118  0.0615  0.0214
 8683PP      PP18787   4.338  11.480   2.884 -0.0654  0.0382  0.0595
 8684PP      PP18788  13.695   2.802  10.906  0.0795  0.0897 -0.0596
 8685PP      PP18789  12.391   9.024   1.391 -0.2956  0.2126 -0.0376
 8686PP      PP18790   6.653   5.471   0.783  0.1595  0.1138 -0.0208
 8687PP      PP18791   8.950  14.850   2.305 -0.0944 -0.1707 -0.0502
 8688PP      PP18792   1.530   2.161   0.504 -0.0218  0.2782  0.2080
 8689PP      PP18793   5.248  10.777  11.141 -0.3203 -0.1029 -0.0288
 8690PP      PP18794   5.468  11.205   3.630  0.3066 -0.0017  0.3754
 8691PP      PP18795   3.170   6.299  10.618 -0.2029  0.0302 -0.0989
 8692PP      PP18796   5.575   9.121   4.180  0.1942  0.0404 -0.1231
 8693PP      PP18797   5.527  10.219   2.107 -0.2126  0.1862 -0.1716
 8694PP      PP18798   8.133   9.027  12.817 -0.0156 -0.1122  0.0081
 8695PP      PP18799   4.694  12.767   1.918  0.0968  0.5147 -0.0761
 8696PP      PP18800  14.017   7.943   3.708  0.0280  0.0348 -0.0597
 8697PP      PP18801   9.034   0.030   9.323  0.0627  0.3389  0.2085
 8698PP      PP18802  14.516  13.218  12.268 -0.0923  0.2641  0.0676
 8699PP      PP18803   3.645   8.449   1.946  0.0573 -0.0990  0.1019
 8700PP      PP18804   9.920   0.156  11.875 -0.0912 -0.1629 -0.1482
 8701PP      PP18805  10.187   3.529  11.979 -0.2037 -0.0746 -0.0703
 8702PP      PP18806   3.437   4.017   3.545  0.1620  0.0758  0.2222
 8703PP      PP18807  11.584  13.111   3.084 -0.0353  0.0846 -0.0518
 8704PP      PP18808   4.425   7.220   8.551 -0.0705  0.0818 -0.1763
 8705PP      PP18809   6.182  12.371  10.864  0.0076 -0.0622  0.3118
 8706PP      PP18810   2.143  12.448  11.412  0.1622 -0.0532  0.0418
 8707PP      PP18811   6.221   3.562  12.965 -0.1788  0.0736 -0.2583
 8708PP      PP18812   3.229  13.305   2.271  0.3291  0.0644 -0.1609
 8709PP      PP18813   3.789   1.559  12.788 -0.1041  0.2107  0.0627
 8710PP      PP18814   6.745   0.850   2.519 -0.3638  0.0375  0.2646
 8711PP      PP18815   8.884   7.561  13.751 -0.1594  0.0143  0.0692
 8712PP      PP18816  11.474   9.931   2.488 -0.1645  0.0346 -0.1554
 8713PP      PP18817   7.461   6.415   1.322  0.0778 -0.1344 -0.0399
 8714PP      PP18818   5.945   7.791  12.492 -0.2210 -0.2630 -0.0476
 8715PP      PP18819  12.962  10.500  12.902  0.1235  0.1151 -0.0885
 8716PP      PP18820   7.315  12.484   1.410 -0.1978  0.2524  0.1340
 8717PP      PP18821   6.251  12.608   5.183 -0.0917  0.0189  0.4144
 8718PP      PP18822   4.337  10.233  11.459  0.1713  0.2508 -0.1833
 8719PP      PP18823   4.541  12.771  12.265 -0.0028  0.1902 -0.2706
 8720PP      PP18824   6.836   8.851  11.344 -0.2583  0.1133 -0.2393
 8721PP      PP18825   5.352   4.881  11.080  0.0807 -0.4930 -0.0683
 8722PP      PP18826  13.440   8.534   9.460  0.0734  0.1110  0.1992
 8723PP      PP18827   4.076   5.781  13.376  0.4052  0.0056 -0.0849
 8724PP      PP18828   4.828   6.069   4.086 -0.1299 -0.1746 -0.3442
 8725PP      PP18829  10.452   4.660   9.888  0.2156 -0.0697  0.3996
 8726PP      PP18830   2.848   2.071   4.434  0.1256 -0.2394 -0.4884
 8727PP      PP18831   0.462   0.743   0.572 -0.1097  0.1558 -0.0332
 8728PP      PP18832  15.220  10.130  12.838 -0.0966  0.1145 -0.0397
 8729PP      PP18833  10.148   5.492   0.719 -0.0278  0.0748 -0.3940
 8730PP      PP18834   8.442   3.817   9.135  0.1972  0.0982 -0.3227
 8731PP      PP18835  12.899  11.976   4.622 -0.2492 -0.0070 -0.3987
 8732PP      PP18836   0.776   9.618   2.080  0.0779  0.0693 -0.0273
 8733PP      PP18837  12.715  12.016   9.880  0.1818 -0.2348 -0.1322
 8734PP      PP18838   0.959   6.966  12.100  0.0417  0.0610  0.0047
 8735PP      PP18839   4.450   3.184  13.533 -0.1918 -0.0327  0.0805
 8736PP      PP18840   4.296   5.309   2.354  0.3895 -0.2226 -0.1018
 8737PP      PP18841   4.567   3.498   9.118  0.1745 -0.0896 -0.0904
 8738PP      PP18842  13.252   4.032   9.561 -0.0433 -0.2994 -0.1474
 8739PP      PP18843   2.241   5.513   9.176  0.0666 -0.1618 -0.1926
 8740PP      PP18844   5.818   5.105   9.006 -0.4376  0.1496 -0.0512
 8741PP      PP18845   8.787   4.990  10.765  0.1525 -0.4595  0.1162
 8742PP      PP18846   4.870   3.137  10.615  0.0078 -0.0054  0.0437
 8743PP      PP18847   3.545   8.859   3.924  0.2438 -0.0500  0.2522
 8744PP      PP18848   0.570   5.016   1.100 -0.1790 -0.0347  0.0687
 8745PP      PP18849  10.269   1.383  10.678  0.1318 -0.0122  0.1938
 8746PP      PP18850   8.728   6.472   9.587  0.4222  0.0456 -0.0315
 8747PP      PP18851   4.063   8.914   4.930 -0.0232  0.1231  0.2892
 8748PP      PP18852  14.856   6.719   1.819 -0.0291 -0.0909  0.4849
 8749PP      PP18853  13.733  10.669   1.613 -0.2026 -0.1990  0.0172
 8750PP      PP18854  14.770   1.489  12.747  0.1507 -0.2406  0.3274
 8751PP      PP18855   2.913   1.664  11.839 -0.0275 -0.2089 -0.1602
 8752PP      PP18856   4.921  12.422  12.130  0.0320 -0.0093  0.0042
 8753PP      PP18857   4.565  12.414   2.446 -0.0932  0.0657  0.2062
 8754PP      PP18858   3.850   7.754   0.732 -0.2893  0.2076 -0.1092
 8755PP      PP18859  10.395  12.766   9.233 -0.0272 -0.3446 -0.1622
 8756PP      PP18860   2.605   7.697  11.602  0.0429  0.2760 -0.0116
 8757PP      PP18861   1.094  11.250   1.614 -0.0499 -0.0431 -0.1384
 8758PP      PP18862  10.553  12.856   3.697 -0.0024  0.0163 -0.2857
 8759PP      PP18863   3.393  12.277   1.497 -0.0975  0.0039  0.1265
 8760PP      PP18864   9.084   1.680   1.212  0.3168  0.2933  0.2282
 8761PP      PP18865   0.877   0.599   3.711  0.1824 -0.0120  0.0450
 8762PP      PP18866   4.542   3.608  10.453 -0.0739  0.0883  0.1121
 8763PP      PP18867   9.206  11.773  12.774 -0.3087  0.0797  0.3194
 8764PP      PP18868   1.502  14.599  11.941 -0.0050  0.1056 -0.1189
 8765PP      PP18869   0.265  12.530  11.364  0.2836 -0.3127 -0.0721
 8766PP      PP18870   8.804   0.581   4.022  0.0540 -0.1113  0.1844
 8767PP      PP18871  14.704  13.998  12.252 -0.3108 -0.1320  0.0607
 8768PP      PP18872  13.488   3.657   3.157 -0.1241  0.1548 -0.0967
 8769PP      PP18873   8.668  13.745   4.374 -0.3290  0.0769  0.1804
 8770PP      PP18874   0.312   5.384  10.822 -0.1116 -0.2024 -0.0512
 8771PP      PP18875   5.919   5.997   8.424 -0.5272  0.2474 -0.1644
 8772PP      PP18876  11.022   9.901  13.098  0.0335 -0.0636 -0.0634
 8773PP      PP18877   3.084   2.644  10.119 -0.1990 -0.2251 -0.2641
 8774PP      PP18878   0.855   6.944   2.800  0.2486 -0.2659  0.2216
 8775PP      PP18879   9.746   2.200   0.728  0.0036 -0.0802  0.0279
 8776PP      PP18880   8.041   7.570  10.251  0.1095 -0.2198  0.0814
 8777PP      PP18881  14.092   1.145  11.994  0.2032 -0.3792 -0.2482
 8778PP      PP18882   6.426  15.113  12.415 -0.0269  0.3332  0.1025
 8779PP      PP18883   7.790  10.259  13.302  0.0682 -0.0038  0.0505
 8780PP      PP18884   5.969   6.184   9.537 -0.0191 -0.2508 -0.0253
 8781PP      PP18885   4.029   6.818   4.603  0.0113 -0.4604  0.0515
 8782PP      PP18886  12.307   2.903   1.012 -0.2719 -0.0437 -0.0170
 8783PP      PP18887  14.231  14.945   9.990  0.0168  0.0763 -0.0061
 8784PP      PP18888  11.382  12.450   4.148 -0.1529 -0.6371 -0.0443
 8785PP      PP18889   8.280  12.760  11.719  0.0441  0.0103 -0.1234
 8786PP      PP18890   7.027   5.021   1.791 -0.1261 -0.0027  0.0159
 8787PP      PP18891  13.432   9.748  10.694 -0.0652  0.2422  0.0689
 8788PP      PP18892  15.571   5.143  13.253 -0.4130 -0.1133  0.0913
 8789PP      PP18893   8.801  11.070   4.336  0.2675 -0.0832 -0.2305
 8790PP      PP18894   4.892   1.187   4.225  0.0765 -0.1471 -0.1912
 8791PP      PP18895   6.601  15.247  10.347  0.5598  0.2869 -0.3718
 8792PP      PP18896   6.058   6.516   4.321 -0.0533  0.0294  0.2221
 8793PP      PP18897   3.531   6.765   2.507 -0.0842 -0.1249  0.1769
 8794PP      PP18898   4.066  10.031   4.367 -0.2512  0.1443 -0.1048
 8795PP      PP18899  13.464  10.585  11.544  0.1155  0.0011 -0.0920
 8796PP      PP18900  12.284   3.946   8.801 -0.1008  0.0691  0.0905
 8797PP      PP18901   5.028  10.835  10.525 -0.0227 -0.0205  0.2764
 8798PP      PP18902   3.319   4.528   3.640 -0.0207 -0.2819  0.0297
 8799PP      PP18903  15.622   3.748  13.563  0.0022 -0.0957  0.1543
 8800PP      PP18904   2.873   7.429   9.833  0.3415  0.4024 -0.0000
 8801PP      PP18905  13.973   3.877   3.705  0.0134 -0.0997  0.0028
 8802PP      PP18906  14.076  13.890   0.124  0.0386  0.0287  0.0745
 8803PP      PP18907   0.682  14.137  10.988 -0.3985  0.1084  0.0964
 8804PP      PP18908   8.908   9.571  10.012 -0.0148  0.0930 -0.1769
 8805PP      PP18909  15.111   3.085   8.862 -0.0248 -0.0495  0.0750
 8806PP      PP18910   8.168   6.240   1.617  0.0090 -0.2957 -0.4432
 8807PP      PP18911   4.497   4.049   8.328  0.0009  0.4903  0.4494
 8808PP      PP18912   3.133  14.254   2.929 -0.0916 -0.0013 -0.0899
 8809PP      PP18913   7.965   1.688  10.976 -0.1822  0.1648 -0.0391
 8810PP      PP18914   8.104  12.892  12.982 -0.0918 -0.0026 -0.0146
 8811PP      PP18915   2.074  15.404   4.967 -0.0837 -0.2383 -0.0991
 8812PP      PP18916  13.926   3.579  12.908 -0.0390 -0.1111  0.0498
 8813PP      PP18917  15.459   3.307   9.618  0.0760  0.1960 -0.1891
 8814PP      PP18918   0.199  14.498  12.369  0.0363 -0.1647  0.1193
 8815PP      PP18919   1.191  15.639   1.253 -0.1149  0.4937  0.0615
 8816PP      PP18920  11.427   0.416   8.772  0.1644  0.0781  0.1525
 8817PP      PP18921   6.689  12.145   3.279 -0.2335 -0.2616 -0.1392
 8818PP      PP18922   1.835   3.080   9.891  0.2421 -0.0806  0.0039
 8819PP      PP18923   0.687  13.034   1.298 -0.3237 -0.0776 -0.0468
 8820PP      PP18924  12.087   2.569   0.638  0.3580  0.1513  0.0289
 8821PP      PP18925   2.544   3.527   2.886 -0.3954 -0.1099  0.0282
 8822PP      PP18926   1.196   8.597  11.850 -0.0977  0.2708 -0.1304
 8823PP      PP18927  13.692  13.714  12.124  0.3563 -0.0266  0.0140
 8824PP      PP18928  13.719   5.719  11.286  0.0594 -0.2532  0.1667
 8825PP      PP18929  12.965   9.983   1.454 -0.0803 -0.1217 -0.2359
 8826PP      PP18930   1.011   6.588   0.390 -0.0875  0.1373  0.1338
 8827PP      PP18931  10.449  13.729  10.848  0.0526  0.4074  0.2763
 8828PP      PP18932   0.083  12.970   9.479  0.0232 -0.2314 -0.1951
 8829PP      PP18933   6.626   3.017  11.613 -0.1034 -0.0048 -0.3663
 8830PP      PP18934   8.295   6.476   9.266 -0.3266 -0.3637 -0.1677
 8831PP      PP18935   6.324   5.291   9.204  0.4683 -0.3479  0.1160
 8832PP      PP18936   2.052   9.864   9.876 -0.1762 -0.0273 -0.3571
 8833PP      PP18937   5.760   4.885   1.672  0.2601 -0.2473  0.2216
 8834PP      PP18938   4.358   5.995   2.901 -0.0984  0.1967  0.3785
 8835PP      PP18939  12.484  10.053   3.695  0.0898 -0.1064 -0.1150
 8836PP      PP18940   0.086   4.048   9.295  0.1721  0.1249 -0.0970
 8837PP      PP18941  11.721   3.464  11.604 -0.0311  0.1283 -0.0565
 8838PP      PP18942  11.339  13.661   9.120 -0.3778  0.0115  0.0567
 8839PP      PP18943   7.810   1.847   0.749  0.0623  0.1815  0.3067
 8840PP      PP18944   4.620   2.958   0.157  0.1691  0.4523 -0.2113
 8841PP      PP18945  10.246   1.599   3.205  0.0181  0.1795  0.1471
 8842PP      PP18946  13.484  12.754   4.119 -0.1365  0.1851 -0.1286
 8843PP      PP18947   8.522   6.921   9.763 -0.2506  0.4106 -0.0312
 8844PP      PP18948   0.497   9.292  12.732 -0.2716  0.1266  0.0219
 8845PP      PP18949   7.901   5.676  13.426 -0.1212 -0.2443 -0.1893
 8846PP      PP18950   8.636  12.025  13.362  0.1046  0.1627  0.1000
 8847PP      PP18951   1.867   3.545   1.046 -0.0329 -0.1447  0.0141
 8848PP      PP18952   3.684   0.172   3.040 -0.0445 -0.1938 -0.0866
 8849PP      PP18953   0.994  13.095  10.082  0.0975 -0.0785  0.0341
 8850PP      PP18954   9.237   0.716   9.924  0.0208  0.3679  0.2655
 8851PP      PP18955  12.649   4.121   0.399  0.2198  0.1897  0.1412
 8852PP      PP18956  14.579  15.059  10.996 -0.0054  0.0045  0.2227
 8853PP      PP18957  13.743   3.122  13.015 -0.1132 -0.0863  0.0338
 8854PP      PP18958   8.922  11.687   1.779 -0.0204  0.0784 -0.1548
 8855PP      PP18959   3.943   5.004  10.890 -0.1940  0.1273  0.0359
 8856PP      PP18960   8.549  13.344   9.389 -0.0774  0.3423  0.0072
 8857PP      PP18961   0.225   0.012  10.680 -0.2547 -0.3685  0.1824
 8858PP      PP18962   7.787   1.433   2.764  0.1776  0.1154  0.0592
 8859PP      PP18963   8.021  13.387   9.576 -0.0723 -0.3987  0.0780
 8860PP      PP18964   0.370   3.795   2.360 -0.2563  0.0975 -0.2110
 8861PP      PP18965   4.825   9.516   2.452  0.1764  0.0538  0.0747
 8862PP      PP18966   9.136   7.918   2.998  0.0194 -0.0878  0.1173
 8863PP      PP18967   0.341   2.773   3.252 -0.0191  0.0606 -0.0330
 8864PP      PP18968  14.330  14.165   1.507  0.2794  0.0125  0.1062
 8865PP      PP18969  12.842   1.788   1.519 -0.0804  0.0957 -0.3709
 8866PP      PP18970   6.084   2.758   3.998  0.1336 -0.0195  0.0964
 8867PP      PP18971   9.994   2.827  10.434  0.0216  0.1967  0.0556
 8868PP      PP18972   3.610   4.099  11.178 -0.0572 -0.0549 -0.1518
 8869PP      PP18973   1.996   3.010  13.595 -0.1178  0.1028 -0.0265
 8870PP      PP18974  14.862   1.245  13.684  0.0569 -0.3295 -0.4632
 8871PP      PP18975   2.048  14.162   3.609 -0.0027  0.1209 -0.0409
 8872PP      PP18976   5.128  12.090  10.141  0.1049  0.0261 -0.2916
 8873PP      PP18977  10.583   2.218  11.038  0.0378 -0.1860 -0.0482
 8874PP      PP18978   6.082  11.793   3.303 -0.3347 -0.1485 -0.2594
 8875PP      PP18979  12.029   8.810  12.871 -0.3141  0.0555  0.0013
 8876PP      PP18980  11.505   2.986  13.460  0.1075  0.1139 -0.2395
 8877PP      PP18981   9.057  10.940  13.533  0.2008 -0.4673  0.1470
 8878PP      PP18982   1.874  12.198   0.740  0.0981 -0.3567 -0.0334
 8879PP      PP18983   8.440   5.424   2.352  0.1763  0.2701  0.1943
 8880PP      PP18984  12.240   0.537   1.812 -0.1339  0.0863  0.0580
 8881PP      PP18985   9.394   9.107   0.389  0.0321  0.0898  0.0412
 8882PP      PP18986  14.640   8.948   2.664  0.2124  0.1269 -0.1299
 8883PP      PP18987   3.785   5.528   0.903  0.1938  0.0235  0.0392
 8884PP      PP18988   5.190  14.388   0.717 -0.0029 -0.1820  0.0770
 8885PP      PP18989  11.877  15.223   3.412 -0.1642  0.1255 -0.1369
 8886PP      PP18990   1.553   8.094   4.299 -0.3160 -0.2175 -0.1912
 8887PP      PP18991   6.132   5.709   9.762  0.0818 -0.0747  0.1865
 8888PP      PP18992   3.801   2.000   2.795 -0.0269 -0.1545  0.0231
 8889PP      PP18993   8.040   9.560   0.939  0.1083 -0.1166 -0.0783
 8890PP      PP18994   8.116   6.652  12.775 -0.0188 -0.1064  0.2385
 8891PP      PP18995  15.219  13.550   1.096  0.0856 -0.0444 -0.0882
 8892PP      PP18996  12.311   9.027   0.376 -0.1547 -0.4084 -0.1409
 8893PP      PP18997  14.637  14.085  10.068 -0.2887  0.3481  0.1027
 8894PP      PP18998  12.275  12.487  10.410  0.1802  0.1324  0.3453
 8895PP      PP18999  12.527  10.527   3.748  0.0548 -0.1590 -0.0770
 8896PP      PP19000   3.916   7.029   2.091 -0.1318  0.3121  0.0135
 8897PP      PP19001   1.832   8.780  11.700 -0.0881 -0.2314  0.1667
 8898PP      PP19002   1.129   5.678   8.420  0.2231  0.1554  0.1030
 8899PP      PP19003   5.356  12.094   0.375 -0.2795  0.0146  0.3117
 8900PP      PP19004   6.446   7.656  12.436  0.0708  0.2855 -0.2028
 8901PP      PP19005   3.650  14.974  11.623 -0.2281 -0.1513 -0.2741
 8902PP      PP19006   5.450   2.637  12.420 -0.0620  0.1222  0.2412
 8903PP      PP19007   1.772   3.893   1.851 -0.5053 -0.0720  0.0535
 8904PP      PP19008   7.474   7.661   9.667  0.0391 -0.1668 -0.0689
 8905PP      PP19009   7.975   4.613  10.413 -0.0956  0.1591 -0.0099
 8906PP      PP19010  15.546   0.272   2.187 -0.2315 -0.0682  0.3175
 8907PP      PP19011  13.773   9.824  12.451 -0.2800 -0.0944  0.0874
 8908PP      PP19012   3.693   2.899  11.694 -0.0569 -0.2561 -0.0485
 8909PP      PP19013  10.525   8.606   2.320 -0.4172  0.1269 -0.1185
 8910PP      PP19014   4.618   6.023   1.650  0.1808  0.1505 -0.2814
 8911PP      PP19015   5.928  12.682   9.691 -0.1767 -0.2413  0.0808
 8912PP      PP19016   1.430  11.017   1.292  0.1147 -0.0628  0.2159
 8913PP      PP19017  11.865   0.811   2.074 -0.2265 -0.2078 -0.1520
 8914PP      PP19018  12.055   8.809  10.091 -0.2851 -0.1893 -0.1972
 8915PP      PP19019  13.358   4.022  12.651  0.0100 -0.4553 -0.0328
 8916PP      PP19020   4.884   6.193  12.064  0.0101 -0.1009 -0.0981
 8917PP      PP19021   2.959   7.219  13.168 -0.0396  0.2205  0.0783
 8918PP      PP19022   5.508  12.497   5.221  0.0698  0.1126 -0.0743
 8919PP      PP19023   1.373  14.714  10.666 -0.1312 -0.1827  0.3139
 8920PP      PP19024  10.611   3.373   8.911  0.2964 -0.0463 -0.2236
 8921PP      PP19025   9.390   4.899  13.565  0.1080  0.2874 -0.1828
 8922PP      PP19026   1.960   6.018   0.926  0.0237  0.1972 -0.1364
 8923PP      PP19027   9.652   3.082   1.855  0.0600 -0.2854 -0.1084
 8924PP      PP19028   6.074  11.190   1.763 -0.2121 -0.0196  0.6069
 8925PP      PP19029  11.117  11.589  10.756 -0.0094  0.0967 -0.0000
 8926PP      PP19030  13.396   3.349   0.073 -0.0202 -0.0489 -0.0268
 8927PP      PP19031   9.675   5.653  10.106 -0.1044  0.0271 -0.2614
 8928PP      PP19032  14.506  11.206   2.459  0.0074  0.1538  0.1193
 8929PP      PP19033  12.235   8.988  11.359 -0.0543  0.1925  0.1205
 8930PP      PP19034   2.616   5.712   4.448 -0.2318  0.0700  0.2551
 8931PP      PP19035  13.789   0.135  10.013 -0.2095 -0.1575 -0.2308
 8932PP      PP19036   7.089  12.940   3.773 -0.0508  0.0492  0.0822
 8933PP      PP19037  11.085   6.197  11.345  0.0827  0.0427  0.1190
 8934PP      PP19038  15.312  14.983  13.060 -0.0587  0.0688 -0.1368
 8935PP      PP19039  10.451   5.287   2.787  0.3116 -0.2619 -0.0364
 8936PP      PP19040   1.875   6.070  10.835 -0.0648  0.3462  0.1762
 8937PP      PP19041  15.395   1.954   9.425 -0.2173 -0.1241  0.2503
 8938PP      PP19042  10.894   9.133  10.104  0.0241 -0.1029  0.0598
 8939PP      PP19043   4.374   6.454   2.693 -0.1675  0.1249  0.4907
 8940PP      PP19044   8.543   2.810   8.593 -0.0925  0.0459  0.4430
 8941PP      PP19045   1.512  11.567  11.818 -0.0094 -0.4943 -0.0457
 8942PP      PP19046  13.135   1.183   0.890  0.1934 -0.1019  0.0327
 8943PP      PP19047   9.898  11.065   2.299  0.1887  0.0464  0.4404
 8944PP      PP19048   6.988   8.682   3.808 -0.3053  0.3091  0.0024
 8945PP      PP19049   6.942   1.461   9.065 -0.1737  0.1905 -0.2542
 8946PP      PP19050   6.024   8.355  12.098 -0.1923  0.0548 -0.2150
 8947PP      PP19051  14.879   0.460  13.664 -0.0916 -0.2430  0.2656
 8948PP      PP19052  14.859  14.471   0.722 -0.1621 -0.2440  0.1807
 8949PP      PP19053  12.139   5.016  12.877 -0.3208 -0.1191  0.0244
 8950PP      PP19054  11.473   7.180   8.946 -0.3377 -0.0889  0.0260
 8951PP      PP19055   9.122   7.008   0.623 -0.1750 -0.1569 -0.0464
 8952PP      PP19056   6.708   5.148  13.120  0.0028  0.0082 -0.0378
 8953PP      PP19057  11.183   7.113   1.483  0.2400  0.0847 -0.1182
 8954PP      PP19058   4.397  12.620  11.785 -0.1463  0.1437 -0.0574
 8955PP      PP19059   3.339   8.964   3.006  0.0830  0.0879 -0.1647
 8956PP      PP19060   6.362   6.387   3.257 -0.1800  0.0883 -0.0508
 8957PP      PP19061  10.458  11.534  10.123 -0.0241  0.0635  0.1476
 8958PP      PP19062   6.544  10.107  12.297  0.0930  0.0461  0.1140
 8959PP      PP19063  11.025   3.571  12.172 -0.0898  0.3329  0.1435
 8960PP      PP19064   6.487   2.627  11.339 -0.1475 -0.0496 -0.2884
 8961PP      PP19065   2.283  14.594   0.332 -0.1517  0.0223  0.2094
 8962PP      PP19066  12.242   4.140   0.670 -0.0316 -0.1926 -0.2071
 8963PP      PP19067   7.277  14.736   2.416  0.1136 -0.0099 -0.0116
 8964PP      PP19068   7.554   6.590   0.829 -0.1838 -0.2488 -0.3003
 8965PP      PP19069   9.215   5.904  13.506 -0.1499 -0.2424  0.1578
 8966PP      PP19070   7.250   9.037   1.914 -0.1320 -0.0501 -0.0080
 8967PP      PP19071   6.533  12.013   7.035  0.2057 -0.1549 -0.1149
 8968PP      PP19072  12.461  15.639   2.972  0.2124 -0.0813  0.2607
 8969PP      PP19073  14.807  15.003  10.216 -0.4060  0.1870 -0.1580
 8970PP      PP19074   3.530   3.810  13.255  0.3594 -0.0682  0.3467
 8971PP      PP19075   9.942   2.606  13.425  0.2050  0.1724  0.0754
 8972PP      PP19076   6.109  10.522   3.332 -0.4880 -0.1416 -0.0255
 8973PP      PP19077   0.826   4.856  12.954  0.1088 -0.0212  0.2483
 8974PP      PP19078   1.152   8.820   0.336 -0.1497  0.1437  0.0052
 8975PP      PP19079  12.095   7.237   1.486  0.1374  0.0428  0.0920
 8976PP      PP19080   8.571   7.533   2.508 -0.1639 -0.0778 -0.1152
 8977PP      PP19081   2.006   6.062   9.868  0.2448 -0.3625  0.1022
 8978PP      PP19082   6.775  15.425   3.696  0.0753 -0.1693  0.1150
 8979PP      PP19083  10.312  11.137   2.902  0.2642 -0.2796 -0.0652
 8980PP      PP19084   0.428   2.325  12.044  0.2638  0.1301 -0.1008
 8981PP      PP19085   8.245  11.377   0.047  0.0628  0.2148  0.1699
 8982PP      PP19086   9.079  10.115   4.035 -0.0651  0.1869  0.0825
 8983PP      PP19087  15.725   8.516  13.347  0.1724 -0.1372  0.0702
 8984PP      PP19088  12.919   8.463   0.889 -0.0511  0.0214  0.0390
 8985PP      PP19089  13.890  10.841   0.271 -0.1855 -0.1077 -0.1707
 8986PP      PP19090  12.037   9.085   1.914 -0.0784  0.3079  0.0965
 8987PP      PP19091  10.273  14.039  13.736 -0.1841 -0.0418  0.1096
 8988PP      PP19092  14.568   0.132  12.062 -0.1138  0.1635 -0.0576
 8989PP      PP19093   4.458  15.404   2.019 -0.0920 -0.0450 -0.0045
 8990PP      PP19094   2.774  11.963   9.903 -0.0615  0.1474  0.0276
 8991PP      PP19095  14.987   2.346   1.909  0.1229  0.3547  0.0577
 8992PP      PP19096  12.844   5.088  13.676  0.0144  0.0917 -0.0142
 8993PP      PP19097  14.693   0.259   3.252 -0.0994 -0.0454  0.1756
 8994PP      PP19098  10.566   6.734  10.465 -0.1855 -0.1489  0.0776
 8995PP      PP19099   9.109   6.960  13.450 -0.0604  0.1911 -0.0528
 8996PP      PP19100   7.424  10.892   0.871 -0.3674 -0.0550  0.0162
 8997PP      PP19101   5.113   9.487  12.077  0.1628  0.1958  0.2358
 8998PP      PP19102   1.674   9.567   9.654 -0.3707 -0.2067 -0.0354
 8999PP      PP19103   3.039   6.919  11.381 -0.3441  0.0281  0.1788
 9000PP      PP19104   1.531   1.241   3.965  0.2080 -0.0042  0.0743
 9001PP      PP19105  11.569   7.854   1.034 -0.1855 -0.0320  0.0513
 9002PP      PP19106   0.273   6.039   9.401  0.0672  0.2610  0.0567
 9003PP      PP19107   9.019   8.207   0.794  0.3314 -0.2776  0.2173
 9004PP      PP19108  13.769   3.737   2.731 -0.5625 -0.0904  0.5009
 9005PP      PP19109   9.892   5.719   8.968  0.0935 -0.3558  0.0263
 9006PP      PP19110   0.811   5.567   1.848  0.1152  0.1643 -0.1758
 9007PP      PP19111  10.820   4.152   9.003 -0.2778  0.0725 -0.1294
 9008PP      PP19112   9.342  11.537   2.894 -0.1296 -0.0731 -0.3238
 9009PP      PP19113   9.106   4.826   0.794  0.0962 -0.0115  0.3331
 9010PP      PP19114   9.377   8.574   0.687  0.3240 -0.1802  0.0517
 9011PP      PP19115   4.344  11.849  12.592 -0.1967 -0.2296  0.3370
 9012PP      PP19116   9.982   1.414   9.085 -0.2424 -0.0396  0.1167
 9013PP      PP19117  15.180   5.102   2.039 -0.2690  0.1948 -0.0320
 9014PP      PP19118   9.690   8.272  13.118 -0.2282 -0.3146  0.1734
 9015PP      PP19119  11.240   2.798   0.953 -0.1320  0.0905 -0.1392
 9016PP      PP19120   3.880   3.301   8.732  0.0514  0.2793  0.2040
 9017PP      PP19121   3.779   8.703   3.078 -0.1880  0.2082  0.0280
 9018PP      PP19122   0.757   3.092   9.282 -0.1194 -0.1851  0.1082
 9019PP      PP19123   2.718   2.938  10.181  0.3932 -0.0375  0.1326
 9020PP      PP19124  12.971   0.677   0.026 -0.1550 -0.2034 -0.1239
 9021PP      PP19125   1.743   5.167  10.118  0.0307  0.0576  0.0634
 9022PP      PP19126   6.113   1.337   4.012 -0.2263  0.1305 -0.2463
 9023PP      PP19127  10.159   8.198  12.806 -0.1685 -0.1531 -0.1968
 9024PP      PP19128   3.615   2.739  13.281 -0.1957 -0.0216 -0.0381
 9025PP      PP19129   9.247  15.072  11.792 -0.1055  0.1364  0.3160
 9026PP      PP19130  15.467  12.916  10.706 -0.4275 -0.1674  0.0733
 9027PP      PP19131   8.564  10.224   0.792 -0.1419 -0.0561 -0.0845
 9028PP      PP19132  10.796  11.272  13.691  0.3161 -0.0449 -0.2822
 9029PP      PP19133  14.227   0.773  10.166  0.0469  0.1486  0.0272
 9030PP      PP19134   2.091   7.456   1.867 -0.1689  0.1138  0.0179
 9031PP      PP19135   4.828   5.758  12.435  0.2131 -0.0059  0.0109
 9032PP      PP19136  11.645   0.246  11.621 -0.1825  0.1541 -0.2661
 9033PP      PP19137   0.207   9.969   9.655  0.0765 -0.0830  0.2098
 9034PP      PP19138   9.174  10.390  13.501  0.2845  0.1545  0.2256
 9035PP      PP19139   3.352  15.057   1.134  0.1362  0.2250 -0.0936
 9036PP      PP19140   4.488  11.754  13.122 -0.2941 -0.3412 -0.3569
 9037PP      PP19141  11.081  14.037   3.667  0.1113  0.0149 -0.1127
 9038PP      PP19142   9.162   5.418   0.970  0.0543  0.0457 -0.1941
 9039PP      PP19143   8.836   8.723   3.244  0.0613  0.1284  0.3109
 9040PP      PP19144   9.562  13.482  11.346 -0.0111 -0.0475 -0.0745
 9041PP      PP19145   8.547  11.199   5.217 -0.3772  0.1611 -0.1295
 9042PP      PP19146  12.253   2.595   8.920  0.1434  0.1353  0.0302
 9043PP      PP19147   8.926  15.452   2.247 -0.3204  0.0822 -0.0846
 9044PP      PP19148   1.184   0.030   4.256 -0.0938 -0.0750  0.1815
 9045PP      PP19149  10.812   1.938   1.111 -0.2847 -0.3169 -0.4648
 9046PP      PP19150   7.988  13.813   4.609 -0.1772  0.0342 -0.1990
 9047PP      PP19151   9.486   0.746   1.773  0.0349 -0.2901  0.1214
 9048PP      PP19152   6.912   9.337  12.419 -0.1803  0.0588  0.0348
 9049PP      PP19153   4.311   7.469   2.913  0.0493  0.3477  0.0458
 9050PP      PP19154  13.017   2.504   0.636 -0.0320  0.0068  0.1386
 9051PP      PP19155   7.933  12.722   0.526 -0.0523 -0.1348 -0.1774
 9052PP      PP19156   1.076  12.687  13.732  0.0392 -0.1327  0.2296
 9053PP      PP19157  10.867   6.220   3.117  0.0730 -0.1641  0.0021
 9054PP      PP19158   9.997  14.833   3.955  0.1991 -0.0035 -0.0697
 9055PP      PP19159   2.098   5.112   4.125 -0.2027  0.3232  0.0067
 9056PP      PP19160   9.615   2.697  10.133 -0.5285  0.1361 -0.0318
 9057PP      PP19161  10.539   7.185  12.124  0.2170 -0.2157  0.1562
 9058PP      PP19162   7.354   5.117   8.764  0.1490 -0.0138 -0.1109
 9059PP      PP19163  14.636   4.230   0.645  0.2035  0.0405  0.0626
 9060PP      PP19164   0.175   2.041   4.174  0.1275  0.2146  0.1297
 9061PP      PP19165  12.288   4.595   0.562 -0.1595  0.2595  0.0682
 9062PP      PP19166  15.541  11.134  12.694 -0.1318  0.1358  0.0536
 9063PP      PP19167  12.529   5.550   2.391  0.0283  0.2408  0.3379
 9064PP      PP19168   0.752   5.271   0.084 -0.0553  0.4124  0.2057
 9065PP      PP19169   2.538  11.311  10.663  0.3717 -0.1459 -0.0634
 9066PP      PP19170  11.135   7.315   8.532 -0.0223  0.3019  0.0154
 9067PP      PP19171   8.548  11.517   0.893 -0.2800 -0.4031  0.0847
 9068PP      PP19172   8.107  13.199   1.141 -0.1416  0.1830  0.1037
 9069PP      PP19173   3.031  13.900  11.863 -0.0732 -0.1681 -0.1746
 9070PP      PP19174  14.090   1.381  10.583 -0.0360  0.0177  0.1982
 9071PP      PP19175   9.549   7.104  12.480 -0.2375 -0.2052  0.0863
 9072PP      PP19176   3.713   6.542   1.901 -0.2171 -0.0063 -0.2009
 9073PP      PP19177  13.932  10.845  12.932  0.1093 -0.0410  0.0085
 9074PP      PP19178  14.493   5.454  13.667 -0.0078  0.0336  0.0897
 9075PP      PP19179  15.295   9.292  10.719  0.1650  0.0506 -0.1044
 9076PP      PP19180   6.572  11.427  13.352 -0.1453  0.0694  0.0952
 9077PP      PP19181   1.250   5.223   8.827 -0.0293  0.2147 -0.0636
 9078PP      PP19182  14.312  15.469  10.796  0.1318 -0.0541  0.2338
 9079PP      PP19183   6.433   9.922   0.337  0.0650  0.0961 -0.2324
 9080PP      PP19184   9.532   5.027  10.146  0.0329 -0.0681 -0.1614
 9081PP      PP19185   7.075  12.070   4.224  0.1390  0.0926 -0.0623
 9082PP      PP19186   8.740   2.772   4.236 -0.1431 -0.0573 -0.1476
 9083PP      PP19187   6.658   8.055   0.478  0.0642  0.4199 -0.1721
 9084PP      PP19188   5.923   5.257   3.489 -0.2154 -0.2828  0.1411
 9085PP      PP19189  14.769   4.075   9.014  0.1839 -0.2144  0.1050
 9086PP      PP19190  11.580  12.649   4.527  0.0760 -0.2310 -0.2830
 9087PP      PP19191   5.413   8.158   0.606 -0.2542  0.2041 -0.3456
 9088PP      PP19192   0.059   7.210  12.148  0.0931  0.0300 -0.1374
 9089PP      PP19193   9.002  12.526   3.208  0.1894 -0.3489 -0.0465
 9090PP      PP19194  10.623   9.829   3.287  0.1400 -0.1960 -0.2213
 9091PP      PP19195   4.380  10.357   2.165  0.0970  0.1074 -0.4223
 9092PP      PP19196  11.158   0.250   1.399  0.3564  0.1180  0.1338
 9093PP      PP19197  15.452  14.851  12.595 -0.1244  0.1635 -0.0855
 9094PP      PP19198   1.597  14.914   1.055 -0.2012 -0.0934 -0.1056
 9095PP      PP19199   0.127  11.316   1.485  0.2257  0.1805 -0.1053
 9096PP      PP19200   5.983   6.097   3.360  0.4237 -0.1250 -0.0601
 9097PP      PP19201   3.711   7.462  10.923 -0.2005 -0.0964 -0.2515
 9098PP      PP19202   4.834   9.856  12.690  0.2068 -0.3231 -0.1186
 9099PP      PP19203   3.796  11.488   0.318  0.1470  0.1667  0.1110
 9100PP      PP19204   3.375   1.863   1.004 -0.2662 -0.1428  0.3203
 9101PP      PP19205  14.028   9.265   3.234 -0.1193  0.5037  0.1107
 9102PP      PP19206  12.987   6.160   9.601 -0.0957  0.1631  0.4228
 9103PP      PP19207  10.889  15.093  13.145  0.1926 -0.0671  0.0720
 9104PP      PP19208  13.986  14.020  11.914 -0.0435  0.0555  0.2176
 9105PP      PP19209   8.864   9.425   1.886 -0.1501 -0.1270  0.0555
 9106PP      PP19210   7.507  12.985   0.553 -0.2292  0.2932  0.0465
 9107PP      PP19211  11.902   9.289   3.857 -0.0615  0.0443  0.3338
 9108PP      PP19212   9.763  10.556   2.404  0.2261  0.0708 -0.3166
 9109PP      PP19213   3.513   2.044   9.548  0.2049 -0.0722 -0.3065
 9110PP      PP19214   8.213   8.653  10.967  0.0178  0.0240 -0.1718
 9111PP      PP19215  10.665   4.956   1.127 -0.2426  0.1205  0.1240
 9112PP      PP19216   0.545   8.629   2.319  0.0038 -0.1663 -0.2120
 9113PP      PP19217   3.241   5.565  11.891 -0.0489  0.2186  0.1044
 9114PP      PP19218   3.795  11.887   2.753  0.3212 -0.0730 -0.2855
 9115PP      PP19219   3.433   2.052  13.121  0.0984  0.0446 -0.0539
 9116PP      PP19220  14.198  14.595  13.494  0.0091 -0.4468  0.0269
 9117PP      PP19221  15.256   5.993   2.216  0.0628 -0.0780  0.0009
 9118PP      PP19222   8.958  12.906  10.209 -0.1232  0.0950  0.2617
 9119PP      PP19223   1.878   2.062   2.336 -0.0857  0.0815 -0.2306
 9120PP      PP19224   1.068   8.864  13.494 -0.1745 -0.0080 -0.1869
 9121PP      PP19225  11.935   2.195   9.032 -0.1660 -0.0149  0.0804
 9122PP      PP19226   5.536   1.539  11.789  0.0917  0.1589  0.0525
 9123PP      PP19227  15.264  10.157   2.000 -0.3019  0.1946 -0.1320
 9124PP      PP19228   9.401   9.564   1.092 -0.2193 -0.1559  0.4428
 9125PP      PP19229  12.263   3.500  11.290 -0.0248 -0.1499 -0.1477
 9126PP      PP19230  13.734   4.328  11.662  0.4820 -0.3031 -0.0202
 9127PP      PP19231   1.290   5.384  10.771 -0.0691  0.1324 -0.0668
 9128PP      PP19232  10.984   9.325   4.362 -0.3050  0.3672 -0.2846
 9129PP      PP19233   8.183  13.869   9.487 -0.0928  0.1292 -0.1612
 9130PP      PP19234  15.122  15.397   4.166 -0.2657 -0.0535 -0.1627
 9131PP      PP19235   6.296   6.687  13.770 -0.0212 -0.1388 -0.3806
 9132PP      PP19236   3.754   9.528   0.558 -0.0176  0.0665  0.1716
 9133PP      PP19237   5.290  11.383  10.981 -0.1413  0.0290  0.1235
 9134PP      PP19238   8.839   3.711   9.849 -0.2055 -0.3093 -0.0570
 9135PP      PP19239   1.751   3.762  12.109  0.2143  0.1627  0.0073
 9136PP      PP19240   6.936  13.257   4.821 -0.1200 -0.0806  0.0852
 9137PP      PP19241  10.694   7.498   0.772  0.1307 -0.0551 -0.0974
 9138PP      PP19242   4.147   5.407   2.888 -0.0236 -0.5509 -0.1913
 9139PP      PP19243   3.113   0.596   0.669  0.2013 -0.0724  0.3232
 9140PP      PP19244   7.613   4.116   0.977  0.0232 -0.2186 -0.1138
 9141PP      PP19245  10.538   1.723   9.740 -0.1041  0.0160 -0.2424
 9142PP      PP19246   4.398  10.635   1.758 -0.0401 -0.2994  0.0757
 9143PP      PP19247   5.737   5.017   2.580  0.0862  0.2610  0.2551
 9144PP      PP19248  10.002  13.584   4.099  0.1079  0.3404  0.0085
 9145PP      PP19249   1.349   1.257   3.135 -0.0185  0.2456 -0.2273
 9146PP      PP19250   6.205  10.600   4.483 -0.0714  0.0416  0.0019
 9147PP      PP19251   8.096   8.339   1.863 -0.1257 -0.0803 -0.1867
 9148PP      PP19252  14.741   7.064  11.318  0.1272  0.0654 -0.1021
 9149PP      PP19253   3.244   4.853  10.394  0.0702 -0.1166  0.2006
 9150PP      PP19254   7.793   1.369  10.591  0.3016  0.0221  0.0403
 9151PP      PP19255  12.283   0.657   9.982 -0.2605  0.0021  0.2622
 9152PP      PP19256   1.957   1.457  13.571 -0.1014  0.3983  0.0147
 9153PP      PP19257   7.581   0.451   0.926 -0.2915 -0.0316 -0.2879
 9154PP      PP19258  14.808  10.828   3.707 -0.1626 -0.2072 -0.0272
 9155PP      PP19259  11.153   7.950   2.650  0.1494  0.1780  0.3443
 9156PP      PP19260  14.488  11.841   0.025  0.1315 -0.2414 -0.0682
 9157PP      PP19261   3.325   2.137  11.681  0.0217  0.0315  0.0953
 9158PP      PP19262   2.128  11.264   4.709 -0.3703  0.0203 -0.3330
 9159PP      PP19263  10.911   4.778   9.198 -0.2017 -0.1494 -0.1653
 9160PP      PP19264   6.685  10.753   1.406  0.0011  0.0506 -0.2261
 9161PP      PP19265   6.947  13.285   1.796 -0.1039  0.1689  0.0754
 9162PP      PP19266   1.943  14.210   0.433 -0.0720  0.0929  0.0710
 9163PP      PP19267   1.236   6.094  10.101 -0.0284 -0.0040 -0.0111
 9164PP      PP19268   7.100   7.414   2.665  0.1107  0.0574  0.2940
 9165PP      PP19269   5.259  10.406  10.787  0.0089  0.3173  0.2445
 9166PP      PP19270   0.573   8.740   3.830  0.0178 -0.3699  0.3019
 9167PP      PP19271   1.613  13.545  10.428  0.1614  0.1236  0.2174
 9168PP      PP19272   4.323   9.763  12.679  0.1720 -0.1413 -0.0043
 9169PP      PP19273  11.491  10.746  12.307 -0.0725  0.0645 -0.0221
 9170PP      PP19274   6.254   3.076   3.157 -0.4937 -0.1652 -0.5046
 9171PP      PP19275  10.693  12.016   2.322  0.0291  0.1314 -0.3068
 9172PP      PP19276   6.381  15.292   0.773  0.2794  0.1689  0.0404
 9173PP      PP19277  10.095  11.429  10.788 -0.2193 -0.4451 -0.3156
 9174PP      PP19278  14.586  13.614  13.419 -0.1721  0.4878 -0.0881
 9175PP      PP19279   7.894   7.552   1.156 -0.0384  0.1289  0.2774
 9176PP      PP19280  15.392   2.294   3.986 -0.0316  0.0515  0.0517
 9177PP      PP19281  15.242   4.931   0.637  0.1058 -0.0618  0.3469
 9178PP      PP19282  15.576   5.256  10.998  0.0977 -0.1424 -0.1276
 9179PP      PP19283   5.665   0.723   2.841  0.1014 -0.0148 -0.2663
 9180PP      PP19284  12.955   7.990   3.091 -0.2751 -0.0862  0.2314
 9181PP      PP19285  10.837   8.078   3.540  0.0601 -0.1241  0.0714
 9182PP      PP19286  10.208  10.333  11.560 -0.1281  0.1312 -0.0705
 9183PP      PP19287  11.455   6.850  10.300 -0.0500 -0.1823  0.2885
 9184PP      PP19288  15.282   5.069   9.928 -0.0514  0.2765  0.0973
 9185PP      PP19289   7.949   4.716   0.938 -0.2976  0.2748  0.1546
 9186PP      PP19290  15.457   0.593  12.883  0.1704  0.1969 -0.1085
 9187PP      PP19291   5.487  12.728   0.025  0.0155  0.1030  0.1464
 9188PP      PP19292   9.688  13.598   1.837 -0.1087  0.0419  0.0414
 9189PP      PP19293   8.949   1.677  11.855 -0.3130  0.1069  0.0996
 9190PP      PP19294  15.262  11.077   3.423 -0.1535 -0.3211 -0.2735
 9191PP      PP19295   5.425   3.597   2.843  0.2619  0.1135 -0.2239
 9192PP      PP19296  14.669   9.523  13.342 -0.1097 -0.1569 -0.0911
 9193PP      PP19297   1.193  11.335   0.402  0.0566  0.1501  0.0813
 9194PP      PP19298  11.698   2.209  11.049 -0.1758 -0.2436 -0.1112
 9195PP      PP19299  12.662   6.796   2.267  0.0548 -0.0581  0.0230
 9196PP      PP19300   9.909   0.111   2.413  0.0978  0.2643 -0.3694
 9197PP      PP19301   9.860  14.288  12.387  0.0084  0.1867 -0.3067
 9198PP      PP19302   0.177   7.600  13.186 -0.1262  0.0779 -0.1614
 9199PP      PP19303  14.075   0.659  10.963  0.2585  0.1961 -0.0282
 9200PP      PP19304   7.529   8.564   2.606 -0.0354  0.1620  0.0353
 9201PP      PP19305   8.590   9.513   1.366  0.1426  0.0536  0.0717
 9202PP      PP19306   8.417   5.790  10.807 -0.0782  0.0803  0.0081
 9203PP      PP19307   2.701   5.440   9.782  0.0573 -0.0739  0.0765
 9204PP      PP19308  13.086   0.431   8.837 -0.0959 -0.0375 -0.4432
 9205PP      PP19309  10.698   3.606  13.554  0.2018  0.1862  0.0640
 9206PP      PP19310   0.399   0.460  10.449 -0.0993 -0.1709  0.1595
 9207PP      PP19311   8.536  12.974   1.141  0.1189  0.3186 -0.0899
 9208PP      PP19312  11.712   7.586  11.777 -0.1652  0.1408 -0.2996
 9209PP      PP19313  12.811   5.576   0.858 -0.4424 -0.0778 -0.5150
 9210PP      PP19314   0.103   3.251   3.452  0.0800 -0.1102  0.4172
 9211PP      PP19315  11.116   2.053   0.733  0.3663  0.0526 -0.0679
 9212PP      PP19316   5.663   6.469   9.813  0.0332  0.0680  0.1119
 9213PP      PP19317   9.760   0.379   4.186  0.1071  0.1826  0.0453
 9214PP      PP19318   4.548   5.402   3.155 -0.2894  0.0963  0.0180
 9215PP      PP19319  14.297   8.083   2.632 -0.3334 -0.1774 -0.1187
 9216PP      PP19320  10.567   2.794   4.028  0.5391  0.0890  0.0741
 9217PP      PP19321  14.315  12.724  13.348  0.1394 -0.3350  0.0597
 9218PP      PP19322   0.290   9.513   2.375  0.2992  0.0821 -0.0662
 9219PP      PP19323  10.305   0.528  13.322 -0.0178 -0.3050  0.3523
 9220PP      PP19324  13.134   0.459  11.179 -0.1266  0.1452  0.2142
 9221PP      PP19325  13.326  14.335  13.353 -0.0113 -0.1060  0.2843
 9222PP      PP19326   4.829   2.673   3.613 -0.1136 -0.1375 -0.0760
 9223PP      PP19327   7.876  13.340   4.675  0.2572  0.2831  0.2857
 9224PP      PP19328   2.607   8.448  11.877 -0.2636 -0.2244  0.1107
 9225PP      PP19329   2.877   2.945  11.635 -0.0911 -0.1051  0.0299
 9226PP      PP19330  11.543   2.067   2.249 -0.1202  0.4251 -0.0381
 9227PP      PP19331   2.400   9.048   9.189  0.1225 -0.1305  0.0157
 9228PP      PP19332   0.737  11.022  10.959  0.1284 -0.3592 -0.1822
 9229PP      PP19333   7.476  14.487  11.936  0.0189 -0.1313  0.0499
 9230PP      PP19334   2.074   0.815   9.778 -0.1327  0.1695 -0.0118
 9231PP      PP19335   3.395  11.214   9.920  0.1737 -0.1045 -0.0903
 9232PP      PP19336   5.664  14.888  11.869  0.2811 -0.0550  0.1659
 9233PP      PP19337  10.668   0.607  10.626 -0.0260 -0.0051 -0.3896
 9234PP      PP19338   3.898   1.335   3.905 -0.3990  0.2571 -0.2707
 9235PP      PP19339   0.146  15.017   1.555 -0.0994  0.0821  0.0986
 9236PP      PP19340   1.826  12.837  11.334 -0.1692 -0.1058 -0.0015
 9237PP      PP19341   8.436  11.731   3.298  0.0344 -0.1478 -0.0467
 9238PP      PP19342   0.344   7.304   9.775  0.2633  0.0716 -0.0242
 9239PP      PP19343   1.578  11.723   0.538 -0.1574  0.3294  0.2098
 9240PP      PP19344  13.615   0.514   9.090 -0.0154 -0.0869 -0.0895
 9241PP      PP19345   0.161   9.124   0.314 -0.2549  0.1952 -0.0407
 9242PP      PP19346  12.515   3.903   1.704  0.2139  0.1534  0.0411
 9243PP      PP19347   3.573  14.042   0.730  0.1617  0.4402  0.1481
 9244PP      PP19348  14.340   8.757   2.114  0.0711 -0.1448  0.3892
 9245PP      PP19349  12.728   3.403  11.029 -0.0142 -0.0841  0.3158
 9246PP      PP19350   2.970   8.632  13.354 -0.3768  0.1732  0.0404
 9247PP      PP19351   2.943   6.074   2.393  0.2571 -0.3877 -0.0430
 9248PP      PP19352   8.534   9.185   3.600  0.0488 -0.6191 -0.1610
 9249PP      PP19353   0.367  13.942   1.193 -0.0141  0.1663  0.3242
 9250PP      PP19354   4.646  12.480  13.190 -0.0149  0.0920 -0.0842
 9251PP      PP19355   7.853   9.892  11.289 -0.2492  0.1033  0.0024
 9252PP      PP19356  13.779   0.630  10.013 -0.0244  0.2498 -0.2339
 9253PP      PP19357   7.171   1.273   1.030  0.0271  0.0078 -0.2125
 9254PP      PP19358  11.164  13.598  12.876  0.1279  0.0646 -0.1206
 9255PP      PP19359   6.225   5.896  10.484 -0.0599 -0.2424  0.1881
 9256PP      PP19360   3.795  10.916  13.025 -0.0422 -0.1593 -0.2386
 9257PP      PP19361  10.887   8.032  10.804 -0.0897  0.0293 -0.1660
 9258PP      PP19362  14.713   8.933  13.300 -0.0994 -0.1472  0.1047
 9259PP      PP19363  11.824  12.691   3.352 -0.1837  0.2615  0.2753
 9260PP      PP19364  12.094   6.233  11.653  0.1685 -0.0623  0.3075
 9261PP      PP19365  14.624   0.220  12.955 -0.1544 -0.0989  0.0629
 9262PP      PP19366   3.545  10.156  10.926 -0.0539  0.1071  0.2427
 9263PP      PP19367   4.756   2.292   9.303 -0.0834 -0.2029  0.2444
 9264PP      PP19368  11.471   2.974   2.025  0.1066 -0.1369  0.0720
 9265PP      PP19369  15.068   6.706   0.244 -0.0986  0.1317 -0.0362
 9266PP      PP19370  10.752   5.109   0.526 -0.3703  0.0139 -0.2759
 9267PP      PP19371   4.355  15.143   0.517 -0.2083  0.1049 -0.1118
 9268PP      PP19372   6.001   3.242  12.264  0.2489 -0.2731 -0.0347
 9269PP      PP19373   3.326   0.081   0.659 -0.0462  0.0324 -0.2875
 9270PP      PP19374   3.649  13.628  11.832 -0.1780  0.0901  0.1012
 9271PP      PP19375   4.173   0.913  13.060  0.0184  0.1291  0.0287
 9272PP      PP19376  15.025  10.947   2.382  0.4825  0.0655  0.0322
 9273PP      PP19377   7.609  11.710   1.045  0.0171  0.1695  0.1653
 9274PP      PP19378   7.214   5.522  10.621  0.2182  0.0589  0.0515
 9275PP      PP19379  14.825   2.427   2.815  0.1473  0.0398  0.0252
 9276PP      PP19380   7.439  14.310   9.274  0.0301  0.2843  0.1180
 9277PP      PP19381   1.195   7.103   3.149 -0.1159 -0.0318 -0.1085
 9278PP      PP19382  14.341   0.708   2.413 -0.1378  0.3584  0.0781
 9279PP      PP19383  10.472   7.485   2.649  0.1413 -0.2444 -0.2735
 9280PP      PP19384   5.681   6.574  13.285  0.2571 -0.0328 -0.1577
 9281PP      PP19385   2.049   0.835   0.777  0.0414 -0.1177 -0.1167
 9282PP      PP19386   1.056  10.082  10.749 -0.1649 -0.0127 -0.3026
 9283PP      PP19387   9.642  10.225  13.666  0.0607  0.0565 -0.1034
 9284PP      PP19388   8.584  13.017  12.186 -0.2080  0.1381 -0.1398
 9285PP      PP19389   8.331   7.100   1.985  0.1542 -0.1146 -0.1823
 9286PP      PP19390   4.013   7.798  12.006 -0.0970 -0.0118 -0.0018
 9287PP      PP19391   9.414   4.884   0.432 -0.2058 -0.4603  0.1779
 9288PP      PP19392  13.589  14.324   2.645 -0.0914  0.4899 -0.2342
 9289PP      PP19393   1.547   6.172   9.093 -0.2072  0.1549  0.1132
 9290PP      PP19394   2.619   9.261  10.159  0.2747 -0.1243 -0.0917
 9291PP      PP19395   2.220  14.856   5.009 -0.0761  0.2360  0.0404
 9292PP      PP19396   2.078   4.214  12.282  0.0381 -0.1561  0.1497
 9293PP      PP19397  13.649   8.651   0.138  0.2912 -0.0342  0.0766
 9294PP      PP19398   6.416   6.202  13.626  0.0404 -0.1031 -0.0628
 9295PP      PP19399   3.973  10.255   1.272 -0.0063  0.1312 -0.0579
 9296PP      PP19400  12.539   7.664   1.808  0.2519 -0.1239  0.0533
 9297PP      PP19401   6.350   4.806  12.856 -0.2277 -0.1054  0.0029
 9298PP      PP19402   9.379   4.542   4.177 -0.0075 -0.2281 -0.0910
 9299PP      PP19403  13.804  13.585   9.827  0.0498  0.0557 -0.2054
 9300PP      PP19404  15.041  12.024  12.858  0.0626  0.1049 -0.2260
 9301PP      PP19405  14.688  15.037   4.253  0.0719  0.0778  0.1546
 9302PP      PP19406   1.387  12.945  11.671 -0.2190  0.0015 -0.0850
 9303PP      PP19407   5.900   4.172  11.081 -0.0236 -0.0686 -0.0761
 9304PP      PP19408   5.940   0.223   0.168  0.2099  0.1162  0.0708
 9305PP      PP19409   1.652   8.517   9.615 -0.1662  0.0929 -0.1035
 9306PP      PP19410   5.243   5.804   0.662 -0.0701 -0.0587  0.0254
 9307PP      PP19411   3.461  13.128  11.810  0.1565  0.0218  0.1898
 9308PP      PP19412   9.925  14.379   9.738 -0.1895 -0.0490  0.1428
 9309PP      PP19413  12.616   6.169  12.356 -0.0260 -0.2875 -0.0324
 9310PP      PP19414   2.368   8.649   3.294  0.0486  0.2876 -0.1277
 9311PP      PP19415  14.603  12.176  11.754 -0.4586  0.0070  0.0708
 9312PP      PP19416   3.893   3.682  12.889 -0.2974 -0.2908  0.1653
 9313PP      PP19417  13.800  13.703  13.490 -0.3044  0.1150 -0.3180
 9314PP      PP19418  14.179   2.864  10.934  0.0809 -0.1024 -0.1032
 9315PP      PP19419   7.773   7.530   0.041 -0.2027 -0.1700  0.1626
 9316PP      PP19420   2.715   1.705   1.764 -0.1465  0.0883  0.1109
 9317PP      PP19421   3.059   8.452   8.931  0.2688  0.1337  0.3128
 9318PP      PP19422  14.948  12.537   2.082  0.1116  0.3125 -0.0637
 9319PP      PP19423   3.381   9.409   3.316  0.2567  0.4416 -0.0808
 9320PP      PP19424   3.116   3.376   2.096 -0.1700  0.1236 -0.0359
 9321PP      PP19425   6.278  10.554  10.105  0.2210  0.2236 -0.1882
 9322PP      PP19426  11.974  13.369   3.907 -0.0901 -0.2574  0.2632
 9323PP      PP19427   1.757  10.634  10.151 -0.0749 -0.2235 -0.1776
 9324PP      PP19428   8.714   3.258  12.610  0.0868  0.0867 -0.4875
 9325PP      PP19429   2.288   5.631   0.972  0.2195  0.2635  0.2306
 9326PP      PP19430   9.599   1.641  13.611  0.2071 -0.1626 -0.1645
 9327PP      PP19431  12.933  12.310   9.451  0.0478 -0.1564 -0.2683
 9328PP      PP19432   5.198  10.294   0.477 -0.0270  0.2099  0.0589
 9329PP      PP19433  12.231   6.462   3.496  0.1390 -0.0746  0.1771
 9330PP      PP19434   2.631   3.458   2.281  0.1545  0.0416 -0.0004
 9331PP      PP19435   9.082   2.768  12.177 -0.0754  0.0319  0.1812
 9332PP      PP19436  10.851  14.899   1.329 -0.0565  0.1924  0.0383
 9333PP      PP19437   4.277  14.124   1.079 -0.0754 -0.1067  0.2247
 9334PP      PP19438   4.606  14.399   4.043 -0.2784  0.0413 -0.3395
 9335PP      PP19439   4.667   4.463  12.100  0.0488 -0.2412  0.2281
 9336PP      PP19440   5.961   1.094   1.309  0.0800  0.0146 -0.1031
 9337PP      PP19441   1.177  11.614   9.436  0.3641  0.0883 -0.0262
 9338PP      PP19442  13.321  11.148   3.506  0.1022 -0.0457  0.1154
 9339PP      PP19443   8.957   1.121  10.183  0.0348  0.1149 -0.2394
 9340PP      PP19444   4.534   0.379  12.602 -0.0770 -0.0581  0.4786
 9341PP      PP19445   2.496  11.589   4.569  0.0795 -0.1919 -0.1341
 9342PP      PP19446   9.961   5.607  10.492 -0.1017 -0.3597  0.4179
 9343PP      PP19447  13.585  14.860   0.904  0.1288 -0.2156 -0.0162
 9344PP      PP19448  14.783   0.362  11.606 -0.0044  0.4873 -0.0667
 9345PP      PP19449   3.446   3.612   9.503  0.3177  0.4139  0.0351
 9346PP      PP19450  11.618  11.400   0.922 -0.6838  0.0702  0.1746
 9347PP      PP19451   0.076  11.709   2.326 -0.2152 -0.0718  0.0450
 9348PP      PP19452  13.855  15.722  10.809 -0.2013  0.1097  0.1043
 9349PP      PP19453   5.245   2.329   9.441  0.0388  0.2024 -0.1769
 9350PP      PP19454   6.518   6.866   9.725  0.0908  0.1410 -0.0238
 9351PP      PP19455   3.047   1.674   9.686 -0.0032  0.0280  0.0423
 9352PP      PP19456  15.719  10.690   0.877 -0.1620 -0.2440 -0.5220
 9353PP      PP19457   1.728   1.023  11.741  0.0062 -0.0376 -0.4004
 9354PP      PP19458   1.565  12.129  12.113 -0.0971  0.0835 -0.0493
 9355PP      PP19459   0.701  13.631   9.863 -0.0632  0.2277  0.3037
 9356PP      PP19460   5.795   0.835  11.227 -0.1783  0.1017  0.0502
 9357PP      PP19461   3.151  12.666  10.970 -0.0534 -0.0144  0.2607
 9358PP      PP19462  12.049   6.936  13.081  0.0279  0.0119 -0.0312
 9359PP      PP19463  12.592   0.368   2.559  0.0674  0.0466  0.1439
 9360PP      PP19464   2.559   9.311   1.672  0.1248  0.2838 -0.3623
 9361PP      PP19465   4.627  15.189   0.046 -0.1451  0.2834  0.4226
 9362PP      PP19466   3.016  10.814   5.038 -0.0684 -0.0449 -0.2148
 9363PP      PP19467   8.689  12.480  11.472  0.2154  0.1943 -0.2190
 9364PP      PP19468   1.387   5.985   0.976 -0.0617  0.2192 -0.0790
 9365PP      PP19469   0.115   7.465   2.583 -0.1292  0.1615 -0.2095
 9366PP      PP19470  13.200  14.875  12.579  0.0943 -0.2353 -0.1786
 9367PP      PP19471   3.104  10.595  10.819 -0.0681 -0.0369 -0.0782
 9368PP      PP19472  12.195   6.973   3.280  0.0749 -0.0717  0.0369
 9369PP      PP19473  14.380   3.797  12.793  0.1638 -0.0962 -0.4999
 9370PP      PP19474  15.254  13.591   2.824  0.0874 -0.0450 -0.0138
 9371PP      PP19475  12.114  14.220  10.683  0.0074  0.1873  0.1025
 9372PP      PP19476  13.671   6.362   0.527  0.0330  0.1259 -0.0374
 9373PP      PP19477  15.313  11.536  11.961  0.1042  0.0733  0.0174
 9374PP      PP19478   4.396   0.499   2.508  0.0179 -0.0295  0.0728
 9375PP      PP19479   5.650   9.512  11.885  0.1541 -0.1377  0.0416
 9376PP      PP19480   8.182  14.912  11.000 -0.1482  0.0085 -0.2488
 9377PP      PP19481   4.608  10.294   2.736  0.0070 -0.0966  0.0341
 9378PP      PP19482  13.554  11.292  12.533  0.0535 -0.2756  0.2094
 9379PP      PP19483   7.298  14.389  11.118 -0.0541  0.1154  0.0419
 9380PP      PP19484   2.684  15.092   0.197 -0.2483 -0.0500  0.1659
 9381PP      PP19485   1.046   5.844  11.231  0.1626 -0.0131  0.0781
 9382PP      PP19486   2.190   2.447   3.171  0.2749 -0.2590  0.0389
 9383PP      PP19487  10.658   8.474  10.591  0.1953  0.3194 -0.0763
 9384PP      PP19488   0.101  12.179   0.670 -0.1391  0.1085  0.0225
 9385PP      PP19489   8.182  10.422   0.010  0.0231 -0.1913  0.0553
 9386PP      PP19490   7.557  13.935  11.963  0.2648  0.1443 -0.0738
 9387PP      PP19491   2.307   4.720  13.751  0.3172 -0.1364  0.0384
 9388PP      PP19492  10.057  14.177   9.266 -0.2067 -0.1650  0.2128
 9389PP      PP19493  12.524  14.615   2.468  0.0262  0.0720  0.0322
 9390PP      PP19494   4.476  14.996   5.132 -0.0174 -0.1983  0.0725
 9391PP      PP19495   6.507   1.977  10.911  0.1755  0.1528 -0.3465
 9392PP      PP19496   0.064   9.672   4.378 -0.1759  0.1542  0.3417
 9393PP      PP19497  14.838  10.730  11.588 -0.0058 -0.0583  0.1007
 9394PP      PP19498   5.895  12.074   2.282  0.0543 -0.0187 -0.2278
 9395PP      PP19499   5.506   2.960   0.287  0.1163  0.1506 -0.3052
 9396PP      PP19500  11.432  11.065   4.164 -0.0039 -0.1569 -0.0100
 9397PP      PP19501   9.642   3.228  13.780  0.0820  0.2219 -0.1156
 9398PP      PP19502  10.222   8.006   0.168  0.0630 -0.2579  0.0684
 9399PP      PP19503   2.573  12.445  10.809 -0.0789  0.0464  0.1010
 9400PP      PP19504   6.228   1.585  11.574  0.2804  0.0048  0.1371
 9401PP      PP19505  13.411   8.484   2.123  0.0404 -0.0536 -0.1088
 9402PP      PP19506   2.711   9.338  11.944  0.3049  0.2312  0.0744
 9403PP      PP19507   8.232  15.269  13.665  0.2869 -0.3270  0.0976
 9404PP      PP19508   4.167   1.232  12.591 -0.2208  0.1381  0.0039
 9405PP      PP19509  15.356  11.107   0.607 -0.2996  0.0461 -0.1019
 9406PP      PP19510   0.108   8.562  10.753 -0.1066  0.1535 -0.0079
 9407PP      PP19511   0.944  14.026   1.267 -0.4372  0.1089  0.1135
 9408PP      PP19512   3.748   5.442  11.641  0.0083 -0.2142 -0.3024
 9409PP      PP19513   4.564  10.006   4.392 -0.3296  0.0631 -0.1069
 9410PP      PP19514   2.938   4.140  13.625 -0.2981  0.1557 -0.3910
 9411PP      PP19515   9.249   5.431  10.033  0.2459  0.3604 -0.0067
 9412PP      PP19516   2.666   7.373   2.432  0.2383 -0.2746  0.1360
 9413PP      PP19517   9.959   9.298  12.034  0.1760  0.1190  0.1507
 9414PP      PP19518   5.915   4.800  13.253 -0.0567 -0.2223 -0.1818
 9415PP      PP19519   2.624   4.573  12.100  0.0775 -0.2410 -0.1038
 9416PP      PP19520   6.611  12.525  12.215  0.3416 -0.2388 -0.2674
 9417PP      PP19521   0.871  13.430  11.680 -0.1612 -0.3948  0.4746
 9418PP      PP19522  11.822   6.597   0.021 -0.1003 -0.1878  0.1090
 9419PP      PP19523   6.942   7.408  11.461  0.1547  0.0222  0.0267
 9420PP      PP19524   8.716  10.249   1.288  0.1935 -0.1446 -0.0331
 9421PP      PP19525   3.697   8.667   9.640  0.0369 -0.1704  0.1830
 9422PP      PP19526   0.870   9.652  10.715 -0.1505 -0.2066 -0.2412
 9423PP      PP19527  15.456   7.015   1.349 -0.0801 -0.2723  0.3378
 9424PP      PP19528  13.694  10.417   1.130 -0.2062  0.1107  0.1912
 9425PP      PP19529   8.511   1.992  13.720  0.2076 -0.0049  0.2451
 9426PP      PP19530   2.063   9.547   3.311 -0.0716  0.3100 -0.2372
 9427PP      PP19531   1.611  13.243   0.765 -0.3421  0.1720 -0.1222
 9428PP      PP19532   7.412   8.184  12.766 -0.1426 -0.1357  0.1450
 9429PP      PP19533   6.916   9.090  10.404  0.1076 -0.0118 -0.0155
 9430PP      PP19534  10.820   0.879   2.468  0.1982  0.2725 -0.0785
 9431PP      PP19535   4.125   7.841   3.335  0.3065  0.1308  0.0440
 9432PP      PP19536  12.736  14.835   3.480 -0.0547 -0.0602  0.0469
 9433PP      PP19537  14.703  11.946   4.295  0.0360 -0.0100  0.5220
 9434PP      PP19538   7.515   3.383   1.558  0.1419 -0.1834 -0.2545
 9435PP      PP19539   5.983   1.571   3.127 -0.3020 -0.1039  0.0274
 9436PP      PP19540  13.154   0.899  12.438 -0.1244  0.2702  0.0560
 9437PP      PP19541   6.904   5.377   3.588 -0.2452  0.3893 -0.0786
 9438PP      PP19542  13.046  11.769   2.855 -0.1848  0.2184  0.1095
 9439PP      PP19543   8.079   5.278  12.479  0.0801 -0.2519 -0.0450
 9440PP      PP19544   4.054   1.617   3.053  0.2847 -0.4621  0.0193
 9441PP      PP19545  15.673  11.919  13.192 -0.2346  0.1684  0.0486
 9442PP      PP19546  10.979   4.186  11.327 -0.1747  0.0304 -0.1147
 9443PP      PP19547  10.664   7.927   0.593 -0.1309  0.2623 -0.2041
 9444PP      PP19548   3.658  12.558  11.501 -0.2699 -0.3175 -0.0019
 9445PP      PP19549   3.685  13.318  11.360  0.0438  0.0868 -0.2307
 9446PP      PP19550   1.043  12.176   9.947 -0.0522 -0.2937 -0.3693
 9447PP      PP19551   2.051   8.538   2.932  0.1273  0.1183  0.3733
 9448PP      PP19552   0.763   3.926   4.129  0.1170  0.0453  0.1806
 9449PP      PP19553  15.191   9.572  11.104 -0.2704  0.1404 -0.1223
 9450PP      PP19554   0.202  15.164  12.802 -0.1379 -0.2073  0.0191
 9451PP      PP19555  11.678  12.017   2.468 -0.1847 -0.0567  0.1684
 9452PP      PP19556   0.855   8.608   2.811 -0.2206 -0.0952 -0.0126
 9453PP      PP19557  12.933   9.014   9.470  0.1284 -0.0512  0.1782
 9454PP      PP19558   9.751  13.533   9.942 -0.0204 -0.0783  0.1217
 9455PP      PP19559   7.895   6.899   0.943  0.0922  0.0796 -0.3872
 9456PP      PP19560  12.187  13.412  10.761  0.0894 -0.0767  0.1705
 9457PP      PP19561   8.989  13.325  12.030  0.4075  0.2806  0.0247
 9458PP      PP19562   9.165   8.931   2.540  0.4138 -0.1380 -0.2723
 9459PP      PP19563   2.306   5.277   1.415  0.4153 -0.1478  0.2396
 9460PP      PP19564   6.563   1.269   9.286  0.3422 -0.1592 -0.1825
 9461PP      PP19565  10.688   8.708   1.499  0.1451 -0.1094  0.4364
 9462PP      PP19566  14.952   1.778   1.804 -0.1937  0.0910 -0.0539
 9463PP      PP19567   6.368   1.409  12.050  0.4744  0.1204 -0.2866
 9464PP      PP19568   1.152  12.031  12.388 -0.0089 -0.2552  0.0136
 9465PP      PP19569   5.046   0.466   0.036 -0.1893  0.2510  0.1501
 9466PP      PP19570   9.228   9.845  13.636  0.2183 -0.1431 -0.0279
 9467PP      PP19571  11.237   0.080   3.279 -0.1006  0.1420 -0.0068
 9468PP      PP19572   7.218  10.437   4.648  0.1218 -0.1640  0.1463
 9469PP      PP19573  12.596   0.989  13.739  0.0130  0.2987 -0.1217
 9470PP      PP19574   0.353  12.787  13.358 -0.4479 -0.0729 -0.2769
 9471PP      PP19575  12.665  15.139   3.988 -0.0111  0.0428  0.1371
 9472PP      PP19576  11.518   3.593  12.613 -0.2433 -0.1436  0.1111
 9473PP      PP19577  12.787   1.284  11.582 -0.0674 -0.1063 -0.1284
 9474PP      PP19578   9.294   8.478   9.269  0.1225 -0.1453 -0.1301
 9475PP      PP19579   1.169  15.481   3.518 -0.1441 -0.0853  0.0556
 9476PP      PP19580   2.949  13.384   9.408  0.0417  0.1332  0.1554
 9477PP      PP19581   6.232   3.995   8.128 -0.2736 -0.1416  0.1259
 9478PP      PP19582   8.799   6.892  10.217 -0.1030 -0.1256 -0.0806
 9479PP      PP19583   6.801   4.141  10.252 -0.0935 -0.1199  0.2253
 9480PP      PP19584   6.702  13.776   1.059 -0.4390 -0.0667 -0.1630
 9481PP      PP19585   2.149   8.892  12.438  0.0702  0.1255  0.0337
 9482PP      PP19586  15.601  11.049  11.203  0.1876  0.4507 -0.1763
 9483PP      PP19587   3.413   9.128  12.355  0.5090 -0.0688 -0.2166
 9484PP      PP19588   3.513   0.118  12.996 -0.0306 -0.2348  0.0031
 9485PP      PP19589   1.878   6.817   1.214 -0.1830  0.0099 -0.0970
 9486PP      PP19590  12.949   3.497  13.669 -0.0216  0.0141 -0.2069
 9487PP      PP19591   5.009   6.984  12.396  0.2242  0.1402  0.1700
 9488PP      PP19592  10.463   5.157   9.888  0.0083 -0.2195  0.2116
 9489PP      PP19593   5.617  13.872  11.273 -0.1777 -0.2179 -0.0117
 9490PP      PP19594   4.494  15.279   3.246  0.0198  0.2421 -0.2054
 9491PP      PP19595   6.048   2.232   3.859  0.0941  0.0697  0.3528
 9492PP      PP19596  14.032   1.796  10.788 -0.2532 -0.0461  0.2471
 9493PP      PP19597   4.153  13.105   4.670 -0.3424  0.1813 -0.0107
 9494PP      PP19598  10.257  12.792   1.934 -0.0830 -0.2134 -0.0496
 9495PP      PP19599   3.481  15.415   1.884 -0.2037 -0.0006 -0.2993
 9496PP      PP19600  11.318   5.617   2.278  0.3855 -0.0862 -0.0194
 9497PP      PP19601   2.949  12.524   4.886 -0.1817 -0.0599 -0.3737
 9498PP      PP19602   9.781   7.348   2.472 -0.0718 -0.1268 -0.0236
 9499PP      PP19603  13.144   7.626  10.172 -0.0572  0.0056  0.0769
 9500PP      PP19604   2.763  11.017  13.639  0.0175 -0.1761  0.0760
 9501PP      PP19605  12.319   8.961   3.702 -0.1821 -0.0390 -0.0603
 9502PP      PP19606   1.781   2.786  10.428 -0.3865 -0.2121 -0.2023
 9503PP      PP19607   9.210   6.420  10.042  0.2935  0.1528  0.2093
 9504PP      PP19608   2.903   3.896  12.997  0.0187  0.0456 -0.1690
 9505PP      PP19609  11.886   1.051  12.801  0.0275  0.2326 -0.0935
 9506PP      PP19610   7.426   6.528   8.565 -0.0885  0.0594 -0.0203
 9507PP      PP19611   7.349  10.525  12.883 -0.0071  0.0345 -0.0905
 9508PP      PP19612  11.169  11.121  12.311  0.0233 -0.2313 -0.0578
 9509PP      PP19613   8.344   8.916   3.175 -0.1986  0.1745  0.1283
 9510PP      PP19614  10.521   8.804   0.887 -0.0587 -0.0101  0.1002
 9511PP      PP19615   0.053  14.425   2.444 -0.0353  0.0825  0.2030
 9512PP      PP19616   4.084  12.889   0.762  0.4193  0.2495 -0.0693
 9513PP      PP19617   9.708  13.410   0.002 -0.0133 -0.1649  0.0880
 9514PP      PP19618   1.494  13.705  12.181  0.2584 -0.0340 -0.0519
 9515PP      PP19619  15.723   1.802  10.338  0.0038 -0.0276 -0.2077
 9516PP      PP19620   1.585   8.523   0.188  0.2089  0.3633  0.0723
 9517PP      PP19621   6.609   7.109   4.040  0.1433 -0.0869 -0.2980
 9518PP      PP19622   8.212   5.716   1.624  0.0527  0.3136  0.3045
 9519PP      PP19623   9.138  15.142  13.498  0.1175 -0.1073  0.1049
 9520PP      PP19624   5.812   7.563   9.708  0.3133 -0.1356  0.0987
 9521PP      PP19625   7.027   7.333  13.383 -0.0069 -0.4200 -0.1492
 9522PP      PP19626  13.350   0.179   9.499 -0.0377  0.2626  0.4068
 9523PP      PP19627   3.756   9.114   0.118 -0.2983 -0.2652  0.1360
 9524PP      PP19628   6.652   8.282   9.401 -0.1843  0.1226 -0.0064
 9525PP      PP19629   5.319   7.197   4.572  0.1820  0.0139  0.2163
 9526PP      PP19630   4.451   2.429   3.034 -0.2037  0.0267  0.0323
 9527PP      PP19631   2.611  10.465   3.214 -0.0772  0.0702 -0.0588
 9528PP      PP19632   4.881   8.864  13.604  0.3712  0.3526  0.2372
 9529PP      PP19633   3.453  13.026   3.814  0.0164 -0.1191 -0.0049
 9530PP      PP19634   5.346   5.633  10.068  0.1255  0.1542  0.4441
 9531PP      PP19635  11.085   4.204   1.070  0.0020 -0.1944 -0.0752
 9532PP      PP19636   9.538  13.387  12.842  0.0214  0.1809  0.0521
 9533PP      PP19637  11.444   5.385   3.262 -0.0560  0.1563  0.2244
 9534PP      PP19638  12.423   8.157  13.461  0.0230 -0.1648  0.0235
 9535PP      PP19639  11.603   5.588   8.741  0.1220 -0.0291  0.1417
 9536PP      PP19640  13.079   3.577   2.493 -0.1723  0.0257  0.1025
 9537PP      PP19641   7.029   4.353  12.529  0.0225  0.0433 -0.1696
 9538PP      PP19642  11.232   4.306  13.671  0.2470  0.0111  0.0655
 9539PP      PP19643   6.749  11.673  10.860  0.2839  0.2138 -0.3488
 9540PP      PP19644   2.159   0.304  10.174  0.1097 -0.0908 -0.0498
 9541PP      PP19645  12.156   3.564   0.372 -0.4954  0.1531 -0.1456
 9542PP      PP19646   6.641   3.555  13.486 -0.1674  0.1617  0.2194
 9543PP      PP19647  10.432   1.648   9.254  0.4308  0.0091 -0.0831
 9544PP      PP19648  12.054   7.626   1.793  0.2333  0.0378 -0.2247
 9545PP      PP19649   5.180   4.571  11.980  0.1399 -0.0092  0.0102
 9546PP      PP19650   5.337   8.625   3.411  0.2642  0.0494  0.1334
 9547PP      PP19651  10.220   1.428  11.599  0.2549  0.2806 -0.0080
 9548PP      PP19652  14.090   7.117  10.257 -0.0978  0.0466 -0.0090
 9549PP      PP19653   5.063   5.275  10.889  0.1224 -0.1412 -0.1758
 9550PP      PP19654   6.707   3.391   3.186  0.1154 -0.2624  0.0586
 9551PP      PP19655   3.594  13.955   0.185 -0.0443  0.0191 -0.2148
 9552PP      PP19656  11.078   5.188  11.098 -0.0705 -0.1999 -0.2107
 9553PP      PP19657   4.680   4.299   1.312  0.0889  0.2085 -0.3112
 9554PP      PP19658   5.715   6.968  12.378  0.1260  0.0357  0.1467
 9555PP      PP19659   5.996  15.050   3.858 -0.1106  0.2512  0.0797
 9556PP      PP19660  12.793  14.779  10.045 -0.0298 -0.1935 -0.1744
 9557PP      PP19661  12.882   7.503  11.559  0.0714  0.0243 -0.0494
 9558PP      PP19662  11.634   5.026   2.789  0.1139  0.0408 -0.0958
 9559PP      PP19663   5.965  14.185  13.530 -0.0043  0.1678  0.3087
 9560PP      PP19664  14.110  14.889   4.410  0.2665 -0.1284 -0.2497
 9561PP      PP19665   3.602   3.519  10.183  0.0220 -0.3045  0.2746
 9562PP      PP19666   8.924  10.597  10.829 -0.4150 -0.1340  0.1038
 9563PP      PP19667  12.238   5.770   1.549 -0.0676 -0.1205  0.0799
 9564PP      PP19668   6.845   9.437   4.414  0.0762 -0.1182 -0.0456
 9565PP      PP19669   3.383  15.712  13.481 -0.0512 -0.2198 -0.3398
 9566PP      PP19670  15.719   5.752   0.255  0.0935  0.4436 -0.0227
 9567PP      PP19671  10.562   5.134  12.781  0.0930 -0.1664 -0.2159
 9568PP      PP19672  11.048   5.386  11.868  0.1868 -0.0759 -0.3000
 9569PP      PP19673   9.312  12.737  13.360  0.1976 -0.1269 -0.1570
 9570PP      PP19674  13.599   1.707   1.021  0.0769  0.2803  0.1471
 9571PP      PP19675   5.137   8.019   4.421  0.0129  0.1026 -0.2680
 9572PP      PP19676  13.461   5.607   2.202  0.0869  0.1074 -0.0301
 9573PP      PP19677   3.352   0.460  11.035  0.0974  0.1899 -0.0774
 9574PP      PP19678   1.127   9.275  10.398 -0.0901  0.0202 -0.1544
 9575PP      PP19679  12.846   6.785  10.521  0.1798  0.1135  0.0406
 9576PP      PP19680   2.874   8.843  10.076  0.0512  0.4313 -0.3893
 9577PP      PP19681   4.294   5.825   0.685 -0.3821  0.0328 -0.0650
 9578PP      PP19682   8.641  15.071  12.780 -0.2628  0.0321 -0.1911
 9579PP      PP19683   2.920  14.283  10.385  0.0718  0.1288 -0.0673
 9580PP      PP19684   9.835  15.516   3.568  0.1518 -0.2445 -0.0647
 9581PP      PP19685  13.800   3.368   3.626 -0.3046  0.0931 -0.3168
 9582PP      PP19686   5.512   4.187  10.575  0.0399  0.2273 -0.0454
 9583PP      PP19687  13.656   8.961   3.521 -0.2068  0.3108 -0.0188
 9584PP      PP19688   9.082   1.892  13.778 -0.1379 -0.0563 -0.0394
 9585PP      PP19689  10.972  12.153   4.107 -0.2137  0.0670 -0.1679
 9586PP      PP19690  12.686   0.172   3.569  0.2171 -0.0666 -0.2002
 9587PP      PP19691   1.644   4.009  12.632 -0.0648 -0.1667  0.2030
 9588PP      PP19692  10.955  14.237  11.965  0.0107  0.0857 -0.0375
 9589PP      PP19693  15.256  13.073   3.289 -0.1552 -0.0101 -0.1630
 9590PP      PP19694  12.488   9.349   9.370  0.1168  0.3075 -0.3198
 9591PP      PP19695   7.690  15.358  12.210 -0.2921  0.1533 -0.3316
 9592PP      PP19696  10.841  13.509  12.465  0.1123 -0.2281 -0.2060
 9593PP      PP19697   2.580   6.938  13.016 -0.0443  0.4140  0.0472
 9594PP      PP19698   5.563   5.122  13.156 -0.0886 -0.4696  0.2609
 9595PP      PP19699  12.819   3.556   1.700 -0.0439 -0.1454  0.1086
 9596PP      PP19700   5.042   9.554   1.472  0.1205 -0.0966  0.0246
 9597PP      PP19701  10.941  14.473   0.816  0.0564 -0.0356 -0.2884
 9598PP      PP19702   1.407   2.623   4.783  0.0219  0.1936 -0.2363
 9599PP      PP19703   4.116   7.898   9.299 -0.1994  0.0278 -0.2891
 9600PP      PP19704   6.269  10.060  11.737 -0.0264  0.1625  0.0600
 9601PP      PP19705   7.668   5.088   9.147 -0.0492  0.0519  0.1095
 9602PP      PP19706  14.087  11.618   2.388  0.0620 -0.3008  0.2207
 9603PP      PP19707   1.852   3.889  11.076  0.1523 -0.1102 -0.3081
 9604PP      PP19708   8.822   0.490   4.512  0.2159 -0.3162  0.1087
 9605PP      PP19709   2.169  11.694  11.518  0.0572 -0.1040  0.1928
 9606PP      PP19710   1.493  11.648   2.237  0.1975 -0.0865 -0.2054
 9607PP      PP19711  11.890   7.017   9.212 -0.3700  0.0180 -0.1046
 9608PP      PP19712  11.999   5.626   0.018  0.0289 -0.2234 -0.1516
 9609PP      PP19713   2.016  15.664   0.764  0.0176 -0.1824  0.1721
 9610PP      PP19714   1.504  14.146  13.633 -0.0548  0.0830 -0.1349
 9611PP      PP19715   2.520  10.694   9.764  0.2043 -0.3419  0.0531
 9612PP      PP19716  15.665  12.083  10.861 -0.1764 -0.3589 -0.1383
 9613PP      PP19717   2.825   6.422   0.544 -0.2872  0.1889  0.1429
 9614PP      PP19718  14.697   2.699   8.648 -0.1792  0.0620 -0.0025
 9615PP      PP19719  14.468   3.023  13.652  0.0961 -0.0314  0.0624
 9616PP      PP19720   3.051  11.153  11.468 -0.0841 -0.1466  0.0340
 9617PP      PP19721   2.655  10.812  12.720  0.0538  0.1222 -0.0750
 9618PP      PP19722   5.136  12.234   4.055  0.1300  0.1486 -0.0664
 9619PP      PP19723   4.376   0.001   4.430  0.3174  0.1750 -0.0321
 9620PP      PP19724   3.590   2.845  12.369 -0.0988  0.1625 -0.1188
 9621PP      PP19725   1.526   2.448  10.156 -0.0801 -0.1763  0.2151
 9622PP      PP19726   2.379   5.172  10.855  0.0119 -0.0106 -0.4462
 9623PP      PP19727   2.115  12.079  12.274  0.0873  0.0531 -0.0806
 9624PP      PP19728   9.527  10.078  10.473  0.2325 -0.0977 -0.1292
 9625PP      PP19729   7.299   5.530   9.122 -0.0570 -0.1371  0.2411
 9626PP      PP19730  15.032  10.604   1.071  0.1819  0.0527 -0.1165
 9627PP      PP19731   4.512   7.398   0.089  0.0997  0.0278  0.0630
 9628PP      PP19732  14.634   7.746   3.392 -0.0716  0.1841  0.0080
 9629PP      PP19733   8.051   7.724   2.467 -0.1093  0.1428  0.0804
 9630PP      PP19734   8.409  15.351   0.355 -0.0248 -0.2269  0.2670
 9631PP      PP19735   3.042  10.314   9.774 -0.0046 -0.0117 -0.1402
 9632PP      PP19736   1.413   9.290   1.718  0.1841 -0.3355 -0.1687
 9633PP      PP19737   9.584   6.762   0.522  0.3015  0.0158  0.0868
 9634PP      PP19738  14.071  14.216   2.861  0.3293 -0.1596 -0.1969
 9635PP      PP19739   3.465   0.959   0.462  0.2948  0.1331 -0.2099
 9636PP      PP19740   8.191  12.489   3.659  0.0360  0.1043 -0.2992
 9637PP      PP19741   5.743   9.671  12.485 -0.2191  0.0878 -0.0048
 9638PP      PP19742   1.494   4.696   2.396  0.2468 -0.0973 -0.4095
 9639PP      PP19743   5.660   8.781  13.781  0.0526  0.2558 -0.0056
 9640PP      PP19744   5.127   5.892  13.257  0.0183  0.2517 -0.3108
 9641PP      PP19745   5.702  15.442  12.764  0.1077 -0.0345 -0.2620
 9642PP      PP19746   9.580   3.937   2.222  0.1526 -0.2707  0.0883
 9643PP      PP19747   1.044  14.914   1.379  0.3007 -0.0733 -0.0175
 9644PP      PP19748   0.991   7.764   0.387 -0.0668  0.0232  0.2015
 9645PP      PP19749   6.607   1.816  12.469  0.2027 -0.1906  0.0056
 9646PP      PP19750  14.766   6.760  12.276 -0.1442 -0.1513  0.0409
 9647PP      PP19751   2.770   6.630   1.044 -0.0040 -0.0741  0.1052
 9648PP      PP19752   3.949   2.914  10.703  0.2934 -0.0077 -0.0788
 9649PP      PP19753   5.315   8.183   3.945 -0.1633  0.1618  0.1290
 9650PP      PP19754   6.174   5.801   0.815  0.3869 -0.0908 -0.0344
 9651PP      PP19755  10.718  12.543   9.736 -0.0828 -0.1760  0.2139
 9652PP      PP19756  10.804  11.965  13.383 -0.2924 -0.0683  0.0816
 9653PP      PP19757   7.600   1.024  13.089 -0.1367 -0.0409  0.0242
 9654PP      PP19758  14.150  10.533   4.184 -0.0003 -0.0524 -0.2890
 9655PP      PP19759  12.526  15.464   3.452 -0.1886  0.0906  0.2141
 9656PP      PP19760   3.471  15.584   1.103  0.1388 -0.0355  0.2219
 9657PP      PP19761   9.824  15.595   4.069 -0.2958 -0.0192  0.1859
 9658PP      PP19762   7.571  14.992  11.764 -0.0638  0.1158 -0.0368
 9659PP      PP19763   1.310   9.699  10.550 -0.0496 -0.2424  0.2151
 9660PP      PP19764  14.197   9.126   1.802  0.0638 -0.3493 -0.1039
 9661PP      PP19765   8.940   1.286   2.152  0.1417 -0.0889 -0.1798
 9662PP      PP19766   1.418   1.585  11.442 -0.0104 -0.3278 -0.1761
 9663PP      PP19767  15.110  14.636   9.686 -0.0574 -0.0586 -0.0202
 9664PP      PP19768   5.385   6.119  11.953  0.3679 -0.4104 -0.0077
 9665PP      PP19769   4.262  13.519  12.824 -0.0769 -0.1711 -0.0192
 9666PP      PP19770   4.493  10.130   1.672  0.3268 -0.1686 -0.2370
 9667PP      PP19771   5.771   0.989  13.599  0.1110 -0.5386 -0.1219
 9668PP      PP19772   6.229   6.588  12.372  0.2789 -0.0350 -0.2261
 9669PP      PP19773  14.374   6.873   1.664  0.0420  0.2779 -0.0196
 9670PP      PP19774   9.618   5.945  11.388 -0.0718 -0.3342 -0.1141
 9671PP      PP19775  11.948   7.692   9.850  0.1259  0.0625  0.2325
 9672PP      PP19776   4.690   6.665   0.931 -0.0048 -0.3427  0.1343
 9673PP      PP19777   4.526  14.931   3.925  0.1505 -0.1188  0.0923
 9674PP      PP19778  12.965   6.285  10.627  0.0951 -0.0994  0.0942
 9675PP      PP19779   8.704  15.058   1.801 -0.3182  0.1754 -0.1652
 9676PP      PP19780   9.635   5.894  12.207  0.1868 -0.1969 -0.4930
 9677PP      PP19781   2.986   0.789   1.956  0.1523 -0.1958 -0.0553
 9678PP      PP19782   8.161  12.514   9.736  0.1024  0.0695  0.2428
 9679PP      PP19783  15.689  13.857  11.697 -0.0885  0.0903 -0.0591
 9680PP      PP19784   8.307   6.453   3.432 -0.3791 -0.0469 -0.0354
 9681PP      PP19785   7.481   4.108   4.217 -0.1155  0.2213 -0.1727
 9682PP      PP19786  10.294   5.061   4.225  0.0936  0.1370 -0.3606
 9683PP      PP19787   3.933  10.080  11.147 -0.2259 -0.0989 -0.0057
 9684PP      PP19788   7.854  12.554   4.094 -0.2963  0.1479 -0.3455
 9685PP      PP19789   2.722  13.017  12.848 -0.1524 -0.0064 -0.1635
 9686PP      PP19790  10.995  15.102   3.572 -0.0550 -0.1284 -0.1220
 9687PP      PP19791   9.656  11.304  11.676 -0.2248 -0.2741 -0.0442
 9688PP      PP19792   0.135   9.053   2.492 -0.1407  0.2425  0.0504
 9689PP      PP19793  11.306  10.527  11.836  0.0535 -0.0271 -0.5849
 9690PP      PP19794   2.244   8.221   2.497  0.3059  0.3804  0.0752
 9691PP      PP19795   9.143   7.723   0.960  0.3501  0.1073  0.1622
 9692PP      PP19796   7.676   4.547   0.529 -0.1586  0.2002  0.0717
 9693PP      PP19797  14.138   3.411  13.526  0.1144 -0.0083 -0.2267
 9694PP      PP19798  10.583  13.955   2.944 -0.2142  0.0818  0.0009
 9695PP      PP19799   0.471   6.482   8.987  0.0654 -0.3218  0.2541
 9696PP      PP19800   2.212   7.804  10.710 -0.3319  0.0842 -0.2329
 9697PP      PP19801   9.603  13.974  11.574 -0.3319  0.0112  0.1237
 9698PP      PP19802   7.361   9.180  11.657  0.3491  0.0760 -0.0740
 9699PP      PP19803   7.500   2.414   1.863 -0.0251  0.1179  0.0504
 9700PP      PP19804   0.037   9.189   2.989  0.1568  0.1273 -0.0345
 9701PP      PP19805  10.000   5.643   1.630 -0.2253 -0.0131  0.0585
 9702PP      PP19806  11.174  13.922   0.327 -0.0955 -0.3259  0.5171
 9703PP      PP19807  14.621   1.068  12.925  0.0230 -0.0306  0.1139
 9704PP      PP19808  14.323   0.613   3.602 -0.1119  0.2427  0.2438
 9705PP      PP19809   3.591  15.073  13.486 -0.1146 -0.0437 -0.2712
 9706PP      PP19810   8.406   3.331   2.123  0.1239  0.3960 -0.4677
 9707PP      PP19811  12.976  11.794  13.483 -0.2900 -0.2171 -0.3377
 9708PP      PP19812   1.247   9.838  12.324  0.0414 -0.1886 -0.2629
 9709PP      PP19813  13.980  11.475   1.879 -0.0299  0.0710  0.1438
 9710PP      PP19814  14.513   5.880   9.155 -0.0466 -0.2265 -0.0665
 9711PP      PP19815  12.778  10.415  13.759 -0.1846 -0.1548  0.0403
 9712PP      PP19816   5.584   0.906   0.718  0.0710 -0.0901  0.0555
 9713PP      PP19817  15.017   0.750   3.037 -0.1264 -0.3683 -0.1015
 9714PP      PP19818   2.937  10.445  10.345  0.0249 -0.0952 -0.1284
 9715PP      PP19819  12.449   9.110  13.189  0.3131 -0.1673 -0.0924
 9716PP      PP19820   3.492   6.715   9.786 -0.3329  0.0276  0.0139
 9717PP      PP19821   0.301   3.403   0.688 -0.0868 -0.2771 -0.1439
 9718PP      PP19822   2.689   5.548  10.576  0.0254 -0.1313  0.0680
 9719PP      PP19823  11.389  13.463  13.340 -0.1511 -0.0543  0.3312
 9720PP      PP19824  11.440   3.421   9.686  0.0867 -0.3250 -0.1834
 9721PP      PP19825   4.568   7.118   9.012  0.0185 -0.0563 -0.0173
 9722PP      PP19826   1.702   7.435  11.469  0.5570  0.3888 -0.5684
 9723PP      PP19827  14.187   1.915  11.450  0.0518  0.0228 -0.0138
 9724PP      PP19828  13.513  10.568  13.001 -0.0857 -0.2700 -0.0170
 9725PP      PP19829   1.301  11.983   4.665 -0.0836  0.2170 -0.1698
 9726PP      PP19830   7.558   9.813   2.192  0.4032  0.0974  0.0065
 9727PP      PP19831  13.823  13.495   9.286  0.1614  0.1201 -0.0431
 9728PP      PP19832  12.879   4.963   1.863 -0.0268 -0.0615 -0.0862
 9729PP      PP19833   7.817  10.343  12.786 -0.1462  0.0753  0.1660
 9730PP      PP19834   6.035   1.743   3.602 -0.1498  0.2985 -0.0862
 9731PP      PP19835  15.436   2.986  13.195  0.3771  0.0180  0.2853
 9732PP      PP19836   8.669   6.982  12.629 -0.2309 -0.2702  0.0746
 9733PP      PP19837  13.451  15.090   1.513 -0.0896  0.0996 -0.1938
 9734PP      PP19838   1.400   4.998  12.577 -0.1121 -0.2913  0.0628
 9735PP      PP19839   1.914   9.430   0.875  0.0587  0.1556  0.0177
 9736PP      PP19840  14.404  10.431  11.476 -0.3875 -0.0710 -0.1556
 9737PP      PP19841  13.984   5.616   2.139 -0.1631  0.1080 -0.2522
 9738PP      PP19842   8.818   0.576   0.757 -0.3821  0.0311 -0.1080
 9739PP      PP19843   4.725  11.748  13.779 -0.1471  0.0579  0.0341
 9740PP      PP19844   0.371  14.981   9.596  0.1465 -0.2387 -0.0991
 9741PP      PP19845  12.171  10.131  11.234 -0.1772 -0.3626 -0.2851
 9742PP      PP19846   2.611   0.129   0.817 -0.0344  0.1418 -0.1342
 9743PP      PP19847   4.942  14.256   4.518 -0.5358  0.1106 -0.4117
 9744PP      PP19848   6.196  13.409  13.665  0.2785  0.3248  0.2434
 9745PP      PP19849   2.176   0.991  10.959 -0.0314 -0.0411  0.0130
 9746PP      PP19850  14.221   2.869  13.168 -0.0477  0.2362 -0.0660
 9747PP      PP19851   8.420   9.296   9.715  0.0800 -0.0120  0.1242
 9748PP      PP19852   5.860   6.154   8.955 -0.0695  0.1284  0.0673
 9749PP      PP19853   2.457   9.038   9.699  0.1277 -0.1795 -0.0244
 9750PP      PP19854   3.795   0.057   2.215  0.0456  0.0591  0.0761
 9751PP      PP19855   4.357  13.296   0.536 -0.0664 -0.1980  0.2752
 9752PP      PP19856   2.829   7.746  12.454  0.2793  0.2892 -0.0363
 9753PP      PP19857   1.578  15.677   1.579  0.0908 -0.1259 -0.0290
 9754PP      PP19858   9.603   1.333  12.381  0.2189 -0.3511  0.0458
 9755PP      PP19859  13.013   7.603   9.698  0.0071  0.0059 -0.0531
 9756PP      PP19860  10.157   8.009   9.232 -0.1390  0.2211 -0.1205
 9757PP      PP19861   0.235  14.807  10.839  0.0348  0.1657  0.1523
 9758PP      PP19862   9.218  11.803  10.860  0.0037  0.0518 -0.0413
 9759PP      PP19863   1.680  13.087  13.621  0.1196  0.3506 -0.1348
 9760PP      PP19864   5.553   8.941   4.673  0.0641 -0.1721 -0.1414
 9761PP      PP19865   7.687  14.594  11.410  0.2756 -0.1754 -0.1294
 9762PP      PP19866  15.689   2.629  12.167 -0.1638 -0.2137  0.0756
 9763PP      PP19867  14.486   2.371   0.488  0.2686 -0.0747 -0.0525
 9764PP      PP19868   3.782  14.583  10.755  0.0381 -0.2856  0.0311
 9765PP      PP19869   1.163  10.300   9.550 -0.2872 -0.0204 -0.2089
 9766PP      PP19870   8.535   9.750   8.963  0.1227  0.2086  0.0012
 9767PP      PP19871   7.608   3.354  12.338 -0.1190 -0.1425  0.0606
 9768PP      PP19872  10.710   4.636   3.535  0.1666 -0.0268  0.3029
 9769PP      PP19873  15.369   7.376   2.770 -0.2242  0.0054  0.3821
 9770PP      PP19874   6.724   2.250   3.074 -0.0141  0.0847 -0.0787
 9771PP      PP19875   7.846  10.396   2.350  0.0382 -0.1491  0.2560
 9772PP      PP19876  12.526   8.579   3.975  0.0011  0.0531 -0.2466
 9773PP      PP19877   0.594   5.976  13.542 -0.2792  0.5817  0.0318
 9774PP      PP19878   3.115  13.792   3.252 -0.0495 -0.0662  0.0155
 9775PP      PP19879   2.642   7.036   9.493 -0.2140 -0.1685  0.2821
 9776PP      PP19880  15.031   7.410  11.634  0.1172  0.1003  0.0073
 9777PP      PP19881  15.266   3.257  13.655 -0.1788  0.0552 -0.0003
 9778PP      PP19882  14.479   8.608  12.990 -0.0252  0.1051 -0.1185
 9779PP      PP19883   4.239  10.567   0.142  0.0741  0.1607  0.3774
 9780PP      PP19884   0.470   8.481  10.454  0.0723  0.0644 -0.0570
 9781PP      PP19885   4.799   2.630   9.691  0.2374 -0.0287 -0.2574
 9782PP      PP19886   1.415   2.022   2.612 -0.0935  0.3304 -0.2226
 9783PP      PP19887   8.683  11.084   3.815  0.0411  0.1482  0.0641
 9784PP      PP19888  13.819   7.192   9.449  0.2454  0.0270 -0.0539
 9785PP      PP19889   5.717  10.042  11.721 -0.0217  0.1583  0.2374
 9786PP      PP19890   8.989   4.539  13.067  0.1130 -0.0972  0.1155
 9787PP      PP19891   0.129   7.057   9.073  0.1601 -0.1251  0.1629
 9788PP      PP19892   9.400   4.570  12.167  0.0133  0.1533 -0.3085
 9789PP      PP19893  15.178  13.756   9.368 -0.0529 -0.0245  0.1528
 9790PP      PP19894   4.392  14.160  11.270 -0.2944  0.0682  0.1491
 9791PP      PP19895   7.369  12.738  10.819  0.0158  0.1051  0.0448
 9792PP      PP19896   4.812  14.738   1.365 -0.1172  0.0539 -0.1019
 9793PP      PP19897   5.860   3.118   2.311 -0.2650  0.2428 -0.3762
 9794PP      PP19898  12.413  13.282  13.293 -0.2210  0.0529 -0.2007
 9795PP      PP19899   1.962   0.239   3.092  0.0185  0.1358 -0.0253
 9796PP      PP19900   6.731   4.461   8.035 -0.1465  0.0137  0.1970
 9797PP      PP19901  14.963  14.397  11.910 -0.1612  0.2625  0.0148
 9798PP      PP19902  13.830   5.473   1.643  0.1443  0.1605  0.0824
 9799PP      PP19903  12.523   9.945  12.553  0.0357 -0.2005  0.1223
 9800PP      PP19904  10.098   0.936   1.348 -0.0133 -0.0305  0.0038
 9801PP      PP19905   1.285   7.336   0.598  0.1253  0.1188 -0.0610
 9802PP      PP19906   3.084   2.237   9.816 -0.2854 -0.1631  0.0747
 9803PP      PP19907   2.312   5.972  13.413  0.2799 -0.0526 -0.0968
 9804PP      PP19908  12.204  13.878  11.039 -0.0730  0.0011  0.3958
 9805PP      PP19909   1.032  10.279   4.976  0.1668 -0.2713  0.2037
 9806PP      PP19910   4.579   1.018  12.778 -0.3673  0.0291  0.0160
 9807PP      PP19911   2.649   4.310  10.990 -0.2197 -0.1133 -0.0627
 9808PP      PP19912   9.416   0.830  13.283 -0.3690  0.1737 -0.1927
 9809PP      PP19913  11.279   3.984   3.333  0.0190  0.4727 -0.2613
 9810PP      PP19914   6.797   1.704  11.445 -0.2486 -0.0304  0.1645
 9811PP      PP19915   6.483  11.915   9.630 -0.0994  0.1413  0.0263
 9812PP      PP19916  14.428   1.652   1.537  0.0144 -0.0464 -0.0253
 9813PP      PP19917   5.292  15.176   1.887 -0.0589  0.0830 -0.2548
 9814PP      PP19918  13.178   2.659  13.532 -0.0459  0.2029 -0.1194
 9815PP      PP19919  11.716   3.277   2.982  0.0870  0.0744  0.2146
 9816PP      PP19920   3.194   3.709  11.280 -0.0253  0.0230  0.3413
 9817PP      PP19921   1.637  14.067  10.725 -0.1251  0.0540 -0.0286
 9818PP      PP19922   7.261   3.631  12.017  0.2069  0.3232 -0.2367
 9819PP      PP19923  14.132  11.307   4.662 -0.0117 -0.0461  0.0376
 9820PP      PP19924   1.882  15.245   2.430 -0.2240  0.1244 -0.0972
 9821PP      PP19925   3.853   7.733   9.703 -0.0857 -0.1269 -0.2229
 9822PP      PP19926  12.778  10.854  11.027 -0.1568  0.0426  0.1885
 9823PP      PP19927   7.951   3.750  11.044 -0.2115 -0.2823  0.2710
 9824PP      PP19928   7.926  12.563   5.153  0.0421 -0.1832 -0.0033
 9825PP      PP19929  15.247  14.939   3.927 -0.0095  0.3046  0.1633
 9826PP      PP19930   8.104   8.864  12.355 -0.3146  0.1333 -0.1709
 9827PP      PP19931   0.441   4.633   0.122  0.0422 -0.0661 -0.0087
 9828PP      PP19932   1.232  12.979   2.751 -0.3027 -0.3030  0.3359
 9829PP      PP19933  13.927  10.439  12.216 -0.0561  0.2059 -0.1133
 9830PP      PP19934  11.740   1.492   9.881 -0.0300  0.1061  0.2855
 9831PP      PP19935  10.493  11.288   9.092  0.3217  0.3092  0.0031
 9832PP      PP19936   9.247   5.952   8.448 -0.0682  0.0481  0.1092
 9833PP      PP19937  12.672   1.875  12.647 -0.1644  0.1714  0.0874
 9834PP      PP19938   5.608   4.566   2.331  0.1129  0.1009 -0.2848
 9835PP      PP19939  12.604   3.364   2.723 -0.0114 -0.1389 -0.0707
 9836PP      PP19940   7.016  13.892   3.502  0.2127  0.1445  0.0441
 9837PP      PP19941   9.843   2.924   2.316  0.0678  0.1859 -0.1653
 9838PP      PP19942  11.289  11.313  12.836 -0.2352 -0.1929 -0.0242
 9839PP      PP19943   2.393   2.905  11.376  0.0945 -0.0930  0.0179
 9840PP      PP19944  12.462   8.644   9.823  0.1364  0.0241 -0.1634
 9841PP      PP19945  14.922  11.034   1.525 -0.0749  0.0916 -0.2686
 9842PP      PP19946  12.145   4.134   0.153  0.1826 -0.0172 -0.1941
 9843PP      PP19947  13.906  12.591   2.570 -0.0293  0.2426  0.0705
 9844PP      PP19948   8.037  11.662   2.972  0.0268 -0.2160 -0.0133
 9845PP      PP19949   1.193  15.303   0.414 -0.1142 -0.0150  0.1167
 9846PP      PP19950   3.655   3.802   1.516  0.2830 -0.1244  0.1193
 9847PP      PP19951   6.475   1.693   9.917 -0.0247 -0.3657 -0.0230
 9848PP      PP19952   8.929  10.522   3.081 -0.1759  0.1854 -0.1076
 9849PP      PP19953  15.176  13.908   4.056  0.0290  0.0444  0.1351
 9850PP      PP19954  15.629   4.884  12.809  0.1634 -0.0432 -0.0777
 9851PP      PP19955  14.376  11.062  11.550  0.1033 -0.1408 -0.0521
 9852PP      PP19956   8.323   7.804  10.640  0.1052  0.1212  0.0425
 9853PP      PP19957   8.939  11.034  11.755 -0.3829 -0.1544 -0.2793
 9854PP      PP19958   2.979  12.151   0.741  0.0317  0.5603  0.2093
 9855PP      PP19959   1.132   0.511   9.932 -0.4095 -0.4216 -0.0780
 9856PP      PP19960   8.873  14.128  13.306 -0.0387  0.2379  0.0417
 9857PP      PP19961   5.800   1.608   1.499  0.2002 -0.0043  0.0317
 9858PP      PP19962  12.851   4.155   2.727 -0.0494  0.2469  0.0248
 9859PP      PP19963   0.828   2.287  10.728  0.2822  0.0936  0.0711
 9860PP      PP19964  12.327   2.624   3.125 -0.0999 -0.1102  0.5721
 9861PP      PP19965   2.080  11.339  12.335  0.1805 -0.2157  0.3731
 9862PP      PP19966   6.281   3.289   8.786  0.3060 -0.2477  0.0828
 9863PP      PP19967   3.997   3.174  11.180 -0.2942  0.1634 -0.0694
 9864PP      PP19968  13.438   3.716  10.023 -0.2247  0.3175  0.1665
 9865PP      PP19969   1.352  13.132   4.463  0.2050  0.0604  0.0239
 9866PP      PP19970   8.308   2.557   8.919 -0.0158  0.4258  0.0185
 9867PP      PP19971   8.381   1.389   8.895 -0.2300  0.0710 -0.0484
 9868PP      PP19972  13.746  11.308   0.643 -0.3902  0.1699 -0.2081
 9869PP      PP19973   7.263   4.644   8.767  0.0379 -0.0320  0.1522
 9870PP      PP19974   9.668  15.429  10.040 -0.0420  0.0944  0.1005
 9871PP      PP19975   8.956   5.237   3.095  0.1037  0.1693 -0.1001
 9872PP      PP19976   8.824  14.467   9.908  0.2622 -0.3253 -0.0135
 9873PP      PP19977   6.595  13.425   4.064  0.1744  0.0135  0.1649
 9874PP      PP19978   0.307  14.481   2.920 -0.1485  0.1594 -0.1511
 9875PP      PP19979   3.192   8.473   3.129  0.3227 -0.1163  0.2675
 9876PP      PP19980   2.548  13.730   3.182 -0.0489 -0.0735 -0.2405
 9877PP      PP19981   2.955  13.520   8.758  0.2049 -0.0111  0.2154
 9878PP      PP19982  13.022   7.528   1.704 -0.1904  0.0661 -0.0631
 9879PP      PP19983  12.711  13.580  13.061 -0.0813 -0.0248  0.0740
 9880PP      PP19984   5.902  10.254   1.059  0.2911 -0.2042  0.2033
 9881PP      PP19985  14.969   2.447   9.604  0.0638 -0.0831 -0.2260
 9882PP      PP19986   8.576  11.402   9.284 -0.3634  0.0580  0.1902
 9883PP      PP19987   5.033   5.072   0.241 -0.1090 -0.0191 -0.0849
 9884PP      PP19988  15.083   2.809  13.525  0.0443 -0.1281 -0.3886
 9885PP      PP19989   6.002   3.196   3.760 -0.4420  0.0040  0.3553
 9886PP      PP19990   5.638   1.032   3.232  0.1654  0.2380 -0.0886
 9887PP      PP19991   7.110   7.823   1.252  0.0381  0.2182 -0.0392
 9888PP      PP19992   9.361   0.776   0.096  0.1423 -0.1221 -0.0745
 9889PP      PP19993   7.510   7.790   9.170 -0.0469  0.1870  0.0027
 9890PP      PP19994  15.482   0.111  13.467 -0.1962  0.0570  0.1655
 9891PP      PP19995  10.049   5.114  12.022  0.1901 -0.1702 -0.0311
 9892PP      PP19996   1.666  11.417   1.735 -0.1770 -0.2005 -0.4693
 9893PP      PP19997  11.506  12.691  13.756  0.1067 -0.3629  0.1957
 9894PP      PP19998  12.967   7.538  13.293 -0.2762 -0.4305  0.3537
 9895PP      PP19999  12.230   5.697   0.850  0.0394  0.1818  0.0255
 9896PP      PP20000  13.275  13.681   4.323  0.2395  0.1154  0.1411
 9897PP      PP20001   3.875   9.485  13.041 -0.0909 -0.0839  0.0316
 9898PP      PP20002   9.038   3.487  10.774  0.1236 -0.0241  0.1909
 9899PP      PP20003   9.524   5.842   1.969  0.4029 -0.0189 -0.3304
 9900PP      PP20004   1.173   1.582  11.921 -0.1264 -0.2452  0.0556
 9901PP      PP20005   6.697  14.638   3.176  0.2128 -0.0278 -0.1352
 9902PP      PP20006  13.079  13.743   2.968 -0.3261  0.0274 -0.0336
 9903PP      PP20007  13.019   1.448  12.486 -0.4240 -0.2176  0.2727
 9904PP      PP20008   3.414   5.121   2.427  0.2731  0.3919 -0.3133
 9905PP      PP20009   0.443   5.968  10.897 -0.0492  0.1338  0.1460
 9906PP      PP20010   2.140  11.496   1.805 -0.1127  0.0611 -0.1522
 9907PP      PP20011  12.990   2.355   3.641 -0.3969 -0.3840 -0.2635
 9908PP      PP20012   3.919   3.735   0.215  0.2028 -0.0038  0.4380
 9909PP      PP20013   1.232   3.067   0.409  0.0542  0.0771  0.0567
 9910PP      PP20014   8.274  13.116  10.670  0.2805 -0.2810  0.2687
 9911PP      PP20015  10.465   4.449   3.098  0.1647 -0.0331 -0.0404
 9912PP      PP20016   5.533   4.920   3.594 -0.2792 -0.0208  0.0913
 9913PP      PP20017   4.913  11.793  12.775 -0.1052 -0.1079 -0.3374
 9914PP      PP20018   2.591  10.515   5.208 -0.1426  0.0074  0.2352
 9915PP      PP20019  12.334  13.740  13.444 -0.1612  0.2975 -0.1791
 9916PP      PP20020   2.710  13.336   2.860 -0.0478  0.5464  0.0536
 9917PP      PP20021   3.832  13.570   0.706  0.1727  0.0316  0.0108
 9918PP      PP20022  11.435   4.757   1.955 -0.0017 -0.3083 -0.1352
 9919PP      PP20023   8.009  10.071   1.959 -0.2900  0.1337  0.0371
 9920PP      PP20024  11.202   7.566  11.732 -0.0895 -0.0550 -0.0006
 9921PP      PP20025  15.370  13.035  13.044 -0.1034  0.2863  0.2076
 9922PP      PP20026   6.245   7.323   9.505 -0.1894 -0.1413  0.0737
 9923PP      PP20027  10.501   2.110  12.466 -0.0870 -0.0346 -0.1630
 9924PP      PP20028   6.556   7.914   0.964 -0.2261 -0.2390  0.0714
 9925PP      PP20029   0.945  10.249   4.505  0.1469 -0.0724 -0.0057
 9926PP      PP20030   1.743   7.945   0.087 -0.1996 -0.1554 -0.1660
 9927PP      PP20031   6.699   2.087   9.691 -0.1691  0.0894 -0.1407
 9928PP      PP20032  14.335   9.070   4.371  0.1586 -0.0262  0.0530
 9929PP      PP20033  15.311   7.770  11.586 -0.2962 -0.0566  0.7242
 9930PP      PP20034   1.730  12.262   4.528  0.1437  0.1047 -0.1354
 9931PP      PP20035  10.749   0.599   3.348  0.1054 -0.2298  0.4442
 9932PP      PP20036   8.781  13.399  12.597 -0.3381  0.2729  0.3974
 9933PP      PP20037   5.792   2.016  10.268  0.0711 -0.0352 -0.6397
 9934PP      PP20038   2.488   5.321   0.097 -0.0437  0.0119  0.0322
 9935PP      PP20039   6.834   9.259   2.248 -0.0327  0.1285 -0.1017
 9936PP      PP20040  13.902   9.488   0.023  0.4504  0.1009  0.0454
 9937PP      PP20041  13.806  13.545   1.115 -0.5057  0.0063  0.2946
 9938PP      PP20042  12.033   9.590   9.318  0.0361  0.3322  0.2514
 9939PP      PP20043   9.403  10.582   3.268  0.1078  0.0096  0.1664
 9940PP      PP20044  14.741  13.606   3.978  0.1504  0.1189 -0.1191
 9941PP      PP20045  12.460   7.467   2.815  0.0426 -0.0840  0.0170
 9942PP      PP20046  12.321  14.440   3.341 -0.1411 -0.1259 -0.1966
 9943PP      PP20047  15.008  14.692  11.207 -0.0867  0.1569  0.2224
 9944PP      PP20048  13.509   6.771  11.644  0.2031 -0.0639  0.2571
 9945PP      PP20049  14.467  11.398   1.647 -0.1208 -0.2638  0.1629
 9946PP      PP20050   9.605   5.026  12.264  0.2373 -0.0398 -0.4034
 9947PP      PP20051   6.684   4.292   1.403 -0.1517 -0.0207  0.1183
 9948PP      PP20052   8.630  13.931   0.474  0.0500 -0.0266  0.2797
 9949PP      PP20053  11.314   4.121   8.590 -0.0739 -0.3512  0.0176
 9950PP      PP20054   6.837   3.435   9.461 -0.0961 -0.1191  0.1859
 9951PP      PP20055   0.239   3.448   1.228  0.2070  0.2210 -0.1813
 9952PP      PP20056   8.040  15.592   0.601  0.1885 -0.1140 -0.0995
 9953PP      PP20057  14.436  14.793   2.391 -0.4121 -0.2155 -0.2021
 9954PP      PP20058  10.004   3.592   9.112  0.0786  0.1168 -0.1967
 9955PP      PP20059   0.356  14.835   0.306 -0.0933  0.0016  0.3605
 9956PP      PP20060   4.277   9.059   1.111 -0.3173 -0.1395 -0.1540
 9957PP      PP20061  12.940  14.414   2.046 -0.1175 -0.0615 -0.1447
 9958PP      PP20062   1.118  15.343   4.036 -0.1773 -0.0259  0.0168
 9959PP      PP20063   5.508   1.128  10.405 -0.2348  0.0504  0.0367
 9960PP      PP20064   7.375  13.471   5.026 -0.1131  0.0071  0.1853
 9961PP      PP20065  13.238   5.724   1.173 -0.0231  0.0019  0.1351
 9962PP      PP20066   1.383   2.224  13.547  0.1453  0.2911 -0.0226
 9963PP      PP20067   8.104   8.510  11.854  0.1636 -0.0418 -0.1422
 9964PP      PP20068   7.325  12.549  10.376  0.3556  0.1585  0.3548
 9965PP      PP20069   1.471  15.403   2.001 -0.0365 -0.1345 -0.0814
 9966PP      PP20070   8.850   8.147   4.529  0.2582 -0.0297  0.1743
 9967PP      PP20071  14.701   7.977   2.902 -0.0863  0.0739 -0.2637
 9968PP      PP20072  13.848  10.911   3.406  0.1411 -0.2483  0.0453
 9969PP      PP20073   6.354  13.441  13.107 -0.0539  0.1183 -0.0042
 9970PP      PP20074   1.505  13.969  11.165 -0.0850  0.0876  0.1866
 9971PP      PP20075  10.728  12.716  12.761 -0.0432  0.2087 -0.2527
 9972PP      PP20076   9.571   0.919  11.288 -0.0886  0.0718  0.0232
 9973PP      PP20077  15.234   3.618   0.944 -0.0018  0.1979  0.0519
 9974PP      PP20078   4.624   1.987  12.185 -0.0382  0.2264 -0.0449
 9975PP      PP20079  13.423  11.086   1.177  0.0947 -0.0777 -0.0122
 9976PP      PP20080   5.359   2.508   2.885  0.1557  0.1379 -0.2158
 9977PP      PP20081   0.820   7.955  10.401  0.0154 -0.0351  0.0198
 9978PP      PP20082   2.530   8.003   1.089 -0.0813 -0.3542 -0.1161
 9979PP      PP20083   0.005   0.113   9.556 -0.0896 -0.1025 -0.0054
 9980PP      PP20084  13.524   9.584   4.102 -0.2549 -0.1615  0.0707
 9981PP      PP20085   9.886   5.234   8.921  0.0035  0.0052 -0.1767
 9982PP      PP20086   3.934   6.435   4.252  0.1342 -0.0492  0.1199
 9983PP      PP20087   3.018   2.517   2.460 -0.1380  0.0936 -0.0459
 9984PP      PP20088   6.586   6.889  12.065 -0.1247  0.0870  0.2952
 9985PP      PP20089   9.677   4.719   1.495 -0.0328 -0.1544  0.2120
 9986PP      PP20090  10.889   8.134   2.193  0.0427  0.2617  0.0328
 9987PP      PP20091  13.347   1.475   3.673 -0.0548 -0.2084  0.1181
 9988PP      PP20092  15.154   3.759   1.667 -0.2359 -0.4368  0.0612
 9989PP      PP20093   5.926   3.031  10.375  0.0450  0.0618  0.0070
 9990PP      PP20094  15.529   5.573   9.961 -0.1323 -0.0964  0.0233
 9991PP      PP20095   9.967   7.062   0.785  0.0229  0.3182 -0.0492
 9992PP      PP20096   1.477   9.950  13.325  0.1562  0.2915 -0.0295
 9993PP      PP20097  12.357   6.941  10.672 -0.3640 -0.2339 -0.0045
 9994PP      PP20098  15.357   1.394  13.501  0.1092 -0.1280  0.0538
 9995PP      PP20099   0.586  11.800  13.620  0.0999  0.0682 -0.2382
 9996PP      PP20100   5.695  12.612   2.314  0.0494  0.1030  0.4489
 9997PP      PP20101   3.584   6.775   4.387 -0.4069  0.0371  0.0935
 9998PP      PP20102   1.400  12.850  13.274 -0.0528 -0.0322  0.2980
 9999PP      PP20103   7.797  11.413   3.831  0.1051  0.0800  0.0871
10000PP      PP20104   3.603  13.840   3.169  0.2473  0.1475  0.0490
10001PP      PP20105   0.425   7.027   8.284  0.0836 -0.1671 -0.1597
10002PP      PP20106   0.790  14.835   9.911  0.1755 -0.0205  0.0780
10003PP      PP20107   8.321   5.630   1.104 -0.0463  0.0241 -0.0394
10004PP      PP20108   1.098   1.656  13.388 -0.1062  0.0240  0.0989
10005PP      PP20109  12.034  10.236   2.602 -0.2277  0.0392  0.0461
10006PP      PP20110  14.618   0.098  10.534  0.2724 -0.0647  0.3159
10007PP      PP20111   4.639   5.067   1.786  0.0139  0.1892 -0.2860
10008PP      PP20112   8.146   9.004   1.925  0.1214 -0.0306  0.2318
10009PP      PP20113   8.832   2.949  10.629 -0.3315  0.3008  0.2587
10010PP      PP20114   6.524  12.517   0.139 -0.0312 -0.0735 -0.0523
10011PP      PP20115   2.544   0.231  13.691 -0.2047  0.0428  0.4927
10012PP      PP20116   1.941   0.506  12.247 -0.1743  0.2445  0.2449
10013PP      PP20117  12.638  10.397   2.261 -0.0570 -0.0206  0.1560
10014PP      PP20118   6.829   9.567  10.421  0.0406 -0.3312  0.1844
10015PP      PP20119   8.745  14.414   2.563  0.4639 -0.0112  0.1268
10016PP      PP20120   0.115   6.280   0.328  0.2001 -0.0638  0.0136
10017PP      PP20121   7.351   8.233   0.594 -0.0178  0.1082  0.1013
10018PP      PP20122  10.321   7.036   2.095  0.0630  0.0584 -0.1672
10019PP      PP20123   4.635   4.642  11.507 -0.0286 -0.3795 -0.0834
10020PP      PP20124  10.048  11.102   1.290  0.1628 -0.1884 -0.2542
10021PP      PP20125   4.446   5.718   9.504  0.2384  0.0778 -0.0095
10022PP      PP20126   5.505   8.078   2.551  0.5513  0.2246 -0.2843
10023PP      PP20127  12.451  10.134   0.666 -0.3554 -0.3554 -0.0151
10024PP      PP20128   1.484  10.520  10.561  0.2222  0.1064  0.1270
10025PP      PP20129   2.468   0.474   3.619  0.1185  0.0690 -0.2135
10026PP      PP20130   4.801   8.190   1.800  0.0405  0.1241  0.1861
10027PP      PP20131  14.135  11.937   2.049  0.4159  0.3022  0.1127
10028PP      PP20132  11.980   7.876   3.646 -0.2393 -0.0393 -0.1886
10029PP      PP20133   7.394   9.647   0.804  0.0031 -0.3080  0.0488
10030PP      PP20134   0.396   7.172  12.919  0.0595  0.0245 -0.0461
10031PP      PP20135   3.623  12.056  12.640 -0.2552  0.1265 -0.1351
10032PP      PP20136   5.196   3.661  11.181  0.0468  0.1202 -0.1311
10033PP      PP20137  13.458   5.008   1.279 -0.0905 -0.0952  0.1104
10034PP      PP20138   3.661  10.018   0.363  0.0809 -0.1479 -0.0519
10035PP      PP20139   4.883   0.442  12.193  0.2936  0.1226  0.0129
10036PP      PP20140   9.582  14.694   3.680 -0.0836  0.0713  0.0642
10037PP      PP20141  11.119  14.926  11.431 -0.2109  0.0606  0.2650
10038PP      PP20142  15.051   8.021  10.546 -0.1553  0.0893  0.0822
10039PP      PP20143  13.333  13.806  12.498  0.0954 -0.0781  0.0557
10040PP      PP20144   6.107   5.491  11.065 -0.1598 -0.1351 -0.1317
10041PP      PP20145   1.114  15.138  11.619 -0.1128 -0.2813  0.0296
10042PP      PP20146   4.330   7.470   9.407  0.0187  0.4145  0.0635
10043PP      PP20147   7.081  10.640   1.762  0.0048 -0.4723 -0.4466
10044PP      PP20148   2.977  14.022   1.081 -0.0801  0.4464 -0.3216
10045PP      PP20149  12.247  10.198   9.882 -0.3724  0.0027 -0.0897
10046PP      PP20150  12.215   0.535   3.710 -0.1491 -0.1764  0.1834
10047PP      PP20151   5.675   2.771   1.960 -0.1070 -0.0827 -0.0101
10048PP      PP20152   4.455   8.686   4.387  0.0322 -0.1336  0.0079
10049PP      PP20153   3.457   1.142  13.698 -0.0036 -0.1129 -0.2292
10050PP      PP20154  11.202  11.562  13.353  0.0690 -0.0068 -0.1294
10051PP      PP20155   7.796   9.638  10.343 -0.1646 -0.1549  0.1506
10052PP      PP20156   5.351   6.153   2.217 -0.2802  0.1642 -0.2607
10053PP      PP20157  11.712  15.676  10.148  0.0764 -0.0382 -0.1484
10054PP      PP20158  10.660   6.266   3.664  0.2162 -0.0723 -0.1670
10055PP      PP20159   3.015   3.852  12.503  0.1246 -0.2085 -0.0897
10056PP      PP20160   4.689  12.161   4.703  0.1572  0.1828 -0.3849
10057PP      PP20161  15.090   4.663  12.672  0.0213  0.0872  0.1466
10058PP      PP20162   7.844  15.725   4.105  0.3497  0.0965  0.1811
10059PP      PP20163   9.191   1.447  10.546 -0.1868 -0.2035 -0.0134
10060PP      PP20164   5.859  11.967   1.362 -0.0135 -0.2372  0.0844
10061PP      PP20165  12.620   9.981  11.556  0.0995 -0.2250  0.0749
10062PP      PP20166  10.625  11.170   0.498  0.1324 -0.1101  0.3227
10063PP      PP20167   9.341   7.201  10.951  0.1317 -0.0771 -0.0469
10064PP      PP20168  15.704  15.033  11.732 -0.1241  0.0177 -0.0162
10065PP      PP20169  13.374  13.142   2.998 -0.3700 -0.0648 -0.0926
10066PP      PP20170   8.991   9.154   9.716  0.0020 -0.1735  0.1133
10067PP      PP20171   9.514   4.419   9.875 -0.3477  0.1203 -0.0966
10068PP      PP20172   6.831   3.754   0.398 -0.0415  0.1065 -0.3118
10069PP      PP20173   2.293   5.217   3.643 -0.3082 -0.2147  0.2546
10070PP      PP20174  11.840   2.870   3.231 -0.1704 -0.1022  0.0366
10071PP      PP20175  11.319   4.242  11.719 -0.0767  0.0604 -0.3880
10072PP      PP20176  12.342   6.981   0.177 -0.1147 -0.0560  0.1612
10073PP      PP20177   2.762  13.145   5.069 -0.1818  0.0743 -0.0235
10074PP      PP20178   1.449  14.896   2.398  0.0282  0.1072 -0.4055
10075PP      PP20179   4.474  13.445   4.221  0.3149  0.3843 -0.0153
10076PP      PP20180   2.360   3.372   0.169  0.0480  0.2131 -0.2808
10077PP      PP20181  13.477   7.462  13.454 -0.2315 -0.0002  0.1139
10078PP      PP20182  12.052  14.540   1.731 -0.3197 -0.2087 -0.0719
10079PP      PP20183  10.436   4.351   1.512 -0.0218  0.1323 -0.2106
10080PP      PP20184  11.054   3.845  12.719 -0.1581  0.0381 -0.0575
10081PP      PP20185   1.546   3.743  10.719  0.0669 -0.0499  0.0661
10082PP      PP20186   1.240   1.954   0.149  0.1978 -0.0141 -0.0756
10083PP      PP20187   5.019   2.846  11.040  0.0720  0.0994 -0.0369
10084PP      PP20188   7.082   8.938  12.683 -0.2928  0.1692  0.3868
10085PP      PP20189  10.197   4.717  11.672  0.0512  0.1559 -0.0130
10086PP      PP20190  10.888  13.607  11.101  0.1597 -0.2443  0.0222
10087PP      PP20191  11.715  14.288   0.804 -0.3623  0.1614  0.0220
10088PP      PP20192  14.104  10.454  10.743 -0.0081  0.0176 -0.1165
10089PP      PP20193  13.705  11.176   9.384 -0.0428  0.0757 -0.2040
10090PP      PP20194   8.249   1.369   1.634  0.2341 -0.0727  0.0831
10091PP      PP20195  13.595  11.488   0.207  0.1370  0.3062 -0.3236
10092PP      PP20196  14.792   0.806   1.905  0.4107  0.0300 -0.0056
10093PP      PP20197   5.002   1.606  10.980  0.3630  0.3201 -0.1415
10094PP      PP20198  15.362   6.579  10.129 -0.0324 -0.1624 -0.0154
10095PP      PP20199   3.503   0.175  10.085 -0.0602  0.0166  0.0687
10096PP      PP20200   2.922   7.481   9.302 -0.0422 -0.2896  0.0992
10097PP      PP20201  10.955   8.557   1.903  0.0534  0.1799  0.0482
10098PP      PP20202  12.323   5.054   9.673  0.0113  0.0645 -0.1544
10099PP      PP20203   0.425   2.950  10.643  0.1653  0.1239 -0.0187
10100PP      PP20204   9.602   4.795  13.069  0.0767 -0.3280  0.0508
10101PP      PP20205  13.416   5.549  12.842  0.0992  0.2723  0.0862
10102PP      PP20206  10.616   4.799   2.576  0.0268  0.4100  0.0105
10103PP      PP20207   5.742   3.894   0.060  0.0610  0.1827  0.0791
10104PP      PP20208   9.158   5.694   2.872  0.3989  0.2766  0.0057
10105PP      PP20209   9.931  10.803  11.649 -0.3046 -0.2341  0.1085
10106PP      PP20210   5.250  12.117   5.532 -0.1388 -0.0752 -0.0365
10107PP      PP20211   5.139  14.749   3.541  0.2086  0.2179  0.0277
10108PP      PP20212  11.163   3.474   9.276 -0.5648 -0.0489 -0.0606
10109PP      PP20213  13.850   3.097   1.906 -0.2667 -0.0733 -0.0275
10110PP      PP20214   9.241   4.257  10.278 -0.2251  0.4609  0.1198
10111PP      PP20215  11.232   9.788   4.169  0.2741  0.0172  0.2246
10112PP      PP20216   8.431  11.009  10.210 -0.1248 -0.0001 -0.1478
10113PP      PP20217   3.623  14.681   1.291  0.0487  0.2655  0.3749
10114PP      PP20218  10.855   6.132   8.863 -0.1943 -0.1927  0.0214
10115PP      PP20219   9.002  11.356   3.534  0.0822  0.2966 -0.2303
10116PP      PP20220   3.463  10.856   4.706  0.4708 -0.1214  0.0603
10117PP      PP20221   2.493  14.728  10.948  0.3603  0.1190  0.0909
10118PP      PP20222   5.947   4.582   9.159 -0.0930  0.0269 -0.0426
10119PP      PP20223   4.242   1.460   4.724 -0.3031 -0.0478  0.0188
10120PP      PP20224   4.740  11.981   9.796 -0.1929 -0.1033 -0.0280
10121PP      PP20225  12.318   6.763  11.778 -0.0679  0.0192 -0.2796
10122PP      PP20226   9.301   0.953  12.345  0.0278 -0.1186 -0.0139
10123PP      PP20227  14.971  15.191   3.175  0.1929 -0.1578  0.3181
10124PP      PP20228   0.538  12.663   0.010 -0.4982 -0.1030  0.1209
10125PP      PP20229   6.626   9.303   1.812 -0.1045  0.2527 -0.0530
10126PP      PP20230   0.029   8.584   3.272 -0.2653  0.0064 -0.1861
10127PP      PP20231   0.198  14.596  11.795  0.7538  0.2930  0.2070
10128PP      PP20232   5.358   5.349   0.811  0.2508  0.0935  0.1663
10129PP      PP20233   6.128   6.273  10.891  0.1752  0.2256 -0.1939
10130PP      PP20234   5.259   2.661  13.666  0.2863 -0.2556 -0.0641
10131PP      PP20235   5.084  11.415   0.060  0.0919 -0.1603  0.2072
10132PP      PP20236  11.263  10.308  10.736 -0.0424 -0.0030  0.0709
10133PP      PP20237   0.390   9.840   3.679 -0.1982  0.0425  0.0043
10134PP      PP20238   2.278   1.222  11.416  0.1948  0.2061  0.2156
10135PP      PP20239  15.115   7.702   3.044  0.2782  0.3399 -0.0158
10136PP      PP20240  10.087   5.630  11.371  0.2229  0.1131  0.0207
10137PP      PP20241   6.900   6.953  11.176  0.0163 -0.0127 -0.0991
10138PP      PP20242   7.128   1.909   0.024 -0.0730  0.2063  0.2189
10139PP      PP20243  14.817  10.547  12.665 -0.2537  0.1281  0.0454
10140PP      PP20244  13.485  14.074  11.105 -0.1689  0.0620  0.1224
10141PP      PP20245   0.314   2.659  12.599  0.3006 -0.1541 -0.1677
10142PP      PP20246  13.887  14.667   0.613 -0.1203  0.0870  0.0116
10143PP      PP20247  11.821   8.859   3.580  0.2496 -0.3041  0.2660
10144PP      PP20248   1.423   2.334   1.058 -0.1109  0.1737 -0.2791
10145PP      PP20249   2.401   1.817   3.776 -0.0284 -0.2029  0.4038
10146PP      PP20250  15.379   4.193   9.160 -0.3049 -0.0604 -0.3706
10147PP      PP20251   0.782   8.112   3.019 -0.0422 -0.0070 -0.1382
10148PP      PP20252  10.029   4.457   9.567 -0.1015  0.1670  0.2577
10149PP      PP20253   7.602   9.463  13.779 -0.0275 -0.0328  0.1047
10150PP      PP20254  11.464   4.530   2.907  0.2258  0.2548 -0.0430
10151PP      PP20255   5.498  14.808   0.480  0.2132 -0.0796 -0.1621
10152PP      PP20256   3.805   2.288  13.330  0.0549  0.2236  0.0805
10153PP      PP20257  14.294  11.752  12.995  0.1249 -0.2392  0.2115
10154PP      PP20258   7.701  10.312   4.580  0.0730 -0.3207  0.1137
10155PP      PP20259   5.928  15.078   0.698 -0.0572 -0.0831 -0.1203
10156PP      PP20260   4.389  10.063   0.860 -0.2334  0.0812  0.3659
10157PP      PP20261   9.042   1.237   3.284  0.3568  0.0547 -0.0112
10158PP      PP20262   1.183   1.460   2.690 -0.1471  0.3278  0.0686
10159PP      PP20263   4.049   8.495   2.718  0.2066 -0.0616  0.3836
10160PP      PP20264   7.613   0.066  11.407  0.4565 -0.0373  0.2400
10161PP      PP20265  13.655  10.491  13.760 -0.0485 -0.0922 -0.3909
10162PP      PP20266  10.716  15.007  10.012  0.4300  0.2993  0.0200
10163PP      PP20267   2.998   1.749   3.891  0.0292  0.0158 -0.0639
10164PP      PP20268   2.392   0.197   4.882  0.2101  0.2718  0.4409
10165PP      PP20269   2.228   6.246  11.665 -0.1865 -0.0407 -0.2018
10166PP      PP20270   2.434   2.225  11.541  0.0662  0.1359  0.2766
10167PP      PP20271   7.017  10.293   2.123 -0.1904  0.4663  0.5094
10168PP      PP20272   7.064   7.349   1.464  0.1172 -0.0431  0.1707
10169PP      PP20273  14.786  14.255  13.770  0.2066 -0.0656  0.0467
10170PP      PP20274   1.007   9.411   8.718 -0.0950  0.0551  0.1443
10171PP      PP20275  10.852   0.727  11.826 -0.3824 -0.0747 -0.0370
10172PP      PP20276  10.119   0.785   9.444  0.0751 -0.1766 -0.1527
10173PP      PP20277   7.233   8.889   9.294 -0.0328 -0.0244  0.0395
10174PP      PP20278  11.538  14.511   2.805 -0.1509  0.1219  0.3086
10175PP      PP20279   3.487   4.603   0.030 -0.0139 -0.2322 -0.1521
10176PP      PP20280   2.987   9.243   3.538 -0.0238  0.2263 -0.1626
10177PP      PP20281  13.384   6.228   1.426 -0.0766  0.0304  0.0877
10178PP      PP20282   9.531   6.428   1.003  0.0707 -0.0025  0.1367
10179PP      PP20283   0.366   5.847  12.638 -0.3052 -0.0344 -0.0847
10180PP      PP20284  11.419   6.338   2.807  0.3896  0.3142 -0.1869
10181PP      PP20285   3.641  12.872  10.011  0.0191  0.2892 -0.0433
10182PP      PP20286  14.118   1.474   9.651 -0.1334 -0.0606 -0.1455
10183PP      PP20287   4.249   8.771  11.245  0.1694 -0.1223  0.0370
10184PP      PP20288   2.742   5.797   1.248  0.1581 -0.1901 -0.2008
10185PP      PP20289   7.099  10.376  12.288  0.0310  0.3687  0.2620
10186PP      PP20290   5.918  12.247   4.140  0.1693 -0.1698 -0.0998
10187PP      PP20291   3.495  14.937   1.679  0.4926 -0.0876  0.1132
10188PP      PP20292   2.728  14.563   1.063  0.0799 -0.0936 -0.2329
10189PP      PP20293   0.771   2.756  13.192 -0.1834 -0.1479 -0.0326
10190PP      PP20294   8.855   2.372  13.772  0.3181 -0.1707  0.0932
10191PP      PP20295  13.844   3.132   8.290 -0.0060  0.0941 -0.0643
10192PP      PP20296  13.789   4.462   8.631 -0.2428 -0.3364  0.0658
10193PP      PP20297   4.354  13.787   2.293  0.3559  0.1065 -0.1418
10194PP      PP20298   8.098   2.038  12.206  0.0486  0.0430 -0.1454
10195PP      PP20299   8.775  14.057   3.464  0.1126 -0.1353 -0.2432
10196PP      PP20300  12.986  11.655   9.583  0.1335  0.0855  0.0121
10197PP      PP20301   7.741   2.430  13.351  0.1540  0.1243  0.2097
10198PP      PP20302  15.424   2.438   2.910  0.2822 -0.2298 -0.0675
10199PP      PP20303   7.631   8.894   9.731 -0.1668  0.0265 -0.2412
10200PP      PP20304  13.394   9.693   0.663 -0.1777 -0.1026  0.1734
10201PP      PP20305   8.958  10.977   2.388  0.2467 -0.0901 -0.0767
10202PP      PP20306   3.838   6.291   3.605  0.1624  0.1719 -0.0582
10203PP      PP20307  14.131   5.214   0.684 -0.0393 -0.1708 -0.2221
10204PP      PP20308   1.876  13.106  11.950  0.0877 -0.0400 -0.0948
10205PP      PP20309   7.708  15.434   3.670  0.0833 -0.3514  0.0200
10206PP      PP20310   3.340   7.507  13.660  0.1824 -0.2589 -0.2187
10207PP      PP20311  15.393  13.094   0.685 -0.0159 -0.3922 -0.1677
10208PP      PP20312  13.205  10.611  10.692  0.0220  0.0745  0.2505
10209PP      PP20313   0.922   0.190   3.404  0.0923 -0.2816  0.1102
10210PP      PP20314  14.012  12.240   0.996  0.0990  0.1184  0.0817
10211PP      PP20315   2.676   3.769   0.039  0.0396  0.1501 -0.1446
10212PP      PP20316   4.898   2.684   1.013  0.3072  0.0474  0.1602
10213PP      PP20317  13.428   3.187   1.723  0.1103 -0.2578 -0.0677
10214PP      PP20318   3.339  12.787   9.561  0.2908 -0.2355  0.1294
10215PP      PP20319   5.169   5.653  12.789  0.1670  0.0551 -0.1421
10216PP      PP20320   3.852   1.341   1.549  0.0715 -0.2408  0.1714
10217PP      PP20321   2.002  12.547   0.357  0.0994 -0.0146  0.2228
10218PP      PP20322  12.347  11.218  11.023  0.1017 -0.1382  0.1542
10219PP      PP20323   3.516   7.385   0.512  0.0693 -0.0931 -0.0424
10220PP      PP20324  14.293  12.643   3.313 -0.0032 -0.0916 -0.0674
10221PP      PP20325   9.895  15.659  12.356 -0.2585 -0.1161 -0.1776
10222PP      PP20326   1.697   3.364   0.249  0.0164  0.1432 -0.0230
10223PP      PP20327  15.650  13.477  11.121 -0.0187  0.1706 -0.1936
10224PP      PP20328   4.539  11.421  13.443 -0.2159  0.1056 -0.3870
10225PP      PP20329   3.658   1.493  10.076  0.0451 -0.2112  0.0139
10226PP      PP20330   8.162   5.182   3.556 -0.2022  0.0530  0.0667
10227PP      PP20331   6.516   9.742   4.764 -0.2866  0.2804 -0.1237
10228PP      PP20332   3.355   2.341  11.190  0.1055  0.2556  0.2711
10229PP      PP20333   1.026   9.786  13.483 -0.2287  0.1846 -0.1063
10230PP      PP20334  12.481   9.924  13.419 -0.0599  0.0109 -0.1135
10231PP      PP20335  13.676   5.289   0.241 -0.0504  0.0092 -0.3454
10232PP      PP20336   0.224  10.663  13.524 -0.0208 -0.0701 -0.1813
10233PP      PP20337   2.014   7.615   9.028  0.0687 -0.2527  0.0327
10234PP      PP20338   0.342   8.972   3.431 -0.0783  0.1013 -0.1605
10235PP      PP20339  14.887   3.645   8.653 -0.1790  0.2245 -0.2037
10236PP      PP20340  14.438  14.266   2.485 -0.1679  0.2415 -0.0327
10237PP      PP20341   8.452  10.771  10.698  0.2981  0.2922  0.1801
10238PP      PP20342  14.374   3.263   1.106 -0.0214 -0.0875  0.2403
10239PP      PP20343  12.246   3.337   2.295 -0.0594  0.2829 -0.1260
10240PP      PP20344   4.942   7.535   4.660  0.1757  0.2679  0.2699
10241PP      PP20345   8.829   2.334  12.362  0.2581  0.2335 -0.0039
10242PP      PP20346  11.729   4.090   2.579  0.3926 -0.2016 -0.0395
10243PP      PP20347  15.184   2.804   9.262  0.2798 -0.3124 -0.2950
10244PP      PP20348  14.406   2.382   9.238  0.3902  0.0903  0.0231
10245PP      PP20349  14.652   8.797   3.639 -0.0382  0.2260  0.1337
10246PP      PP20350   0.250   2.899  13.164 -0.1183 -0.2418  0.0217
10247PP      PP20351  14.704  10.591  13.623 -0.1523 -0.1177 -0.0653
10248PP      PP20352   3.702   6.187  11.723 -0.3192 -0.1424  0.0093
10249PP      PP20353   9.995   1.785   1.728  0.0801 -0.1225 -0.3275
10250PP      PP20354  15.326   7.902   4.108 -0.0969  0.1014 -0.3158
10251PP      PP20355   2.957   1.117   0.406 -0.2268  0.4493 -0.0096
10252PP      PP20356   6.613  15.683   0.550 -0.0090  0.0531  0.2445
10253PP      PP20357   8.853   2.278   3.922  0.0881 -0.0626  0.2222
10254PP      PP20358  11.706   1.592   3.628 -0.0945 -0.0588 -0.1530
10255PP      PP20359  13.434   2.815  12.027 -0.3070 -0.0906 -0.1647
10256PP      PP20360  13.027  13.014   0.019 -0.0393  0.0160 -0.0854
10257PP      PP20361  13.032   8.914  10.379  0.2528  0.0012 -0.0189
10258PP      PP20362   6.567   8.052   2.589  0.0759  0.0636  0.1531
10259PP      PP20363   1.336  13.897   0.248  0.0246 -0.1401  0.0373
10260PP      PP20364  10.371  13.088  10.662 -0.2107  0.1467 -0.1411
10261PP      PP20365  14.222   8.045   3.143 -0.1679 -0.0408  0.4017
10262PP      PP20366   3.686   5.846  11.332  0.0910  0.1532 -0.0310
10263PP      PP20367   3.504  13.028  12.342  0.0594  0.1132 -0.1844
10264PP      PP20368  11.809   6.652  11.585  0.1586 -0.1277  0.1101
10265PP      PP20369   6.934   7.174   0.423 -0.3260 -0.2252 -0.1263
10266PP      PP20370   0.819   4.609  11.005 -0.1640 -0.2751  0.1235
10267PP      PP20371  12.233  15.025  10.001  0.1272  0.2952 -0.2075
10268PP      PP20372   2.657  13.063   3.569 -0.5006  0.0498 -0.1360
10269PP      PP20373  11.055  10.720  11.479 -0.1158 -0.1232  0.0070
10270PP      PP20374   0.761   7.082   1.174  0.2336 -0.1665  0.0162
10271PP      PP20375   9.426  10.223   9.981 -0.0318 -0.0484  0.0812
10272PP      PP20376   5.768  11.613  12.540 -0.0725 -0.3955 -0.0422
10273PP      PP20377   0.003  11.564  12.505 -0.1782  0.0048  0.2986
10274PP      PP20378  11.568   8.367   9.101 -0.0341 -0.3172  0.0114
10275PP      PP20379   7.266   6.446   3.770 -0.0798  0.0905  0.1362
10276PP      PP20380   0.430   1.367  12.713 -0.1136 -0.1528  0.0028
10277PP      PP20381   7.059   4.120   3.960  0.0138 -0.0764 -0.2484
10278PP      PP20382  12.886   2.986   8.767 -0.2511 -0.0528  0.0239
10279PP      PP20383   2.173   7.703  12.649 -0.1338  0.1447  0.0651
10280PP      PP20384   3.885  14.562   2.492 -0.2707 -0.2410 -0.1531
10281PP      PP20385   9.833  14.118   1.991 -0.1347 -0.0744 -0.1510
10282PP      PP20386   7.674   1.507  12.889 -0.0882  0.0464  0.1345
10283PP      PP20387  10.900  14.238  12.845 -0.0067 -0.3097 -0.3335
10284PP      PP20388  12.890   3.882  11.148  0.0258  0.3274 -0.1013
10285PP      PP20389  13.651   8.397  10.657  0.1220  0.3274 -0.1824
10286PP      PP20390   1.453   4.263  10.343 -0.1646  0.1676  0.1721
10287PP      PP20391   9.079  11.494   0.713  0.0897  0.1242  0.1137
10288PP      PP20392  12.851   7.640   0.592 -0.0351  0.1645  0.3232
10289PP      PP20393   6.162  13.754   2.506 -0.0049  0.0888  0.3614
10290PP      PP20394  15.286   0.625  11.185 -0.0948 -0.1621 -0.2902
10291PP      PP20395   9.309   2.208  11.315  0.0359  0.3240  0.0233
10292PP      PP20396   7.394  13.219   4.538 -0.0400 -0.1165 -0.0647
10293PP      PP20397   1.671   7.654   1.011 -0.0481 -0.0565 -0.0208
10294PP      PP20398  12.667   0.218  12.361  0.0356  0.3094 -0.1650
10295PP      PP20399   7.902   1.630   8.075  0.0533 -0.2237  0.0182
10296PP      PP20400  13.262   6.693  10.225  0.1135 -0.0304  0.1870
10297PP      PP20401  14.095   4.325   9.154  0.0116 -0.2351 -0.0236
10298PP      PP20402   6.624   9.789  12.673 -0.2321 -0.0358  0.0167
10299PP      PP20403  10.625   7.075  12.686 -0.1362  0.0534  0.0192
10300PP      PP20404   0.133   5.411   2.299 -0.0059  0.0173  0.1132
10301PP      PP20405   7.660  12.250   3.440 -0.2333  0.2185 -0.2336
10302PP      PP20406   5.282   5.858  11.039  0.0663 -0.1454  0.0252
10303PP      PP20407   8.341  13.932  13.699 -0.1330  0.5454 -0.1045
10304PP      PP20408   7.402   0.118   2.720  0.2247  0.0975  0.1496
10305PP      PP20409  14.507   0.865   1.499  0.1660  0.3020 -0.0951
10306PP      PP20410   2.978   6.695  13.231 -0.2540 -0.3766 -0.1575
10307PP      PP20411   2.337   7.799   1.558 -0.1531  0.3260  0.0355
10308PP      PP20412   7.640   9.921  10.748  0.0468  0.6327 -0.0348
10309PP      PP20413  10.929   5.984  12.764 -0.3313 -0.2139 -0.1157
10310PP      PP20414   2.984  13.699   9.805 -0.0325 -0.4705  0.0435
10311PP      PP20415   3.234  14.477   0.940 -0.1754 -0.0852  0.1059
10312PP      PP20416   7.133  15.469   1.024 -0.0201 -0.2664  0.2513
10313PP      PP20417  12.989  10.750  11.499  0.1031  0.0724  0.0548
10314PP      PP20418   1.597   1.186   2.716  0.1902  0.0969  0.1382
10315PP      PP20419  12.728  14.138   3.833 -0.3011 -0.1037  0.0568
10316PP      PP20420  14.998   0.440  12.080 -0.3379  0.2504  0.0579
10317PP      PP20421  15.262   8.451   3.540 -0.0758  0.0031 -0.1290
10318PP      PP20422   1.017  15.496  10.425  0.0345 -0.0806  0.0865
10319PP      PP20423   4.013  12.769   3.860  0.0934  0.0569 -0.1494
10320PP      PP20424  15.490   6.791   0.530  0.1872  0.1474  0.1039
10321PP      PP20425  14.912   2.342   4.333 -0.0362  0.2049  0.0060
10322PP      PP20426  12.744   1.025   0.595 -0.0255 -0.0305  0.0770
10323PP      PP20427  15.302   8.059   1.675  0.0456  0.1618 -0.0008
10324PP      PP20428   8.225  14.726   1.127  0.1479  0.1168  0.1001
10325PP      PP20429   3.869  12.831  11.998  0.0080 -0.1548 -0.0081
10326PP      PP20430  13.714  10.354   9.915  0.1560  0.1717  0.0499
10327PP      PP20431  13.641  10.219   8.944  0.2170  0.1922  0.0550
10328PP      PP20432   9.181   3.125  12.532 -0.0192 -0.1717 -0.1616
10329PP      PP20433   8.427   6.452   8.759 -0.2660  0.1831  0.2242
10330PP      PP20434  14.258   0.519  13.021  0.2657 -0.0421  0.1339
10331PP      PP20435   2.954   1.973   0.143 -0.1455  0.0955 -0.4160
10332PP      PP20436   6.051   4.981  11.858  0.0994 -0.0696 -0.1486
10333PP      PP20437   6.606   3.794   4.138 -0.0098 -0.0622  0.2141
10334PP      PP20438   3.703   0.478   9.797 -0.0920  0.1675 -0.0967
10335PP      PP20439  13.114  11.512  12.277  0.2449  0.1943 -0.1067
10336PP      PP20440  12.542   2.661  11.441 -0.1239 -0.0755 -0.1531
10337PP      PP20441   4.068  12.883  10.731 -0.0857 -0.3609 -0.0870
10338PP      PP20442  10.168   1.915  10.527 -0.0218 -0.0736 -0.3266
10339PP      PP20443   8.819   3.681   1.950  0.0289 -0.3594  0.1303
10340PP      PP20444  10.237  12.357   2.190  0.0125 -0.1011 -0.2303
10341PP      PP20445   0.780   8.363  11.626 -0.0065  0.1738 -0.0583
10342PP      PP20446   4.452   6.022   1.179 -0.1920  0.1831  0.2239
10343PP      PP20447  13.884   8.625  10.984 -0.1945  0.0568  0.2165
10344PP      PP20448  10.193  14.500   1.249 -0.0203 -0.2907 -0.1936
10345PP      PP20449  10.392  11.090   9.816 -0.2398  0.0580 -0.0188
10346PP      PP20450   6.990   1.945  11.951  0.1516 -0.4960  0.0631
10347PP      PP20451   1.525  11.677  12.379 -0.0874 -0.2079  0.1114
10348PP      PP20452   4.189   9.812   1.923  0.0876  0.2576  0.0189
10349PP      PP20453   8.635   7.372   0.338 -0.1989 -0.1276  0.0330
10350PP      PP20454   5.092   7.206   3.895  0.0839  0.0592  0.1565
10351PP      PP20455  11.757  15.166  10.235  0.0695  0.0921 -0.0117
10352PP      PP20456   1.901   4.416  11.857 -0.1810  0.2248 -0.2195
10353PP      PP20457   2.026   5.190   9.606  0.0367 -0.2468 -0.3499
10354PP      PP20458  11.749   9.533  13.447 -0.0436  0.1685 -0.1114
10355PP      PP20459  11.178   6.501   2.372 -0.0768  0.1864 -0.0753
10356PP      PP20460   6.958   4.038   1.819 -0.0047  0.1758  0.0249
10357PP      PP20461   6.197  14.975   2.136  0.1033  0.2660 -0.0080
10358PP      PP20462   1.807   2.952   2.440  0.1069 -0.2486  0.3390
10359PP      PP20463   3.760   5.180   2.104 -0.3327  0.0294 -0.2171
10360PP      PP20464  10.671   3.557   2.010  0.0889 -0.1470 -0.2059
10361PP      PP20465  12.607   7.124  13.517  0.3041  0.0782 -0.0503
10362PP      PP20466   1.387  10.552   3.699 -0.1126 -0.1782  0.0983
10363PP      PP20467  13.807  13.295   1.734 -0.2114  0.2222  0.0171
10364PP      PP20468  11.628   5.407   9.251  0.1172  0.0181  0.1054
10365PP      PP20469   5.734   1.568  10.561 -0.2737  0.3942  0.1672
10366PP      PP20470  10.382   2.814   8.837  0.0081 -0.1416 -0.2612
10367PP      PP20471   1.414   8.115   3.571  0.0100 -0.0198  0.1073
10368PP      PP20472   4.175   6.455  10.915 -0.1496  0.0085  0.0036
10369PP      PP20473   7.534   1.754  11.798  0.1122 -0.0902 -0.2500
10370PP      PP20474   7.509  10.048  12.466  0.1802 -0.1047  0.0287
10371PP      PP20475   6.975   2.521  12.531  0.0724  0.0989 -0.1091
10372PP      PP20476   8.050  13.483   1.935  0.0196  0.1546  0.3262
10373PP      PP20477  14.709   6.316  11.894 -0.1662  0.1374  0.1218
10374PP      PP20478   2.435   7.835   3.513 -0.2009 -0.1726 -0.1796
10375PP      PP20479   5.148  13.985  10.538  0.0210  0.1822  0.0815
10376PP      PP20480   9.514  12.175   9.848 -0.0092  0.1514 -0.0227
10377PP      PP20481   9.594  14.897   1.787 -0.0818 -0.1923 -0.1228
10378PP      PP20482   9.206  13.418   4.421 -0.1716  0.0711  0.2324
10379PP      PP20483  15.587   2.855   1.135  0.0855  0.0158 -0.2213
10380PP      PP20484  10.583  14.281  10.162 -0.0943 -0.0226 -0.0527
10381PP      PP20485  10.100  10.345   0.891 -0.0028  0.0420  0.0552
10382PP      PP20486   2.587   7.143   0.264  0.1428  0.1344  0.2339
10383PP      PP20487  14.263   3.333   2.936  0.0245  0.0304 -0.3181
10384PP      PP20488   4.025  12.892  12.505 -0.2171 -0.2118 -0.3904
10385PP      PP20489   0.759   7.272   0.294  0.1616  0.0656  0.1665
10386PP      PP20490   8.396  14.465   9.175 -0.0837 -0.1164 -0.0601
10387PP      PP20491  12.720  15.006  11.788 -0.4224  0.1481 -0.1595
10388PP      PP20492   4.597  15.707  12.024 -0.1000  0.0534  0.2454
10389PP      PP20493   6.672   2.634   1.059 -0.0691 -0.0935 -0.0541
10390PP      PP20494   2.176   1.402  11.894  0.3068  0.0605 -0.2652
10391PP      PP20495   6.716   9.912   1.877 -0.0387 -0.0777 -0.1128
10392PP      PP20496   1.633  15.097   0.177  0.2658 -0.0019  0.0444
10393PP      PP20497  15.702  11.908   3.790  0.0213  0.2154  0.2867
10394PP      PP20498  11.805   4.594   9.759  0.1172  0.4064  0.2195
10395PP      PP20499  14.350   7.005   9.844 -0.1247  0.3675 -0.0150
10396PP      PP20500   4.281   1.360   1.328 -0.1302 -0.1173 -0.3035
10397PP      PP20501   3.728  14.897   3.325  0.3631 -0.2971  0.2964
10398PP      PP20502   8.276   8.941   0.286 -0.3072  0.3487 -0.1212
10399PP      PP20503   0.005   3.330   2.351 -0.1203 -0.0600  0.0614
10400PP      PP20504   7.694   5.784  10.935  0.0217 -0.0405  0.0939
10401PP      PP20505   4.041  11.346   3.331 -0.1880 -0.2760  0.3002
10402PP      PP20506   8.075   2.996  12.560  0.0621  0.3502 -0.2130
10403PP      PP20507  11.563   0.831  13.582  0.2157  0.0431 -0.0280
10404PP      PP20508   0.535   8.401  12.438 -0.0382  0.3728 -0.0817
10405PP      PP20509  13.298   7.355   2.342  0.0078 -0.4398 -0.0987
10406PP      PP20510   7.322  10.880   0.172 -0.0526 -0.2789 -0.1327
10407PP      PP20511  15.230   9.787  11.599 -0.1421  0.0893 -0.0172
10408PP      PP20512   1.895  14.343  10.398  0.3438  0.0228 -0.0057
10409PP      PP20513   7.482   5.571   8.553  0.3843  0.2980 -0.0752
10410PP      PP20514  13.061  14.005   4.633 -0.0216  0.2419 -0.0475
10411PP      PP20515   5.502  11.251  12.257 -0.3414  0.3800  0.2039
10412PP      PP20516  13.548  10.267   0.581 -0.2456 -0.1869 -0.1491
10413PP      PP20517   6.570  11.354  10.269 -0.0755 -0.1707 -0.0012
10414PP      PP20518   2.037  12.357   1.842 -0.1101 -0.1607 -0.2383
10415PP      PP20519  11.120   4.556  10.451 -0.3960  0.1527 -0.0626
10416PP      PP20520  13.746  14.747  12.540 -0.1268 -0.0285 -0.0564
10417PP      PP20521   5.007  15.161   4.012 -0.1037 -0.1551  0.2226
10418PP      PP20522   6.195  11.159   4.929 -0.0398  0.1247 -0.3081
10419PP      PP20523   6.818  15.135   0.813  0.0855  0.1844 -0.0699
10420PP      PP20524  12.406   9.714   3.278  0.1486 -0.1304 -0.0097
10421PP      PP20525  14.593   1.531   2.442 -0.0503 -0.0580  0.0703
10422PP      PP20526  15.368  13.697   2.016 -0.1414  0.1254  0.1254
10423PP      PP20527   3.401  10.058   5.071  0.2605 -0.1844 -0.3236
10424PP      PP20528  11.910   5.135   0.170 -0.0563 -0.1051 -0.2481
10425PP      PP20529   4.657  14.221  13.366  0.0359  0.1001  0.3605
10426PP      PP20530  12.663   5.663  13.303 -0.1072  0.0904  0.1182
10427PP      PP20531   7.487   3.709   0.056  0.1744 -0.3432 -0.0958
10428PP      PP20532  11.952   0.940   3.825 -0.1782  0.1255  0.1076
10429PP      PP20533  11.393   1.994  10.707  0.1473  0.1857  0.1156
10430PP      PP20534   0.344   3.754  13.525  0.0118  0.0606  0.0210
10431PP      PP20535   7.293  13.961   4.103  0.2180  0.0315 -0.1881
10432PP      PP20536  13.377   4.253   1.577 -0.1568 -0.1961  0.0788
10433PP      PP20537  14.184   4.384   3.306 -0.0361  0.1472 -0.0233
10434PP      PP20538   1.240  13.324  11.976  0.0645 -0.2053  0.1499
10435PP      PP20539   7.015   3.279  13.277  0.0567 -0.1050 -0.2445
10436PP      PP20540  13.615   0.823   2.961  0.0243  0.0301 -0.1525
10437PP      PP20541  11.580   2.210   2.697  0.1244  0.0004  0.1815
10438PP      PP20542   2.426   7.005   1.180  0.0793  0.0372  0.0437
10439PP      PP20543  10.051   4.654   4.071  0.2157 -0.1015  0.1332
10440PP      PP20544   1.721   8.423   3.862  0.0014 -0.1747  0.3306
10441PP      PP20545   0.951   6.385   1.887  0.1557 -0.4282  0.0229
10442PP      PP20546   9.079   7.608   0.440 -0.2169 -0.2590  0.3199
10443PP      PP20547   4.668  11.566   2.490  0.1935  0.1066  0.0841
10444PP      PP20548   1.460   9.656   3.416 -0.0780  0.0598 -0.1433
10445PP      PP20549  11.792  10.800   1.231  0.2068 -0.0438 -0.0088
10446PP      PP20550   0.309   0.917   2.950  0.0044  0.0731 -0.0682
10447PP      PP20551   5.300  11.401  10.066 -0.2113  0.1472 -0.1797
10448PP      PP20552  14.669   4.199   9.873 -0.0128 -0.0846 -0.2077
10449PP      PP20553  13.568  11.169  12.999 -0.0337 -0.0215 -0.3071
10450PP      PP20554  13.918  14.804   3.501  0.0154 -0.1629 -0.1945
10451PP      PP20555   1.377   2.904  10.055 -0.3409  0.0085  0.1678
10452PP      PP20556   9.382  15.688   2.584 -0.0876  0.0219 -0.2855
10453PP      PP20557   7.928  11.749  10.295 -0.0798  0.2541  0.0034
10454PP      PP20558   4.470  14.667   0.246 -0.0975  0.1632 -0.1498
10455PP      PP20559   1.566   3.319   2.790  0.1367 -0.0896 -0.2605
10456PP      PP20560   1.638   1.633   3.683  0.1222  0.1276 -0.0051
10457PP      PP20561  15.512  11.988  13.687 -0.2764 -0.0664  0.1365
10458PP      PP20562   3.361  10.779  12.365  0.0233  0.2103 -0.0461
10459PP      PP20563   3.762  11.196   4.460 -0.0809 -0.2275 -0.0960
10460PP      PP20564  14.105  14.485   9.245  0.1966  0.0727  0.0815
10461PP      PP20565   8.921  11.015   2.899 -0.1314  0.3034 -0.2368
10462PP      PP20566  13.841   9.145  13.101 -0.1570 -0.2144  0.0629
10463PP      PP20567   1.900   4.939  13.508  0.2720 -0.1667 -0.2422
10464PP      PP20568  15.587  15.332  13.761 -0.0845 -0.0902 -0.0314
10465PP      PP20569  11.042  12.113   0.906 -0.0532 -0.0886 -0.0031
10466PP      PP20570  11.556   9.167   0.954  0.1037  0.0247  0.0246
10467PP      PP20571   7.118   0.894  13.250  0.0373  0.2257 -0.0622
10468PP      PP20572   1.513   8.965   2.402 -0.3224 -0.1917  0.1200
10469PP      PP20573  10.978   1.241   4.701 -0.1996  0.2761 -0.3107
10470PP      PP20574  13.722   6.840   8.819 -0.0303 -0.1105 -0.3076
10471PP      PP20575  11.552  12.823  12.225 -0.1445 -0.0883 -0.0376
10472PP      PP20576   3.035   6.552   1.461  0.0628  0.2171  0.0862
10473PP      PP20577   7.454   1.619  10.188 -0.2217 -0.1825  0.2225
10474PP      PP20578  10.837  12.041   9.595  0.1217  0.3124  0.0062
10475PP      PP20579   8.221  14.892   0.179  0.2173 -0.0887  0.0238
10476PP      PP20580  11.297   7.107  11.560  0.1119 -0.0820  0.1270
10477PP      PP20581   7.859   7.649  10.771 -0.1477  0.0596 -0.2150
10478PP      PP20582  14.153  11.455   9.504 -0.0169  0.0241 -0.0611
10479PP      PP20583   0.446  13.055   3.970 -0.1049 -0.2546 -0.2427
10480PP      PP20584   1.860   3.892  13.509 -0.0236  0.1332 -0.0283
10481PP      PP20585  13.549   9.392   9.027  0.1319  0.1393 -0.0638
10482PP      PP20586   9.518   4.044  11.766 -0.3629  0.0882  0.2233
10483PP      PP20587  12.924  11.815   1.312  0.2049 -0.0750  0.1507
10484PP      PP20588  11.317  12.873   0.438  0.0763  0.1169  0.1350
10485PP      PP20589   2.818   5.336   8.999  0.0415  0.1193 -0.0738
10486PP      PP20590   3.898  10.536   1.689 -0.0395 -0.0209  0.2732
10487PP      PP20591   0.404   1.254   9.493 -0.0404  0.0360 -0.0838
10488PP      PP20592   5.318   4.557   1.623  0.2053  0.1372 -0.0470
10489PP      PP20593   4.647  14.263   1.461 -0.0549 -0.2812  0.0876
10490PP      PP20594   5.964   2.212   0.187  0.2796  0.1388 -0.0678
10491PP      PP20595   5.792   4.848   4.076  0.1650 -0.2589 -0.2383
10492PP      PP20596   9.352   7.188   2.311 -0.0758 -0.3271  0.0823
10493PP      PP20597   1.627   2.151  11.392 -0.2602  0.2353 -0.1457
10494PP      PP20598   9.727  11.985   2.946  0.2702  0.1101 -0.0282
10495PP      PP20599   8.996  13.918   3.950  0.1743  0.0298  0.4414
10496PP      PP20600   3.808  11.027   5.183  0.2762 -0.0558 -0.0444
10497PP      PP20601   2.208   6.556   0.926 -0.2164 -0.0410 -0.0549
10498PP      PP20602   1.030   1.972  12.819  0.2785 -0.0070  0.3123
10499PP      PP20603  14.208   5.901   3.309 -0.1226 -0.1026 -0.2986
10500PP      PP20604  11.409   3.049   3.509  0.0648  0.0034 -0.0867
10501PP      PP20605   8.473   0.119   8.597  0.2803 -0.0625  0.1845
10502PP      PP20606  10.057  13.921  11.589 -0.2958 -0.3240  0.0248
10503PP      PP20607   6.831   4.649   9.727 -0.1621 -0.1080  0.0534
10504PP      PP20608  11.848   0.447  13.374  0.0123 -0.2106 -0.2161
10505PP      PP20609   6.864   0.796  10.497  0.1202  0.0657 -0.3755
10506PP      PP20610  14.876   8.854   4.130  0.0887 -0.2214 -0.1608
10507PP      PP20611  15.375  13.023   4.541  0.3050  0.1795  0.0940
10508PP      PP20612  15.702   1.778   1.179  0.1475  0.1286 -0.0780
10509PP      PP20613   5.753  13.702   9.714 -0.2655  0.1245 -0.0026
10510PP      PP20614  12.702   2.740  12.859  0.1926  0.2249 -0.1892
10511PP      PP20615  15.256   5.910   0.008 -0.1977 -0.0960  0.1731
10512PP      PP20616  11.692   2.299  10.066  0.3781 -0.0194  0.0943
10513PP      PP20617   9.607   8.164   2.882  0.4304 -0.1847  0.0569
10514PP      PP20618   0.283   6.670  12.959  0.1724  0.1752 -0.0370
10515PP      PP20619   5.756   2.281  12.180 -0.0905 -0.0719  0.2924
10516PP      PP20620   7.360   1.380   1.530 -0.5248 -0.2079  0.0190
10517PP      PP20621  13.952  14.301  10.981  0.4624  0.1019 -0.0494
10518PP      PP20622   7.177   1.781  12.507 -0.0017 -0.0481  0.1231
10519PP      PP20623   5.123   0.013  11.189 -0.0039  0.0930  0.1150
10520PP      PP20624  15.112   9.512  10.236 -0.2146  0.0927  0.3553
10521PP      PP20625   0.263  13.379   1.401  0.1899 -0.0867 -0.0440
10522PP      PP20626   4.744   2.668   2.099 -0.2368  0.1901 -0.0794
10523PP      PP20627   3.787  15.026   2.785 -0.1272 -0.0154  0.0322
10524PP      PP20628  14.357  10.084   3.354 -0.0579 -0.1877  0.1291
10525PP      PP20629   0.779   7.696  13.734  0.1041 -0.2640 -0.0955
10526PP      PP20630  13.939   5.692  13.694 -0.0558  0.2310  0.0967
10527PP      PP20631   0.612   3.192   3.473 -0.2298  0.1984 -0.0920
10528PP      PP20632   3.337   5.926  13.680 -0.0478  0.1259  0.2517
10529PP      PP20633  12.734  10.919   4.084 -0.4663 -0.2959 -0.0241
10530PP      PP20634   7.980   5.567   8.679  0.3699  0.0925 -0.0274
10531PP      PP20635   8.920   7.012   1.152  0.1367 -0.0049 -0.1145
10532PP      PP20636  10.992  10.786  13.405 -0.0171  0.0460  0.1071
10533PP      PP20637  15.284   4.218  13.113 -0.0215  0.0546  0.1122
10534PP      PP20638   7.966  13.067   4.109  0.1828 -0.1772 -0.1300
10535PP      PP20639   4.502  11.431  12.459 -0.1830 -0.1219 -0.2176
10536PP      PP20640   9.139   0.405   0.450 -0.2532 -0.0154  0.4246
10537PP      PP20641  12.788   4.746   0.628 -0.0481 -0.0009  0.0511
10538PP      PP20642  15.217   4.058  12.633 -0.1474  0.0190  0.0154
10539PP      PP20643   2.950   9.359   3.029 -0.0312 -0.1283  0.1510
10540PP      PP20644   7.795   7.750   2.906  0.0217  0.1656  0.3001
10541PP      PP20645   8.925   4.134  13.403 -0.0923  0.1566 -0.1048
10542PP      PP20646   4.150   9.450   0.074  0.0942 -0.0834  0.0739
10543PP      PP20647   8.145  10.937  13.480 -0.0046 -0.1427  0.0494
10544PP      PP20648   5.478  13.632  10.648  0.0322 -0.0117  0.0836
10545PP      PP20649   9.408   8.261   9.774  0.3015 -0.0265 -0.3793
10546PP      PP20650  13.162  13.523  10.605 -0.1714 -0.0348 -0.0787
10547PP      PP20651   7.910  10.027  12.096 -0.1894 -0.1940 -0.2449
10548PP      PP20652  14.559   6.090   0.642  0.4547 -0.2826  0.2022
10549PP      PP20653   2.766  14.515   0.577  0.1022 -0.0880 -0.0341
10550PP      PP20654  13.901  11.793  13.727 -0.0157 -0.3687 -0.1476
10551PP      PP20655   9.204  11.325  11.304 -0.1525  0.0671 -0.2783
10552PP      PP20656  11.580   0.106   0.458 -0.0410 -0.1515 -0.2082
10553PP      PP20657  11.281  15.384   0.191  0.1579 -0.0374  0.0134
10554PP      PP20658   8.875   4.207  12.314  0.3594  0.1447  0.0115
10555PP      PP20659   9.676   0.445   0.470  0.0931 -0.2912  0.0168
10556PP      PP20660   7.342   7.615  12.497  0.2884 -0.1955  0.1745
10557PP      PP20661   8.023   1.055   9.195  0.1140  0.0506  0.2528
10558PP      PP20662  11.528  11.988   4.064  0.0734  0.2606  0.0585
10559PP      PP20663  11.857  14.209   3.581 -0.0268  0.1603  0.3488
10560PP      PP20664   3.227  12.101   4.264 -0.1106  0.1711  0.0397
10561PP      PP20665   8.594  10.054   4.595  0.0025  0.0800 -0.0041
10562PP      PP20666   7.662  14.420   2.265  0.2653 -0.2014  0.1101
10563PP      PP20667  11.099  11.819  12.960  0.2542  0.0460  0.1227
10564PP      PP20668   7.216   1.912  11.237 -0.0567  0.0320  0.1222
10565PP      PP20669   9.298  12.420   2.837  0.2949  0.1170 -0.2004
10566PP      PP20670   1.542   0.704   0.838 -0.0044  0.0922 -0.0241
10567PP      PP20671  10.399   3.635   4.200  0.2164 -0.0455 -0.1747
10568PP      PP20672   7.030   2.968   3.541 -0.3716  0.0008 -0.2231
10569PP      PP20673  13.368   5.144  11.952 -0.1204  0.3438 -0.1534
10570PP      PP20674  10.173   6.518   3.655 -0.0478  0.0470 -0.0152
10571PP      PP20675   0.205   8.958  13.415  0.0789  0.4289  0.0655
10572PP      PP20676   0.701   3.860   0.299  0.2191  0.0209 -0.2909
10573PP      PP20677   9.206  14.864  10.004  0.0200  0.0328 -0.0799
10574PP      PP20678  15.658   6.731   2.790  0.1228  0.4040  0.3156
10575PP      PP20679   5.528  14.415  11.673  0.0108 -0.1017  0.1452
10576PP      PP20680   3.166  11.130  13.370  0.0073 -0.0601  0.1097
10577PP      PP20681  13.959   3.519  12.388 -0.1079  0.2312 -0.1474
10578PP      PP20682  13.085   3.410  12.364 -0.2151 -0.0722 -0.1537
10579PP      PP20683  14.007  10.768   9.626 -0.3825 -0.2605  0.3920
10580PP      PP20684   2.963   2.849  13.248 -0.0227 -0.1100  0.1566
10581PP      PP20685   3.873  14.516   3.022 -0.1995 -0.0632  0.4926
10582PP      PP20686   9.562  10.448   0.902 -0.0387  0.3802  0.1471
10583PP      PP20687  13.045  14.190   2.811 -0.1018  0.3416  0.1751
10584PP      PP20688   8.095  13.060   0.174 -0.0405  0.1683 -0.1262
10585PP      PP20689  14.733  10.855   9.815 -0.1234  0.2564 -0.0367
10586PP      PP20690  11.622   8.323   0.756 -0.1334 -0.2834 -0.3585
10587PP      PP20691   7.750   5.882  12.397 -0.1065  0.2492 -0.1002
10588PP      PP20692   4.513   2.863  10.991  0.4589 -0.1155 -0.0342
10589PP      PP20693  12.665   5.380   9.824 -0.0865 -0.3560 -0.2510
10590PP      PP20694   0.494  12.459   2.627  0.3066 -0.1267 -0.1162
10591PP      PP20695   0.836  14.547   3.844 -0.0673  0.1117  0.1633
10592PP      PP20696   6.503  14.284   9.318 -0.0870 -0.0050  0.0113
10593PP      PP20697  11.662  14.099  10.495  0.2419  0.0981 -0.1779
10594PP      PP20698   2.870  14.062  11.438  0.3383  0.1160  0.0219
10595PP      PP20699   6.330   7.752  10.588  0.3605  0.0439 -0.3505
10596PP      PP20700   9.146   2.017  12.739 -0.1271  0.0716 -0.2882
10597PP      PP20701   1.635  11.191  12.145 -0.1334 -0.0032  0.1706
10598PP      PP20702   8.188   4.804   1.740  0.0613  0.1444 -0.3653
10599PP      PP20703   0.931  14.942  13.457  0.2177  0.4589 -0.1569
10600PP      PP20704   0.781   8.652   9.224  0.3160  0.0088 -0.0837
10601PP      PP20705   5.292  10.132  11.999 -0.0433  0.3206  0.2312
10602PP      PP20706   3.056   0.658   2.587 -0.0148  0.1589 -0.1696
10603PP      PP20707  11.033   1.578   0.651 -0.0852 -0.1852 -0.1242
10604PP      PP20708  13.730   6.959   2.671  0.3485  0.1692 -0.0719
10605PP      PP20709  13.131  10.247   9.975 -0.0821  0.2479 -0.0669
10606PP      PP20710  12.105   5.681   3.617  0.2515  0.0699  0.0808
10607PP      PP20711   4.081  14.226   3.383 -0.1832 -0.0004 -0.5019
10608PP      PP20712   2.399   0.626   8.927  0.0325 -0.1847  0.1667
10609PP      PP20713  11.724  15.366  13.160  0.1543 -0.1123 -0.1462
10610PP      PP20714  13.969   3.002  12.144 -0.1720  0.1822  0.0280
10611PP      PP20715   4.905   5.603  11.279 -0.0511  0.3377  0.1623
10612PP      PP20716   7.086  12.130   9.415 -0.1395 -0.4779 -0.1921
10613PP      PP20717   8.829  12.475   2.078 -0.1210  0.4996  0.0721
10614PP      PP20718   3.228   0.342   1.096  0.2207 -0.3000  0.0439
10615PP      PP20719   8.046  12.118   4.726 -0.3036 -0.0690  0.2552
10616PP      PP20720   3.961   8.996  12.108  0.1232  0.5773  0.1954
10617PP      PP20721   6.447  13.550  11.421  0.2858 -0.0915  0.3598
10618PP      PP20722  10.545   6.732  11.877 -0.0399  0.2583 -0.1139
10619PP      PP20723   3.155   2.880  11.115  0.1005  0.0600 -0.0481
10620PP      PP20724  15.128   0.044  10.800 -0.0603 -0.2255  0.1964
10621PP      PP20725   9.492  15.184   1.152  0.1142  0.0824  0.1618
10622PP      PP20726  13.198   6.277   3.105 -0.0073 -0.1149 -0.1851
10623PP      PP20727  10.482   1.050   2.135  0.0394  0.0561 -0.0318
10624PP      PP20728   3.255   2.385  13.506 -0.0729  0.2006  0.1554
10625PP      PP20729   9.804   7.803   4.482 -0.1697 -0.0764 -0.1810
10626PP      PP20730   8.542  13.918  12.519 -0.0503 -0.0009 -0.1387
10627PP      PP20731   2.938  13.712   4.232 -0.0076 -0.1190  0.2763
10628PP      PP20732   5.705   7.533  10.279 -0.0083  0.0038 -0.3399
10629PP      PP20733   9.069   3.975  11.398  0.1606 -0.1573  0.0849
10630PP      PP20734   1.018   3.405  13.167 -0.1985 -0.1185  0.1055
10631PP      PP20735   5.010   3.303   1.591  0.0515  0.0073  0.1062
10632PP      PP20736  12.694   3.736   2.237 -0.3631 -0.2048  0.2678
10633PP      PP20737   5.678   2.496  10.548  0.0021  0.0556  0.2006
10634PP      PP20738   4.799  13.924  12.068 -0.0241  0.0606  0.0501
10635PP      PP20739   2.036  12.702  10.560 -0.0837  0.1960  0.1854
10636PP      PP20740   6.348  12.084   0.341  0.4010 -0.2378 -0.1870
10637PP      PP20741   4.971  12.286   3.096 -0.3303  0.2256 -0.1072
10638PP      PP20742   5.009   7.692  10.966  0.1003 -0.2409 -0.1539
10639PP      PP20743   0.464   7.619  11.420  0.0023 -0.1164  0.1285
10640PP      PP20744   2.274   9.960   3.106  0.0339  0.3399  0.1900
10641PP      PP20745   1.942  10.027   2.688  0.0378  0.1273 -0.0142
10642PP      PP20746   9.899   0.905   0.170 -0.2786 -0.2701  0.2729
10643PP      PP20747   3.518   1.835   0.498  0.0179 -0.0804  0.2155
10644PP      PP20748   0.301   1.360   1.372  0.3302  0.0043 -0.1293
10645PP      PP20749   4.046   1.955  10.718 -0.0666  0.1716 -0.1276
10646PP      PP20750   6.773   6.395   4.584  0.0794  0.0715 -0.2174
10647PP      PP20751   7.700   5.246  12.792  0.2513  0.1720  0.0055
10648PP      PP20752   9.095   3.003   8.288 -0.0536  0.2476  0.1135
10649PP      PP20753   1.682   2.448   1.835 -0.0926 -0.2480  0.0323
10650PP      PP20754   4.833   8.976   4.744  0.0701  0.2484 -0.1532
10651PP      PP20755   2.045   8.880   0.938 -0.0085  0.3062  0.1273
10652PP      PP20756   7.807   1.514   9.427 -0.0643  0.3344  0.0596
10653PP      PP20757   4.497   8.096  12.784 -0.0823 -0.0517  0.0835
10654PP      PP20758  15.527   6.562  11.543  0.0447 -0.2448  0.0983
10655PP      PP20759  14.965  10.977   0.112  0.4057  0.0822 -0.3529
10656PP      PP20760  12.684   4.379   8.431 -0.0136 -0.0186  0.0403
10657PP      PP20761  13.931  10.926   4.965  0.0795 -0.1396  0.2706
10658PP      PP20762  13.143  11.422  13.166 -0.1670 -0.0455  0.0099
10659PP      PP20763   9.846   8.825  13.556 -0.0634  0.2063 -0.3690
10660PP      PP20764   5.978   3.575   1.357 -0.0252 -0.1068  0.3074
10661PP      PP20765   3.096   6.947   3.411 -0.0693 -0.0167 -0.4804
10662PP      PP20766  14.893  15.003  12.603 -0.5294  0.2900 -0.0025
10663PP      PP20767   3.068   9.128   2.523 -0.0775  0.1460  0.0653
10664PP      PP20768   5.347   6.390   1.283  0.1199  0.0983  0.0199
10665PP      PP20769   6.921  14.572   0.564  0.0274 -0.1530 -0.1129
10666PP      PP20770   0.508   0.279   1.035 -0.1707  0.1001  0.3259
10667PP      PP20771  11.963   9.911   3.542 -0.2806  0.0886  0.0610
10668PP      PP20772  11.605   1.237  11.113  0.1195 -0.2279 -0.1781
10669PP      PP20773   4.821  12.902   2.406  0.0103 -0.0814 -0.0588
10670PP      PP20774   6.038   1.185   3.554  0.2896  0.0188  0.3555
10671PP      PP20775  14.715  13.815   2.616  0.1500 -0.1349 -0.0308
10672PP      PP20776  11.930   4.016   1.459  0.1820 -0.4334 -0.1315
10673PP      PP20777  10.856   0.366  13.370 -0.0484  0.2037 -0.1886
10674PP      PP20778   9.110   3.472   3.225 -0.1159 -0.1762  0.1161
10675PP      PP20779   1.639  12.847   3.714  0.3308  0.3095  0.1325
10676PP      PP20780  12.908   9.544   1.643  0.2681  0.1823  0.1879
10677PP      PP20781   6.578  13.873  12.386 -0.1811  0.2363  0.3475
10678PP      PP20782   7.545   3.805   8.315  0.0597  0.5107  0.1009
10679PP      PP20783   0.591   2.233   3.990 -0.2460  0.0450 -0.0387
10680PP      PP20784   7.246  10.316   2.914  0.0441  0.0194 -0.1230
10681PP      PP20785  10.179  11.921  11.372 -0.0411  0.1377 -0.0808
10682PP      PP20786   4.404   6.526   4.136 -0.1112 -0.2711 -0.0846
10683PP      PP20787   9.767   6.460  10.076  0.3410  0.1718  0.0542
10684PP      PP20788  14.423   5.920  12.696  0.1643 -0.0694  0.3144
10685PP      PP20789   6.374  10.618  12.450 -0.0812  0.0337 -0.1078
10686PP      PP20790   0.746   5.477  10.036  0.1142  0.2228  0.0124
10687PP      PP20791   6.478  11.694  11.452 -0.0965 -0.2442  0.1288
10688PP      PP20792   1.630  12.327   3.797 -0.0790 -0.2406 -0.0435
10689PP      PP20793  12.134   6.010  13.282 -0.2063  0.0526  0.0546
10690PP      PP20794   8.169   8.916  13.580 -0.1745 -0.1996 -0.0213
10691PP      PP20795  11.152   6.057  10.381  0.0703 -0.0098  0.0763
10692PP      PP20796   3.549   4.740  10.036 -0.2333 -0.1468 -0.0231
10693PP      PP20797   1.342   4.119  10.938 -0.0404 -0.2506 -0.2277
10694PP      PP20798  12.472  14.664   4.309  0.1414 -0.1355 -0.0796
10695PP      PP20799   2.217   3.718  11.368  0.0551  0.5192  0.0458
10696PP      PP20800   8.564   0.857  13.029 -0.0445 -0.1634  0.1224
10697PP      PP20801   3.516   0.768   1.909  0.1835  0.0403  0.3445
10698PP      PP20802   2.483   8.746  10.445  0.4330  0.2033 -0.1062
10699PP      PP20803   3.043  11.177  12.447 -0.5466 -0.0996 -0.4440
10700PP      PP20804   8.863   6.818   2.077  0.1245 -0.1331  0.0463
10701PP      PP20805  13.718   0.933   8.736 -0.1380 -0.3724 -0.1180
10702PP      PP20806  10.406   6.308   1.645 -0.2409 -0.1064  0.2554
10703PP      PP20807   0.893  12.130   1.701 -0.1102 -0.1686  0.0159
10704PP      PP20808  14.202   1.204   3.271 -0.2719 -0.1426  0.3759
10705PP      PP20809   6.899  14.616  12.488  0.0510  0.0365  0.1645
10706PP      PP20810  10.502   4.252   2.104 -0.0052 -0.0099  0.0683
10707PP      PP20811  14.647   0.407   0.767 -0.0904 -0.1902 -0.0112
10708PP      PP20812   0.671  14.005  13.719 -0.2171 -0.1099  0.0853
10709PP      PP20813  15.118  12.922  12.409 -0.0737  0.1554 -0.2140
10710PP      PP20814   7.936   5.323  10.057  0.1169 -0.0472 -0.1577
10711PP      PP20815   6.900   9.264   9.354  0.0092  0.0718 -0.2256
10712PP      PP20816   1.684  12.764  12.793 -0.1784  0.4341 -0.1587
10713PP      PP20817   3.664   2.375   9.867  0.2058  0.0576 -0.2295
10714PP      PP20818  10.602   8.254  11.770 -0.2305  0.0537  0.2175
10715PP      PP20819   5.516   5.581  13.591  0.2257  0.1961  0.3402
10716PP      PP20820   8.251  15.023   9.222 -0.1092  0.1242  0.2004
10717PP      PP20821   7.052   1.931   9.319  0.0005  0.1743 -0.1178
10718PP      PP20822   9.239  13.079  11.575 -0.2158  0.0778  0.0184
10719PP      PP20823   8.488  10.727  11.641 -0.1651 -0.2067  0.0388
10720PP      PP20824   9.582   8.838   1.275  0.0188 -0.0464  0.3325
10721PP      PP20825  10.747  14.693  11.918 -0.1909  0.1187  0.2052
10722PP      PP20826  14.956   3.994   3.711 -0.1526  0.1902 -0.2221
10723PP      PP20827   6.211   5.758   2.749 -0.1756 -0.1922 -0.2181
10724PP      PP20828  12.976   3.095   9.306  0.0113  0.1138  0.0115
10725PP      PP20829   8.379   6.879   0.187  0.0240 -0.2272  0.3245
10726PP      PP20830  10.768   2.178   2.551  0.1426 -0.0594  0.0318
10727PP      PP20831   0.919   0.585  10.799  0.2864 -0.0123 -0.0508
10728PP      PP20832  10.183   6.965  10.630  0.2054 -0.1774  0.3077
10729PP      PP20833  15.065  15.130   2.191 -0.1820  0.0759 -0.1228
10730PP      PP20834  11.258   3.273  11.787 -0.2340  0.2627 -0.0517
10731PP      PP20835   1.662   6.877   9.642 -0.1806 -0.0058 -0.1570
10732PP      PP20836  14.080   9.025  11.658 -0.2083 -0.0854  0.0324
10733PP      PP20837   3.351  12.084  10.390 -0.0267 -0.0192 -0.2504
10734PP      PP20838   6.299   3.885   2.174 -0.1511  0.1707  0.1080
10735PP      PP20839   2.978  10.040   4.838  0.0718  0.1038 -0.2246
10736PP      PP20840   0.839  14.909   0.214  0.0876 -0.0849  0.2149
10737PP      PP20841   5.583   9.379  11.402 -0.2416 -0.0742 -0.0819
10738PP      PP20842   5.571   8.294  13.686  0.1354 -0.0080 -0.1635
10739PP      PP20843   7.227   1.926   3.393 -0.0645  0.0270  0.1232
10740PP      PP20844  12.745   1.888   9.930 -0.1672  0.1504 -0.1166
10741PP      PP20845   8.952  12.735  11.919 -0.3140 -0.2635 -0.1814
10742PP      PP20846  15.064  12.487   1.043 -0.1454 -0.4102  0.0293
10743PP      PP20847   7.763   3.944   7.821  0.3451  0.1196  0.1693
10744PP      PP20848   4.711   0.205   2.136  0.1928  0.4211  0.2256
10745PP      PP20849   7.991  11.842  12.122 -0.0903 -0.3464  0.4615
10746PP      PP20850  15.331   7.112   2.395  0.3346  0.3636 -0.1723
10747PP      PP20851   1.173   9.425  11.427 -0.2482 -0.4245  0.0076
10748PP      PP20852  15.140  14.299   9.294 -0.1061  0.1755 -0.1564
10749PP      PP20853  15.723   1.735   0.548  0.0969 -0.0360  0.1239
10750PP      PP20854   9.393  13.986  11.117 -0.1130 -0.0636 -0.2187
10751PP      PP20855   2.599  11.984   3.737 -0.0546 -0.2911  0.0277
10752PP      PP20856   5.659   5.562  12.702  0.0241 -0.1560  0.2090
10753PP      PP20857  11.236   1.310  13.493  0.3812  0.0301  0.0746
10754PP      PP20858   2.966  10.787   4.422 -0.1814 -0.0809 -0.1138
10755PP      PP20859   1.385   4.785   4.504  0.3078  0.0595  0.3076
10756PP      PP20860  11.396   5.094   0.603 -0.1580  0.1328  0.2348
10757PP      PP20861   9.804  11.323   9.871  0.1536 -0.3226 -0.0311
10758PP      PP20862   5.162  15.561  12.948  0.2312 -0.2444  0.0738
10759PP      PP20863   6.974   0.125  12.902  0.2250  0.4501 -0.0011
10760PP      PP20864   9.691   5.049   3.587  0.3338 -0.1995 -0.0493
10761PP      PP20865   5.551   0.202  13.040 -0.0428  0.2048  0.0113
10762PP      PP20866   8.037   4.883   0.296 -0.0376 -0.0242 -0.3074
10763PP      PP20867   3.742   4.761   1.357  0.1672  0.4713 -0.0261
10764PP      PP20868   9.851   8.939   4.377 -0.0444 -0.2038  0.0356
10765PP      PP20869   2.020  13.091   2.029 -0.3113 -0.1557  0.0908
10766PP      PP20870   9.543   5.157   9.583 -0.0863  0.2305 -0.1554
10767PP      PP20871   5.747   1.323   2.381  0.1644  0.0916  0.2066
10768PP      PP20872   3.850   9.388   3.132 -0.1324 -0.0135  0.1431
10769PP      PP20873   3.534   9.411  13.374 -0.1113  0.0328  0.0722
10770PP      PP20874   7.207   7.261   2.165  0.4075  0.1799 -0.0630
10771PP      PP20875  10.482   9.210   3.597 -0.1684  0.1150  0.2013
10772PP      PP20876   5.875  11.390  10.857 -0.1346  0.1520 -0.3053
10773PP      PP20877  10.821   7.191   1.107  0.2142 -0.0460 -0.0142
10774PP      PP20878   0.555   3.401   1.671  0.0135  0.1399  0.2389
10775PP      PP20879   9.551  11.786   0.081  0.1265  0.0582  0.0906
10776PP      PP20880   7.299   4.016   0.447  0.1021  0.0508 -0.1996
10777PP      PP20881   3.896  10.058  12.820 -0.0455  0.2120 -0.4180
10778PP      PP20882   9.974   8.397  13.717  0.1726  0.0655 -0.1509
10779PP      PP20883   1.805   7.570  13.534 -0.1102 -0.0857  0.0158
10780PP      PP20884  10.858  14.619   9.235  0.0917  0.0196 -0.1618
10781PP      PP20885  11.820   0.404  10.961  0.1340 -0.1869  0.0268
10782PP      PP20886   2.014  12.590   4.056  0.1890 -0.1842  0.1628
10783PP      PP20887   9.020  11.905   0.408  0.2932 -0.0165  0.0374
10784PP      PP20888   4.795  10.347   5.133  0.1808  0.1687 -0.2111
10785PP      PP20889  10.717   1.502  11.724 -0.0155 -0.0411  0.1720
10786PP      PP20890   3.070   9.089   0.886  0.1318 -0.0719  0.0070
10787PP      PP20891   7.950   8.022  13.571 -0.0857  0.1050  0.2033
10788PP      PP20892  12.932   2.339  12.634  0.1204  0.1552 -0.0304
10789PP      PP20893  14.833   0.852  10.941  0.1527 -0.0736 -0.1294
10790PP      PP20894   0.164   9.276  12.346  0.0841  0.0288 -0.2278
10791PP      PP20895   6.971  13.789   2.159  0.0303 -0.1898 -0.0568
10792PP      PP20896   3.831   5.964  13.782 -0.1220  0.1340 -0.4230
10793PP      PP20897   4.981   1.793   1.584 -0.1265  0.0727  0.1203
10794PP      PP20898  15.037   1.586  12.305 -0.0032 -0.1130  0.1403
10795PP      PP20899   6.927  11.231   2.433  0.1546  0.1153 -0.0098
10796PP      PP20900   4.012   5.402  10.330 -0.1914  0.3557  0.0188
10797PP      PP20901  13.424   0.718   1.423 -0.0540 -0.0401 -0.1112
10798PP      PP20902   6.803   6.953  10.684 -0.1495  0.1166  0.1240
10799PP      PP20903   7.748  14.153   9.631  0.2534  0.0599  0.0305
10800PP      PP20904   5.483   3.023   4.089  0.0231 -0.1572 -0.2530
10801PP      PP20905   5.358  14.919   9.563 -0.1275  0.0392  0.2822
10802PP      PP20906   6.645   7.648   2.792 -0.0841  0.0360 -0.1252
10803PP      PP20907   2.018  13.937   2.280 -0.0628 -0.1786 -0.2258
10804PP      PP20908   6.970   5.442   8.573  0.1176 -0.4554 -0.0141
10805PP      PP20909  12.295   4.715   9.244 -0.1256  0.0138  0.0979
10806PP      PP20910   3.041   9.108  13.246 -0.1536 -0.1676  0.4075
10807PP      PP20911   7.429  14.200   1.878  0.2703  0.0214  0.3845
10808PP      PP20912   6.153  11.560   0.397  0.1269 -0.2834  0.1316
10809PP      PP20913   6.240   8.533   9.597 -0.1105 -0.1153 -0.0193
10810PP      PP20914  13.629  14.988   9.397  0.2705 -0.0640 -0.1091
10811PP      PP20915   9.707   1.183   1.033  0.1957  0.0211 -0.1969
10812PP      PP20916  13.823  12.780  10.825  0.0414  0.0023  0.0229
10813PP      PP20917  15.483   5.816   3.787 -0.3683 -0.0541 -0.5092
10814PP      PP20918  15.189  11.137  11.493 -0.0624  0.0310  0.0062
10815PP      PP20919   8.924  12.055   0.947 -0.0836  0.0244  0.2614
10816PP      PP20920   7.996   4.951  11.431  0.2302  0.2106  0.1617
10817PP      PP20921   2.984  10.416  12.330 -0.1662 -0.0056 -0.0221
10818PP      PP20922   8.096   3.025  12.042 -0.0459 -0.0505  0.0719
10819PP      PP20923   6.113  14.680   1.020  0.1224 -0.0867 -0.1626
10820PP      PP20924   0.006   7.709  11.261  0.0263  0.3882  0.3213
10821PP      PP20925   1.582  12.357  13.136  0.0587  0.0156 -0.3847
10822PP      PP20926  14.596  13.472   9.288  0.0522  0.1528  0.2849
10823PP      PP20927   3.960  11.221  13.479  0.0413  0.1881  0.1437
10824PP      PP20928   7.466   1.383   2.342  0.3882 -0.2592 -0.0531
10825PP      PP20929   9.967   9.399   3.616 -0.2511 -0.4054 -0.1721
10826PP      PP20930   6.255  11.251  13.016 -0.2224 -0.2227 -0.1289
10827PP      PP20931  10.898   2.677   9.441 -0.1853 -0.1348 -0.1105
10828PP      PP20932   4.701   6.099   9.964 -0.1777  0.4367 -0.1947
10829PP      PP20933  14.918   8.302  10.976  0.3652 -0.1156 -0.1937
10830PP      PP20934   8.635   2.755  12.598 -0.2774 -0.0002  0.0064
10831PP      PP20935  14.509  14.200   0.476  0.1138 -0.0770  0.1975
10832PP      PP20936   3.822   7.445   3.109  0.0633  0.4817 -0.3608
10833PP      PP20937  12.555  15.431  12.006 -0.0357 -0.2603 -0.2619
10834PP      PP20938   5.505  10.903  10.721 -0.2598 -0.4361 -0.0688
10835PP      PP20939  10.030   6.185   1.911  0.3515 -0.1416  0.1851
10836PP      PP20940  14.445   5.741   9.822 -0.2569  0.1674  0.1585
10837PP      PP20941   3.329  13.626   0.907  0.0105 -0.3100 -0.0949
10838PP      PP20942   3.980  12.243   0.879  0.4241  0.1161 -0.3511
10839PP      PP20943  14.923  14.767  12.167  0.0556 -0.0841 -0.2666
10840PP      PP20944   3.980  12.815   1.220  0.1718  0.0840  0.0585
10841PP      PP20945  15.231  13.379  10.876 -0.2213  0.1966  0.0206
10842PP      PP20946   3.675   5.572  12.091  0.0131  0.1268  0.1098
10843PP      PP20947   6.979   4.632  10.210  0.0237  0.1841  0.1266
10844PP      PP20948   7.658  15.082  13.608 -0.1740  0.1151  0.0815
10845PP      PP20949   3.755  10.517   0.283  0.2978  0.1513  0.0804
10846PP      PP20950  12.848  11.196  10.610 -0.1336 -0.1196 -0.1127
10847PP      PP20951  13.690  14.694  10.970  0.2297 -0.4215 -0.1760
10848PP      PP20952   9.482   6.721   4.036  0.0959  0.0227 -0.0316
10849PP      PP20953   8.163   4.656   8.306 -0.0027 -0.1071 -0.0723
10850PP      PP20954  14.182   6.130   9.322  0.0096  0.1398  0.1023
10851PP      PP20955   3.607   5.540   4.029 -0.1130  0.0439 -0.1769
10852PP      PP20956   0.616   7.246   3.757 -0.1606 -0.0616  0.5680
10853PP      PP20957   9.061  11.281   2.051 -0.4889  0.2595 -0.0705
10854PP      PP20958   6.040  13.556  10.655 -0.2607  0.0715  0.0566
10855PP      PP20959   7.900  10.176   4.138  0.1434  0.0131 -0.4360
10856PP      PP20960  11.608   7.339   1.506  0.2457 -0.0104 -0.3139
10857PP      PP20961  11.507   6.264  11.660  0.0073  0.2162 -0.2680
10858PP      PP20962   7.775  12.103   2.945 -0.1286  0.1082  0.0624
10859PP      PP20963   6.005   4.006   9.144 -0.1463 -0.0477 -0.0840
10860PP      PP20964  12.903   3.793  12.705 -0.2705  0.2445  0.2071
10861PP      PP20965  14.616  10.581   9.400 -0.2249  0.1246 -0.0998
10862PP      PP20966   4.591   2.934   0.702 -0.0397 -0.1047 -0.3428
10863PP      PP20967   7.796  10.272  11.706 -0.2663 -0.0862  0.1244
10864PP      PP20968   2.463   2.657  11.846  0.0000  0.0072 -0.0855
10865PP      PP20969   7.869   1.390   1.195  0.4315  0.3230  0.1702
10866PP      PP20970   0.581  12.360  13.154  0.0356 -0.1049 -0.4191
10867PP      PP20971   5.382  11.046   0.350  0.0516 -0.0289 -0.0953
10868PP      PP20972  10.412  10.760  11.732  0.1463  0.0415  0.1268
10869PP      PP20973  15.723   1.520   4.116  0.2796 -0.0874  0.0249
10870PP      PP20974   0.472   2.389  13.361  0.0399 -0.0132  0.1201
10871PP      PP20975  10.399   1.445  11.152 -0.1508 -0.1549  0.0647
10872PP      PP20976  11.666   4.339  10.774 -0.0487  0.0049 -0.2395
10873PP      PP20977   9.638   0.764   3.882 -0.0039 -0.4025  0.2255
10874PP      PP20978   9.549   4.840   8.909  0.1081  0.0755  0.1573
10875PP      PP20979   9.269  14.863   0.210  0.0175  0.0675  0.1406
10876PP      PP20980   7.932   9.263   9.996 -0.0328 -0.0146  0.1430
10877PP      PP20981  13.770  12.252   3.920 -0.2618  0.0653 -0.2757
10878PP      PP20982   0.957  10.943  12.221  0.0506 -0.0450  0.1592
10879PP      PP20983   7.837  10.871  10.846  0.3635 -0.0067 -0.3273
10880PP      PP20984  11.202   9.526   9.902  0.0419  0.2468 -0.1239
10881PP      PP20985   2.875   1.914  13.148 -0.6912  0.2041 -0.2601
10882PP      PP20986   5.899   2.191   4.355 -0.1723  0.1860  0.3035
10883PP      PP20987   5.001  15.518   3.201  0.0630 -0.0170  0.0530
10884PP      PP20988   5.586  14.705  10.569 -0.0145 -0.0283  0.0192
10885PP      PP20989  14.733   9.710   0.665  0.0658 -0.0482 -0.1528
10886PP      PP20990   6.916  14.248  12.153  0.0967  0.4446 -0.0975
10887PP      PP20991   3.557   6.109  10.311  0.0503  0.1361  0.0524
10888PP      PP20992   6.560   7.893   1.956 -0.1337 -0.0677 -0.2644
10889PP      PP20993   3.146  11.836   2.878  0.0561 -0.0275  0.0769
10890PP      PP20994   8.262  15.137  12.063  0.1365 -0.2314  0.1851
10891PP      PP20995  10.275  14.006   4.221 -0.1739  0.1779 -0.0185
10892PP      PP20996  14.332   7.627   2.847  0.0577  0.0455 -0.1708
10893PP      PP20997   4.471   0.703  10.680  0.1370  0.1460 -0.1164
10894PP      PP20998  11.285   6.794   1.048 -0.0433  0.0717  0.1250
10895PP      PP20999   8.419   7.395   9.374  0.1433  0.0170  0.0416
10896PP      PP21000  15.097   2.621  10.232 -0.2447 -0.2468  0.2416
10897PP      PP21001   7.679   6.635  10.714  0.1263 -0.0133 -0.0373
10898PP      PP21002   2.846   9.988  12.516  0.0900 -0.1402 -0.1220
10899PP      PP21003   0.525   5.440  13.391  0.0955 -0.1986 -0.0179
10900PP      PP21004   4.137   8.218   3.702  0.3253 -0.0284 -0.1254
10901PP      PP21005  10.620   0.583  12.293 -0.0028 -0.0013 -0.1270
10902PP      PP21006   9.386  10.930   3.857  0.2455 -0.0385 -0.1777
10903PP      PP21007   3.392   4.199   0.891  0.1867 -0.0877  0.1123
10904PP      PP21008   7.329   8.581   3.350  0.1462 -0.2128 -0.1009
10905PP      PP21009   4.490   2.946   3.409 -0.1575  0.1480 -0.1235
10906PP      PP21010  15.112   6.416   9.172 -0.4170  0.1621 -0.0439
10907PP      PP21011   3.093   6.307   9.506 -0.1228 -0.0503 -0.2847
10908PP      PP21012   8.069  13.783  12.319 -0.0587 -0.0221 -0.0341
10909PP      PP21013  10.187  11.946   3.196  0.0655  0.0841  0.2134
10910PP      PP21014  12.415  15.323  13.042 -0.1332  0.1206  0.1590
10911PP      PP21015  12.533  13.313  13.734 -0.0095 -0.0582  0.1240
10912PP      PP21016  13.925   5.167  12.761  0.0889  0.1467 -0.0221
10913PP      PP21017   0.645   4.672  13.398 -0.0922  0.0468  0.1694
10914PP      PP21018  15.374   5.319   2.467 -0.1189 -0.0856 -0.0345
10915PP      PP21019   8.178   8.908   9.496 -0.0230 -0.1499  0.2733
10916PP      PP21020   3.096  13.328  12.601  0.1690  0.1606  0.0063
10917PP      PP21021  14.314  15.207   1.111  0.0759 -0.0232 -0.1732
10918PP      PP21022  12.388   4.117  11.365  0.0082  0.4804 -0.1624
10919PP      PP21023   1.240  13.291  13.103 -0.0165 -0.2103 -0.0028
10920PP      PP21024   4.551  14.025   9.898  0.2547 -0.4348 -0.1832
10921PP      PP21025  13.285  14.954   3.336  0.1468  0.0809 -0.2482
10922PP      PP21026   9.600   3.091   3.585  0.2772 -0.0108 -0.0244
10923PP      PP21027   4.954   5.240  12.302 -0.1803  0.0141  0.0027
10924PP      PP21028   2.021   9.522   2.793 -0.2044 -0.0938  0.0487
10925PP      PP21029   8.722   4.514  11.016  0.1862 -0.1122 -0.4251
10926PP      PP21030   8.065   3.373   9.321  0.0268  0.0341 -0.0427
10927PP      PP21031  15.506   9.857  12.332  0.0531 -0.1861 -0.0520
10928PP      PP21032  14.688  10.523   1.483 -0.3436 -0.1974 -0.0251
10929PP      PP21033   0.616  10.051  10.590  0.1765 -0.1844  0.3068
10930PP      PP21034   9.365   8.075   1.951 -0.1351 -0.0744 -0.2412
10931PP      PP21035   4.928  14.108   3.134  0.2247  0.1602 -0.1230
10932PP      PP21036   1.053  13.093   8.948 -0.0467  0.2225  0.2030
10933PP      PP21037  10.971   6.383  11.860  0.2311 -0.2127 -0.1855
10934PP      PP21038   5.840  12.558  13.225  0.2273 -0.0511 -0.3657
10935PP      PP21039  13.583   1.555  10.322 -0.1443 -0.1845  0.1737
10936PP      PP21040  14.709   5.500  12.947  0.0481 -0.3914 -0.3027
10937PP      PP21041  11.332   2.506  13.246 -0.1541 -0.1136 -0.1319
10938PP      PP21042   4.272   4.757   9.349  0.2063 -0.1401 -0.0841
10939PP      PP21043   5.551   6.544   0.156 -0.0064 -0.1761 -0.0510
10940PP      PP21044  13.873   2.230  13.526 -0.2026 -0.1696  0.2892
10941PP      PP21045  11.962   6.802  12.597 -0.0469 -0.1098  0.2125
10942PP      PP21046  14.994   8.845  13.747  0.0286  0.2000 -0.1679
10943PP      PP21047  15.315  10.618  12.920 -0.0773 -0.0521  0.0441
10944PP      PP21048   7.078  12.637  12.443  0.1467 -0.2668 -0.4181
10945PP      PP21049  13.856   1.567  12.844  0.0863 -0.0967 -0.1319
10946PP      PP21050   1.989   6.398   9.108 -0.3698 -0.1366  0.0253
10947PP      PP21051   3.996  14.223   1.442  0.0207 -0.1646 -0.1234
10948PP      PP21052   3.376  13.909   3.830  0.0489  0.1681  0.0527
10949PP      PP21053  14.698  15.437   1.352  0.2050 -0.1064  0.0366
10950PP      PP21054  11.724   4.754   3.758 -0.0445  0.0847 -0.0495
10951PP      PP21055   2.984   3.265  12.657  0.0450 -0.1806  0.4877
10952PP      PP21056   0.410  12.079   1.737 -0.0535  0.1033 -0.0917
10953PP      PP21057   6.517  10.969   1.871  0.3262 -0.1332 -0.1014
10954PP      PP21058   8.109   8.400   9.350  0.0299 -0.0953  0.1173
10955PP      PP21059  12.629  13.695   3.019  0.2377  0.0404  0.0474
10956PP      PP21060   0.675   3.408   9.617  0.2514  0.5018 -0.0509
10957PP      PP21061   5.456  10.556  10.355  0.0587  0.0583  0.2760
10958PP      PP21062   3.196  14.343  13.070 -0.2531  0.2185  0.3279
10959PP      PP21063   6.463  15.135  11.118 -0.1793  0.2425  0.0659
10960PP      PP21064  11.210  11.369   3.405  0.2100 -0.2322  0.2691
10961PP      PP21065   2.736   8.243  13.593  0.2353 -0.0223  0.1673
10962PP      PP21066   6.324   8.327   0.736  0.0877 -0.0513 -0.1859
10963PP      PP21067   7.014  11.642  12.714 -0.0617 -0.0164  0.1538
10964PP      PP21068   8.483  15.127  10.653  0.3288  0.0579  0.0732
10965PP      PP21069  11.324   4.034   0.360  0.3601  0.1817 -0.0244
10966PP      PP21070   3.114  14.656  12.682  0.1110 -0.1623 -0.3887
10967PP      PP21071   0.958   8.047  11.214 -0.0247  0.0438  0.0154
10968PP      PP21072  10.781   8.672   9.025 -0.2668  0.2715  0.1034
10969PP      PP21073   1.392  13.423   1.821  0.1534 -0.0799 -0.1149
10970PP      PP21074  11.137   8.061   3.151 -0.1075 -0.0329 -0.2556
10971PP      PP21075  10.244  10.953  11.278 -0.1050 -0.1319 -0.2499
10972PP      PP21076  14.817  14.480  10.748  0.3081  0.2036 -0.1167
10973PP      PP21077  15.605   0.040   3.570 -0.0841 -0.0996 -0.1112
10974PP      PP21078  13.494   5.980   0.811 -0.2174 -0.1239 -0.0016
10975PP      PP21079   8.776  12.103   3.076  0.0315 -0.0070 -0.0415
10976PP      PP21080  14.582  15.650   0.882 -0.3370 -0.2440  0.0582
10977PP      PP21081  10.408   9.872   1.806  0.4517 -0.0016  0.1921
10978PP      PP21082  11.609   3.598  11.107 -0.0083 -0.0336  0.1963
10979PP      PP21083  11.426   4.955   8.978  0.1456  0.0400 -0.1174
10980PP      PP21084   3.983   8.234   0.502  0.3965  0.1163  0.0749
10981PP      PP21085   2.115   0.511  11.618  0.0433 -0.0409  0.0876
10982PP      PP21086   2.257   3.770  12.450  0.1169  0.4055 -0.1564
10983PP      PP21087   1.552   8.119  12.794  0.0089  0.1979  0.2871
10984PP      PP21088   5.331   5.904   2.712 -0.3181  0.0176 -0.2458
10985PP      PP21089   1.859  15.600  10.186 -0.1461 -0.4689  0.2696
10986PP      PP21090   0.985  11.819  10.854 -0.4242 -0.2031  0.3810
10987PP      PP21091   3.032  10.991   9.712  0.3250  0.3234  0.0903
10988PP      PP21092   8.582   1.252   2.532  0.4084 -0.0457 -0.0750
10989PP      PP21093   5.782  14.461   1.361 -0.2728  0.3583 -0.1267
10990PP      PP21094   3.996   8.871   4.409 -0.1722  0.1402 -0.2508
10991PP      PP21095  10.095   6.354  13.360  0.0318 -0.3127 -0.2683
10992PP      PP21096  12.862   7.131   2.576  0.1978 -0.0165  0.0466
10993PP      PP21097  14.763   5.745  11.774 -0.3406  0.0480  0.0302
10994PP      PP21098   4.181   1.806   0.452  0.1591  0.1998  0.0102
10995PP      PP21099   7.891  10.453  10.641  0.0239  0.1001 -0.1040
10996PP      PP21100  13.336  15.005   9.760 -0.0867  0.1974 -0.3218
10997PP      PP21101  11.932   7.568   3.274 -0.2781  0.3104 -0.2100
10998PP      PP21102   4.370   3.731   3.064 -0.0769  0.0558  0.2065
10999PP      PP21103   0.967   6.926  10.299 -0.1565  0.0103  0.2048
11000PP      PP21104   8.211  10.759  11.193  0.2497 -0.1024 -0.0443
11001PP      PP21105   3.824  14.009   5.441  0.1300 -0.0178  0.0764
11002PP      PP21106  14.325   2.358  10.757 -0.1094 -0.0390 -0.1961
11003PP      PP21107   1.068   7.180  13.508 -0.0392  0.0647  0.0758
11004PP      PP21108   2.568   7.508   3.862  0.2755 -0.1939 -0.0817
11005PP      PP21109   1.626   9.392   3.043 -0.0458 -0.1235 -0.4051
11006PP      PP21110  13.433   4.401  13.382 -0.0010 -0.1040 -0.1726
11007PP      PP21111   1.776  14.351  11.508  0.0336  0.0177 -0.2592
11008PP      PP21112   8.313   9.555  10.203  0.0897  0.0772 -0.1488
11009PP      PP21113  10.398  12.194   9.495  0.1266  0.1419 -0.4024
11010PP      PP21114   4.730   0.780  13.178  0.1819 -0.0652 -0.0181
11011PP      PP21115   3.873  13.816   4.250 -0.3350  0.0826  0.1160
11012PP      PP21116  14.417   1.858   9.444  0.1640  0.2419  0.0565
11013PP      PP21117   6.495   1.484   2.649 -0.1794 -0.2577  0.2089
11014PP      PP21118  15.475  11.095   4.041 -0.3169 -0.1052  0.1047
11015PP      PP21119   8.011   8.559   3.228 -0.1805 -0.2031 -0.1730
11016PP      PP21120  13.463   6.727   3.023  0.0994  0.0694 -0.0581
11017PP      PP21121   1.961  10.412   3.644  0.0821 -0.1268  0.0719
11018PP      PP21122  15.612  10.266   9.356 -0.0705  0.1317 -0.0590
11019PP      PP21123   9.088   8.618   1.156  0.4870  0.2044 -0.0084
11020PP      PP21124   7.907   9.773  13.336  0.2146 -0.1711 -0.0394
11021PP      PP21125  14.957   7.845   9.141  0.1928  0.0224 -0.0635
11022PP      PP21126   7.164   2.601   3.093 -0.1872  0.3182 -0.0034
11023PP      PP21127   2.374   7.593   0.485  0.2641 -0.0951 -0.4658
11024PP      PP21128   3.087   9.998  10.218  0.1741  0.1943  0.1538
11025PP      PP21129   7.008  12.617   4.137 -0.4493 -0.2563  0.0430
11026PP      PP21130  12.645  14.410   9.388 -0.1913 -0.1161  0.3330
11027PP      PP21131  12.427  14.952  10.445 -0.0809  0.0744 -0.4151
11028PP      PP21132  12.265  11.213   0.277 -0.0873 -0.0716 -0.1614
11029PP      PP21133   9.031   6.476   4.058  0.1580  0.2399  0.0687
11030PP      PP21134   9.304   2.054   8.838  0.1018 -0.2445 -0.0688
11031PP      PP21135   8.980   3.196  13.049  0.2512  0.0011  0.1088
11032PP      PP21136  11.302  10.580   1.099  0.0316 -0.2423 -0.1028
11033PP      PP21137   9.215   0.770   2.155 -0.0040 -0.2973 -0.1555
11034PP      PP21138   6.367  10.968  12.056  0.0341 -0.0551  0.3312
11035PP      PP21139   8.808   6.271   0.829 -0.0492 -0.1354  0.0023
11036PP      PP21140  11.822  13.412   2.720 -0.2783  0.1651 -0.0444
11037PP      PP21141   2.999   6.670  11.897 -0.0418 -0.0350 -0.0941
11038PP      PP21142   9.703   2.380   2.860  0.1073 -0.3788  0.1615
11039PP      PP21143   9.413   2.161   2.246  0.1393  0.1549  0.1883
11040PP      PP21144   8.243   1.873   1.718  0.1139 -0.0335  0.0742
11041PP      PP21145   1.567  13.349   3.016  0.1950 -0.0458  0.2920
11042PP      PP21146  12.467   3.061  10.112  0.0613 -0.0024  0.2379
11043PP      PP21147   2.099  10.413   9.795 -0.1245 -0.4016 -0.1822
11044PP      PP21148  14.259   7.113  13.109  0.1402 -0.2000 -0.2693
11045PP      PP21149   5.700  10.378   3.086 -0.2057 -0.0671  0.1186
11046PP      PP21150   9.420   4.883   1.930 -0.0175 -0.0687 -0.0886
11047PP      PP21151  13.170   5.282  12.493 -0.1179  0.0178  0.1914
11048PP      PP21152  14.829   8.355   4.000 -0.0650 -0.2300  0.2473
11049PP      PP21153   8.446   8.132   4.284 -0.0440 -0.0447 -0.1472
11050PP      PP21154  13.864  12.873   3.046  0.1509  0.1799  0.2847
11051PP      PP21155  14.886   3.274   2.960  0.0264  0.0154 -0.0298
11052PP      PP21156   5.674  15.522   0.025 -0.0419 -0.2426 -0.0960
11053PP      PP21157   6.336   6.775   2.549 -0.0067 -0.1749 -0.5311
11054PP      PP21158  13.858   3.838  11.455 -0.0064 -0.1383 -0.0488
11055PP      PP21159   9.775  14.328  12.922 -0.0094  0.0937 -0.0183
11056PP      PP21160   5.377   4.682   8.367  0.0071  0.1827 -0.0126
11057PP      PP21161  14.774  12.351   3.090 -0.2740  0.0664 -0.4110
11058PP      PP21162   7.732  10.846  13.164  0.0775  0.1210  0.0748
11059PP      PP21163   2.025  13.881   4.714  0.2320  0.1366 -0.3627
11060PP      PP21164   0.785   9.220   9.181 -0.1031  0.2841 -0.2239
11061PP      PP21165  10.121   0.203   2.863  0.0149  0.1963  0.0229
11062PP      PP21166   3.832  10.155   2.025  0.1208  0.0761  0.0963
11063PP      PP21167  12.056   6.190   2.585 -0.2647  0.1187  0.1427
11064PP      PP21168   6.214   5.579   8.738 -0.1288  0.2289 -0.3881
11065PP      PP21169   0.128  13.133  12.016  0.3790  0.3155  0.0532
11066PP      PP21170   0.884   3.942   2.312 -0.0489  0.3978 -0.1338
11067PP      PP21171   1.478  15.632  13.260 -0.2036 -0.1763 -0.0558
11068PP      PP21172   2.168   1.862   1.115  0.3045  0.0519  0.2337
11069PP      PP21173   6.445  12.507   0.651  0.0672 -0.0817  0.1035
11070PP      PP21174   0.927   3.852  11.073  0.2963 -0.0395  0.0365
11071PP      PP21175   6.938   2.906   9.518 -0.1394  0.4474  0.1645
11072PP      PP21176   1.996  12.229  13.516 -0.0754  0.2263 -0.3642
11073PP      PP21177  14.605   5.309   3.439  0.1423  0.1100 -0.0032
11074PP      PP21178  14.146   1.268   1.611  0.1203 -0.1401 -0.3232
11075PP      PP21179   0.964   8.068  13.399 -0.0425  0.1005  0.2615
11076PP      PP21180   3.378   0.570   3.860 -0.1367  0.0566  0.4962
11077PP      PP21181  10.720   9.722   1.230  0.3293 -0.0994 -0.1174
11078PP      PP21182   8.205   5.282   9.095 -0.3534 -0.2365 -0.1711
11079PP      PP21183  11.093   3.776  11.106  0.1883  0.3558 -0.1834
11080PP      PP21184  15.464  14.600   0.039 -0.0605 -0.0161 -0.1270
11081PP      PP21185  13.996  12.443   2.132 -0.4167  0.1189  0.1088
11082PP      PP21186  15.149   7.937  12.053 -0.2864 -0.2124 -0.1922
11083PP      PP21187   4.852   1.887  10.172 -0.1112 -0.0275  0.0249
11084PP      PP21188  11.483   8.282   9.710  0.0607  0.0793 -0.1700
11085PP      PP21189  13.890  15.307  12.546 -0.0018 -0.1126  0.3597
11086PP      PP21190   3.725  14.486  11.799  0.4488 -0.2607  0.1685
11087PP      PP21191  11.130   2.891  10.836  0.1863  0.0933 -0.0951
11088PP      PP21192   9.690  10.299  11.515 -0.3156 -0.4396  0.0389
11089PP      PP21193  14.950  13.271  13.130 -0.2477  0.0145 -0.0119
11090PP      PP21194   9.392   0.277   9.569 -0.3418  0.0624  0.1194
11091PP      PP21195  12.087   4.991   2.451  0.1417  0.1183  0.2655
11092PP      PP21196   0.815   8.923  11.418 -0.2855 -0.1319 -0.0800
11093PP      PP21197   6.884   0.840   9.143  0.0238 -0.2406  0.2314
11094PP      PP21198   9.382   8.767  10.089 -0.1235 -0.0154  0.0727
11095PP      PP21199   4.845   9.526   3.139  0.1122 -0.0568  0.2430
11096PP      PP21200  13.518  14.567   3.662 -0.3821  0.2257 -0.0053
11097PP      PP21201  10.920   7.947  13.406 -0.2527 -0.0204 -0.3556
11098PP      PP21202   5.880   0.601   1.088  0.1858  0.1170  0.1250
11099PP      PP21203   9.482   1.274   2.137  0.0702  0.1725 -0.0586
11100PP      PP21204   0.244  12.150  13.524  0.0979 -0.3029  0.0117
11101PP      PP21205  12.979  14.609   1.553 -0.0317 -0.0816  0.1012
11102PP      PP21206  13.728   7.256  11.373 -0.1575 -0.3471  0.0327
11103PP      PP21207  13.844  12.741   0.853  0.1735  0.0732 -0.0854
11104PP      PP21208  13.364  10.100   2.118 -0.0800  0.2456  0.1585
11105PP      PP21209   7.195  11.414  13.194  0.1431  0.1995  0.1982
11106PP      PP21210  15.519   0.167  10.441  0.1373 -0.1991 -0.1694
11107PP      PP21211  13.086   8.470  13.780  0.0639 -0.0181 -0.1711
11108PP      PP21212   0.671  12.914   2.721  0.1107  0.1472  0.1134
11109PP      PP21213   0.246   2.271   3.652  0.1617  0.0347 -0.2135
11110PP      PP21214   9.966   1.273  12.702 -0.0673  0.0058  0.0529
11111PP      PP21215   8.835   7.261  10.819 -0.2040 -0.0635 -0.0497
11112PP      PP21216   9.721   7.692   3.059 -0.4725  0.0056  0.0183
11113PP      PP21217   4.944   3.982   9.280  0.0125  0.1748  0.4039
11114PP      PP21218  12.460  11.509  10.089 -0.0918 -0.0960 -0.1927
11115PP      PP21219   1.302  15.187  13.606  0.0988  0.3281  0.0306
11116PP      PP21220  14.412   3.347  13.039  0.1557 -0.0841 -0.0667
11117PP      PP21221   7.177  10.825   5.509  0.0641 -0.2873  0.1992
11118PP      PP21222   7.261  11.626   9.710  0.0435 -0.0653 -0.1961
11119PP      PP21223  12.430   4.688   2.685 -0.3277 -0.0965 -0.2334
11120PP      PP21224   2.724   9.772  10.898 -0.2379 -0.3572  0.1581
11121PP      PP21225   8.148  11.673  10.847  0.3559 -0.1327  0.1913
11122PP      PP21226   3.009   1.356  13.255 -0.0660  0.1221  0.3757
11123PP      PP21227  13.983   9.026   0.114 -0.0404 -0.1180 -0.0103
11124PP      PP21228   8.830   7.721   9.410  0.1030  0.1612  0.0487
11125PP      PP21229  10.923   4.833   2.169  0.0748 -0.3917 -0.5422
11126PP      PP21230   6.541  14.528   4.616 -0.3167  0.1016  0.0747
11127PP      PP21231   9.530  15.162   0.584  0.0468 -0.2236 -0.0347
11128PP      PP21232   5.059  11.326  10.547  0.0923  0.0926  0.0386
11129PP      PP21233  12.796   8.957   0.989  0.0131 -0.0659 -0.1604
11130PP      PP21234   6.209   2.885   9.855 -0.0525 -0.3395  0.0835
11131PP      PP21235   3.783   8.539   3.551  0.2102  0.3379  0.1048
11132PP      PP21236   0.177   8.779   1.942  0.0644 -0.2760 -0.3325
11133PP      PP21237   1.745  10.156  10.376 -0.0462  0.2807 -0.0247
11134PP      PP21238   5.682  12.165   3.178  0.0492  0.1218 -0.2398
11135PP      PP21239   2.225  15.651  13.128  0.0381  0.2106 -0.3507
11136PP      PP21240   7.464   6.047   4.010 -0.2230 -0.0767 -0.1727
11137PP      PP21241   0.825  11.690   0.302  0.1367  0.0143 -0.4185
11138PP      PP21242  15.276   6.848   3.740  0.1393 -0.0890  0.0023
11139PP      PP21243   4.903   0.632  12.718 -0.2182  0.0212  0.2000
11140PP      PP21244   0.234   8.257   1.971 -0.2705  0.1334 -0.3237
11141PP      PP21245   2.113   8.284  10.969  0.1358 -0.0119 -0.0987
11142PP      PP21246   5.441   9.787   1.435 -0.2013  0.0215 -0.1573
11143PP      PP21247  14.190  12.286  12.044  0.2151 -0.1248  0.0817
11144PP      PP21248   5.345   7.989  10.281 -0.2019 -0.0045  0.0797
11145PP      PP21249   0.490  14.869  10.361  0.1357 -0.0851 -0.2120
11146PP      PP21250   4.025  10.539  10.142  0.1049 -0.1300 -0.1349
11147PP      PP21251  14.574   4.570  11.313  0.4358  0.0100  0.2083
11148PP      PP21252   9.377   2.323  12.427 -0.1204 -0.1544  0.0243
11149PP      PP21253  13.193   8.716   3.774  0.2309 -0.1610 -0.1444
11150PP      PP21254   7.388   0.236   9.722 -0.0657 -0.3122  0.3606
11151PP      PP21255  10.322  15.211  11.634  0.1383 -0.1786  0.0866
11152PP      PP21256  11.167   5.601  10.599 -0.1980 -0.0292  0.0632
11153PP      PP21257  13.333   2.831   0.833  0.0119  0.1449 -0.1940
11154PP      PP21258   6.542   1.027  10.845  0.2548 -0.1125 -0.0413
11155PP      PP21259   3.435   4.274  13.361  0.1399 -0.2055 -0.1384
11156PP      PP21260   6.651   7.818   9.704 -0.1652  0.1174  0.0784
11157PP      PP21261   5.865   1.722   1.982 -0.3152  0.0771 -0.0338
11158PP      PP21262  13.288   6.211   0.143  0.1221 -0.1379 -0.0860
11159PP      PP21263  12.883  13.027  11.907  0.1513 -0.0882  0.2820
11160PP      PP21264  14.609  14.026   3.502 -0.2853 -0.0576  0.3353
11161PP      PP21265   4.809   0.990   3.698  0.1434  0.3439  0.2223
11162PP      PP21266  11.327  12.251  13.567 -0.1060 -0.1983 -0.0840
11163PP      PP21267   2.118  12.518   2.662 -0.1106  0.1488 -0.1787
11164PP      PP21268  15.600   5.446   9.142  0.1661 -0.3006 -0.1493
11165PP      PP21269  12.184   4.422  10.961  0.2687  0.3185  0.3017
11166PP      PP21270   9.103  11.799   9.699 -0.1273 -0.2803 -0.3759
11167PP      PP21271  14.985  12.680  10.434 -0.1064  0.2745  0.0401
11168PP      PP21272  13.163   1.840  12.759  0.2730  0.0266  0.2344
11169PP      PP21273  13.263   1.739  10.718  0.0403  0.3474  0.3921
11170PP      PP21274  10.217   9.801   2.349  0.0610 -0.4180 -0.2349
11171PP      PP21275   6.139  14.002   2.035 -0.2335 -0.0541 -0.0176
11172PP      PP21276  10.344  15.357   2.033 -0.0317 -0.1383 -0.0895
11173PP      PP21277  11.215   5.851   8.754 -0.1075 -0.1079 -0.1805
11174PP      PP21278   3.042  14.751   1.386 -0.0611  0.1003  0.1558
11175PP      PP21279  10.799   2.231  10.535  0.4416 -0.2093 -0.3647
11176PP      PP21280  11.757  11.584   0.473  0.1207 -0.3559  0.0657
11177PP      PP21281   3.558   2.752   0.426 -0.3276 -0.3005 -0.2178
11178PP      PP21282   6.362   8.093   4.141 -0.0107 -0.2266 -0.1033
11179PP      PP21283   6.578   6.441  11.448 -0.1780  0.0740 -0.0636
11180PP      PP21284   6.096   5.712  12.539 -0.1465  0.2265 -0.3524
11181PP      PP21285   6.002  11.720   9.514  0.4111 -0.0944 -0.1342
11182PP      PP21286   2.876   3.825   2.634  0.1382  0.0881  0.0334
11183PP      PP21287   8.409   2.118  12.549 -0.0231 -0.0400 -0.1643
11184PP      PP21288   0.772   5.473  12.164  0.3636  0.2363 -0.3797
11185PP      PP21289  14.486   3.411  10.401 -0.0524  0.0462 -0.0484
11186PP      PP21290   4.144  14.217   0.573  0.0971  0.1004  0.3043
11187PP      PP21291   9.338  11.350  12.102  0.3119 -0.0781  0.1993
11188PP      PP21292  10.148  12.927   0.888  0.0795 -0.1527  0.1341
11189PP      PP21293   4.745   5.106   0.699 -0.2084 -0.1355 -0.2744
11190PP      PP21294  12.456  15.726   1.108  0.4455 -0.0417 -0.2698
11191PP      PP21295  15.437   2.097  12.922  0.0004  0.1502 -0.1508
11192PP      PP21296  11.953   0.824  10.354  0.0942 -0.3033 -0.1094
11193PP      PP21297  15.347  14.369  10.692 -0.0578 -0.0967 -0.2065
11194PP      PP21298  11.127  12.829  13.157 -0.1059  0.2379  0.0499
11195PP      PP21299   1.084  15.179  12.555  0.0772 -0.2115  0.0399
11196PP      PP21300   6.782  15.066   2.715 -0.0871  0.0042  0.2109
11197PP      PP21301   2.270   7.182  12.718  0.2035 -0.0771  0.0869
11198PP      PP21302  13.173   1.902  10.157 -0.0544 -0.1246  0.1218
11199PP      PP21303  13.793   8.041   0.958  0.2105  0.0217 -0.1983
11200PP      PP21304  12.277   2.760  13.212  0.1117  0.0662 -0.0710
11201PP      PP21305   1.622  15.572   3.320 -0.2212  0.1654 -0.0795
11202PP      PP21306  10.986   1.545   1.361 -0.0248  0.0946  0.0313
11203PP      PP21307  12.094  11.825  13.760  0.3026  0.0107 -0.0888
11204PP      PP21308  11.457   8.196  11.888  0.3740  0.1386  0.1158
11205PP      PP21309   7.078  10.662   0.568  0.0215 -0.1425  0.2135
11206PP      PP21310   9.948  11.028  13.544  0.0050  0.0472  0.3968
11207PP      PP21311   7.799   6.640  13.208 -0.4165  0.3558  0.1846
11208PP      PP21312  13.739  10.745  10.927 -0.0386 -0.0890  0.1589
11209PP      PP21313   4.596  15.462   4.828 -0.2138 -0.1451  0.0804
11210PP      PP21314  11.200   9.351   8.864 -0.0927  0.1065  0.1655
11211PP      PP21315  10.992   8.685  11.027 -0.0864  0.2526  0.2009
11212PP      PP21316   6.965   8.103   3.493  0.2652 -0.0089  0.0511
11213PP      PP21317   2.548   5.250   4.316 -0.1432  0.0961  0.2260
11214PP      PP21318   3.130  14.951   4.779 -0.1445 -0.1637  0.0758
11215PP      PP21319   1.930   6.789  12.445  0.3309 -0.0003  0.1753
11216PP      PP21320   0.183   1.912  12.886 -0.1011 -0.0232  0.1996
11217PP      PP21321   6.575  11.572   0.763 -0.0934 -0.0593 -0.2858
11218PP      PP21322   1.980   6.782  10.566 -0.2614  0.0465  0.0397
11219PP      PP21323   6.995   5.686  11.870 -0.3308 -0.0035 -0.0730
11220PP      PP21324   3.380   4.071   1.866  0.1178 -0.2867 -0.0320
11221PP      PP21325   5.122  12.888  11.445  0.0904  0.1739  0.2805
11222PP      PP21326   1.284  11.210  13.701  0.1193 -0.1515 -0.0830
11223PP      PP21327   8.671   6.930  12.022 -0.1227 -0.1370 -0.0605
11224PP      PP21328  15.336   3.570  12.507 -0.1490  0.0938 -0.1201
11225PP      PP21329  11.841   2.047  10.552  0.0000  0.0943  0.1908
11226PP      PP21330   6.121  12.418  12.031 -0.0817  0.3133 -0.0369
11227PP      PP21331  14.469  11.083   9.468 -0.1222  0.2411 -0.0302
11228PP      PP21332   1.909   0.538   2.286  0.2062  0.1456 -0.0441
11229PP      PP21333  11.584   6.146   2.337  0.1714 -0.2010 -0.0899
11230PP      PP21334   4.449  12.436   5.363  0.0151  0.1795  0.2066
11231PP      PP21335  11.608  13.210   3.578  0.0962 -0.1737 -0.0259
11232PP      PP21336   9.947  12.420   1.311  0.0120 -0.2308 -0.1761
11233PP      PP21337  12.025   5.417  10.059 -0.1467 -0.1539 -0.0248
11234PP      PP21338   4.425   4.188  10.169  0.1464  0.0393  0.1684
11235PP      PP21339   5.330   8.446  10.498 -0.1044  0.1232 -0.2092
11236PP      PP21340   7.212   2.733   8.218 -0.0970 -0.0804  0.1919
11237PP      PP21341   0.996  13.928  11.903 -0.1068  0.2407 -0.2886
11238PP      PP21342  13.450   5.051  12.934  0.0324 -0.2370 -0.1187
11239PP      PP21343   7.238  10.948   9.832  0.1026  0.2166  0.1658
11240PP      PP21344   6.733  11.204  11.183 -0.0190  0.1714 -0.1119
11241PP      PP21345  13.927  13.147  12.150 -0.1059 -0.0161  0.2887
11242PP      PP21346   1.588   9.275  10.637  0.0045  0.0440  0.0458
11243PP      PP21347  12.432   4.171  10.539 -0.1004 -0.0171 -0.0036
11244PP      PP21348   7.436   4.000  11.229 -0.2603 -0.1970  0.0418
11245PP      PP21349   5.863   8.930   2.400  0.1218  0.0620  0.0260
11246PP      PP21350  11.362   8.964  11.405 -0.1456  0.0788 -0.0359
11247PP      PP21351   6.389  13.706  10.278  0.0114  0.1808 -0.1265
11248PP      PP21352   0.105   9.832   9.173 -0.1494  0.3227  0.0762
11249PP      PP21353   0.189   5.401  11.411  0.2551  0.1112 -0.3581
11250PP      PP21354  14.213   6.591   9.067  0.0104 -0.1436  0.0492
11251PP      PP21355   9.674   7.109  13.311 -0.0790 -0.3864  0.0859
11252PP      PP21356  14.828  11.867   0.844  0.0952  0.0428 -0.2609
11253PP      PP21357   0.661   4.323   3.492 -0.1608  0.2565 -0.0801
11254PP      PP21358   7.241  10.134  13.179 -0.1150  0.1737  0.0971
11255PP      PP21359   1.610  11.390   9.518  0.0650  0.2394 -0.2027
11256PP      PP21360   5.127   7.807   2.813 -0.0845  0.2121  0.1524
11257PP      PP21361   0.029  15.519  11.560 -0.2348  0.2653  0.2728
11258PP      PP21362  15.379   5.282  10.537 -0.0488 -0.0293 -0.1356
11259PP      PP21363   1.909  15.593   0.281 -0.0889  0.1565 -0.1446
11260PP      PP21364   5.991  15.169  13.422 -0.0622 -0.0078 -0.0695
11261PP      PP21365  15.059   9.578   0.309 -0.0186 -0.1980  0.1171
11262PP      PP21366  14.863   8.635  11.337  0.0361  0.0467  0.2482
11263PP      PP21367   5.961  15.386   1.951 -0.2154 -0.0704  0.1162
11264PP      PP21368   6.181   0.270   0.676  0.0226  0.1614  0.0491
11265PP      PP21369   8.399   8.708  11.468 -0.0121  0.4011  0.2119
11266PP      PP21370   0.862  12.266  10.570 -0.4104  0.2393 -0.0420
11267PP      PP21371  12.484   1.431   8.836  0.1973 -0.2427  0.1462
11268PP      PP21372  10.817   5.363  10.180  0.0791 -0.1165 -0.2387
11269PP      PP21373   5.896   3.616   9.470 -0.2566 -0.2788  0.0654
11270PP      PP21374  15.589  13.088  12.461  0.1141 -0.1803  0.1392
11271PP      PP21375   0.006   7.148   3.953  0.1265 -0.3552 -0.3272
11272PP      PP21376  10.153   9.997   8.839  0.0683 -0.0409 -0.1511
11273PP      PP21377   4.467   1.783   3.459 -0.1064  0.3719  0.1334
11274PP      PP21378   8.220  15.029   1.890 -0.1864  0.1092 -0.2694
11275PP      PP21379   8.260   1.778   0.326  0.2773  0.0616  0.1823
11276PP      PP21380   4.251  12.806   3.294 -0.1278  0.0313 -0.1886
11277PP      PP21381   9.455   2.832  13.042 -0.0516  0.0550 -0.2189
11278PP      PP21382   6.311  14.798   1.512  0.1036 -0.0084 -0.0209
11279PP      PP21383   6.012   4.156   3.489 -0.1207  0.0384 -0.2080
11280PP      PP21384   4.020   0.615   2.150  0.2494  0.0566 -0.1529
11281PP      PP21385   9.905  10.066   1.991 -0.0909 -0.2708  0.0786
11282PP      PP21386   5.116   3.426  11.663  0.0055 -0.0340  0.0893
11283PP      PP21387  13.724  12.758   5.125 -0.1626 -0.0956 -0.3421
11284PP      PP21388   4.217   1.348  13.511 -0.1099 -0.0810  0.0395
11285PP      PP21389  13.306   1.987  11.792  0.0092 -0.0817  0.0576
11286PP      PP21390   0.955  10.786   2.581  0.0690 -0.0686  0.0679
11287PP      PP21391  14.555   1.356   9.509 -0.2930 -0.0493 -0.0095
11288PP      PP21392  11.216   7.364   1.926  0.0569  0.1732 -0.2739
11289PP      PP21393   4.633   0.930  10.234 -0.2489  0.1509  0.1859
11290PP      PP21394   4.065   9.125   0.585 -0.0014 -0.2156  0.0341
11291PP      PP21395  11.851  10.915  11.905 -0.0322 -0.3465 -0.0138
11292PP      PP21396   1.031   7.820   9.379 -0.1340 -0.1077 -0.2195
11293PP      PP21397  14.743   7.738   1.821  0.0628 -0.3088 -0.2080
11294PP      PP21398  11.711   5.377  12.745  0.2637 -0.1346 -0.3193
11295PP      PP21399  10.118   2.659   9.973  0.0460 -0.2877  0.2498
11296PP      PP21400  14.189  10.496   1.662 -0.1284 -0.3903  0.0481
11297PP      PP21401  13.439  14.952  13.035  0.1113 -0.1024 -0.0612
11298PP      PP21402   4.349   1.096  11.885 -0.0814  0.0828  0.0853
11299PP      PP21403  13.297  10.875  11.174 -0.0217 -0.5041  0.3922
11300PP      PP21404  13.565   0.158  11.632  0.0690 -0.0935 -0.2892
11301PP      PP21405  10.622  11.406   3.672  0.2500  0.0221  0.3080
11302PP      PP21406  12.642  13.243  12.372 -0.2450 -0.1074  0.1015
11303PP      PP21407  15.623   0.951   4.121  0.1190  0.3306 -0.0889
11304PP      PP21408   9.272   8.308  11.819 -0.3585 -0.2126  0.0827
11305PP      PP21409   6.004   1.101  10.786 -0.0306  0.1269 -0.0656
11306PP      PP21410   2.021  14.605  11.886 -0.1471  0.0845  0.1237
11307PP      PP21411   3.586  15.461  10.305 -0.0910 -0.2916  0.0166
11308PP      PP21412  14.253  13.326   5.295  0.0047  0.1163  0.1171
11309PP      PP21413   2.429  12.147  13.233 -0.3554  0.1210  0.1288
11310PP      PP21414   4.522   2.582  11.493 -0.2355  0.1129  0.3235
11311PP      PP21415   8.182   0.951   2.060  0.0725 -0.0043 -0.0994
11312PP      PP21416   8.294   8.710   9.022  0.2073  0.0187 -0.3188
11313PP      PP21417   1.050  13.792  12.500 -0.1732 -0.0565  0.2593
11314PP      PP21418   2.550   6.240   1.662  0.0386 -0.0364  0.2082
11315PP      PP21419  13.296   0.190  10.749  0.3110  0.3278  0.4126
11316PP      PP21420   4.876  10.057   4.773 -0.0756 -0.0320  0.1217
11317PP      PP21421   3.939  10.610   5.490  0.0738 -0.0972  0.0262
11318PP      PP21422  14.490   6.446   0.996 -0.1024  0.1774 -0.0121
11319PP      PP21423  10.002  11.647   1.211  0.3210 -0.2073  0.0413
11320PP      PP21424   5.716   1.146   9.395 -0.4034 -0.2462  0.4216
11321PP      PP21425  10.745   0.144   3.160  0.2099 -0.0048 -0.1851
11322PP      PP21426  13.820  12.170   4.950  0.1222  0.0297  0.3223
11323PP      PP21427   2.885   5.998   3.310 -0.0200 -0.1790  0.2952
11324PP      PP21428   6.226  13.841   9.520  0.1232  0.1408 -0.3964
11325PP      PP21429  14.826  10.550   2.036  0.0341  0.1685  0.1491
11326PP      PP21430  15.662   0.329   2.998  0.0094  0.0396 -0.4845
11327PP      PP21431   5.039  14.223   5.163  0.1529  0.4029 -0.4897
11328PP      PP21432   4.841   4.314  13.397  0.1323  0.1463 -0.0967
11329PP      PP21433   7.215  12.614   9.694 -0.0756 -0.2096 -0.0306
11330PP      PP21434  10.074   2.223  12.709 -0.1596 -0.1235  0.1959
11331PP      PP21435   4.578   3.382   8.240  0.1677  0.3768  0.0725
11332PP      PP21436  13.968  12.333  10.986 -0.2082  0.1027 -0.0236
11333PP      PP21437   3.888  13.230   9.809  0.0860 -0.4346  0.1044
11334PP      PP21438  13.616   4.562   1.153 -0.4505 -0.2601 -0.3891
11335PP      PP21439   4.744   8.525  11.889  0.1258 -0.0252  0.0298
11336PP      PP21440  13.323  12.504   4.980 -0.0756 -0.1697  0.2842
11337PP      PP21441  10.660   9.808  11.536 -0.3588  0.3450 -0.1109
11338PP      PP21442  12.848   9.498   4.016 -0.2422  0.2122 -0.0993
11339PP      PP21443   7.408  11.839   3.628 -0.0729 -0.0488 -0.0681
11340PP      PP21444  10.708  15.550  11.666  0.0243 -0.0320  0.0393
11341PP      PP21445   6.767  12.991  10.345  0.0106  0.1206  0.0115
11342PP      PP21446  11.852  12.685  10.501 -0.1605 -0.0724 -0.1238
11343PP      PP21447   4.115  14.764   0.660  0.2168  0.0014 -0.1776
11344PP      PP21448   2.374  12.008  10.323 -0.0995 -0.1192  0.1893
11345PP      PP21449   7.035  10.445   4.133 -0.3228 -0.2300 -0.1939
11346PP      PP21450   3.030   4.415  13.116  0.0239  0.1777  0.4167
11347PP      PP21451   3.851   5.034  11.975  0.0405  0.1805 -0.2657
11348PP      PP21452   1.822  13.243   1.548  0.3595  0.0933  0.1982
11349PP      PP21453   7.870  12.644   3.179 -0.0475 -0.2642  0.1725
11350PP      PP21454  10.739  13.848   4.318 -0.0714  0.0430  0.0904
11351PP      PP21455   2.860   0.905  13.162  0.3211 -0.2256 -0.0534
11352PP      PP21456  11.691   2.510   3.537 -0.1588 -0.2150  0.0101
11353PP      PP21457  13.367  11.537   1.855  0.0938 -0.2425  0.0112
11354PP      PP21458  10.149   7.458   8.998 -0.2929 -0.1419 -0.0125
11355PP      PP21459   3.747   0.920   1.310  0.2524 -0.1721  0.1106
11356PP      PP21460   6.205  15.064   0.223 -0.4582  0.0791  0.1188
11357PP      PP21461   1.577  14.838   8.873  0.0109  0.2959 -0.1516
11358PP      PP21462   7.564   7.812  13.377 -0.0748  0.2494 -0.3028
11359PP      PP21463  13.938  14.793   0.061  0.0259  0.1383  0.0370
11360PP      PP21464   0.577   2.109  10.135  0.0288 -0.1488 -0.3153
11361PP      PP21465  14.303  13.791   3.144 -0.0021 -0.1175  0.3638
11362PP      PP21466  11.359   5.759  12.780 -0.0769  0.0715  0.1547
11363PP      PP21467   2.851  14.089   4.576 -0.3563  0.3133 -0.0545
11364PP      PP21468   5.712   7.502   2.545  0.0010  0.2097  0.3233
11365PP      PP21469   7.954   7.523   3.908  0.2600 -0.4580  0.1090
11366PP      PP21470  13.617  10.831   0.723  0.2388 -0.2511  0.1471
11367PP      PP21471   0.992   1.233   1.211 -0.1629 -0.0709 -0.1015
11368PP      PP21472   4.401  11.703   4.584  0.1846 -0.3178 -0.2447
11369PP      PP21473  10.686  15.102   1.791 -0.2881  0.1108 -0.0441
11370PP      PP21474   1.577   9.500  11.137 -0.0415 -0.3178  0.2898
11371PP      PP21475   4.842   1.771  13.507 -0.2076 -0.0092  0.0966
11372PP      PP21476   7.706   2.910   8.275 -0.0049  0.1751 -0.1059
11373PP      PP21477  10.040  15.378   1.053  0.1989 -0.3118 -0.1047
11374PP      PP21478  15.393   1.102   9.836  0.1870  0.3002  0.2234
11375PP      PP21479  11.759  14.178   2.027 -0.2586 -0.2695 -0.1104
11376PP      PP21480  12.465   7.177  11.551  0.2189  0.0127  0.1442
11377PP      PP21481   3.821   7.705  11.499 -0.2590  0.0373  0.4313
11378PP      PP21482   7.934   7.815  12.432 -0.0737 -0.3399  0.1041
11379PP      PP21483   8.257   2.527  12.204 -0.2842 -0.0639  0.5148
11380PP      PP21484   2.312  14.363  13.342  0.1699 -0.1031  0.0385
11381PP      PP21485  14.765   5.972  12.243 -0.0097  0.1324  0.2808
11382PP      PP21486   9.364  11.208  12.689 -0.2646 -0.3806  0.3400
11383PP      PP21487   7.667   5.565   1.967 -0.3020  0.2785 -0.1527
11384PP      PP21488   1.291  14.500   1.145 -0.1589 -0.1741 -0.3247
11385PP      PP21489   3.938  13.574   9.412 -0.0049 -0.1523  0.2335
11386PP      PP21490   5.961   9.296   1.553  0.0145 -0.0262  0.0486
11387PP      PP21491   5.999   9.045  10.859  0.1359 -0.1367 -0.0956
11388PP      PP21492   7.846  13.394   0.506  0.1940 -0.0677  0.0734
11389PP      PP21493   1.275  13.122   3.928 -0.2996  0.1108 -0.0731
11390PP      PP21494  14.678   3.276   9.006  0.0459  0.0571 -0.4807
11391PP      PP21495   6.311   4.312  12.582  0.0514 -0.0573  0.0370
11392PP      PP21496   7.462  13.980   1.391  0.1518  0.1749 -0.0490
11393PP      PP21497  12.571  10.405   1.714  0.1426 -0.1186 -0.0962
11394PP      PP21498   1.346   3.372   1.762 -0.0556 -0.2567 -0.0401
11395PP      PP21499   6.889  12.576  10.118  0.1747  0.1960 -0.0134
11396PP      PP21500   2.176   4.125   1.836 -0.1107 -0.2799  0.2757
11397PP      PP21501   1.693   4.282  13.093  0.0461  0.1603 -0.1164
11398PP      PP21502   1.316   9.940  11.558 -0.2606 -0.0021 -0.0307
11399PP      PP21503   0.631   5.994  10.056  0.2477 -0.1232 -0.0921
11400PP      PP21504   0.302   8.225   0.706  0.1025 -0.0268  0.1096
11401PP      PP21505   3.575   9.604  12.627  0.0720  0.2176  0.0111
11402PP      PP21506   7.468   9.510  13.244  0.4773 -0.1716  0.0638
11403PP      PP21507  12.037   2.393  12.671  0.0345  0.0527  0.3031
11404PP      PP21508  14.389   2.094   0.889 -0.0442 -0.2412 -0.3072
11405PP      PP21509   0.426   7.081  10.773  0.0217  0.1778  0.1253
11406PP      PP21510   9.928  11.514   1.709  0.0819 -0.1436 -0.1418
11407PP      PP21511  12.380  14.278   0.646  0.2270 -0.2225  0.1051
11408PP      PP21512   8.764  14.986  12.250 -0.0729 -0.0372  0.0134
11409PP      PP21513  14.184   6.776  12.422 -0.0172 -0.1285 -0.0645
11410PP      PP21514   2.831   9.619   2.048  0.2189 -0.0310  0.2956
11411PP      PP21515   6.058   0.169   2.069 -0.0790  0.2270  0.1215
11412PP      PP21516  10.403   6.604  12.399 -0.0205  0.2330  0.0047
11413PP      PP21517   7.151  12.038  11.453 -0.1746 -0.1337 -0.1036
11414PP      PP21518  12.482   5.654  12.131 -0.0203  0.0345  0.2744
11415PP      PP21519   2.197  11.105  10.131  0.0727  0.0696  0.0781
11416PP      PP21520   0.569   2.405   2.226  0.4028 -0.2066 -0.1610
11417PP      PP21521  13.785   7.569   0.493  0.2066  0.1892  0.0188
11418PP      PP21522  13.968   2.616  10.482 -0.1703 -0.1020  0.3121
11419PP      PP21523  11.671   5.927   2.765  0.1274 -0.1644  0.0314
11420PP      PP21524  13.483   1.492  13.590 -0.0061  0.0281  0.0629
11421PP      PP21525  11.669  10.565   1.804  0.0832 -0.0078 -0.1161
11422PP      PP21526  11.759   1.114   9.370  0.0715  0.0969 -0.4043
11423PP      PP21527  11.110  11.816   9.982  0.0827  0.2852  0.0356
11424PP      PP21528   7.557  11.928   9.401  0.3061 -0.1622 -0.1309
11425PP      PP21529  13.427  11.494   1.400  0.0150 -0.0177  0.3744
11426PP      PP21530  11.110   4.585   8.733 -0.4174  0.0517 -0.0491
11427PP      PP21531   1.574   6.987   3.447  0.0043 -0.1141  0.3250
11428PP      PP21532  13.298  15.689  13.369  0.0798  0.2074  0.1292
11429PP      PP21533  15.651   8.234   3.821  0.0357  0.0004  0.0424
11430PP      PP21534  12.800  14.606   3.921  0.1466  0.0861 -0.2149
11431PP      PP21535   7.616  15.289   4.192  0.2555  0.2678 -0.1137
11432PP      PP21536   1.070   3.557  10.737 -0.0314 -0.1374  0.2325
11433PP      PP21537   9.390   5.038   8.411 -0.0020  0.0667 -0.1419
11434PP      PP21538  15.013  11.092   9.521 -0.1750  0.0801  0.4784
11435PP      PP21539   1.204   0.392   1.572 -0.0758 -0.0033  0.3055
11436PP      PP21540  11.389  15.440   3.633 -0.1187  0.2810  0.1397
11437PP      PP21541  10.776   7.471  10.150  0.0915  0.1275  0.2151
11438PP      PP21542   4.099   2.329  13.722 -0.2599 -0.0596 -0.1632
11439PP      PP21543   9.717  10.774  13.001  0.0972 -0.1515 -0.1845
11440PP      PP21544   2.384   9.091   4.024  0.4403  0.0637 -0.0232
11441PP      PP21545   7.830   9.513  11.582 -0.0135  0.2038 -0.0127
11442PP      PP21546  10.015  13.212  11.010  0.1864  0.1085 -0.2072
11443PP      PP21547   9.202   3.675  11.807 -0.0697 -0.1449 -0.1823
11444PP      PP21548  15.567   2.355   1.238 -0.0062  0.0326  0.1044
11445PP      PP21549   2.465  13.917   4.032  0.0360  0.2230 -0.1394
11446PP      PP21550   7.829  13.462   1.468 -0.1675  0.1858 -0.0611
11447PP      PP21551  13.674   2.638   0.065 -0.1248  0.0101  0.0971
11448PP      PP21552  11.154   8.562  11.668  0.4257 -0.1477 -0.0852
11449PP      PP21553   2.908  13.982   2.013  0.1812 -0.1620 -0.1049
11450PP      PP21554   7.721   9.192   1.006 -0.3320 -0.0078 -0.2384
11451PP      PP21555  14.128   5.422   3.540  0.2092 -0.0886  0.0095
11452PP      PP21556   9.186   2.240  10.411 -0.1741  0.0867 -0.1717
11453PP      PP21557   2.197   3.456   0.646  0.0362 -0.1993 -0.1104
11454PP      PP21558   5.478   3.159   9.240 -0.2707 -0.0532 -0.1692
11455PP      PP21559  10.882  12.508  13.563  0.0054  0.2102 -0.2258
11456PP      PP21560   0.821   5.647  10.834 -0.2363 -0.2063 -0.2118
11457PP      PP21561   2.732   9.654   3.373 -0.3420  0.2140  0.0827
11458PP      PP21562  12.928  11.089   0.225  0.1029 -0.0152  0.0575
11459PP      PP21563  13.795   5.924   8.654  0.0460 -0.0797 -0.2671
11460PP      PP21564  11.984   5.135   3.453  0.1306  0.2013  0.1599
11461PP      PP21565  11.422   1.070   2.008 -0.2865 -0.0572 -0.0618
11462PP      PP21566   8.389   6.607   1.853  0.2753 -0.0875  0.0370
11463PP      PP21567   9.736  10.869   9.339  0.0243 -0.0805  0.0628
11464PP      PP21568  12.467  11.086   9.813  0.1084  0.2564 -0.1183
11465PP      PP21569   8.778  11.497  11.729  0.3735  0.0213  0.1863
11466PP      PP21570   6.814  11.517   4.407 -0.1751  0.0107  0.0015
11467PP      PP21571   7.050  10.028   0.945  0.2978 -0.0103 -0.0334
11468PP      PP21572   4.761   1.104  13.592  0.3027 -0.3730 -0.1023
11469PP      PP21573   7.887   7.896  12.983  0.1112 -0.1139  0.3254
11470PP      PP21574   3.851   7.269  10.382 -0.0443  0.2225  0.1015
11471PP      PP21575   1.750   9.308  11.589  0.0527  0.2107  0.0169
11472PP      PP21576   2.258   6.108   4.698  0.0840 -0.1771  0.1968
11473PP      PP21577   9.974  14.945   2.927  0.0701 -0.0171  0.0129
11474PP      PP21578   5.937  14.032  10.019  0.0192 -0.2985  0.1056
11475PP      PP21579   9.798  10.610   1.877 -0.1059  0.0286  0.1377
11476PP      PP21580   2.119   2.527  10.700 -0.0937  0.0070 -0.1636
11477PP      PP21581   5.354   7.772  12.555  0.1137  0.0213  0.0263
11478PP      PP21582   7.841   4.922   8.716  0.0220  0.4667 -0.2968
11479PP      PP21583   2.099  13.054   1.203 -0.1071  0.1965  0.1450
11480PP      PP21584  12.900   0.053   2.807 -0.0913 -0.0265  0.1686
11481PP      PP21585   8.780   6.091  13.299 -0.1062 -0.3578 -0.0625
11482PP      PP21586   5.519   4.111   2.717  0.0144 -0.0767 -0.2170
11483PP      PP21587   4.963   8.352   0.657 -0.0100  0.0488  0.0239
11484PP      PP21588   3.275  12.373  13.674  0.0899 -0.1301  0.0990
11485PP      PP21589   2.098  13.572   4.177  0.2074 -0.2015 -0.0568
11486PP      PP21590   8.189   4.620  11.022  0.3565 -0.0270 -0.2267
11487PP      PP21591  11.596  11.283  10.506 -0.0989  0.1486 -0.0027
11488PP      PP21592   1.454  10.420  12.905 -0.0102  0.0009  0.0915
11489PP      PP21593  12.694  12.740  12.467  0.0317 -0.3631  0.1137
11490PP      PP21594   8.413   6.768   8.373  0.3098  0.1459 -0.0455
11491PP      PP21595  13.198  12.988   4.425  0.0558  0.0369 -0.1610
11492PP      PP21596  12.214   3.047   8.678 -0.1315 -0.1665 -0.1221
11493PP      PP21597   5.785   3.798   8.266 -0.4453 -0.2552  0.2944
11494PP      PP21598   8.795   6.778  13.066  0.2428 -0.1079  0.1088
11495PP      PP21599   2.784  11.714   2.591  0.0382  0.0136  0.0154
11496PP      PP21600   9.538   9.347  13.715 -0.0538 -0.0479 -0.0212
11497PP      PP21601   8.242   2.928   1.780  0.3835 -0.0225  0.3133
11498PP      PP21602   3.758  11.278   1.217  0.4633 -0.2007  0.1096
11499PP      PP21603   6.448   7.066   1.418  0.0243 -0.0426  0.0090
11500PP      PP21604  15.269  10.351  12.390 -0.0955 -0.2625  0.1839
11501PP      PP21605  15.037   7.446  10.637 -0.1103  0.0163  0.3516
11502PP      PP21606   4.559  13.363   2.674  0.0929  0.2049  0.1617
11503PP      PP21607   4.139   7.076  10.846  0.0718  0.4933 -0.2521
11504PP      PP21608  10.310  14.687   9.985  0.1245  0.1407  0.0831
11505PP      PP21609   1.912  12.077  11.738  0.1361  0.0928 -0.2686
11506PP      PP21610   8.743   2.118   9.457  0.0492 -0.0984  0.2853
11507PP      PP21611   9.591  12.610   4.379 -0.1429 -0.1250  0.3130
11508PP      PP21612   9.942  13.460   0.932 -0.1027  0.1338  0.0394
11509PP      PP21613   0.572  14.061   1.606  0.1420 -0.3949 -0.0853
11510PP      PP21614   9.702   2.643  11.388 -0.0309 -0.2573  0.1722
11511PP      PP21615   1.635  10.467   2.131 -0.6359 -0.2813 -0.1466
11512PP      PP21616  10.326  14.719  13.074  0.0326 -0.0342 -0.1824
11513PP      PP21617   8.534   4.106   1.084 -0.1641 -0.0427  0.2131
11514PP      PP21618  11.988  10.717   9.031 -0.1208  0.0994 -0.0868
11515PP      PP21619  10.481  10.317   0.059 -0.2543  0.0255  0.0920
11516PP      PP21620   0.652   9.159  12.182  0.3176 -0.0048  0.1338
11517PP      PP21621   3.068   7.752   3.776  0.2178 -0.1085 -0.1799
11518PP      PP21622   7.432   2.726  12.553  0.1210 -0.1061 -0.0789
11519PP      PP21623   3.365  13.483  12.194 -0.0154  0.1504  0.1281
11520PP      PP21624   1.117  14.225  10.609 -0.0502  0.0767  0.1602
11521PP      PP21625   9.787   9.696   9.674 -0.0450 -0.1638 -0.0553
11522PP      PP21626  11.240   7.341  10.044 -0.1395 -0.3185  0.0005
11523PP      PP21627   9.653  13.854   3.918 -0.1305 -0.2577 -0.0978
11524PP      PP21628  10.423   5.524  13.776  0.0424 -0.0985  0.1305
11525PP      PP21629   7.407   1.738   1.075  0.0471 -0.0418  0.1408
11526PP      PP21630   2.824  13.400   4.554 -0.0629  0.0075  0.0040
11527PP      PP21631   0.044   0.040   0.133  0.0939 -0.3415 -0.0832
11528PP      PP21632  12.833   2.544   0.145 -0.0085 -0.1647 -0.0696
11529PP      PP21633  12.630  12.907   4.488 -0.2435 -0.3456 -0.1690
11530PP      PP21634   4.916   2.089   9.708  0.1040  0.1455  0.2235
11531PP      PP21635   3.634   3.370   4.379  0.0848  0.1090  0.1189
11532PP      PP21636   2.114  12.152   2.305 -0.0883 -0.1491 -0.0790
11533PP      PP21637   2.901   9.205  11.013  0.0905  0.0261 -0.1651
11534PP      PP21638   2.825   5.533   2.171  0.4624 -0.0953 -0.0529
11535PP      PP21639   9.530   5.788   1.373 -0.0733  0.1024  0.3028
11536PP      PP21640   6.780   3.112   9.035  0.1766  0.0888 -0.0029
11537PP      PP21641   5.010   2.192   2.998  0.0156  0.1643 -0.1019
11538PP      PP21642  12.814  10.439   3.288  0.2551 -0.1120 -0.0443
11539PP      PP21643  12.480   0.239  12.794 -0.1232 -0.1884 -0.1932
11540PP      PP21644   2.572   8.393   2.841 -0.2413 -0.2666 -0.2573
11541PP      PP21645   4.984   6.172  10.361 -0.2165  0.0536 -0.0476
11542PP      PP21646   6.381   8.308  11.239 -0.0952  0.0536 -0.1715
11543PP      PP21647   0.475   6.771   2.601 -0.0679  0.1422  0.0207
11544PP      PP21648  10.665  10.705   2.280 -0.1559 -0.0602 -0.2119
11545PP      PP21649   9.196   6.477   2.045  0.1960  0.1333  0.1198
11546PP      PP21650  12.925   1.933   3.342  0.2882  0.2658  0.2971
11547PP      PP21651   0.546   1.366  13.684  0.0546  0.0603  0.1005
11548PP      PP21652   4.650  12.382   1.592 -0.1133 -0.1510 -0.0059
11549PP      PP21653   8.326  12.593   9.216 -0.0672 -0.1126  0.0618
11550PP      PP21654   8.445  14.054   4.775  0.0170  0.3500 -0.3195
11551PP      PP21655  11.334   8.621   0.500  0.0866 -0.0038 -0.1227
11552PP      PP21656   2.297   2.964  10.473 -0.0848  0.0105 -0.2380
11553PP      PP21657   6.970  10.501   3.280 -0.3683  0.2791  0.0850
11554PP      PP21658   5.614   7.245   1.292  0.3993  0.2545  0.0004
11555PP      PP21659  11.470   0.629  11.842 -0.0893  0.2463 -0.3084
11556PP      PP21660   6.059   6.039   0.310  0.0003 -0.0573  0.1164
11557PP      PP21661  13.246   0.222   2.336 -0.0975  0.2007 -0.3797
11558PP      PP21662  11.983   4.285  10.133  0.1913  0.1568  0.0136
11559PP      PP21663  11.424   0.571   1.907 -0.2061  0.1278  0.1411
11560PP      PP21664   0.360   4.892   8.221  0.2976  0.0491 -0.1754
11561PP      PP21665   1.896   6.232   1.393  0.0273  0.1313 -0.0518
11562PP      PP21666   7.718  14.718   9.675  0.1669  0.0509 -0.1767
11563PP      PP21667   5.400   1.818  13.593  0.0363 -0.2023 -0.1527
11564PP      PP21668   8.670  14.325  11.219  0.0759  0.1174  0.2797
11565PP      PP21669   6.129   9.440  13.346 -0.1104  0.2038  0.3557
11566PP      PP21670  12.846   1.907  11.028 -0.4119  0.0474  0.2607
11567PP      PP21671  11.056  13.758   3.022  0.4153 -0.0803  0.0590
11568PP      PP21672   0.482   2.005  11.616 -0.1870  0.0435  0.0909
11569PP      PP21673   0.042  10.798  11.726 -0.0132  0.0833 -0.0546
11570PP      PP21674  12.959   5.931  11.967  0.0618 -0.0747  0.0249
11571PP      PP21675   5.618   4.011   3.781  0.2512  0.0882 -0.0370
11572PP      PP21676   4.498   4.502   1.843  0.1434 -0.3804  0.2333
11573PP      PP21677   7.621  11.668   4.851 -0.1464  0.0526 -0.3867
11574PP      PP21678  12.557  13.766   9.950  0.3477  0.3992 -0.1651
11575PP      PP21679   1.820  15.061   3.389 -0.1450 -0.0644 -0.0762
11576PP      PP21680   3.073  12.389   9.209  0.2525  0.0043  0.2643
11577PP      PP21681  13.392   2.477   4.012 -0.0600 -0.0821  0.0740
11578PP      PP21682   0.864   6.716   2.281 -0.0637  0.1069 -0.0853
11579PP      PP21683  10.445  14.515   4.120 -0.1265 -0.0727  0.0237
11580PP      PP21684   4.255   2.521   0.372  0.1954 -0.0524 -0.1444
11581PP      PP21685   9.552   0.988  10.224  0.0361 -0.0215 -0.0075
11582PP      PP21686  11.211   7.940   0.020 -0.1709  0.1448 -0.0208
11583PP      PP21687  11.891   7.161  11.555  0.2474 -0.1475 -0.3074
11584PP      PP21688   4.296  14.661   1.521  0.2701 -0.0664  0.3731
11585PP      PP21689   6.675  14.813   9.513  0.1003 -0.3810  0.1946
11586PP      PP21690  13.998   3.744   9.146  0.1377 -0.0185 -0.2348
11587PP      PP21691   8.620   0.269   0.052 -0.1165 -0.1951 -0.0036
11588PP      PP21692   1.051   2.016   1.540  0.1628 -0.1091  0.0692
11589PP      PP21693   6.995   9.180   3.904 -0.1179  0.2442 -0.0579
11590PP      PP21694   7.178   9.931   9.560 -0.1958 -0.0460  0.1812
11591PP      PP21695   0.970  10.747   1.651 -0.0723 -0.0616 -0.2691
11592PP      PP21696  13.351  15.182   2.057  0.0233  0.2445  0.1105
11593PP      PP21697   7.294   9.513   4.206 -0.2467  0.0595  0.1418
11594PP      PP21698   6.546   3.563  11.159 -0.2452 -0.0557  0.1724
11595PP      PP21699   8.604   3.599   0.263 -0.1431 -0.1192 -0.2203
11596PP      PP21700   9.373   6.672   1.507 -0.0363 -0.0618  0.0229
11597PP      PP21701  10.383   3.695   0.233 -0.2221 -0.2397 -0.4757
11598PP      PP21702   9.879   9.260   1.272  0.0793  0.1559  0.1180
11599PP      PP21703   6.246   1.451   8.975  0.0824 -0.2209  0.3297
11600PP      PP21704   2.736   2.201  13.518 -0.2554  0.2877  0.4038
11601PP      PP21705   9.958   9.465  10.981 -0.0096 -0.2251  0.2077
11602PP      PP21706  13.587   4.650   9.781 -0.1257 -0.1038 -0.0031
11603PP      PP21707  12.565   5.201   9.212  0.2484  0.1734 -0.1416
11604PP      PP21708   2.827   6.362  12.285 -0.2400 -0.0250  0.0994
11605PP      PP21709   2.611  12.342   5.860 -0.0169  0.1067 -0.1119
11606PP      PP21710   7.697   8.834  12.070 -0.0892  0.2359  0.2280
11607PP      PP21711  14.820   3.663  13.024 -0.2481  0.1627  0.0323
11608PP      PP21712   0.727   9.307   1.665 -0.3394 -0.1733 -0.0828
11609PP      PP21713   9.041   8.785   4.131  0.0930  0.2975  0.0204
11610PP      PP21714   1.256   3.842   1.857 -0.0631 -0.2265 -0.0736
11611PP      PP21715   2.779   0.772  12.268 -0.1421 -0.0647  0.0913
11612PP      PP21716   1.568  13.726   9.803 -0.2426 -0.2268 -0.1519
11613PP      PP21717  15.396  12.835  10.223 -0.0707 -0.0616  0.2441
11614PP      PP21718   5.762   5.875  11.277  0.1006 -0.0172  0.3361
11615PP      PP21719   4.097  11.654   2.416  0.0558  0.1562 -0.1529
11616PP      PP21720  12.257   9.769   4.096 -0.2101 -0.0033  0.0439
11617PP      PP21721   9.756   7.607   1.007  0.3236 -0.4122  0.3771
11618PP      PP21722   3.895   0.235  11.031 -0.1762 -0.2930 -0.4726
11619PP      PP21723  11.135   0.568   2.972  0.2243  0.1661 -0.0459
11620PP      PP21724   6.997  11.764  11.949 -0.3885  0.0976  0.0905
11621PP      PP21725   7.644   2.406  10.367  0.1920  0.1747 -0.0768
11622PP      PP21726   5.948  11.538   3.710 -0.0219  0.2467  0.1271
11623PP      PP21727   4.773   4.375  10.581 -0.0510  0.1054  0.3256
11624PP      PP21728   6.373   9.879  13.535  0.0389 -0.0140 -0.1459
11625PP      PP21729   8.989  12.954   3.002  0.3156 -0.3625 -0.0371
11626PP      PP21730   2.856   7.912  11.991  0.0046 -0.4506 -0.2976
11627PP      PP21731   4.038   1.436  10.598  0.3405  0.0453 -0.0106
11628PP      PP21732   7.434   4.825  10.562  0.1275  0.0870 -0.4487
11629PP      PP21733  12.065  12.766   4.454 -0.1188 -0.1369 -0.2288
11630PP      PP21734  13.537  13.117   3.471 -0.2245  0.0024 -0.0667
11631PP      PP21735  11.605   8.432   3.352 -0.0778 -0.0816 -0.0612
11632PP      PP21736   7.654   5.104   0.578  0.2406  0.3668 -0.3023
11633PP      PP21737   2.434  15.378   0.931 -0.2698 -0.1030 -0.1110
11634PP      PP21738   7.505  14.702  13.255 -0.2296 -0.1360  0.0610
11635PP      PP21739  11.070  12.578  11.013 -0.3043  0.1038  0.2669
11636PP      PP21740  13.312   4.514   8.925 -0.3970 -0.1403  0.0020
11637PP      PP21741   8.382  15.414  12.472  0.0201  0.0119 -0.2709
11638PP      PP21742   5.129   4.331   3.094  0.3375  0.1815  0.1853
11639PP      PP21743   3.624  13.420   4.666 -0.0895  0.0049 -0.2046
11640PP      PP21744   3.807   6.543   0.802  0.0824  0.0613  0.0421
11641PP      PP21745   5.847   1.835  11.444 -0.1084 -0.3110  0.2643
11642PP      PP21746  12.389  10.709   0.806 -0.1594  0.1606 -0.0742
11643PP      PP21747   0.378  11.149  11.300  0.2582 -0.2241  0.0546
11644PP      PP21748  14.703  11.828  13.283 -0.1279 -0.1576  0.3417
11645PP      PP21749   7.817  14.938  12.564 -0.3878 -0.0823 -0.1384
11646PP      PP21750   3.353   3.183   3.897 -0.0262 -0.0486  0.1906
11647PP      PP21751  13.263  14.701   4.194  0.1038  0.0860  0.2448
11648PP      PP21752  11.692   1.814  13.103  0.4075 -0.2293 -0.0245
11649PP      PP21753   7.631   1.695   3.582 -0.4752  0.1719  0.1385
11650PP      PP21754   0.270  15.012  12.185 -0.1050  0.0180 -0.2553
11651PP      PP21755   2.412  10.199  13.310 -0.1788 -0.1024 -0.1607
11652PP      PP21756  10.577  12.633   8.762 -0.1915 -0.0084  0.0113
11653PP      PP21757   6.045   8.661   0.350 -0.1035 -0.1222 -0.0085
11654PP      PP21758  14.654   9.430   0.063 -0.1110  0.1262  0.0287
11655PP      PP21759  13.848  15.668   0.908 -0.1147  0.2004 -0.0608
11656PP      PP21760  12.934   7.154  10.085  0.0683  0.0423  0.1611
11657PP      PP21761  14.811   5.207   0.458  0.0976 -0.0254  0.3564
11658PP      PP21762   8.494   7.999   9.188  0.2294  0.3529 -0.2722
11659PP      PP21763  13.171  10.871  13.117 -0.1505 -0.2851  0.0914
11660PP      PP21764   0.181   5.364   9.777 -0.3260 -0.2011 -0.2125
11661PP      PP21765   3.082  12.414   2.550 -0.3546  0.0201  0.2188
11662PP      PP21766  15.369  11.397   0.193  0.1403 -0.1073 -0.4732
11663PP      PP21767  13.532  14.964   0.355  0.1734 -0.1647 -0.1970
11664PP      PP21768   0.963   3.472  11.435  0.0208 -0.3433  0.0280
11665PP      PP21769  12.004   5.145  10.906 -0.3946  0.1502  0.1304
11666PP      PP21770   4.848   4.570   3.435  0.2283 -0.0535 -0.2560
11667PP      PP21771  14.291   2.092   0.050  0.1282  0.2481  0.0284
11668PP      PP21772  15.348   5.185   3.914  0.1978  0.0488 -0.0384
11669PP      PP21773   6.810   3.144   3.974 -0.0261 -0.0771  0.1584
11670PP      PP21774  15.093  11.266   2.944  0.3825 -0.3584 -0.1107
11671PP      PP21775   0.587   5.161   2.465  0.2549  0.1831  0.2428
11672PP      PP21776   0.963   4.701   0.024  0.1002 -0.2114 -0.4465
11673PP      PP21777  15.003  11.216   0.971 -0.0815  0.1303  0.3446
11674PP      PP21778  15.035   9.706   1.627  0.0335 -0.0959 -0.0399
11675PP      PP21779  11.440  13.724   1.229 -0.0603 -0.3189 -0.1343
11676PP      PP21780   5.144   2.109   2.558 -0.0520  0.0542 -0.0115
11677PP      PP21781   0.991   7.333   9.070  0.1173 -0.0423 -0.1398
11678PP      PP21782  11.355  13.869   2.113  0.0566 -0.0199 -0.0936
11679PP      PP21783   3.994  15.013  12.087 -0.0108 -0.2254 -0.0081
11680PP      PP21784  11.080   9.853  10.705  0.1121 -0.0249 -0.1558
11681PP      PP21785   4.545  15.018  13.324 -0.3147 -0.1842  0.0153
11682PP      PP21786  11.980   7.953  12.054 -0.0498  0.0361  0.2971
11683PP      PP21787   5.789   9.303   5.046  0.0403  0.1574 -0.0329
11684PP      PP21788  14.123   0.642   9.156 -0.0544  0.0195 -0.0333
11685PP      PP21789   8.380   0.720   9.522 -0.2444 -0.1265 -0.1956
11686PP      PP21790   1.254  11.117  11.805  0.0484  0.0498 -0.0537
11687PP      PP21791  12.120   3.600  11.828  0.1299  0.2215 -0.2085
11688PP      PP21792   3.308   3.894   3.021  0.1260  0.2761 -0.0393
11689PP      PP21793   8.761   0.653  11.763 -0.1181 -0.0005  0.1624
11690PP      PP21794   9.314  15.611   0.558 -0.1160  0.3875  0.1968
11691PP      PP21795   8.206   4.431   2.575 -0.0619 -0.2784  0.0629
11692PP      PP21796   1.275   7.521   2.891  0.2669  0.1586  0.1478
11693PP      PP21797   1.961   8.865   0.217  0.1044  0.1365  0.1178
11694PP      PP21798  11.515  11.861   1.973 -0.3408  0.1203 -0.1250
11695PP      PP21799   6.479  10.699   4.926 -0.2967 -0.2970  0.0416
11696PP      PP21800   5.745   5.698   0.597  0.1499 -0.1167 -0.0233
11697PP      PP21801  13.731   9.914   0.239 -0.0214 -0.1950  0.0798
11698PP      PP21802  15.564   5.711   1.441  0.1289 -0.1595 -0.0720
11699PP      PP21803  10.279  15.446   3.851 -0.2652 -0.1003  0.0422
11700PP      PP21804   6.001   0.263  10.237  0.0845  0.1333  0.2313
11701PP      PP21805  11.018   7.438   0.286  0.1776  0.1101  0.0607
11702PP      PP21806  11.923   9.234   0.107 -0.0650  0.1456  0.3078
11703PP      PP21807  10.066   4.893   3.288  0.1851 -0.1589 -0.1377
11704PP      PP21808  13.882  15.270  10.555 -0.1599 -0.0381 -0.2660
11705PP      PP21809   0.283   5.475   8.845 -0.1722 -0.0367  0.1416
11706PP      PP21810   5.266  11.120   4.509  0.0174  0.2730 -0.0356
11707PP      PP21811  12.431   1.862   3.575 -0.2690  0.1691  0.2260
11708PP      PP21812   0.841  15.301  12.124  0.0899  0.1470  0.0309
11709PP      PP21813   2.557   9.334   4.473 -0.2018 -0.2016 -0.0010
11710PP      PP21814   0.365  14.527   3.617 -0.0516 -0.2394  0.0613
11711PP      PP21815   3.870   2.560  12.064 -0.0183 -0.0674  0.0952
11712PP      PP21816  10.191   4.116   4.227  0.2942  0.2605 -0.3789
11713PP      PP21817   5.277   9.702  11.653  0.1317 -0.1174 -0.1396
11714PP      PP21818   5.986   2.584  13.588 -0.1239  0.0138 -0.1092
11715PP      PP21819  15.726   9.976  13.103  0.3449 -0.2007  0.0654
11716PP      PP21820   0.780   7.856   1.655  0.1310  0.0879  0.2269
11717PP      PP21821  12.787   9.476  12.762 -0.1535  0.2071  0.1257
11718PP      PP21822  10.158   0.468   0.081  0.0157 -0.0265 -0.1277
11719PP      PP21823   7.069  15.621  13.325  0.0449  0.0742  0.1141
11720PP      PP21824   3.594  11.166  12.643 -0.0895  0.0147  0.2887
11721PP      PP21825   3.275   5.549   8.969 -0.2456  0.2719  0.0734
11722PP      PP21826   8.549   5.663   2.815  0.0549 -0.2000 -0.1213
11723PP      PP21827  11.323   4.655   9.457  0.1009 -0.0278 -0.0050
11724PP      PP21828   5.678   8.290   1.291  0.3876  0.0630 -0.2346
11725PP      PP21829   8.358   4.508  12.381 -0.1844  0.3794  0.1350
11726PP      PP21830   9.040   3.396   8.920 -0.4362  0.0130 -0.0588
11727PP      PP21831   2.927   5.960   1.765 -0.0233  0.0830  0.1272
11728PP      PP21832   6.111   6.886   4.046  0.0726 -0.3713 -0.1635
11729PP      PP21833   3.541  15.211   4.751  0.1141  0.0258 -0.0556
11730PP      PP21834  14.941   5.895   1.405  0.1262 -0.0062 -0.1016
11731PP      PP21835   0.612   4.535   8.012  0.0132  0.1622  0.0583
11732PP      PP21836   2.703   3.389   1.531 -0.3803  0.0283  0.1145
11733PP      PP21837  13.468   1.596   1.925  0.3944  0.0654 -0.1337
11734PP      PP21838   6.618   4.244  12.171  0.2748 -0.0537  0.1025
11735PP      PP21839  15.620  14.567   5.239  0.2594 -0.0105 -0.5060
11736PP      PP21840   2.258   7.413  13.727  0.1777  0.0852 -0.0484
11737PP      PP21841  12.344  14.200   9.760  0.0648 -0.0025  0.2681
11738PP      PP21842  12.491   0.971   9.591  0.1113  0.4381  0.1826
11739PP      PP21843   6.704   7.216   9.374 -0.0893 -0.1674  0.0424
11740PP      PP21844   1.170   9.574   3.917  0.1467 -0.2799  0.0798
11741PP      PP21845   7.214   0.786   0.917 -0.3289  0.1670 -0.0501
11742PP      PP21846   9.596   3.502   8.845  0.2683 -0.1016 -0.1320
11743PP      PP21847  11.212  12.864   3.697 -0.3331 -0.1292 -0.0351
11744PP      PP21848   4.156  12.583   4.768  0.3001  0.3094 -0.1023
11745PP      PP21849   8.801   7.551  10.368 -0.2303  0.0170  0.1111
11746PP      PP21850   5.916   8.816   1.416  0.0096  0.0701  0.0729
11747PP      PP21851   4.309  15.456  13.061  0.3440  0.0289 -0.0185
11748PP      PP21852  11.505   9.901  13.228  0.0656  0.1867  0.3016
11749PP      PP21853  10.538  14.989   0.435  0.3224  0.4576 -0.0814
11750PP      PP21854  12.978  14.062  11.178  0.1015  0.2536  0.1411
11751PP      PP21855  11.430   3.859   0.849 -0.2285 -0.0086 -0.2224
11752PP      PP21856   7.749   9.195  12.386 -0.2113  0.2468 -0.1866
11753PP      PP21857  14.882  11.371   3.428 -0.0364  0.3452 -0.1813
11754PP      PP21858   7.469   7.656  11.948  0.1192 -0.0985  0.0924
11755PP      PP21859   6.552   0.048   0.031  0.0822 -0.0165 -0.0943
11756PP      PP21860  12.551   4.284   2.154 -0.1433  0.2243 -0.0484
11757PP      PP21861   5.172   0.647   2.883 -0.1212  0.0531  0.0918
11758PP      PP21862  14.667   4.645  10.663 -0.0463 -0.1159  0.4476
11759PP      PP21863   1.860  14.102  12.861  0.1208  0.0079 -0.2746
11760PP      PP21864   0.331  10.056  10.108 -0.3174 -0.0284  0.0428
11761PP      PP21865   0.302   6.240  10.425 -0.0344  0.0073  0.2542
11762PP      PP21866  15.680  13.101   1.081  0.0576  0.3933  0.1764
11763PP      PP21867   0.967   7.376  12.545  0.2817  0.2342  0.1301
11764PP      PP21868   4.586   4.156   2.929  0.1957 -0.0205 -0.2718
11765PP      PP21869  11.239   4.885  13.087  0.1307 -0.1319 -0.0382
11766PP      PP21870   7.412   1.009  10.792  0.0123  0.1554  0.1526
11767PP      PP21871  15.461   1.451  12.057 -0.0944 -0.0220  0.2028
11768PP      PP21872  14.101  13.049  10.458 -0.4277  0.0858  0.1099
11769PP      PP21873  14.703  11.720  12.661  0.0084  0.1016  0.1949
11770PP      PP21874  10.166  12.616  13.428  0.0424  0.0680  0.2067
11771PP      PP21875   3.966  11.961   0.468  0.0620 -0.2007  0.1750
11772PP      PP21876  13.113  10.483   4.152  0.0054  0.1120 -0.2412
11773PP      PP21877   9.684   8.624   1.743  0.0005 -0.1021 -0.0250
11774PP      PP21878   6.226   4.355   9.489 -0.0145  0.2201  0.1238
11775PP      PP21879  12.261   9.379  11.697 -0.0198 -0.0426  0.2047
11776PP      PP21880   4.129   0.734   3.038 -0.2328  0.1542  0.0990
11777PP      PP21881   0.519  13.969  11.592 -0.1765  0.0166  0.3654
11778PP      PP21882   4.668   0.316  13.461  0.1256  0.1272  0.3254
11779PP      PP21883   9.824  10.957   3.466  0.0070  0.2915 -0.3117
11780PP      PP21884   3.760  13.906   1.782  0.1098  0.0238 -0.3504
11781PP      PP21885   2.145  15.420  10.588 -0.3923 -0.0357 -0.0017
11782PP      PP21886   2.323   3.239  12.785 -0.1187  0.0130  0.0459
11783PP      PP21887   6.601  14.350  10.313 -0.0774  0.1234 -0.0762
11784PP      PP21888  13.435   9.084   2.333  0.1267  0.0854  0.0358
11785PP      PP21889   7.324   6.511   3.164  0.1628 -0.0435  0.0586
11786PP      PP21890   5.411  11.140  13.633  0.1035  0.0326 -0.1085
11787PP      PP21891   5.633  15.013   2.839 -0.0968 -0.2209  0.1961
11788PP      PP21892   4.052   8.759   0.188 -0.2490 -0.2712  0.0105
11789PP      PP21893   8.140  14.956   2.825  0.1094 -0.4371  0.2025
11790PP      PP21894  11.258   0.026   1.858  0.0899  0.1657 -0.1471
11791PP      PP21895  13.226   7.378  11.236  0.1143  0.0502  0.0972
11792PP      PP21896   2.644   0.427  12.709 -0.0430  0.3759  0.2600
11793PP      PP21897   3.324  11.573  11.172 -0.1545 -0.1078 -0.0281
11794PP      PP21898   0.584   4.517   3.881 -0.1128  0.2809 -0.1054
11795PP      PP21899   8.420   1.098  12.348 -0.1006  0.2338  0.0160
11796PP      PP21900   9.357  11.034   9.066 -0.1897  0.0045  0.0749
11797PP      PP21901  11.937  14.596   9.858 -0.0698  0.1451  0.2479
11798PP      PP21902   5.509   9.111   3.086 -0.0210 -0.0121 -0.1705
11799PP      PP21903   7.543  11.413   9.251 -0.1571  0.1989  0.0381
11800PP      PP21904   8.209   3.870  10.170  0.1600 -0.1468  0.0699
11801PP      PP21905   9.358  15.486   3.528 -0.1631 -0.0093 -0.0592
11802PP      PP21906  10.573   5.047  13.738  0.2539 -0.5377  0.2949
11803PP      PP21907   5.020   7.537   3.226  0.1330 -0.1369  0.1282
11804PP      PP21908   7.531   4.298  13.322 -0.0507  0.0351  0.0486
11805PP      PP21909   8.385  13.434   0.338 -0.0045 -0.1697 -0.0446
11806PP      PP21910  14.459   0.657  11.266 -0.0830  0.4446  0.0084
11807PP      PP21911   7.781  15.484   9.505 -0.0960  0.2817  0.0771
11808PP      PP21912   9.159   8.339  13.178 -0.0215 -0.0283  0.2681
11809PP      PP21913  14.863   5.818  13.463  0.0183  0.1681 -0.1717
11810PP      PP21914  12.173  15.253   1.007 -0.1466  0.1623 -0.0410
11811PP      PP21915  15.613   6.116  10.777 -0.1234 -0.1419  0.3447
11812PP      PP21916   0.403   3.632  10.813 -0.3585  0.1194  0.0738
11813PP      PP21917   6.865   3.520   0.924 -0.0434  0.1121  0.2308
11814PP      PP21918  14.921   6.022   1.898 -0.2571 -0.2817  0.1080
11815PP      PP21919  10.295  12.459   9.953  0.0788  0.1095  0.0133
11816PP      PP21920   9.887   2.278  10.236 -0.1741 -0.1728 -0.1842
11817PP      PP21921   6.174   5.345   8.213 -0.0625 -0.3709 -0.1846
11818PP      PP21922  14.216  10.632  13.732 -0.0335 -0.0235  0.1630
11819PP      PP21923  11.697  12.567  13.273  0.2826  0.2311  0.2478
11820PP      PP21924   7.545   6.877   8.943  0.0654  0.1035 -0.1333
11821PP      PP21925  11.563   3.039  10.664 -0.1446 -0.2151 -0.1651
11822PP      PP21926  12.870   0.681   4.262  0.0308 -0.3462  0.1734
11823PP      PP21927   4.173   5.806   1.511 -0.1121  0.0545 -0.0066
11824PP      PP21928   8.416  15.154   2.342 -0.1315 -0.0557 -0.2383
11825PP      PP21929  15.698   1.296  10.531  0.4376  0.0395 -0.3491
11826PP      PP21930   3.740   3.792   0.957 -0.2109 -0.1748  0.0227
11827PP      PP21931   8.957   1.550   2.705 -0.1097  0.1005  0.0908
11828PP      PP21932   9.773   6.808   4.463 -0.0773 -0.0883 -0.1116
11829PP      PP21933  12.762   2.902   0.457 -0.0494 -0.1029  0.1011
11830PP      PP21934  15.223  14.843   3.455  0.2278 -0.2768 -0.0039
11831PP      PP21935  11.857   2.937   2.315  0.1238 -0.0550  0.1152
11832PP      PP21936   4.514   1.813  12.984  0.1948 -0.2246  0.0434
11833PP      PP21937  12.065   3.507  10.819 -0.1726 -0.0926 -0.4348
11834PP      PP21938  10.376   1.076  12.937 -0.0297  0.3100 -0.0669
11835PP      PP21939   7.578  10.533  12.129  0.2339 -0.0012 -0.1246
11836PP      PP21940  13.171   7.350   9.163 -0.0766 -0.1668  0.2281
11837PP      PP21941  12.036  14.153  10.167  0.0603 -0.0521 -0.0489
11838PP      PP21942   0.019   8.083  11.647  0.1683 -0.1121  0.2101
11839PP      PP21943   6.757   0.769  10.010 -0.0341 -0.0595 -0.0718
11840PP      PP21944  12.361  14.528  10.128  0.1072 -0.3986 -0.0838
11841PP      PP21945  14.895  15.022   2.645  0.0681 -0.0057  0.0996
11842PP      PP21946  10.764   3.135   2.726  0.1553 -0.0195 -0.1925
11843PP      PP21947   9.540   0.206  12.578  0.1235 -0.3333 -0.4009
11844PP      PP21948   9.675   2.629   3.920  0.0437  0.0264  0.0645
11845PP      PP21949   3.451   5.426   2.802  0.3094  0.0455 -0.1427
11846PP      PP21950   7.437   1.461   0.656 -0.1661 -0.1779 -0.0474
11847PP      PP21951   8.685   4.160   1.622 -0.0684  0.2707 -0.1374
11848PP      PP21952   1.790   8.469   3.335 -0.2391  0.0129  0.3037
11849PP      PP21953   9.359   9.197  11.727  0.2229 -0.0415 -0.4187
11850PP      PP21954   8.901   5.045  12.984  0.3587  0.1545 -0.2695
11851PP      PP21955   2.602   5.003   2.188 -0.0220  0.0016  0.1558
11852PP      PP21956   0.881   3.546   0.772 -0.2059 -0.2552 -0.0218
11853PP      PP21957  12.666   7.219   1.577 -0.1120 -0.0059  0.1241
11854PP      PP21958  14.248   5.235   1.821 -0.1035 -0.0532 -0.1293
11855PP      PP21959   0.686  10.758   4.258  0.1968 -0.0260 -0.3070
11856PP      PP21960  12.942  13.374   5.229 -0.1608 -0.2476 -0.0141
11857PP      PP21961   8.160   3.650   8.426  0.3493 -0.1135 -0.1841
11858PP      PP21962   7.774   6.364   8.872  0.0025 -0.0932  0.0734
11859PP      PP21963   3.219  14.704   9.594  0.0075  0.3288  0.1365
11860PP      PP21964  13.447   2.983   8.667  0.3153  0.3045 -0.0155
11861PP      PP21965   4.261   0.933   0.633 -0.0788  0.0711 -0.0553
11862PP      PP21966  13.982   7.429  13.665 -0.0085 -0.0505 -0.3406
11863PP      PP21967   2.315   0.195   0.427 -0.4414  0.0436 -0.2449
11864PP      PP21968  10.450  13.934   9.408  0.0914 -0.0142 -0.1564
11865PP      PP21969  13.943  12.417  13.046  0.0090  0.1455 -0.1810
11866PP      PP21970   3.420   3.243  11.309  0.0783  0.0577 -0.1149
11867PP      PP21971   5.951  11.764   4.849 -0.0431 -0.1295  0.1059
11868PP      PP21972  10.910  13.200  13.336  0.0322  0.0643  0.1677
11869PP      PP21973   4.332   7.767   2.476 -0.0306 -0.0662  0.0270
11870PP      PP21974  13.304  11.462   4.462  0.0089 -0.0130  0.0119
11871PP      PP21975  11.105   6.914  12.762 -0.1979  0.1500 -0.0379
11872PP      PP21976   5.736  12.501   5.733 -0.3760  0.0240  0.1440
11873PP      PP21977   8.310  11.504   3.859 -0.0126 -0.3656  0.0374
11874PP      PP21978   8.450   2.270   0.374 -0.0157  0.1546  0.2107
11875PP      PP21979   3.075   9.694  11.262  0.0877  0.1034  0.0084
11876PP      PP21980   7.743  12.979   2.827 -0.0309  0.2236 -0.0480
11877PP      PP21981   2.699  13.723   9.095 -0.0845  0.1367 -0.0536
11878PP      PP21982  12.305   4.614  10.438  0.1685 -0.1767  0.5765
11879PP      PP21983  10.508   9.737   4.365 -0.1773  0.0029  0.1677
11880PP      PP21984  13.557   5.036  10.868  0.0225  0.1280 -0.0342
11881PP      PP21985   6.509   0.074   8.811 -0.1393  0.2504  0.3066
11882PP      PP21986   8.022   0.988  13.576 -0.0075  0.0729  0.2433
11883PP      PP21987   6.826  11.815   5.321 -0.4075 -0.0294 -0.2936
11884PP      PP21988   1.698   0.223   1.064  0.2875  0.2198  0.1504
11885PP      PP21989  10.593   4.169  12.934  0.3044 -0.1388 -0.1743
11886PP      PP21990   9.887  13.365   8.872 -0.2180 -0.1122  0.0463
11887PP      PP21991   2.785  12.515  13.595  0.2609 -0.3425  0.0977
11888PP      PP21992   1.620   6.580  12.727 -0.0347  0.0160  0.5170
11889PP      PP21993   0.930   8.417  10.207 -0.0223  0.0163 -0.1984
11890PP      PP21994   4.018   4.826   2.361  0.2706 -0.1536 -0.0578
11891PP      PP21995  12.107   1.934   0.719  0.0248 -0.0244  0.0487
11892PP      PP21996  13.020   2.019  12.163 -0.1404 -0.2879 -0.2160
11893PP      PP21997  10.167   8.565   1.775 -0.1019 -0.0937  0.0020
11894PP      PP21998  11.939   8.962  11.742  0.2808  0.3789 -0.1768
11895PP      PP21999   5.633  10.966   3.157  0.2411 -0.0560  0.2124
11896PP      PP22000   1.018  10.161   1.373  0.2268 -0.2358  0.2528
11897PP      PP22001   5.242   6.622   4.517 -0.0060 -0.1095 -0.0751
11898PP      PP22002   4.333  13.748   0.758  0.0320 -0.3857 -0.3460
11899PP      PP22003   9.453  15.514  12.177  0.3573 -0.1555 -0.0308
11900PP      PP22004   9.672  10.644   1.354 -0.0365  0.0734  0.0858
11901PP      PP22005   1.645   8.361  10.976  0.2894 -0.0174 -0.2095
11902PP      PP22006   1.639   4.579  12.575  0.1759 -0.1326 -0.0817
11903PP      PP22007   2.838   1.464   8.993  0.3346  0.1259 -0.5204
11904PP      PP22008   2.106   0.630   4.765 -0.0603 -0.2800  0.0533
11905PP      PP22009   2.769   1.067   2.395  0.0806 -0.5670  0.1336
11906PP      PP22010   3.138   1.868   2.848  0.1445 -0.1911 -0.0063
11907PP      PP22011   4.017   4.898  10.103  0.0271 -0.0699 -0.3965
11908PP      PP22012   5.613  12.176   4.599 -0.1193  0.0195  0.4437
11909PP      PP22013  13.518   6.747   1.534 -0.0974  0.2332 -0.2676
11910PP      PP22014   9.959   0.898   3.587  0.0413  0.0839 -0.0659
11911PP      PP22015  11.612  11.108   0.256 -0.1098  0.0844  0.0621
11912PP      PP22016  13.852   7.403   2.990 -0.1582  0.1041  0.2241
11913PP      PP22017  15.100  12.538  12.915  0.0636 -0.0470 -0.2725
11914PP      PP22018   0.515  14.923   1.187 -0.2527 -0.3330 -0.0459
11915PP      PP22019   5.656   3.848   1.017 -0.2429 -0.0551  0.1067
11916PP      PP22020  15.704   3.231   0.290  0.4110 -0.1459 -0.3308
11917PP      PP22021  13.540   6.687   4.206  0.0848 -0.1864  0.0245
11918PP      PP22022  14.431  15.254   2.887 -0.1176  0.0852 -0.4619
11919PP      PP22023  11.565  10.889   0.767 -0.0453  0.0009  0.0989
11920PP      PP22024   3.951   9.206   8.883  0.4556  0.1883  0.1073
11921PP      PP22025   1.435  14.077  10.242  0.0811  0.0714 -0.0025
11922PP      PP22026   0.313   4.031   3.812 -0.1093 -0.0095  0.0205
11923PP      PP22027   5.637   1.975   1.121 -0.1437  0.0830 -0.0068
11924PP      PP22028  13.105  11.240   3.020 -0.0374 -0.2095  0.0180
11925PP      PP22029   5.454   0.080  11.683  0.0630 -0.2973 -0.0131
11926PP      PP22030   7.479  12.611   0.951  0.1942  0.1569  0.0134
11927PP      PP22031  15.703  15.513   0.901 -0.0746 -0.0415 -0.1501
11928PP      PP22032   9.268  10.483  10.525 -0.2606 -0.1361  0.0864
11929PP      PP22033   0.250  11.809   1.385  0.0164 -0.0110  0.3172
11930PP      PP22034  10.010   6.022   2.455  0.0817  0.0269 -0.1121
11931PP      PP22035   3.184  14.557   4.500 -0.0396  0.0680 -0.0654
11932PP      PP22036   4.544   7.033  12.619  0.1221 -0.1056 -0.3068
11933PP      PP22037   9.124  15.258   9.155  0.1970  0.2323 -0.0570
11934PP      PP22038  13.947  11.743   0.908 -0.2387  0.1249  0.1701
11935PP      PP22039   2.146   6.072   1.883  0.5282 -0.0407 -0.2245
11936PP      PP22040   9.974   8.442   9.842 -0.0484 -0.3167  0.0494
11937PP      PP22041   6.320  14.243   9.798 -0.1941  0.0494 -0.2287
11938PP      PP22042   9.017   9.998   9.809  0.0859 -0.0073  0.2122
11939PP      PP22043   9.608   5.047   2.327 -0.0637  0.0945  0.0290
11940PP      PP22044   6.950   6.024   9.148 -0.0751 -0.2641 -0.3418
11941PP      PP22045   0.955  10.057   2.964  0.1810  0.1663  0.1694
11942PP      PP22046   3.413  13.931   4.401  0.2262  0.0649 -0.2964
11943PP      PP22047   6.024   4.855   2.146 -0.1259 -0.2875  0.0011
11944PP      PP22048   6.813   1.438   3.174  0.0129 -0.1317  0.3454
11945PP      PP22049   7.296   7.383   0.035 -0.0910 -0.1748 -0.0094
11946PP      PP22050   2.512  15.731   9.753  0.1554 -0.2912  0.0759
11947PP      PP22051  15.258   6.832  13.569 -0.0447 -0.3629  0.0046
11948PP      PP22052   0.796  10.224  13.693 -0.1236 -0.1325  0.2402
11949PP      PP22053   5.425  11.971   1.525  0.1789 -0.1407  0.0800
11950PP      PP22054   7.298   7.431   3.655 -0.0575 -0.0542  0.2135
11951PP      PP22055   9.060   6.275   0.002 -0.2382 -0.3484  0.0051
11952PP      PP22056  10.265   5.380  10.917 -0.0594 -0.0233 -0.3181
11953PP      PP22057   8.794   1.805  12.381 -0.1367  0.1006 -0.4309
11954PP      PP22058   7.828  13.888   1.685  0.0615 -0.3003 -0.0139
11955PP      PP22059  11.803   0.470  10.026 -0.1818  0.3411 -0.2272
11956PP      PP22060  10.020  10.410   4.370  0.0075  0.0345  0.0993
11957PP      PP22061  10.052  14.812  10.615 -0.0005 -0.2319  0.0319
11958PP      PP22062   0.306   3.886  11.993 -0.0576 -0.0669 -0.1860
11959PP      PP22063  12.130   5.984   0.470 -0.2573 -0.0430 -0.0473
11960PP      PP22064   2.593   6.561  11.436 -0.2900  0.0543 -0.0034
11961PP      PP22065  11.637   5.538   9.735 -0.1944  0.1235 -0.0674
11962PP      PP22066  11.114   3.315  13.392 -0.0507  0.2360  0.1036
11963PP      PP22067  11.889   2.071   1.330 -0.0674  0.1451 -0.2390
11964PP      PP22068   5.006   4.299   8.421  0.1628  0.0113 -0.1731
11965PP      PP22069   6.571   5.790   9.401  0.2333  0.0914 -0.0175
11966PP      PP22070   6.583  13.520   0.299 -0.3707 -0.1308 -0.1114
11967PP      PP22071   4.893  10.290  11.334 -0.1101  0.0430  0.2306
11968PP      PP22072   9.219  10.597   1.243 -0.2891 -0.3195  0.2758
11969PP      PP22073  11.159   2.820  11.515 -0.2460 -0.2067  0.2087
11970PP      PP22074   0.138   4.977   3.665  0.1116 -0.0293 -0.4795
11971PP      PP22075   9.145   5.975  11.294 -0.2373  0.1954 -0.2285
11972PP      PP22076   6.543   8.885   3.704  0.2610  0.0017 -0.2845
11973PP      PP22077   7.217  14.298  13.441  0.1801 -0.1153 -0.1646
11974PP      PP22078  12.838  10.471  12.412 -0.0181 -0.2019  0.0471
11975PP      PP22079  11.735  12.218   1.593  0.0526  0.0145  0.0443
11976PP      PP22080  10.453   9.591  10.023 -0.0800  0.2368 -0.2260
11977PP      PP22081   8.328   2.901  10.664  0.0649  0.0921  0.1378
11978PP      PP22082   3.821   2.291   0.422  0.1199  0.2978 -0.0324
11979PP      PP22083  13.772   7.809  10.835 -0.0263  0.0675 -0.0379
11980PP      PP22084  14.705  11.920   1.708  0.1895  0.0055 -0.1415
11981PP      PP22085   8.776   2.113   0.926  0.0102 -0.2690 -0.4208
11982PP      PP22086   3.596  14.710   4.800  0.0646 -0.1394  0.0853
11983PP      PP22087  10.418  11.109   2.425 -0.1095 -0.2334  0.1663
11984PP      PP22088   5.884  15.484   4.246  0.1073 -0.3949 -0.2398
11985PP      PP22089  11.160   8.319   4.346  0.3212  0.2076 -0.2833
11986PP      PP22090   4.528  11.160   1.594  0.0232 -0.0491 -0.0045
11987PP      PP22091  11.649   2.876   9.633 -0.1151  0.1099  0.1650
11988PP      PP22092   0.381   5.799  12.134 -0.0845  0.0532 -0.1563
11989PP      PP22093   4.265   3.904   9.059  0.3582  0.1243  0.0069
11990PP      PP22094  14.459   1.624  13.122 -0.1149 -0.2104  0.3088
11991PP      PP22095   8.746  10.227   8.841  0.2063 -0.3565  0.0172
11992PP      PP22096   0.787  15.649   3.839 -0.2209  0.0052  0.0076
11993PP      PP22097  12.586   0.962   3.740 -0.1209 -0.1890  0.0691
11994PP      PP22098   0.680  15.473   3.333  0.0253 -0.0465  0.0623
11995PP      PP22099  12.109   8.619  13.312  0.0859  0.0237  0.1374
11996PP      PP22100   6.444   4.849   1.469  0.0626  0.1756  0.1962
11997PP      PP22101   9.899   6.609   1.289  0.0931  0.0215  0.0859
11998PP      PP22102  11.856  11.981   9.467  0.0529  0.0978  0.0957
11999PP      PP22103   9.062   0.741   3.211  0.0180  0.2080  0.0027
12000PP      PP22104  14.930   3.022  10.870  0.0332 -0.0064  0.1816
12001PP      PP22105  15.421   1.162  13.114 -0.0922  0.0790  0.0458
12002PP      PP22106   2.934   6.217   0.045 -0.1519 -0.0966  0.1653
12003PP      PP22107   6.056   5.781   9.251  0.1040  0.0139  0.1556
12004PP      PP22108   7.625  13.951  10.971 -0.0609 -0.1648 -0.1439
12005PP      PP22109   4.922  14.710   4.260 -0.1892 -0.1086  0.0710
12006PP      PP22110   1.473   6.628  12.178 -0.2487 -0.1244 -0.1449
12007PP      PP22111  12.355  13.699  12.315 -0.2420 -0.0747 -0.0454
12008PP      PP22112   0.234   7.122   2.952  0.1786 -0.1979 -0.0831
12009PP      PP22113   4.788  14.914  12.448  0.0591  0.3059  0.1491
12010PP      PP22114   3.436  13.533   4.104  0.1435 -0.0105  0.0592
12011PP      PP22115  11.112   4.714  11.439  0.0773 -0.2640  0.0865
12012PP      PP22116   8.553   7.574   9.810  0.0729 -0.0985  0.0395
12013PP      PP22117   4.545   8.974  10.907 -0.0105  0.0113 -0.3055
12014PP      PP22118   5.787   4.544  11.481 -0.0326 -0.0890 -0.0004
12015PP      PP22119   9.724   9.572  10.523 -0.2689  0.0766  0.0359
12016PP      PP22120  13.593  13.778  11.597  0.0761 -0.0541  0.0299
12017PP      PP22121  12.536  11.073  11.523 -0.0538 -0.2150  0.2358
12018PP      PP22122   3.149  10.589  11.342 -0.3986 -0.1090 -0.0827
12019PP      PP22123   1.708   2.754   2.948  0.0101 -0.0586 -0.0792
12020PP      PP22124   1.412  15.228  12.102  0.1491  0.0941 -0.0790
12021PP      PP22125   5.895  12.447  12.610  0.1261 -0.1261 -0.0596
12022PP      PP22126   4.445   8.113   5.185  0.1713  0.0394  0.4174
12023PP      PP22127   2.792   5.413   3.569  0.0244 -0.3433  0.3086
12024PP      PP22128   8.697   1.201  10.621  0.0468 -0.1521 -0.0687
12025PP      PP22129   4.701  11.640   1.389 -0.0428  0.1591  0.0450
12026PP      PP22130   7.658   9.735   3.202  0.0162  0.2008 -0.0414
12027PP      PP22131   8.757   7.921   2.237 -0.3947  0.0555 -0.1842
12028PP      PP22132   9.789  12.281  11.290 -0.1568  0.0910 -0.3584
12029PP      PP22133   5.413   5.382   3.910  0.2477 -0.1497  0.1788
12030PP      PP22134   1.138   2.760   9.277 -0.0089  0.2269 -0.1102
12031PP      PP22135   4.475  11.699  11.566  0.0506 -0.0459  0.1416
12032PP      PP22136   2.713  14.352  12.856 -0.1352 -0.0922 -0.0123
12033PP      PP22137  13.189  14.202  11.622  0.0206 -0.1036 -0.4549
12034PP      PP22138   7.011  12.228   5.045 -0.0244  0.1268 -0.3173
12035PP      PP22139   1.177   9.509   1.291  0.4691  0.2482 -0.4785
12036PP      PP22140   4.953   6.040  11.499  0.2703  0.2871 -0.2981
12037PP      PP22141  14.789   2.108  10.086 -0.1920  0.0677 -0.1927
12038PP      PP22142   7.256   0.619   8.834  0.2939 -0.1282 -0.0353
12039PP      PP22143  13.576   9.027   0.972 -0.1849  0.2431 -0.0746
12040PP      PP22144  10.552  10.075  12.152 -0.0538  0.0038 -0.1574
12041PP      PP22145   5.043   8.328   9.661 -0.1866 -0.2444 -0.0223
12042PP      PP22146   3.701   7.234   9.253 -0.0413 -0.1359 -0.0520
12043PP      PP22147   2.007   7.968   0.499 -0.0614 -0.1019 -0.1522
12044PP      PP22148   6.497  11.999   1.784 -0.1196  0.2696  0.0738
12045PP      PP22149  14.110   5.433  11.211  0.1832 -0.0363  0.0613
12046PP      PP22150   8.574   1.831   3.001  0.0497 -0.1840  0.0680
12047PP      PP22151  14.776  15.366   9.144  0.2094  0.0544 -0.1055
12048PP      PP22152   7.917   5.355  11.096  0.0078  0.0330  0.3144
12049PP      PP22153   8.428  14.602   8.710  0.2577  0.1686  0.0122
12050PP      PP22154   3.737  10.279   4.072 -0.2738 -0.1139  0.0474
12051PP      PP22155   7.900  12.540   8.893  0.1908 -0.1814 -0.0373
12052PP      PP22156  13.002  10.802   2.208  0.1611  0.0766  0.1367
12053PP      PP22157   0.417   1.276   3.276  0.3392  0.2042  0.0651
12054PP      PP22158  14.926   6.362   1.249 -0.1367 -0.1929  0.2812
12055PP      PP22159  15.003  14.131   1.226 -0.1278  0.1947  0.3512
12056PP      PP22160   5.825   5.773   1.891  0.0847 -0.1219 -0.0085
12057PP      PP22161   7.414   5.758  13.642 -0.0786 -0.0224 -0.0743
12058PP      PP22162   9.789   3.569   9.599  0.2061 -0.4385 -0.0580
12059PP      PP22163   8.881  15.450   3.637  0.0814 -0.2547  0.1393
12060PP      PP22164  15.111   4.324   8.685 -0.1317  0.1757  0.2484
12061PP      PP22165   6.944  15.687   3.336 -0.1254  0.1059 -0.0680
12062PP      PP22166   8.431   5.740  11.836  0.1290  0.0319 -0.1095
12063PP      PP22167   3.378   9.194   9.757 -0.0497  0.1533 -0.2984
12064PP      PP22168   1.538   5.323  13.235 -0.1259  0.0972 -0.1528
12065PP      PP22169  14.997  13.193  13.610 -0.4092 -0.0711 -0.1146
12066PP      PP22170   4.264   5.018  13.378 -0.1443  0.1950 -0.1421
12067PP      PP22171  15.009   0.179  12.609 -0.1346 -0.0936 -0.0754
12068PP      PP22172   2.779   8.784   1.631  0.0823  0.3507  0.1655
12069PP      PP22173  14.161   3.097   4.555 -0.0030 -0.0881 -0.2533
12070PP      PP22174   9.398   2.010   4.560 -0.0500 -0.0923  0.2470
12071PP      PP22175   7.441  14.414   0.572 -0.2027 -0.0882  0.2245
12072PP      PP22176  11.803   7.566  10.777  0.1110 -0.0102 -0.0392
12073PP      PP22177   9.098   3.808   0.453 -0.0489 -0.1086 -0.0382
12074PP      PP22178  15.419  10.226  11.410  0.2112 -0.1012  0.1091
12075PP      PP22179   9.611   5.928   3.507  0.1685  0.0388 -0.3961
12076PP      PP22180  10.253  12.944   9.690 -0.4045 -0.0846  0.0270
12077PP      PP22181   8.298   2.851  11.659  0.0359  0.2498  0.4222
12078PP      PP22182  11.599  15.267   2.510 -0.0323  0.3517  0.0391
12079PP      PP22183   0.974  10.428   3.440 -0.0658 -0.2337  0.1028
12080PP      PP22184   5.438   9.433   0.007  0.2211 -0.0554 -0.0755
12081PP      PP22185   3.853  13.842  10.080 -0.1137 -0.0054  0.0945
12082PP      PP22186   3.676   9.324  11.622 -0.6043 -0.0046  0.1570
12083PP      PP22187   0.659   5.304  11.186  0.0243  0.0868 -0.0317
12084PP      PP22188  11.974  10.484  12.031  0.0036  0.1840  0.0515
12085PP      PP22189  11.443  15.406   0.739 -0.0389  0.3438 -0.0744
12086PP      PP22190   7.941  14.229   0.316  0.1459  0.0519  0.4926
12087PP      PP22191  10.397  14.470   9.012  0.2029 -0.0860 -0.0906
12088PP      PP22192  13.552  12.380   4.468  0.0589 -0.0076  0.4830
12089PP      PP22193  10.156  15.359   0.559 -0.0398  0.2095 -0.1632
12090PP      PP22194   0.299  13.365  12.439  0.2593  0.1125  0.0465
12091PP      PP22195   6.622   6.495   1.840 -0.0224  0.2811 -0.0536
12092PP      PP22196  13.830  14.698  10.225  0.1443  0.0669  0.0487
12093PP      PP22197   8.346  11.282   4.312 -0.1082 -0.2027 -0.0377
12094PP      PP22198   6.687  10.501   4.479  0.0849  0.2128 -0.2160
12095PP      PP22199   4.572  10.671  12.589  0.2000 -0.3305 -0.0576
12096PP      PP22200  10.637  15.638   9.511  0.1134  0.0877  0.0915
12097PP      PP22201   7.591   7.276   4.048 -0.3246 -0.1240 -0.0237
12098PP      PP22202  15.456   3.900   8.715 -0.1115  0.1766  0.0995
12099PP      PP22203   8.557   1.160  13.540 -0.2476 -0.1469 -0.1224
12100PP      PP22204   2.960  12.161  11.968 -0.0713  0.1977  0.1186
12101PP      PP22205  15.334   6.145   1.611 -0.1916  0.2356  0.0342
12102PP      PP22206   1.806  15.476  10.940 -0.0188 -0.1323 -0.0581
12103PP      PP22207   9.882   0.505   1.532  0.0731  0.3208 -0.0936
12104PP      PP22208   5.840   2.483   3.034 -0.0086  0.1862 -0.0994
12105PP      PP22209  12.831   7.995   0.051 -0.4217  0.3241 -0.2473
12106PP      PP22210  10.871   3.340  11.521 -0.2968 -0.1176 -0.0462
12107PP      PP22211   1.577   0.356  13.649 -0.4175 -0.3251  0.0496
12108PP      PP22212   2.727  10.122   2.356  0.2079 -0.0544  0.0646
12109PP      PP22213  11.272   6.341  12.672  0.1767 -0.0625 -0.2540
12110PP      PP22214  11.381   2.485  10.621  0.1890  0.1219 -0.2529
12111PP      PP22215   6.639   7.117  11.660  0.0481  0.2475  0.3416
12112PP      PP22216   9.899  13.097  10.029 -0.1684  0.4899 -0.1237
12113PP      PP22217   3.893  11.880  10.443 -0.0715  0.1838 -0.2161
12114PP      PP22218   3.980   7.325  12.672  0.1862 -0.2972  0.1138
12115PP      PP22219   3.273  13.528  13.708  0.2451 -0.2095  0.2158
12116PP      PP22220   4.106   0.656  11.748 -0.0900 -0.3284  0.1097
12117PP      PP22221   3.422   1.915  10.057  0.0220  0.0759  0.0198
12118PP      PP22222  12.425   0.647  10.442 -0.3227  0.1709 -0.1975
12119PP      PP22223  15.372   2.837   2.134  0.0346  0.1196  0.1191
12120PP      PP22224   5.711   7.776   4.440  0.1345 -0.3692  0.0724
12121PP      PP22225   5.827  15.244  10.701  0.4449  0.1178 -0.2086
12122PP      PP22226   2.276  14.510  12.321  0.6031 -0.2612  0.0976
12123PP      PP22227   2.654  11.585   9.599  0.4522 -0.0851  0.0630
12124PP      PP22228   8.777   3.503  12.180  0.0897 -0.0959 -0.1615
12125PP      PP22229   3.499  10.281  10.422  0.2724 -0.4422  0.3945
12126PP      PP22230   3.706   8.152  10.072  0.1457  0.2199  0.1175
12127PP      PP22231  12.444   5.703  11.608 -0.1696  0.3412  0.0201
12128PP      PP22232  12.545   6.358   9.749 -0.2058 -0.1432 -0.2364
12129PP      PP22233   2.535  11.483  12.555 -0.2322  0.1729  0.1060
12130PP      PP22234   4.157   5.037   1.432 -0.2426  0.2114  0.0177
12131PP      PP22235   4.115  15.363  11.292  0.0328 -0.0780  0.1728
12132PP      PP22236   3.629  12.601   0.924  0.1746  0.3300 -0.0629
12133PP      PP22237   8.069   4.341   2.991  0.0884  0.1933 -0.1000
12134PP      PP22238   9.172   2.832   0.051  0.1125 -0.0630 -0.0358
12135PP      PP22239   4.872  15.185   3.525 -0.1830 -0.2179 -0.0635
12136PP      PP22240   9.711   6.757   3.522 -0.2154  0.4104  0.3441
12137PP      PP22241   5.068  15.454  11.742  0.1282  0.0158 -0.0147
12138PP      PP22242   3.018  13.721   4.916 -0.1955  0.1166 -0.0789
12139PP      PP22243  10.532  12.599  12.003  0.1119 -0.2372  0.0274
12140PP      PP22244   3.765   0.389  12.008 -0.1865  0.0699  0.1755
12141PP      PP22245  13.101   9.397   0.362  0.4132  0.2758 -0.3849
12142PP      PP22246   0.734   7.535  10.685 -0.0410  0.3950 -0.0520
12143PP      PP22247   5.970  12.657   0.917  0.1565  0.0368  0.1249
12144PP      PP22248   0.028   6.661  12.092 -0.2122  0.2828  0.0823
12145PP      PP22249  11.385  10.779  13.150 -0.1395 -0.2136 -0.0328
12146PP      PP22250   0.507  10.774   9.993  0.0789  0.2906 -0.1224
12147PP      PP22251   4.805  12.556   4.313  0.3862 -0.0860  0.2523
12148PP      PP22252  11.530  11.515   3.837 -0.0428 -0.1998 -0.3944
12149PP      PP22253   4.365   3.308  12.802 -0.0170  0.2367  0.2100
12150PP      PP22254  13.098  14.512  10.311  0.2264 -0.2006 -0.0174
12151PP      PP22255   5.561   3.870  12.937  0.0470  0.2423  0.2533
12152PP      PP22256  12.754  12.210  12.395 -0.1734  0.3120  0.0176
12153PP      PP22257   3.554   9.783  10.496  0.1658  0.2038 -0.0895
12154PP      PP22258   9.713   0.145   1.903  0.0928  0.0015 -0.0242
12155PP      PP22259   2.712   1.984   9.430  0.0662 -0.0918 -0.0032
12156PP      PP22260   4.219   4.124  12.233  0.1300  0.1115 -0.0250
12157PP      PP22261   7.911  14.335  10.132 -0.0868 -0.3638  0.0776
12158PP      PP22262   8.642   6.146   1.906 -0.2046  0.2395 -0.0225
12159PP      PP22263  10.358  13.238  12.402  0.1179 -0.0189  0.1210
12160PP      PP22264  12.674   4.564  11.875 -0.2489 -0.3515 -0.0333
12161PP      PP22265   7.521   8.232   9.962  0.2046  0.2811 -0.0063
12162PP      PP22266  14.340  12.001   3.102 -0.0476 -0.1106 -0.0491
12163PP      PP22267   3.540   7.794   1.124 -0.1245  0.0427  0.0626
12164PP      PP22268  15.548   6.996   3.264 -0.0377  0.1795  0.0439
12165PP      PP22269  13.237   5.125   2.436 -0.0392  0.2170 -0.0306
12166PP      PP22270  15.024   4.297   9.551  0.0098 -0.3415  0.1595
12167PP      PP22271   2.573  12.571   9.105 -0.0498 -0.0674  0.0879
12168PP      PP22272  14.278   9.718   0.960  0.0243  0.0673 -0.1567
12169PP      PP22273   8.157  15.642  12.130  0.3094  0.2462 -0.0359
12170PP      PP22274   8.599  12.132   1.664 -0.0717 -0.0094  0.3549
12171PP      PP22275   9.274   2.539   8.861 -0.0005 -0.1307  0.2225
12172PP      PP22276   9.454   2.782   0.580 -0.2710  0.2161 -0.0369
12173PP      PP22277   9.394  10.085   9.484 -0.0116  0.2560  0.2860
12174PP      PP22278  13.472   0.767  10.958  0.2745 -0.0640  0.2322
12175PP      PP22279   5.910   1.253  11.739 -0.3207  0.2180  0.0320
12176PP      PP22280  14.962   0.528   2.520 -0.1602 -0.0560  0.0598
12177PP      PP22281  10.139   3.886  13.407  0.1131 -0.2216  0.2284
12178PP      PP22282   3.722   7.456  13.386  0.1990 -0.1640  0.0353
12179PP      PP22283  14.689  13.956   9.276 -0.1056 -0.2906  0.1480
12180PP      PP22284   1.428   2.499   2.268  0.0690 -0.1170 -0.2157
12181PP      PP22285   8.827   2.845  13.470 -0.2917 -0.0350  0.1832
12182PP      PP22286   4.491   5.450  13.438  0.1349 -0.3974 -0.1672
12183PP      PP22287  11.432   9.946   0.393 -0.3062  0.2939 -0.2941
12184PP      PP22288  11.558   5.022   4.223  0.0232 -0.1865 -0.1953
12185PP      PP22289   2.562  10.632   2.236 -0.0635  0.0488  0.1136
12186PP      PP22290   2.767   3.776  10.828  0.0149 -0.0252 -0.2427
12187PP      PP22291  10.491   8.130   4.126 -0.1575 -0.0555  0.2391
12188PP      PP22292   4.187   8.987   2.952  0.3358 -0.1033 -0.0744
12189PP      PP22293   8.189  15.009   0.680  0.5051 -0.2218  0.0200
12190PP      PP22294   4.481   0.306   3.018 -0.1360 -0.1040 -0.1570
12191PP      PP22295  13.305   7.102   1.782 -0.0435  0.3259  0.2710
12192PP      PP22296  15.259   4.444  13.593 -0.2828 -0.1447  0.1172
12193PP      PP22297   1.845  11.782   1.460  0.0930  0.0346  0.0584
12194PP      PP22298   8.322   7.271   3.721 -0.2585 -0.0242 -0.1515
12195PP      PP22299   5.404  15.421   9.666 -0.1115 -0.0720  0.1499
12196PP      PP22300   7.344   2.189  11.634  0.1134 -0.1861 -0.0951
12197PP      PP22301  13.665   3.872   1.759 -0.0706 -0.1031  0.1128
12198PP      PP22302   0.965  12.763   4.166 -0.0904  0.3063  0.0546
12199PP      PP22303   5.837   8.640  10.542 -0.0093  0.2054 -0.0029
12200PP      PP22304  12.848   0.956  10.251 -0.4269 -0.0633 -0.1014
12201PP      PP22305  13.865   4.863  13.191 -0.1702 -0.0647  0.0062
12202PP      PP22306  15.016   0.466  10.525 -0.2292 -0.0310  0.0384
12203PP      PP22307   6.668   1.099   1.181  0.0784 -0.1871 -0.1079
12204PP      PP22308  15.481   0.199   1.631  0.0628 -0.0249  0.0225
12205PP      PP22309  12.315   1.062   1.946 -0.0393  0.1123  0.4568
12206PP      PP22310   3.681  12.711   3.153  0.3849  0.0520 -0.0152
12207PP      PP22311  10.097  12.530   0.126 -0.2196 -0.0797  0.0774
12208PP      PP22312   1.103   3.460   3.177 -0.0849  0.0297 -0.0158
12209PP      PP22313   2.121   9.414   4.220  0.0106 -0.1975  0.1078
12210PP      PP22314   1.127   5.273  12.933 -0.2423 -0.0023  0.0207
12211PP      PP22315  13.368   2.650   9.986  0.0507  0.1014 -0.1780
12212PP      PP22316   2.408   7.969  12.159  0.1085  0.0577  0.2237
12213PP      PP22317  13.148   3.872   8.266 -0.0155  0.1999  0.2436
12214PP      PP22318   7.397  13.944   3.174  0.0986  0.0728  0.0208
12215PP      PP22319   2.363  11.780  10.764  0.2923 -0.0625 -0.0430
12216PP      PP22320  15.514  14.083  11.124 -0.0067 -0.1153  0.1917
12217PP      PP22321  10.422   7.806  13.506  0.1858 -0.3558  0.0765
12218PP      PP22322   1.671   0.321   2.686  0.0422  0.1151  0.3370
12219PP      PP22323  15.305  11.836   2.210 -0.0366  0.2978 -0.0397
12220PP      PP22324  13.684   5.947   1.806 -0.0846  0.2280 -0.0314
12221PP      PP22325   7.428   0.683   4.042  0.0228 -0.3053 -0.0311
12222PP      PP22326   3.608   4.611  11.173  0.0317  0.0442  0.0145
12223PP      PP22327  12.528  13.421  10.357 -0.0492  0.2581  0.2055
12224PP      PP22328   0.466   0.365   0.229  0.3386 -0.0925 -0.0715
12225PP      PP22329  12.481  13.241   1.926 -0.0594  0.1870  0.1227
12226PP      PP22330   8.313  13.562   9.947  0.1840  0.0038 -0.0842
12227PP      PP22331   4.161   6.272   1.489 -0.2915 -0.0270 -0.2463
12228PP      PP22332   3.965  15.088   5.153 -0.1134 -0.3217  0.1127
12229PP      PP22333   4.561   7.472   0.555  0.1749 -0.3614 -0.0647
12230PP      PP22334   2.398   1.684  13.281 -0.1460 -0.0519  0.2499
12231PP      PP22335   7.203  14.853   1.010  0.1431 -0.1234  0.0202
12232PP      PP22336  11.770  12.569   0.870 -0.1246 -0.1390 -0.2875
12233PP      PP22337   4.363   5.199   4.592 -0.1724 -0.0124  0.0360
12234PP      PP22338   9.097  13.476   1.955 -0.0702  0.1666  0.3706
12235PP      PP22339   1.150  12.295  11.189 -0.0454 -0.3154 -0.1163
12236PP      PP22340  13.094   6.326  12.459 -0.0434  0.1373 -0.2564
12237PP      PP22341   2.044  12.758   9.136  0.1625 -0.4059  0.3853
12238PP      PP22342  14.229   4.501   2.656  0.2051  0.0299  0.0074
12239PP      PP22343   4.729   4.107   0.119 -0.2068  0.0314 -0.1591
12240PP      PP22344   6.546  12.681  13.200 -0.6481 -0.0815  0.2905
12241PP      PP22345   3.177   3.347  11.755 -0.3547  0.0050  0.0742
12242PP      PP22346   1.305  11.882   5.164 -0.2768 -0.1950  0.0748
12243PP      PP22347   7.442  12.458  12.982 -0.0484 -0.0234 -0.2868
12244PP      PP22348   7.431   3.572  11.518 -0.3327  0.0395 -0.0130
12245PP      PP22349   3.486  10.042   1.195 -0.1659 -0.1125 -0.2177
12246PP      PP22350   2.202  15.330  11.496  0.0963  0.0111 -0.1763
12247PP      PP22351   5.279  10.043   0.905 -0.1170  0.2258 -0.2383
12248PP      PP22352   0.683   7.677  13.272  0.2820  0.2319  0.0671
12249PP      PP22353  15.175  13.676  11.388  0.1023  0.0973 -0.1324
12250PP      PP22354   8.287  14.337  12.583  0.1953  0.1009 -0.1831
12251PP      PP22355  14.880   2.830   1.912 -0.2130  0.0799  0.2329
12252PP      PP22356  14.335   4.890  12.795  0.0280  0.1394 -0.0735
12253PP      PP22357   7.664   5.315   3.252  0.4196 -0.1803  0.1217
12254PP      PP22358  15.123  14.060  10.394 -0.0124  0.2897 -0.1075
12255PP      PP22359   8.312   3.821   2.061 -0.0504  0.0310 -0.0429
12256PP      PP22360  14.701   2.666   0.105 -0.1282  0.1175 -0.0005
12257PP      PP22361  15.387   4.802  11.066 -0.0582  0.1130  0.0735
12258PP      PP22362   6.706   3.192   9.864  0.1793  0.2393  0.1287
12259PP      PP22363   3.332  14.576  12.190  0.2669 -0.0303  0.3133
12260PP      PP22364  10.255  14.400  12.074  0.4403  0.2599  0.1383
12261PP      PP22365  13.704   6.961   1.058 -0.0941  0.0674 -0.1455
12262PP      PP22366  10.083   6.268  12.251  0.0701 -0.0496 -0.0311
12263PP      PP22367   7.637   9.960   8.527 -0.0273  0.3827 -0.1047
12264PP      PP22368   3.653   0.151   3.705  0.1440 -0.2985  0.0339
12265PP      PP22369   4.720   2.212   3.384  0.2336  0.4509 -0.1890
12266PP      PP22370   0.449  11.881  10.921  0.1417  0.0613  0.0649
12267PP      PP22371   4.742   8.049   3.997  0.0767 -0.0491  0.0825
12268PP      PP22372   9.268  14.643   2.772  0.0810 -0.0521 -0.3559
12269PP      PP22373  12.673   0.688  12.585  0.1417 -0.1000 -0.0302
12270PP      PP22374  12.180   5.123  13.494  0.0474 -0.0746 -0.3237
12271PP      PP22375   9.175  12.202  13.193  0.0611 -0.1425 -0.1276
12272PP      PP22376   0.255  15.330   0.260 -0.0757  0.0545  0.0121
12273PP      PP22377   8.124   9.592  12.090  0.1483  0.1546  0.1271
12274PP      PP22378  12.856  12.040   0.646  0.1311  0.0093  0.0358
12275PP      PP22379  14.034   1.218  13.706  0.2733  0.1966 -0.2781
12276PP      PP22380  14.406   8.199  12.265 -0.2283 -0.2441  0.2199
12277PP      PP22381   5.953   1.896   0.720 -0.0960  0.1727 -0.3448
12278PP      PP22382   6.718   6.631  13.445 -0.0172 -0.1812 -0.1506
12279PP      PP22383   0.189   8.128   9.670 -0.1658  0.0274  0.4010
12280PP      PP22384   3.661   7.334   1.734 -0.1519 -0.1213  0.1595
12281PP      PP22385  12.273   5.416   0.465 -0.0355  0.1243  0.2303
12282PP      PP22386   4.388  11.048   3.182 -0.0242 -0.2447 -0.4276
12283PP      PP22387  14.468   0.288  12.515  0.2202  0.3647  0.1028
12284PP      PP22388   8.478   5.380  10.548 -0.0333 -0.0506 -0.0485
12285PP      PP22389   7.947   1.863   1.290 -0.0062  0.1309 -0.0693
12286PP      PP22390   7.179   2.654  12.003  0.0301  0.1232  0.4705
12287PP      PP22391   0.658  12.372  11.121 -0.1499  0.0604 -0.2749
12288PP      PP22392   0.060   1.063   3.685  0.1200 -0.0650 -0.0592
12289PP      PP22393  13.626  12.343   0.302 -0.2035 -0.1978  0.1011
12290PP      PP22394  15.059  13.696  13.768 -0.1583  0.0879 -0.1515
12291PP      PP22395  11.024  15.212   0.610 -0.3285 -0.0063 -0.0675
12292PP      PP22396  15.436   0.553   2.610 -0.3108  0.0532  0.0158
12293PP      PP22397   7.882   3.877  13.449  0.2375 -0.0686 -0.2692
12294PP      PP22398  13.432  12.710  13.763 -0.1540 -0.0305 -0.3402
12295PP      PP22399   9.213   1.633   0.382 -0.1149  0.0886  0.2050
12296PP      PP22400  13.563   8.191  11.151 -0.1416 -0.2096 -0.0547
12297PP      PP22401   3.032   2.897   0.492 -0.1759  0.0629  0.3765
12298PP      PP22402   9.757   8.291   4.204 -0.1938 -0.1088  0.0523
12299PP      PP22403  13.315   7.475  10.738 -0.3143 -0.2594 -0.1960
12300PP      PP22404   8.208   9.672   9.388 -0.0908  0.1620  0.1730
12301PP      PP22405  10.569  11.773  12.251 -0.1396  0.0003 -0.0385
12302PP      PP22406   0.245   6.696  11.441 -0.1872  0.1631 -0.1760
12303PP      PP22407   2.533   9.458  11.283  0.0344  0.0132  0.0204
12304PP      PP22408   1.637   9.985   3.796 -0.0461  0.0767 -0.0753
12305PP      PP22409  10.219   6.702   9.806  0.3748 -0.0464  0.1413
12306PP      PP22410  14.240  12.124   1.587 -0.0213  0.1828 -0.4658
12307PP      PP22411   2.379   7.414   9.918  0.1631 -0.1212  0.0890
12308PP      PP22412  11.728   9.450   0.574  0.0694  0.2955  0.1588
12309PP      PP22413  15.425   7.801  10.784  0.0997 -0.0523  0.2585
12310PP      PP22414   7.935   9.188   2.363 -0.1941 -0.1501 -0.2750
12311PP      PP22415  11.207   2.200  11.662 -0.0061 -0.1435  0.0780
12312PP      PP22416   1.977   9.388   1.670  0.2404 -0.0580 -0.4356
12313PP      PP22417   7.767   2.454   2.945 -0.2627  0.0765 -0.0170
12314PP      PP22418  12.154   4.246  13.009  0.0973 -0.2286 -0.0548
12315PP      PP22419  10.362   9.277   1.119 -0.0286 -0.1781  0.0669
12316PP      PP22420   0.595  10.671  13.105 -0.1783 -0.2771  0.0451
12317PP      PP22421  13.384  12.794   2.601  0.0667 -0.0466 -0.6274
12318PP      PP22422   1.956   0.042   4.619 -0.0273 -0.5762 -0.3412
12319PP      PP22423   4.689  10.965   2.844 -0.1154 -0.0996 -0.1481
12320PP      PP22424   4.873   4.761   8.222  0.0862  0.0162  0.0485
12321PP      PP22425  10.822   5.771   1.837 -0.0170 -0.0203 -0.0737
12322PP      PP22426   4.700   5.091  13.048 -0.1224 -0.0482  0.1160
12323PP      PP22427   3.989   2.679   9.586  0.1078  0.0175 -0.0161
12324PP      PP22428   5.339  11.041   1.518 -0.3279  0.0650  0.1069
12325PP      PP22429   9.161  12.107   1.886 -0.1272 -0.0761  0.2529
12326PP      PP22430   5.778   2.548  10.017 -0.2936  0.2106 -0.0875
12327PP      PP22431   1.044   6.595   0.988 -0.0938  0.1511  0.0351
12328PP      PP22432   2.442   1.222  13.763  0.3343  0.3471  0.4392
12329PP      PP22433   3.063   3.047  12.182 -0.0842  0.0315 -0.1950
12330PP      PP22434   9.872   8.525  11.588 -0.0015  0.0463 -0.0169
12331PP      PP22435  10.458   1.539   0.124  0.0431 -0.1722  0.1355
12332PP      PP22436  14.982   5.451   0.032  0.1015  0.1646 -0.1722
12333PP      PP22437  11.338   2.292   1.822  0.2146 -0.1002  0.2911
12334PP      PP22438   0.030   4.167  13.731 -0.1637 -0.2102  0.0469
12335PP      PP22439   8.676   7.022  11.190  0.0096  0.3116  0.1647
12336PP      PP22440  11.047  10.310  12.547  0.4153 -0.2396  0.0398
12337PP      PP22441   5.301  15.009   4.489 -0.0454 -0.0301  0.3068
12338PP      PP22442  14.201   2.618  11.874 -0.1815 -0.2273 -0.4282
12339PP      PP22443   4.556   6.899  12.181 -0.1250  0.4014 -0.2011
12340PP      PP22444   3.096   4.452  11.206  0.2500 -0.0012 -0.1761
12341PP      PP22445   4.631   1.455  10.448  0.0949  0.0143 -0.0219
12342PP      PP22446   7.510  11.129   8.722  0.0569 -0.1336 -0.1985
12343PP      PP22447  14.713  12.581   0.647 -0.0841 -0.2279  0.0183
12344PP      PP22448  14.484   9.598   3.188  0.1280  0.0185 -0.2205
12345PP      PP22449  10.509  13.639  11.509  0.2030  0.0103 -0.2487
12346PP      PP22450   0.287   6.569   9.953 -0.2291 -0.3278  0.0751
12347PP      PP22451   2.711   8.328  10.221  0.2655  0.1737 -0.0397
12348PP      PP22452  14.775   8.368   9.203 -0.2749  0.0693 -0.2485
12349PP      PP22453   8.071   3.528   4.049 -0.2042  0.0315 -0.4343
12350PP      PP22454  13.822  10.352   2.055  0.1531 -0.0401  0.0515
12351PP      PP22455   9.832  14.401  11.719  0.1112 -0.1153 -0.0546
12352PP      PP22456   9.497   2.641   8.419 -0.1496 -0.0719  0.0925
12353PP      PP22457   5.297  14.275   1.166  0.2553  0.2589  0.0990
12354PP      PP22458   5.913   5.294  13.632 -0.2213 -0.1139  0.2711
12355PP      PP22459   0.458  14.584   1.672  0.1980 -0.0327 -0.0547
12356PP      PP22460   8.972  12.203  12.670 -0.1475 -0.2103 -0.0346
12357PP      PP22461   7.004   5.095   0.734 -0.2090 -0.1037 -0.0604
12358PP      PP22462   5.863  10.699  12.391 -0.0081 -0.1062 -0.0810
12359PP      PP22463   9.754   9.733  13.568  0.2024  0.4088 -0.1071
12360PP      PP22464  12.363   0.507   9.416 -0.0496 -0.1764 -0.0252
12361PP      PP22465   6.515   0.670   9.570  0.2106  0.0928 -0.0699
12362PP      PP22466  14.126  15.635   3.677 -0.0962 -0.0070  0.3183
12363PP      PP22467   2.800   7.248  12.581 -0.1767 -0.0479  0.1066
12364PP      PP22468   3.800   5.510   2.458 -0.3339 -0.2453 -0.2100
12365PP      PP22469   7.944  12.048  11.177 -0.2325 -0.1708  0.2652
12366PP      PP22470  13.952  11.547  10.548 -0.1802  0.0808 -0.0166
12367PP      PP22471   4.499   9.180   9.734 -0.0356  0.2733 -0.1486
12368PP      PP22472   9.903  13.295   1.462 -0.2831 -0.1954  0.1742
12369PP      PP22473   6.888  10.016  11.195 -0.1206 -0.0854 -0.1681
12370PP      PP22474   2.475   6.034   2.752 -0.1977  0.1896  0.0587
12371PP      PP22475  13.415   8.006  13.499 -0.2116  0.0394 -0.1663
12372PP      PP22476   7.688  11.301   0.791  0.2075  0.1418  0.0977
12373PP      PP22477   8.883  10.448  12.584 -0.2224  0.1452  0.1683
12374PP      PP22478  13.708  11.287   4.265  0.1111  0.2034  0.0527
12375PP      PP22479   8.773   1.001   9.730 -0.1428 -0.0251 -0.1514
12376PP      PP22480   7.846  15.029   3.310 -0.1991  0.0407 -0.3815
12377PP      PP22481   2.810  12.332  12.848 -0.3417 -0.0272  0.0341
12378PP      PP22482  14.494  12.451  10.324  0.2727 -0.0085 -0.0936
12379PP      PP22483   2.994   0.155   2.502  0.1607 -0.2268  0.3851
12380PP      PP22484   1.912  14.731   9.253 -0.1684  0.2071 -0.1589
12381PP      PP22485   7.255  12.044   3.167 -0.0001  0.0735 -0.0409
12382PP      PP22486  10.758   9.256   9.022  0.0399  0.2235  0.0895
12383PP      PP22487   8.053   7.653   3.402  0.0522 -0.1635 -0.3548
12384PP      PP22488  11.329   6.272  12.164  0.0597 -0.3241 -0.3251
12385PP      PP22489   8.918   6.629   8.995  0.1206  0.1196  0.0918
12386PP      PP22490   4.330  11.974   1.038 -0.0023 -0.0168 -0.4491
12387PP      PP22491  13.795   2.827   3.704 -0.3955 -0.1388 -0.1160
12388PP      PP22492   8.561  13.290  11.736  0.2595 -0.0489 -0.0598
12389PP      PP22493   2.180  13.033  13.565 -0.0019  0.2329  0.3125
12390PP      PP22494  14.572  14.270  13.186  0.1003  0.0279  0.0048
12391PP      PP22495   1.853   0.922   1.285  0.1277 -0.1677 -0.0651
12392PP      PP22496   6.468   6.090   4.158 -0.0676 -0.1155 -0.2418
12393PP      PP22497  14.055  11.326  13.065 -0.0015 -0.0139  0.0114
12394PP      PP22498   0.877   6.329  10.983 -0.2035 -0.1262 -0.0054
12395PP      PP22499  13.511  10.175  13.348 -0.1719  0.1625  0.0882
12396PP      PP22500   7.505   3.853   2.501  0.0567  0.4579 -0.2415
12397PP      PP22501   6.471   0.003  10.618  0.0611 -0.1262 -0.0360
12398PP      PP22502   2.986  10.354   0.949 -0.0248  0.3059 -0.0624
12399PP      PP22503  11.136   8.472   3.442 -0.0378  0.0526 -0.0257
12400PP      PP22504  13.007  14.604   9.640  0.0251 -0.0498  0.2678
12401PP      PP22505  11.062   3.698   9.725 -0.0072  0.0970  0.3099
12402PP      PP22506  12.824   2.197   2.812  0.0257 -0.0949 -0.1730
12403PP      PP22507   2.496   7.957  13.170 -0.0336  0.2447 -0.2512
12404PP      PP22508   2.201   1.258  12.428  0.3214 -0.1045 -0.1053
12405PP      PP22509   4.525   7.583  10.319  0.0417 -0.0939 -0.0806
12406PP      PP22510   0.418  11.621  11.537 -0.1211 -0.2088  0.1964
12407PP      PP22511   0.957  11.081  12.730  0.0278  0.2283  0.2374
12408PP      PP22512   7.605   5.681   1.123  0.0422 -0.1951 -0.0447
12409PP      PP22513   9.966   9.497  10.109 -0.1500 -0.2305 -0.0616
12410PP      PP22514  11.351  14.072  11.730 -0.2336  0.2483 -0.0274
12411PP      PP22515  11.843   4.052   0.941 -0.0027 -0.1103 -0.1292
12412PP      PP22516   4.341  13.288   9.475 -0.1927  0.5256  0.0761
12413PP      PP22517  10.438  13.792   2.344  0.4017  0.2802 -0.0508
12414PP      PP22518  14.890   0.624  12.824 -0.0066 -0.0470 -0.0902
12415PP      PP22519   8.470   1.823   4.049  0.2362 -0.0286  0.1357
12416PP      PP22520   5.831   6.314   1.395 -0.2536 -0.0893  0.1876
12417PP      PP22521  11.206   6.306   1.032  0.1599 -0.1112 -0.2322
12418PP      PP22522  14.738   1.289  11.252  0.0227  0.3118  0.0802
12419PP      PP22523   1.574  11.846   1.061  0.2506  0.0381  0.1042
12420PP      PP22524   8.209  11.882  13.600 -0.3093  0.1644  0.1241
12421PP      PP22525   8.921   0.709  13.596  0.3342 -0.0528  0.1633
12422PP      PP22526  12.694   8.764   3.483 -0.0746  0.0431  0.0791
12423PP      PP22527   1.348  10.109  13.761  0.0137  0.4424  0.2701
12424PP      PP22528   3.028   9.661   4.359 -0.1537  0.2627 -0.2049
12425PP      PP22529   9.880   5.206   1.674 -0.0484  0.5245  0.0229
12426PP      PP22530   3.600   5.180  10.536  0.1202  0.0356 -0.0327
12427PP      PP22531   4.514   8.229  11.478  0.0298 -0.0534  0.3080
12428PP      PP22532   5.202  11.306   5.024  0.0653 -0.0762 -0.2617
12429PP      PP22533   3.909   3.909  11.529 -0.2231  0.0872 -0.0557
12430PP      PP22534   2.438   4.742   4.064 -0.0800 -0.0203 -0.2881
12431PP      PP22535   5.974   4.391   2.671 -0.2189 -0.0064 -0.0636
12432PP      PP22536   8.917   2.510   8.491 -0.1786  0.2186  0.0869
12433PP      PP22537   7.689  11.297   5.194 -0.0270 -0.0075  0.2913
12434PP      PP22538  10.057   4.135  11.859  0.0786  0.0753  0.0203
12435PP      PP22539   9.316   5.738   9.544 -0.2578 -0.0659 -0.3201
12436PP      PP22540   0.445  11.418   1.005 -0.2065  0.1106  0.0681
12437PP      PP22541   3.536  14.733  12.929  0.0881  0.1870  0.0002
12438PP      PP22542   5.357   7.816   5.023 -0.2579  0.1274 -0.0430
12439PP      PP22543   3.780   7.837   4.007  0.2045 -0.0441  0.2435
12440PP      PP22544  14.926   5.556  12.443  0.1487 -0.0671  0.0865
12441PP      PP22545   3.214   1.484   0.191  0.0526  0.0664  0.1225
12442PP      PP22546   9.679   6.110   8.621  0.1939  0.1613  0.0368
12443PP      PP22547  10.232   6.572   2.260 -0.0694  0.2856 -0.0409
12444PP      PP22548  14.300  10.214   1.195 -0.1499 -0.3726 -0.0594
12445PP      PP22549   5.492   3.025  10.002 -0.0387 -0.0871  0.1314
12446PP      PP22550   9.852  15.149  12.181  0.3223  0.3256  0.3435
12447PP      PP22551   4.945   9.572   4.845 -0.0431  0.1030  0.0118
12448PP      PP22552   3.048   7.889   2.097 -0.0802  0.0782 -0.0760
12449PP      PP22553  10.452   8.390   9.415 -0.3039  0.0221 -0.0244
12450PP      PP22554   5.723   2.946  12.774 -0.2855  0.1068  0.0783
12451PP      PP22555  13.530   1.882   2.411 -0.1087  0.0641 -0.0735
12452PP      PP22556   3.634   5.288   9.963  0.3903  0.5851  0.0636
12453PP      PP22557   6.941   3.849   2.718 -0.0846  0.0098 -0.0317
12454PP      PP22558   9.343   3.491   9.804  0.0510  0.0911 -0.0772
12455PP      PP22559   4.839  12.237   0.101  0.3160  0.1339 -0.1181
12456PP      PP22560   1.313   3.653   2.330  0.2981  0.2067 -0.0915
12457PP      PP22561   4.093   9.927  10.060 -0.1731  0.2417  0.1504
12458PP      PP22562   8.958   0.342   2.362  0.3201  0.2601 -0.1664
12459PP      PP22563  11.345  12.600  11.546  0.3489  0.1265  0.0133
12460PP      PP22564   4.767  13.416  11.177 -0.2604 -0.0177  0.0182
12461PP      PP22565   8.661   0.796   2.028 -0.2799  0.0329  0.0653
12462PP      PP22566   4.345   0.460  13.097 -0.2227 -0.0588 -0.1620
12463PP      PP22567   9.750   7.871  10.475 -0.1329 -0.0394 -0.0333
12464PP      PP22568  14.025  12.071   2.692 -0.0610  0.1639 -0.1341
12465PP      PP22569  10.215   7.856  11.615 -0.0777  0.0376 -0.1675
12466PP      PP22570   0.028  13.891   1.700 -0.0912  0.2357  0.0652
12467PP      PP22571   4.981   9.041  10.469 -0.0524  0.0715 -0.1260
12468PP      PP22572   0.845  12.426  12.732 -0.1372  0.1110 -0.5949
12469PP      PP22573   3.193  15.337   5.109 -0.4059  0.2050 -0.0154
12470PP      PP22574   3.478   8.901  13.410 -0.1013 -0.0927  0.1817
12471PP      PP22575   5.217  15.632   8.482 -0.1476  0.1263  0.0820
12472PP      PP22576  12.764   4.380   1.582 -0.2399  0.0429  0.1281
12473PP      PP22577  13.003   5.910   2.211 -0.1984  0.0224  0.0597
12474PP      PP22578  12.927   5.819   3.145 -0.1948 -0.0284  0.0681
12475PP      PP22579   8.560   9.718   3.564 -0.0927  0.1286 -0.1860
12476PP      PP22580   1.208   5.026   9.385 -0.1473  0.0870 -0.2821
12477PP      PP22581   3.556  13.369   0.308  0.1610 -0.0303 -0.0884
12478PP      PP22582  15.041   9.651  12.158 -0.2911  0.1889  0.2878
12479PP      PP22583   2.994   5.659   2.692 -0.1521 -0.1142  0.0531
12480PP      PP22584  13.544   6.285   9.543  0.1029  0.1124  0.1042
12481PP      PP22585   5.062   8.064   3.361  0.0355 -0.0772  0.0439
12482PP      PP22586   5.322  11.985   0.969 -0.0282 -0.2510  0.3088
12483PP      PP22587   5.306  11.410   4.112 -0.1993 -0.0143  0.1769
12484PP      PP22588   3.599   4.942   8.762  0.0707 -0.0596  0.0212
12485PP      PP22589   9.455   4.598   9.437 -0.2651  0.0611 -0.0600
12486PP      PP22590  12.585   7.569   9.316 -0.2081 -0.1861 -0.2922
12487PP      PP22591   2.878   4.336   2.736 -0.4880 -0.2182 -0.1371
12488PP      PP22592   2.672  15.474  11.256 -0.3496  0.1036  0.0210
12489PP      PP22593   5.345   0.140   0.275 -0.0709 -0.1681 -0.0738
12490PP      PP22594  11.991  14.081   0.436 -0.1713  0.2501 -0.1812
12491PP      PP22595   8.619   1.520  10.163  0.2302  0.0027 -0.1403
12492PP      PP22596  10.445  12.824   0.507 -0.1499  0.0543 -0.3534
12493PP      PP22597   4.098  12.399  12.299  0.3701 -0.2278  0.0306
12494PP      PP22598  12.381   5.948   0.006 -0.1471  0.2736  0.4251
12495PP      PP22599  11.922   9.791   2.353  0.3559  0.0557 -0.1795
12496PP      PP22600   1.561   1.198  11.144 -0.2570  0.1680 -0.1988
12497PP      PP22601   5.120   4.405   0.019  0.1564  0.0389 -0.0677
12498PP      PP22602  10.521  14.793   2.174  0.0483  0.0503 -0.2222
12499PP      PP22603   2.598   7.802  11.061  0.1010  0.2026 -0.2051
12500PP      PP22604  10.429   4.145   0.634 -0.0920 -0.0259 -0.2335
12501PP      PP22605   1.429  11.211  12.571 -0.1582  0.0479 -0.0030
12502PP      PP22606   6.089   9.043  12.722 -0.2031  0.0583 -0.2874
12503PP      PP22607  12.768   6.516   9.299 -0.1639 -0.0327  0.2897
12504PP      PP22608   0.811   1.240   4.523 -0.1095 -0.3394 -0.0004
12505PP      PP22609   8.281   2.690   1.264  0.0794  0.2262  0.0787
12506PP      PP22610   2.863   7.777   0.628  0.2334 -0.1691  0.0688
12507PP      PP22611  13.291  13.998   3.533  0.1857 -0.0581 -0.1361
12508PP      PP22612  11.507  13.795  13.730 -0.0623  0.0074 -0.4745
12509PP      PP22613  13.425   9.123   9.458 -0.1400  0.0059  0.1605
12510PP      PP22614  14.564  13.785   0.082  0.1371 -0.2469 -0.1200
12511PP      PP22615   8.418  10.702   4.119  0.1762 -0.0945 -0.1345
12512PP      PP22616  11.050   8.825   4.336 -0.4182  0.0544 -0.0424
12513PP      PP22617   0.069  15.530  13.175  0.0139  0.0463 -0.1338
12514PP      PP22618   9.071   1.863   4.045  0.0545  0.0045 -0.2596
12515PP      PP22619   1.501   5.855   9.586 -0.1248  0.2722 -0.3341
12516PP      PP22620   4.197  14.730  13.654 -0.0665  0.0427 -0.2239
12517PP      PP22621   1.770   9.380  13.231 -0.2956 -0.1370  0.0959
12518PP      PP22622  15.661  13.956   0.327  0.1005 -0.0083 -0.0098
12519PP      PP22623   9.534  13.212   1.106 -0.0306 -0.1785 -0.1071
12520PP      PP22624   4.832  13.481   9.190  0.1356 -0.0248 -0.1061
12521PP      PP22625  14.028   3.397  11.296 -0.0107  0.0855  0.1203
12522PP      PP22626  11.710   2.484  11.589 -0.3316 -0.2068  0.2213
12523PP      PP22627  10.048  11.473   2.431  0.0928 -0.3175  0.3014
12524PP      PP22628  15.058  14.127   9.878 -0.0154 -0.0357 -0.2377
12525PP      PP22629   7.390   6.700  10.207  0.1926 -0.0169  0.0508
12526PP      PP22630   5.456   2.698   0.737  0.1657  0.1575  0.1147
12527PP      PP22631  14.134   9.582   9.969  0.0661 -0.2942 -0.2721
12528PP      PP22632   0.150   5.787   8.405  0.0488 -0.2141 -0.1335
12529PP      PP22633  13.166   8.209   1.257  0.3845 -0.1068 -0.2119
12530PP      PP22634  14.552   0.599   2.949 -0.0174 -0.0967 -0.2315
12531PP      PP22635  13.487   3.734  12.243  0.0210 -0.1942 -0.0018
12532PP      PP22636   0.071   9.675   0.424  0.1684 -0.0346 -0.1383
12533PP      PP22637   3.710  10.470   3.215 -0.0019 -0.0879 -0.1314
12534PP      PP22638   4.457  11.144  11.610 -0.0134  0.2836 -0.1386
12535PP      PP22639   0.856   1.190   2.188  0.1682 -0.2230  0.1043
12536PP      PP22640   4.038  11.105   1.717  0.1790  0.1591  0.0421
12537PP      PP22641  12.698   2.252   8.888 -0.0883 -0.1643  0.0504
12538PP      PP22642   5.198   6.086   9.915 -0.0690 -0.0227 -0.0552
12539PP      PP22643   5.091   3.331   8.304 -0.1297 -0.3037 -0.3508
12540PP      PP22644   8.747   7.690   1.270  0.2069 -0.2150  0.2345
12541PP      PP22645   6.533  15.411  13.390 -0.0817 -0.1706 -0.4526
12542PP      PP22646   5.035  13.253  12.679 -0.0518 -0.0206  0.0639
12543PP      PP22647  14.253   8.653   4.141 -0.0868  0.0160 -0.0585
12544PP      PP22648   4.218   9.551   0.759  0.2125  0.0215  0.0715
12545PP      PP22649   3.691   8.137   3.245  0.0796  0.0418  0.1328
12546PP      PP22650  12.863   7.241   2.092 -0.1930  0.1015 -0.0715
12547PP      PP22651  13.571   7.504   1.929 -0.0007 -0.0067 -0.1997
12548PP      PP22652   7.893   8.117   0.281 -0.0933 -0.0713 -0.0118
12549PP      PP22653  10.092   7.933   3.987 -0.1774 -0.0124  0.0595
12550PP      PP22654   8.123   2.230   4.160 -0.1184 -0.0062  0.2942
12551PP      PP22655  14.013   2.571   9.945  0.1753 -0.1901  0.1053
12552PP      PP22656   2.717   0.593  10.345  0.0643  0.0737 -0.0867
12553PP      PP22657   9.163  12.332  10.188  0.1405  0.1313 -0.0068
12554PP      PP22658   8.812   7.232   8.994 -0.2944  0.4749  0.3780
12555PP      PP22659   0.466   2.760  13.696 -0.0298 -0.2089  0.2994
12556PP      PP22660   9.480  14.258   9.277 -0.0127 -0.2628 -0.1209
12557PP      PP22661   7.763   9.143   4.509  0.0343  0.0144 -0.1049
12558PP      PP22662  10.537  13.297  10.216  0.1217  0.1616  0.0184
12559PP      PP22663  10.729   0.456   4.650  0.3117  0.7049  0.0706
12560PP      PP22664   3.877   1.808   9.188  0.1152  0.1278  0.2061
12561PP      PP22665   7.297   4.780  12.731 -0.0439 -0.1013 -0.2848
12562PP      PP22666  14.033  14.677   1.141 -0.0714 -0.1259  0.0542
12563PP      PP22667   7.889   6.795   0.407 -0.1713 -0.0921 -0.0285
12564PP      PP22668  12.422   4.276  13.466  0.0360 -0.3287  0.2985
12565PP      PP22669  13.719   2.884  11.549  0.0653 -0.0972  0.1986
12566PP      PP22670   2.578   0.814   4.750  0.1322  0.1392  0.1853
12567PP      PP22671  12.227   9.273  10.655  0.2040 -0.1103 -0.2779
12568PP      PP22672   0.353  10.169  13.398 -0.0216  0.2125  0.0474
12569PP      PP22673   0.384   5.291  11.914  0.2116  0.0380 -0.0587
12570PP      PP22674   0.951  11.516  11.663 -0.1138  0.2177  0.0749
12571PP      PP22675  10.840  10.855   2.772  0.1675  0.1214  0.0140
12572PP      PP22676   4.584   7.175   4.714  0.0513  0.0260 -0.0851
12573PP      PP22677   4.450  13.535   3.637  0.0974 -0.0388 -0.1733
12574PP      PP22678   0.964   1.901   0.594  0.2508  0.3166  0.1586
12575PP      PP22679  11.695  15.317   1.171 -0.0596 -0.1478 -0.0352
12576PP      PP22680   2.271  12.231  12.746  0.0465  0.0648 -0.0538
12577PP      PP22681   3.646  13.227   3.052  0.0928 -0.1501  0.0224
12578PP      PP22682  10.985  10.224   9.014  0.0830 -0.3047 -0.0713
12579PP      PP22683  13.161   8.820  10.852  0.3461 -0.0125  0.0610
12580PP      PP22684   0.449  15.264  10.808  0.3870 -0.2474  0.0817
12581PP      PP22685   1.790   6.089   4.477  0.1010  0.1096 -0.1976
12582PP      PP22686  13.060   2.473   3.143 -0.0045 -0.0664 -0.0552
12583PP      PP22687   4.889  15.726   0.982 -0.0087  0.0136 -0.0465
12584PP      PP22688   8.747  10.626   0.957 -0.2318 -0.1601  0.0264
12585PP      PP22689   5.658  14.563  11.196 -0.1337  0.0941 -0.0182
12586PP      PP22690   5.976  15.228   2.514  0.1657 -0.2012 -0.0157
12587PP      PP22691   8.149   0.977   8.749  0.3234  0.1322  0.0837
12588PP      PP22692  13.146   1.356   3.067 -0.4704  0.0178  0.4485
12589PP      PP22693  12.060  13.192   3.424 -0.1860 -0.1266  0.0842
12590PP      PP22694   2.868   8.750   0.113 -0.1437  0.0977 -0.0088
12591PP      PP22695   6.279   3.296  10.105  0.0386  0.2361 -0.0765
12592PP      PP22696  12.842   6.083  11.072 -0.2986 -0.1187 -0.0228
12593PP      PP22697  11.129  12.677   0.832  0.0961 -0.2834 -0.0412
12594PP      PP22698   2.483  12.576  10.369  0.0121 -0.0692  0.2801
12595PP      PP22699   1.715   0.825   0.368 -0.0737  0.0243 -0.0342
12596PP      PP22700  11.035  12.412  10.534  0.0493 -0.0157 -0.1255
12597PP      PP22701   2.797  12.798   9.889 -0.0360 -0.0509 -0.3997
12598PP      PP22702   7.806   0.992   3.251 -0.1269  0.1703 -0.1051
12599PP      PP22703   0.471   1.746  13.254 -0.0493 -0.2560 -0.2219
12600PP      PP22704  13.530   3.297  11.308  0.0350 -0.5992 -0.0218
12601PP      PP22705  15.547   5.152   1.268  0.1508 -0.2969  0.2137
12602PP      PP22706   1.575   0.418  12.812 -0.1914 -0.1253  0.1744
12603PP      PP22707  11.482   0.902  10.113  0.0062 -0.0467 -0.0414
12604PP      PP22708   7.813  11.346  12.263 -0.0991  0.0081 -0.0553
12605PP      PP22709   2.478   6.118  11.193  0.0430 -0.0273 -0.2980
12606PP      PP22710   0.246  10.118  11.434  0.0617 -0.2381  0.1581
12607PP      PP22711   1.763  10.121   0.664 -0.1761 -0.0020 -0.3126
12608PP      PP22712  13.436  11.043  11.622  0.2292 -0.2100 -0.2380
12609PP      PP22713   3.422   9.064   4.361  0.2749 -0.1599 -0.3611
12610PP      PP22714   3.763  12.380  10.278 -0.0884 -0.0492 -0.3536
12611PP      PP22715   8.286   9.714  11.553 -0.2129  0.2147 -0.0582
12612PP      PP22716  14.918   1.786   0.741  0.0324 -0.3180  0.2346
12613PP      PP22717   0.259   4.266   0.410 -0.2654 -0.0796 -0.3651
12614PP      PP22718   9.697   8.296  10.221 -0.1867 -0.0087  0.3014
12615PP      PP22719   0.407  12.884  12.490  0.1703  0.0440 -0.3126
12616PP      PP22720   9.439   5.587  10.545  0.0495  0.0045 -0.0411
12617PP      PP22721   3.569  11.649   3.351  0.2587 -0.1979 -0.0915
12618PP      PP22722   8.612   3.834   8.576 -0.2664 -0.1267 -0.0387
12619PP      PP22723  14.962  11.859  12.253  0.0273  0.2263  0.2521
12620PP      PP22724  14.145  12.257   9.834  0.1251  0.1165  0.1082
12621PP      PP22725   1.163  10.599   1.169  0.2664  0.2259 -0.1262
12622PP      PP22726   9.926  13.705  12.868  0.4162  0.1839 -0.2139
12623PP      PP22727   1.214   0.503   4.428 -0.1733  0.0819  0.0563
12624PP      PP22728   9.537   1.186   3.603 -0.0265 -0.1246  0.1931
12625PP      PP22729   7.941   8.153   4.295 -0.2071  0.1181 -0.1414
12626PP      PP22730   5.966   0.156  12.672  0.0209 -0.3076  0.1215
12627PP      PP22731   5.164  10.452   3.267  0.2484  0.2177 -0.1733
12628PP      PP22732   4.060  14.734   4.233  0.2321  0.1511  0.3142
12629PP      PP22733   1.854   8.510  13.054  0.1397 -0.1713  0.1765
12630PP      PP22734   3.676   5.328   3.216  0.0063 -0.1842 -0.2396
12631PP      PP22735   5.499  13.733   2.514 -0.1629 -0.0425  0.1136
12632PP      PP22736   5.488   1.058  11.551  0.0356 -0.0556 -0.1036
12633PP      PP22737  12.417  11.528   9.519 -0.0961 -0.1752 -0.0766
12634PP      PP22738   0.006  13.251   3.959  0.0719  0.0467  0.1392
12635PP      PP22739  11.847   2.310  12.151 -0.4975  0.1238  0.2171
12636PP      PP22740   0.429   6.704   0.372 -0.0822 -0.1739 -0.0053
12637PP      PP22741   1.565   4.269  12.207  0.1561  0.1469  0.0875
12638PP      PP22742  14.954   6.601  13.098 -0.2523  0.0557  0.0828
12639PP      PP22743  15.443  13.507  11.901 -0.0035  0.1179 -0.0466
12640PP      PP22744  14.867   3.510   3.446 -0.0852 -0.0163 -0.2925
12641PP      PP22745  14.274   9.322   0.455 -0.0855  0.0958 -0.0106
12642PP      PP22746   8.881  11.155  13.049  0.3507 -0.1231  0.0415
12643PP      PP22747   5.342   3.492   3.358 -0.1715 -0.2661 -0.0917
12644PP      PP22748   5.129   4.000   1.079  0.1624 -0.2203  0.0552
12645PP      PP22749  13.679  12.261  12.245  0.1040 -0.2775 -0.0088
12646PP      PP22750   7.696   6.114   0.689  0.0481  0.4037 -0.0222
12647PP      PP22751   9.150   0.426   3.682 -0.0471 -0.2988  0.1695
12648PP      PP22752   9.466  13.655  10.324 -0.2313  0.1572  0.1004
12649PP      PP22753   0.479   0.938  12.461  0.0418  0.2833  0.3262
12650PP      PP22754   1.227  11.847  10.388  0.1577  0.0512 -0.1073
12651PP      PP22755   0.751   9.310   0.929  0.0612  0.1143  0.0506
12652PP      PP22756   5.351   0.752   9.958 -0.0178 -0.0050 -0.1519
12653PP      PP22757   7.791  14.431  10.806 -0.0869  0.0504 -0.0408
12654PP      PP22758  13.672   7.462   9.924 -0.0431  0.1820 -0.0467
12655PP      PP22759  11.911  15.619  10.602  0.1274 -0.2462  0.0730
12656PP      PP22760  12.021   8.170  11.464  0.0165 -0.1665 -0.0925
12657PP      PP22761   6.048  11.982  12.863  0.1113  0.1005 -0.2193
12658PP      PP22762   6.086   5.254  10.633 -0.2012  0.0178  0.1816
12659PP      PP22763   4.204   6.657   1.151 -0.0212  0.0300  0.1842
12660PP      PP22764   3.472  10.629  10.083 -0.0293  0.0388  0.1134
12661PP      PP22765   9.290  12.590   1.939  0.1921 -0.0885  0.4350
12662PP      PP22766  13.284   0.197   1.540 -0.2987 -0.0151 -0.0255
12663PP      PP22767   9.937  11.545  13.632  0.0872 -0.0168  0.0598
12664PP      PP22768  10.918   3.675   2.440  0.1093  0.2254 -0.1514
12665PP      PP22769   5.427  10.256   2.676 -0.2317  0.1485 -0.0755
12666PP      PP22770   9.304   4.229   0.064  0.0109 -0.0368  0.0443
12667PP      PP22771  10.996   2.208  12.685  0.1329  0.2925  0.3483
12668PP      PP22772   5.969   8.972  11.414  0.0168 -0.0913 -0.1768
12669PP      PP22773  12.156   9.372  10.157 -0.0581  0.3229 -0.0981
12670PP      PP22774   3.524   9.915  13.180 -0.3413  0.3376  0.1211
12671PP      PP22775   7.917   6.846   2.126  0.1930  0.1111 -0.1368
12672PP      PP22776   6.829   3.161   8.184 -0.1784 -0.2285 -0.4228
12673PP      PP22777  10.377   2.402  10.381 -0.1563 -0.0730  0.1039
12674PP      PP22778  13.804   8.319   4.193 -0.0016 -0.0192  0.1753
12675PP      PP22779  15.323   6.148   9.849 -0.0017 -0.0388 -0.1650
12676PP      PP22780   9.263   7.818   9.507 -0.1413 -0.0799  0.0894
12677PP      PP22781  15.333   2.010   0.520 -0.0849  0.0053  0.1302
12678PP      PP22782   0.302   4.702   2.560 -0.0422  0.1679  0.0096
12679PP      PP22783  10.408   3.311   3.299  0.2919 -0.2551  0.3572
12680PP      PP22784  14.871   7.346   9.093 -0.1569  0.1841  0.2149
12681PP      PP22785   1.317   9.015   8.952  0.2014  0.0071  0.2313
12682PP      PP22786   0.741   2.361   3.521 -0.0352  0.3549 -0.3235
12683PP      PP22787   5.714   6.912   4.578  0.2378  0.2487  0.1452
12684PP      PP22788   5.294  11.968  10.959 -0.2363 -0.0960 -0.0748
12685PP      PP22789   1.330  14.227  11.713  0.1943  0.0597 -0.1681
12686PP      PP22790   1.433   9.386  10.044  0.2429 -0.4283  0.1459
12687PP      PP22791   1.740   2.105   1.409 -0.2537  0.0977 -0.1613
12688PP      PP22792   0.597  15.199   2.510 -0.0402  0.2200 -0.0494
12689PP      PP22793   7.235   1.241  12.819 -0.0748  0.0604 -0.0128
12690PP      PP22794  11.029   1.795  10.378  0.0316  0.1775  0.2233
12691PP      PP22795   8.330   5.835   9.081  0.1797 -0.1958  0.1244
12692PP      PP22796  14.315   7.556   9.041  0.1614  0.2759  0.2016
12693PP      PP22797  14.851  13.818  12.948 -0.1757  0.1989  0.0064
12694PP      PP22798   1.488   7.395   1.658  0.1859  0.1248  0.0596
12695PP      PP22799   5.283  15.188  10.425 -0.1020  0.0103 -0.0177
12696PP      PP22800  10.917  14.526  10.542 -0.1792  0.0089 -0.2094
12697PP      PP22801   5.856  13.150   0.742  0.1313  0.0770  0.1811
12698PP      PP22802  10.924  12.365  11.511  0.0295  0.0902  0.1657
12699PP      PP22803   3.285   5.300  12.968  0.1240 -0.3853 -0.0037
12700PP      PP22804  15.037   2.800  12.926  0.0800 -0.2275 -0.1752
12701PP      PP22805   4.599   1.570   1.709 -0.1686 -0.0148  0.1271
12702PP      PP22806   6.570   5.116  10.890 -0.1562 -0.2541 -0.1295
12703PP      PP22807   2.339   3.748   1.064  0.2405 -0.2083  0.2498
12704PP      PP22808   9.278   1.164   9.774 -0.3092 -0.0454  0.2020
12705PP      PP22809   0.494  11.033   2.809  0.0436 -0.1762  0.0977
12706PP      PP22810  10.647   1.683   3.631 -0.0268 -0.1201 -0.1557
12707PP      PP22811   9.148  12.462   3.724 -0.0309 -0.0834  0.0403
12708PP      PP22812   0.489   5.806  11.345 -0.0865 -0.1427 -0.3121
12709PP      PP22813   9.327   0.546  10.987 -0.1509  0.1880 -0.2244
12710PP      PP22814  10.106  14.917   0.796  0.3938  0.0458  0.1598
12711PP      PP22815  15.309   9.910   9.688 -0.3624  0.1384 -0.0700
12712PP      PP22816  13.929   9.385  12.037 -0.2600  0.1345 -0.0901
12713PP      PP22817   4.863   3.273  11.216 -0.1075  0.1209  0.1040
12714PP      PP22818   0.131   1.566  13.606  0.2811  0.1599 -0.0359
12715PP      PP22819   2.222  14.448  12.836  0.0968  0.3259 -0.4872
12716PP      PP22820  12.046  14.015   4.487  0.0373  0.1889  0.1413
12717PP      PP22821  13.214   1.515   0.527 -0.0756 -0.2469 -0.0153
12718PP      PP22822   2.246   1.526   1.918  0.1439 -0.0760  0.0374
12719PP      PP22823   6.666   0.363  11.915  0.0326 -0.0991  0.0855
12720PP      PP22824   8.223   3.630   0.949 -0.0045 -0.0106 -0.3301
12721PP      PP22825   1.130   7.593  11.114  0.1598 -0.0348 -0.0268
12722PP      PP22826   1.843  11.305   3.306  0.0168 -0.4372  0.1386
12723PP      PP22827   1.845   2.600   1.383  0.1161  0.0624  0.2192
12724PP      PP22828   8.174   3.986   3.837 -0.1960 -0.2635  0.1030
12725PP      PP22829  13.099   7.898  11.339 -0.2550  0.0082  0.1806
12726PP      PP22830   2.346   9.929   4.945 -0.4527  0.1127  0.1905
12727PP      PP22831   8.539   3.438  10.302  0.2339 -0.2379 -0.2910
12728PP      PP22832  11.109   5.340   8.967  0.0160  0.0326 -0.0415
12729PP      PP22833  13.932   7.879   9.883 -0.2593 -0.4330  0.0582
12730PP      PP22834   0.726  10.000   0.366 -0.1020 -0.1927  0.2782
12731PP      PP22835  14.818   9.298   3.541  0.0912 -0.0152  0.1577
12732PP      PP22836   9.964   9.993  10.044 -0.1635  0.0690  0.0468
12733PP      PP22837   0.234   0.245   1.418 -0.1564  0.1113 -0.4354
12734PP      PP22838   6.387  12.357   2.628 -0.1704 -0.1933  0.0117
12735PP      PP22839   9.666   8.470  12.071 -0.0265 -0.0970 -0.1800
12736PP      PP22840  13.978  10.130   2.984 -0.0426  0.0256 -0.2569
12737PP      PP22841   5.695  14.747   4.330 -0.0058  0.0502  0.1546
12738PP      PP22842   2.256   4.720   9.436 -0.0342  0.0479 -0.1186
12739PP      PP22843   3.921  11.188   3.908 -0.3839 -0.1094  0.1898
12740PP      PP22844  10.607  12.088  10.028  0.0288 -0.0524 -0.0358
12741PP      PP22845  13.866   3.224   2.491  0.0071 -0.1921 -0.3546
12742PP      PP22846   8.315  12.340   4.159 -0.0394 -0.2437  0.1988
12743PP      PP22847  13.998  15.199  13.430 -0.1117  0.2031  0.2981
12744PP      PP22848   5.707  12.633   1.825 -0.0790 -0.2529  0.1614
12745PP      PP22849   9.138   8.432  12.260  0.0193 -0.0648 -0.2386
12746PP      PP22850  12.894   7.090  11.781 -0.2556  0.1074 -0.2376
12747PP      PP22851   0.647   4.645   2.159 -0.1257 -0.2364  0.0139
12748PP      PP22852   1.323  12.343   0.927 -0.3087  0.2192 -0.1787
12749PP      PP22853  15.514  13.721   3.202  0.1197 -0.0049 -0.0381
12750PP      PP22854   7.596   5.796  10.306  0.0353 -0.1892 -0.0158
12751PP      PP22855   8.624  13.262   5.036 -0.0302 -0.0263 -0.0758
12752PP      PP22856   1.253   0.414   2.958 -0.4306  0.1235 -0.0712
12753PP      PP22857   4.509   1.808  10.845 -0.2204  0.1127  0.0103
12754PP      PP22858  12.744   1.456   2.730  0.2089  0.0971  0.0799
12755PP      PP22859  11.962   0.670   0.065  0.2035  0.0510  0.0089
12756PP      PP22860   2.968  10.962   0.784 -0.1041  0.0584 -0.0551
12757PP      PP22861   8.237  14.757   9.945  0.0876 -0.0391  0.2042
12758PP      PP22862   7.104   1.619   1.856  0.1124 -0.1007 -0.2551
12759PP      PP22863   7.595  12.344   9.856  0.2129  0.2054  0.0006
12760PP      PP22864   5.251   6.737   0.519  0.2500  0.0284  0.0663
12761PP      PP22865  11.194  15.268   2.082 -0.3061 -0.1738  0.0370
12762PP      PP22866   4.103   7.817  10.095  0.0716 -0.1564 -0.0520
12763PP      PP22867   2.561  10.311  12.826 -0.1861 -0.1122 -0.2535
12764PP      PP22868   1.411   4.788  11.599 -0.1110  0.2021  0.1450
12765PP      PP22869   4.075  11.519   0.924 -0.1371 -0.1687  0.0594
12766PP      PP22870  14.203  12.267   3.653  0.1350 -0.1621  0.1807
12767PP      PP22871   1.670   3.443  13.529 -0.2972 -0.2438 -0.0126
12768PP      PP22872  10.518   1.616   0.701 -0.2638  0.0018 -0.0812
12769PP      PP22873   0.905   3.517   2.017 -0.1242 -0.2406  0.1542
12770PP      PP22874  11.882   0.596   2.563 -0.0445 -0.3009  0.1821
12771PP      PP22875  14.463   4.096   2.390  0.2027  0.3098  0.1346
12772PP      PP22876  15.087  10.426   9.981  0.3372  0.0628 -0.1333
12773PP      PP22877  14.734   6.656  10.078 -0.5297 -0.1671  0.0984
12774PP      PP22878  10.112   8.369   2.471  0.0687 -0.0587  0.0310
12775PP      PP22879  14.880   1.860  12.993  0.0964 -0.0989 -0.0996
12776PP      PP22880  10.954  13.942  11.497 -0.0557 -0.3269 -0.0167
12777PP      PP22881   4.356   1.643   0.895  0.0108 -0.1938 -0.3214
12778PP      PP22882   0.099   5.362   4.020  0.0407  0.1395 -0.0914
12779PP      PP22883   4.480  10.507  13.498  0.0927  0.0909 -0.0130
12780PP      PP22884  12.294   7.802   0.229  0.1971 -0.0757  0.3310
12781PP      PP22885  11.259  14.045   0.891  0.0926  0.1846  0.3717
12782PP      PP22886  11.593  11.941   9.983  0.1685  0.2009 -0.2055
12783PP      PP22887  15.584  14.595   3.711 -0.1611 -0.1217  0.2514
12784PP      PP22888   6.094   4.946   8.647  0.1531  0.1738  0.0455
12785PP      PP22889   2.537   5.152   9.413 -0.2072  0.3786  0.1990
12786PP      PP22890   9.030   1.111   3.741  0.2189  0.1550  0.0149
12787PP      PP22891  10.449  12.301  10.445  0.0310 -0.2553  0.2248
12788PP      PP22892  15.323   7.309   8.918  0.0424  0.0758  0.4001
12789PP      PP22893   4.988   9.782  11.185  0.0778 -0.0126  0.0362
12790PP      PP22894   3.832   8.950  10.965  0.0577  0.0628 -0.2194
12791PP      PP22895  13.027   5.706  10.795  0.0933 -0.0966  0.2394
12792PP      PP22896  11.433   6.715   9.247  0.3473 -0.0921  0.0537
12793PP      PP22897   5.412   3.834  10.213  0.0020 -0.1273  0.0927
12794PP      PP22898  10.490  14.841   2.667  0.2573 -0.2961 -0.1066
12795PP      PP22899   7.947  14.988   1.455 -0.2444  0.2785 -0.3214
12796PP      PP22900   5.384   0.526   1.087  0.0056 -0.1363 -0.1463
12797PP      PP22901   9.279  15.192   2.517 -0.2040 -0.2219  0.2354
12798PP      PP22902   9.666  15.685   3.088  0.0877 -0.0738  0.1391
12799PP      PP22903  12.179  13.417  11.248 -0.4019 -0.0603 -0.2663
12800PP      PP22904   2.756   5.324   1.217  0.2312 -0.0789  0.2258
12801PP      PP22905   5.294  13.073   0.561  0.0977 -0.0750  0.0448
12802PP      PP22906   9.509  13.540   9.386 -0.1046  0.1937 -0.0780
12803PP      PP22907   4.437  13.897   4.447  0.0032  0.0858 -0.1361
12804PP      PP22908   5.903   8.715   4.316  0.2950  0.1535 -0.2505
12805PP      PP22909   1.104   8.715   2.319  0.2647 -0.1507  0.1451
12806PP      PP22910   0.473  11.488  10.649  0.0650 -0.1631 -0.0663
12807PP      PP22911  11.953   6.883  12.109 -0.1362 -0.1203  0.2585
12808PP      PP22912   2.833  13.838   3.640  0.4170 -0.0519 -0.1715
12809PP      PP22913  13.992   1.669   2.023  0.0792  0.0510 -0.0558
12810PP      PP22914  13.151   3.509  10.451 -0.1585  0.0868 -0.0253
12811PP      PP22915  15.397   1.969   2.146  0.1099  0.2266 -0.0000
12812PP      PP22916   0.949   4.259  10.577  0.0890 -0.0870  0.1066
12813PP      PP22917   6.577  11.733   3.068  0.4248 -0.0977  0.0900
12814PP      PP22918  13.589  12.071   1.267  0.2862  0.0723 -0.1908
12815PP      PP22919  14.574   9.211   2.226  0.0328  0.1697  0.1776
12816PP      PP22920   1.910   5.079   2.869  0.0180 -0.0251  0.1517
12817PP      PP22921  11.781   8.812   0.607 -0.2253 -0.2436 -0.1842
12818PP      PP22922  10.384   9.455  11.291 -0.1919  0.2587 -0.3962
12819PP      PP22923  13.514  11.785  12.344  0.1520 -0.0583 -0.0286
12820PP      PP22924  13.625   0.957  13.663 -0.0861 -0.2747  0.0013
12821PP      PP22925   5.117   3.139   0.051  0.1156 -0.0117 -0.2806
12822PP      PP22926   3.052   9.237  11.495  0.2253 -0.0504 -0.0552
12823PP      PP22927   9.567   2.296  12.968  0.0715 -0.0758  0.0598
12824PP      PP22928   8.058  14.888  11.588  0.0657  0.0180 -0.0047
12825PP      PP22929   7.550   7.776   2.418 -0.0364  0.1194 -0.2583
12826PP      PP22930   6.579  15.605  11.212 -0.4262  0.0219 -0.1424
12827PP      PP22931   9.066   2.769  10.242  0.3683  0.2652 -0.1795
12828PP      PP22932   7.861   3.169   3.789 -0.2248  0.1038 -0.2543
12829PP      PP22933   9.353  14.570  11.748  0.0205  0.2053 -0.0168
12830PP      PP22934  15.571  13.477   9.327 -0.2208 -0.2759 -0.2675
12831PP      PP22935   7.139   8.739  11.966 -0.1175 -0.1157 -0.2538
12832PP      PP22936  11.254  15.338  13.338  0.1505  0.0543 -0.1292
12833PP      PP22937  14.377   5.912   8.586 -0.1869 -0.1820 -0.1232
12834PP      PP22938  10.683   1.412  10.197  0.0906  0.1465  0.2761
12835PP      PP22939  15.197  12.372  13.780 -0.2275 -0.4089 -0.0887
12836PP      PP22940   6.165  12.459   2.076 -0.1631 -0.0633 -0.0335
12837PP      PP22941   6.648   2.431  11.846 -0.1258  0.0237  0.0868
12838PP      PP22942  10.706   2.500  11.422 -0.1827 -0.3391 -0.1460
12839PP      PP22943   1.361  10.386  11.054  0.4974 -0.0578 -0.0905
12840PP      PP22944   4.971   4.773  10.230  0.1643  0.1084  0.1745
12841PP      PP22945   2.312   5.596  12.996  0.1713 -0.3664  0.0335
12842PP      PP22946  13.972   7.678   9.401  0.1522 -0.2209  0.1055
12843PP      PP22947   8.729   7.468  12.805 -0.0212  0.0105  0.1237
12844PP      PP22948   1.242  13.734  10.758 -0.0952 -0.0055 -0.1041
12845PP      PP22949  15.377   8.241  12.703 -0.0693 -0.0497 -0.1010
12846PP      PP22950   4.019   2.747   3.243  0.2050  0.0033  0.0785
12847PP      PP22951   8.875  14.185  12.767  0.1644 -0.2149 -0.2702
12848PP      PP22952   1.089   2.086   9.814  0.4852 -0.0174  0.0827
12849PP      PP22953   9.790  13.592   0.428 -0.1041  0.0978 -0.1078
12850PP      PP22954   3.460   7.931  13.313 -0.0593 -0.2980 -0.0177
12851PP      PP22955   7.072   2.605  11.487  0.0149  0.1664 -0.0255
12852PP      PP22956   7.492  12.472  13.725 -0.3787 -0.0140 -0.1423
12853PP      PP22957   2.405  13.040  10.628 -0.1225 -0.3118 -0.0931
12854PP      PP22958   1.670  11.622  10.368 -0.0935 -0.2453  0.3505
12855PP      PP22959  11.914   9.496  12.057 -0.2488 -0.1699 -0.0736
12856PP      PP22960  12.906   7.252  10.576 -0.2954  0.1090  0.2012
12857PP      PP22961   2.619  10.182   9.965 -0.0241 -0.0388  0.0680
12858PP      PP22962  11.791   4.751  11.123  0.3743 -0.0036  0.3922
12859PP      PP22963   7.488   4.801   8.321  0.0561  0.0582  0.1215
12860PP      PP22964   4.164  12.598  13.297 -0.0442  0.0121  0.1712
12861PP      PP22965   5.358   7.293  12.321  0.2108 -0.0128  0.2302
12862PP      PP22966   8.975   5.517   1.430 -0.0940 -0.3982 -0.0368
12863PP      PP22967   0.474  15.603  12.804  0.1522  0.0747 -0.0083
12864PP      PP22968  11.055  15.093  10.329 -0.0078  0.0502 -0.2459
12865PP      PP22969   0.613  13.845   2.888  0.2833  0.1008  0.1923
12866PP      PP22970   9.625   2.670   9.169  0.1713  0.1207 -0.0673
12867PP      PP22971   3.368   7.746  11.058 -0.0049 -0.0783  0.2020
12868PP      PP22972   2.956  11.623   9.162 -0.3091 -0.2369 -0.0140
12869PP      PP22973  15.222  14.911   1.209  0.0627  0.0446 -0.2085
12870PP      PP22974   2.035   3.236  11.414 -0.2925 -0.0243  0.2240
12871PP      PP22975  12.783  13.302  10.825 -0.1666  0.0013  0.0476
12872PP      PP22976   5.687   9.250  12.844  0.0146 -0.0898 -0.0562
12873PP      PP22977   2.511  10.415   4.220  0.1706 -0.0136  0.0741
12874PP      PP22978   0.251  12.438  12.731  0.0116 -0.0828 -0.1681
12875PP      PP22979   3.815   0.771   0.775 -0.2026  0.0175 -0.0964
12876PP      PP22980   0.513   0.631  12.066  0.0166  0.0614 -0.3086
12877PP      PP22981   8.118  10.362   2.798 -0.0152  0.0914 -0.1252
12878PP      PP22982  11.712   9.341   2.278  0.1991  0.1274 -0.2143
12879PP      PP22983  15.614   1.654  12.552  0.3064 -0.3574 -0.2722
12880PP      PP22984  13.867  13.278  10.828 -0.0657 -0.2400  0.1980
12881PP      PP22985   4.890  11.111  11.972  0.0004 -0.0688  0.2335
12882PP      PP22986  11.956   5.678   3.126 -0.4553  0.1391  0.0437
12883PP      PP22987   5.546   1.433   2.840  0.0895 -0.1162 -0.3160
12884PP      PP22988   2.167   8.279   3.593  0.2308 -0.5158  0.0717
12885PP      PP22989   8.097   2.343   9.288  0.0336  0.2133  0.0509
12886PP      PP22990   5.577  15.730   1.932  0.1056 -0.0263 -0.0267
12887PP      PP22991  13.067   4.820   9.927  0.0954  0.1423  0.4126
12888PP      PP22992   3.366   2.259   0.165 -0.0784  0.2805  0.0066
12889PP      PP22993  14.593  10.496  10.685 -0.1524  0.1443  0.2527
12890PP      PP22994   9.654   3.388  11.779 -0.0619  0.0002 -0.0212
12891PP      PP22995  15.004  11.067  12.801  0.0461  0.0042  0.2112
12892PP      PP22996  12.103   8.298   0.024  0.1504  0.2430 -0.1679
12893PP      PP22997  13.619   8.992  12.464  0.0733  0.1141  0.0146
12894PP      PP22998   9.249   9.597   9.506 -0.0376  0.0866  0.2582
12895PP      PP22999   4.858   2.143  13.106  0.4260 -0.1492  0.1903
12896PP      PP23000   4.506   1.476  12.236 -0.2339  0.1146  0.0455
12897PP      PP23001  13.391  15.424   9.247 -0.2224  0.1878 -0.1379
12898PP      PP23002  10.303   0.846   3.917  0.1521  0.1140 -0.1417
12899PP      PP23003   0.694   0.842   2.492  0.1319 -0.1026  0.0783
12900PP      PP23004   3.210  12.185  12.499 -0.0866  0.1388  0.2223
12901PP      PP23005   5.631   2.615   3.705  0.0937  0.0268  0.2658
12902PP      PP23006   4.999   2.211  13.576 -0.0906  0.2191  0.1217
12903PP      PP23007  12.843   7.605   2.485 -0.0505  0.1758  0.0146
12904PP      PP23008  10.514   0.698   1.714 -0.2808  0.1727 -0.0112
12905PP      PP23009  12.515   0.147   9.735  0.6406  0.0507  0.2233
12906PP      PP23010   9.392   0.820   0.692  0.4085 -0.1293 -0.0176
12907PP      PP23011  11.100  15.729   8.702 -0.1926  0.2180 -0.0515
12908PP      PP23012   1.374  11.819   3.831 -0.0264 -0.1801  0.2250
12909PP      PP23013  14.204   3.667   2.479  0.0930 -0.0506  0.2351
12910PP      PP23014  14.910   8.029   9.588 -0.2767 -0.4585  0.0743
12911PP      PP23015   7.463  12.311   3.934 -0.1895  0.1357 -0.0619
12912PP      PP23016  11.293  13.251   9.399  0.0146 -0.2404 -0.1016
12913PP      PP23017   0.811   8.250   8.792 -0.0083 -0.0694  0.2919
12914PP      PP23018   5.463  14.640   2.401  0.0002  0.1918  0.4508
12915PP      PP23019   6.270  14.758   3.474  0.1726  0.2436 -0.2345
12916PP      PP23020  12.179  10.641  12.821 -0.0208 -0.0737  0.0598
12917PP      PP23021   1.978   4.752  11.143  0.0016 -0.0846  0.1351
12918PP      PP23022  12.750   1.161   2.316  0.2831 -0.0665 -0.3557
12919PP      PP23023   0.695   6.340  11.439  0.1766 -0.3243 -0.3207
12920PP      PP23024  13.261   3.163  13.314  0.0562 -0.2316  0.2366
12921PP      PP23025   2.430  13.723  11.597 -0.0707 -0.3567  0.2673
12922PP      PP23026   1.845   0.669   5.217 -0.0975 -0.0065 -0.0077
12923PP      PP23027  12.836  13.426   0.298 -0.2052 -0.4288 -0.1896
12924PP      PP23028   0.489  11.535   4.368 -0.1877 -0.0677  0.2390
12925PP      PP23029   7.766   4.502  11.299 -0.5264 -0.0965  0.2311
12926PP      PP23030  14.116  10.622  10.119  0.1448 -0.2354 -0.1905
12927PP      PP23031   4.893   3.303   3.394  0.3638  0.6512 -0.0541
12928PP      PP23032   9.515   9.855  11.406 -0.1230  0.1940  0.0661
12929PP      PP23033   5.644   2.118   2.422 -0.0935  0.0136  0.1640
12930PP      PP23034   6.714   3.434   2.067 -0.0957  0.0874 -0.2712
12931PP      PP23035   5.649   1.421   0.041  0.0840  0.2262 -0.1036
12932PP      PP23036   0.644   6.331  12.775  0.2169 -0.0697 -0.0336
12933PP      PP23037   7.362   7.598   0.481  0.1115 -0.0396 -0.0028
12934PP      PP23038   1.204   5.276   4.522  0.1978  0.2023  0.2025
12935PP      PP23039  11.992  12.069  10.674 -0.2607  0.1301 -0.0862
12936PP      PP23040   5.833   3.513   8.923 -0.0149 -0.0567 -0.0998
12937PP      PP23041  15.571  11.869   2.744 -0.1454  0.5224  0.0265
12938PP      PP23042   7.460  10.290   9.288  0.0894  0.3668  0.2461
12939PP      PP23043   1.094   9.329  13.682  0.0683 -0.0853  0.1269
12940PP      PP23044  13.897  10.347  12.740  0.2209 -0.0691  0.0124
12941PP      PP23045  12.933  14.991   4.388  0.1590  0.1702  0.1921
12942PP      PP23046  15.077   5.382   9.037  0.2973 -0.3353  0.1757
12943PP      PP23047  10.580  10.486  12.435 -0.1726  0.1834  0.0340
12944PP      PP23048   5.718   4.491  12.002 -0.2731  0.1227 -0.1530
12945PP      PP23049   1.127   3.170  11.891  0.1566  0.1193  0.0917
12946PP      PP23050   0.403   1.110  11.951 -0.1447  0.0708  0.0510
12947PP      PP23051   9.320   4.368  12.602 -0.0192 -0.0430 -0.1064
12948PP      PP23052   9.752  13.071   0.608  0.1829  0.0618  0.1649
12949PP      PP23053   2.026   1.946  13.593 -0.0835  0.1003 -0.1157
12950PP      PP23054   7.100   7.701   1.877  0.1649 -0.1895  0.4814
12951PP      PP23055   6.649  12.466   3.781  0.0866  0.0172  0.1447
12952PP      PP23056   5.534  15.347   0.500  0.1508 -0.0192  0.2597
12953PP      PP23057   8.789  12.217   3.967  0.2023 -0.3454  0.0540
12954PP      PP23058  13.221  14.389  12.511  0.1727 -0.1117  0.1758
12955PP      PP23059  11.656  14.895   4.058 -0.0299 -0.1221 -0.0878
12956PP      PP23060   6.093   8.313  12.675 -0.1023 -0.2213  0.2009
12957PP      PP23061   3.615   9.920   3.357  0.0740  0.0138  0.2398
12958PP      PP23062   2.171   3.295   9.629 -0.0832 -0.0755  0.1736
12959PP      PP23063   9.628   3.963  11.275  0.0933 -0.0121  0.0659
12960PP      PP23064   7.847   3.799   1.293 -0.0793 -0.1998 -0.1633
12961PP      PP23065   2.311   0.586  13.022 -0.1277 -0.0694 -0.1761
12962PP      PP23066  14.812  10.605  12.093  0.0901 -0.0773 -0.0067
12963PP      PP23067  10.850   8.159   1.582  0.1590  0.0237  0.2203
12964PP      PP23068   3.355   8.752   0.088 -0.1406 -0.2328 -0.1171
12965PP      PP23069  13.488   8.791   1.773 -0.0101  0.1228  0.1107
12966PP      PP23070   2.091   8.120  12.980  0.2969  0.2921  0.2490
12967PP      PP23071   0.484   7.616  12.799  0.1557  0.0525  0.0060
12968PP      PP23072   5.385   5.317   2.869  0.1026  0.1759 -0.3509
12969PP      PP23073   3.287   7.980   4.195  0.1418 -0.3431 -0.1094
12970PP      PP23074  12.891  13.345   2.810 -0.2789  0.0656 -0.1052
12971PP      PP23075  10.819   8.105  12.181 -0.1023  0.0864 -0.1988
12972PP      PP23076   8.187  12.771  12.342  0.1046  0.1865  0.0912
12973PP      PP23077   1.171  10.202   1.999 -0.4075  0.4034  0.1531
12974PP      PP23078   3.990  10.261   3.626 -0.0734 -0.0135  0.0917
12975PP      PP23079  12.731   5.218  11.326  0.0398  0.1017  0.4101
12976PP      PP23080  10.581  10.660   9.654 -0.0126 -0.1441 -0.0521
12977PP      PP23081  12.521  13.592   5.135  0.0757  0.2407  0.0699
12978PP      PP23082  12.214   4.248   3.606  0.2100  0.1165  0.4252
12979PP      PP23083  13.765   5.295   3.817  0.0672  0.0966  0.0599
12980PP      PP23084   9.544   6.266   0.413 -0.1945 -0.0440  0.3429
12981PP      PP23085  10.521   0.138  13.623  0.0256 -0.2342 -0.1725
12982PP      PP23086  11.708   0.719   8.454  0.1157 -0.0682  0.0805
12983PP      PP23087   1.659   6.885  11.525  0.0473 -0.4594 -0.1668
12984PP      PP23088  12.181   6.316  12.896 -0.2928 -0.0580 -0.0341
12985PP      PP23089  12.776   5.222  12.214  0.0628 -0.1590  0.0499
12986PP      PP23090  13.621   1.036  11.379  0.1180  0.1530  0.2861
12987PP      PP23091   8.946   1.750   9.123 -0.1392  0.1526 -0.1199
12988PP      PP23092  13.012  12.874  13.282  0.0085  0.0594 -0.0754
12989PP      PP23093   1.149   6.185   3.429  0.1942 -0.4262 -0.1021
12990PP      PP23094   5.807   6.653  10.835  0.1204 -0.2425 -0.1471
12991PP      PP23095   9.517   3.269   1.329  0.2931 -0.1916  0.2791
12992PP      PP23096  11.634   8.656   1.543 -0.1929 -0.1264  0.0079
12993PP      PP23097  13.481   2.168   9.859  0.0884  0.4004  0.2079
12994PP      PP23098  14.566   4.486   3.004  0.0334 -0.0466  0.0218
12995PP      PP23099  13.583  13.093  11.809 -0.1511  0.1262 -0.4607
12996PP      PP23100   0.871   0.743  10.325 -0.3103  0.0234  0.3371
12997PP      PP23101  10.447   0.996   0.421 -0.0483  0.0101 -0.1793
12998PP      PP23102  11.493   8.704   1.044 -0.0320  0.0340  0.0495
12999PP      PP23103   7.257  14.587   3.979  0.0920 -0.5458  0.0326
13000PP      PP23104   9.074  14.325   4.243  0.2245 -0.0447 -0.2147
13001PP      PP23105  12.712   4.476   3.154  0.3084 -0.0436  0.1957
13002PP      PP23106   4.085   4.062   8.612 -0.0377  0.0339  0.1067
13003PP      PP23107   2.347   9.302  13.315  0.1389 -0.2359 -0.1035
13004PP      PP23108  15.313  10.026   0.426  0.1393 -0.2712  0.2299
13005PP      PP23109   3.024  13.377   3.827 -0.2615 -0.2684 -0.2074
13006PP      PP23110   0.441  10.431   4.595 -0.0233 -0.2272  0.2269
13007PP      PP23111  13.384  15.371   1.068  0.0485  0.1554  0.3323
13008PP      PP23112   5.668   8.202   3.470 -0.1713  0.2123  0.2103
13009PP      PP23113   8.656   0.732   2.548  0.5428  0.0402 -0.0547
13010PP      PP23114   4.257   7.705  11.621 -0.0138  0.0007 -0.0207
13011PP      PP23115  13.806  13.738   2.787 -0.2555 -0.1916 -0.0430
13012PP      PP23116  14.617   1.389  12.228  0.1231 -0.0631 -0.0834
13013PP      PP23117   6.838   7.477  10.946  0.1230 -0.1113 -0.1666
13014PP      PP23118  10.311  12.234   8.982  0.2587 -0.1549 -0.2125
13015PP      PP23119   5.766   0.424   0.652  0.1054  0.1381  0.0179
13016PP      PP23120   6.967   5.547   1.836  0.0235  0.0314  0.1674
13017PP      PP23121   0.493   0.539   9.878 -0.0944 -0.2044 -0.3188
13018PP      PP23122   5.835   6.856   2.032 -0.1391  0.1185 -0.0144
13019PP      PP23123  14.180   2.623  13.603  0.0748 -0.0476  0.0093
13020PP      PP23124   8.552  12.098   9.890  0.0060  0.1569 -0.0258
13021PP      PP23125   6.705   7.683   1.500 -0.0448 -0.1699  0.4069
13022PP      PP23126   9.351   0.331   3.152 -0.1477  0.2941 -0.2526
13023PP      PP23127   1.311  11.132   9.261 -0.1975  0.1496  0.5652
13024PP      PP23128  15.637   8.649   0.449 -0.1891 -0.4694  0.3339
13025PP      PP23129   5.794   3.606   3.464  0.0141  0.1148  0.1049
13026PP      PP23130   0.612  10.490   1.182  0.2691  0.1637 -0.0086
13027PP      PP23131   0.950   7.672   2.558  0.0471  0.0052 -0.0473
13028PP      PP23132  10.233   5.195  11.475  0.1697  0.2473  0.2658
13029PP      PP23133  14.001   9.379   2.276 -0.2384  0.0660 -0.1559
13030PP      PP23134   7.463   9.138  12.883 -0.0234  0.0890 -0.0647
13031PP      PP23135   5.612   1.065  13.086  0.0507 -0.1089  0.1538
13032PP      PP23136   2.799   3.810   4.353 -0.1641 -0.1093  0.1912
13033PP      PP23137  12.948  13.657   3.752 -0.1066 -0.2204  0.6086
13034PP      PP23138  12.492   7.943  11.538 -0.3696  0.0116 -0.0222
13035PP      PP23139  15.055   8.844  11.808  0.0970 -0.0658 -0.0741
13036PP      PP23140   8.687   1.448  12.836 -0.0817 -0.1484  0.1323
13037PP      PP23141  15.247   0.247   0.177 -0.0062  0.0180  0.1421
13038PP      PP23142  12.527   8.803   9.219  0.2523 -0.0282 -0.0715
13039PP      PP23143   7.772   6.577   2.566  0.0626 -0.0428 -0.0535
13040PP      PP23144   4.599   3.808  12.692 -0.2478 -0.0501  0.1023
13041PP      PP23145   5.173  10.602   5.432  0.2853  0.0742  0.1849
13042PP      PP23146  10.384   9.801   0.012  0.1348 -0.2256  0.1210
13043PP      PP23147  15.703   2.898   9.642 -0.3052 -0.0328  0.1285
13044PP      PP23148   0.365   2.479   9.792 -0.2340  0.1491  0.2338
13045PP      PP23149   4.351   6.787   3.728 -0.1503  0.1055  0.5207
13046PP      PP23150   7.374  11.451   1.737 -0.0849  0.1258 -0.0256
13047PP      PP23151   0.530   5.028  11.558 -0.1978 -0.0346  0.0874
13048PP      PP23152   8.116  10.901   2.567  0.0402  0.0893 -0.1135
13049PP      PP23153   2.436   6.597  12.487  0.1326  0.3266 -0.0921
13050PP      PP23154   5.388  12.942  13.332 -0.0341  0.2349 -0.0063
13051PP      PP23155  10.038   1.856  10.982  0.5084  0.1031 -0.1295
13052PP      PP23156  13.678   2.794   2.338  0.0074  0.2230 -0.1570
13053PP      PP23157   3.477  14.157   1.340  0.0014 -0.0344 -0.3271
13054PP      PP23158  15.249   9.081   9.691  0.0663 -0.0786  0.3406
13055PP      PP23159   1.293  14.645   4.053 -0.0444  0.3689  0.0924
13056PP      PP23160  14.971   4.461  11.084 -0.0050  0.1321 -0.1378
13057PP      PP23161  13.051   4.919  13.209  0.0183 -0.1405 -0.2585
13058PP      PP23162   0.551   5.547   3.235 -0.3638 -0.1031  0.2695
13059PP      PP23163  13.061  15.590  11.970  0.1640  0.1807  0.0919
13060PP      PP23164  13.354  15.047  11.288 -0.0348  0.0270 -0.1272
13061PP      PP23165  15.643  14.229  13.278  0.1176  0.1555  0.0614
13062PP      PP23166   4.168   3.429   4.053  0.0477 -0.3884  0.0694
13063PP      PP23167   7.550   0.020   0.489  0.4709 -0.0594 -0.2205
13064PP      PP23168  12.265   3.678   3.481 -0.0608 -0.1923 -0.1094
13065PP      PP23169  10.196   1.524   1.306 -0.1813 -0.2758 -0.2248
13066PP      PP23170   9.984   5.238  10.104 -0.3105 -0.0692  0.0472
13067PP      PP23171   7.701  12.029   4.405 -0.1486 -0.1233  0.1273
13068PP      PP23172   5.421   7.745   3.330  0.1683 -0.0073 -0.3667
13069PP      PP23173   3.580   4.642   2.603 -0.2334  0.1020  0.1569
13070PP      PP23174   0.221  15.371   9.315 -0.1025 -0.1978  0.1242
13071PP      PP23175   1.197   1.486   3.621  0.0945  0.1834 -0.0190
13072PP      PP23176   1.654   2.774  10.901 -0.0519 -0.0570  0.3902
13073PP      PP23177   5.624   1.066  12.576  0.2540  0.3524 -0.0341
13074PP      PP23178   1.110  15.648  12.839  0.1369  0.0230  0.0126
13075PP      PP23179  13.827   9.655  13.327  0.1015  0.0752  0.2177
13076PP      PP23180   8.891  11.195  10.881 -0.2136  0.1337  0.0169
13077PP      PP23181   8.187  14.372   9.679  0.0223 -0.0958 -0.0316
13078PP      PP23182   7.951  15.501  11.733  0.1972  0.0728  0.0310
13079PP      PP23183   3.138   0.206   9.568  0.0212  0.3077 -0.1653
13080PP      PP23184   7.839   3.147   2.049 -0.3026 -0.0422  0.1151
13081PP      PP23185  15.676  12.544  10.991  0.2194  0.1436  0.0351
13082PP      PP23186   6.331  12.013   3.692 -0.5943  0.2479 -0.0724
13083PP      PP23187  11.118   2.044   0.237  0.1808  0.1797  0.0841
13084PP      PP23188   6.336   9.352  12.385  0.1007  0.1637  0.2237
13085PP      PP23189  12.224  13.618  11.753 -0.1009  0.1746 -0.1067
13086PP      PP23190   1.992  15.065   0.849 -0.1609 -0.0518  0.1161
13087PP      PP23191   6.575   6.398  12.034 -0.1851 -0.3231 -0.1509
13088PP      PP23192  11.182   0.212   4.563  0.0924 -0.1600  0.0721
13089PP      PP23193   4.869   0.171   8.802  0.0590 -0.4314  0.0548
13090PP      PP23194  13.521   4.188   0.665  0.1107  0.2108  0.1980
13091PP      PP23195   5.001   5.627   3.075 -0.3124 -0.2232  0.0480
13092PP      PP23196  12.076   0.191   0.267  0.2088 -0.1930 -0.3203
13093PP      PP23197   7.675   6.771   4.708 -0.2798  0.0103 -0.0515
13094PP      PP23198   1.909   4.755  10.397 -0.3128 -0.0579  0.0653
13095PP      PP23199  11.603   6.948   0.704 -0.1272 -0.0245 -0.2685
13096PP      PP23200   1.240  12.494  11.973  0.3262  0.2456 -0.2174
13097PP      PP23201   5.071  15.320  12.387  0.1758 -0.1462 -0.2137
13098PP      PP23202   3.050   2.457  12.058  0.1286  0.0085  0.1685
13099PP      PP23203   8.708   2.391  10.198 -0.1530  0.1984 -0.0645
13100PP      PP23204  15.637  15.326   9.673 -0.4567  0.0795  0.0342
13101PP      PP23205   0.940  13.571   0.012  0.4955  0.2649  0.0466
13102PP      PP23206   3.028   5.854  12.382  0.1986  0.1691  0.0517
13103PP      PP23207   4.971  14.610   2.769 -0.3928  0.0223  0.1907
13104PP      PP23208  15.253   0.775  12.337  0.0485 -0.0446 -0.3620
13105PP      PP23209   0.140  15.049  10.054  0.2290 -0.2082  0.1738
13106PP      PP23210   0.691   3.980  11.541 -0.4202  0.0063  0.0814
13107PP      PP23211  13.231  13.521  12.887 -0.1149  0.0231  0.0358
13108PP      PP23212  14.773   9.829  10.698 -0.1999 -0.2078  0.1775
13109PP      PP23213  14.423  15.647   8.898 -0.1755 -0.0498  0.1285
13110PP      PP23214   3.116   8.669   0.584  0.4002 -0.2248  0.2838
13111PP      PP23215  15.715  14.713   3.203  0.0195 -0.1190  0.1116
13112PP      PP23216   2.661  13.797   1.442 -0.1275  0.2487 -0.1043
13113PP      PP23217  15.388   7.819   1.214  0.0079  0.1365  0.1084
13114PP      PP23218   1.116   5.909   2.014  0.0646  0.1860 -0.2221
13115PP      PP23219   7.012   0.137   2.346 -0.3091  0.0342 -0.0209
13116PP      PP23220  15.326   1.275   9.185  0.1105 -0.2299 -0.0913
13117PP      PP23221  13.180  10.956   1.653 -0.0369 -0.1494 -0.0471
13118PP      PP23222   9.114   6.404  11.062  0.1375 -0.3261  0.1991
13119PP      PP23223  11.170   9.528   0.891 -0.2175  0.3228  0.0501
13120PP      PP23224   5.819   8.038   4.915  0.1588  0.2234 -0.0750
13121PP      PP23225  15.182   5.872   2.689  0.0814  0.0037  0.2246
13122PP      PP23226  13.098  12.330  11.632  0.1421 -0.0204 -0.1774
13123PP      PP23227   7.250  15.327   3.245 -0.2927 -0.0734  0.0646
13124PP      PP23228   9.687  11.083   1.670  0.1569  0.0446  0.0331
13125PP      PP23229  11.179   8.086  12.981  0.2207  0.0162  0.1960
13126PP      PP23230   0.384   8.354   2.767  0.0246  0.0356 -0.0633
13127PP      PP23231   2.186   0.559   3.978  0.2627  0.3110 -0.0308
13128PP      PP23232   0.316   2.859   2.450  0.0525 -0.0869 -0.1430
13129PP      PP23233  11.256   3.697  11.593  0.1711 -0.2189  0.3065
13130PP      PP23234   0.829   0.958  12.775  0.0687 -0.2479  0.0076
13131PP      PP23235  13.938   9.815  10.740 -0.0930 -0.0380  0.1929
13132PP      PP23236  10.050   1.745  10.017  0.1066  0.5180  0.3879
13133PP      PP23237  10.227  15.674  10.857 -0.2021  0.1690 -0.5614
13134PP      PP23238   3.190   1.977  10.791 -0.3731  0.0051 -0.2934
13135PP      PP23239   2.167   1.890  10.672  0.1098  0.0760 -0.4892
13136PP      PP23240   3.950   4.520   8.552  0.0547  0.2585 -0.1699
13137PP      PP23241   0.983   0.721   2.019 -0.0424 -0.2312 -0.0412
13138PP      PP23242  13.700   9.555   1.092  0.3516 -0.5744 -0.0297
13139PP      PP23243   2.365   5.114  12.743 -0.0851 -0.1446  0.4175
13140PP      PP23244   0.022   3.628  11.626 -0.2740 -0.1772 -0.0250
13141PP      PP23245   8.140   5.764   2.123 -0.4185 -0.1844  0.2241
13142PP      PP23246  12.573  13.829   4.699 -0.2982 -0.1399 -0.0913
13143PP      PP23247  12.986   5.967  10.224  0.1022  0.2003 -0.3162
13144PP      PP23248  14.745   9.007   9.729 -0.1160  0.0068  0.0892
13145PP      PP23249   1.570   9.492   2.548 -0.0605  0.0180 -0.1588
13146PP      PP23250   7.016   4.023   9.345 -0.1015  0.0369 -0.0635
13147PP      PP23251   2.510   1.025   3.863 -0.0082 -0.3269  0.1671
13148PP      PP23252  11.057   6.011   3.529 -0.1790  0.3623  0.0668
13149PP      PP23253  14.507   2.023  11.066 -0.0353  0.1814 -0.1859
13150PP      PP23254   9.444   0.045  11.203 -0.0705  0.1989 -0.0475
13151PP      PP23255   9.783  13.977  10.107 -0.0437 -0.0849 -0.0875
13152PP      PP23256   3.842   4.356   1.674  0.0777 -0.2772  0.1113
13153PP      PP23257  13.350   5.797  13.611 -0.1243 -0.5175  0.0847
13154PP      PP23258   9.426   5.382   1.660 -0.2148  0.1782 -0.0909
13155PP      PP23259   1.436  14.320   0.431  0.0960 -0.2499  0.0946
13156PP      PP23260   9.321  11.377   9.932  0.0618  0.0844  0.0274
13157PP      PP23261   5.329  15.149   3.395  0.0683 -0.1843  0.1782
13158PP      PP23262  14.303  14.945   9.474  0.2227 -0.2530  0.0184
13159PP      PP23263  10.736   9.460  10.448  0.1036 -0.1181 -0.0522
13160PP      PP23264  15.358  15.198  11.301  0.2864  0.0789 -0.0231
13161PP      PP23265   5.295  11.184   0.880 -0.2028 -0.0073 -0.3521
13162PP      PP23266   8.457  13.400  13.629 -0.2082 -0.0265  0.1232
13163PP      PP23267   3.408   1.739   4.894 -0.2285  0.1201  0.2610
13164PP      PP23268   0.961  14.417   1.627  0.0215  0.0111 -0.1758
13165PP      PP23269   6.010   1.941   9.256 -0.0517 -0.0829 -0.0822
13166PP      PP23270  11.060  12.972  13.733 -0.0948  0.1829  0.0471
13167PP      PP23271  10.699   0.031   1.314  0.3500 -0.1393 -0.1591
13168PP      PP23272   4.825   0.017   4.079  0.0126  0.1377 -0.1188
13169PP      PP23273  13.205   3.182  10.893 -0.1375  0.0169  0.0267
13170PP      PP23274  13.497  12.077  10.866 -0.0118  0.1422 -0.1306
13171PP      PP23275   5.428  12.776  10.647  0.0128  0.2022  0.0018
13172PP      PP23276   0.823  10.782   0.678 -0.0974  0.1945  0.2669
13173PP      PP23277   3.860  13.805  12.491 -0.2095 -0.1208  0.2165
13174PP      PP23278   1.399  11.770   9.879 -0.0418  0.0385  0.4183
13175PP      PP23279   8.229   1.622   2.606  0.0603  0.1377 -0.1395
13176PP      PP23280   5.427   9.345  10.071  0.1182 -0.0987  0.0459
13177PP      PP23281  12.363   6.904   9.485 -0.0825  0.1092  0.0540
13178PP      PP23282  11.487  10.420  12.845  0.2499 -0.1039  0.0741
13179PP      PP23283   0.987  12.069   0.602  0.1459 -0.0747 -0.0008
13180PP      PP23284  15.021  14.670   0.169 -0.1806  0.0104  0.2570
13181PP      PP23285  14.347   6.367   3.189 -0.3365  0.1249  0.4244
13182PP      PP23286   6.506   6.751   0.397 -0.1020  0.0037  0.0672
13183PP      PP23287  15.631   7.903  12.236  0.0661 -0.2064 -0.0267
13184PP      PP23288  10.692   6.118   0.131  0.4346  0.2093 -0.1043
13185PP      PP23289  14.710   3.357   0.623  0.0677 -0.2644  0.1103
13186PP      PP23290  14.990   9.220   2.998  0.2524 -0.0384 -0.0038
13187PP      PP23291   0.467   3.599   9.223  0.3575  0.0177  0.1370
13188PP      PP23292   4.035   6.592  11.726 -0.0326 -0.4846 -0.2088
13189PP      PP23293   1.792   6.550  11.122  0.0627  0.1360  0.1311
13190PP      PP23294   6.746  13.440   3.419 -0.4157 -0.2113  0.1724
13191PP      PP23295  13.310   4.630  11.736 -0.0239  0.1376 -0.1437
13192PP      PP23296   1.707   2.164   9.690 -0.0853 -0.0207  0.1442
13193PP      PP23297   5.853  15.031   1.585 -0.0838  0.2010  0.1562
13194PP      PP23298  13.851   1.925  12.369 -0.3426 -0.0541 -0.0734
13195PP      PP23299  12.823   8.099   2.157  0.2120  0.0899 -0.2590
13196PP      PP23300   1.577   8.210   0.979 -0.1566  0.0722  0.2822
13197PP      PP23301   1.256   7.966   1.976  0.0574  0.0255 -0.1346
13198PP      PP23302  14.873   6.620   0.761  0.0860  0.1218 -0.2627
13199PP      PP23303  13.866   2.548   4.121 -0.1946 -0.1848  0.2556
13200PP      PP23304  14.772  11.454  13.623 -0.0099 -0.2419 -0.1760
13201PP      PP23305  10.641   6.749   0.774 -0.0089 -0.0687 -0.0479
13202PP      PP23306   1.465  11.011   9.816 -0.2706  0.1560  0.0756
13203PP      PP23307   0.037  13.236   3.419  0.1941 -0.0716 -0.0922
13204PP      PP23308  10.093  12.258   3.599 -0.2779  0.0439 -0.0249
13205PP      PP23309  13.145   9.111  12.607  0.1506  0.0706  0.0188
13206PP      PP23310  13.975   6.413   2.437 -0.2209  0.3879 -0.0213
13207PP      PP23311   7.440   9.538  12.581 -0.0880 -0.3986  0.2577
13208PP      PP23312  13.444   2.348  12.130  0.0901  0.0572 -0.0201
13209PP      PP23313  14.837   7.322   3.085  0.1569 -0.2081  0.2810
13210PP      PP23314   5.357   1.349   0.539 -0.0743  0.2233  0.3790
13211PP      PP23315   0.407   7.752   4.393  0.5931 -0.1792 -0.1065
13212PP      PP23316   1.624   0.724   3.091  0.0338 -0.0891 -0.0353
13213PP      PP23317  14.533   3.528   9.837  0.0098 -0.3647 -0.0792
13214PP      PP23318   1.318   3.191  12.813  0.0497 -0.0418  0.2029
13215PP      PP23319   8.773   3.720   1.338  0.6196  0.1025 -0.1199
13216PP      PP23320   5.901  12.851   1.410  0.0461 -0.2032 -0.1011
13217PP      PP23321   2.802   1.380  10.100 -0.1061  0.3454  0.2506
13218PP      PP23322   2.481  11.188   1.422 -0.2688 -0.3491  0.0799
13219PP      PP23323   6.852   2.127   8.924 -0.0056 -0.2596  0.2914
13220PP      PP23324   7.479   2.631   3.768  0.0913 -0.2915 -0.3592
13221PP      PP23325   1.158   4.563  12.750 -0.1618 -0.2255 -0.0657
13222PP      PP23326  12.530  12.584   9.455  0.1709 -0.0345  0.0933
13223PP      PP23327  10.619   8.958   4.042 -0.0486  0.0994 -0.0076
13224PP      PP23328  13.478   5.387   8.748 -0.0951 -0.1314  0.1162
13225PP      PP23329   1.760   1.156  12.322 -0.0664 -0.1661 -0.0535
13226PP      PP23330   6.480   1.840   3.021 -0.0758  0.2616  0.0957
13227PP      PP23331  12.624  14.080  12.137 -0.1584  0.0528 -0.0726
13228PP      PP23332   2.753   7.867   9.644  0.0429  0.3647 -0.1654
13229PP      PP23333  15.003   0.886   8.860  0.3298 -0.0187  0.3132
13230PP      PP23334   7.551  10.555   4.087 -0.0152  0.0226 -0.3170
13231PP      PP23335  10.152   8.813  12.064 -0.0843 -0.0609  0.2751
13232PP      PP23336  13.364  12.580   9.576  0.2348 -0.1869 -0.0744
13233PP      PP23337   2.351   5.070  13.300  0.0803  0.1826 -0.1943
13234PP      PP23338  12.607   3.360   9.543  0.2969 -0.1590 -0.1662
13235PP      PP23339  14.358  10.215   3.868 -0.1796  0.0765 -0.1365
13236PP      PP23340  12.133  13.671   3.062  0.0737  0.1210 -0.1254
13237PP      PP23341  15.209  14.699   1.913 -0.2110  0.2659 -0.0871
13238PP      PP23342   3.307  14.502  10.210 -0.0564 -0.3376 -0.0560
13239PP      PP23343   5.671   5.357  11.842 -0.3777 -0.0164 -0.0039
13240PP      PP23344  12.516  10.145   1.300  0.1077 -0.1443  0.2081
13241PP      PP23345  10.673   2.460   9.056 -0.1139  0.4162 -0.1556
13242PP      PP23346   5.970  10.596  13.605 -0.2240 -0.0358  0.0660
13243PP      PP23347  10.260  13.536   0.042 -0.0871 -0.0813  0.2789
13244PP      PP23348   4.223   3.072   9.058  0.0214 -0.0993 -0.2399
13245PP      PP23349  10.375  10.365   3.988 -0.1274 -0.0955  0.3787
13246PP      PP23350  14.973   6.567   8.291 -0.2164  0.1759 -0.3763
13247PP      PP23351   4.415   2.024  10.391 -0.0809  0.1675 -0.0024
13248PP      PP23352  12.310  10.294   3.301  0.0768  0.1901  0.2154
13249PP      PP23353   3.513   8.722   2.526  0.1051 -0.0497 -0.0630
13250PP      PP23354   2.155   5.654  10.817 -0.0859 -0.1909  0.2709
13251PP      PP23355   3.952  12.118  11.193  0.0373 -0.0826  0.2883
13252PP      PP23356   7.091  15.571   0.494  0.1128 -0.2584 -0.0426
13253PP      PP23357  13.975  11.220   1.092 -0.1121  0.0779 -0.0932
13254PP      PP23358   8.661   3.827   4.013 -0.0043 -0.0716  0.0117
13255PP      PP23359   1.854   4.205   0.234  0.0705  0.4124 -0.1935
13256PP      PP23360   5.864  12.176   1.826  0.2241 -0.0617  0.1808
13257PP      PP23361   4.741  14.199   0.551  0.0520  0.2963 -0.0112
13258PP      PP23362  15.087   8.434   8.179  0.0033  0.3524 -0.0221
13259PP      PP23363  13.882   2.197   3.598 -0.0969 -0.1692 -0.1320
13260PP      PP23364   2.889  11.845   5.056 -0.6243  0.2556 -0.0589
13261PP      PP23365   7.826   6.378   3.109  0.0926 -0.0478 -0.0058
13262PP      PP23366   1.428  10.445  11.613  0.3698 -0.3714 -0.0011
13263PP      PP23367   8.894  15.020   5.231 -0.0276 -0.2459 -0.3459
13264PP      PP23368   5.028  12.664   0.302 -0.0993 -0.0798 -0.0661
13265PP      PP23369   3.433  12.609  11.956  0.1340  0.0011 -0.0504
13266PP      PP23370   7.151   3.782   2.168  0.1215  0.1512  0.0916
13267PP      PP23371   8.042   1.400  11.952  0.1587  0.3080  0.0709
13268PP      PP23372   5.361   3.405  13.070  0.1409 -0.1279  0.0892
13269PP      PP23373  12.768   1.093   3.297  0.0181 -0.2310 -0.1178
13270PP      PP23374  11.100   6.528  13.127 -0.0424  0.1318 -0.1668
13271PP      PP23375   8.121  11.402   0.545 -0.2813  0.0197 -0.0478
13272PP      PP23376   3.110   5.534   8.471  0.1207 -0.1222 -0.1299
13273PP      PP23377  14.317  10.819   4.617  0.0799 -0.0014  0.0024
13274PP      PP23378  11.340   4.837   9.930  0.2148  0.0105 -0.0984
13275PP      PP23379   7.823   8.314   0.791  0.0574 -0.0285 -0.0596
13276PP      PP23380   8.013   6.362  12.359  0.0655 -0.0689 -0.2925
13277PP      PP23381  15.175   6.129  12.451  0.3524  0.2326  0.0020
13278PP      PP23382  11.812  13.081  12.594  0.1074 -0.2666 -0.2669
13279PP      PP23383   4.282   6.121   2.031  0.1308  0.0583  0.0183
13280PP      PP23384  10.981   2.746  13.449  0.1830  0.2441  0.0568
13281PP      PP23385   9.893   9.454  11.514  0.0395  0.2335 -0.0332
13282PP      PP23386  11.997  11.657   2.355  0.0222  0.0331 -0.0105
13283PP      PP23387   5.320   8.947   9.732  0.2945  0.0056 -0.2097
13284PP      PP23388   7.206   6.755   0.441  0.0423  0.0080  0.0795
13285PP      PP23389   2.147   9.958  10.553 -0.0187  0.0963 -0.4280
13286PP      PP23390  13.929  14.629   2.534  0.1507  0.0790  0.2003
13287PP      PP23391   4.026   2.069   9.570 -0.0539  0.0095 -0.2375
13288PP      PP23392   2.072   6.298  10.376 -0.2838 -0.1228  0.1414
13289PP      PP23393   3.762  12.130   4.180  0.0129 -0.3839  0.0097
13290PP      PP23394   8.329  11.181  11.561 -0.0336  0.1727  0.0462
13291PP      PP23395   9.687  13.490   3.531 -0.0902 -0.0378  0.0941
13292PP      PP23396   5.940   6.360  10.439  0.0570  0.1752 -0.1602
13293PP      PP23397  12.828   2.299   2.275 -0.2033 -0.1123  0.0434
13294PP      PP23398  15.118   9.372  13.600 -0.4108  0.0113 -0.0258
13295PP      PP23399  14.375   1.096   3.844 -0.1510 -0.1404 -0.1151
13296PP      PP23400  14.239  12.990   2.711  0.1621  0.4301 -0.3435
13297PP      PP23401   4.584   0.609  11.824 -0.0421  0.0212 -0.2851
13298PP      PP23402   5.795  11.868   0.455 -0.1681  0.1154  0.3121
13299PP      PP23403  14.620   7.876   2.258  0.0922 -0.0598 -0.1171
13300PP      PP23404  14.060   1.310   2.789  0.0393  0.1186  0.1649
13301PP      PP23405   1.822  10.119  11.356 -0.0064 -0.3570 -0.3431
13302PP      PP23406  11.565  10.192   1.357  0.1574 -0.5151 -0.3318
13303PP      PP23407   4.139  13.210   1.560 -0.0293 -0.0624  0.1140
13304PP      PP23408   9.978   5.590   0.291 -0.3236 -0.2030  0.0795
13305PP      PP23409   6.770  11.914   8.944 -0.0889 -0.2483 -0.1025
13306PP      PP23410   0.641   3.147  12.920 -0.0829  0.1222  0.1398
13307PP      PP23411   6.914   7.323  11.997 -0.3357  0.0866  0.0412
13308PP      PP23412   0.088  10.478   1.981 -0.1728  0.1752 -0.1076
13309PP      PP23413   3.861  10.333  11.607  0.1524  0.4275 -0.2054
13310PP      PP23414   0.200   9.446  13.729 -0.0988 -0.4393 -0.0738
13311PP      PP23415  15.434   5.316   8.636 -0.2078  0.0380  0.0780
13312PP      PP23416   8.949   0.141  11.779  0.0239 -0.2203 -0.1166
13313PP      PP23417  12.474   2.154  11.398 -0.0422 -0.4300 -0.1704
13314PP      PP23418   3.844  10.918   0.696 -0.1026 -0.2119 -0.1170
13315PP      PP23419  15.644  12.566  13.635  0.0818 -0.1307  0.0793
13316PP      PP23420   0.406   8.211   3.958  0.0151  0.0146 -0.1634
13317PP      PP23421   8.952  14.696   8.531 -0.3514  0.0012  0.2065
13318PP      PP23422   5.450   4.803  10.057  0.1006  0.2523  0.0923
13319PP      PP23423   1.099   4.646   1.309  0.2162 -0.2022  0.4442
13320PP      PP23424   6.870   8.473  11.065  0.0914 -0.2874  0.1017
13321PP      PP23425  10.790  12.058   0.485  0.1741 -0.1857 -0.2951
13322PP      PP23426   9.213   0.023   0.065 -0.0742 -0.5551 -0.2074
13323PP      PP23427  15.266   2.838   0.218  0.2184  0.0438  0.1627
13324PP      PP23428   1.007  15.725   9.646  0.0362  0.5125  0.0668
13325PP      PP23429  11.729  15.539  11.993  0.1509  0.0110  0.0977
13326PP      PP23430   9.872  13.881  10.678  0.2043 -0.2341  0.0226
13327PP      PP23431  13.687  12.331  13.601  0.0352 -0.1920 -0.0594
13328PP      PP23432   8.330   9.804   2.734 -0.0408 -0.1250  0.0615
13329PP      PP23433  12.053  13.898   3.990  0.1523 -0.2100 -0.0242
13330PP      PP23434   7.342   1.523   3.019 -0.0062 -0.2311 -0.0784
13331PP      PP23435   4.843  10.029  10.259  0.0954 -0.0892 -0.2180
13332PP      PP23436   3.792   2.371  10.832 -0.1023 -0.0388 -0.2319
13333PP      PP23437   8.456   8.231   0.456 -0.0370 -0.0486 -0.0980
13334PP      PP23438   0.123   3.753   0.324  0.0229 -0.1274 -0.0672
13335PP      PP23439  14.017   7.182   0.705  0.2948 -0.0834 -0.0551
13336PP      PP23440   8.045   2.152  13.701  0.1682 -0.0507  0.0071
13337PP      PP23441   2.279   9.606   3.777 -0.1766  0.0921  0.0404
13338PP      PP23442   1.158   7.222   2.314  0.2260 -0.1609  0.1315
13339PP      PP23443   6.811   8.362  12.932 -0.0387  0.0935 -0.2346
13340PP      PP23444  15.698  14.848   2.085 -0.0857 -0.0220 -0.1193
13341PP      PP23445  15.446  10.484   2.361  0.0305  0.1278 -0.1809
13342PP      PP23446  11.311   0.970  12.640  0.1760  0.2127 -0.0191
13343PP      PP23447  14.977  11.640   0.366  0.2552  0.0898  0.1580
13344PP      PP23448   2.613  14.185  12.183 -0.0337  0.4210  0.0207
13345PP      PP23449  13.837  15.193   1.246  0.1556  0.1000 -0.1632
13346PP      PP23450   0.232  14.490   1.161  0.1870  0.0338 -0.2029
13347PP      PP23451  13.612  14.322   0.914  0.0604 -0.0544  0.0916
13348PP      PP23452   7.544  12.064  11.957 -0.0735  0.0207 -0.0620
13349PP      PP23453   9.363   3.678   9.296  0.3033 -0.1621  0.3133
13350PP      PP23454  12.099   2.621  11.240 -0.1789  0.1216 -0.0237
13351PP      PP23455  13.925  12.546  10.323 -0.5957  0.0402 -0.1201
13352PP      PP23456   8.469  11.613   9.754  0.0391  0.1337 -0.0440
13353PP      PP23457   4.176   3.628  12.452 -0.1706  0.2111 -0.0571
13354PP      PP23458   5.896   4.688   0.405  0.2208  0.1265 -0.1634
13355PP      PP23459   1.013   4.761   3.643 -0.1484  0.1589  0.0560
13356PP      PP23460  14.615   9.296  10.114 -0.0314 -0.2992 -0.0937
13357PP      PP23461  14.692   1.932   4.082 -0.0327 -0.2025 -0.0643
13358PP      PP23462   6.040   2.936  13.216 -0.0003  0.1772  0.1376
13359PP      PP23463   5.490  15.282   2.341 -0.0724 -0.0849  0.0503
13360PP      PP23464   7.701   5.827   2.995 -0.1438  0.4390  0.1652
13361PP      PP23465  13.222  12.730  10.551 -0.0111 -0.0586  0.0336
13362PP      PP23466  12.399   2.790   1.452 -0.0372 -0.1627  0.2142
13363PP      PP23467  13.765   6.923   9.911  0.0997 -0.1563 -0.1051
13364PP      PP23468   0.422   9.618  10.343 -0.0273  0.0879  0.1296
13365PP      PP23469   8.752   9.506  12.960 -0.0149 -0.0643 -0.1725
13366PP      PP23470   7.899   3.043  13.597 -0.1602 -0.0236  0.2502
13367PP      PP23471   5.718  13.896   1.239  0.3633  0.1159 -0.1176
13368PP      PP23472   7.030   7.819  13.467  0.0079 -0.1792  0.1951
13369PP      PP23473  15.685   0.468  11.975 -0.0052 -0.0336  0.0376
13370PP      PP23474   4.466   2.685   9.342 -0.0817 -0.1983 -0.2734
13371PP      PP23475   4.982  11.584   5.431 -0.3050 -0.1341 -0.1458
13372PP      PP23476   8.203  11.005   3.815  0.0227 -0.0443  0.1080
13373PP      PP23477   9.723  14.898  11.060  0.2776 -0.2184 -0.0733
13374PP      PP23478   0.485   0.315   3.614  0.5072 -0.0499 -0.2876
13375PP      PP23479   3.576   9.724  11.146 -0.0389  0.4022 -0.2775
13376PP      PP23480   9.606  14.014   9.663  0.3986  0.1447 -0.1326
13377PP      PP23481  13.075  10.037  12.899  0.0193  0.1094 -0.3606
13378PP      PP23482  10.857   4.466   1.816 -0.1738 -0.0520 -0.2010
13379PP      PP23483   7.528  13.936   2.292 -0.0191 -0.0342  0.2419
13380PP      PP23484   9.783  11.663  10.353  0.0183  0.0183 -0.0468
13381PP      PP23485   6.279   0.675  10.066  0.1257  0.0898  0.2704
13382PP      PP23486   8.561  11.369  10.502 -0.0548  0.0720  0.1782
13383PP      PP23487  10.071  12.449   4.337 -0.0719 -0.1543  0.1349
13384PP      PP23488   2.121  11.212   0.649 -0.0068 -0.3501  0.2298
13385PP      PP23489  14.298   7.040   9.218  0.0297 -0.0349 -0.1057
13386PP      PP23490   6.596  13.745  10.990  0.2275 -0.5738 -0.3777
13387PP      PP23491   5.267   0.055   2.315  0.1902 -0.2455  0.3076
13388PP      PP23492   9.283  13.917   4.350  0.0411 -0.2332 -0.0118
13389PP      PP23493   9.817   6.308   3.350 -0.1175  0.0285  0.1177
13390PP      PP23494   2.884   5.884   4.004  0.0411  0.0193 -0.0335
13391PP      PP23495   6.758   2.190  11.416  0.1659 -0.2227  0.0867
13392PP      PP23496   9.406   0.136  10.586 -0.0622 -0.2157  0.0356
13393PP      PP23497   8.317  10.214   3.807 -0.2894  0.0885 -0.1637
13394PP      PP23498   9.129   6.927  12.241  0.1804 -0.0092 -0.0745
13395PP      PP23499   4.391  12.196  11.477  0.0364  0.2121 -0.0078
13396PP      PP23500   3.588   7.212   1.284 -0.1878  0.0221  0.1095
13397PP      PP23501   7.299  13.505   1.259  0.1733  0.0107 -0.0853
13398PP      PP23502   3.469   2.519   9.393  0.2175  0.0986  0.0160
13399PP      PP23503  12.036   1.900  11.948  0.1812  0.1137  0.0658
13400PP      PP23504  14.745   0.428   4.152 -0.0340 -0.0427 -0.2548
13401PP      PP23505   8.674   3.263   3.392 -0.3556  0.2745 -0.1435
13402PP      PP23506   5.640  15.057  12.467 -0.1339  0.4683 -0.1535
13403PP      PP23507   4.446   9.301   2.716  0.0615 -0.1288  0.2183
13404PP      PP23508   1.155   4.081  12.453  0.2004 -0.2448 -0.0806
13405PP      PP23509   9.495  15.065   3.360  0.1534  0.1215 -0.0814
13406PP      PP23510   7.297   5.416  13.121  0.0261 -0.1765 -0.1597
13407PP      PP23511   2.366  12.928   2.573  0.4570 -0.0976 -0.0528
13408PP      PP23512   5.261  12.846  12.348 -0.1630  0.1222 -0.1773
13409PP      PP23513   4.463  14.769   4.465 -0.0784  0.0161  0.2151
13410PP      PP23514   9.570  13.087   9.635  0.0550 -0.0935 -0.0752
13411PP      PP23515   4.409   5.706  10.637  0.4684 -0.0016  0.2591
13412PP      PP23516  11.237  12.883   2.756 -0.1967 -0.0380  0.2122
13413PP      PP23517   7.285   3.627   3.934  0.1429 -0.0109 -0.3683
13414PP      PP23518   7.511   5.647   0.568 -0.1805 -0.0227 -0.2547
13415PP      PP23519   1.890   8.554  10.476 -0.0748  0.0344  0.2794
13416PP      PP23520   4.915   6.311  10.865  0.3867  0.2990  0.1253
13417PP      PP23521  13.961   0.268   0.095 -0.0299 -0.1961 -0.0837
13418PP      PP23522  12.759  10.008   8.610  0.0472 -0.4411  0.2894
13419PP      PP23523   5.856   8.008  10.143  0.4312  0.1546  0.2756
13420PP      PP23524  14.770  13.425   0.879 -0.0181  0.1506 -0.0631
13421PP      PP23525   9.499   5.502   9.116 -0.2582  0.2057 -0.3343
13422PP      PP23526   6.050  12.281  10.359 -0.0445 -0.2059  0.2937
13423PP      PP23527   3.498  10.746  11.633 -0.1520 -0.0404  0.2251
13424PP      PP23528   7.791   3.671   3.694 -0.1710  0.1512  0.4043
13425PP      PP23529   0.105   3.516  12.362 -0.0377  0.1032 -0.0582
13426PP      PP23530  12.749  13.014   2.456  0.0035  0.2272 -0.0754
13427PP      PP23531   5.296   6.317  11.264 -0.0026  0.2287  0.1718
13428PP      PP23532  14.047   5.516   4.137  0.1448  0.1019 -0.2698
13429PP      PP23533   1.232   5.652  11.848  0.2777 -0.0025  0.2798
13430PP      PP23534   4.497  13.744  10.929 -0.0860 -0.2860  0.0670
13431PP      PP23535  15.045  15.547   9.745 -0.1042  0.1394 -0.0854
13432PP      PP23536  12.144   7.317  12.655  0.0118  0.2814 -0.1916
13433PP      PP23537   8.258  13.027  11.211  0.2183 -0.1799 -0.1824
13434PP      PP23538   9.991   4.958  11.097  0.0113 -0.3064 -0.1650
13435PP      PP23539   6.965  11.779   1.853  0.0543 -0.0857 -0.0169
13436PP      PP23540  13.106   6.413  11.671 -0.0263  0.0501 -0.0316
13437PP      PP23541   4.577  10.300   3.638  0.1872 -0.2669 -0.1645
13438PP      PP23542   5.509   7.863   0.168  0.1773  0.0345  0.0596
13439PP      PP23543   2.295   4.762  11.794  0.0849 -0.0172 -0.0998
13440PP      PP23544   7.051   5.267   2.666 -0.1167 -0.0437 -0.2232
13441PP      PP23545  14.712   9.039   1.796 -0.1642  0.2485 -0.0978
13442PP      PP23546  13.629   2.222  10.813 -0.1707  0.1223 -0.0774
13443PP      PP23547   0.374   9.785  12.103  0.1729  0.0159 -0.1357
13444PP      PP23548   2.462   3.425  11.016  0.2203 -0.3274  0.1265
13445PP      PP23549  13.799   3.039   9.996  0.1621  0.1597  0.0264
13446PP      PP23550   4.733  13.362   0.893 -0.2171  0.2635 -0.0631
13447PP      PP23551   2.754   5.627  13.624 -0.1459  0.1016  0.3735
13448PP      PP23552   5.647  10.270   1.587  0.0125 -0.0487 -0.0383
13449PP      PP23553   3.086   4.075   0.453 -0.2965 -0.0408  0.1344
13450PP      PP23554   3.028   2.987   1.307 -0.3620 -0.0589  0.2378
13451PP      PP23555  10.048   2.883   0.521 -0.0190 -0.0781 -0.0552
13452PP      PP23556  12.224  15.686   1.843 -0.2396 -0.0066  0.0871
13453PP      PP23557   5.815  13.152   9.884 -0.0337 -0.2282 -0.1025
13454PP      PP23558   0.541   0.133   9.434  0.3594  0.0070  0.0261
13455PP      PP23559  11.295  11.847   0.549 -0.0096  0.1665  0.1081
13456PP      PP23560   3.640   2.850   2.950 -0.1045 -0.1128 -0.1179
13457PP      PP23561   2.125  14.809  13.180 -0.0450 -0.1997  0.1473
13458PP      PP23562  10.648   4.080   2.820 -0.1493 -0.1514 -0.1218
13459PP      PP23563  10.482   8.624  12.934  0.1557  0.3245  0.0279
13460PP      PP23564   5.618   6.625   3.255 -0.3933  0.1601  0.2151
13461PP      PP23565  14.270   6.859  11.959 -0.1728  0.1164 -0.0758
13462PP      PP23566  10.656   2.168   0.594 -0.2541 -0.1439 -0.0441
13463PP      PP23567  15.246   4.527   4.328  0.0897  0.4755 -0.1128
13464PP      PP23568   6.816   0.343  11.363 -0.2785  0.0183 -0.0516
13465PP      PP23569  13.765   3.692   0.914  0.1326 -0.0668  0.0672
13466PP      PP23570  13.086   3.277   0.620 -0.1970  0.1220  0.0674
13467PP      PP23571   6.227   3.692   7.705  0.0610 -0.0086  0.1713
13468PP      PP23572   0.729  12.324  12.203 -0.1636 -0.2568 -0.0551
13469PP      PP23573  10.170  10.653   3.642 -0.3485  0.2139  0.0211
13470PP      PP23574   0.936   2.789   3.463  0.0387 -0.1274 -0.0906
13471PP      PP23575   3.395   5.903   8.610  0.0566  0.0744  0.2221
13472PP      PP23576   8.864   9.869   2.560  0.0299 -0.1670 -0.0139
13473PP      PP23577  12.588   5.830   0.438  0.0993  0.1236  0.0001
13474PP      PP23578   4.400  15.566  12.579 -0.1207  0.2312  0.2544
13475PP      PP23579   2.400   4.725   1.573  0.2337  0.0926  0.0882
13476PP      PP23580   3.963   0.067  10.037 -0.1557  0.2861  0.3222
13477PP      PP23581   4.340   6.592   9.207  0.1228  0.0202 -0.0735
13478PP      PP23582   7.054   2.680   4.000  0.1073  0.0582 -0.1447
13479PP      PP23583   1.245  14.914   9.774  0.0104  0.0300 -0.0016
13480PP      PP23584  13.714   0.456  10.584 -0.0239  0.2042  0.1295
13481PP      PP23585  13.687   6.173  11.562 -0.0515 -0.0091  0.2741
13482PP      PP23586  12.488   4.434  12.363 -0.0833  0.1849  0.1585
13483PP      PP23587  15.634   8.516   9.526 -0.2529  0.0237  0.0301
13484PP      PP23588   7.376   2.201   8.935 -0.2686  0.2977 -0.1351
13485PP      PP23589   2.181   1.080   1.602  0.2305  0.3004 -0.1961
13486PP      PP23590  14.410   3.730   0.807 -0.1813 -0.1694 -0.0661
13487PP      PP23591   0.329   2.476  10.716 -0.3807 -0.1574 -0.1810
13488PP      PP23592  15.126   2.899   9.759 -0.3492 -0.0613 -0.0630
13489PP      PP23593   3.778   5.276   3.670  0.2438  0.0668  0.1816
13490PP      PP23594  14.246   5.625   0.278 -0.0354  0.0618 -0.1974
13491PP      PP23595  15.623   9.718  10.153  0.1742 -0.1232 -0.1941
13492PP      PP23596  10.533   5.541  13.228 -0.1342 -0.1046 -0.1623
13493PP      PP23597  14.793  14.216   1.705 -0.1049  0.3146  0.1446
13494PP      PP23598   3.643  14.730   0.043  0.0956 -0.1138 -0.1567
13495PP      PP23599   9.130   5.089   9.140 -0.1828 -0.0672  0.0834
13496PP      PP23600  13.750   4.057   3.073  0.1413 -0.3203 -0.2602
13497PP      PP23601  14.031   8.665  12.865  0.0942 -0.0746 -0.0085
13498PP      PP23602  13.150   2.953   3.136 -0.3098 -0.5230  0.0519
13499PP      PP23603   2.912   6.197  12.834 -0.2298 -0.1294 -0.1500
13500PP      PP23604   0.581  11.868   0.792 -0.0464  0.0239 -0.0365
13501PP      PP23605  13.297   2.814   3.662 -0.0517  0.3634 -0.3995
13502PP      PP23606   3.189  14.322  10.905  0.3454 -0.1404  0.1405
13503PP      PP23607   7.250   2.168   2.881  0.0810 -0.1103  0.0676
13504PP      PP23608   7.311  13.032   1.528 -0.1022  0.0323 -0.0290
13505PP      PP23609  14.687  12.091   3.493 -0.0568 -0.3144 -0.4343
13506PP      PP23610   1.213  10.833  13.142 -0.1116 -0.2550  0.5147
13507PP      PP23611   0.016  14.656   0.711  0.0616 -0.0137  0.2297
13508PP      PP23612   2.877   2.058   1.104  0.0024  0.0829 -0.3547
13509PP      PP23613   6.820   1.564   0.378  0.0187 -0.1159  0.2995
13510PP      PP23614   8.461   1.988  10.781 -0.4508  0.4212  0.1374
13511PP      PP23615   7.892   8.297   2.350  0.1409 -0.1540 -0.1857
13512PP      PP23616   4.733  10.565  10.273  0.4088 -0.3064 -0.0548
13513PP      PP23617   7.833   5.736   9.693 -0.0325  0.0255 -0.1052
13514PP      PP23618   6.637  13.559  13.489  0.0765  0.1479 -0.0891
13515PP      PP23619   5.217   3.304   0.535 -0.0819 -0.1812  0.2461
13516PP      PP23620  10.933   2.568   1.777  0.1670 -0.1046 -0.1537
13517PP      PP23621   9.012   7.985   3.604  0.0362  0.2381 -0.0234
13518PP      PP23622  10.967   6.818  12.233 -0.1274 -0.0724 -0.0526
13519PP      PP23623  10.377   4.786   0.663 -0.2772 -0.0765 -0.0470
13520PP      PP23624   9.225  10.254  12.927 -0.3273  0.0865 -0.3680
13521PP      PP23625   4.814   1.440   9.043  0.2715  0.1626  0.1971
13522PP      PP23626   5.545   7.386  13.241 -0.0750 -0.4900  0.0443
13523PP      PP23627   3.599   0.811  11.808  0.1745 -0.3462 -0.1794
13524PP      PP23628   4.887  14.700   9.635 -0.3766 -0.0711 -0.1145
13525PP      PP23629  13.563  12.126  12.767 -0.1429 -0.0593  0.0785
13526PP      PP23630   6.182  12.601  13.587 -0.0394  0.0001  0.0277
13527PP      PP23631   9.788   8.957   3.486  0.1209  0.1156  0.3195
13528PP      PP23632  15.444   9.160   0.702 -0.0770  0.1389 -0.1236
13529PP      PP23633  14.953   3.796  12.017  0.3650 -0.0309  0.2438
13530PP      PP23634  12.164   0.269  11.776 -0.3006  0.2975 -0.0635
13531PP      PP23635   6.523   8.399   1.920 -0.1297  0.0349 -0.0219
13532PP      PP23636   7.201   5.826   2.150 -0.0791  0.2172  0.2481
13533PP      PP23637   4.135   5.536   4.071  0.1027 -0.1469  0.0169
13534PP      PP23638   5.929   8.563  11.141  0.2993  0.0853 -0.1875
13535PP      PP23639   3.360  15.601   2.307  0.1720  0.0450  0.2364
13536PP      PP23640   6.681  15.210   0.246 -0.3584  0.0439 -0.3292
13537PP      PP23641  13.466   8.744   4.197 -0.0708  0.0069  0.1089
13538PP      PP23642  13.547  14.460  12.908  0.4237 -0.0772 -0.1176
13539PP      PP23643  14.998  13.208   1.725 -0.1632 -0.3954 -0.2736
13540PP      PP23644  10.205   5.763  11.883 -0.2140  0.2122 -0.4390
13541PP      PP23645   4.710  11.242   4.682 -0.1651 -0.0613 -0.0559
13542PP      PP23646  10.925  13.649  12.001  0.0670  0.0152  0.2405
13543PP      PP23647   6.498  12.559  10.535  0.2502  0.0428  0.0691
13544PP      PP23648   6.687   6.418   8.768 -0.0688  0.1820 -0.2107
13545PP      PP23649   6.422   7.101  13.401  0.2992  0.4445 -0.0542
13546PP      PP23650  10.636  10.001   2.605  0.1848  0.2586 -0.1965
13547PP      PP23651   1.075  11.607  12.693 -0.3417  0.2650 -0.1957
13548PP      PP23652   5.758   3.438  12.797 -0.0473  0.0765  0.0273
13549PP      PP23653   5.677  10.182  13.404 -0.2344  0.0048 -0.1038
13550PP      PP23654  14.538   5.021  11.001  0.1074 -0.4360  0.0460
13551PP      PP23655   2.993   9.913   1.146  0.1735 -0.1704  0.1721
13552PP      PP23656   6.104  13.718  11.121 -0.1909  0.0494 -0.0294
13553PP      PP23657   4.554   8.099  13.323 -0.0544  0.1694  0.1858
13554PP      PP23658   6.439   9.024  13.183 -0.1210  0.3943 -0.0559
13555PP      PP23659   8.553   5.662  12.657  0.3697  0.2628 -0.0394
13556PP      PP23660  10.856   8.956   0.349  0.0444  0.1872 -0.1088
13557PP      PP23661  10.457   6.885   1.320  0.2178  0.0217  0.1844
13558PP      PP23662   9.222   6.173   3.161  0.0221  0.0984  0.1351
13559PP      PP23663   2.247   3.491   9.192 -0.0289  0.1575 -0.0813
13560PP      PP23664  13.252   4.301   9.995  0.0590 -0.1396 -0.4202
13561PP      PP23665  15.531  13.937   1.271 -0.3662  0.2204 -0.0964
13562PP      PP23666  13.294  11.021   4.246 -0.1776  0.2046 -0.0742
13563PP      PP23667   1.803   4.545   1.843 -0.0940  0.0396  0.1722
13564PP      PP23668  14.834   1.739  13.532  0.5088 -0.1116  0.1822
13565PP      PP23669  12.094   8.128   3.123 -0.0238 -0.1281  0.0568
13566PP      PP23670  10.886  12.597   0.318 -0.0222  0.0228 -0.0474
13567PP      PP23671  14.989   5.014   8.187 -0.0171  0.1620  0.3145
13568PP      PP23672   2.639  11.177   0.412  0.0844 -0.0618 -0.1994
13569PP      PP23673   0.858   0.515   9.444 -0.0868 -0.0452 -0.2117
13570PP      PP23674  11.629  11.273  12.467 -0.1749  0.0156  0.0835
13571PP      PP23675  12.996  12.442   9.971  0.0622 -0.0012 -0.2940
13572PP      PP23676  14.269  15.231  11.354  0.4011 -0.0269  0.3194
13573PP      PP23677   8.313  10.482   4.994  0.3917  0.1587  0.3057
13574PP      PP23678   2.253  13.515   2.392 -0.0702  0.0580  0.1778
13575PP      PP23679   5.212   7.586   2.259  0.0180 -0.1381  0.0458
13576PP      PP23680  13.885  11.682  12.691  0.5081 -0.0150 -0.1365
13577PP      PP23681  12.509   3.772   0.036  0.1341  0.4052  0.2225
13578PP      PP23682   5.025  10.869   3.448  0.2969 -0.0596 -0.0098
13579PP      PP23683  11.302  15.267   4.154 -0.4254  0.1890  0.1694
13580PP      PP23684  14.250   0.202   4.137  0.1713 -0.2946  0.0639
13581PP      PP23685   1.823   6.297   8.689  0.0392  0.1730  0.6089
13582PP      PP23686   3.553   4.446   8.842  0.0735 -0.1088  0.0001
13583PP      PP23687   3.171  15.474   9.986 -0.1053 -0.1119 -0.0458
13584PP      PP23688  14.007   1.956   2.919 -0.1714 -0.0964  0.1202
13585PP      PP23689   4.448   4.371   8.716  0.0289 -0.1360  0.0449
13586PP      PP23690   3.103   4.585   8.648 -0.1049 -0.1104 -0.3609
13587PP      PP23691   5.509   7.038   9.876 -0.2247  0.0220  0.1932
13588PP      PP23692  11.808   4.416   3.313  0.2445  0.0724 -0.1112
13589PP      PP23693  12.202   0.922  13.318 -0.3812  0.0664 -0.1466
13590PP      PP23694   2.433  14.590   2.843 -0.1154  0.2175 -0.0194
13591PP      PP23695   8.701   4.873   3.447 -0.2857 -0.1488 -0.2429
13592PP      PP23696   2.011   7.322   1.333  0.1117 -0.1825 -0.0032
13593PP      PP23697  11.795   6.385  11.219  0.0393  0.5739  0.3748
13594PP      PP23698   8.240   7.982   0.879  0.1069 -0.0661 -0.0257
13595PP      PP23699   6.714   7.655  13.087 -0.0443 -0.1201 -0.1952
13596PP      PP23700   0.826  11.193   4.591  0.2780 -0.0199  0.1087
13597PP      PP23701   7.339  11.076   4.025  0.1483 -0.2691  0.2187
13598PP      PP23702   9.384   7.988  12.222 -0.0474 -0.3252  0.0502
13599PP      PP23703  14.082   9.970   4.274  0.3571 -0.0636  0.1184
13600PP      PP23704   0.150  14.429   9.570 -0.0040 -0.0686 -0.0846
13601PP      PP23705  13.315   8.008  10.701 -0.2702  0.1066 -0.0719
13602PP      PP23706   9.502  13.531  10.838 -0.0795  0.1432  0.0318
13603PP      PP23707   2.612   2.571  10.534 -0.1358 -0.0661 -0.0326
13604PP      PP23708  14.562   8.433   2.457 -0.4424  0.2645 -0.1983
13605PP      PP23709  14.898   1.577  10.004  0.2783 -0.0525  0.3501
13606PP      PP23710   4.991   1.604   2.127  0.1454  0.0603  0.0911
13607PP      PP23711  10.009  14.284   3.734 -0.0565  0.0058 -0.3148
13608PP      PP23712  12.039  12.540   1.896  0.0116  0.0531  0.1017
13609PP      PP23713   8.424   4.806   2.936 -0.4196  0.3725 -0.1578
13610PP      PP23714  14.641   6.299   8.722 -0.1302 -0.0978  0.0708
13611PP      PP23715  14.364  10.602   3.276  0.2757  0.0581 -0.1584
13612PP      PP23716   8.516  15.056   3.886  0.0845  0.2372  0.0580
13613PP      PP23717   6.386   6.156   9.113  0.0050 -0.0708 -0.2052
13614PP      PP23718  10.533   0.151  10.369  0.1352 -0.1095  0.2250
13615PP      PP23719   6.945  12.487  10.801  0.1470 -0.3697  0.1857
13616PP      PP23720   6.475   9.440   9.588 -0.0943 -0.1105 -0.2059
13617PP      PP23721   2.572  11.968  12.411  0.2947 -0.4900  0.0858
13618PP      PP23722   9.180  13.830   8.656 -0.0448 -0.2298 -0.0729
13619PP      PP23723   9.761  14.845  11.588 -0.2809  0.0623  0.0135
13620PP      PP23724   4.853   6.064  12.906  0.1917 -0.1916  0.1214
13621PP      PP23725   3.843   1.989   0.799  0.1219  0.3156  0.2178
13622PP      PP23726   7.794   7.873   2.034  0.2131  0.0736  0.1036
13623PP      PP23727   4.940  14.181  12.759 -0.1288 -0.0578 -0.2602
13624PP      PP23728  10.025  12.185  12.995  0.1396  0.0193  0.3990
13625PP      PP23729   1.340   0.972  12.697 -0.0928 -0.2237 -0.0950
13626PP      PP23730  11.170   3.693  13.757  0.0806  0.0514 -0.0661
13627PP      PP23731  13.649   4.476   3.420  0.0936 -0.0498 -0.1520
13628PP      PP23732   7.571   2.972   3.288  0.0109 -0.3151  0.2336
13629PP      PP23733   8.139   5.157   2.719 -0.0589  0.1987  0.0395
13630PP      PP23734  12.446   2.066  13.371 -0.0526  0.0700 -0.1824
13631PP      PP23735  14.564  11.362  13.110  0.2738  0.0911  0.1863
13632PP      PP23736  14.496  10.913  12.129  0.1307  0.2041 -0.1037
13633PP      PP23737   6.633  10.883  10.518  0.0060  0.0217 -0.1175
13634PP      PP23738   8.575   6.965   1.509 -0.1829  0.2232 -0.1962
13635PP      PP23739   4.745   7.341  12.337  0.1462 -0.2095  0.0869
13636PP      PP23740   9.689   5.002   2.960 -0.0173 -0.1622  0.0047
13637PP      PP23741   2.761   6.897  12.210 -0.4360  0.1429 -0.3913
13638PP      PP23742   4.046  15.245  13.616  0.5173 -0.0753 -0.1680
13639PP      PP23743  11.493  13.106  13.014 -0.0672  0.2001 -0.1881
13640PP      PP23744  12.816  10.754   2.708 -0.3912  0.2183  0.1576
13641PP      PP23745   6.714  14.312  10.796 -0.2127  0.0105  0.0652
13642PP      PP23746   3.978   6.013   1.039  0.0599 -0.0291 -0.0680
13643PP      PP23747   4.439  12.674  10.322  0.0448  0.2021 -0.5523
13644PP      PP23748   7.116   3.120  12.346  0.0551 -0.2457  0.0786
13645PP      PP23749   9.843  13.015  10.588 -0.0468 -0.0259 -0.1698
13646PP      PP23750   8.138  13.860  12.842  0.0012 -0.1057 -0.1981
13647PP      PP23751  12.594   5.833   1.917 -0.6277 -0.1351  0.1814
13648PP      PP23752   9.935  12.136  10.222 -0.1114 -0.0470 -0.0590
13649PP      PP23753   8.529   7.983  13.683 -0.1408 -0.1689  0.1575
13650PP      PP23754  15.713   4.433   2.288 -0.0448  0.0553  0.1815
13651PP      PP23755  14.544   7.494  12.992  0.0385 -0.1154  0.1522
13652PP      PP23756  15.018   9.181   2.493  0.1245 -0.0933 -0.1332
13653PP      PP23757  11.589  12.479   2.209  0.4299 -0.0969  0.0827
13654PP      PP23758  15.312   0.849  10.742 -0.0133  0.1648  0.1002
13655PP      PP23759   9.750   7.759   2.108  0.1245 -0.2143 -0.3580
13656PP      PP23760   9.549  13.027   9.103 -0.3534 -0.0104  0.3328
13657PP      PP23761  12.714   0.591  11.606  0.0514  0.2050  0.1192
13658PP      PP23762  14.650  13.720   1.287 -0.0717 -0.1236 -0.2211
13659PP      PP23763   6.624   4.370   4.065  0.3726  0.0901 -0.1425
13660PP      PP23764   7.924   7.409   9.153  0.3176  0.1939 -0.0112
13661PP      PP23765   3.948  12.511   5.224 -0.0236 -0.0284 -0.1825
13662PP      PP23766   9.766  11.239   2.750  0.0000  0.1376 -0.0180
13663PP      PP23767  10.223   9.460  13.444  0.0716  0.2463  0.0057
13664PP      PP23768  14.125  12.693   9.459 -0.2901 -0.3941  0.4168
13665PP      PP23769  10.000  12.018   2.453 -0.3432 -0.1120  0.2486
13666PP      PP23770   8.727  15.009  11.752  0.1856 -0.1613  0.2268
13667PP      PP23771   0.983   8.426   1.935 -0.0852  0.2840 -0.1369
13668PP      PP23772   1.102   5.652  13.302 -0.1178 -0.1176  0.2203
13669PP      PP23773   9.775  12.486   1.883 -0.0971  0.2141 -0.1872
13670PP      PP23774  10.361  14.238   2.045  0.2512  0.1101  0.0486
13671PP      PP23775   4.993  12.582   1.240  0.0305  0.1631 -0.0544
13672PP      PP23776   9.794   3.758  12.097 -0.0737  0.2955 -0.0539
13673PP      PP23777   4.452   0.228   3.867  0.0961 -0.3551  0.1173
13674PP      PP23778   5.100   2.099   3.735  0.0521  0.0961  0.1850
13675PP      PP23779   1.916   9.674  12.194 -0.3150 -0.0123  0.3189
13676PP      PP23780   3.967  10.097  10.588  0.2423  0.2155 -0.0930
13677PP      PP23781   8.293   8.556  12.819 -0.0628  0.0085 -0.2477
13678PP      PP23782   2.989   2.574   4.349 -0.3807  0.1339  0.0369
13679PP      PP23783  13.094  13.674   5.643  0.1264 -0.0058 -0.0967
13680PP      PP23784   6.228   6.024  11.344  0.2409  0.1409  0.0034
13681PP      PP23785  10.963   7.106  10.453  0.3652  0.2289  0.1565
13682PP      PP23786   9.858   2.221   1.328  0.1142 -0.1065  0.0338
13683PP      PP23787   7.023   2.578   8.666 -0.1248 -0.1621 -0.0194
13684PP      PP23788  14.233  11.074   9.945 -0.2300  0.1254  0.3723
13685PP      PP23789   0.943  14.896   0.899 -0.2044  0.1253  0.1342
13686PP      PP23790   9.964   1.294   1.725 -0.0265 -0.1912  0.0373
13687PP      PP23791   4.381  12.533   1.070 -0.1114 -0.3721 -0.0248
13688PP      PP23792   0.571   9.514   2.880  0.0268  0.1727 -0.1918
13689PP      PP23793   9.735  14.543   4.988 -0.0999  0.0673  0.1338
13690PP      PP23794  12.114  13.949  12.988 -0.2612  0.0508 -0.0462
13691PP      PP23795   0.063   3.298  13.421  0.0469 -0.0261 -0.2478
13692PP      PP23796   4.525   2.661  12.570 -0.3133  0.0009 -0.2995
13693PP      PP23797   9.931   1.642  11.964 -0.1539 -0.0159 -0.0499
13694PP      PP23798   7.055  13.793   0.087 -0.1680  0.0539 -0.1995
13695PP      PP23799   4.408  10.158  10.979  0.1400  0.0526  0.2373
13696PP      PP23800   6.276   5.274   2.392 -0.2109 -0.1723  0.1254
13697PP      PP23801   8.515   9.102   4.192 -0.1779 -0.0627  0.2173
13698PP      PP23802   8.990  11.769  11.318  0.2226  0.1429  0.0097
13699PP      PP23803   8.678   7.640  11.345  0.0036  0.3468 -0.1369
13700PP      PP23804   3.811   9.066  12.667 -0.2008  0.2248 -0.0025
13701PP      PP23805   9.596   3.612  10.866  0.2558 -0.1883  0.0979
13702PP      PP23806   5.205   4.458  11.483  0.0415  0.1335  0.1615
13703PP      PP23807  11.302  14.182   3.271 -0.3336 -0.0649 -0.1214
13704PP      PP23808  14.623   0.871   9.282  0.1303  0.3448 -0.2723
13705PP      PP23809  14.039   3.211  10.487 -0.3028 -0.0163 -0.0667
13706PP      PP23810   9.205   0.246   1.841 -0.0199  0.0411 -0.0654
13707PP      PP23811  12.714  15.011  12.744 -0.0479  0.4682 -0.4367
13708PP      PP23812   7.513   4.579   1.050 -0.0626 -0.0106 -0.2396
13709PP      PP23813  14.687   2.557   2.348 -0.1448 -0.1996 -0.2800
13710PP      PP23814  14.101   4.110   2.070  0.1282  0.2571  0.0849
13711PP      PP23815   8.960   5.531  11.988 -0.3226  0.0631  0.2827
13712PP      PP23816   8.654  14.131  10.698 -0.0218 -0.0634  0.0173
13713PP      PP23817   8.249   5.867  12.313 -0.1725  0.3263 -0.1064
13714PP      PP23818   9.192   4.639  10.650 -0.1265  0.1335  0.1178
13715PP      PP23819   7.660   5.320  10.588  0.1518  0.0914 -0.0325
13716PP      PP23820  12.278   7.389   3.576 -0.1496 -0.0623  0.1368
13717PP      PP23821   3.952   5.093   4.227  0.1389  0.1036 -0.0243
13718PP      PP23822   9.548   1.926  10.925 -0.0137  0.1305 -0.0250
13719PP      PP23823  14.122  13.192  13.465 -0.0006  0.0474 -0.0670
13720PP      PP23824   6.365  10.447   2.877 -0.1269  0.1276  0.1214
13721PP      PP23825   0.744   5.451   9.047 -0.0383 -0.1349  0.1991
13722PP      PP23826   9.228  13.595   2.815  0.2878 -0.1008 -0.1175
13723PP      PP23827  14.815   9.141   0.423 -0.1071 -0.1517  0.0590
13724PP      PP23828   6.873  10.863  12.051 -0.0106 -0.1617  0.1970
13725PP      PP23829   3.257  10.903  12.886  0.1981 -0.0434  0.2685
13726PP      PP23830  15.713   6.802  10.485 -0.0117  0.1387 -0.1005
13727PP      PP23831   1.092  11.837  13.394 -0.0191  0.1953  0.0463
13728PP      PP23832  11.698   7.846   0.526 -0.1476  0.0529 -0.3643
13729PP      PP23833  12.823   8.764  11.211  0.3050 -0.0989  0.0116
13730PP      PP23834   4.972  11.908   1.742  0.0531 -0.0355  0.1489
13731PP      PP23835   9.087   0.719   1.148  0.3501 -0.0044 -0.1138
13732PP      PP23836  14.665  14.723  13.577 -0.3698 -0.1025  0.0822
13733PP      PP23837   9.292  15.310   2.995 -0.0446  0.3657  0.1133
13734PP      PP23838   2.881   2.138  10.462 -0.0664 -0.1362 -0.2811
13735PP      PP23839   4.984   9.177   2.766 -0.0396  0.1256 -0.0245
13736PP      PP23840   0.406   9.621  13.292  0.0363  0.0839 -0.1566
13737PP      PP23841  15.074  12.323   2.552  0.1005 -0.1259  0.1268
13738PP      PP23842  12.483  12.469   2.238 -0.0027 -0.0140  0.0547
13739PP      PP23843  12.209   7.584  11.720 -0.0218 -0.3099  0.2425
13740PP      PP23844   1.410  13.425   8.941  0.0524 -0.1703  0.2447
13741PP      PP23845   7.642   3.091  11.917  0.0454 -0.1309  0.1405
13742PP      PP23846   7.725  11.644   9.785  0.1054 -0.1560 -0.3344
13743PP      PP23847  10.365  12.541   1.073 -0.0410  0.0847  0.0778
13744PP      PP23848   2.763  11.093   5.402  0.0685 -0.0143 -0.1475
13745PP      PP23849  15.410  14.374   0.484  0.1450 -0.2545  0.0959
13746PP      PP23850  10.734   7.215   3.724 -0.0698  0.2826 -0.2525
13747PP      PP23851   2.646  12.281   9.490 -0.0197  0.0343  0.0120
13748PP      PP23852  11.582   6.765   1.584  0.2284 -0.0711  0.5164
13749PP      PP23853  10.367  14.985   1.280  0.1711  0.0936 -0.1948
13750PP      PP23854  10.155   4.174  12.482 -0.1000 -0.0272  0.1843
13751PP      PP23855  14.222  12.699   3.951  0.1345 -0.0898 -0.2705
13752PP      PP23856  12.071   8.911  12.262 -0.1113 -0.0100 -0.2578
13753PP      PP23857   1.469   0.245   2.021 -0.2162 -0.0393  0.1486
13754PP      PP23858   1.282   3.003   3.171  0.0228 -0.2786 -0.2567
13755PP      PP23859   2.303   4.638  10.712  0.0281 -0.0576 -0.0817
13756PP      PP23860   0.711  13.538   1.285  0.1158  0.0445 -0.0960
13757PP      PP23861   8.603   4.349   8.511 -0.1871  0.2835 -0.0806
13758PP      PP23862   9.529   8.592   2.570 -0.2664 -0.1835 -0.2089
13759PP      PP23863   2.217   5.599  12.347 -0.1095  0.1053  0.0213
13760PP      PP23864   8.705   9.461  11.337  0.0356  0.1827 -0.1747
13761PP      PP23865   5.360  15.598   4.095  0.1204  0.0702 -0.0645
13762PP      PP23866   0.881  13.989   3.892  0.2762 -0.0753  0.1896
13763PP      PP23867  14.412  11.989   0.662  0.3239  0.1317 -0.2584
13764PP      PP23868  10.943   1.005  10.161  0.0060 -0.2214 -0.1428
13765PP      PP23869   9.912   7.633  13.199  0.2962  0.3841  0.1584
13766PP      PP23870  11.002   6.571  10.357  0.1047 -0.3691  0.2160
13767PP      PP23871  15.141  11.613   9.823  0.0875 -0.1552 -0.0742
13768PP      PP23872   3.031  14.968  11.023 -0.4532 -0.4177  0.3375
13769PP      PP23873   8.103   6.350   8.309 -0.1127  0.3367  0.2085
13770PP      PP23874   2.073   2.131  11.144 -0.1964 -0.0175 -0.0085
13771PP      PP23875   9.690   6.196  11.856  0.1543  0.0632  0.2443
13772PP      PP23876  10.919   3.515   0.454  0.1001 -0.3729  0.0960
13773PP      PP23877  13.047   6.694   2.693  0.0156 -0.0087 -0.2237
13774PP      PP23878  12.790  12.305   3.786 -0.3050  0.4315  0.0453
13775PP      PP23879   7.347  13.898   0.936  0.2919 -0.0121  0.0515
13776PP      PP23880   0.500   4.227  13.584  0.4297 -0.0830  0.0311
13777PP      PP23881   8.232  13.050   9.221 -0.0470 -0.1677  0.1243
13778PP      PP23882  12.642   8.592  13.344  0.2103 -0.1576  0.1162
13779PP      PP23883   2.172  14.254  10.793 -0.1071 -0.0691 -0.1604
13780PP      PP23884   9.109  11.405  10.497  0.2552  0.3312 -0.0877
13781PP      PP23885   5.548   4.692  12.464  0.1741 -0.0815 -0.1001
13782PP      PP23886   5.503  12.857   9.536  0.1189  0.2451 -0.1684
13783PP      PP23887  13.017   3.967   0.763 -0.3184 -0.0865  0.0595
13784PP      PP23888   3.783  14.346  11.235  0.2338  0.3982  0.1927
13785PP      PP23889   0.882  11.387   3.562 -0.0579  0.3034 -0.0434
13786PP      PP23890   1.202   1.525   9.956  0.1584  0.0099 -0.0707
13787PP      PP23891  13.669   5.361   0.846  0.2207 -0.1500 -0.1585
13788PP      PP23892   6.441  15.656  12.205  0.0246  0.0642  0.2409
13789PP      PP23893   6.021  13.393  12.726  0.1578 -0.0908 -0.0301
13790PP      PP23894   1.035  12.480   2.826  0.0639  0.0663  0.1224
13791PP      PP23895   1.843   4.709   0.198  0.1120  0.1931 -0.0080
13792PP      PP23896  15.279   9.551   9.290  0.2347 -0.0784 -0.0706
13793PP      PP23897  12.065   7.364  12.187  0.1808 -0.1583  0.1424
13794PP      PP23898  14.345  15.318  12.796 -0.0500  0.1675  0.0450
13795PP      PP23899   5.823  10.159   5.080  0.1306  0.2852 -0.1975
13796PP      PP23900  13.160   6.925   0.848 -0.0108  0.5292  0.2323
13797PP      PP23901   9.732  14.758   1.052 -0.2219 -0.0996  0.0789
13798PP      PP23902   4.330  11.726  10.310 -0.1093  0.0231 -0.2401
13799PP      PP23903   6.653   5.134   9.592 -0.1147 -0.1380 -0.0472
13800PP      PP23904   7.319   9.653  10.360 -0.2825  0.0070 -0.1031
13801PP      PP23905  10.879  11.135  13.020 -0.0282 -0.0731  0.0016
13802PP      PP23906  14.183   5.921  11.316 -0.0545 -0.2903 -0.1881
13803PP      PP23907  14.983  10.742   0.601 -0.2474 -0.1724  0.0202
13804PP      PP23908   7.005   6.235   1.414 -0.2844 -0.0347 -0.3232
13805PP      PP23909   2.472   8.107   0.602 -0.1364  0.2177  0.0701
13806PP      PP23910   9.931   7.920  11.147  0.1931  0.1286 -0.4189
13807PP      PP23911   0.230   9.776  12.581  0.1939 -0.0184  0.1186
13808PP      PP23912   2.209   0.403   0.958  0.3376  0.2726 -0.3608
13809PP      PP23913   8.028   6.286  11.504  0.4605 -0.0917  0.3240
13810PP      PP23914  11.363   2.473  12.456  0.1226 -0.3795 -0.1362
13811PP      PP23915   3.855  11.558  11.169  0.3573 -0.3243 -0.0622
13812PP      PP23916  11.524  13.960  12.680  0.0223 -0.3159  0.0059
13813PP      PP23917  14.466   1.850   2.008 -0.1413 -0.3810 -0.0626
13814PP      PP23918   7.981  10.249   8.788  0.0946 -0.0837  0.0389
13815PP      PP23919   0.993   4.573   3.164  0.1033  0.0723  0.2564
13816PP      PP23920   0.874   4.049   0.887  0.1450 -0.0953  0.0365
13817PP      PP23921   9.256   5.157   2.689  0.0428  0.0329 -0.4616
13818PP      PP23922  11.286   3.054   0.508 -0.2897 -0.1873  0.0732
13819PP      PP23923   8.512   5.048   1.943 -0.2160  0.0407 -0.1914
13820PP      PP23924  10.655   6.680   9.966  0.0468 -0.2450  0.0897
13821PP      PP23925   5.804   7.352   0.701  0.2084  0.4105  0.2588
13822PP      PP23926  10.171  13.603   2.701 -0.0270  0.0764  0.3031
13823PP      PP23927  15.356   6.201  11.235  0.1081 -0.3748 -0.0793
13824PP      PP23928   6.567  12.329   4.308 -0.1473  0.2714  0.1802
13825PP      PP23929   6.024   6.771   9.567 -0.2070  0.0627  0.0055
13826PP      PP23930   2.454   0.033   1.675  0.0754  0.2060 -0.1656
13827PP      PP23931  11.325   5.927   1.854 -0.0611 -0.1192 -0.1947
13828PP      PP23932  15.067   7.299  13.616 -0.2589  0.0851  0.1873
13829PP      PP23933   7.073   9.975  10.032  0.0188  0.0225  0.2975
13830PP      PP23934  12.633   4.336   8.972 -0.0253 -0.2293  0.2933
13831PP      PP23935  15.661   9.292   2.060 -0.1104  0.3320  0.0152
13832PP      PP23936   9.028  14.662  13.450  0.0149  0.0763 -0.1580
13833PP      PP23937   7.352  11.802  13.428  0.0814  0.1308 -0.0978
13834PP      PP23938  14.404   5.586  10.820  0.0323  0.0978 -0.2263
13835PP      PP23939   0.887   5.202   3.336 -0.1799 -0.1283  0.1480
13836PP      PP23940  14.588  10.123  12.819  0.3362  0.3431  0.1790
13837PP      PP23941   4.607   3.051   1.752 -0.0170  0.0736 -0.0546
13838PP      PP23942   0.198   7.462   8.069  0.1323 -0.2980  0.3313
13839PP      PP23943   5.848   2.626   0.394  0.3337 -0.0722  0.4348
13840PP      PP23944   1.586   5.087   1.901  0.0094  0.0151  0.0873
13841PP      PP23945   7.021   9.600  13.458 -0.3519  0.3407  0.2397
13842PP      PP23946   6.315  11.968   4.578  0.2871 -0.0094 -0.1479
13843PP      PP23947  14.700   0.945   4.203  0.0236 -0.1219 -0.3210
13844PP      PP23948   9.073   5.102   0.151 -0.1629  0.0446  0.0179
13845PP      PP23949  14.787   4.145   0.049 -0.1080  0.2487 -0.2099
13846PP      PP23950   0.695   5.769   1.359 -0.1403 -0.1758 -0.1525
13847PP      PP23951  10.454   9.590  12.366 -0.0007 -0.4188 -0.0261
13848PP      PP23952  10.811   1.800  11.336 -0.0128  0.3988 -0.0246
13849PP      PP23953  12.825  11.559   0.369  0.1464  0.0403 -0.2665
13850PP      PP23954   8.757   5.131   2.606 -0.3712 -0.0686 -0.1904
13851PP      PP23955  13.893   7.304   8.990  0.0740 -0.1786  0.0178
13852PP      PP23956  12.908  13.449  10.038 -0.1834 -0.0683 -0.0455
13853PP      PP23957   4.328   9.335   3.402  0.0562 -0.0112 -0.3390
13854PP      PP23958  14.212   4.120  11.344 -0.2333  0.0025 -0.0894
13855PP      PP23959   7.324  13.069  12.664 -0.1798 -0.1394 -0.1557
13856PP      PP23960   6.941   8.998   0.592 -0.3039 -0.1059 -0.0057
13857PP      PP23961   7.241   7.756  13.009  0.3511  0.1737 -0.3078
13858PP      PP23962  10.769  11.044   1.850 -0.1442 -0.0009  0.1428
13859PP      PP23963   0.783   6.519   3.232  0.0948  0.1093 -0.1254
13860PP      PP23964  14.834   3.086  10.258  0.0793 -0.0299 -0.0776
13861PP      PP23965   6.159  15.517  13.698 -0.0235 -0.1970  0.1193
13862PP      PP23966   1.349   2.556   3.370 -0.0230 -0.1606  0.0418
13863PP      PP23967   7.905  10.084   3.579  0.0494 -0.1958 -0.0546
13864PP      PP23968   6.962   8.323   0.187 -0.2137 -0.1579 -0.0801
13865PP      PP23969  14.202   4.043   2.853  0.0031 -0.4081  0.0976
13866PP      PP23970   6.324  15.357  11.553 -0.2542  0.0453  0.0406
13867PP      PP23971   4.624   5.653   2.730 -0.0693 -0.0428 -0.0475
13868PP      PP23972   7.466   6.738   9.640  0.1626  0.0925  0.4421
13869PP      PP23973   7.890   4.250  10.883  0.2064  0.0022  0.4707
13870PP      PP23974   4.640  10.608   3.226  0.0311 -0.2447  0.0418
13871PP      PP23975   7.038  15.520   2.816 -0.0236  0.0383 -0.0327
13872PP      PP23976  10.634   2.327   3.729 -0.0379 -0.2590  0.1647
13873PP      PP23977   3.101   5.024   9.900  0.0242 -0.0356  0.0727
13874PP      PP23978  10.471   4.458  12.053 -0.0583  0.1518  0.1573
13875PP      PP23979   1.377   8.328   1.658  0.0311 -0.0991  0.1750
13876PP      PP23980  14.513  14.099  11.796 -0.4182  0.0684  0.1931
13877PP      PP23981   8.449   4.593   0.910  0.0955 -0.1426  0.3157
13878PP      PP23982   1.048  11.999  11.821 -0.1294 -0.1002 -0.1293
13879PP      PP23983   9.935  12.543   0.579 -0.1262  0.2269 -0.0323
13880PP      PP23984  11.309  13.230  12.436 -0.1467 -0.2216 -0.2095
13881PP      PP23985   0.706   6.387   0.698  0.2487  0.0671  0.1725
13882PP      PP23986   9.618   2.641   3.366 -0.1636  0.1392 -0.3042
13883PP      PP23987   6.669  12.482   9.686  0.2315  0.2456 -0.2739
13884PP      PP23988  13.657  13.432   2.222 -0.1914  0.0818 -0.0059
13885PP      PP23989   3.345   9.335  10.268 -0.1624  0.1176  0.0481
13886PP      PP23990  14.552  13.534   4.887 -0.1478  0.1406 -0.1622
13887PP      PP23991   5.936   1.716   2.682 -0.2410  0.0868 -0.0484
13888PP      PP23992  14.604   1.581  10.903  0.1274 -0.1219  0.4661
13889PP      PP23993  14.553   0.372   8.989  0.0615  0.0346 -0.1222
13890PP      PP23994   3.015   2.577   0.923 -0.2211 -0.0374 -0.0215
13891PP      PP23995  12.455   2.286  12.386 -0.1064  0.1163 -0.0593
13892PP      PP23996   3.862   3.188  12.080  0.0180  0.0898 -0.0812
13893PP      PP23997   2.607   4.123  12.663 -0.1572  0.1603 -0.0055
13894PP      PP23998  14.224  10.945   0.723 -0.1018  0.1509  0.0917
13895PP      PP23999  10.990  10.893   9.923  0.2287 -0.2110  0.0363
13896PP      PP24000   1.739  11.009  13.453 -0.4138  0.3473  0.0156
13897PP      PP24001  15.404   8.396  10.376  0.3369  0.0285 -0.1838
13898PP      PP24002  13.374  12.620   3.669 -0.0890 -0.0160  0.1909
13899PP      PP24003   5.096  13.448   2.671  0.0975 -0.2647 -0.0502
13900PP      PP24004   5.348   4.857   9.068  0.0345  0.0686 -0.0771
13901PP      PP24005   6.870   8.814   0.053  0.0312  0.1787 -0.2794
13902PP      PP24006   7.738   4.021   9.942 -0.0391 -0.1439  0.1495
13903PP      PP24007   3.540  11.120   3.497  0.1521 -0.2488  0.0703
13904PP      PP24008   4.369   3.363  10.888  0.0060  0.2328  0.2252
13905PP      PP24009  14.883  12.137   0.408  0.2608  0.1380  0.3231
13906PP      PP24010   7.976   5.645   0.735  0.2426 -0.1976  0.0011
13907PP      PP24011   1.879  13.356   4.719  0.4061  0.1794  0.0149
13908PP      PP24012   4.208   6.757   1.774 -0.0787  0.2580  0.3346
13909PP      PP24013   0.797   9.079   3.118 -0.1795 -0.0761 -0.1588
13910PP      PP24014   5.336  11.207   1.995 -0.2752  0.1376  0.2148
13911PP      PP24015   4.553   4.574  13.070  0.3606 -0.4502  0.0393
13912PP      PP24016   1.627   0.242   4.272 -0.2107 -0.0416  0.1213
13913PP      PP24017  15.024   8.612   9.632 -0.1758  0.0222 -0.0037
13914PP      PP24018  15.269   1.546   2.521 -0.1197 -0.1734  0.0158
13915PP      PP24019   3.483   8.530  10.934 -0.0350  0.0624 -0.0544
13916PP      PP24020   5.243  14.501  13.321 -0.0347 -0.0441  0.0871
13917PP      PP24021   2.424  14.039  10.414  0.2244  0.0352 -0.0232
13918PP      PP24022   0.441  11.174  11.813  0.0415  0.0767 -0.2813
13919PP      PP24023   6.817  14.078  11.369 -0.1778 -0.1921 -0.2797
13920PP      PP24024   9.946   4.594   9.061  0.2466  0.1538 -0.1979
13921PP      PP24025  12.702   5.065   2.460 -0.2041  0.0407  0.3056
13922PP      PP24026   8.805  14.746   7.839  0.1748 -0.2290 -0.0915
13923PP      PP24027   4.221  12.115   3.970 -0.1538  0.0608 -0.0163
13924PP      PP24028   8.017   9.082   4.088 -0.0757  0.0105 -0.0487
13925PP      PP24029   9.121   5.245   3.603 -0.4229  0.1463  0.0618
13926PP      PP24030   9.469   9.700   0.287 -0.1276  0.1420 -0.3123
13927PP      PP24031  14.771   8.380   0.803 -0.0091  0.3527  0.0122
13928PP      PP24032   4.798   6.601  11.786  0.0224  0.0114 -0.1565
13929PP      PP24033  14.401  11.642   3.417 -0.3243  0.1485 -0.0655
13930PP      PP24034   1.419   3.121  10.590 -0.0739 -0.4263  0.0311
13931PP      PP24035  12.226  14.098   1.734  0.2838 -0.0818  0.0858
13932PP      PP24036   8.635  12.371  13.012 -0.1542  0.1421  0.3269
13933PP      PP24037   5.241   1.144   3.504 -0.0247 -0.1170 -0.0452
13934PP      PP24038   3.236   4.912   2.900 -0.1914 -0.2368  0.2871
13935PP      PP24039   5.025   8.127  12.708 -0.3359  0.0839  0.0692
13936PP      PP24040   4.960  11.351   3.267 -0.1864  0.1084 -0.1137
13937PP      PP24041   9.921  13.479  12.420  0.4463 -0.2401  0.3867
13938PP      PP24042   2.159   0.541   1.465  0.2802 -0.3191  0.1902
13939PP      PP24043   5.784  12.734  10.212 -0.0266 -0.1333 -0.1327
13940PP      PP24044  12.777   2.061   1.078 -0.1857  0.0079  0.0503
13941PP      PP24045  14.899   4.954   3.087  0.1335 -0.0411 -0.0342
13942PP      PP24046  11.046  10.077  12.045 -0.1066  0.1496  0.0994
13943PP      PP24047  13.849  15.446   9.531 -0.1962 -0.0204 -0.1465
13944PP      PP24048  13.002  13.518   4.729 -0.2502 -0.1746  0.1167
13945PP      PP24049   9.695   6.907   9.614 -0.1099  0.1049  0.2769
13946PP      PP24050   9.130  13.808  10.653 -0.2565 -0.2470 -0.1830
13947PP      PP24051   8.161   6.715   1.366  0.3801  0.0581 -0.0974
13948PP      PP24052  10.941   1.655   9.455  0.2035 -0.3795  0.2877
13949PP      PP24053  15.710   9.763   0.895 -0.1304 -0.0184  0.2135
13950PP      PP24054   5.059   4.007  11.783 -0.0596  0.0680 -0.0838
13951PP      PP24055  10.357   6.760  12.940  0.1140 -0.1790 -0.1688
13952PP      PP24056   8.024   3.888  12.301 -0.0745  0.0543  0.0073
13953PP      PP24057   1.909  12.920   3.004 -0.2343  0.0274 -0.1721
13954PP      PP24058   6.771   0.059   1.238 -0.0688  0.0529 -0.1319
13955PP      PP24059  13.116   1.736   0.976  0.0942  0.1417  0.2091
13956PP      PP24060  12.606   5.448  10.901  0.1388  0.0988 -0.0311
13957PP      PP24061  10.439   6.980   9.136  0.0711 -0.1083  0.0245
13958PP      PP24062   8.623   4.649   1.508 -0.0869  0.1018  0.1835
13959PP      PP24063   1.241  15.649   2.912 -0.2166  0.1686  0.2894
13960PP      PP24064   9.978   7.123  11.737 -0.0910  0.0871  0.1457
13961PP      PP24065  15.545   3.753   1.383 -0.0089 -0.2382  0.1253
13962PP      PP24066  15.204  11.806  10.825 -0.0184  0.0038 -0.0630
13963PP      PP24067   0.203   9.868  10.758  0.0843  0.3561 -0.2660
13964PP      PP24068   8.609   6.468  10.934 -0.4370  0.0808 -0.0005
13965PP      PP24069   1.806   2.906   3.946  0.0262 -0.2300 -0.3288
13966PP      PP24070  13.154  13.848  13.335 -0.0122 -0.3637  0.0908
13967PP      PP24071   7.419  10.713  11.067 -0.0380  0.0996 -0.1723
13968PP      PP24072   3.090   5.531   1.588  0.1237  0.2984 -0.0719
13969PP      PP24073  12.315  11.080  12.005 -0.1574  0.3027  0.1673
13970PP      PP24074  10.621  15.454   3.443 -0.1384 -0.1374 -0.0096
13971PP      PP24075  14.944   5.025   3.623 -0.1424 -0.0368 -0.1836
13972PP      PP24076  11.259   6.051   3.972  0.1408  0.0004 -0.1113
13973PP      PP24077   1.365   6.231  11.068 -0.0360 -0.0862 -0.0871
13974PP      PP24078   3.874   4.062  10.682 -0.0539  0.3221 -0.1016
13975PP      PP24079   6.203   1.982   2.234 -0.1902  0.4371 -0.0720
13976PP      PP24080  13.196   5.771   1.739 -0.0225  0.2032 -0.0472
13977PP      PP24081  14.674   8.419   0.242  0.2887  0.0093  0.5034
13978PP      PP24082   3.296  13.875  12.754 -0.0932  0.1276  0.0200
13979PP      PP24083  10.488   9.244   0.057  0.0950 -0.1587  0.3488
13980PP      PP24084  10.604   0.374   0.400  0.0768 -0.0168  0.0286
13981PP      PP24085   7.267   7.867  10.831 -0.0623 -0.1796  0.0314
13982PP      PP24086   7.515   2.851   0.644  0.0323  0.1761  0.0388
13983PP      PP24087   2.725   2.647  12.357  0.2453 -0.0856  0.0466
13984PP      PP24088   4.027  12.287   1.411 -0.1155 -0.0324  0.0529
13985PP      PP24089   3.123   8.338  11.753  0.4405 -0.0758 -0.1275
13986PP      PP24090   5.809  15.589  12.319 -0.0455  0.2152  0.0281
13987PP      PP24091   5.934  12.209   5.046 -0.0786  0.2011  0.0232
13988PP      PP24092  11.456   5.582   0.228  0.4537  0.1065 -0.0538
13989PP      PP24093  10.634   3.073  13.495  0.3502 -0.0156  0.0394
13990PP      PP24094   3.606   6.558  13.185 -0.0558  0.1299 -0.2429
13991PP      PP24095   2.497   5.373   2.507  0.1154 -0.3149  0.1013
13992PP      PP24096  10.127  11.363   9.488 -0.3120 -0.1492 -0.1713
13993PP      PP24097   3.523  14.155   9.783  0.0991  0.4530 -0.0506
13994PP      PP24098   0.610   3.495  12.584  0.2282 -0.1113  0.2198
13995PP      PP24099   0.415  13.072   1.796  0.1515 -0.1182  0.1316
13996PP      PP24100   7.971  10.378   1.491 -0.4564 -0.3711 -0.1239
13997PP      PP24101  10.933   8.591  12.138 -0.0202 -0.1653  0.2663
13998PP      PP24102  14.482  12.812  11.254  0.2346 -0.2428 -0.3025
13999PP      PP24103  12.345  10.492   0.258 -0.2414 -0.1493  0.1470
14000PP      PP24104   1.727   7.878   1.707 -0.1924  0.1158 -0.3354
14001PP      PP24105  11.649   8.040   2.832  0.0206  0.0773  0.1401
14002PP      PP24106   9.839   2.798  10.959 -0.1087 -0.0125  0.0987
14003PP      PP24107  13.315   1.088   0.297  0.3315  0.1739  0.0577
14004PP      PP24108   4.476   5.447  12.521 -0.2256 -0.0317 -0.0027
14005PP      PP24109  13.406   2.168   2.849  0.3774  0.1644  0.0556
14006PP      PP24110  11.088   4.879  13.666  0.3247  0.3069  0.1036
14007PP      PP24111  12.144   8.062   1.653  0.1733 -0.3362  0.0982
14008PP      PP24112   0.763  13.698   0.823 -0.2224  0.0767  0.2817
14009PP      PP24113   4.609   7.358  10.733  0.0861  0.2798  0.0132
14010PP      PP24114   8.455  11.910  11.275 -0.1136 -0.4345  0.1023
14011PP      PP24115   4.865  11.917  11.745  0.3212  0.2682  0.0260
14012PP      PP24116   6.051   6.710  10.086  0.2109  0.1716 -0.0211
14013PP      PP24117   5.072   2.484  11.663  0.3231  0.1747  0.0233
14014PP      PP24118   7.443  11.186  13.585 -0.3553  0.1943 -0.1671
14015PP      PP24119  13.516  12.817   0.490 -0.0380  0.3436 -0.2518
14016PP      PP24120   1.661   2.612   0.742  0.2497 -0.1235 -0.0163
14017PP      PP24121   3.060  10.519   3.920 -0.0120 -0.2016  0.2753
14018PP      PP24122  14.848  15.468   4.657  0.3797  0.0892 -0.1518
14019PP      PP24123   7.017  12.641   0.146  0.0866 -0.0011 -0.0736
14020PP      PP24124  13.623   0.255   0.508  0.0194 -0.1778  0.0580
14021PP      PP24125   7.758   8.404  11.310  0.1224 -0.0460 -0.0292
14022PP      PP24126  14.196  10.848  11.081 -0.1426  0.2565 -0.0551
14023PP      PP24127  12.818   8.766   0.371  0.1523 -0.2512 -0.0893
14024PP      PP24128  12.726  10.035   9.079 -0.3090  0.0044 -0.0023
14025PP      PP24129  14.756  15.118   0.787  0.0749 -0.1646  0.3306
14026PP      PP24130   9.468   5.562   2.452 -0.0941 -0.1068 -0.2215
14027PP      PP24131   0.528  11.680   9.491  0.1395 -0.1156 -0.1832
14028PP      PP24132  12.147   0.039   3.415  0.0474 -0.1384  0.2603
14029PP      PP24133   2.975   2.277   0.549 -0.1717 -0.1577 -0.3687
14030PP      PP24134   7.605   3.369   2.815  0.1915 -0.1400 -0.0485
14031PP      PP24135   5.059   3.475   9.236  0.0905  0.0387  0.0669
14032PP      PP24136   3.215   5.121   4.943  0.0169  0.1274  0.2526
14033PP      PP24137   5.633   4.178   1.403 -0.1303  0.0820 -0.0997
14034PP      PP24138  13.183   4.658  10.867 -0.1659  0.0518 -0.1357
14035PP      PP24139   6.874   5.200   3.131 -0.2057 -0.1981 -0.0825
14036PP      PP24140  15.599   4.524   0.217 -0.1486 -0.5182 -0.1731
14037PP      PP24141   7.697   1.755  12.402 -0.1414 -0.5217  0.1695
14038PP      PP24142  12.418  14.715  11.297 -0.2383 -0.1774 -0.1229
14039PP      PP24143   9.711  10.319   2.876  0.2856 -0.1391 -0.1639
14040PP      PP24144  10.061  14.387  13.459 -0.1525 -0.2113 -0.1378
14041PP      PP24145   1.893  11.713   4.669 -0.1311  0.0697  0.0317
14042PP      PP24146  14.312   9.136  12.982 -0.1940 -0.3715 -0.0436
14043PP      PP24147   4.719   0.085  12.982 -0.0985 -0.2217 -0.1743
14044PP      PP24148   4.542   7.047  11.149 -0.1252  0.2785  0.0630
14045PP      PP24149   0.538   6.010   2.126 -0.2085  0.0311  0.2018
14046PP      PP24150   3.870   1.701  11.546 -0.1175  0.1275 -0.1522
14047PP      PP24151   1.809  11.421   9.961 -0.0191 -0.1532  0.1265
14048PP      PP24152   0.409  12.506   0.879 -0.3180  0.2303 -0.1459
14049PP      PP24153   2.640  15.645  12.704  0.5109  0.0693 -0.1710
14050PP      PP24154   3.292   6.752   2.060  0.0436  0.4975 -0.0025
14051PP      PP24155   4.003   0.086  12.791 -0.3483 -0.2451  0.0601
14052PP      PP24156   4.745   4.839   2.309  0.6282  0.1831  0.0231
14053PP      PP24157   8.096   1.203   9.718  0.3160  0.0216 -0.1397
14054PP      PP24158   7.835  12.184  13.428  0.3337 -0.2198  0.1628
14055PP      PP24159   2.734   2.043  12.491  0.5468  0.0777  0.0158
14056PP      PP24160   9.461   6.028   9.151  0.2212  0.2519  0.0559
14057PP      PP24161   0.868   7.480  10.175  0.0293 -0.0366  0.1754
14058PP      PP24162   9.892   1.140  11.777 -0.1627  0.0106  0.0083
14059PP      PP24163  15.457  15.007   2.902  0.1449  0.1560  0.1354
14060PP      PP24164   8.816  10.470   0.426 -0.0244  0.1940  0.1070
14061PP      PP24165   1.274  13.493   1.080 -0.1264  0.1640 -0.1279
14062PP      PP24166  10.943  13.404  11.541 -0.1133 -0.0379  0.1411
14063PP      PP24167  15.588  14.659   1.435  0.1816  0.0870 -0.0678
14064PP      PP24168  14.650   7.373   0.906  0.0095  0.0565 -0.2066
14065PP      PP24169  12.742   1.137  13.235  0.1774 -0.2186 -0.0025
14066PP      PP24170  14.142  14.450   2.075  0.0903  0.0880 -0.0335
14067PP      PP24171   4.307  10.676   2.646  0.1736 -0.0422 -0.3618
14068PP      PP24172  10.864  10.055   0.251  0.1150 -0.2964 -0.0701
14069PP      PP24173   0.137   2.534   4.238 -0.0671  0.1289 -0.0935
14070PP      PP24174   1.691  15.145  10.477 -0.0379 -0.2527 -0.2841
14071PP      PP24175   4.712  12.728   4.799 -0.3078 -0.3976 -0.2882
14072PP      PP24176  14.011  14.008   0.647  0.2626 -0.2212  0.0787
14073PP      PP24177  14.247  11.518  13.511 -0.0163  0.3709 -0.1996
14074PP      PP24178  15.671  10.970   9.375  0.1303  0.0950 -0.1289
14075PP      PP24179   7.190   4.495   0.281  0.0293 -0.3493  0.1602
14076PP      PP24180  10.149   8.806   1.329  0.4518  0.0822 -0.4032
14077PP      PP24181  10.644   9.271   0.717  0.1649  0.3321  0.2489
14078PP      PP24182  11.504   0.467  12.632  0.1996  0.2785  0.0237
14079PP      PP24183  14.486   1.422  11.676  0.1460  0.1626  0.1779
14080PP      PP24184   4.158  10.985   5.855  0.0786 -0.2536  0.0283
14081PP      PP24185   8.378   7.408  11.035  0.3346  0.0488  0.2612
14082PP      PP24186  14.365   1.388  10.084  0.0254  0.1683  0.0075
14083PP      PP24187   2.542   5.093  12.212 -0.3172  0.1513 -0.1053
14084PP      PP24188   1.892   1.100   2.285  0.1239 -0.1847  0.1160
14085PP      PP24189  15.694   4.894  10.688 -0.2238  0.0079 -0.1141
14086PP      PP24190   0.615   7.752   9.710 -0.0181 -0.3313 -0.0522
14087PP      PP24191  12.653   9.380  10.427  0.1688 -0.2238 -0.0268
14088PP      PP24192  11.189  15.401   9.398  0.2119 -0.2158  0.1490
14089PP      PP24193   9.155   1.591   8.538  0.1241 -0.0525 -0.0694
14090PP      PP24194   1.826   2.435   4.271  0.3565  0.0666 -0.2836
14091PP      PP24195  11.934   4.019  11.133 -0.1632  0.0325  0.0829
14092PP      PP24196   6.375   4.382   2.349 -0.4414 -0.1427 -0.1664
14093PP      PP24197   9.077   6.953   3.924  0.0056 -0.3702 -0.0575
14094PP      PP24198  14.242   2.112   3.960 -0.1356 -0.2749  0.0322
14095PP      PP24199  12.319   4.659   9.916 -0.0146  0.2141  0.0031
14096PP      PP24200  15.262   5.723   0.556 -0.2567  0.0159 -0.1158
14097PP      PP24201   3.548   8.324   8.946  0.1213 -0.1783 -0.1916
14098PP      PP24202   2.521   4.575  12.968 -0.1074  0.0022 -0.0720
14099PP      PP24203   3.764  12.097   5.054  0.0872  0.0223  0.0101
14100PP      PP24204   8.527  11.928  12.141  0.1639  0.1527 -0.0720
14101PP      PP24205   5.645  14.118   2.246 -0.1716  0.0702 -0.2618
14102PP      PP24206  14.441   6.685   3.525  0.2595 -0.1920  0.0194
14103PP      PP24207   2.050  10.429   2.999 -0.2057 -0.2607 -0.0343
14104PP      PP24208   9.368  10.530   4.178  0.0202 -0.2276 -0.0111
14105PP      PP24209   2.585   0.604   0.572 -0.0948  0.1954  0.0118
14106PP      PP24210  13.998  11.058  13.619  0.1262  0.2107 -0.1969
14107PP      PP24211  10.300  11.213   0.097 -0.2100  0.1000  0.1886
14108PP      PP24212   7.158   2.959   0.273 -0.0757  0.0701  0.3139
14109PP      PP24213   3.804   3.196   1.206  0.0255  0.0228 -0.4336
14110PP      PP24214   9.057   6.780  10.726  0.3419 -0.1372  0.3410
14111PP      PP24215   3.411  13.523   3.556  0.0540 -0.0844  0.0434
14112PP      PP24216  13.407  13.464  10.141 -0.1949 -0.1392  0.2203
14113PP      PP24217   5.622   8.493   2.271  0.1318 -0.0843  0.1519
14114PP      PP24218  14.648   2.624  10.024 -0.2573  0.0151 -0.0291
14115PP      PP24219   4.253  11.137   5.389 -0.0117 -0.3622 -0.3086
14116PP      PP24220  14.403  11.409  10.308  0.1769  0.1293 -0.0619
14117PP      PP24221   0.881   3.933   9.280  0.0419 -0.0166  0.3139
14118PP      PP24222  10.339   9.536   0.549  0.2311  0.0511  0.0591
14119PP      PP24223   9.135  10.483  11.667  0.3431 -0.1711 -0.0868
14120PP      PP24224  14.449   2.323   9.733  0.2201 -0.0452  0.1980
14121PP      PP24225   5.071  15.199  11.086 -0.1812  0.2535 -0.0945
14122PP      PP24226   4.020   1.804   2.281 -0.1875  0.2678  0.1107
14123PP      PP24227   4.977   4.072  11.269 -0.0805 -0.1868  0.0804
14124PP      PP24228  14.156   7.251  12.579 -0.0249  0.0993 -0.2950
14125PP      PP24229  10.558   4.618   4.101  0.1382  0.1967 -0.1404
14126PP      PP24230   1.932  10.176  12.948  0.1101 -0.0915 -0.1575
14127PP      PP24231  10.388   8.946   9.222 -0.0081 -0.1383  0.1118
14128PP      PP24232   7.853   4.317  12.374  0.0020  0.0149  0.4239
14129PP      PP24233  12.906  15.445   0.965 -0.1059  0.1579 -0.1701
14130PP      PP24234   5.784   3.395   0.270 -0.1745 -0.0443 -0.2736
14131PP      PP24235  14.419  11.496   0.801  0.2410 -0.2813 -0.0019
14132PP      PP24236   0.752  15.356   0.463  0.0822  0.0161  0.2170
14133PP      PP24237   9.055   4.434   3.477 -0.0003  0.1223 -0.1071
14134PP      PP24238  12.952   9.622   2.883  0.0245  0.1065 -0.1301
14135PP      PP24239   4.288  11.856  10.826  0.1686 -0.2200  0.2276
14136PP      PP24240   6.465  13.268   1.577 -0.0518  0.2112  0.2600
14137PP      PP24241  11.020  15.367  11.164  0.2571  0.0322  0.0927
14138PP      PP24242   2.342  14.886   1.173 -0.3583  0.1363  0.2370
14139PP      PP24243  10.772  13.403  10.610 -0.3385 -0.0626 -0.2042
14140PP      PP24244   3.715  14.292   4.477 -0.0298 -0.0720  0.1037
14141PP      PP24245  10.909   8.899   3.564 -0.3963 -0.1027  0.0106
14142PP      PP24246   9.221   4.222   9.354 -0.1375  0.1486  0.1475
14143PP      PP24247  15.005   5.033  10.801 -0.1456  0.1312  0.0096
14144PP      PP24248   2.773   3.397  11.365  0.3489  0.1305 -0.0127
14145PP      PP24249   1.552  11.602  13.377  0.1803 -0.0188  0.0345
14146PP      PP24250   6.517   8.147  12.289  0.2128 -0.2600 -0.1714
14147PP      PP24251  14.116  11.472   2.883 -0.2315  0.1716  0.0083
14148PP      PP24252   0.429  13.735   9.028  0.1108  0.0403  0.2225
14149PP      PP24253  14.896   1.117   3.802 -0.0601 -0.0783 -0.1016
14150PP      PP24254  13.193   0.647   3.234  0.1433  0.1021  0.0123
14151PP      PP24255  12.144   0.544  12.967  0.2294 -0.0987 -0.1243
14152PP      PP24256   6.270  13.394  11.829 -0.0390  0.0951  0.0745
14153PP      PP24257   1.666   1.142   1.765 -0.3806  0.3302 -0.0286
14154PP      PP24258   3.044   4.842   3.401 -0.0888 -0.1553  0.1735
14155PP      PP24259   6.488  12.814   4.639 -0.1841 -0.2403  0.0654
14156PP      PP24260  11.278   3.096  12.383 -0.1326 -0.2889 -0.2577
14157PP      PP24261  12.005   1.643   3.228  0.3723 -0.0769  0.0075
14158PP      PP24262   3.289  14.799   3.530  0.1739  0.0686 -0.2497
14159PP      PP24263   4.537   9.122   0.646 -0.2213 -0.1359 -0.0631
14160PP      PP24264   1.559   5.080  11.187 -0.3479  0.0343  0.0892
14161PP      PP24265   2.601  13.154   2.026  0.4137  0.1790 -0.0875
14162PP      PP24266   7.286   3.784   9.852  0.3635 -0.0719  0.0082
14163PP      PP24267  10.385  11.405  11.322 -0.3374  0.1578 -0.0227
14164PP      PP24268   8.659   2.017   1.961  0.0523  0.1403  0.2018
14165PP      PP24269   8.619   5.436   3.354  0.1700  0.2632  0.1740
14166PP      PP24270   7.074  14.262   2.262 -0.3864  0.2910  0.0963
14167PP      PP24271   6.612   3.431   1.479 -0.0608  0.1521  0.3374
14168PP      PP24272   3.452   8.210  11.386  0.0613 -0.4611  0.0709
14169PP      PP24273   0.103   5.408  12.277  0.0956  0.2867  0.1483
14170PP      PP24274   0.295  11.919   9.921 -0.0495 -0.1282 -0.0463
14171PP      PP24275   9.919   4.674  13.451  0.1987 -0.0802  0.0069
14172PP      PP24276  14.554   2.136  13.387 -0.0716 -0.0163  0.2007
14173PP      PP24277   8.936   6.457  12.064  0.1639 -0.1828  0.3423
14174PP      PP24278  11.027   5.835  12.261  0.0875  0.0475  0.0106
14175PP      PP24279   7.688   1.883   2.580  0.1137  0.0090 -0.1595
14176PP      PP24280   8.732   1.486   0.174  0.0893 -0.0117 -0.2334
14177PP      PP24281  15.688  10.261   0.001 -0.2856 -0.2119  0.0166
14178PP      PP24282   8.690  11.704  10.859  0.0094 -0.3898  0.1340
14179PP      PP24283   7.646  14.536   0.017  0.0273  0.0518 -0.1034
14180PP      PP24284  14.976   6.567  11.575 -0.0208  0.0010  0.0195
14181PP      PP24285   1.301  13.492   2.544  0.2147  0.1495  0.2819
14182PP      PP24286  15.697   5.408   7.613 -0.0723  0.0452 -0.0282
14183PP      PP24287   6.750   7.331  13.760 -0.3117 -0.0867 -0.1465
14184PP      PP24288  12.031   5.083   0.856 -0.0367 -0.2527  0.2220
14185PP      PP24289   6.235   9.898   2.766 -0.2464 -0.3036  0.0139
14186PP      PP24290   8.803   8.048  10.440  0.2053 -0.0792  0.1620
14187PP      PP24291   7.387  12.940   3.238  0.3458  0.0904 -0.3715
14188PP      PP24292  10.772   1.280  10.718  0.0970 -0.2712 -0.4975
14189PP      PP24293   4.668   3.320  11.817  0.2141  0.0692 -0.0343
14190PP      PP24294   1.909  13.870  12.392 -0.2740 -0.1563 -0.0083
14191PP      PP24295   4.106   1.886  13.214 -0.2350 -0.1468  0.0869
14192PP      PP24296   9.084   6.915   9.831  0.1798  0.2913 -0.1874
14193PP      PP24297   9.085   9.401   2.353 -0.1460  0.0567  0.2296
14194PP      PP24298   0.002   9.331  10.458 -0.0838 -0.1601 -0.0536
14195PP      PP24299  14.169   0.331   0.554 -0.2649  0.0660 -0.2882
14196PP      PP24300   7.052   6.642  12.180  0.2797  0.3064 -0.0229
14197PP      PP24301   6.592  10.467  11.904 -0.3034  0.1621 -0.4056
14198PP      PP24302   5.995   7.152   9.928  0.0947  0.1720  0.1106
14199PP      PP24303   1.017   1.510   0.130  0.1010  0.1028 -0.2146
14200PP      PP24304   7.190   6.871   2.795 -0.2947 -0.0764  0.0059
14201PP      PP24305  10.784   5.895  11.648 -0.1963  0.0680  0.0921
14202PP      PP24306   6.323   5.801   2.183  0.0525 -0.0830 -0.1878
14203PP      PP24307  11.197  14.218  10.135  0.0957  0.0832 -0.1644
14204PP      PP24308   5.609   6.662   4.180  0.0013  0.0848 -0.1044
14205PP      PP24309   6.137  11.609   2.448 -0.1261  0.0082 -0.1003
14206PP      PP24310   9.932  13.713  11.129  0.5493  0.2093  0.0228
14207PP      PP24311   8.818  11.040   9.069 -0.1265  0.2841 -0.0220
14208PP      PP24312   5.987  13.979   2.955  0.1452 -0.1517 -0.1387
14209PP      PP24313   9.865   2.372   2.291 -0.1690 -0.1224  0.1520
14210PP      PP24314   2.432  13.387  10.258  0.0261  0.1980  0.0317
14211PP      PP24315   5.434   9.259   1.650 -0.0090 -0.0598 -0.0411
14212PP      PP24316   2.305   8.769   1.414 -0.0390  0.0149  0.0416
14213PP      PP24317  13.808   8.815   2.165  0.1181  0.1444  0.1387
14214PP      PP24318   7.911   5.744   3.544  0.2814 -0.1452 -0.0652
14215PP      PP24319   5.965  15.654   2.847  0.0645  0.0685 -0.2186
14216PP      PP24320   8.259   2.169   0.854 -0.1259  0.3170 -0.2361
14217PP      PP24321   7.722   3.078   9.066  0.2791  0.1666 -0.4360
14218PP      PP24322   9.130   9.713   3.628 -0.0416 -0.1660 -0.1328
14219PP      PP24323   2.939   6.905   0.543 -0.0863  0.3022 -0.0028
14220PP      PP24324  10.953   5.443   3.140  0.0850 -0.0983 -0.0724
14221PP      PP24325   2.821  11.592  11.074 -0.0536  0.1008  0.3102
14222PP      PP24326  10.359  13.247   2.400  0.1840 -0.0365  0.1822
14223PP      PP24327  11.417  14.703   0.860 -0.0651  0.3669  0.0157
14224PP      PP24328   5.001   5.593   4.043  0.3257  0.1603  0.0488
14225PP      PP24329  12.605   8.314   4.453  0.1017  0.1408  0.3843
14226PP      PP24330   0.510  14.333   0.341 -0.1585  0.2609  0.2229
14227PP      PP24331  14.526   9.536   1.790  0.0279 -0.0976 -0.0974
14228PP      PP24332   3.058   1.739   0.649  0.0325  0.2457 -0.1739
14229PP      PP24333   7.749  11.376  11.061  0.2605 -0.3556  0.1932
14230PP      PP24334   8.030   1.554  10.079  0.0408 -0.1587  0.0833
14231PP      PP24335   2.334  15.725  10.955  0.1066  0.0601  0.0396
14232PP      PP24336  11.699   3.068   1.227  0.1422  0.3679 -0.0990
14233PP      PP24337   4.846   3.325  12.811  0.0757 -0.1581  0.0407
14234PP      PP24338   1.208  14.943  11.136  0.0807 -0.1735  0.1412
14235PP      PP24339   8.486   3.738  11.418 -0.0596  0.0490  0.1644
14236PP      PP24340  10.196   1.754  12.988  0.0706 -0.0440  0.2040
14237PP      PP24341  12.297   6.593   9.038  0.0457 -0.3714 -0.1859
14238PP      PP24342   5.575  14.915  10.034 -0.0191 -0.0277 -0.2000
14239PP      PP24343   0.674   3.204  11.021  0.3741  0.1049 -0.1513
14240PP      PP24344  13.676   2.594   1.129 -0.1093 -0.0767  0.1879
14241PP      PP24345  11.854   0.535   3.358 -0.0823  0.0595 -0.1830
14242PP      PP24346  12.215  14.651  10.810 -0.3380 -0.1011 -0.0697
14243PP      PP24347   1.255   8.517   8.969 -0.2200 -0.1857  0.0829
14244PP      PP24348   6.897  11.006  13.478  0.1225  0.3252 -0.2314
14245PP      PP24349   9.574  14.262   1.283  0.1787 -0.1196  0.0308
14246PP      PP24350   8.250   8.707   0.779 -0.2536  0.1668  0.3274
14247PP      PP24351  10.211   7.683   0.703 -0.0484  0.3832 -0.1489
14248PP      PP24352  13.217   3.170  10.013  0.2049  0.1944 -0.2983
14249PP      PP24353  14.845   0.587   3.653 -0.1592 -0.0729  0.3866
14250PP      PP24354   2.991   1.128  13.665  0.0116 -0.1504  0.3037
14251PP      PP24355   9.574   0.212   3.664  0.1130  0.1002 -0.2942
14252PP      PP24356  15.535   9.374  11.553  0.3173  0.2267 -0.2106
14253PP      PP24357  12.907   5.758   4.043 -0.1870 -0.2921  0.2067
14254PP      PP24358  11.731   7.249  13.321 -0.2602  0.0784  0.0993
14255PP      PP24359  14.203  15.622   2.416 -0.0471 -0.1866  0.1257
14256PP      PP24360  10.088   8.624  12.571  0.0362 -0.3440 -0.5706
14257PP      PP24361  11.763  13.976   3.072  0.0337 -0.1305  0.0011
14258PP      PP24362  14.970  14.637   4.307  0.0773 -0.4134 -0.0969
14259PP      PP24363   8.429  14.484   3.503 -0.0528 -0.3218 -0.0398
14260PP      PP24364   4.245  10.659   0.807  0.1681 -0.1622  0.1916
14261PP      PP24365  10.894  12.455   3.657 -0.0673 -0.1985  0.0922
14262PP      PP24366   9.897  15.578   8.777 -0.2043 -0.0729 -0.1231
14263PP      PP24367   7.837   6.858   9.978  0.1068 -0.3115  0.3352
14264PP      PP24368  10.654  15.342   1.021  0.1043 -0.1129 -0.1000
14265PP      PP24369   7.938   6.207   3.744 -0.1803 -0.2642 -0.1029
14266PP      PP24370   0.876   1.896   2.852  0.3863  0.0328  0.0473
14267PP      PP24371   4.562   0.896  12.276  0.0178  0.3609  0.2018
14268PP      PP24372   5.376  12.049   4.992 -0.1982 -0.0080  0.1465
14269PP      PP24373   3.297  12.822   2.764  0.1431 -0.0006  0.0413
14270PP      PP24374   7.806  10.378  11.217  0.0728  0.0755 -0.1200
14271PP      PP24375  12.084   2.210   3.390 -0.0184 -0.2680  0.0055
14272PP      PP24376   5.303  11.867  13.102 -0.0234  0.0083  0.2210
14273PP      PP24377  10.571  14.157  13.303  0.1445  0.0437 -0.0023
14274PP      PP24378  10.710   3.160  10.615 -0.2643 -0.0333  0.0212
14275PP      PP24379  13.696  12.883   4.652  0.1141  0.4967 -0.0931
14276PP      PP24380  15.213   8.227  11.409 -0.0871  0.1026  0.0911
14277PP      PP24381   6.102   9.512   9.922  0.5225  0.0532 -0.1143
14278PP      PP24382  13.835   2.251  11.284  0.4163 -0.0396  0.3839
14279PP      PP24383   0.479  10.470   3.488  0.0404 -0.0742 -0.0924
14280PP      PP24384  12.595   2.278   3.278 -0.1388 -0.0908 -0.0882
14281PP      PP24385  13.715  13.372  13.155  0.2432  0.1066  0.2894
14282PP      PP24386  12.787  13.797   4.236 -0.0631 -0.3261 -0.2131
14283PP      PP24387  15.479   7.924  10.290 -0.0131  0.3999  0.0138
14284PP      PP24388   2.064   1.462  10.270 -0.0548 -0.0818  0.1673
14285PP      PP24389   5.112   1.591  10.467 -0.0411  0.1321 -0.2155
14286PP      PP24390  10.963  14.991   2.696 -0.1208 -0.0650 -0.2297
14287PP      PP24391   3.544  14.289  12.569  0.0963 -0.3676 -0.0317
14288PP      PP24392   4.150   0.037  12.168 -0.0849 -0.0507  0.0715
14289PP      PP24393   8.657   8.728  12.371  0.0527  0.1528 -0.0040
14290PP      PP24394   9.380   9.859   2.534 -0.0584  0.2269  0.1496
14291PP      PP24395  12.571   5.182   0.783 -0.2063  0.0536 -0.0692
14292PP      PP24396  15.313   1.603  12.941 -0.0674 -0.1327 -0.2385
14293PP      PP24397   1.119   0.341  10.439 -0.1067  0.0586  0.0631
14294PP      PP24398   3.151   9.970  13.612  0.2448  0.0502 -0.0571
14295PP      PP24399   3.572   3.344   2.940 -0.0501  0.1963  0.0797
14296PP      PP24400   4.062   5.348  13.650  0.0544 -0.3196  0.3049
14297PP      PP24401   8.298  13.424   4.253  0.0916 -0.2380  0.1124
14298PP      PP24402   5.792  13.134  13.581  0.2235 -0.0603 -0.0204
14299PP      PP24403   6.100  10.072   9.799 -0.0841 -0.2623 -0.1761
14300PP      PP24404   6.302   3.329   2.301  0.2232 -0.0835  0.1136
14301PP      PP24405   2.723   6.266  10.335  0.0818  0.0502  0.4363
14302PP      PP24406   9.531  13.630  13.357  0.0235 -0.3790  0.1898
14303PP      PP24407   5.528   3.940  11.917  0.0679  0.0865  0.1961
14304PP      PP24408   1.460   5.578  10.083 -0.2144  0.0904  0.0807
14305PP      PP24409   2.003   6.483  12.013  0.0168  0.2288 -0.2136
14306PP      PP24410  14.702   9.828  11.854 -0.2423  0.3218 -0.0304
14307PP      PP24411  12.460   2.343  12.920  0.1879  0.0504 -0.0128
14308PP      PP24412   3.108  15.315  11.515 -0.4375 -0.2033 -0.1084
14309PP      PP24413   8.283  10.083   2.347  0.1194 -0.0964 -0.3057
14310PP      PP24414  14.221  11.484   0.342 -0.1270  0.1363 -0.2352
14311PP      PP24415  10.054   0.785   1.925 -0.0780  0.0591  0.2039
14312PP      PP24416  15.592  14.186  10.215 -0.0314 -0.2316  0.2087
14313PP      PP24417   9.472   9.198   9.839  0.0411  0.0538 -0.0306
14314PP      PP24418  13.656   2.137   1.372 -0.0288  0.3354 -0.0886
14315PP      PP24419   6.523   3.944   9.416  0.0109 -0.0779 -0.0237
14316PP      PP24420   2.262  14.148   3.132 -0.0313 -0.2114 -0.0083
14317PP      PP24421   4.870   8.112  10.359  0.1480  0.1030  0.1055
14318PP      PP24422   2.674   3.995  11.322 -0.0360  0.0644 -0.1425
14319PP      PP24423   5.044  14.827   0.897  0.1322 -0.0674 -0.1862
14320PP      PP24424   7.030   6.878  13.761 -0.2617 -0.0251 -0.0936
14321PP      PP24425  11.116   0.566  10.465 -0.0978  0.3091 -0.1258
14322PP      PP24426   0.529   9.002  13.762 -0.1925 -0.1660 -0.0537
14323PP      PP24427   8.784  10.575   9.363  0.2244  0.1322 -0.0585
14324PP      PP24428   6.410   0.118   3.477  0.0826 -0.3187  0.1824
14325PP      PP24429   9.038   9.030  11.305  0.0577 -0.1218  0.0856
14326PP      PP24430  13.668   5.927   2.500 -0.1994  0.0993  0.0445
14327PP      PP24431   1.431   8.539   2.691  0.3517 -0.5071  0.2324
14328PP      PP24432  14.924   8.402  13.115  0.2247 -0.1340  0.3556
14329PP      PP24433  13.628   0.326  11.131 -0.3104 -0.1096 -0.2570
14330PP      PP24434   2.524   4.780   3.512  0.0274 -0.0245  0.3812
14331PP      PP24435   7.903  12.564   2.651 -0.0320 -0.0523  0.0514
14332PP      PP24436   9.894   2.816   8.721 -0.0723 -0.1729 -0.0309
14333PP      PP24437   3.577   8.340   4.020 -0.3385  0.3295 -0.2065
14334PP      PP24438   8.666   4.119  10.052  0.3812  0.0979 -0.0716
14335PP      PP24439   8.163  14.010   3.678  0.3170 -0.1869 -0.0798
14336PP      PP24440   4.731   8.718   0.346 -0.0681  0.0966 -0.1490
14337PP      PP24441   8.027   2.966   0.847 -0.3812 -0.0048 -0.0524
14338PP      PP24442   1.506   6.925  10.795 -0.0573  0.3538 -0.2327
14339PP      PP24443   7.690   1.121  10.059 -0.0489  0.2580  0.0331
14340PP      PP24444  10.642  11.909  12.753  0.2269  0.0084  0.1960
14341PP      PP24445   4.008  13.001   0.301  0.2177 -0.1631 -0.2313
14342PP      PP24446  11.629   0.014   9.550 -0.0901  0.0256 -0.1019
14343PP      PP24447   7.321   8.744   0.319  0.0957 -0.0179  0.1984
14344PP      PP24448  11.393  15.183  12.248 -0.0446 -0.0539  0.0647
14345PP      PP24449   6.888  14.546   2.717 -0.0540  0.0716 -0.2183
14346PP      PP24450  13.071   0.979  11.865  0.0065 -0.1018 -0.0136
14347PP      PP24451   8.951   1.679   1.744 -0.1136 -0.1633 -0.1589
14348PP      PP24452   2.039  10.371  10.869  0.1204  0.1352  0.0962
14349PP      PP24453  11.159   7.486  12.847  0.0756  0.1860 -0.0395
14350PP      PP24454   6.898   7.463  12.605 -0.0840  0.3743 -0.0473
14351PP      PP24455  13.149   3.651  13.241 -0.0657 -0.4520 -0.0221
14352PP      PP24456   5.849  13.622   0.848 -0.0206 -0.1005  0.3137
14353PP      PP24457   2.120   0.133  11.939 -0.0280 -0.0359  0.0656
14354PP      PP24458   3.962   8.163  13.175 -0.0526 -0.0062 -0.0081
14355PP      PP24459   5.878   6.369   0.905  0.3017 -0.3268  0.0321
14356PP      PP24460   7.172   6.748  12.765 -0.0595  0.0388  0.0534
14357PP      PP24461  14.085   2.509  12.834 -0.1512  0.2266  0.1396
14358PP      PP24462   7.514   4.829  10.089  0.1291 -0.1718  0.0480
14359PP      PP24463  15.206   8.931   3.715  0.2116  0.3388 -0.0415
14360PP      PP24464   6.185   2.502  12.301  0.3613 -0.1235  0.1971
14361PP      PP24465   9.771   4.163   4.029 -0.0273  0.1118  0.2163
14362PP      PP24466  11.781  11.005  10.128  0.0839  0.2943  0.0057
14363PP      PP24467  10.321  10.293   2.323  0.1942 -0.2072 -0.1743
14364PP      PP24468  11.798   9.388  11.535 -0.0632  0.0232  0.0024
14365PP      PP24469  14.729  10.137   9.744  0.2781  0.0594 -0.2200
14366PP      PP24470   2.288   1.912   1.551  0.0710  0.1161 -0.0081
14367PP      PP24471  14.832   1.066   9.890  0.0355 -0.1161  0.1898
14368PP      PP24472   8.120  14.540   3.090  0.0058  0.0736 -0.0147
14369PP      PP24473  15.036   0.379   2.033  0.3203 -0.1577  0.1894
14370PP      PP24474   0.837   7.786   3.752 -0.0634  0.1764 -0.0253
14371PP      PP24475  12.264   4.719   3.205 -0.3576 -0.2817  0.1081
14372PP      PP24476  14.326  13.922   4.537  0.2130  0.1552 -0.0166
14373PP      PP24477   1.484   4.350   8.957 -0.1864 -0.3600  0.1399
14374PP      PP24478   1.182   6.120  12.154  0.3361  0.2394 -0.2544
14375PP      PP24479   2.212  11.162   3.691  0.3408  0.0135  0.3291
14376PP      PP24480   4.246  11.264  10.185 -0.0779 -0.0915  0.1622
14377PP      PP24481   5.285  13.516  11.396  0.0847  0.1063 -0.0775
14378PP      PP24482   2.859  13.075   2.485 -0.2428  0.1828  0.0769
14379PP      PP24483   3.245   6.654   2.986 -0.3699 -0.3331  0.0293
14380PP      PP24484  12.819  13.334   4.265 -0.1041  0.0793 -0.0509
14381PP      PP24485  10.150   7.956   9.724 -0.1499 -0.1042  0.0995
14382PP      PP24486   7.463   6.281  12.024 -0.3416  0.0644  0.0286
14383PP      PP24487  15.151  14.997  13.648 -0.0057  0.0985 -0.0669
14384PP      PP24488   8.707  11.518   8.845  0.3230 -0.2525 -0.1073
14385PP      PP24489  13.482   5.069  13.455 -0.0746  0.1860 -0.0407
14386PP      PP24490   5.236  14.672  12.608  0.0013 -0.2608 -0.0446
14387PP      PP24491  13.491   6.418   2.611  0.0458  0.2941 -0.0034
14388PP      PP24492   3.777   6.760   1.397 -0.1075  0.1414 -0.1524
14389PP      PP24493   0.840  13.496  10.437 -0.2111  0.2532 -0.1808
14390PP      PP24494  13.325   0.163   0.847  0.3697  0.2369  0.1958
14391PP      PP24495   6.449   0.090  12.930 -0.2114 -0.0199  0.0604
14392PP      PP24496   4.077   2.865  13.730  0.0059  0.0083 -0.2120
14393PP      PP24497   4.463  12.517  13.680 -0.1080 -0.1548  0.1902
14394PP      PP24498   6.025  10.229   1.897  0.1109 -0.1510 -0.0215
14395PP      PP24499   0.350   6.014   3.569  0.0672  0.3275  0.0982
14396PP      PP24500   6.494   5.778  10.960  0.2596 -0.1981 -0.2766
14397PP      PP24501   8.716   5.870   3.217  0.2767  0.0971  0.0950
14398PP      PP24502   4.365  13.850  11.737  0.0155  0.2210  0.1132
14399PP      PP24503   1.555   7.788   7.776 -0.1150 -0.2835  0.2604
14400PP      PP24504   6.434   0.682   0.427 -0.2548 -0.0126  0.1604
14401PP      PP24505  14.557   8.035  13.049 -0.0708  0.0722 -0.0922
14402PP      PP24506  14.951  11.390  11.158 -0.0197 -0.1174  0.0711
14403PP      PP24507   8.520  10.068  10.457 -0.5359 -0.0939 -0.1283
14404PP      PP24508   1.844   5.386   1.027  0.1647  0.1520  0.0488
14405PP      PP24509  15.234  15.412  12.656  0.2122  0.2744  0.1287
14406PP      PP24510   4.590  11.209  10.557 -0.1810  0.0778  0.0925
14407PP      PP24511  12.456  12.806  12.013  0.0708  0.0038 -0.2260
14408PP      PP24512  10.998  13.423   3.594 -0.0510 -0.4214 -0.0114
14409PP      PP24513   3.821  14.196   2.185 -0.0400  0.1948 -0.0981
14410PP      PP24514   2.281   5.683   0.415  0.3464 -0.0489 -0.0487
14411PP      PP24515   9.272  11.818  10.209 -0.1261  0.1488 -0.0358
14412PP      PP24516   1.789  14.953   9.663 -0.0133  0.0618  0.1436
14413PP      PP24517  15.316   2.201  10.457  0.3215 -0.2366 -0.1138
14414PP      PP24518  14.964   1.306  13.180 -0.1239  0.1444  0.0653
14415PP      PP24519   6.200  12.844   2.371 -0.3105  0.0178  0.4900
14416PP      PP24520   1.511   1.690   1.668 -0.2153  0.3162  0.3445
14417PP      PP24521   1.102   9.744   0.239  0.1413 -0.0352  0.3934
14418PP      PP24522   9.376   0.345  11.610  0.1765  0.2213 -0.1827
14419PP      PP24523  11.607   5.206   1.198  0.0317 -0.0749  0.4004
14420PP      PP24524  12.462   3.355  13.463  0.3113  0.1548  0.1465
14421PP      PP24525   7.296  15.033   9.935  0.1240 -0.2285 -0.1015
14422PP      PP24526   0.674   0.347  11.533  0.3644 -0.0263  0.1381
14423PP      PP24527   9.529   7.469  13.695 -0.1795  0.1870  0.0444
14424PP      PP24528   3.920  12.044   1.856  0.1896  0.2250 -0.1201
14425PP      PP24529  14.351  13.337   1.192  0.0218  0.0326 -0.1351
14426PP      PP24530   1.923  12.032  10.544  0.1845  0.0980 -0.1930
14427PP      PP24531   8.010   1.816  11.704 -0.2799 -0.1913 -0.3116
14428PP      PP24532   1.244   5.592  12.342 -0.2611 -0.0451  0.0861
14429PP      PP24533   2.239  11.948   5.065 -0.2030 -0.2850  0.0376
14430PP      PP24534   0.169   6.078   8.932 -0.0367  0.1836 -0.1068
14431PP      PP24535   2.772  13.023  13.527  0.1370  0.0813  0.2581
14432PP      PP24536  15.716   5.785  11.131 -0.0363 -0.0662  0.1784
14433PP      PP24537  11.107  12.301  12.846  0.0234 -0.1521 -0.0932
14434PP      PP24538  10.518   0.804   1.002 -0.0545 -0.2377  0.0370
14435PP      PP24539   2.921   9.637   0.178  0.1310 -0.2366  0.1453
14436PP      PP24540  10.670   9.710  10.958 -0.3269 -0.0051 -0.0913
14437PP      PP24541  12.141   5.226   2.992 -0.0727  0.0520 -0.0614
14438PP      PP24542   4.145  11.594   1.432  0.0849  0.0500  0.3225
14439PP      PP24543  14.133  15.544  10.176  0.1738 -0.1353 -0.0512
14440PP      PP24544   8.391  11.675   1.300  0.1697 -0.1556 -0.2275
14441PP      PP24545  14.673   1.450   4.154 -0.3593 -0.3443  0.1592
14442PP      PP24546  10.379   8.887  13.377  0.3063 -0.3852 -0.0111
14443PP      PP24547   9.937   3.438  10.538 -0.0073  0.0411  0.0378
14444PP      PP24548   1.919  12.570  12.319  0.1153 -0.0403  0.0846
14445PP      PP24549   1.801  14.227   9.387  0.0216  0.2333  0.0556
14446PP      PP24550   2.140   1.779   9.511 -0.0035 -0.0162 -0.3734
14447PP      PP24551   0.741   6.357   2.771  0.0394 -0.0918  0.1304
14448PP      PP24552   3.713   6.589   0.124  0.1525  0.3888  0.2044
14449PP      PP24553  12.816  14.196  13.299 -0.3164  0.1466  0.1067
14450PP      PP24554   7.931  11.938   4.005  0.1135 -0.1084  0.2275
14451PP      PP24555  12.533   7.379   9.796 -0.3565 -0.1580  0.2954
14452PP      PP24556  13.086   4.378   0.455 -0.0385 -0.1692  0.3626
14453PP      PP24557   4.657   6.421   1.349  0.0859  0.0919  0.0500
14454PP      PP24558   8.829  10.318   2.275  0.1046 -0.3672 -0.2358
14455PP      PP24559   9.112   5.190   4.212  0.2376  0.0370 -0.1909
14456PP      PP24560  13.554   6.283  13.101 -0.1994 -0.0358  0.0856
14457PP      PP24561   0.204   2.129   2.633  0.0917 -0.1179 -0.1814
14458PP      PP24562   4.553   1.084   1.738 -0.1806 -0.1067  0.1003
14459PP      PP24563   0.073   4.619  13.306  0.1319 -0.3593 -0.1543
14460PP      PP24564   9.259   8.706  10.970 -0.0401 -0.0671  0.2189
14461PP      PP24565   4.091  12.506   4.259  0.1501 -0.3911  0.3119
14462PP      PP24566  13.354   6.128   9.956 -0.0680  0.4346 -0.0213
14463PP      PP24567  14.321   1.760   0.441 -0.0495  0.2025 -0.1403
14464PP      PP24568  10.651  14.389  12.424  0.0981 -0.0943 -0.2905
14465PP      PP24569   0.196   8.046  12.636 -0.3369 -0.0625 -0.1910
14466PP      PP24570   6.683   4.966   4.091  0.0910 -0.1375  0.0509
14467PP      PP24571   6.195   2.156   2.733  0.1469 -0.0485 -0.0112
14468PP      PP24572  13.153   2.158  13.520 -0.0304 -0.0350  0.1092
14469PP      PP24573   5.292   0.590  11.812 -0.1431  0.0011  0.1513
14470PP      PP24574   4.967  13.371   4.953  0.1308 -0.0312  0.0324
14471PP      PP24575   4.294  13.064  11.961  0.2374  0.1990  0.1173
14472PP      PP24576  13.860  14.258  13.612 -0.0656  0.1247  0.2363
14473PP      PP24577   6.734   3.441   8.553 -0.2336 -0.0956  0.0689
14474PP      PP24578   2.666   5.408   0.680 -0.1847  0.0008  0.1725
14475PP      PP24579   9.786   8.308   2.100  0.0670 -0.4895  0.0743
14476PP      PP24580   2.028   3.348   4.216 -0.0806  0.0390 -0.0519
14477PP      PP24581  11.881   8.056   9.554 -0.2182 -0.1053  0.0559
14478PP      PP24582   2.540   3.442   4.444  0.3038 -0.2671 -0.2036
14479PP      PP24583   2.623   0.799   1.618 -0.0102  0.0310  0.0126
14480PP      PP24584   3.746   6.377   8.898  0.1180  0.2998 -0.3222
14481PP      PP24585  10.523   3.515   1.409 -0.2277  0.1595  0.1612
14482PP      PP24586   1.833   3.708   2.558 -0.0676  0.1146 -0.1191
14483PP      PP24587   2.872   0.319   1.661 -0.2469  0.3770 -0.0591
14484PP      PP24588   2.933  11.038  11.002  0.2593 -0.4014 -0.3100
14485PP      PP24589  12.748  14.053   3.310 -0.5309 -0.0484  0.1385
14486PP      PP24590   3.229   2.540   1.452  0.1674 -0.4578  0.0385
14487PP      PP24591  10.274  15.641  10.015  0.3830  0.2755  0.2152
14488PP      PP24592   2.854   1.263  10.806  0.3543  0.2380 -0.0308
14489PP      PP24593   4.602   2.808  12.086 -0.1189 -0.2597  0.1174
14490PP      PP24594   4.050   9.988  12.312  0.0128 -0.0831 -0.0002
14491PP      PP24595  15.328   7.660  13.733 -0.1482  0.0247 -0.0044
14492PP      PP24596   2.669   2.925  10.962  0.0559 -0.1775  0.2802
14493PP      PP24597   8.597   5.035   9.226 -0.2267  0.3906 -0.3574
14494PP      PP24598   1.894  14.193   9.889 -0.2344 -0.1488  0.0119
14495PP      PP24599  12.003   6.483  13.335  0.1478 -0.2983  0.2746
14496PP      PP24600  10.688   7.217   1.618 -0.0704  0.0292 -0.3749
14497PP      PP24601  11.820   3.087  11.127 -0.0465 -0.0705  0.0167
14498PP      PP24602   3.930  15.340  12.705 -0.3601 -0.1479  0.1735
14499PP      PP24603   0.377  13.329  13.011 -0.0815  0.0654 -0.0597
14500PP      PP24604   8.257  15.576   9.119 -0.2633 -0.0640 -0.0948
14501PP      PP24605   5.176  15.024  13.470  0.0443 -0.0710  0.3574
14502PP      PP24606   6.090  14.329  12.989 -0.0136  0.0876 -0.0737
14503PP      PP24607  11.566   6.146  13.086  0.0411 -0.2681  0.1895
14504PP      PP24608  13.116   9.146  11.226  0.0641 -0.0655  0.2059
14505PP      PP24609  13.762  13.122  10.062  0.0147  0.1465 -0.3300
14506PP      PP24610   6.278  15.288  10.705  0.1308  0.1916  0.0731
14507PP      PP24611   3.331   8.581   4.442  0.2977 -0.0225 -0.1707
14508PP      PP24612   0.903  13.371   1.714  0.3289 -0.1317 -0.3561
14509PP      PP24613   7.538   2.847   2.253  0.1087  0.1895 -0.0846
14510PP      PP24614   8.901   3.194  11.100 -0.1724 -0.0522  0.1457
14511PP      PP24615   8.873   7.248   9.568  0.0649 -0.0620  0.0180
14512PP      PP24616   6.207   6.117  12.298 -0.1039  0.2025 -0.3696
14513PP      PP24617   8.345   4.603  11.491  0.0400 -0.1176  0.4953
14514PP      PP24618  14.200   1.663  12.094 -0.0304 -0.0694  0.2692
14515PP      PP24619   1.716   5.797   1.273 -0.1014  0.0722 -0.3779
14516PP      PP24620   3.019   1.235   9.511  0.1690 -0.0307 -0.2359
14517PP      PP24621  15.709  11.669   3.353  0.0176 -0.3415 -0.1522
14518PP      PP24622  14.689   4.533   1.175  0.2812 -0.2328  0.0685
14519PP      PP24623   8.777   3.928  10.930 -0.0573 -0.2323  0.0754
14520PP      PP24624   6.787   2.576  13.195  0.5425  0.0322 -0.1839
14521PP      PP24625   5.904  14.725   2.499  0.0553  0.0098  0.1105
14522PP      PP24626  10.044   9.293   2.291  0.0214  0.0326 -0.3478
14523PP      PP24627   5.703   0.209   3.204 -0.3964  0.0771 -0.3611
14524PP      PP24628   0.907  10.422  12.816 -0.1224  0.0607  0.2426
14525PP      PP24629   1.590   0.774   4.222 -0.2646  0.0266  0.2932
14526PP      PP24630   1.233  11.346  10.160 -0.2252 -0.2972 -0.0595
14527PP      PP24631   9.429   0.253   1.397  0.2631  0.0960  0.0233
14528PP      PP24632   3.528   0.748   2.399 -0.1349  0.0833 -0.1771
14529PP      PP24633   2.886  13.542   1.798 -0.0719  0.0673 -0.1488
14530PP      PP24634   5.219  13.860   4.811  0.1144 -0.3109 -0.6193
14531PP      PP24635   5.064   2.951   8.011  0.4135  0.0867  0.2322
14532PP      PP24636  13.781   9.239   2.713  0.0199  0.0478  0.2381
14533PP      PP24637  13.618  14.339  10.596 -0.1443  0.2428  0.0383
14534PP      PP24638  10.903   8.732   2.595 -0.1985 -0.0434 -0.0984
14535PP      PP24639   9.993   3.372   3.599 -0.0302  0.0354 -0.2887
14536PP      PP24640   3.956   2.536   0.830  0.1508 -0.3562  0.0908
14537PP      PP24641  10.863  13.608   0.640  0.1789  0.1055  0.0858
14538PP      PP24642   4.920   9.385   0.761  0.3529 -0.0172  0.2278
14539PP      PP24643  12.859   8.356  11.594 -0.0028 -0.0752  0.1203
14540PP      PP24644   9.234  12.022   3.182 -0.1837 -0.0817 -0.0658
14541PP      PP24645   4.817   7.859   0.803 -0.2505  0.0535 -0.0925
14542PP      PP24646   8.477  11.096   2.264 -0.3308  0.3724  0.0104
14543PP      PP24647   7.114  12.518   3.468  0.1146 -0.1391  0.1610
14544PP      PP24648  11.308   8.993   9.876  0.1551 -0.0537  0.0849
14545PP      PP24649  13.134   9.281   4.317 -0.1772  0.1097  0.1044
14546PP      PP24650  11.348  13.999   2.721 -0.3946 -0.0576 -0.1918
14547PP      PP24651   4.288  11.119   4.266 -0.1071  0.0817  0.0311
14548PP      PP24652   3.960   0.804  10.930  0.2039 -0.0461 -0.2575
14549PP      PP24653   4.985  13.472   4.012  0.0210 -0.0841  0.3595
14550PP      PP24654   2.063  10.699   2.534  0.2456  0.2426  0.1126
14551PP      PP24655   7.791   7.959   1.474 -0.0095 -0.1261 -0.0162
14552PP      PP24656   6.026  12.767  10.636 -0.1819 -0.3568  0.2146
14553PP      PP24657   5.803  11.010  11.398 -0.3160  0.3233  0.1707
14554PP      PP24658   1.433   8.658   4.196  0.1526 -0.0958 -0.0533
14555PP      PP24659   1.160   3.191   4.381 -0.1051  0.0095  0.0020
14556PP      PP24660   5.134  13.769  12.437 -0.0415 -0.3649  0.1441
14557PP      PP24661   9.413   1.895  11.800 -0.0188  0.3413  0.0294
14558PP      PP24662   0.324  12.059  12.280 -0.1475 -0.0091  0.1791
14559PP      PP24663   5.617   5.319  10.795  0.5126  0.2752  0.0138
14560PP      PP24664   2.475   6.624  11.928 -0.1289  0.0391 -0.0657
14561PP      PP24665  15.498   8.694  12.943 -0.0175 -0.2128  0.2359
14562PP      PP24666   5.539   6.297   3.752  0.2164  0.1539  0.1276
14563PP      PP24667  15.132   1.656   0.174 -0.0196 -0.0022 -0.3055
14564PP      PP24668  10.289  15.491  12.072 -0.1930  0.1321  0.1940
14565PP      PP24669   2.403  12.257   4.139  0.0670  0.1536  0.0383
14566PP      PP24670  13.445   6.496  10.725 -0.1799  0.2110  0.0740
14567PP      PP24671   5.635   5.804   3.663 -0.0612 -0.0866 -0.2681
14568PP      PP24672   3.818   9.768   4.841 -0.2365  0.1512  0.2378
14569PP      PP24673   6.223   1.119  11.337  0.1876  0.3021 -0.2544
14570PP      PP24674   1.227   9.695   9.651 -0.1703  0.0966  0.2457
14571PP      PP24675  11.089   5.303   1.940  0.2976 -0.1741 -0.2163
14572PP      PP24676   1.490   4.682   3.401 -0.0199 -0.1644 -0.2071
14573PP      PP24677  15.209  11.570  13.444 -0.1601 -0.0048  0.3817
14574PP      PP24678  12.623   9.377  11.309  0.0288  0.0281  0.0970
14575PP      PP24679   4.683  14.239  11.690 -0.0312  0.0060  0.0487
14576PP      PP24680   1.334   9.808   1.628  0.2863  0.1448 -0.0428
14577PP      PP24681   2.569  14.533   4.146  0.1021  0.1113  0.0798
14578PP      PP24682   3.472   5.109   4.386 -0.1275  0.1063 -0.0037
14579PP      PP24683  15.394  14.107  13.694 -0.2399  0.0024  0.1522
14580PP      PP24684   9.499   6.547   8.997 -0.2584  0.0191 -0.3007
14581PP      PP24685  10.642   4.139  12.425  0.1766 -0.2035 -0.2399
14582PP      PP24686   8.297   4.160  12.765  0.1713 -0.1299  0.0355
14583PP      PP24687  12.164   1.742  12.371 -0.0425 -0.0212  0.0977
14584PP      PP24688   1.097   4.421   2.344 -0.0166 -0.1237 -0.0884
14585PP      PP24689   9.969   2.939   3.144  0.1556  0.1308  0.1874
14586PP      PP24690   8.677   3.761   3.338 -0.0863 -0.1700 -0.1269
14587PP      PP24691   5.176   3.558  10.521 -0.2292 -0.0069  0.0973
14588PP      PP24692  11.382   4.156   9.868 -0.5514 -0.3065  0.0167
14589PP      PP24693   7.312   6.496   4.354  0.0261  0.2382  0.2717
14590PP      PP24694   4.307  12.943   4.219  0.1306 -0.1100  0.1513
14591PP      PP24695   3.615  11.398  10.778  0.0941 -0.1390  0.0761
14592PP      PP24696  10.479   5.933  12.321 -0.2700 -0.2659 -0.0339
14593PP      PP24697  12.834  14.127   1.488  0.1801 -0.5111 -0.0445
14594PP      PP24698  10.219   1.092   3.203 -0.0560 -0.0601 -0.3048
14595PP      PP24699   7.071   4.538   0.813 -0.3739  0.1306  0.0646
14596PP      PP24700   4.854   5.771  10.830  0.0266 -0.0079 -0.1322
14597PP      PP24701   3.896   2.233   3.754 -0.0392 -0.0701 -0.1982
14598PP      PP24702   2.867   9.149   0.373  0.1020  0.1270 -0.0439
14599PP      PP24703  12.395   0.163   9.077 -0.1209 -0.2819 -0.1548
14600PP      PP24704  14.330   8.238   4.376  0.0240 -0.0120 -0.3453
14601PP      PP24705  13.906  14.853   9.051  0.4805 -0.2992  0.2708
14602PP      PP24706  13.846   8.649   3.832  0.4272  0.2667 -0.4956
14603PP      PP24707  11.107   0.858  13.626 -0.2219 -0.0850  0.1960
14604PP      PP24708   6.967  14.601   1.421 -0.0304 -0.1338 -0.1792
14605PP      PP24709  11.805   7.823   2.253  0.0154  0.0579  0.1222
14606PP      PP24710   8.431   3.450  10.904 -0.1226  0.0134  0.0680
14607PP      PP24711  10.004  15.586   9.623  0.6135 -0.1662 -0.3443
14608PP      PP24712  15.423   4.534  12.357 -0.1355  0.1300 -0.3241
14609PP      PP24713   1.299  11.615   4.314  0.6466  0.1803  0.1028
14610PP      PP24714   2.853  15.507   9.393  0.4478  0.0769  0.5020
14611PP      PP24715   6.222   2.311   0.611  0.1151  0.3299 -0.0146
14612PP      PP24716   7.118   2.412  10.502  0.3428  0.0161 -0.1405
14613PP      PP24717   7.844  13.876   3.325 -0.1053  0.0476 -0.0009
14614PP      PP24718  10.729   2.960   1.417  0.2415  0.3393  0.1572
14615PP      PP24719   2.312   7.019  12.175  0.3952  0.1199  0.1405
14616PP      PP24720   1.326  12.879   1.001  0.2197  0.2208 -0.0505
14617PP      PP24721   4.521   8.161   0.454 -0.2100 -0.0642  0.5207
14618PP      PP24722   9.278  10.064   1.289  0.0589 -0.0156 -0.1509
14619PP      PP24723   8.215  12.999   4.994 -0.3701 -0.0850 -0.1489
14620PP      PP24724   2.388  14.060   0.590  0.0677  0.0686  0.1544
14621PP      PP24725   6.858  15.556   9.023  0.1215 -0.1711 -0.0541
14622PP      PP24726   2.857   8.671  12.856 -0.2459 -0.0905  0.0478
14623PP      PP24727  14.220   2.718   2.317  0.1886 -0.2088  0.2785
14624PP      PP24728   7.581   5.823  11.839 -0.0894  0.0542 -0.0989
14625PP      PP24729   9.614  11.700   2.512 -0.1101  0.0269 -0.1769
14626PP      PP24730   0.953   1.007   9.465 -0.1764 -0.0077  0.1535
14627PP      PP24731   6.887  10.797   2.203  0.2792  0.0269  0.1586
14628PP      PP24732   0.111   4.124  13.229 -0.1364 -0.2260 -0.1951
14629PP      PP24733   7.611  13.258   3.691 -0.3129  0.1191 -0.1088
14630PP      PP24734   6.663   1.968   3.542  0.0446 -0.0716 -0.1087
14631PP      PP24735   6.464  14.382   1.790  0.1288  0.0269 -0.2613
14632PP      PP24736  11.579  11.526   4.325 -0.0905  0.1198  0.0161
14633PP      PP24737   4.488  10.212  12.519 -0.2242 -0.2206  0.0901
14634PP      PP24738   8.646   9.056   1.551  0.0116  0.1664 -0.3490
14635PP      PP24739   5.511  14.375  10.218  0.1039  0.0205  0.0596
14636PP      PP24740   8.221  12.793  10.245 -0.0411 -0.1141  0.0499
14637PP      PP24741   2.171   6.539   3.652 -0.1574 -0.3117 -0.0148
14638PP      PP24742  12.035   3.194  13.231 -0.1531  0.1993 -0.1736
14639PP      PP24743   5.007   7.305  13.239 -0.0205  0.2407 -0.1373
14640PP      PP24744   0.127  13.408   0.377  0.0888 -0.0847 -0.0775
14641PP      PP24745  14.383  12.868   0.310 -0.2562  0.0362 -0.1312
14642PP      PP24746   1.667  10.457   0.240  0.0593 -0.1708  0.0489
14643PP      PP24747  11.767   6.560   8.879  0.1773  0.2584  0.1825
14644PP      PP24748  10.102  13.386  11.538  0.0074  0.1974 -0.1659
14645PP      PP24749  14.230  14.886   5.253  0.1145  0.0548  0.1548
14646PP      PP24750   1.234   5.340  13.701  0.3027  0.0053  0.3840
14647PP      PP24751  14.328   7.722  13.377  0.0003  0.1008  0.0248
14648PP      PP24752  12.523  14.235  11.162 -0.1020  0.0503  0.0527
14649PP      PP24753  14.914   1.297   0.938  0.0417 -0.0505 -0.1803
14650PP      PP24754   7.866   2.908   9.840 -0.2049  0.2182  0.1041
14651PP      PP24755   2.941  12.884   9.334  0.0085  0.3220  0.1644
14652PP      PP24756   9.645   2.140   9.200  0.3507 -0.1660  0.1846
14653PP      PP24757   3.316   4.975   1.546 -0.3615 -0.0950 -0.0379
14654PP      PP24758   0.271   9.619   1.762  0.0955 -0.0725 -0.3039
14655PP      PP24759   7.299  13.056  10.407  0.1258  0.0262 -0.0118
14656PP      PP24760   4.624   1.516   3.021 -0.0973 -0.2027  0.0177
14657PP      PP24761   0.039   4.085   2.798 -0.0195 -0.0418  0.2512
14658PP      PP24762   9.504   2.625  10.580  0.1420  0.3007  0.1426
14659PP      PP24763  15.579   1.927   0.037 -0.0499 -0.1158  0.2040
14660PP      PP24764   9.260   1.595   3.538 -0.0749  0.1150  0.1181
14661PP      PP24765   7.063   0.720   0.042  0.1634 -0.0998  0.1010
14662PP      PP24766  14.692  11.386  12.283 -0.3991 -0.0885  0.1848
14663PP      PP24767   8.747  11.918   2.302  0.0498 -0.2047 -0.1441
14664PP      PP24768  10.965   0.866   1.923 -0.0653  0.2323 -0.0991
14665PP      PP24769  15.512  12.261   2.357  0.0751 -0.1036  0.1063
14666PP      PP24770  15.305  12.146  11.901 -0.1160 -0.3446 -0.0446
14667PP      PP24771   5.595  14.098   1.788 -0.0869  0.1379 -0.0961
14668PP      PP24772  14.158   4.446  12.047  0.2363  0.1965 -0.2462
14669PP      PP24773  12.205   0.847   0.851 -0.2469 -0.0027  0.0963
14670PP      PP24774   6.458  11.691  12.779  0.1981 -0.2131 -0.0163
14671PP      PP24775   0.140   1.740   3.388  0.4759 -0.3072 -0.1523
14672PP      PP24776  15.652   9.983   1.612  0.3176  0.5422 -0.0453
14673PP      PP24777  14.627  10.121   2.425 -0.2159 -0.0482 -0.0438
14674PP      PP24778  11.566   0.348  10.465  0.1043 -0.0758 -0.1576
14675PP      PP24779  12.443   2.221   1.434 -0.0393 -0.0521 -0.3065
14676PP      PP24780   3.940  13.794  13.073  0.2574  0.0535 -0.2269
14677PP      PP24781   5.275   9.256  12.468 -0.1263 -0.0936  0.0417
14678PP      PP24782  11.652   6.365  10.444  0.0313  0.1384  0.3422
14679PP      PP24783  10.833   9.300  11.490  0.2318 -0.0872 -0.1552
14680PP      PP24784   7.385   5.672   3.633 -0.1335 -0.1080  0.1283
14681PP      PP24785   7.046  13.991  10.013 -0.3840 -0.2291 -0.1182
14682PP      PP24786  12.415   4.995   0.236 -0.0707 -0.0244  0.4237
14683PP      PP24787  15.712   2.260  11.656 -0.1576  0.2075  0.2544
14684PP      PP24788  11.094  10.272   2.505  0.2011 -0.2367 -0.1441
14685PP      PP24789   2.186  11.408   2.855 -0.0387  0.2082  0.0216
14686PP      PP24790   9.440  14.485  11.262  0.2745  0.0879  0.0332
14687PP      PP24791   7.571   5.527   8.074 -0.1620 -0.0388 -0.2089
14688PP      PP24792  15.577   4.583   2.785  0.1965  0.0430  0.0124
14689PP      PP24793  12.495   8.149   3.438 -0.0822  0.2814  0.1433
14690PP      PP24794  10.508   1.392   8.741  0.2252  0.1556  0.1586
14691PP      PP24795   1.019   6.786   3.560  0.0469 -0.0149  0.1698
14692PP      PP24796  15.602   0.760   2.014 -0.1394 -0.1495 -0.2054
14693PP      PP24797  14.748  13.988   0.806  0.2500  0.3566  0.0477
14694PP      PP24798  13.188  11.403  13.718  0.1605  0.0665  0.0386
14695PP      PP24799   8.733   2.587   3.376  0.1787 -0.2323  0.0077
14696PP      PP24800  10.780  15.495  13.487  0.1155 -0.0512 -0.0669
14697PP      PP24801  12.521   4.863   8.827 -0.1936 -0.0291 -0.5910
14698PP      PP24802   3.288   3.504   3.570 -0.3951  0.0823  0.1616
14699PP      PP24803   8.528  15.293   0.882  0.4204 -0.2225  0.3022
14700PP      PP24804  10.666  13.775   3.432 -0.1400  0.0509  0.2570
14701PP      PP24805  10.146   3.449   1.844 -0.0943  0.3083 -0.1893
14702PP      PP24806   3.422   4.296  10.727 -0.0984 -0.0759  0.3198
14703PP      PP24807   6.249  11.802  13.269  0.1261  0.2136 -0.0899
14704PP      PP24808   9.173  11.220   1.553  0.0963  0.3375  0.2859
14705PP      PP24809   8.756  15.551   8.879  0.0857 -0.1308 -0.1390
14706PP      PP24810   3.720  13.166   1.908 -0.3154  0.2146 -0.4048
14707PP      PP24811   7.871  15.282   0.211 -0.2229  0.2966 -0.1151
14708PP      PP24812  11.867   7.401   0.896 -0.1368 -0.0676  0.0630
14709PP      PP24813   1.608   4.335   4.431  0.2059  0.4082  0.0272
14710PP      PP24814  11.713   9.449  10.591 -0.0624 -0.0870  0.1032
14711PP      PP24815  12.085  14.176  12.164 -0.1313  0.1459  0.0981
14712PP      PP24816   7.758   1.335  11.472  0.0271 -0.0550  0.0626
14713PP      PP24817   3.156   7.106  10.113 -0.0795  0.5060  0.3120
14714PP      PP24818  14.958  12.200  10.541 -0.0547 -0.1494 -0.0091
14715PP      PP24819  12.910   4.817   1.096 -0.0336  0.0574  0.2770
14716PP      PP24820   9.429  10.873   2.142  0.2106 -0.1349 -0.0336
14717PP      PP24821  11.064   4.372  12.735 -0.2186  0.2274  0.1318
14718PP      PP24822  10.889  12.481   2.512 -0.3524  0.1217 -0.1239
14719PP      PP24823   2.282  14.328   4.890 -0.0231 -0.3374  0.2257
14720PP      PP24824   5.742  15.453   3.767  0.3779 -0.1320  0.2454
14721PP      PP24825   0.728  14.589  12.359 -0.0986  0.1833 -0.0444
14722PP      PP24826   5.111   7.172  10.849  0.2682  0.0787  0.1541
14723PP      PP24827  11.796  14.905   0.589 -0.0040 -0.2598 -0.1415
14724PP      PP24828   7.254   5.185   3.896  0.0587  0.1913  0.1412
14725PP      PP24829   6.530   3.829  12.453  0.1919  0.0660  0.2270
14726PP      PP24830  11.035   4.090  10.240  0.0875 -0.0750 -0.0611
14727PP      PP24831  14.765  12.404  13.499 -0.1382  0.2445 -0.1814
14728PP      PP24832  14.676   8.596   4.508 -0.1104  0.2775 -0.0351
14729PP      PP24833   2.151  10.690   1.991 -0.0750  0.0294  0.1193
14730PP      PP24834  14.405   6.611  13.211 -0.0644  0.0236 -0.5346
14731PP      PP24835   3.468   1.184   4.536 -0.1345 -0.0418 -0.2640
14732PP      PP24836   6.319   6.934   2.031 -0.0321 -0.0284 -0.2103
14733PP      PP24837   8.240   4.967  10.711 -0.0512  0.0448 -0.1151
14734PP      PP24838  11.052  11.580   3.846 -0.4762  0.2340  0.2765
14735PP      PP24839   7.491  14.408   1.074 -0.1015 -0.0515  0.0361
14736PP      PP24840   4.090   2.610   8.818  0.0625 -0.2237 -0.0476
14737PP      PP24841   5.947  15.612  11.807 -0.0677  0.2679 -0.3539
14738PP      PP24842   4.043  11.933   3.206 -0.1917  0.0375 -0.1775
14739PP      PP24843  13.288   9.566  13.180 -0.1095 -0.1372 -0.1408
14740PP      PP24844   2.103   7.693   2.327  0.1709  0.1008  0.0816
14741PP      PP24845   9.053  14.085   9.667  0.1608 -0.1493 -0.1513
14742PP      PP24846  10.915   9.402   3.380  0.3088 -0.1169 -0.3254
14743PP      PP24847  15.050  14.017  13.379  0.2961 -0.0169 -0.1938
14744PP      PP24848  15.037  12.791  10.969  0.4366 -0.0243  0.0996
14745PP      PP24849   5.689  13.599   1.965  0.1864 -0.2384 -0.0510
14746PP      PP24850   7.301   2.416   0.483  0.2202 -0.0912  0.1228
14747PP      PP24851   4.536  13.018   3.607 -0.3298  0.0701 -0.0138
14748PP      PP24852  13.771   2.598   0.586  0.0062  0.1205 -0.0384
14749PP      PP24853   4.162  15.661   1.043  0.0151 -0.0413  0.1776
14750PP      PP24854   3.230   1.276  11.318  0.1763  0.1976  0.1692
14751PP      PP24855   2.740   5.851  13.111  0.1023 -0.0980 -0.4567
14752PP      PP24856   5.330   9.542   2.858  0.2418  0.1980 -0.0840
14753PP      PP24857   3.684   0.926   4.060 -0.1518  0.0373 -0.1069
14754PP      PP24858  12.041   0.079   9.819  0.1674  0.0887 -0.2380
14755PP      PP24859   3.939   4.948  11.458 -0.1138  0.0235  0.2507
14756PP      PP24860   1.141   7.357   8.594 -0.0388 -0.1564 -0.0631
14757PP      PP24861  11.665  12.746  10.983  0.1216  0.0481  0.4590
14758PP      PP24862  11.720   6.419   9.484 -0.0203 -0.0155  0.0596
14759PP      PP24863  11.124   0.462  11.023  0.0970  0.0414  0.1980
14760PP      PP24864   2.535  14.912   0.684  0.3805 -0.1812  0.1517
14761PP      PP24865   3.653   3.290   2.444 -0.1048  0.3926  0.3537
14762PP      PP24866   6.946  13.179   4.315 -0.1005  0.0006  0.2208
14763PP      PP24867   6.270  10.293   4.820 -0.1485  0.0055 -0.0938
14764PP      PP24868  13.725   1.365   2.371  0.0437  0.0547  0.1838
14765PP      PP24869  14.613  12.945  10.272  0.0269 -0.0371  0.0394
14766PP      PP24870   6.877  11.189   0.361  0.1402 -0.0440  0.1157
14767PP      PP24871   6.610   1.121   0.685  0.0898 -0.2871 -0.1048
14768PP      PP24872   6.699   7.419   2.281 -0.0662 -0.1440 -0.0338
14769PP      PP24873   3.283   6.417   9.032  0.3531  0.2043  0.0751
14770PP      PP24874  12.151   3.072   0.446 -0.0589  0.1349 -0.1245
14771PP      PP24875   8.920   6.391  10.493  0.1799 -0.2075  0.0111
14772PP      PP24876   3.316   0.685   4.435  0.0618  0.0464  0.0449
14773PP      PP24877   1.651   0.394   4.800  0.1417 -0.1968 -0.1756
14774PP      PP24878   2.922  13.262  10.315  0.2557  0.2875 -0.1719
14775PP      PP24879   4.122   5.360   8.468  0.0167  0.0642 -0.1096
14776PP      PP24880   6.781  13.128  11.747 -0.2471  0.0468 -0.1987
14777PP      PP24881   3.680   8.959   1.343 -0.3352  0.0241 -0.1155
14778PP      PP24882  11.434   4.433   4.197 -0.1390 -0.0815  0.0719
14779PP      PP24883   4.824  11.072   5.270 -0.0236  0.0179  0.2148
14780PP      PP24884  14.497   6.281   9.824 -0.0565  0.0789  0.0910
14781PP      PP24885   2.846  15.058  13.434 -0.1800 -0.1875  0.1236
14782PP      PP24886   5.471   8.369   4.768 -0.2753  0.1481 -0.0260
14783PP      PP24887   4.142  11.453  11.841  0.0221  0.0522  0.0918
14784PP      PP24888  11.156  11.922  11.761 -0.2222  0.0440  0.1758
14785PP      PP24889   6.843   8.758   2.010 -0.0415  0.0040 -0.3178
14786PP      PP24890  15.603   2.871  12.705  0.0843  0.1525  0.0055
14787PP      PP24891  10.367   2.214   2.839  0.1735 -0.1684 -0.2886
14788PP      PP24892   9.109   7.536   3.872 -0.2297  0.2114 -0.0618
14789PP      PP24893   0.860   6.055   1.030 -0.1104 -0.1623  0.1761
14790PP      PP24894   9.659   2.865   2.764 -0.2230 -0.1331  0.1288
14791PP      PP24895  14.183   6.219  11.710  0.0185 -0.2903 -0.0319
14792PP      PP24896   7.774  11.810  13.164  0.1278  0.2398  0.2586
14793PP      PP24897   9.972   6.378  11.149 -0.1499 -0.4172 -0.1479
14794PP      PP24898   8.610   5.501   0.675  0.3526 -0.1298  0.1770
14795PP      PP24899  10.642  14.025   0.745 -0.3731  0.0431  0.0155
14796PP      PP24900  12.128  11.903   3.246 -0.1249 -0.1128 -0.1284
14797PP      PP24901  10.870   0.913   4.307 -0.0791 -0.4643  0.1723
14798PP      PP24902   2.291   0.942   4.363 -0.2518  0.0495  0.2028
14799PP      PP24903   5.834   5.516  10.255  0.1022 -0.2671 -0.1610
14800PP      PP24904  12.334   7.009   2.584 -0.1809  0.0008  0.0794
14801PP      PP24905   0.522  14.234   9.214 -0.0692 -0.0975 -0.2312
14802PP      PP24906   9.440   3.498  12.272 -0.1717 -0.0062 -0.1834
14803PP      PP24907  10.806  13.051   9.259  0.1399 -0.3712 -0.2758
14804PP      PP24908   0.106   2.372  13.663  0.1811  0.0825  0.1315
14805PP      PP24909   4.975   5.821   2.303  0.1157  0.0403 -0.1788
14806PP      PP24910   4.004  14.299   0.089  0.1083  0.0335 -0.1263
14807PP      PP24911   2.136   8.752   9.495  0.3341 -0.0219 -0.0033
14808PP      PP24912  12.820   6.429  10.166  0.0690 -0.1810 -0.0775
14809PP      PP24913   2.672   0.491   9.829 -0.0659 -0.1705 -0.2398
14810PP      PP24914  14.703   5.175   1.959  0.0677  0.2052  0.0049
14811PP      PP24915   5.080   1.401   0.079  0.0692 -0.1514  0.1893
14812PP      PP24916   1.290  11.813  11.377 -0.0256  0.1254  0.0242
14813PP      PP24917  13.899  13.497   3.582 -0.2965 -0.0593  0.2838
14814PP      PP24918   2.086  10.213   2.223 -0.1679 -0.1046 -0.0962
14815PP      PP24919   7.048   9.593  12.857  0.1970  0.1226  0.1982
14816PP      PP24920   9.686  10.559   0.408 -0.1793  0.0159  0.5218
14817PP      PP24921   1.893   5.020  11.596  0.0100 -0.0086 -0.1537
14818PP      PP24922   6.283   2.310   9.001  0.1740  0.3135  0.0984
14819PP      PP24923  10.290   0.457  11.093  0.1393  0.0908  0.6466
14820PP      PP24924  11.375   2.049   1.176 -0.0606  0.1971 -0.2226
14821PP      PP24925   9.649   4.992   4.065 -0.1345 -0.2501  0.1137
14822PP      PP24926  11.075   6.458   9.511 -0.1613  0.1670  0.3866
14823PP      PP24927  10.195  10.184   2.788 -0.0845 -0.2080 -0.0701
14824PP      PP24928   4.866  13.861  11.428 -0.1596 -0.2179  0.1789
14825PP      PP24929   9.375   4.935   4.656 -0.2348 -0.2651  0.1953
14826PP      PP24930  10.146   7.170   9.481 -0.0683 -0.1198 -0.1190
14827PP      PP24931  15.692  14.156   4.970  0.2930 -0.0594 -0.1043
14828PP      PP24932  11.804   8.822  11.173  0.3477 -0.1729  0.4030
14829PP      PP24933  14.553   6.916  12.775 -0.0704 -0.1366  0.0367
14830PP      PP24934  10.524  14.168   3.799  0.5926 -0.3544  0.2023
14831PP      PP24935  14.915   2.434   3.303 -0.2116  0.0541  0.0072
14832PP      PP24936   9.606  15.147  13.668  0.2468  0.1336  0.1975
14833PP      PP24937   1.463  15.415  11.359 -0.1088  0.4229  0.0442
14834PP      PP24938  10.551   1.793  10.780  0.1110 -0.0292 -0.0019
14835PP      PP24939   2.501   3.919   0.517  0.2582 -0.0399 -0.0340
14836PP      PP24940  10.135   9.119   1.713  0.0144 -0.2603  0.0154
14837PP      PP24941   3.957  12.344  10.761  0.3057 -0.0082 -0.2088
14838PP      PP24942   0.826  14.420   2.853  0.2705 -0.4854 -0.1602
14839PP      PP24943  15.449   3.674   3.329 -0.0245 -0.2854  0.2378
14840PP      PP24944   8.424   0.225   1.525  0.4758 -0.2448 -0.0063
14841PP      PP24945  13.620   8.899  10.653  0.0655 -0.1902 -0.0299
14842PP      PP24946   9.673   4.614   0.135  0.1775  0.0195  0.1945
14843PP      PP24947   7.466  10.742  10.550  0.1451 -0.1521 -0.1785
14844PP      PP24948   5.428   6.904  11.129 -0.0847 -0.0654  0.1426
14845PP      PP24949  14.726   1.957   0.175 -0.3616 -0.0442 -0.1334
14846PP      PP24950   7.388  11.869   0.174 -0.1151  0.3895  0.2781
14847PP      PP24951   8.441   1.526   2.036  0.1432 -0.2811 -0.3623
14848PP      PP24952   4.628  13.173   4.577 -0.1594 -0.3855 -0.2519
14849PP      PP24953   4.146   9.921   0.321 -0.1815 -0.1896 -0.0866
14850PP      PP24954   5.589   2.998   3.427 -0.0336  0.0792 -0.0002
14851PP      PP24955  14.955   6.348  10.891 -0.2470  0.0545  0.0286
14852PP      PP24956   6.131   1.017  12.702  0.0999  0.1848 -0.2821
14853PP      PP24957  10.544   9.933  13.281  0.0229  0.3665  0.3525
14854PP      PP24958  13.972   1.937   8.815  0.0374 -0.2463 -0.1242
14855PP      PP24959   5.551   5.206  12.284  0.0227  0.1339 -0.3363
14856PP      PP24960  14.926   6.197   0.283  0.3071  0.1364  0.2294
14857PP      PP24961  11.991  15.154  10.731 -0.0734  0.0286 -0.1418
14858PP      PP24962   0.510  14.670   0.744  0.2672 -0.2052  0.1709
14859PP      PP24963   4.991  10.321   4.306  0.0570 -0.0287 -0.0895
14860PP      PP24964   0.283   8.527  11.626 -0.0738 -0.0037 -0.2039
14861PP      PP24965   7.216   2.725   1.450 -0.0638  0.0393  0.1273
14862PP      PP24966   9.486  11.065   1.164 -0.1376  0.1165  0.0918
14863PP      PP24967   3.612   1.588   9.606 -0.3828 -0.3594  0.0935
14864PP      PP24968  11.877  15.705   0.851 -0.0757 -0.2124 -0.0726
14865PP      PP24969   1.609   5.594   9.081 -0.1162  0.0400 -0.0263
14866PP      PP24970   7.454   2.835   2.753 -0.1565  0.0301 -0.0852
14867PP      PP24971  11.819  10.103   1.934 -0.2868 -0.0071  0.0798
14868PP      PP24972   3.241  14.207   4.854  0.0171  0.0929 -0.0907
14869PP      PP24973   6.794   4.839   8.931 -0.0255  0.0456  0.0512
14870PP      PP24974   9.284   7.057   3.345  0.0209 -0.1573  0.0265
14871PP      PP24975   2.119  13.987  13.682  0.0246 -0.3259 -0.2567
14872PP      PP24976   1.160   9.797  11.119  0.0740 -0.1393 -0.1662
14873PP      PP24977   4.944  15.215   9.545 -0.0150  0.2261  0.2554
14874PP      PP24978   0.486  15.148   5.180  0.2902 -0.0726  0.3801
14875PP      PP24979  15.349  14.010   4.535 -0.0473  0.3012  0.1319
14876PP      PP24980  10.726  15.207   2.342  0.2258  0.1318 -0.0231
14877PP      PP24981  15.665  12.343   2.807 -0.0884 -0.0216 -0.0547
14878PP      PP24982   8.683  15.013  13.312  0.1158  0.0935 -0.1891
14879PP      PP24983   0.268   7.210   0.222  0.0871  0.2434  0.0604
14880PP      PP24984   9.649  12.819   2.947 -0.3650 -0.1423  0.2427
14881PP      PP24985   7.274  12.075  10.849  0.0754 -0.2783 -0.0333
14882PP      PP24986   7.592   3.687   2.054  0.3517  0.0557 -0.2322
14883PP      PP24987   2.011   0.245   0.032  0.0811  0.1984 -0.1778
14884PP      PP24988   4.045   6.056  10.426  0.0794 -0.1611  0.4392
14885PP      PP24989  14.130   9.420   1.340 -0.2968 -0.3419  0.0755
14886PP      PP24990  11.322   7.936   9.322  0.0423 -0.1331 -0.2336
14887PP      PP24991   5.907   4.611   9.807 -0.3539 -0.0608 -0.1445
14888PP      PP24992  12.224   5.138  10.465 -0.1489 -0.3572  0.1012
14889PP      PP24993   7.163  10.985  12.934  0.0049  0.2033 -0.1191
14890PP      PP24994   2.584  13.460  12.659  0.0265  0.1421 -0.1644
14891PP      PP24995  15.465   9.425   2.508 -0.2050 -0.1831  0.0461
14892PP      PP24996  15.332   8.969   3.198 -0.1893  0.2200 -0.0943
14893PP      PP24997  12.055   9.844  11.622 -0.1975  0.0028  0.1283
14894PP      PP24998  13.321   3.955  13.573 -0.3290 -0.1493  0.0812
14895PP      PP24999  11.661  12.936  11.725  0.3982 -0.0460 -0.0112
14896PP      PP25000   3.576   9.609   0.037  0.3875  0.0765 -0.0754
14897PP      PP25001   9.805   3.062  13.233  0.0895 -0.0526  0.3088
14898PP      PP25002  15.170   6.083  11.714 -0.0079 -0.0999 -0.1910
14899PP      PP25003  14.846   1.277   1.450 -0.1145  0.3003 -0.1820
14900PP      PP25004   7.826   9.045   9.075 -0.3384 -0.2895  0.0698
14901PP      PP25005  13.457   7.659  13.012 -0.2203  0.2143 -0.0154
14902PP      PP25006   0.661   8.123   2.145  0.0605  0.0520 -0.1993
14903PP      PP25007   3.716  13.906   4.843 -0.0852  0.0911 -0.1848
14904PP      PP25008  12.321   4.303   1.205 -0.3184 -0.0008  0.0884
14905PP      PP25009   6.325  14.403   2.949  0.1280  0.0060  0.1067
14906PP      PP25010   4.082  15.388  10.290 -0.0398 -0.1440  0.1645
14907PP      PP25011   1.363   1.157   2.204  0.3855  0.1300 -0.0327
14908PP      PP25012   7.403   6.396  12.479  0.0496 -0.4320 -0.1381
14909PP      PP25013   1.783   7.224   3.910 -0.0710 -0.1432  0.1563
14910PP      PP25014   2.510   2.499   0.594 -0.0717  0.0193  0.1836
14911PP      PP25015   2.004   2.583  12.716  0.2608  0.0359  0.1008
14912PP      PP25016   7.737   3.333   0.929  0.3423 -0.2019  0.2208
14913PP      PP25017  14.669  11.396   9.896  0.1144  0.0485 -0.1955
14914PP      PP25018   6.604  14.785   1.116 -0.1776  0.0251 -0.0501
14915PP      PP25019  12.964   0.012  12.788  0.1052 -0.0469  0.2432
14916PP      PP25020  11.642   8.545  12.544 -0.1652  0.0658  0.0024
14917PP      PP25021   6.937  13.212   2.290  0.0725  0.0018 -0.4386
14918PP      PP25022   5.135   8.176  12.231 -0.2030  0.2704  0.0231
14919PP      PP25023  13.102   6.539  13.013 -0.0790  0.0798 -0.0966
14920PP      PP25024   3.030   6.842   4.266 -0.3000  0.0406 -0.1674
14921PP      PP25025   3.623   5.766   1.364  0.0879 -0.2693 -0.1426
14922PP      PP25026  11.003  14.807   4.170  0.3571  0.1471  0.1568
14923PP      PP25027  10.783  14.293   0.360 -0.1829 -0.3436  0.2337
14924PP      PP25028   8.586   6.516   1.210 -0.0979 -0.1186 -0.0582
14925PP      PP25029   4.942   2.972  12.442 -0.0849 -0.1616 -0.0264
14926PP      PP25030   3.229  13.469  11.569 -0.1754  0.0587 -0.1354
14927PP      PP25031   0.659   8.719  11.934  0.2499  0.2225 -0.2179
14928PP      PP25032  12.655   6.346   3.263 -0.0508 -0.1107  0.1291
14929PP      PP25033   3.270  14.645   0.450  0.0925  0.2726  0.0124
14930PP      PP25034  15.589   9.314  13.411  0.0829  0.0418  0.4302
14931PP      PP25035   9.211   8.268   0.290  0.0145 -0.4259 -0.2020
14932PP      PP25036   0.270   0.752  11.528 -0.0334 -0.2123  0.1360
14933PP      PP25037   5.070  13.456   1.241 -0.0194  0.2902 -0.0297
14934PP      PP25038   9.046  10.980   9.546  0.0137  0.0089 -0.1044
14935PP      PP25039   6.190   2.568   2.184  0.0604 -0.1848 -0.1229
14936PP      PP25040   2.977   2.282   3.183  0.0100  0.1179  0.0040
14937PP      PP25041   7.693   2.219  11.965  0.2230  0.2397  0.0666
14938PP      PP25042   9.403   9.281  10.771 -0.2236  0.0148  0.0412
14939PP      PP25043  11.496   4.345   1.362  0.0703  0.1317  0.0854
14940PP      PP25044   7.470   5.323   9.548 -0.0556  0.1804 -0.1006
14941PP      PP25045  15.584   8.817   1.165 -0.0756  0.2050 -0.3675
14942PP      PP25046   0.234  15.221   3.107 -0.0758  0.3577  0.0252
14943PP      PP25047   2.416   9.065  10.947  0.0213  0.2271 -0.3158
14944PP      PP25048  11.048   9.400   1.792  0.1704 -0.3813  0.0962
14945PP      PP25049   7.740  14.822   0.973  0.1304  0.3406  0.0758
14946PP      PP25050  11.284   8.285   1.295  0.0237 -0.1328 -0.0210
14947PP      PP25051   2.941   1.632   4.626  0.0541  0.0168 -0.2495
14948PP      PP25052  13.740   6.757   2.235  0.0616 -0.0549 -0.0079
14949PP      PP25053  11.980   6.299   1.990 -0.0352  0.1256  0.1535
14950PP      PP25054   0.378  11.959  13.017 -0.3648  0.0334  0.1925
14951PP      PP25055   9.611   1.739  12.761  0.2773  0.0897  0.1359
14952PP      PP25056   8.327  10.527   9.096 -0.2394 -0.4240  0.0909
14953PP      PP25057   3.911   9.750  13.447 -0.1551  0.2478  0.0916
14954PP      PP25058  12.730   7.830  12.923 -0.1491 -0.3365 -0.1408
14955PP      PP25059  14.232   8.240  12.739 -0.3192  0.0185 -0.1685
14956PP      PP25060   4.739   8.741   0.991 -0.0041 -0.1695 -0.0629
14957PP      PP25061   7.776   0.520  11.813 -0.1049 -0.0987  0.2985
14958PP      PP25062   6.389   7.630  11.556 -0.6598 -0.0338  0.2177
14959PP      PP25063   5.807   5.584   3.144 -0.0914  0.1094 -0.0873
14960PP      PP25064  13.782   6.749  10.453 -0.1922 -0.3513  0.0268
14961PP      PP25065   4.661   6.296   3.716 -0.3341 -0.1137  0.2568
14962PP      PP25066   4.819   7.057   0.608  0.2460  0.1415  0.1381
14963PP      PP25067  13.513   4.912   8.619  0.1276 -0.4032 -0.0134
14964PP      PP25068  13.305  10.347  12.508 -0.0124 -0.0839 -0.0266
14965PP      PP25069  12.880  15.392   9.621  0.0402  0.0714  0.0201
14966PP      PP25070   0.565  15.573   4.371  0.0182  0.0878 -0.3664
14967PP      PP25071   3.877  15.702   0.592  0.1346 -0.0174  0.3347
14968PP      PP25072   5.260   6.686  12.116 -0.2362 -0.1330  0.1298
14969PP      PP25073  13.610   9.353  10.875 -0.0058  0.0394 -0.1068
14970PP      PP25074   5.925   1.437  13.342 -0.1697 -0.1104  0.0596
14971PP      PP25075   6.020   7.272   3.592 -0.2008 -0.2506 -0.1025
14972PP      PP25076  14.150   7.529  11.156  0.1214  0.4468  0.1137
14973PP      PP25077  14.827  12.419  11.364 -0.0373 -0.3340  0.1991
14974PP      PP25078   3.608   0.407  12.581  0.4467 -0.1578  0.0824
14975PP      PP25079  11.775   3.939   0.450 -0.3177 -0.0605  0.0850
14976PP      PP25080   3.595   7.391  12.078  0.2215 -0.0335  0.0407
14977PP      PP25081   1.633  13.513  10.923 -0.1041 -0.0859 -0.1009
14978PP      PP25082   3.653  14.176  13.109  0.2444  0.2027  0.0654
14979PP      PP25083  11.659  13.751   1.725  0.0617 -0.3118 -0.1030
14980PP      PP25084   1.483   4.708   4.039  0.2568  0.0605 -0.0032
14981PP      PP25085   7.642  12.909   0.028 -0.0719 -0.0198 -0.0536
14982PP      PP25086  15.392   7.089  10.802  0.1007  0.1626  0.0955
14983PP      PP25087  15.188   3.442   0.420  0.2770  0.3318  0.2136
14984PP      PP25088   4.642   3.380  12.337 -0.2596 -0.2433 -0.2547
14985PP      PP25089  13.190   9.226   9.989  0.0780 -0.1324 -0.2076
14986PP      PP25090   2.881  14.513  11.267 -0.1170  0.0921  0.4269
14987PP      PP25091   7.060  11.391  12.308 -0.1179  0.0168  0.0618
14988PP      PP25092  10.958   9.909   1.675 -0.0631 -0.3832 -0.0085
14989PP      PP25093   1.297   2.569  12.172 -0.3521  0.2507 -0.1373
14990PP      PP25094   0.908   1.282  10.413  0.0254  0.1320 -0.0894
14991PP      PP25095  14.957   2.312  13.655 -0.0200 -0.4200 -0.1380
14992PP      PP25096   3.936   1.339  12.011  0.0118 -0.1592  0.0908
14993PP      PP25097  10.825   8.311  12.701  0.1974 -0.1025  0.0056
14994PP      PP25098   1.377   1.174   4.461  0.3002  0.1965 -0.0828
14995PP      PP25099   5.864  12.645   3.337  0.0731  0.2044  0.0863
14996PP      PP25100   1.294  11.463   2.649  0.3899 -0.0627 -0.1390
14997PP      PP25101  12.766   2.781   3.569 -0.0720  0.1454  0.2063
14998PP      PP25102   1.341  14.870   3.565 -0.0876  0.2586  0.0765
14999PP      PP25103   1.171   6.666  11.215 -0.0884  0.1525 -0.0921
15000PP      PP25104   7.877  10.719   1.904  0.1479 -0.0626 -0.1477
15001PP      PP25105   4.982   8.977  12.112 -0.1496 -0.1690 -0.0552
15002PP      PP25106   0.030   0.511  13.750 -0.0456 -0.0213  0.1157
15003PP      PP25107  13.164   4.327   1.116  0.0735 -0.0048  0.0502
15004PP      PP25108  12.670   2.954   3.038 -0.1300 -0.0149  0.0601
15005PP      PP25109  15.272  10.082  11.997 -0.0373  0.0519  0.0010
15006PP      PP25110   1.200   7.852   0.834 -0.2569  0.1904 -0.1872
15007PP      PP25111   6.628   6.574  10.971  0.3113 -0.1865 -0.2263
15008PP      PP25112   8.991   2.751   3.749  0.0242 -0.0170 -0.2815
15009PP      PP25113   9.957   6.931  10.184  0.2349 -0.1312 -0.0027
15010PP      PP25114   5.127   3.876   3.583  0.0999  0.2036  0.0782
15011PP      PP25115   8.229  12.443  11.267  0.0265  0.1082 -0.1783
15012PP      PP25116   0.867  11.679   3.926  0.0887 -0.0318  0.0763
15013PP      PP25117  11.157   5.674   9.331 -0.2114  0.0220  0.1170
15014PP      PP25118   3.202   0.790   3.064 -0.5208  0.6021 -0.0801
15015PP      PP25119   7.978   2.245   8.681  0.2726 -0.1055 -0.0500
15016PP      PP25120   7.595   1.187   1.945  0.3349 -0.0149  0.1818
15017PP      PP25121   0.011  11.123   3.650 -0.2307  0.1133  0.0979
15018PP      PP25122   2.608   8.494  10.917 -0.0522  0.1193  0.0986
15019PP      PP25123  12.809   9.980   9.672  0.0791  0.1201  0.0362
15020PP      PP25124   7.965   6.071   9.333  0.1366 -0.1420  0.1242
15021PP      PP25125  11.765  14.299  11.640 -0.0328  0.0434  0.0574
15022PP      PP25126  10.233  15.101  10.201  0.1634  0.0254 -0.1968
15023PP      PP25127  10.929   9.916  10.135  0.3213  0.4302  0.1000
15024PP      PP25128  11.263   0.955   0.972 -0.0367  0.0657  0.0360
15025PP      PP25129   1.552  13.805   0.711  0.0012 -0.0447 -0.0329
15026PP      PP25130   4.656   4.956  11.957  0.3321 -0.0682  0.1267
15027PP      PP25131  14.298   3.206   2.226 -0.1061  0.1927  0.3671
15028PP      PP25132  12.396   7.486   2.313 -0.1737 -0.0160 -0.3033
15029PP      PP25133  12.073   2.893   2.783  0.0162 -0.0783 -0.4145
15030PP      PP25134   7.833   1.961  10.538 -0.1830 -0.1680  0.0214
15031PP      PP25135  15.675   7.284  13.619 -0.1347  0.1850 -0.2454
15032PP      PP25136   6.031   4.135   7.594 -0.1365  0.0770 -0.3325
15033PP      PP25137   7.801   1.295   8.841  0.1141 -0.1159  0.1012
15034PP      PP25138   0.780   2.150   0.214  0.1583 -0.1206  0.0246
15035PP      PP25139   9.762  11.896  11.636  0.2073  0.1579  0.0754
15036PP      PP25140  11.275  14.183   1.725  0.3813 -0.2161  0.2159
15037PP      PP25141   5.434  14.239  10.864  0.1701 -0.0213 -0.1560
15038PP      PP25142  13.252  12.903  11.543  0.1317  0.2242  0.1351
15039PP      PP25143   4.183   2.295  12.415  0.3366 -0.0849  0.0680
15040PP      PP25144   4.816   1.565  12.716 -0.1218  0.0163  0.2085
15041PP      PP25145  13.642   2.623  13.251 -0.0699 -0.0743  0.2130
15042PP      PP25146  13.489  14.157  12.021 -0.1326  0.2449  0.2306
15043PP      PP25147  11.376   5.407  13.145 -0.0776 -0.0861 -0.3700
15044PP      PP25148   1.842   5.202   4.606  0.2745 -0.2031 -0.1923
15045PP      PP25149   0.871   5.841  12.528 -0.1210 -0.3035 -0.0337
15046PP      PP25150   0.307  10.065   4.203  0.2150 -0.3320 -0.1806
15047PP      PP25151   4.640   3.694   1.344 -0.3418 -0.1048 -0.2375
15048PP      PP25152  11.162   8.734  13.771  0.3612  0.0347  0.0581
15049PP      PP25153   9.502   2.081   3.191 -0.1292 -0.1268  0.1115
15050PP      PP25154   2.710   9.775   0.767  0.1616  0.0674  0.2542
15051PP      PP25155   8.043   4.161   8.255  0.2314  0.0415  0.3727
15052PP      PP25156  10.394   7.810   3.253  0.1544 -0.2128 -0.1264
15053PP      PP25157   0.663   5.480   0.965  0.0017 -0.0171  0.0594
15054PP      PP25158  14.778  11.819   3.114  0.1610  0.1864  0.1883
15055PP      PP25159   4.999  14.187   3.664 -0.0839 -0.1801  0.1392
15056PP      PP25160  13.744   7.465  12.586 -0.1398 -0.0450 -0.0886
15057PP      PP25161   2.453  11.174   3.210  0.1961 -0.0277  0.0541
15058PP      PP25162   9.552   6.229   1.624  0.0983  0.0553  0.1727
15059PP      PP25163   2.753   0.372   2.143 -0.0008 -0.0162 -0.2150
15060PP      PP25164   6.579   4.803   3.213 -0.2043  0.0387  0.1630
15061PP      PP25165   0.987   6.562  12.475 -0.2593 -0.1577 -0.2562
15062PP      PP25166  12.569   7.579  11.177  0.1504 -0.0549 -0.1667
15063PP      PP25167  14.364   9.040  11.199 -0.0315  0.2375 -0.1444
15064PP      PP25168   4.264  11.171   2.491 -0.0882  0.0422 -0.0862
15065PP      PP25169   6.667   2.719   9.999 -0.0069  0.0548 -0.2715
15066PP      PP25170  12.162   2.411   1.118 -0.1520 -0.0888  0.0787
15067PP      PP25171   6.579   9.238   0.318 -0.0559  0.0493 -0.1118
15068PP      PP25172   0.408  15.423   1.329 -0.4222  0.1959 -0.1834
15069PP      PP25173   1.550   1.319  13.229 -0.1742 -0.2914 -0.2645
15070PP      PP25174   3.417   8.407  13.265 -0.1394 -0.1388 -0.0236
15071PP      PP25175   5.431   5.532   2.055  0.2690 -0.0095  0.1103
15072PP      PP25176  15.576  12.293   3.273  0.3809  0.1520  0.1778
15073PP      PP25177   7.751  11.614  13.699 -0.2329  0.0199  0.0028
15074PP      PP25178   7.624   2.891  11.401 -0.2487  0.2908  0.0979
15075PP      PP25179   1.903   5.306  12.840  0.2519  0.1103  0.2326
15076PP      PP25180  10.333  14.583   3.570 -0.0114 -0.0995  0.2327
15077PP      PP25181  15.189   9.543   0.816 -0.0890 -0.1669 -0.2607
15078PP      PP25182   4.531   8.948  12.232  0.0824 -0.2010  0.1767
15079PP      PP25183   2.709   4.271   1.645  0.1185  0.2439  0.1491
15080PP      PP25184  14.446  13.948   1.943 -0.0531 -0.0410 -0.1634
15081PP      PP25185  15.172  15.367   0.928  0.0310  0.0714 -0.1499
15082PP      PP25186  15.210   4.224  12.055  0.0296 -0.4527  0.0396
15083PP      PP25187   3.711  13.654   2.246 -0.0541  0.2135  0.1385
15084PP      PP25188  12.409   3.795  12.308 -0.1543 -0.0311  0.1692
15085PP      PP25189   4.554  11.329   0.177  0.2213 -0.1111 -0.0737
15086PP      PP25190   7.708   4.346   9.536  0.2620  0.2047 -0.1894
15087PP      PP25191   2.926  13.455   1.150  0.1067 -0.3007  0.4027
15088PP      PP25192   9.819   3.249  11.161  0.0602  0.2134  0.0467
15089PP      PP25193   5.027   8.046   0.301  0.4230  0.3188  0.1327
15090PP      PP25194   6.639   4.762   0.569  0.0866  0.0739  0.1537
15091PP      PP25195  14.695   2.567  11.659  0.0014 -0.1406  0.0189
15092PP      PP25196   6.380   0.405  12.468  0.0633  0.2336 -0.0820
15093PP      PP25197   3.156   2.728   2.939 -0.2122 -0.2289 -0.2894
15094PP      PP25198   3.089   3.257   3.116 -0.2715 -0.0712 -0.3749
15095PP      PP25199   7.791   7.361  12.400  0.2441  0.2202  0.0546
15096PP      PP25200   0.452   8.084  11.433  0.0739  0.0033 -0.0049
15097PP      PP25201  15.565  11.922  12.252  0.1319  0.1356  0.1802
15098PP      PP25202  13.740  15.225   4.396 -0.1606  0.0919 -0.2376
15099PP      PP25203   6.366  14.315   3.734  0.1221 -0.0611  0.1153
15100PP      PP25204   6.523   6.438  10.175  0.2651  0.0421  0.0391
15101PP      PP25205   5.631  14.652   4.853  0.3224 -0.0984 -0.0659
15102PP      PP25206   3.898  13.099   3.462  0.1449 -0.3159  0.0463
15103PP      PP25207   9.630  15.167   3.876 -0.0268 -0.0039 -0.0921
15104PP      PP25208  14.928   4.398  10.309  0.0106 -0.0161  0.3786
15105PP      PP25209   4.792   4.862  10.690  0.0439  0.0997 -0.1035
15106PP      PP25210   8.016   0.051   2.745  0.3217 -0.3533 -0.0109
15107PP      PP25211  12.089   8.681   2.121 -0.1884 -0.1941 -0.0706
15108PP      PP25212  11.785   3.460   0.757  0.2035  0.1377 -0.0524
15109PP      PP25213   0.798  12.193   0.068  0.0379  0.1378 -0.0496
15110PP      PP25214   1.576   0.224  11.046 -0.2975  0.1272  0.0970
15111PP      PP25215   2.624   8.950  12.426 -0.0731  0.0916 -0.0757
15112PP      PP25216   2.579   6.009   2.107 -0.0086  0.3456 -0.0260
15113PP      PP25217   4.832  13.613   2.163 -0.1474  0.0593 -0.0184
15114PP      PP25218   6.450   8.630  13.573 -0.4451 -0.0299  0.1377
15115PP      PP25219   3.086  13.624   0.369 -0.2276 -0.1650  0.1753
15116PP      PP25220   1.112  13.129  13.566  0.2847 -0.0780  0.1066
15117PP      PP25221   4.167  11.291  12.995 -0.2836  0.0493 -0.0159
15118PP      PP25222   9.893   8.095   3.335 -0.2590  0.1696 -0.1782
15119PP      PP25223   6.088   0.455  13.037  0.0560 -0.3925  0.1162
15120PP      PP25224   0.120  15.132   4.794 -0.2837 -0.0593 -0.0437
15121PP      PP25225   5.872   7.504  10.783 -0.0651  0.0430 -0.3271
15122PP      PP25226   2.315  12.802   3.283 -0.0269  0.0799 -0.0076
15123PP      PP25227   7.465  10.954   1.896  0.0664 -0.0435 -0.0192
15124PP      PP25228  14.552   8.189  11.271  0.1321 -0.0851 -0.0040
15125PP      PP25229   8.741   3.621   0.801 -0.2733 -0.0839 -0.0577
15126PP      PP25230   0.502  12.112  11.790 -0.0641 -0.1297  0.0073
15127PP      PP25231   6.813   4.148   9.762  0.0042 -0.0981  0.2732
15128PP      PP25232   7.104   3.402  10.300  0.4232 -0.0651  0.2840
15129PP      PP25233   3.466   5.955   0.894  0.0564  0.1599 -0.1661
15130PP      PP25234   7.334  15.378  10.780 -0.1406  0.2165 -0.0041
15131PP      PP25235   9.984  12.040   0.170  0.1151 -0.0472 -0.1328
15132PP      PP25236   3.036   9.097   4.047  0.2025  0.0446  0.0017
15133PP      PP25237   2.136  11.525  10.416 -0.1906 -0.1753 -0.2378
15134PP      PP25238   0.749   7.884  11.789 -0.3548  0.1172  0.1384
15135PP      PP25239   0.474   5.910   0.618  0.2338  0.1007 -0.0493
15136PP      PP25240   2.285   4.996   9.029  0.0400  0.1612  0.0698
15137PP      PP25241   7.815  13.258   3.270 -0.0809  0.2685  0.0714
15138PP      PP25242   6.134  11.096  12.457  0.0813  0.2497  0.2221
15139PP      PP25243   6.048  11.626   5.382 -0.1296 -0.2946 -0.0301
15140PP      PP25244  15.619   7.632   3.715 -0.0258  0.0521 -0.1753
15141PP      PP25245  10.923   2.677   2.857 -0.2885 -0.2824  0.0483
15142PP      PP25246   7.013  12.088   3.746 -0.0742 -0.0637 -0.0015
15143PP      PP25247   2.215  13.230   0.725  0.3392 -0.2166  0.1798
15144PP      PP25248  14.754   9.801   3.705 -0.3621 -0.0672  0.2241
15145PP      PP25249   6.973   6.743  11.619 -0.3115  0.1648  0.1204
15146PP      PP25250   3.869   4.607   0.387 -0.0114 -0.3706  0.1314
15147PP      PP25251   7.966  13.373  11.014  0.0050 -0.1644  0.1179
15148PP      PP25252   4.322  13.632   9.778  0.1899  0.1351  0.3793
15149PP      PP25253   9.363  11.999   9.339  0.0570  0.2488  0.0982
15150PP      PP25254   6.033  10.602  12.859 -0.1809  0.1750  0.1362
15151PP      PP25255   3.498   5.655   1.844 -0.1048 -0.4166 -0.1553
15152PP      PP25256   7.138   3.731  13.372  0.1110  0.2892  0.3787
15153PP      PP25257   5.390   1.386  10.843 -0.0311  0.2308  0.1999
15154PP      PP25258   3.487  12.931  12.811 -0.1910  0.2283  0.0657
15155PP      PP25259  12.395  15.392   9.681 -0.0959  0.0233  0.1202
15156PP      PP25260   8.460   6.770   2.355 -0.0117 -0.2741  0.3123
15157PP      PP25261   1.874  15.535  12.255  0.0459 -0.0524 -0.0315
15158PP      PP25262   4.444   8.344   0.963  0.2524  0.0866 -0.4022
15159PP      PP25263  12.717  14.518   1.015  0.1424 -0.3725  0.1568
15160PP      PP25264  12.440   0.681   0.385 -0.0474 -0.1183  0.1919
15161PP      PP25265  11.166  11.632   0.973  0.0708 -0.0073  0.1907
15162PP      PP25266   8.122   2.417   1.741  0.2645 -0.1099  0.0811
15163PP      PP25267   0.907  13.628   3.440  0.0238 -0.0871  0.0112
15164PP      PP25268  15.514  13.443   1.557 -0.6204 -0.1533 -0.2745
15165PP      PP25269   7.191   7.009   0.861  0.0571 -0.0220 -0.0853
15166PP      PP25270   1.650   5.675   4.260 -0.2007  0.1457  0.2768
15167PP      PP25271   3.077  12.220   3.687 -0.2740 -0.0706 -0.4086
15168PP      PP25272  10.931   1.867  12.327  0.0933 -0.2017  0.3885
15169PP      PP25273   7.040  12.158  10.393 -0.0508  0.3459 -0.4183
15170PP      PP25274   0.468   4.938  12.467  0.0464 -0.0045 -0.1212
15171PP      PP25275   6.948  12.465   4.592 -0.0757 -0.0498 -0.5221
15172PP      PP25276   2.478  14.807  13.535  0.0932 -0.2406 -0.0239
15173PP      PP25277   7.516   7.896   0.980  0.0867  0.1198  0.0449
15174PP      PP25278  13.296  10.140   0.163 -0.1481 -0.1379 -0.1423
15175PP      PP25279   9.987  13.280   2.074 -0.1615  0.0458  0.0917
15176PP      PP25280   5.238   8.983  12.973  0.0187  0.2628 -0.1360
15177PP      PP25281   9.663   0.490  10.273  0.2190 -0.2560 -0.0743
15178PP      PP25282  12.670   0.593   0.910  0.0427 -0.0879  0.1710
15179PP      PP25283   9.928  11.469   3.195 -0.1379  0.1062  0.3085
15180PP      PP25284  13.415  10.151  11.904  0.0305 -0.1028 -0.0030
15181PP      PP25285   2.886   9.383  12.416  0.0870  0.0788 -0.0017
15182PP      PP25286  14.826   5.092  10.308  0.4264  0.0072  0.2755
15183PP      PP25287   5.736  12.274  11.774  0.2341 -0.0698 -0.1112
15184PP      PP25288  11.479   9.777   3.207 -0.0863 -0.0199 -0.1498
15185PP      PP25289  15.619  11.438   1.961  0.0689 -0.1146 -0.0455
15186PP      PP25290   4.026   3.380   2.107  0.1574  0.2916 -0.0939
15187PP      PP25291  11.586   5.806  12.249  0.0603  0.2346 -0.0992
15188PP      PP25292   1.459   4.675   9.971  0.0015 -0.2694  0.2516
15189PP      PP25293  14.036   9.340  12.624  0.0187 -0.3176 -0.2144
15190PP      PP25294  11.618  11.739  13.581 -0.2250 -0.0120  0.2019
15191PP      PP25295   7.675   2.366  11.267  0.0868  0.1448  0.0612
15192PP      PP25296   0.952  14.490   0.527 -0.3286 -0.1783  0.1715
15193PP      PP25297   4.358  11.358  11.123  0.0475 -0.1947 -0.1106
15194PP      PP25298  12.248   0.291   0.730  0.0987 -0.0656 -0.2221
15195PP      PP25299   3.962   8.666  10.078 -0.2435 -0.0545 -0.1186
15196PP      PP25300  14.780  10.123   1.142 -0.1438 -0.1125 -0.1538
15197PP      PP25301   4.374   1.989   2.911  0.4844  0.3097 -0.0155
15198PP      PP25302   5.518  11.869   2.522  0.0523 -0.0030  0.2651
15199PP      PP25303   5.991   9.891  11.020 -0.1049 -0.0146  0.0802
15200PP      PP25304   8.130   3.829   9.672  0.2211  0.1651  0.0370
15201PP      PP25305  11.366  15.334   9.989  0.0159  0.0169  0.0610
15202PP      PP25306  12.184   9.573  12.496 -0.0666  0.0007 -0.0837
15203PP      PP25307  10.015   0.519   3.261  0.2517 -0.1423 -0.0238
15204PP      PP25308   4.219   4.665  11.927 -0.1491 -0.0543 -0.0431
15205PP      PP25309   1.528   0.653   3.776  0.0846 -0.1062  0.2498
15206PP      PP25310   9.323   8.349   1.539 -0.3638  0.1639  0.0390
15207PP      PP25311  11.104   2.992   9.856  0.0060 -0.0031  0.1643
15208PP      PP25312   8.532   8.027  13.081 -0.2650  0.2967 -0.2988
15209PP      PP25313   2.656   1.589   3.286 -0.2872 -0.5207  0.0883
15210PP      PP25314   1.400   2.039   3.537  0.0619 -0.1611 -0.1068
15211PP      PP25315   7.372  10.550  10.073  0.0862  0.2008  0.1565
15212PP      PP25316  13.778   7.961   1.803 -0.2968  0.1004  0.1607
15213PP      PP25317   2.737  12.477  11.287 -0.3273 -0.1503 -0.0481
15214PP      PP25318  14.801   8.293   1.998  0.2140 -0.0450 -0.2703
15215PP      PP25319   7.361  13.555   1.809  0.1549 -0.1234  0.1968
15216PP      PP25320  12.079   7.802   2.736 -0.1900  0.0074 -0.2197
15217PP      PP25321  11.255   4.847   3.871  0.0949  0.0663 -0.0369
15218PP      PP25322   3.379   7.064  13.463 -0.1282 -0.1717  0.0750
15219PP      PP25323   9.070  15.191   8.653 -0.3845  0.2176  0.0693
15220PP      PP25324   5.251   6.759  11.654  0.1895 -0.0246 -0.2316
15221PP      PP25325  11.994   0.213  12.652  0.2959 -0.0047 -0.0907
15222PP      PP25326   1.978  13.706   0.480  0.2553 -0.1604  0.1687
15223PP      PP25327   1.658   1.169   0.842 -0.3091 -0.0784  0.1086
15224PP      PP25328  14.370  11.599  11.314  0.0186 -0.0881  0.4373
15225PP      PP25329   2.204   2.359   3.800  0.0139 -0.0536  0.0221
15226PP      PP25330  15.403   0.111  12.890 -0.1887 -0.4022 -0.0628
15227PP      PP25331   5.109   9.932   5.355  0.2607  0.0389  0.1187
15228PP      PP25332   7.628   7.828  11.195 -0.1854  0.1923 -0.5621
15229PP      PP25333  10.245   1.301   3.703  0.1859 -0.1681  0.0943
15230PP      PP25334   1.169   8.428  12.552 -0.0597  0.3815  0.0253
15231PP      PP25335   8.569   7.767  11.814  0.1321 -0.1387  0.0605
15232PP      PP25336   9.078   6.506  12.635  0.1312 -0.3377 -0.3233
15233PP      PP25337   6.384  12.057   2.239  0.0183  0.3038 -0.0657
15234PP      PP25338   2.395  15.275   2.012  0.4378  0.0898  0.4225
15235PP      PP25339   7.074  11.114   1.353  0.0779 -0.0542 -0.3742
15236PP      PP25340  12.632  13.812  10.674  0.0173 -0.0310 -0.0856
15237PP      PP25341  10.830   9.847   9.630 -0.0241 -0.1166 -0.1439
15238PP      PP25342   9.602   5.459   3.220 -0.1616 -0.1108  0.0688
15239PP      PP25343  13.316  14.681   1.901 -0.1356 -0.1240  0.1261
15240PP      PP25344   6.572  14.094   3.275 -0.2070 -0.0521 -0.0142
15241PP      PP25345   9.191   2.684   9.359  0.2091 -0.1850 -0.4101
15242PP      PP25346   4.237  15.519   0.164 -0.1593  0.0545  0.1551
15243PP      PP25347   2.466  10.659  11.913  0.5646  0.0679 -0.2676
15244PP      PP25348   2.832   3.536   3.829 -0.5902  0.3609  0.0112
15245PP      PP25349   9.058   8.038   9.118  0.0168 -0.1415 -0.1052
15246PP      PP25350  14.642  14.478   1.284 -0.2378  0.0292  0.0010
15247PP      PP25351   6.972   4.523   1.735  0.1070  0.1594  0.0096
15248PP      PP25352   0.327   4.204   1.971  0.0747  0.2461 -0.2923
15249PP      PP25353   9.122   6.433   0.497 -0.1077 -0.1870  0.1352
15250PP      PP25354  14.769   1.947   3.169 -0.0853 -0.2005 -0.1080
15251PP      PP25355   4.494  14.184   0.056 -0.3337  0.3052  0.1585
15252PP      PP25356   8.996   9.894   2.109 -0.3252 -0.0589 -0.1069
15253PP      PP25357  13.193   3.447   8.622  0.0970 -0.0622 -0.2435
15254PP      PP25358   0.942  13.211   2.264  0.1498 -0.1603  0.2167
15255PP      PP25359   5.712   1.353  11.205 -0.0855  0.0849 -0.2912
15256PP      PP25360   4.573   0.476   9.373 -0.1906  0.1117 -0.3310
15257PP      PP25361   0.274   6.411  10.845  0.0991 -0.0641 -0.1451
15258PP      PP25362  15.310  13.544  13.292 -0.0927 -0.4526  0.1710
15259PP      PP25363  11.264  13.091   8.313  0.1113  0.5011 -0.1132
15260PP      PP25364   7.139   4.240   2.388  0.0525  0.2097 -0.1279
15261PP      PP25365   9.399   1.575   8.992  0.3169 -0.2282  0.4530
15262PP      PP25366  11.985   9.973  13.434 -0.0465 -0.2731  0.0291
15263PP      PP25367  11.782   4.789   0.488  0.0740 -0.0072 -0.0069
15264PP      PP25368   4.092   0.148  10.603  0.2712 -0.0877 -0.0021
15265PP      PP25369   6.558   4.810   2.037  0.0527 -0.1461 -0.0458
15266PP      PP25370  13.303  15.361  12.668 -0.1149  0.1365  0.0148
15267PP      PP25371   4.354   7.877   0.848  0.3123 -0.1804  0.1472
15268PP      PP25372  10.091  10.421   9.255  0.0793  0.1845  0.0054
15269PP      PP25373  14.978   6.000  12.952 -0.3784  0.2323 -0.0166
15270PP      PP25374   7.139  12.989   1.043  0.0721 -0.1580  0.2548
15271PP      PP25375   6.535   5.936  10.063 -0.0266 -0.1349  0.1884
15272PP      PP25376   5.393  10.603   0.107  0.2499 -0.3164  0.0852
15273PP      PP25377  10.385  14.980   9.252  0.1272 -0.2117  0.3180
15274PP      PP25378   2.715   2.766   3.271  0.1447  0.1670  0.0510
15275PP      PP25379  14.126  13.500   4.030 -0.0552 -0.0298  0.3443
15276PP      PP25380  13.827  13.549  10.326 -0.2634  0.1111  0.0321
15277PP      PP25381  13.304   6.126   8.914 -0.0751 -0.2690  0.0598
15278PP      PP25382   2.698  11.628  10.309  0.1072  0.0328 -0.1290
15279PP      PP25383   9.885  11.345  11.212 -0.2854  0.0151  0.0453
15280PP      PP25384  11.331   6.695  11.836  0.0233 -0.0601  0.3482
15281PP      PP25385  13.543   8.993   8.764  0.2053  0.1196 -0.0601
15282PP      PP25386   8.842  13.468   3.490  0.0993  0.2593  0.2324
15283PP      PP25387   4.009  15.242   2.291  0.1739  0.2175  0.0996
15284PP      PP25388  13.557  13.277   4.260  0.2479  0.0451  0.0531
15285PP      PP25389   3.167   2.765   3.533 -0.0380  0.1165  0.0298
15286PP      PP25390  15.505   9.064  12.510 -0.1181  0.0054 -0.0360
15287PP      PP25391   9.014   9.443   0.081 -0.1476  0.1427 -0.0558
15288PP      PP25392   1.514   8.795  10.708  0.1452 -0.3320 -0.1203
15289PP      PP25393  13.573  11.639   9.558  0.0330 -0.4639 -0.0460
15290PP      PP25394   8.573   2.497   1.833  0.0511 -0.0846  0.0102
15291PP      PP25395   4.150  13.463  10.225  0.0560  0.1367  0.1135
15292PP      PP25396   6.797  10.636  10.095 -0.0879 -0.1502  0.1803
15293PP      PP25397  12.342   7.181   1.965 -0.1161 -0.0804 -0.1843
15294PP      PP25398  14.832  14.206   4.507 -0.0651 -0.2604 -0.0702
15295PP      PP25399  10.637   4.961   3.170  0.0392  0.1733 -0.1110
15296PP      PP25400   6.457   2.922   3.705 -0.0504  0.0462  0.1093
15297PP      PP25401  15.563   6.531   9.586  0.0810  0.1202 -0.0428
15298PP      PP25402   4.647   5.020   1.278  0.3340 -0.0035  0.0194
15299PP      PP25403   6.296   4.018   9.901  0.1533 -0.1895 -0.0975
15300PP      PP25404  13.150  15.499   2.473  0.1572  0.0874  0.0211
15301PP      PP25405   8.428   3.167   1.072 -0.0234  0.0782  0.0620
15302PP      PP25406  13.986   3.863  13.305  0.0214  0.1772  0.1005
15303PP      PP25407   8.109   6.154  10.946  0.0986  0.0056  0.0761
15304PP      PP25408   1.519   1.689   4.240 -0.1908 -0.0617  0.0632
15305PP      PP25409   5.260   5.152  10.386  0.1510  0.1817  0.1160
15306PP      PP25410   5.815   0.616  12.509  0.0425 -0.0423 -0.1208
15307PP      PP25411  13.429   6.563   3.589  0.0102  0.0659 -0.2421
15308PP      PP25412   4.038   0.183   9.548  0.3498 -0.1081  0.0478
15309PP      PP25413   8.018   5.667  12.843 -0.0686  0.0031 -0.0843
15310PP      PP25414   8.758   8.741  11.870 -0.0595 -0.0292 -0.2101
15311PP      PP25415   9.775   7.904  13.693  0.4259  0.0130 -0.1153
15312PP      PP25416  11.149  14.832   9.867 -0.2966  0.1437 -0.1177
15313PP      PP25417  14.641  14.663   9.882 -0.0968 -0.1718  0.0749
15314PP      PP25418  12.068   3.139  11.643  0.0396 -0.0799  0.1333
15315PP      PP25419   7.176   0.994   2.208 -0.0788  0.1957 -0.1617
15316PP      PP25420   1.814  11.892   3.435  0.1722  0.2383 -0.0417
15317PP      PP25421   9.850   5.464  12.312  0.2171 -0.0169 -0.3490
15318PP      PP25422  15.383   5.241  12.388 -0.1072  0.2308 -0.2336
15319PP      PP25423  12.743  14.466  11.545  0.0347  0.3131  0.0143
15320PP      PP25424  11.851   4.819  10.601  0.1692  0.2303 -0.3551
15321PP      PP25425   2.744  14.498   2.028  0.1174  0.1153  0.1509
15322PP      PP25426  14.641  14.452   9.333 -0.2539 -0.1586 -0.0152
15323PP      PP25427   7.364   6.339   9.115  0.0740  0.0242  0.2743
15324PP      PP25428   1.522   0.195   9.649  0.1249  0.0805  0.2587
15325PP      PP25429   7.619  13.071   1.072 -0.1231 -0.2887  0.0865
15326PP      PP25430  12.567   3.015  12.424 -0.0447 -0.2449  0.0110
15327PP      PP25431  10.259   3.340   9.433 -0.0630 -0.5460 -0.0272
15328PP      PP25432   1.941   7.081  11.881  0.0836  0.1497 -0.0255
15329PP      PP25433   7.484   2.918   9.502  0.1704  0.1319 -0.1005
15330PP      PP25434   0.939   7.325  13.050  0.1831  0.3075 -0.2837
15331PP      PP25435   7.068   1.023   8.688  0.1490 -0.2828  0.0085
15332PP      PP25436   7.420   0.442   3.607 -0.2998 -0.0813 -0.1275
15333PP      PP25437   6.694   6.981   0.789  0.1985  0.0228 -0.0848
15334PP      PP25438   2.275   3.988  10.843  0.0264 -0.0595  0.2763
15335PP      PP25439  15.628   7.173  13.143  0.0195 -0.0425  0.2781
15336PP      PP25440   8.617  12.399  10.379  0.1440  0.1915  0.0647
15337PP      PP25441  10.204   6.106   0.599  0.0071  0.1200  0.3037
15338PP      PP25442   6.960   9.174  13.183 -0.0162  0.2692 -0.1949
15339PP      PP25443   4.841  11.695   0.920  0.0855  0.1759  0.0550
15340PP      PP25444   0.180  12.852   4.927  0.0549 -0.4831  0.3774
15341PP      PP25445   7.892   0.925  12.141 -0.1714 -0.0333  0.2063
15342PP      PP25446   6.901   0.413   9.737  0.2245  0.0184 -0.0448
15343PP      PP25447   0.249   4.484  12.386  0.0017 -0.0296  0.1258
15344PP      PP25448   3.113   7.759  10.243  0.0494 -0.1519  0.0656
15345PP      PP25449   5.895   8.182   0.404 -0.0014 -0.0479 -0.2431
15346PP      PP25450  11.290  11.974  10.447 -0.1048  0.3095  0.0247
15347PP      PP25451  13.092  14.064  12.876  0.0752 -0.2405  0.0404
15348PP      PP25452   0.218  10.766   1.347 -0.1365 -0.0833 -0.2241
15349PP      PP25453   3.401   3.700   2.549  0.2653  0.3143  0.2295
15350PP      PP25454  12.075   2.706   9.982  0.1322  0.1415  0.2449
15351PP      PP25455   4.223   9.897   3.377  0.2819 -0.0104 -0.1453
15352PP      PP25456  13.490   2.340  10.374  0.1478  0.3654  0.0265
15353PP      PP25457   4.906   4.607   0.411 -0.4406  0.1957  0.1635
15354PP      PP25458  14.882  10.585  13.159 -0.0273 -0.0823 -0.3018
15355PP      PP25459   1.206   4.093   0.509  0.0146  0.0713  0.0320
15356PP      PP25460  11.136  12.843   9.848  0.1104  0.4589  0.0467
15357PP      PP25461   1.124   1.097   1.748 -0.0019  0.1191  0.2829
15358PP      PP25462   4.116   8.161   9.719 -0.0881  0.0625 -0.0824
15359PP      PP25463   2.703   9.133  13.659 -0.0480 -0.3744  0.0269
15360PP      PP25464  10.182   9.162  12.461 -0.4111  0.0337 -0.1275
15361PP      PP25465  11.816   1.973   0.201  0.0839  0.0305  0.1241
15362PP      PP25466   8.903   1.210  11.085  0.0764 -0.2357  0.2038
15363PP      PP25467  13.071  10.185   4.584  0.1051  0.2016 -0.3220
15364PP      PP25468   5.635   6.543   2.394 -0.1752  0.0094 -0.1347
15365PP      PP25469   0.408  11.079  12.809 -0.0933  0.2622 -0.3306
15366PP      PP25470   9.337  10.774   1.716  0.1826  0.1009  0.1923
15367PP      PP25471  14.047   7.174   2.076  0.1734 -0.0341 -0.1252
15368PP      PP25472   7.745  11.188   2.685 -0.1243 -0.2640 -0.0144
15369PP      PP25473   9.604   5.153   1.237 -0.0617  0.2111 -0.2549
15370PP      PP25474   2.394   3.286  10.056  0.1939 -0.1317 -0.1206
15371PP      PP25475  14.046  10.917   2.118  0.1793  0.1412 -0.0127
15372PP      PP25476   7.737   9.703   4.034 -0.2133  0.0213 -0.0715
15373PP      PP25477  14.182  11.752   9.969 -0.2403 -0.2062 -0.1193
15374PP      PP25478   4.827   0.715   2.596 -0.0254 -0.1995  0.1033
15375PP      PP25479   4.995  15.410  10.019 -0.0149  0.1208 -0.2569
15376PP      PP25480  12.367   3.047  11.153  0.1424  0.1588 -0.2908
15377PP      PP25481   0.216   0.873  12.858  0.0377  0.2290  0.0539
15378PP      PP25482  11.543  10.684  13.678  0.0380 -0.1127 -0.1122
15379PP      PP25483   7.730  15.332   8.836 -0.0562 -0.1763  0.1100
15380PP      PP25484   5.269   5.632  12.180  0.1846  0.0087 -0.2800
15381PP      PP25485   6.751   6.995  12.515 -0.0139  0.3908 -0.3684
15382PP      PP25486  12.432  12.329  11.307  0.2938  0.2158 -0.4143
15383PP      PP25487   8.493   6.069   8.027 -0.0202 -0.2029 -0.1602
15384PP      PP25488   5.664   8.208   1.798  0.1789 -0.1500  0.1125
15385PP      PP25489  14.174  14.838   2.922  0.0789 -0.1649 -0.2370
15386PP      PP25490   0.683   3.445  12.013 -0.1875 -0.1578  0.1324
15387PP      PP25491   6.519   2.788   4.236  0.1195 -0.2058  0.1032
15388PP      PP25492   6.326   4.367   3.044 -0.1856 -0.0501 -0.0507
15389PP      PP25493   1.407  14.875   0.598 -0.2740  0.1985 -0.0050
15390PP      PP25494   7.590  10.692   9.605  0.1462 -0.0617 -0.0776
15391PP      PP25495   9.975  12.472   3.102  0.1106  0.0882  0.3701
15392PP      PP25496   2.973   6.901   8.639 -0.2146  0.1175  0.1562
15393PP      PP25497   2.758   1.269   4.216 -0.3938  0.1136 -0.1660
15394PP      PP25498  14.129   1.735   2.473 -0.0922  0.4435  0.0143
15395PP      PP25499   6.924   3.851   1.337 -0.0772 -0.0441 -0.0640
15396PP      PP25500   0.512   9.165   2.084 -0.0778  0.0684 -0.2477
15397PP      PP25501   6.676   9.303   0.983 -0.0152  0.2378 -0.1151
15398PP      PP25502   4.266  14.536   3.734 -0.1055 -0.1898 -0.3255
15399PP      PP25503   4.352  10.154   4.977  0.2183 -0.2632 -0.0802
15400PP      PP25504   3.387   1.677  11.862  0.0005 -0.2841 -0.1554
15401PP      PP25505  10.326   6.012   8.900  0.0761  0.2652  0.2547
15402PP      PP25506   4.730   1.815   2.605  0.1269 -0.0948 -0.1726
15403PP      PP25507   5.654   9.263  13.395  0.0625  0.2764  0.0901
15404PP      PP25508  12.657   7.983   0.961 -0.3226 -0.0823  0.1710
15405PP      PP25509  15.336  13.047   9.173 -0.1656  0.1315 -0.1856
15406PP      PP25510  13.179   2.804   2.210  0.0728 -0.2716 -0.1974
15407PP      PP25511   3.427   3.624   8.551  0.1343 -0.3552  0.2199
15408PP      PP25512   6.691   5.082  10.145 -0.1524 -0.0005 -0.3493
15409PP      PP25513  15.473   2.534   9.961 -0.2201  0.1502 -0.0394
15410PP      PP25514   3.655  13.396   1.454 -0.3016  0.0443 -0.0783
15411PP      PP25515   6.908   1.697   0.847  0.0443 -0.2544  0.1205
15412PP      PP25516   1.156   1.074  10.921  0.0878 -0.0976  0.1595
15413PP      PP25517   3.987   6.915  12.168  0.0188 -0.0042 -0.0276
15414PP      PP25518   8.616   4.804  12.022  0.1844 -0.2212 -0.0958
15415PP      PP25519   8.264  10.516  10.298  0.5270  0.0753 -0.3925
15416PP      PP25520   3.559  14.143   2.701 -0.0281  0.0237  0.1302
15417PP      PP25521   1.729   5.133   3.603 -0.0504 -0.1734 -0.2219
15418PP      PP25522   3.505   1.888   2.397  0.6120 -0.0443  0.2737
15419PP      PP25523   2.203  11.258   4.214  0.2094 -0.2834 -0.0394
15420PP      PP25524   9.914   2.657   1.600  0.2050 -0.2877 -0.0049
15421PP      PP25525   0.296   7.977   1.453  0.2998  0.0172  0.0699
15422PP      PP25526   2.784   7.050   3.803 -0.0307 -0.0091 -0.1457
15423PP      PP25527  10.368   8.795  11.517  0.1925 -0.0115 -0.0942
15424PP      PP25528   0.064  10.161   0.484  0.2191  0.2150 -0.0860
15425PP      PP25529   7.822   2.311  12.544 -0.0291  0.4514  0.3519
15426PP      PP25530   0.968   4.274  12.022 -0.0247 -0.2588  0.1722
15427PP      PP25531   2.078   4.550   9.018  0.0243  0.1461 -0.0940
15428PP      PP25532   4.985   0.203  11.645  0.0538  0.1100 -0.3140
15429PP      PP25533  12.802   0.187   9.343 -0.1121 -0.0517 -0.0035
15430PP      PP25534   1.997   4.820  12.908  0.1893 -0.1177  0.0147
15431PP      PP25535   6.004  10.293  11.310  0.1948  0.1710 -0.0910
15432PP      PP25536  11.513   3.645   8.439  0.2445 -0.1556  0.0667
15433PP      PP25537   8.259  12.085   2.087  0.1342  0.1034 -0.2005
15434PP      PP25538   8.000   1.846  13.286  0.1505 -0.3068 -0.0300
15435PP      PP25539  11.641   6.775   2.622 -0.0386 -0.2782  0.0015
15436PP      PP25540  10.068   6.603   0.653  0.3072  0.1985  0.0036
15437PP      PP25541   2.629   0.402   2.749 -0.0910  0.2534  0.1937
15438PP      PP25542  15.346  12.316   4.002  0.2621 -0.1955 -0.0745
15439PP      PP25543  13.267  14.177   1.740 -0.0560 -0.1271 -0.1320
15440PP      PP25544   7.944  11.721   1.900  0.0596 -0.4277 -0.0482
15441PP      PP25545  15.598  13.270   2.909 -0.0871 -0.0139 -0.2805
15442PP      PP25546   8.452  12.702   2.262  0.0671 -0.1833  0.3232
15443PP      PP25547  11.973   1.597   8.906 -0.0064  0.0095 -0.3987
15444PP      PP25548   9.668   4.029   9.016  0.4053 -0.2922  0.4484
15445PP      PP25549   8.429  15.588  10.867 -0.1591 -0.0826  0.0791
15446PP      PP25550   8.473   8.294   2.235  0.1228  0.1675 -0.3732
15447PP      PP25551   7.619   4.248   0.043  0.1182 -0.0532 -0.1096
15448PP      PP25552  13.006  13.706   1.692  0.0448 -0.0405  0.0067
15449PP      PP25553   8.536   8.357   1.016  0.0660  0.0961 -0.1128
15450PP      PP25554  15.308   4.140   1.195  0.1806  0.0972 -0.2039
15451PP      PP25555   2.258   9.946  11.089 -0.3377 -0.2223  0.1275
15452PP      PP25556   6.038   0.557  13.615 -0.1751 -0.0372  0.1496
15453PP      PP25557   7.972   9.521   3.640  0.0871 -0.1865 -0.1719
15454PP      PP25558  10.245  14.891  11.999 -0.0249  0.0360 -0.0961
15455PP      PP25559   9.716   4.211  12.266  0.1662 -0.2610  0.0467
15456PP      PP25560   1.654   3.400   3.261 -0.4211  0.1265 -0.0131
15457PP      PP25561   2.404   9.045   0.356  0.0073  0.0397  0.0789
15458PP      PP25562  12.007   8.733   1.014 -0.1663  0.0804  0.2135
15459PP      PP25563   6.444  15.559   2.072 -0.2629 -0.3747 -0.1999
15460PP      PP25564  12.928   5.732  12.433  0.0968  0.1246  0.3146
15461PP      PP25565  14.252  12.146  13.454 -0.0041  0.3550 -0.1267
15462PP      PP25566   0.646  12.645   3.678  0.1786  0.0477 -0.2480
15463PP      PP25567  11.018   8.395   9.420 -0.0831 -0.2885 -0.2062
15464PP      PP25568   9.756   1.422   8.611  0.2031 -0.0343 -0.0225
15465PP      PP25569   6.606   1.980   2.461 -0.2834  0.1696  0.1534
15466PP      PP25570  15.484   1.843  11.741 -0.0199  0.1433 -0.4747
15467PP      PP25571  13.511   7.626   9.444 -0.0752  0.4557 -0.0580
15468PP      PP25572   3.800   5.085   2.766  0.0751 -0.1729  0.0036
15469PP      PP25573   3.283   4.768  10.872 -0.0514 -0.1187 -0.1523
15470PP      PP25574   2.992  12.159  10.945 -0.0539  0.0105  0.1537
15471PP      PP25575   7.022  12.550   0.784 -0.0701 -0.0148 -0.4148
15472PP      PP25576  14.740   5.063   9.015  0.3399  0.0164 -0.1569
15473PP      PP25577   6.825  11.709   0.340  0.1326 -0.1975 -0.1963
15474PP      PP25578   2.379  14.293  11.276 -0.2359  0.0552  0.3176
15475PP      PP25579  11.717   2.620   1.528 -0.1934 -0.0958  0.2420
15476PP      PP25580   5.075   1.798   9.358  0.1330 -0.0024 -0.2537
15477PP      PP25581   2.940   4.575  10.038  0.1840 -0.1118  0.0978
15478PP      PP25582   4.470   5.654  11.491 -0.2824 -0.2439 -0.0770
15479PP      PP25583   4.807  14.722  13.628 -0.0211  0.0240 -0.2795
15480PP      PP25584   2.677  15.334  10.116 -0.0751 -0.0329  0.1159
15481PP      PP25585  14.992  12.517  11.891  0.0638 -0.1776  0.0337
15482PP      PP25586   9.386  12.862   3.980 -0.0405 -0.1322  0.0953
15483PP      PP25587  10.990  15.150  11.901 -0.0183  0.0049 -0.1653
15484PP      PP25588  11.056   5.318   0.189 -0.2860  0.0290  0.0148
15485PP      PP25589  10.752   1.285   9.712  0.0425  0.0365  0.1889
15486PP      PP25590   4.544   6.996   1.356 -0.0944 -0.0370  0.2516
15487PP      PP25591   8.868   3.221   1.360 -0.0984 -0.2773  0.1648
15488PP      PP25592  11.997   5.826  11.367  0.0582  0.1105 -0.1974
15489PP      PP25593  12.985   6.256   1.686  0.0601 -0.0791 -0.1714
15490PP      PP25594  13.169   0.939  13.078  0.3959 -0.0004 -0.2463
15491PP      PP25595   7.207   3.368  12.805 -0.1057 -0.1159  0.1856
15492PP      PP25596  14.426   4.871   1.578  0.1305  0.0995  0.0356
15493PP      PP25597   9.686   5.313  13.231  0.2246 -0.0396  0.1028
15494PP      PP25598   3.391   9.399   3.892  0.2248  0.1814 -0.1602
15495PP      PP25599   5.663   4.456   3.162  0.0197  0.4257  0.0833
15496PP      PP25600   0.557  13.906  13.246  0.1347 -0.0940 -0.0620
15497PP      PP25601  13.657   2.210   2.018 -0.0234 -0.2216  0.1244
15498PP      PP25602  15.469   0.017   9.964 -0.0817  0.1020  0.3055
15499PP      PP25603   2.849  10.560   2.620 -0.0137  0.0083 -0.1324
15500PP      PP25604   4.620   7.410   9.859  0.0482 -0.1121  0.1823
15501PP      PP25605   8.825  15.178   9.887 -0.1192  0.3015 -0.1851
15502PP      PP25606   8.589  12.690  10.938  0.1385  0.2146  0.4017
15503PP      PP25607   8.718   6.567  13.680 -0.1103  0.2074  0.0314
15504PP      PP25608  10.662  11.074  12.016 -0.0540  0.1018  0.1862
15505PP      PP25609   3.900  14.034  11.931  0.1662 -0.0619  0.1600
15506PP      PP25610   0.730   9.042   0.444 -0.0545 -0.1345 -0.2926
15507PP      PP25611  14.233   4.950  11.411 -0.0601 -0.1381  0.1607
15508PP      PP25612   2.548   9.803  12.868  0.3293  0.2745  0.1076
15509PP      PP25613   9.163  13.020  12.420 -0.2150  0.2180 -0.0411
15510PP      PP25614   0.815   6.920   9.268  0.3330 -0.0178  0.0254
15511PP      PP25615   7.976  12.332  10.225  0.2291 -0.0327 -0.1009
15512PP      PP25616  14.465   3.190  11.090  0.1648 -0.0644 -0.0780
15513PP      PP25617  11.748   5.916   9.449 -0.1726  0.0074  0.0783
15514PP      PP25618   5.859  10.801  10.025 -0.2485 -0.1911  0.0733
15515PP      PP25619   3.579   6.979  11.184 -0.1530 -0.1323  0.0480
15516PP      PP25620  10.563  11.549   2.109  0.0586  0.3504 -0.3326
15517PP      PP25621  15.701  12.474   1.762 -0.0956 -0.2101 -0.2992
15518PP      PP25622   0.786   2.413  11.262  0.0479  0.0825 -0.0621
15519PP      PP25623   3.573   5.569   0.262  0.1728 -0.0822 -0.1857
15520PP      PP25624   0.762  10.156  12.302  0.1170  0.1024 -0.0655
15521PP      PP25625  14.130  13.164  12.642  0.1937  0.2180 -0.1463
15522PP      PP25626  11.727   5.839  11.748  0.0171 -0.0934  0.0554
15523PP      PP25627  13.764   9.629  10.313  0.1604 -0.0406  0.1984
15524PP      PP25628   4.123  14.898  11.603  0.1052 -0.0244  0.0016
15525PP      PP25629   6.978   4.892  11.387 -0.2083  0.1619 -0.2308
15526PP      PP25630  10.753   4.623  11.058  0.0486 -0.0621  0.2259
15527PP      PP25631   0.324   9.932   0.052 -0.2153 -0.2190  0.0954
15528PP      PP25632  13.228   1.028   3.554  0.1803  0.0598  0.0884
15529PP      PP25633   5.255   0.893  13.468 -0.0804  0.0933  0.3518
15530PP      PP25634   2.413   1.118   0.519  0.1046  0.0272  0.1539
15531PP      PP25635   3.656  12.873  13.255 -0.0067  0.2495 -0.1404
15532PP      PP25636  11.585  11.797  11.004 -0.0706 -0.2496 -0.1654
15533PP      PP25637   8.509  13.795  13.263 -0.0766 -0.2668  0.0839
15534PP      PP25638   9.135   3.019   3.333  0.3063 -0.2396 -0.0354
15535PP      PP25639  14.763   4.086   2.782 -0.0723  0.0482 -0.1779
15536PP      PP25640  11.503   6.382   3.712 -0.0928 -0.1492 -0.0153
15537PP      PP25641  10.582  11.063  10.276 -0.0497 -0.1140  0.1199
15538PP      PP25642  13.023   5.873  11.459 -0.1189  0.1392 -0.2199
15539PP      PP25643  12.363   7.588  10.699  0.0617 -0.0693 -0.3257
15540PP      PP25644   8.017  13.515   3.763 -0.0497 -0.3828 -0.0050
15541PP      PP25645   9.902   6.643  12.500  0.3669  0.1392 -0.2964
15542PP      PP25646  11.294   2.905   4.148 -0.0072 -0.2499  0.1041
15543PP      PP25647  12.509   3.404  10.539 -0.0043 -0.2301 -0.0324
15544PP      PP25648   8.417   8.816   2.433 -0.0706 -0.0988  0.1198
15545PP      PP25649   2.536  10.872   3.994  0.1448 -0.0283 -0.0296
15546PP      PP25650   6.899   9.759   3.343 -0.0531  0.0209 -0.0561
15547PP      PP25651   5.519   2.286  13.513 -0.0545 -0.1726 -0.0620
15548PP      PP25652   6.064   7.833   0.053 -0.1424  0.2498  0.3196
15549PP      PP25653   8.831  11.956   4.415  0.1284  0.2884  0.3402
15550PP      PP25654  12.552   7.689   3.251  0.1833  0.0314  0.2143
15551PP      PP25655  10.224   2.495   3.280  0.5159  0.3625  0.3083
15552PP      PP25656   8.360   3.925   2.718 -0.1113  0.2650 -0.0127
15553PP      PP25657   0.425   2.041   0.616 -0.1247  0.1355  0.1341
15554PP      PP25658   9.538  11.078  10.282 -0.3556  0.1571 -0.1610
15555PP      PP25659   8.758   5.596  11.452 -0.1430  0.3491 -0.3729
15556PP      PP25660  15.674  13.181  13.427  0.0110  0.3028  0.0039
15557PP      PP25661   2.362   1.974   2.091 -0.1795  0.0829  0.0033
15558PP      PP25662   1.823  15.292  13.091  0.0851 -0.0528  0.0769
15559PP      PP25663  13.210  13.446  11.675  0.1095  0.1803  0.1146
15560PP      PP25664   5.792   8.094  11.657  0.0390  0.3240 -0.0584
15561PP      PP25665   1.340   3.910  13.440 -0.0148  0.0192 -0.2725
15562PP      PP25666  12.679   0.436   3.051 -0.1214  0.0383  0.0035
15563PP      PP25667   6.511   6.600   4.134 -0.0436 -0.0902 -0.2388
15564PP      PP25668  14.482  13.409   4.411 -0.0643 -0.0787  0.1701
15565PP      PP25669   2.677  13.588  10.730  0.2716 -0.0024 -0.0134
15566PP      PP25670  15.349  11.242  10.836  0.0122 -0.1023 -0.1758
15567PP      PP25671   1.800   0.010   2.221 -0.1989 -0.0048 -0.0316
15568PP      PP25672  14.874   2.006   2.263  0.2031 -0.0336  0.0697
15569PP      PP25673   7.072  11.699   2.793  0.0035 -0.2393  0.0482
15570PP      PP25674   3.554   4.534   4.079 -0.1284  0.1015 -0.1934
15571PP      PP25675   3.221  13.156   9.960 -0.1151  0.1754  0.3907
15572PP      PP25676   0.241  13.900   2.165  0.0906  0.2095  0.0272
15573PP      PP25677   4.698   7.510  11.865  0.3575 -0.1370  0.1371
15574PP      PP25678   7.533   2.410   2.438  0.3252  0.1837  0.3092
15575PP      PP25679   1.196   9.191  10.898 -0.1849  0.0034  0.2058
15576PP      PP25680   0.203   0.039   4.079  0.2257  0.2782 -0.1773
15577PP      PP25681   1.620   5.932  11.964  0.0495  0.1631 -0.0261
15578PP      PP25682   9.335  13.506   0.747  0.0644 -0.0593 -0.1912
15579PP      PP25683   3.716  14.714   3.805  0.1818  0.0041  0.1126
15580PP      PP25684   9.558  14.383   2.365  0.0011 -0.1136 -0.1602
15581PP      PP25685   5.048   4.992   1.513 -0.2601 -0.2924  0.3230
15582PP      PP25686   3.667  14.867   2.180  0.1299 -0.1018  0.0230
15583PP      PP25687  15.620   5.037   8.055 -0.0275  0.1604  0.0788
15584PP      PP25688  11.294  11.424   0.055  0.2496 -0.0512  0.0309
15585PP      PP25689   1.612   4.424  13.533  0.0291 -0.0968 -0.1441
15586PP      PP25690  11.491   9.992  10.377  0.3402  0.0468  0.1883
15587PP      PP25691   4.185  15.406  11.781 -0.1203  0.0642 -0.1084
15588PP      PP25692   0.950   0.844   0.728 -0.3273  0.4335 -0.0338
15589PP      PP25693  15.322  13.201   2.170  0.1151  0.0827  0.0958
15590PP      PP25694  14.812  10.943   3.161  0.2919  0.0033 -0.1311
15591PP      PP25695   9.734   2.320  11.747 -0.0178  0.2353 -0.1840
15592PP      PP25696  14.639   7.383   4.303 -0.2540 -0.0545  0.5253
15593PP      PP25697  10.701   6.245  10.706  0.1458  0.0722 -0.0995
15594PP      PP25698   6.037  14.444   4.597 -0.2577  0.0182 -0.2140
15595PP      PP25699  11.227  11.808   2.764 -0.0756  0.0730 -0.1450
15596PP      PP25700  10.070  10.425  12.971  0.1066  0.0923 -0.1773
15597PP      PP25701  11.778   7.818  10.349 -0.2138 -0.2388  0.0661
15598PP      PP25702   1.996  14.038   0.923  0.3172  0.1668 -0.0727
15599PP      PP25703  11.740  11.949   2.928  0.0646 -0.1263 -0.3210
15600PP      PP25704   6.642   1.540   8.644  0.0256  0.1500 -0.0348
15601PP      PP25705   3.749  10.638  12.078  0.1621 -0.2899  0.0471
15602PP      PP25706   8.190   8.116  12.711  0.0776  0.0395  0.0399
15603PP      PP25707   9.673  10.180  11.018  0.1166 -0.2185 -0.6130
15604PP      PP25708  13.438   6.293   2.121  0.0583  0.1456 -0.2839
15605PP      PP25709   5.552  10.263   4.032  0.1049 -0.0125  0.3779
15606PP      PP25710   1.873   1.136   4.424 -0.2549 -0.2472  0.1037
15607PP      PP25711   7.815   6.609   9.358  0.0091 -0.0713  0.0524
15608PP      PP25712  12.333   1.171   0.343 -0.0857  0.0614 -0.0189
15609PP      PP25713   7.198   7.149   9.799 -0.1852  0.0109  0.0422
15610PP      PP25714   7.022  11.553   3.313 -0.2172  0.2683 -0.2537
15611PP      PP25715   3.819   1.741  12.310 -0.0799 -0.0564  0.1560
15612PP      PP25716  10.599  12.207   8.577  0.1152  0.2377 -0.1156
15613PP      PP25717   5.941   4.147  11.711 -0.3507  0.3639 -0.0893
15614PP      PP25718   0.919   2.887  10.752  0.1908  0.1681 -0.2070
15615PP      PP25719  15.348   6.652   1.015  0.1694 -0.2058 -0.3434
15616PP      PP25720  13.259   7.057  13.004  0.0925 -0.0757 -0.0028
15617PP      PP25721   0.284   5.687   1.785  0.0610 -0.3963  0.1894
15618PP      PP25722  13.997  11.671  12.191  0.1091 -0.2202  0.2293
15619PP      PP25723   6.032  11.238   3.267 -0.2353 -0.1465 -0.5421
15620PP      PP25724   7.650   3.652   4.293 -0.0511 -0.1387  0.0497
15621PP      PP25725  11.984  13.012   0.735  0.0695 -0.0201 -0.0341
15622PP      PP25726   2.506   2.242   0.163  0.1075 -0.0664  0.0944
15623PP      PP25727  13.628  14.332   2.154 -0.1598 -0.2048 -0.0249
15624PP      PP25728   3.665  12.369  13.363  0.2335  0.3908  0.0285
15625PP      PP25729  13.819   5.285   3.088  0.1240 -0.0122  0.2490
15626PP      PP25730  12.113   3.676   2.601  0.0005  0.1327  0.0999
15627PP      PP25731   6.801   0.191   3.902 -0.2753  0.3746 -0.1205
15628PP      PP25732   6.944   7.842   2.392 -0.4933  0.1608  0.0279
15629PP      PP25733   4.909   0.766  11.501 -0.1350  0.2353 -0.2162
15630PP      PP25734   0.030   2.030  13.354  0.1585  0.1050  0.0062
15631PP      PP25735   8.344   7.180  10.228  0.1682 -0.0381 -0.1862
15632PP      PP25736   5.912   7.616   9.206  0.0812 -0.5052 -0.2880
15633PP      PP25737  14.149  13.251   9.618  0.1668  0.0736  0.0187
15634PP      PP25738  10.177  12.159  11.831 -0.0821 -0.1762 -0.2218
15635PP      PP25739  12.395   6.552   2.846 -0.0358  0.0978  0.0474
15636PP      PP25740   3.528   3.179  10.592 -0.0426  0.2264 -0.0378
15637PP      PP25741   6.457  12.792   1.143 -0.2070  0.0858 -0.1842
15638PP      PP25742   7.650  14.714  10.273  0.0297 -0.1364  0.0573
15639PP      PP25743  10.091   9.710   2.836  0.1115 -0.0760 -0.1225
15640PP      PP25744   0.244   6.717   3.934 -0.0525 -0.3118  0.1007
15641PP      PP25745  13.882   9.017   4.137 -0.0226  0.2688 -0.0915
15642PP      PP25746  10.445   9.417   3.053  0.3098 -0.0650  0.1189
15643PP      PP25747  11.506  13.566   3.176  0.0512 -0.0069  0.1130
15644PP      PP25748   7.971   2.607   0.537 -0.2772 -0.1850 -0.2825
15645PP      PP25749  14.934   8.914   9.228  0.1901  0.1108 -0.5236
15646PP      PP25750   6.540  12.149  10.094  0.0269 -0.1123  0.1012
15647PP      PP25751   1.825  10.372   1.692  0.2017  0.1343  0.0472
15648PP      PP25752   9.688  14.678  12.126 -0.0262 -0.0082  0.1280
15649PP      PP25753   8.896   8.070  12.048  0.2773 -0.1060 -0.2788
15650PP      PP25754   2.241   1.374   3.465 -0.1588 -0.1282  0.2419
15651PP      PP25755   1.176   8.670   3.218 -0.1873  0.1174 -0.3520
15652PP      PP25756   8.688  14.604  13.016 -0.0208 -0.1554 -0.0552
15653PP      PP25757   4.954   3.822   8.333 -0.0004 -0.0734  0.0909
15654PP      PP25758   9.240  12.731   5.104  0.1030  0.3096  0.0300
15655PP      PP25759   2.601   5.041  10.026 -0.0361 -0.0493 -0.0377
15656PP      PP25760  14.114  14.019  11.424  0.2011 -0.0429 -0.1033
15657PP      PP25761   4.596   1.252  11.369 -0.0707 -0.1271 -0.0043
15658PP      PP25762   9.993  13.791   9.506 -0.2793  0.0809 -0.2209
15659PP      PP25763   6.435   6.232   1.355 -0.0945  0.0914  0.1267
15660PP      PP25764   8.332   3.515   3.602  0.0847  0.0016 -0.1169
15661PP      PP25765  11.284   4.626   0.345 -0.1662 -0.1660  0.0875
15662PP      PP25766   8.790  13.605   9.777 -0.2383 -0.0282  0.1258
15663PP      PP25767   6.101  11.915   0.856 -0.0653 -0.1603 -0.1676
15664PP      PP25768   7.861   2.370   1.327  0.3739  0.2369 -0.1472
15665PP      PP25769   5.800   4.276  13.253  0.0146 -0.1833 -0.1228
15666PP      PP25770   1.737   1.733   9.964 -0.0153 -0.2910 -0.2299
15667PP      PP25771   5.320  10.356   5.043 -0.1408 -0.3038 -0.0065
15668PP      PP25772   0.011  12.638   9.124  0.2949  0.0301  0.0634
15669PP      PP25773   1.088   4.380   4.084 -0.2444 -0.1215  0.0194
15670PP      PP25774  10.145   5.195   2.208 -0.0430  0.3932 -0.1485
15671PP      PP25775   7.522   9.574   9.861  0.3502 -0.2273  0.0250
15672PP      PP25776   2.030   3.329   3.677  0.0709  0.0064  0.1814
15673PP      PP25777  13.969  15.703   2.898  0.1792  0.0927 -0.1355
15674PP      PP25778   9.795  10.076   2.452 -0.0904  0.1680 -0.1197
15675PP      PP25779  10.186   1.926   3.691  0.0378  0.1861  0.1766
15676PP      PP25780  12.528   6.145   0.826 -0.0778 -0.0376  0.2470
15677PP      PP25781   5.004   2.733   1.561  0.0193  0.0784  0.0258
15678PP      PP25782   7.661   0.948  12.582 -0.1341 -0.0041  0.2238
15679PP      PP25783   3.171   4.555   0.603 -0.0985  0.0662 -0.1760
15680PP      PP25784   5.936  12.975   3.676  0.4543 -0.1704 -0.1310
15681PP      PP25785   7.340   0.467  12.140  0.0221 -0.0255  0.1168
15682PP      PP25786  15.206   9.640   2.855  0.3027  0.1236  0.1451
15683PP      PP25787  13.073   9.714  10.309 -0.1368  0.2911 -0.0812
15684PP      PP25788   3.043   6.616  10.025 -0.3647  0.0814  0.2044
15685PP      PP25789   1.828  12.666   2.202  0.1747  0.1561  0.1719
15686PP      PP25790   6.637   2.408   2.039 -0.1762  0.0779  0.2626
15687PP      PP25791   6.951   7.723   3.185  0.1659  0.1011  0.0512
15688PP      PP25792   5.794  15.696   2.390  0.2175 -0.0396 -0.1214
15689PP      PP25793   3.850   3.812   2.401  0.3131 -0.1040 -0.3630
15690PP      PP25794   3.722   6.455  11.274  0.0655 -0.1829  0.1752
15691PP      PP25795   4.009  13.014  10.265 -0.3138 -0.0941 -0.1937
15692PP      PP25796  13.856   0.349   3.661  0.4036 -0.3022 -0.0635
15693PP      PP25797   1.083   4.239  10.013  0.0974 -0.0215 -0.0067
15694PP      PP25798  11.864   8.282   1.304 -0.3141  0.2479  0.0189
15695PP      PP25799   3.395  10.485   1.237  0.0641  0.1641  0.1936
15696PP      PP25800   0.050   1.473  13.078 -0.0797 -0.3348  0.2324
15697PP      PP25801  12.977   0.816  10.776 -0.1180 -0.0720 -0.0790
15698PP      PP25802   3.484   2.405   2.694  0.1928  0.0503  0.0799
15699PP      PP25803   0.358   0.279   4.608  0.2838 -0.1811 -0.0261
15700PP      PP25804   5.488   0.251  12.543 -0.0877 -0.2241 -0.0520
15701PP      PP25805  10.792   8.849   9.518  0.1873  0.1148  0.0866
15702PP      PP25806   8.810  14.741   9.006 -0.1003  0.0328 -0.0907
15703PP      PP25807  15.290  13.493   0.417 -0.3281  0.1547  0.0723
15704PP      PP25808   9.363  12.518  12.389 -0.2676 -0.1303 -0.1167
15705PP      PP25809  10.143   8.306  11.916  0.1458  0.4201 -0.3313
15706PP      PP25810   8.268  11.184  10.949  0.0369  0.2090  0.0816
15707PP      PP25811   6.878   4.625  11.976  0.1432  0.1871 -0.0362
15708PP      PP25812  11.668  12.360  12.580 -0.4118 -0.2098  0.2337
15709PP      PP25813   8.136  11.268   3.411 -0.1857 -0.0831  0.3845
15710PP      PP25814  14.831   0.267  11.078  0.0570  0.0510 -0.1380
15711PP      PP25815  14.306  13.493   0.693  0.0407 -0.0339  0.2918
15712PP      PP25816   8.799   1.955  10.366  0.0276 -0.3368 -0.0411
15713PP      PP25817   7.038  10.602   1.086 -0.1061 -0.0809  0.0485
15714PP      PP25818   9.763  10.531  10.733  0.0065 -0.1526  0.0424
15715PP      PP25819   6.862   0.491   3.379 -0.0147 -0.0937 -0.2119
15716PP      PP25820   4.976   9.359   1.980  0.0162 -0.1140  0.0849
15717PP      PP25821   4.232   0.380   0.571 -0.1147  0.0249  0.0575
15718PP      PP25822   8.659   0.342   1.917 -0.0552 -0.1179 -0.0061
15719PP      PP25823   7.409  12.169  12.466 -0.0778  0.0533  0.2372
15720PP      PP25824  13.964  10.444  11.250 -0.3030 -0.2424 -0.0342
15721PP      PP25825   9.584  14.264   0.372  0.1485 -0.3906 -0.0195
15722PP      PP25826   0.904  12.922  11.857  0.0163  0.1380  0.0929
15723PP      PP25827  10.531   3.594  12.398 -0.2988 -0.2537  0.3925
15724PP      PP25828   8.414   5.115   9.781 -0.0069  0.1656 -0.0023
15725PP      PP25829   5.961   1.236   0.505  0.3470  0.0264  0.1453
15726PP      PP25830  11.004   4.606   1.365 -0.1672  0.2082  0.1989
15727PP      PP25831   5.113  13.486   1.766  0.0135  0.1623  0.0834
15728PP      PP25832   3.237   3.620   9.037  0.2780  0.2039  0.1183
15729PP      PP25833   3.574   1.857   3.942  0.1201 -0.2456 -0.1938
15730PP      PP25834  14.325   6.082  10.859 -0.3508 -0.0614  0.0293
15731PP      PP25835  12.038  15.406  12.706 -0.0123  0.1342 -0.0238
15732PP      PP25836  12.189   2.473  11.785  0.0615 -0.0647 -0.1155
15733PP      PP25837   1.051  14.849  12.051 -0.3735  0.1387  0.1834
15734PP      PP25838  12.120  13.553   1.446 -0.1618 -0.1276 -0.0795
15735PP      PP25839  11.210   1.552   3.794  0.0220  0.2093  0.1123
15736PP      PP25840   4.970   0.013   9.606 -0.3666 -0.3597 -0.0840
15737PP      PP25841   5.760   8.756   9.588 -0.0415  0.0677 -0.0695
15738PP      PP25842   5.242   5.182  12.665  0.0960  0.2229 -0.2519
15739PP      PP25843   9.399  10.859  11.606 -0.2378 -0.1318  0.0212
15740PP      PP25844   8.270   1.592   0.943 -0.1037  0.1086 -0.2098
15741PP      PP25845  13.492   8.478   3.389 -0.0504 -0.2120  0.2177
15742PP      PP25846   0.819   5.483  11.597  0.0075 -0.4025  0.3161
15743PP      PP25847   8.289   8.932  10.040 -0.3390  0.0444 -0.0725
15744PP      PP25848   6.193   7.795   0.585  0.3096 -0.2813 -0.0603
15745PP      PP25849   4.761  14.531   3.294 -0.3823  0.1212 -0.1883
15746PP      PP25850  15.457   3.571  10.167 -0.2836  0.1520 -0.1456
15747PP      PP25851   8.403   2.968   9.686  0.1083  0.1309 -0.0386
15748PP      PP25852  10.058  11.796  12.126  0.0952 -0.1962 -0.1323
15749PP      PP25853  11.598   1.563  13.697  0.1104 -0.0316  0.3564
15750PP      PP25854   5.337   0.474   1.675 -0.0210 -0.2310 -0.3988
15751PP      PP25855   9.422   3.703   0.133 -0.4060  0.0913 -0.1288
15752PP      PP25856   6.932  14.173   1.783 -0.0312 -0.0469 -0.1919
15753PP      PP25857   1.353   4.859   2.883 -0.1688  0.0729  0.3183
15754PP      PP25858   0.713  13.773   2.395 -0.1084  0.3346 -0.0957
15755PP      PP25859   5.092   0.483   9.200 -0.0159 -0.0125 -0.1696
15756PP      PP25860   9.827  12.497  12.138  0.4191  0.0010 -0.0533
15757PP      PP25861   2.176   5.060   1.922  0.1271  0.2028  0.1440
15758PP      PP25862   5.769   0.728  10.308 -0.1551  0.0256 -0.0842
15759PP      PP25863   1.719  12.012   9.298  0.2767 -0.1413 -0.0877
15760PP      PP25864   9.746   8.201   0.350 -0.1107  0.1408  0.2810
15761PP      PP25865   7.481  15.155   1.332  0.0728  0.1122  0.1301
15762PP      PP25866  14.783   9.353  10.592 -0.0273 -0.1292  0.1289
15763PP      PP25867   9.715   4.322  10.913  0.0573 -0.0030  0.4460
15764PP      PP25868   9.279   9.304  12.962  0.1342 -0.1004 -0.1387
15765PP      PP25869   5.271   6.480   9.060  0.0846  0.3095  0.1302
15766PP      PP25870  10.046   7.253  12.352  0.3548 -0.2510 -0.0956
15767PP      PP25871   5.123   8.325  13.482  0.2855 -0.0130 -0.0767
15768PP      PP25872   2.954   9.897   5.350  0.1505 -0.1004 -0.1510
15769PP      PP25873   2.292  10.645   1.432  0.0695 -0.0308 -0.3220
15770PP      PP25874   5.616  13.007  11.334  0.1574  0.2808 -0.1175
15771PP      PP25875  15.367  14.386   4.181 -0.1860 -0.1378 -0.2196
15772PP      PP25876  10.825  12.882  10.722  0.2941 -0.0340  0.2469
15773PP      PP25877   3.723   6.411   2.924 -0.0633 -0.1064 -0.2733
15774PP      PP25878   7.635   6.887  12.712 -0.0188  0.2986  0.0682
15775PP      PP25879   2.230   9.324   1.284  0.0728  0.0435 -0.2983
15776PP      PP25880  14.353   5.009   0.292 -0.1079 -0.0146 -0.4515
15777PP      PP25881  14.235   6.055   1.876  0.0505 -0.0206  0.2549
15778PP      PP25882   3.509  15.435   0.156  0.0232  0.0027 -0.0234
15779PP      PP25883   9.131   0.616   2.743  0.0665  0.2548  0.1383
15780PP      PP25884   3.232  14.687  13.469  0.5044  0.1669  0.0863
15781PP      PP25885  15.080   3.947   8.300  0.1680 -0.2418  0.0271
15782PP      PP25886   6.708  12.416   5.419 -0.0495 -0.0109 -0.1772
15783PP      PP25887  11.179   4.100  12.271 -0.0855 -0.0149  0.3692
15784PP      PP25888   7.244   5.572   3.065  0.0127  0.1292 -0.0518
15785PP      PP25889  10.227   3.070   1.353 -0.0999 -0.1746 -0.1048
15786PP      PP25890  12.244   8.071   2.276 -0.1294 -0.1610  0.1699
15787PP      PP25891   9.684   4.230   2.656  0.1444 -0.1736 -0.2976
15788PP      PP25892   2.777  15.567  13.229 -0.3879 -0.2375 -0.1534
15789PP      PP25893   4.651   1.162   0.918 -0.1705 -0.3153  0.1444
15790PP      PP25894   8.707   0.172  12.669  0.3041  0.1270 -0.1405
15791PP      PP25895  13.408   5.609  12.237 -0.0176  0.0863 -0.1935
15792PP      PP25896  10.859   4.481  13.261  0.2548  0.2679 -0.0579
15793PP      PP25897  13.256   6.943  10.771 -0.2148 -0.4153 -0.2882
15794PP      PP25898   9.445  13.097   1.996  0.3245  0.2381 -0.2055
15795PP      PP25899  14.186   0.207   3.247  0.0769 -0.1727 -0.0069
15796PP      PP25900   1.425   5.854   3.817  0.2630 -0.0303 -0.0211
15797PP      PP25901   2.253   8.868   4.446 -0.0781 -0.0211  0.0025
15798PP      PP25902  14.536   0.972  11.858 -0.3106  0.2034  0.1881
15799PP      PP25903  15.273   0.892   1.702  0.3041  0.1755  0.3665
15800PP      PP25904   4.247   5.822  12.827  0.0862 -0.0850  0.1509
15801PP      PP25905   0.941  15.087  10.745 -0.1919 -0.3223 -0.1057
15802PP      PP25906  13.233   5.383   0.064  0.0835  0.2775 -0.1572
15803PP      PP25907  10.744  11.001   8.716  0.0962 -0.1164  0.1374
15804PP      PP25908  12.535   9.794  10.977 -0.1598 -0.1432 -0.1239
15805PP      PP25909   3.023   9.639  12.855  0.0193  0.0543  0.2008
15806PP      PP25910   2.001  12.536   4.927  0.0526 -0.1241  0.1375
15807PP      PP25911   7.782   7.156  10.879  0.3331  0.0399 -0.3640
15808PP      PP25912   9.703   1.179  13.582  0.0495  0.0432 -0.1038
15809PP      PP25913   8.978   5.547   2.491  0.2088  0.4788  0.3450
15810PP      PP25914   6.160   2.012  12.548  0.2163  0.2594 -0.0243
15811PP      PP25915  13.027   4.372  10.489  0.1154 -0.2299  0.1043
15812PP      PP25916  11.786   4.732   1.506  0.1335  0.0396  0.0099
15813PP      PP25917   6.335  13.618   0.747 -0.1783  0.3504  0.0986
15814PP      PP25918  11.559  10.635   3.840  0.3863 -0.1178 -0.1071
15815PP      PP25919   3.376   1.333   3.955  0.0942 -0.1276 -0.0518
15816PP      PP25920  11.476   1.900   9.217 -0.0225 -0.1226  0.2735
15817PP      PP25921   0.670   0.577   1.666  0.1797 -0.0369  0.1746
15818PP      PP25922   6.512  13.077   3.690 -0.3421  0.1365 -0.1547
15819PP      PP25923   4.435   3.129  11.405  0.3651  0.1290 -0.0855
15820PP      PP25924  14.920   8.570   1.608  0.0673 -0.0434  0.2798
15821PP      PP25925   3.855   4.230   3.750 -0.1479  0.0343  0.3430
15822PP      PP25926   5.799   9.727   1.775 -0.2694 -0.0165 -0.1278
15823PP      PP25927  15.057   4.354   1.560  0.0808  0.0323  0.0050
15824PP      PP25928  11.857   5.777   1.862  0.1740 -0.0197  0.0579
15825PP      PP25929  14.431   2.109  12.885  0.1080  0.0243 -0.0624
15826PP      PP25930  14.164   7.205   1.207 -0.3601 -0.2004 -0.0708
15827PP      PP25931   6.600   2.354   3.974 -0.0982 -0.1687 -0.1093
15828PP      PP25932   4.330   3.800   2.284 -0.0137  0.2645  0.2213
15829PP      PP25933   0.352  12.361  10.618  0.1346 -0.1146  0.0226
15830PP      PP25934  12.375   0.588  12.087 -0.1032 -0.0379 -0.0414
15831PP      PP25935  13.911   4.325  13.130 -0.1094 -0.3324 -0.2577
15832PP      PP25936  15.726   2.598  11.145  0.2746  0.1434  0.0637
15833PP      PP25937  10.733  10.428   3.617  0.0827  0.2504  0.1472
15834PP      PP25938   8.456   3.496   2.975  0.2058 -0.0162 -0.0777
15835PP      PP25939  13.980   6.690   0.719 -0.0764  0.0608  0.0471
15836PP      PP25940   0.732   3.917   4.662  0.0682 -0.0322 -0.2817
15837PP      PP25941  15.286   1.869  13.391  0.2909  0.0775  0.1301
15838PP      PP25942   9.062   7.349  11.321 -0.2763 -0.2471  0.2122
15839PP      PP25943  14.095   3.215   9.584 -0.3898  0.0286  0.1743
15840PP      PP25944  12.872   2.509   1.272 -0.1441 -0.0984  0.3845
15841PP      PP25945   5.250   3.127   2.966  0.1152  0.2862 -0.2198
15842PP      PP25946  10.923  14.471  11.479 -0.0669  0.2952  0.0276
15843PP      PP25947  14.697   3.660   2.494 -0.1496 -0.1493 -0.1053
15844PP      PP25948   2.756   2.677   9.652 -0.1610  0.0969 -0.1676
15845PP      PP25949   1.111   8.677  11.070  0.2081  0.0729  0.0920
15846PP      PP25950  10.849   4.140   3.560  0.0105 -0.0229 -0.0937
15847PP      PP25951  14.376   8.062  11.717  0.2084  0.2061 -0.0000
15848PP      PP25952   5.429   1.556  10.120 -0.0480 -0.0941 -0.1284
15849PP      PP25953   4.146   4.198   0.229 -0.2168 -0.1756  0.1207
15850PP      PP25954   3.834  11.601  12.784 -0.0719  0.1054  0.1900
15851PP      PP25955   4.011   6.014   2.503 -0.2450 -0.0342  0.0191
15852PP      PP25956   7.993  15.557   3.179 -0.1546  0.3603  0.0069
15853PP      PP25957   7.307   0.742   9.808  0.2736 -0.0421  0.1360
15854PP      PP25958   4.778   9.883   1.974 -0.2376  0.0042 -0.1038
15855PP      PP25959   6.025   9.767   4.632 -0.2859  0.2155 -0.2910
15856PP      PP25960   8.636   3.582   2.462  0.0155 -0.1250  0.1900
15857PP      PP25961   7.267   5.445  12.546  0.0219  0.1810 -0.1812
15858PP      PP25962   8.567   3.143   9.231  0.2157  0.3033 -0.0053
15859PP      PP25963   6.451   9.809  11.219  0.0933  0.0200  0.1146
15860PP      PP25964   6.425   7.405   1.844  0.1609 -0.0946 -0.0253
15861PP      PP25965   8.046  14.721  13.529  0.0735 -0.1670 -0.1249
15862PP      PP25966  13.687   0.404   2.697 -0.2429  0.3590 -0.2400
15863PP      PP25967   1.362   4.805  13.524  0.2912 -0.1075 -0.0505
15864PP      PP25968   1.703  11.521  11.330 -0.1875 -0.1136  0.2104
15865PP      PP25969   1.573  13.098   9.895 -0.1914 -0.0586  0.1471
15866PP      PP25970   7.713   6.598   3.551  0.1788  0.0659  0.3636
15867PP      PP25971  14.595   0.214   2.199 -0.0389  0.2079 -0.2417
15868PP      PP25972  11.733   0.525   4.016  0.1701 -0.1683  0.2780
15869PP      PP25973   9.104   9.516   8.931  0.0495  0.1666  0.1992
15870PP      PP25974  12.379  11.976   0.337  0.0280 -0.4089  0.1915
15871PP      PP25975  15.484  14.733  12.108  0.0140 -0.0250  0.1106
15872PP      PP25976   9.789  11.280   0.787  0.0267 -0.3236 -0.0504
15873PP      PP25977   1.435  15.614   0.066 -0.2918 -0.3395 -0.1579
15874PP      PP25978   6.788   5.198   1.442  0.0457  0.0859  0.2254
15875PP      PP25979   1.738  11.656   2.967 -0.0562  0.0121  0.2898
15876PP      PP25980   9.387   7.332   9.560  0.0947 -0.3168  0.1732
15877PP      PP25981   8.693   8.671  10.983 -0.1056  0.1998 -0.1019
15878PP      PP25982   3.117   8.789  12.414  0.1449 -0.1131 -0.2852
15879PP      PP25983   2.602   7.835  10.177  0.0764 -0.2933 -0.1488
15880PP      PP25984  13.712   0.915  12.381 -0.1177  0.2468  0.0991
15881PP      PP25985   0.670   2.033   1.836  0.2228 -0.0817 -0.0593
15882PP      PP25986   4.705   2.402   0.644 -0.0364 -0.0850  0.0963
15883PP      PP25987   3.635   6.919   0.540  0.0669 -0.1075  0.0942
15884PP      PP25988   6.611   9.223  13.612  0.2416 -0.0775 -0.2778
15885PP      PP25989   1.421   1.198   9.601 -0.0676  0.6352 -0.1082
15886PP      PP25990  13.688  11.970  11.842 -0.0658 -0.0502 -0.1270
15887PP      PP25991   0.430   8.526   8.888 -0.0123 -0.0450 -0.5737
15888PP      PP25992   9.764  10.042   1.079  0.1124  0.0627 -0.2468
15889PP      PP25993  11.247   8.670   8.822  0.1631 -0.0062 -0.0994
15890PP      PP25994   2.268   8.061   3.107 -0.4136 -0.0835  0.0470
15891PP      PP25995   1.103   7.311   3.574 -0.2820 -0.1155  0.3072
15892PP      PP25996  11.292   4.005   9.112  0.1350 -0.0754  0.2995
15893PP      PP25997  14.168  13.054   4.381  0.2357 -0.0085 -0.0475
15894PP      PP25998  10.560  15.459  11.180  0.3638  0.2400 -0.0567
15895PP      PP25999   0.570  13.703  12.747 -0.1586 -0.0621  0.1102
15896PP      PP26000  15.490  11.890   1.365 -0.1545  0.0513 -0.0146
15897PP      PP26001  10.781   0.618   9.532 -0.0819 -0.3345 -0.4499
15898PP      PP26002   7.495   8.645  12.441  0.0204  0.1110 -0.1565
15899PP      PP26003  10.357  13.361  12.881  0.1929 -0.0692 -0.0785
15900PP      PP26004   5.607  14.479  12.900 -0.0871  0.2195  0.0704
15901PP      PP26005   0.787   4.778   9.266  0.0517  0.0468 -0.1159
15902PP      PP26006  15.381  12.100   0.907  0.2957 -0.1529 -0.3540
15903PP      PP26007  14.717   0.779  12.413  0.1627 -0.0555 -0.1010
15904PP      PP26008   9.052   3.948   1.025 -0.0571  0.0634  0.0220
15905PP      PP26009  11.444   6.678   3.256 -0.1068 -0.4310 -0.1233
15906PP      PP26010  13.939  10.949  10.514  0.2183 -0.2570 -0.1945
15907PP      PP26011  15.073   0.356  13.194 -0.0982 -0.1826  0.2296
15908PP      PP26012  11.078   4.725   0.837 -0.0789  0.0988  0.1377
15909PP      PP26013   6.887  13.269  11.232  0.0997 -0.1228 -0.1723
15910PP      PP26014   3.669   9.380  10.805  0.0428 -0.3730 -0.0234
15911PP      PP26015  10.815   0.360   0.839 -0.1908 -0.1904 -0.1605
15912PP      PP26016   7.749  15.043   9.249 -0.0919  0.2418 -0.0603
15913PP      PP26017   1.860  13.092  10.792 -0.1845 -0.1166 -0.1623
15914PP      PP26018   3.429   3.867   0.040 -0.0898  0.3170  0.1018
15915PP      PP26019  14.526  12.678  11.734  0.0297 -0.1573 -0.1397
15916PP      PP26020   3.230   0.342   2.013 -0.1915  0.3118  0.3335
15917PP      PP26021   6.629  14.155   0.260 -0.6060 -0.1631  0.2544
15918PP      PP26022   1.339   5.439   0.829 -0.1620  0.0783  0.0480
15919PP      PP26023   3.889   3.803   2.959 -0.1491 -0.0181 -0.2362
15920PP      PP26024   4.922   5.057  11.278  0.0242 -0.0004  0.1646
15921PP      PP26025   5.623  13.599  11.823 -0.3784 -0.2891  0.0177
15922PP      PP26026   1.021   5.768   0.012 -0.2984 -0.2179 -0.1362
15923PP      PP26027  11.341  15.263   8.914 -0.3274 -0.1541 -0.1819
15924PP      PP26028  14.595   6.423   9.329  0.0027 -0.1042  0.2084
15925PP      PP26029   4.414   6.176  13.161 -0.1104 -0.1272 -0.0795
15926PP      PP26030   4.576   7.621   3.366 -0.1178 -0.0713 -0.1477
15927PP      PP26031  13.095  10.863  12.575 -0.1392 -0.2448  0.3029
15928PP      PP26032   0.271   2.197   1.055 -0.4893  0.1361  0.1153
15929PP      PP26033   5.897  12.796   9.116 -0.1430  0.1567  0.1151
15930PP      PP26034   4.666   3.662   3.629  0.0410  0.0785  0.1475
15931PP      PP26035   0.294  11.090  12.299 -0.1341  0.1065 -0.2708
15932PP      PP26036   0.905  12.793  12.334  0.0430 -0.2776 -0.1012
15933PP      PP26037   1.669  14.927  13.409 -0.3271  0.0522 -0.0600
15934PP      PP26038  14.831   4.140   1.974 -0.2518  0.1633 -0.2892
15935PP      PP26039   1.933   0.768   1.889 -0.1190  0.2515  0.2520
15936PP      PP26040  15.130  10.806   4.410 -0.1715  0.2272  0.2807
15937PP      PP26041   4.933  10.389   0.934 -0.0003 -0.0956  0.2382
15938PP      PP26042  10.680   6.074   9.297  0.1760  0.0373 -0.0346
15939PP      PP26043   3.848   8.998  10.398  0.4203 -0.0718 -0.1593
15940PP      PP26044   8.388  12.251   2.547 -0.0190  0.4808  0.3808
15941PP      PP26045   9.728   7.176   9.205  0.0666  0.2886  0.2078
15942PP      PP26046   2.308   6.240   3.249 -0.1335 -0.0861  0.0778
15943PP      PP26047   9.763   8.936  12.303  0.2373  0.0286  0.0333
15944PP      PP26048  13.731  14.685  13.371 -0.3165  0.0090 -0.0770
15945PP      PP26049   6.243   3.682   3.273  0.0339  0.1367 -0.0988
15946PP      PP26050   6.362   1.433  12.673 -0.0184 -0.3491 -0.1386
15947PP      PP26051   9.256   3.960  12.256 -0.2772  0.0794  0.0201
15948PP      PP26052  10.995   7.971   9.828 -0.1297  0.3590  0.0676
15949PP      PP26053   1.998   4.753   9.905  0.0459  0.0967  0.1346
15950PP      PP26054  14.195   2.939   4.054  0.0033 -0.3616  0.2146
15951PP      PP26055   6.927   5.474  11.233 -0.2385 -0.2172  0.0121
15952PP      PP26056  11.205   8.866   3.116 -0.2275 -0.0022 -0.1972
15953PP      PP26057  12.082   8.278  10.015  0.2167 -0.0616 -0.3043
15954PP      PP26058   7.902   0.210   3.504 -0.3215 -0.1401  0.0429
15955PP      PP26059  11.616  14.411  12.129 -0.1393  0.1967  0.0545
15956PP      PP26060   3.036   5.936  11.363  0.0924  0.1716  0.0099
15957PP      PP26061   4.948   7.545   0.285  0.2520  0.4154  0.4884
15958PP      PP26062   1.575  12.508   2.561  0.0008  0.0089  0.3216
15959PP      PP26063   4.662   7.585   2.132 -0.0041  0.0983 -0.1624
15960PP      PP26064  15.415   4.019  11.597 -0.2294  0.1785 -0.1327
15961PP      PP26065   9.135   8.799   1.621 -0.0142 -0.2222  0.2240
15962PP      PP26066  10.314   3.207  10.343 -0.0244 -0.2794 -0.0795
15963PP      PP26067  14.480  12.351   1.961 -0.0253 -0.1374  0.2392
15964PP      PP26068  11.318   2.521   9.717  0.1230  0.1212 -0.3380
15965PP      PP26069   5.674   6.515  11.789 -0.0953  0.0553 -0.0663
15966PP      PP26070  15.696   1.132   0.789 -0.1373 -0.1975 -0.0240
15967PP      PP26071   3.611   9.447  12.073  0.0510 -0.0255  0.2527
15968PP      PP26072   2.147   1.400   0.921  0.2017 -0.1756 -0.1227
15969PP      PP26073  14.627  10.759   2.566  0.0166  0.0836 -0.3090
15970PP      PP26074  12.527  13.552   1.201 -0.3832  0.0604 -0.2454
15971PP      PP26075   9.991   1.820   9.541 -0.2119  0.0989 -0.1351
15972PP      PP26076   2.194   2.717   2.673  0.1082 -0.1497 -0.1054
15973PP      PP26077  13.384   0.072   2.851 -0.0646  0.1287 -0.0041
15974PP      PP26078  11.586  12.877   9.556  0.0441  0.1228 -0.0785
15975PP      PP26079   6.378   2.303  13.428 -0.0685  0.0965  0.0538
15976PP      PP26080  13.239   1.383   9.187  0.3399 -0.1684  0.0829
15977PP      PP26081  15.003   2.987   2.384  0.1546  0.0935  0.3220
15978PP      PP26082  10.860   7.199  11.730  0.0573  0.2131 -0.4103
15979PP      PP26083   9.343   1.786  12.300 -0.0983  0.1502 -0.0278
15980PP      PP26084   6.029   3.768  12.490 -0.2284  0.3189  0.1784
15981PP      PP26085  12.075  11.191   2.153 -0.2218  0.2274 -0.2645
15982PP      PP26086  12.308  12.657   0.957 -0.0496  0.0059  0.1396
15983PP      PP26087   1.988   2.610  11.333  0.1840  0.2131  0.0215
15984PP      PP26088   6.973   2.323  11.009 -0.0917  0.0600 -0.0093
15985PP      PP26089   4.086   2.995   0.529 -0.2802  0.0574 -0.1407
15986PP      PP26090   8.421  13.227   2.169  0.3488 -0.1234 -0.0392
15987PP      PP26091  10.219   2.235  13.182  0.4818  0.0165  0.1647
15988PP      PP26092   6.881  15.244  12.960 -0.0877 -0.0671 -0.0619
15989PP      PP26093   8.906   3.723   9.340 -0.0228  0.0625 -0.1776
15990PP      PP26094  14.128  14.375   3.325  0.2720  0.2035 -0.1496
15991PP      PP26095   1.408  12.564   5.084 -0.2956  0.0384 -0.2278
15992PP      PP26096   7.975   0.232  10.722  0.1352 -0.4331  0.0997
15993PP      PP26097  13.059   8.088   2.598  0.1577 -0.0905  0.1274
15994PP      PP26098  11.168   7.394  13.408  0.0768 -0.0424 -0.0767
15995PP      PP26099  14.938   7.996   1.338 -0.0248  0.1523  0.2568
15996PP      PP26100  10.518   2.441  13.482  0.0156  0.2873 -0.0196
15997PP      PP26101   5.676   4.977   0.806  0.0426 -0.0759  0.1673
15998PP      PP26102   1.975   8.445  13.585 -0.0837  0.0849 -0.0666
15999PP      PP26103   6.023  10.220   4.257  0.2226 -0.1287  0.3274
16000PP      PP26104   7.010   8.901  10.867 -0.1160 -0.1526 -0.0413
16001PP      PP26105  15.540   2.825   3.233  0.0124  0.3071  0.2139
16002PP      PP26106  15.393  13.031  11.921  0.2715  0.2123  0.2675
16003PP      PP26107  14.580   9.696  12.505 -0.1962 -0.0539 -0.0846
16004PP      PP26108   9.838   5.870   9.425  0.2804  0.0054  0.0076
16005PP      PP26109  12.934  14.414   4.385  0.1218 -0.0720 -0.1912
16006PP      PP26110   5.797   9.107   9.897  0.0382 -0.0614  0.0650
16007PP      PP26111  13.251   9.668  11.214  0.0852 -0.0132  0.2083
16008PP      PP26112  12.924   8.972  12.169  0.0409 -0.1767 -0.0557
16009PP      PP26113  10.089   9.292   9.599  0.0797  0.1525 -0.2063
16010PP      PP26114   3.064   6.230  13.292 -0.1836 -0.1087  0.0999
16011PP      PP26115   9.267  11.891  11.803  0.1281 -0.1057  0.3771
16012PP      PP26116   3.636   5.905   9.121 -0.1465 -0.0863  0.5090
16013PP      PP26117   3.954   9.179  13.464 -0.0434 -0.4098  0.1171
16014PP      PP26118   1.990  14.970   2.871 -0.0344 -0.5167 -0.1955
16015PP      PP26119  12.802  14.210   9.927  0.6459 -0.1726 -0.3499
16016PP      PP26120   1.311   4.379   9.441  0.1460  0.0548 -0.3043
16017PP      PP26121   5.304  12.613  11.824  0.2044 -0.1984 -0.2944
16018PP      PP26122  14.435   3.327  12.534  0.0216  0.3404 -0.0525
16019PP      PP26123   3.377   5.549  12.490 -0.0188  0.2361  0.1466
16020PP      PP26124   5.659   7.619   3.902 -0.1933 -0.0193 -0.2899
16021PP      PP26125   8.946  11.507   2.562  0.2370  0.2680 -0.0436
16022PP      PP26126  13.908   9.704   2.790  0.0674  0.0778 -0.0297
16023PP      PP26127   9.055   2.646  12.886 -0.0028 -0.0360 -0.2585
16024PP      PP26128  14.989   5.166   1.096  0.1423 -0.0279  0.1183
16025PP      PP26129   5.694  14.749  13.399  0.1439  0.1744 -0.0103
16026PP      PP26130  11.808   3.252  10.045  0.1644  0.0132  0.3326
16027PP      PP26131   5.175  12.506   4.708  0.2907  0.3437  0.1421
16028PP      PP26132   0.421   6.920  11.941 -0.1002  0.2498 -0.1110
16029PP      PP26133   3.202  10.398   0.082 -0.0267 -0.0768 -0.2470
16030PP      PP26134  15.234  11.118   1.924 -0.0156  0.1725 -0.1838
16031PP      PP26135  11.999  13.977  13.687 -0.1656  0.1386 -0.2349
16032PP      PP26136   7.986   1.844   9.061 -0.2235 -0.0174 -0.1308
16033PP      PP26137  10.923   3.160   3.786 -0.1199  0.1556 -0.0461
16034PP      PP26138   8.116   6.032  10.086 -0.2104  0.0649 -0.0325
16035PP      PP26139   8.261   1.190   0.207  0.1451 -0.1231 -0.1075
16036PP      PP26140   0.098   8.365  10.087 -0.0814  0.3844  0.3554
16037PP      PP26141   8.882   3.434  11.497  0.1647 -0.4071  0.0451
16038PP      PP26142   0.864   8.283  12.088 -0.2973  0.2884 -0.3515
16039PP      PP26143  15.674   3.559   9.171  0.0340  0.0999 -0.0049
16040PP      PP26144   1.488   7.509  13.069  0.1817 -0.0984  0.1436
16041PP      PP26145  14.107   0.810   2.974 -0.1721 -0.2499 -0.0276
16042PP      PP26146   7.215  10.479  11.755  0.4962  0.1544 -0.0478
16043PP      PP26147   2.978   4.668   1.777  0.2009 -0.1784  0.2657
16044PP      PP26148   0.453   3.413   2.727 -0.3583  0.3914 -0.0751
16045PP      PP26149  13.049   2.778  12.419  0.0959  0.0236 -0.0086
16046PP      PP26150  14.187   0.339   2.677 -0.3091  0.1915  0.1869
16047PP      PP26151   4.518   7.741   4.688 -0.1965  0.2284 -0.2066
16048PP      PP26152   1.168  13.290  12.490  0.0766  0.4038  0.1937
16049PP      PP26153   0.916   6.147   4.559  0.1379  0.2418 -0.3904
16050PP      PP26154   1.371   3.850  11.370  0.1010 -0.1361  0.0054
16051PP      PP26155   6.660   0.668   1.861 -0.1662  0.3241  0.1639
16052PP      PP26156   9.813  14.036   3.331 -0.0567 -0.2126  0.0175
16053PP      PP26157   2.309  11.602   9.958 -0.2696 -0.0144 -0.1041
16054PP      PP26158  12.960  12.992   1.052  0.0841  0.0792  0.0798
16055PP      PP26159  14.244   5.939  13.426 -0.0475  0.0359  0.0253
16056PP      PP26160   6.004   7.227   1.615 -0.1221 -0.2335 -0.0859
16057PP      PP26161   6.264  14.019  10.685 -0.1454  0.1950  0.1953
16058PP      PP26162  10.894  13.537   9.621 -0.0794 -0.1674  0.0776
16059PP      PP26163  15.004   0.517   1.523 -0.1630  0.0956 -0.2197
16060PP      PP26164   4.324   8.629   0.622  0.2701  0.0815 -0.1807
16061PP      PP26165   3.762  10.997  10.312 -0.4333 -0.1042 -0.4580
16062PP      PP26166   9.928   5.556   3.653  0.2234  0.0100  0.1669
16063PP      PP26167   4.201   3.487   0.671  0.0095 -0.2753 -0.1025
16064PP      PP26168  13.726  13.571  12.669 -0.0107  0.1923  0.0458
16065PP      PP26169   6.895   0.310   0.338 -0.0294  0.4049  0.1909
16066PP      PP26170   9.850   7.715  12.651  0.2215  0.2940 -0.1327
16067PP      PP26171   1.517   2.751  12.625  0.1715 -0.0873  0.2074
16068PP      PP26172   0.619   6.345   4.963 -0.2814 -0.0361  0.0032
16069PP      PP26173   0.425   1.491  10.354 -0.0926 -0.4612 -0.1047
16070PP      PP26174   7.161  15.298  12.051 -0.2136 -0.2001  0.0694
16071PP      PP26175   7.073  11.646   9.275 -0.0337 -0.0057  0.0813
16072PP      PP26176  12.814  13.818  13.741 -0.2021 -0.0888 -0.4238
16073PP      PP26177   9.161   9.348  13.414 -0.2209 -0.0657 -0.2807
16074PP      PP26178   3.913   1.711   1.190  0.3247  0.3878 -0.0957
16075PP      PP26179  12.976   6.403   2.153 -0.3595 -0.0196 -0.2624
16076PP      PP26180   1.999   8.095   9.305 -0.2026 -0.4588  0.0597
16077PP      PP26181  15.669   5.687  10.507  0.2211 -0.0906 -0.2512
16078PP      PP26182   7.595   0.326   8.657  0.0715 -0.3594 -0.0776
16079PP      PP26183  10.857   2.576   0.218  0.0310  0.1325 -0.4064
16080PP      PP26184   8.650   0.179   3.509 -0.2296  0.2103 -0.1163
16081PP      PP26185   5.184   4.058   8.844 -0.0469  0.3153  0.2510
16082PP      PP26186   1.429  12.235   0.435  0.1459  0.0226 -0.0890
16083PP      PP26187   9.492   1.759   1.924 -0.1035 -0.1700 -0.1846
16084PP      PP26188   9.614   2.406   1.849  0.2317  0.3410 -0.0276
16085PP      PP26189   3.166  10.519  13.308 -0.1774  0.2719 -0.3372
16086PP      PP26190   7.072  10.515  10.506  0.0012  0.0705 -0.0698
16087PP      PP26191   7.419   3.871   1.568 -0.2562  0.4233  0.0458
16088PP      PP26192   1.298   0.672   2.467 -0.2958 -0.1807 -0.0928
16089PP      PP26193   7.011   3.985  11.588  0.0079  0.2717 -0.0981
16090PP      PP26194   0.465   6.745  12.430  0.0512 -0.1024  0.4080
16091PP      PP26195   5.586  11.381   2.620 -0.1230  0.0013 -0.1625
16092PP      PP26196   8.931   8.552  11.414 -0.0271  0.1813  0.0643
16093PP      PP26197  14.279   8.409   8.679  0.1803  0.3310 -0.1561
16094PP      PP26198   4.696  14.586   1.844 -0.2703 -0.1918 -0.0445
16095PP      PP26199   6.649  11.871   1.308  0.1128 -0.2807 -0.2219
16096PP      PP26200   3.279   2.168   4.180  0.1073  0.0113  0.0497
16097PP      PP26201   8.439   2.360  11.265  0.2641  0.1470 -0.0944
16098PP      PP26202  10.565  15.130   8.199 -0.3165  0.2458  0.1070
16099PP      PP26203   5.705   7.716   1.412 -0.1187 -0.0466 -0.0656
16100PP      PP26204   5.401   3.174   2.484 -0.0154 -0.3218 -0.2035
16101PP      PP26205   9.078   8.515   3.732 -0.1898  0.0329 -0.0388
16102PP      PP26206   6.564   9.528  13.135  0.0442 -0.3415  0.0392
16103PP      PP26207   1.676   6.233  13.541 -0.1226  0.0681  0.2623
16104PP      PP26208   8.677   9.230   0.429 -0.0703 -0.2349 -0.1025
16105PP      PP26209   0.982   7.014  10.855 -0.1352  0.2818  0.3003
16106PP      PP26210   6.461  14.767   0.554 -0.0276  0.1683 -0.1713
16107PP      PP26211   9.201  15.161   1.987 -0.2543  0.3330 -0.3546
16108PP      PP26212   2.530  11.006   4.939 -0.1567 -0.0948  0.0261
16109PP      PP26213  11.081   5.179   1.064 -0.0064 -0.1082  0.2277
16110PP      PP26214   8.830  15.471  12.049 -0.2462 -0.0493 -0.2701
16111PP      PP26215  14.242   8.796  13.393  0.0826 -0.2621 -0.0399
16112PP      PP26216   6.182   8.535   3.269 -0.0909  0.4498 -0.0559
16113PP      PP26217  11.054   1.028   3.301 -0.0027 -0.0267 -0.1846
16114PP      PP26218  12.191   2.218  13.773 -0.0110 -0.1541  0.0890
16115PP      PP26219  13.398  12.710   1.123 -0.0359  0.0560  0.1591
16116PP      PP26220  12.323  15.055   3.554  0.1444  0.0098 -0.3506
16117PP      PP26221   2.235  13.262  11.095  0.0902  0.1941  0.4031
16118PP      PP26222   7.357  15.689   2.073  0.3781  0.5813 -0.3389
16119PP      PP26223   6.604  12.018   0.838 -0.0453  0.0404  0.2361
16120PP      PP26224   2.961  14.671  10.666 -0.1134 -0.0050  0.1179
16121PP      PP26225   5.218  11.540   1.186  0.0958 -0.1555 -0.2533
16122PP      PP26226  14.839  11.063   4.634 -0.0346 -0.0789 -0.0384
16123PP      PP26227  11.505   7.254   3.412 -0.1374  0.0415 -0.1969
16124PP      PP26228   4.133   7.896  12.513 -0.1229 -0.1621  0.3080
16125PP      PP26229   6.221   5.057   9.927 -0.0237  0.0526 -0.0997
16126PP      PP26230   0.163  15.603   1.760  0.1168  0.4666 -0.0255
16127PP      PP26231   8.837   0.729  12.236  0.1578  0.1959  0.2348
16128PP      PP26232  12.956   7.702   1.251 -0.0766 -0.0444  0.4284
16129PP      PP26233   9.179   3.430   0.992 -0.0247  0.0840 -0.2724
16130PP      PP26234  11.144   0.983   9.509 -0.2792 -0.0380  0.0913
16131PP      PP26235  13.367   4.042   3.417 -0.3693 -0.1988  0.0205
16132PP      PP26236  11.102   5.993   2.554 -0.0539 -0.1213 -0.2001
16133PP      PP26237  14.065   8.624  10.389  0.0666 -0.1942 -0.1556
16134PP      PP26238   0.229   4.574   3.095 -0.1021 -0.0580  0.2494
16135PP      PP26239  14.244   3.969  12.240 -0.1993 -0.0073  0.1565
16136PP      PP26240   4.159   4.154   2.652  0.0191  0.1698  0.2118
16137PP      PP26241   9.080   9.892   8.577  0.1968 -0.2499  0.2199
16138PP      PP26242   5.547  15.165   1.037  0.1193  0.0061 -0.0188
16139PP      PP26243   7.911   3.384  11.534 -0.4006  0.0942  0.1374
16140PP      PP26244   1.151  10.678   2.128  0.1537 -0.2977 -0.0760
16141PP      PP26245   8.778   1.152   1.690  0.0425 -0.1280 -0.1641
16142PP      PP26246   8.082   1.842  12.790  0.0959 -0.1672  0.4847
16143PP      PP26247  13.476   7.416   0.816  0.1547  0.1149 -0.0303
16144PP      PP26248  13.194  10.647  12.039  0.1126 -0.0497 -0.0664
16145PP      PP26249  10.843  11.437   9.798  0.2671 -0.1259  0.1334
16146PP      PP26250  13.571  13.960  13.023 -0.0768 -0.1450  0.0606
16147PP      PP26251   7.171   6.055   8.678 -0.0719  0.2427 -0.1500
16148PP      PP26252  15.594  13.814  10.697 -0.2045  0.2036  0.1715
16149PP      PP26253  15.096  12.730   1.606 -0.2189  0.0415  0.1275
16150PP      PP26254   2.387  13.307   4.765 -0.0898  0.1369  0.3461
16151PP      PP26255   8.975   8.427  10.101  0.0610  0.0954 -0.2481
16152PP      PP26256   1.781  14.613   4.180  0.1811  0.3375 -0.0397
16153PP      PP26257   8.849   5.785   0.068 -0.3916  0.1527 -0.0189
16154PP      PP26258   2.174  10.254   4.538  0.2057 -0.1201 -0.1875
16155PP      PP26259   0.763   7.463   2.960  0.2198 -0.1005 -0.0518
16156PP      PP26260   3.679  10.431  12.565 -0.0037 -0.1180  0.1430
16157PP      PP26261   0.522   5.049   2.913 -0.2522 -0.1222  0.0243
16158PP      PP26262  13.769   5.151   2.096  0.1997  0.1532  0.1439
16159PP      PP26263  12.963   0.193   1.175  0.5203  0.0968 -0.1227
16160PP      PP26264   2.053   2.405   0.467 -0.0639  0.1340  0.0432
16161PP      PP26265   4.198   3.392   2.628 -0.3796 -0.0025 -0.2334
16162PP      PP26266  15.729   1.164   1.729  0.3920  0.0275  0.0066
16163PP      PP26267   3.974   1.816   1.690  0.2770  0.1933  0.1606
16164PP      PP26268  15.057   4.941   9.422 -0.0757  0.0034 -0.1105
16165PP      PP26269  13.961  12.925  13.031  0.1958  0.1331 -0.0693
16166PP      PP26270  13.802  15.244  11.022  0.0670 -0.3233 -0.0004
16167PP      PP26271   9.268   6.036  12.936 -0.3044  0.0856  0.0554
16168PP      PP26272  14.891   5.397  11.127 -0.0783  0.1038 -0.0881
16169PP      PP26273   5.824   3.560   4.170 -0.0995 -0.1072  0.2093
16170PP      PP26274   4.925  12.364   2.147  0.0652 -0.3612 -0.2568
16171PP      PP26275   5.788   3.656  13.329  0.1784 -0.0183  0.4898
16172PP      PP26276   3.995   9.519   3.681 -0.5146  0.1868  0.0002
16173PP      PP26277   4.874  11.732   4.963  0.0057 -0.0239 -0.1621
16174PP      PP26278   1.226   0.259   3.834 -0.0571 -0.0428 -0.0088
16175PP      PP26279   5.647   6.255   4.490 -0.3517 -0.0784 -0.0779
16176PP      PP26280   9.598   9.718   1.509  0.0194 -0.1848  0.0352
16177PP      PP26281   8.688  11.364  11.276 -0.0468 -0.0473  0.1863
16178PP      PP26282   1.327   2.328  12.585 -0.0493  0.2845 -0.0111
16179PP      PP26283   5.780  13.150  10.490 -0.0129 -0.2987 -0.6383
16180PP      PP26284   9.980   3.445  12.558  0.0704 -0.0915  0.1849
16181PP      PP26285  11.130   3.510   2.849  0.1363 -0.0569 -0.1034
16182PP      PP26286  12.013  10.423   1.472  0.1713 -0.2543 -0.3571
16183PP      PP26287   3.366   4.112  12.906  0.0841 -0.1339 -0.0977
16184PP      PP26288   4.805   9.520  10.388 -0.1596  0.2288 -0.1757
16185PP      PP26289   0.165   0.376   2.566 -0.2489 -0.0602  0.0194
16186PP      PP26290   3.038   5.294   3.142 -0.0644  0.0188 -0.0993
16187PP      PP26291   5.314   7.170  10.438  0.0678 -0.0003 -0.1075
16188PP      PP26292   5.555   9.513   4.600  0.4560  0.2511 -0.1263
16189PP      PP26293   3.229  15.682   3.871 -0.0283  0.1502  0.1079
16190PP      PP26294  13.717  10.629   3.029 -0.2372  0.0988  0.1649
16191PP      PP26295  14.280   2.315   8.739 -0.0498 -0.0904 -0.0616
16192PP      PP26296  13.148  14.867   1.169  0.0086 -0.0467  0.1637
16193PP      PP26297  14.411  11.218  10.852 -0.2937  0.1874  0.0758
16194PP      PP26298   7.918  11.396  11.799  0.5201  0.0267 -0.2042
16195PP      PP26299  10.942   7.922   1.066  0.1618  0.2425  0.2248
16196PP      PP26300   7.784   2.736  10.783  0.1252 -0.1356 -0.1555
16197PP      PP26301   7.510  12.532  12.056  0.0502 -0.1049 -0.0566
16198PP      PP26302   8.891  11.074   0.483  0.3174 -0.1283  0.1055
16199PP      PP26303   3.765   1.350   0.314  0.2367 -0.1570  0.1923
16200PP      PP26304   3.211   4.298   9.631 -0.0687 -0.0315  0.0251
16201PP      PP26305   5.520  15.349  13.301  0.0582  0.3138  0.6157
16202PP      PP26306   5.972   3.134   9.281 -0.2337 -0.0921  0.0373
16203PP      PP26307   4.480   6.012  11.054  0.3401 -0.1115 -0.1808
16204PP      PP26308   7.598   9.619  12.018 -0.2053  0.2544  0.0652
16205PP      PP26309   4.676   3.450   2.639  0.1085  0.1155 -0.3513
16206PP      PP26310   6.074   7.816   1.736  0.0317 -0.2765 -0.0268
16207PP      PP26311   7.035   3.687  11.138 -0.0465  0.2930 -0.1789
16208PP      PP26312   6.584   0.740  11.321 -0.2092 -0.0930  0.0187
16209PP      PP26313   1.649   6.263  11.547 -0.0878  0.2647 -0.1640
16210PP      PP26314   0.939   5.045  10.781 -0.0702 -0.0188 -0.3805
16211PP      PP26315  11.079  15.425   2.567  0.1145  0.3500 -0.1113
16212PP      PP26316   0.568   6.420   9.515 -0.0979 -0.0653 -0.0947
16213PP      PP26317   1.054  10.672   9.858  0.4242  0.1551  0.0228
16214PP      PP26318   7.160  13.885   9.432 -0.3061 -0.1414 -0.1088
16215PP      PP26319   6.091   0.919  13.273  0.1439 -0.0677 -0.0159
16216PP      PP26320   1.489   4.755  10.788  0.1236 -0.1086 -0.3788
16217PP      PP26321   6.038   7.335  11.734  0.3310  0.0217  0.1224
16218PP      PP26322  10.095   4.354  10.045  0.1140 -0.1119  0.1189
16219PP      PP26323  12.159   4.633  12.013  0.0424 -0.1625  0.1609
16220PP      PP26324   6.236   7.368   2.632 -0.0602 -0.0510 -0.2285
16221PP      PP26325   6.624   6.745   9.230 -0.1498  0.0424 -0.0360
16222PP      PP26326  15.369   6.281   0.568 -0.0598 -0.0523 -0.0968
16223PP      PP26327   6.238   3.833  10.884 -0.1761  0.2574 -0.0892
16224PP      PP26328  11.784   3.771   9.300 -0.0437  0.3239 -0.3367
16225PP      PP26329   1.637   1.892  10.464 -0.0658  0.2701  0.1362
16226PP      PP26330  12.495   6.779  10.055 -0.0777  0.0883 -0.0687
16227PP      PP26331   0.549   4.245   2.977  0.0257 -0.1285  0.0906
16228PP      PP26332   9.732   1.312   2.704 -0.0404  0.0438  0.1670
16229PP      PP26333  12.465   3.165   1.822  0.1164  0.0048 -0.1099
16230PP      PP26334  14.314   1.844   9.978 -0.0851  0.0317 -0.0570
16231PP      PP26335   8.564  12.998  13.202 -0.1451  0.1585  0.0056
16232PP      PP26336   9.296   0.289   0.883  0.2934 -0.1810  0.1025
16233PP      PP26337  10.021   9.389   4.629  0.2377  0.0027  0.0003
16234PP      PP26338   5.298  12.763   4.283  0.0272  0.1528 -0.0726
16235PP      PP26339   0.444  15.457  12.303  0.1136 -0.1148 -0.2414
16236PP      PP26340   0.043   7.471   1.312  0.2135 -0.1097  0.0365
16237PP      PP26341   4.501   1.045   2.820 -0.0012 -0.1161 -0.0530
16238PP      PP26342   6.419   9.141  11.278 -0.1609  0.0481  0.2759
16239PP      PP26343  11.463   6.704  12.426  0.0756 -0.0398 -0.1981
16240PP      PP26344   8.321   3.925  10.666 -0.0188  0.2945  0.0582
16241PP      PP26345  11.343  15.112  12.842 -0.2413  0.0427  0.1067
16242PP      PP26346  14.508   9.007   3.194  0.1826  0.0560  0.2855
16243PP      PP26347   7.570   6.135   3.406 -0.0919 -0.0870  0.2898
16244PP      PP26348  11.282   7.705  10.931  0.2568  0.0536  0.0133
16245PP      PP26349   2.721   9.190  12.891  0.1146 -0.1210 -0.1923
16246PP      PP26350   5.139   5.200   9.846  0.0427  0.1867  0.2869
16247PP      PP26351   3.660  11.531  11.637  0.0477  0.1989 -0.2422
16248PP      PP26352   3.252   7.594  12.888 -0.0468 -0.3528  0.0692
16249PP      PP26353   6.700  15.527  12.624  0.0198  0.2866  0.0413
16250PP      PP26354   7.191   3.224   9.768 -0.1917  0.0429  0.3381
16251PP      PP26355  14.361   5.697   1.549 -0.2021  0.1194  0.0842
16252PP      PP26356   9.844  12.486  12.632  0.4392  0.3033 -0.1586
16253PP      PP26357  13.030  11.755  10.861 -0.0002  0.1197  0.0227
16254PP      PP26358   8.087   4.127   0.877  0.0096  0.0398  0.0836
16255PP      PP26359  12.655   1.656  12.146  0.3309 -0.0735 -0.2271
16256PP      PP26360   6.546   4.697  10.523 -0.1129  0.1006 -0.2627
16257PP      PP26361   5.687  13.385   1.371  0.2391  0.0581  0.1051
16258PP      PP26362  15.605   1.891   3.756  0.0538 -0.0110  0.1354
16259PP      PP26363   9.778   1.219   3.160  0.0409  0.2258 -0.3084
16260PP      PP26364  13.404  15.597  11.222  0.4378  0.4045  0.0426
16261PP      PP26365   9.070   0.749   9.005 -0.0402 -0.0108  0.2036
16262PP      PP26366   9.964  10.206   3.804 -0.2813  0.0500 -0.0993
16263PP      PP26367  15.205   6.508  12.013  0.1349  0.0745 -0.0360
16264PP      PP26368   3.857   9.092   9.836 -0.0298 -0.1166  0.2329
16265PP      PP26369   8.899  14.777   4.173 -0.1491 -0.0611  0.1916
16266PP      PP26370   2.001  13.417   9.879  0.1248  0.1423 -0.0603
16267PP      PP26371   0.695  12.077   2.990  0.1485  0.1587  0.2663
16268PP      PP26372   3.189  13.136   4.280  0.0562 -0.3246 -0.2293
16269PP      PP26373  13.588  15.363   2.854  0.0923  0.0082 -0.0447
16270PP      PP26374   1.121   9.061   1.363  0.0587  0.0143  0.0659
16271PP      PP26375  11.088   9.694  11.312 -0.2791  0.3797  0.0724
16272PP      PP26376   3.589   5.348   9.339 -0.0041  0.3306 -0.2170
16273PP      PP26377   5.015   1.058  12.468 -0.0292  0.0242 -0.2241
16274PP      PP26378  10.326  15.381   8.718  0.1183 -0.0263 -0.1122
16275PP      PP26379   5.096  10.413   3.798  0.1737 -0.0422 -0.0568
16276PP      PP26380  12.586   1.299   1.596 -0.0190  0.0636 -0.0690
16277PP      PP26381   0.587   9.505   0.435  0.1616  0.0359  0.1052
16278PP      PP26382   7.203   8.852   2.439  0.3318  0.0238  0.4788
16279PP      PP26383   5.309   4.599  10.636  0.2380 -0.2343 -0.1445
16280PP      PP26384  11.594   2.245  12.925  0.1861  0.1478 -0.0705
16281PP      PP26385   6.319   2.502   3.067 -0.3194  0.1645  0.0768
16282PP      PP26386  14.524   8.242  10.302 -0.0894  0.2751  0.0224
16283PP      PP26387   6.828  11.271   2.912  0.2342  0.1697 -0.4238
16284PP      PP26388   5.163  13.639  13.737  0.2943  0.0850  0.1235
16285PP      PP26389   1.742  12.610  11.825 -0.0812  0.2236  0.2048
16286PP      PP26390   3.156   1.301   3.145 -0.0087  0.0613  0.2549
16287PP      PP26391  14.801   2.339  10.582 -0.1937  0.2388 -0.1908
16288PP      PP26392   5.502   6.947  12.921 -0.2687 -0.0641  0.2889
16289PP      PP26393   8.908   7.663   4.348 -0.0011 -0.0277  0.1328
16290PP      PP26394   2.562   9.889   4.503 -0.1061 -0.0116 -0.4212
16291PP      PP26395  15.671   9.193   3.638 -0.0074 -0.0461 -0.1039
16292PP      PP26396   2.449  15.518   4.543 -0.0532 -0.1099  0.1866
16293PP      PP26397   9.803   7.089  11.098 -0.1381 -0.0618  0.1324
16294PP      PP26398   2.233   8.227  10.433 -0.0263 -0.0692 -0.1853
16295PP      PP26399   5.432   2.484  12.966  0.0950 -0.0131  0.1380
16296PP      PP26400  14.939  13.983   2.176 -0.0789  0.5113  0.0187
16297PP      PP26401   7.821   9.311   9.517 -0.3233 -0.1292  0.0337
16298PP      PP26402  10.065   8.607   0.609  0.1723 -0.1315 -0.0609
16299PP      PP26403   1.966  13.079   0.257  0.0443  0.0052  0.1883
16300PP      PP26404   9.649  12.901   0.102  0.1214 -0.2358  0.2615
16301PP      PP26405   2.396  14.812   3.297 -0.0778  0.3106  0.0172
16302PP      PP26406   0.973   9.725   0.712 -0.1657 -0.2567 -0.1347
16303PP      PP26407   6.017  13.813  11.592  0.0124 -0.1926  0.0756
16304PP      PP26408   1.500  13.702  12.925  0.0151  0.0665 -0.3053
16305PP      PP26409  14.155  13.416   0.188  0.0935  0.1024  0.3172
16306PP      PP26410   0.348   6.227  11.822 -0.3417 -0.0973 -0.2082
16307PP      PP26411  15.228  12.152   1.802  0.2419  0.2301  0.0210
16308PP      PP26412   4.459   4.113  13.111 -0.2817  0.1899  0.0641
16309PP      PP26413   1.307   0.090   4.843  0.0626  0.0407  0.3195
16310PP      PP26414  10.100   3.863   3.784  0.0324 -0.2230  0.2513
16311PP      PP26415   9.579   8.672   0.204 -0.0019  0.1657 -0.4835
16312PP      PP26416  11.597  13.428   2.257 -0.3232 -0.0465 -0.0014
16313PP      PP26417   0.301   0.161  13.514 -0.0852 -0.1877  0.0113
16314PP      PP26418   0.292  14.016   9.956  0.1481  0.2676  0.0687
16315PP      PP26419   4.273   2.192   0.768 -0.0864  0.0356 -0.0411
16316PP      PP26420   9.286   7.863   0.012 -0.0028 -0.0658  0.2072
16317PP      PP26421   0.509   8.551  11.111  0.0207  0.0793 -0.2748
16318PP      PP26422  12.381   4.808  11.563  0.2448  0.0389 -0.0123
16319PP      PP26423   1.985   8.439   8.826 -0.0599  0.0249 -0.0181
16320PP      PP26424  10.085   2.830   3.651  0.1455  0.0888  0.3933
16321PP      PP26425   9.001  10.225   1.714 -0.0057  0.0636  0.3672
16322PP      PP26426  10.535  13.583   3.927  0.0088  0.0423 -0.1289
16323PP      PP26427   9.737  11.903   2.054 -0.3851 -0.1796 -0.0497
16324PP      PP26428  13.907  11.875   3.605 -0.0182 -0.2918  0.0351
16325PP      PP26429  10.087  13.032  11.994 -0.0343  0.1063 -0.0153
16326PP      PP26430   4.496  11.626   0.583  0.2579 -0.0061 -0.0409
16327PP      PP26431   2.084  14.894  12.588 -0.0335  0.1035 -0.1173
16328PP      PP26432   5.286   2.404   3.374  0.1633 -0.0168 -0.0382
16329PP      PP26433   5.847   2.489  12.674  0.0065  0.5365 -0.0686
16330PP      PP26434   2.871  12.243   2.975  0.0330  0.1692  0.2122
16331PP      PP26435   7.924  13.701   0.078  0.0144 -0.0707  0.1452
16332PP      PP26436   2.189   6.984   1.664 -0.3157 -0.0151  0.1043
16333PP      PP26437  12.855  13.659  12.507  0.2031 -0.3775 -0.2802
16334PP      PP26438   6.132   6.456   2.148 -0.1952  0.0282 -0.0281
16335PP      PP26439  11.937  15.404   2.175  0.0107 -0.0369  0.2177
16336PP      PP26440   7.738   9.439  10.833  0.0128  0.0375  0.1064
16337PP      PP26441  10.868   0.240  11.938 -0.2033 -0.3708 -0.0872
16338PP      PP26442   4.112  15.100   3.611 -0.0174  0.1800  0.0655
16339PP      PP26443   6.070   0.621   1.658 -0.0568 -0.1646  0.4295
16340PP      PP26444   1.527   8.290  12.122 -0.6207 -0.0315  0.3178
16341PP      PP26445   6.280   2.117  11.332 -0.0177 -0.1287 -0.2064
16342PP      PP26446   4.500   9.076   0.069 -0.2927  0.1175  0.1669
16343PP      PP26447  15.316   5.319   3.410 -0.1691  0.3010  0.0965
16344PP      PP26448   0.488   0.892   3.601 -0.4620  0.2268 -0.0453
16345PP      PP26449  10.068   8.070  13.308  0.1264 -0.0423  0.1837
16346PP      PP26450   1.222  10.946   3.419  0.0789  0.1875  0.0126
16347PP      PP26451  11.338   5.494   2.799  0.1520  0.1257  0.0796
16348PP      PP26452   9.567   4.847  10.838  0.1771 -0.3027  0.0241
16349PP      PP26453   9.044  15.105  10.621  0.0339  0.0260  0.1005
16350PP      PP26454   1.400  12.983  11.027 -0.1546  0.0336 -0.0868
16351PP      PP26455   7.055   4.708   4.232 -0.1641 -0.0843  0.2742
16352PP      PP26456   3.228  15.011   3.029  0.0429 -0.0304  0.0277
16353PP      PP26457   1.709  10.581  12.526  0.0567  0.0350 -0.1376
16354PP      PP26458  10.497   2.831   3.064  0.1296  0.0936 -0.1097
16355PP      PP26459   6.191  10.258  10.679  0.2084 -0.3080 -0.2775
16356PP      PP26460   7.496  12.947   4.097  0.1645 -0.2547 -0.2564
16357PP      PP26461   1.781   6.675   4.443  0.2394 -0.0062  0.0913
16358PP      PP26462   2.091   1.572   2.410  0.1625  0.1396 -0.0321
16359PP      PP26463   7.757   2.775   1.649  0.1494  0.1081  0.1903
16360PP      PP26464   2.741   8.012   2.466  0.2947 -0.5577 -0.1845
16361PP      PP26465   1.450  12.296  10.328  0.1400  0.0308 -0.1552
16362PP      PP26466  11.548   5.962  11.215 -0.0885  0.2630 -0.1433
16363PP      PP26467   4.129   8.230  10.709 -0.4297  0.1539  0.0130
16364PP      PP26468  12.065  14.355   2.547  0.2759  0.2065 -0.2133
16365PP      PP26469   2.197   8.320   1.538 -0.0195  0.1654  0.3011
16366PP      PP26470   5.518   8.420  12.045 -0.2585 -0.2093 -0.3065
16367PP      PP26471   6.615   6.204  10.635 -0.1406  0.1981 -0.0048
16368PP      PP26472   9.369   9.101   2.985 -0.1127 -0.0572 -0.2993
16369PP      PP26473  14.333  14.584   8.817  0.2393  0.1066  0.2235
16370PP      PP26474   3.553   0.157  10.628 -0.0403 -0.0251 -0.4340
16371PP      PP26475   5.594   8.197  12.526  0.0001 -0.0280  0.0388
16372PP      PP26476   9.164   9.740  12.171 -0.2056 -0.1419 -0.2467
16373PP      PP26477   4.318  12.552   0.435 -0.1249  0.2032 -0.1055
16374PP      PP26478  15.667   4.047   9.851  0.0306 -0.0487 -0.0594
16375PP      PP26479  13.247   2.005  11.349  0.0969 -0.0744 -0.2108
16376PP      PP26480   2.461   6.109   3.699 -0.2411  0.0340  0.0630
16377PP      PP26481   9.187   3.729   1.606 -0.2144 -0.0255  0.0501
16378PP      PP26482  10.248   8.687  10.480 -0.1628 -0.0169  0.0251
16379PP      PP26483   8.777   1.004   4.402  0.0106  0.0014  0.1068
16380PP      PP26484   8.507  11.777   2.745 -0.0535 -0.0566 -0.2805
16381PP      PP26485  11.499  15.615   2.949 -0.1683  0.1441 -0.2467
16382PP      PP26486  12.661   7.379   0.175  0.0506 -0.1640 -0.2016
16383PP      PP26487  11.766   0.493   0.807 -0.1882  0.1028  0.2588
16384PP      PP26488   9.521   1.215   0.346  0.1083 -0.1327  0.2217
16385PP      PP26489   7.442  11.643  11.731 -0.0795  0.1809  0.0097
16386PP      PP26490   7.859  13.819  11.496 -0.0853  0.0423  0.3446
16387PP      PP26491   7.065   6.103  12.654 -0.0156 -0.1175  0.0917
16388PP      PP26492  11.379  13.340   9.869  0.1176  0.0407  0.2036
16389PP      PP26493   2.416   9.320   0.764  0.1750 -0.0249 -0.0320
16390PP      PP26494   8.397   2.594   0.015 -0.0372 -0.1850 -0.0983
16391PP      PP26495   6.698  14.668   0.141  0.1846 -0.0921  0.1013
16392PP      PP26496  15.107  14.679   3.027 -0.1604  0.4190  0.2364
16393PP      PP26497   9.920   6.549  10.588  0.0376  0.0482  0.1937
16394PP      PP26498   8.248   6.187  13.273  0.2532  0.2079 -0.0258
16395PP      PP26499   4.694   9.015   3.665 -0.1415 -0.0446  0.2372
16396PP      PP26500   5.538   7.012  13.635 -0.4458 -0.0187 -0.1604
16397PP      PP26501   2.356  12.154   0.562  0.3000  0.4009  0.0177
16398PP      PP26502   4.374   7.073   0.858 -0.2702 -0.1475 -0.2803
16399PP      PP26503   4.944  15.608   0.111 -0.1852  0.0833 -0.1869
16400PP      PP26504  10.891   9.340  12.461  0.2184 -0.1555  0.0866
16401PP      PP26505   0.228   9.241  11.804 -0.1915 -0.3694 -0.2741
16402PP      PP26506   2.928   0.666  10.895  0.1645 -0.2537  0.0547
16403PP      PP26507   7.823  14.521  12.873 -0.2563 -0.2022 -0.1202
16404PP      PP26508   4.375  14.891   9.808 -0.1069  0.1060  0.1280
16405PP      PP26509   6.377   1.758   8.182  0.0358 -0.0485 -0.0038
16406PP      PP26510   2.201   9.133  11.425  0.1810  0.1360 -0.4385
16407PP      PP26511  10.687   6.126  10.261 -0.1679 -0.0368 -0.3057
16408PP      PP26512  10.350   2.992  12.206  0.0393 -0.2406 -0.2102
16409PP      PP26513   5.994  14.216   3.367  0.1018  0.2712 -0.2053
16410PP      PP26514   7.006  13.476  10.506  0.2203 -0.0594 -0.4423
16411PP      PP26515  14.269  13.492  10.664 -0.2361  0.1787  0.0911
16412PP      PP26516  10.481   3.503   9.924 -0.2605 -0.0557 -0.0615
16413PP      PP26517   7.011  14.294   1.002  0.0051  0.2425  0.0285
16414PP      PP26518  12.849   9.030   1.496 -0.0875  0.3870  0.1383
16415PP      PP26519   1.584  14.168   3.088  0.1993  0.1134  0.6213
16416PP      PP26520   5.356   0.951   0.225  0.5540  0.0961  0.1797
16417PP      PP26521  14.278  12.804   1.286 -0.0182  0.0854  0.0572
16418PP      PP26522   4.253   2.362  13.001 -0.0338  0.0066  0.1638
16419PP      PP26523   5.320   8.375  13.015 -0.1590  0.3739  0.0694
16420PP      PP26524   3.097  15.257   1.581 -0.1714  0.0566  0.0087
16421PP      PP26525   2.303   2.353   1.215  0.2959 -0.2757 -0.3573
16422PP      PP26526   7.296   7.009  11.838  0.0268 -0.1566  0.2616
16423PP      PP26527   0.308   8.188   3.465  0.2757 -0.0575  0.0573
16424PP      PP26528  13.898   4.616  12.707  0.2244 -0.1110 -0.1539
16425PP      PP26529   5.340   6.585  12.596 -0.0611  0.0497  0.1050
16426PP      PP26530  11.177   1.566   0.182  0.1233 -0.1270  0.0951
16427PP      PP26531   2.231   5.184   0.475 -0.4029  0.1562 -0.1370
16428PP      PP26532  15.126   7.974   2.121  0.0023 -0.0046 -0.0287
16429PP      PP26533  10.862  15.076   9.017  0.0828 -0.1228  0.0510
16430PP      PP26534  15.328   1.500   1.442 -0.2246 -0.1664  0.1312
16431PP      PP26535   3.814   0.472  10.283  0.3845 -0.0855 -0.0205
16432PP      PP26536   5.704   4.040   8.726 -0.1392  0.4136 -0.2549
16433PP      PP26537   4.870   0.352  10.000 -0.0487  0.1175 -0.1391
16434PP      PP26538  11.642   7.160  12.709 -0.1908  0.0064 -0.4261
16435PP      PP26539  14.230   1.256   0.450  0.1774 -0.0735 -0.0564
16436PP      PP26540  13.462   5.155  10.017  0.1145  0.0728 -0.1246
16437PP      PP26541   5.894   3.934  10.345 -0.0994  0.1606  0.2827
16438PP      PP26542   3.854  10.605  10.713 -0.1606  0.1097  0.2304
16439PP      PP26543   5.182   3.073   1.099 -0.3012  0.0490  0.0482
16440PP      PP26544  13.241  10.677   3.068 -0.2698 -0.0725 -0.0647
16441PP      PP26545   4.255   7.112   4.198 -0.1390  0.1182 -0.0313
16442PP      PP26546  15.617   6.128  12.083  0.4105 -0.1918  0.3262
16443PP      PP26547  12.831  10.458  10.288 -0.1042 -0.2601  0.0792
16444PP      PP26548  14.695   3.112   3.745 -0.0068 -0.0694 -0.0317
16445PP      PP26549  11.216   3.188  10.305 -0.0429 -0.1205 -0.1601
16446PP      PP26550  12.340   2.216   9.894 -0.1826 -0.2377 -0.3195
16447PP      PP26551   3.705  15.568  11.838 -0.1938  0.0337 -0.1516
16448PP      PP26552  14.469   2.141  11.877 -0.0330 -0.1887  0.0577
16449PP      PP26553   2.514   6.414  13.000 -0.0080 -0.0675  0.1687
16450PP      PP26554   7.346  15.365  12.562 -0.0811  0.0589 -0.0617
16451PP      PP26555   0.897   1.537   3.170 -0.0021  0.0193  0.2061
16452PP      PP26556   2.809   5.838   0.290  0.1584  0.2548 -0.2806
16453PP      PP26557   4.808   5.428  10.499 -0.1229 -0.1864  0.0711
16454PP      PP26558   7.018  10.018  10.618 -0.1600 -0.0175 -0.0807
16455PP      PP26559  15.205  12.351  10.960 -0.1607  0.2582 -0.0290
16456PP      PP26560  11.908   1.527  12.806 -0.1516  0.3750  0.1885
16457PP      PP26561   5.371   3.185  10.827 -0.0815 -0.1398 -0.0993
16458PP      PP26562   3.287   1.790  11.337  0.0410  0.1860 -0.2820
16459PP      PP26563  14.695   8.631  10.102  0.5234 -0.0652  0.3255
16460PP      PP26564   8.270   7.446   0.737 -0.0894  0.6937  0.0578
16461PP      PP26565   1.937   6.711   2.333  0.0109 -0.1546  0.1569
16462PP      PP26566  15.405  11.485   3.691 -0.0793 -0.1653 -0.3739
16463PP      PP26567  15.477   6.646  12.955 -0.0399  0.1847  0.2262
16464PP      PP26568   6.748   3.033   0.727  0.1762 -0.2876  0.3072
16465PP      PP26569  13.811  15.161  11.551  0.1308 -0.0457  0.2118
16466PP      PP26570   9.242  15.498  10.289  0.2392  0.2075 -0.1236
16467PP      PP26571  10.925   8.475  13.356  0.0447  0.0590  0.0235
16468PP      PP26572   6.907   0.531  12.465 -0.1605  0.1805  0.0417
16469PP      PP26573   1.006  13.045   9.441  0.0550 -0.2282  0.0477
16470PP      PP26574   3.083   0.315  10.488 -0.0661  0.1429  0.0876
16471PP      PP26575  12.660   8.190   0.500 -0.1304  0.1147 -0.0555
16472PP      PP26576   2.866  15.481  10.721  0.1361  0.0823  0.1299
16473PP      PP26577  11.634   8.873   2.141  0.4139  0.2781 -0.1273
16474PP      PP26578   1.484   3.880   0.111 -0.0800 -0.2283 -0.2612
16475PP      PP26579   6.937  14.442   8.908  0.0303  0.3728  0.0381
16476PP      PP26580   2.961   8.566   2.644 -0.0650 -0.0148  0.2569
16477PP      PP26581   3.652   0.638   2.878 -0.0617 -0.2059 -0.2188
16478PP      PP26582   8.732  14.757   1.365  0.1050  0.0005 -0.1923
16479PP      PP26583  12.229  12.177   1.581  0.1258  0.2322  0.1258
16480PP      PP26584   5.194   6.181   9.413  0.0591 -0.0312 -0.1132
16481PP      PP26585   0.691   3.915   1.770 -0.2901  0.1639  0.2099
16482PP      PP26586  11.613   1.823  11.759 -0.1642 -0.1025  0.0109
16483PP      PP26587   6.768  11.299  12.929 -0.1224  0.1920 -0.0365
16484PP      PP26588   2.769   8.840   4.453  0.0028  0.0437 -0.0196
16485PP      PP26589  10.217   4.994  12.452 -0.1660  0.0886  0.1131
16486PP      PP26590   8.786   6.974   3.226  0.0735 -0.0598  0.0030
16487PP      PP26591   6.944   1.812   2.892 -0.2428  0.1003 -0.2159
16488PP      PP26592  10.637   3.545  12.959  0.1063 -0.1297 -0.3334
16489PP      PP26593  13.302   6.601   9.076  0.0679 -0.2146  0.0840
16490PP      PP26594   6.520  12.354   4.819  0.0682  0.1492 -0.2491
16491PP      PP26595   1.661   5.440  12.234 -0.0516  0.3121 -0.0860
16492PP      PP26596  12.239   4.159  11.868 -0.1338 -0.3545  0.2220
16493PP      PP26597  15.135  10.082  11.014 -0.0777  0.0409 -0.0012
16494PP      PP26598  11.068   5.024   8.552  0.0351 -0.1145  0.2848
16495PP      PP26599   0.377   0.668   9.378  0.3972 -0.0363  0.3595
16496PP      PP26600  12.413   4.793   1.046  0.0485  0.0764  0.0253
16497PP      PP26601   4.584   7.910  10.747  0.2237  0.0815  0.0585
16498PP      PP26602   4.401   7.862  13.726  0.2062  0.0060  0.0613
16499PP      PP26603   7.035  13.658   4.402  0.0642 -0.0686  0.1104
16500PP      PP26604   8.813   9.935   3.204  0.1399 -0.1993 -0.0362
16501PP      PP26605   6.493   3.024   9.398  0.3091  0.0937  0.3870
16502PP      PP26606  11.004  10.601   8.711 -0.4041 -0.3794  0.0677
16503PP      PP26607   0.402  11.201  13.498  0.0455 -0.0509  0.0462
16504PP      PP26608  13.189   8.546   2.806  0.0922  0.1257  0.1461
16505PP      PP26609  13.094   6.596   9.694 -0.0340  0.0601 -0.0051
16506PP      PP26610  13.425  10.099  10.356  0.1309 -0.1123 -0.0336
16507PP      PP26611  15.149  10.129   9.286 -0.1357  0.0286  0.1756
16508PP      PP26612   1.807   3.955  11.620 -0.0586  0.0420 -0.0791
16509PP      PP26613  13.168  12.331  13.553 -0.1069  0.1613  0.2649
16510PP      PP26614   6.476   0.554   9.060  0.0005  0.3398 -0.2307
16511PP      PP26615  11.755   3.924  13.106  0.0478 -0.0593  0.3296
16512PP      PP26616   6.677   4.700  12.481  0.0213 -0.3594  0.0741
16513PP      PP26617  14.892   5.118   2.463  0.1364  0.0238 -0.0752
16514PP      PP26618   1.509   8.936  11.276 -0.0169 -0.3444  0.0342
16515PP      PP26619   7.070   3.221  10.843  0.0781 -0.1538  0.0264
16516PP      PP26620  10.427   7.528   9.767  0.1394 -0.0555 -0.5803
16517PP      PP26621  11.395  10.056   9.913 -0.0029 -0.2552 -0.0557
16518PP      PP26622   3.778   6.016   1.767  0.2025 -0.1088  0.1055
16519PP      PP26623  11.726  13.463   0.429 -0.2339 -0.0903 -0.0067
16520PP      PP26624   7.589   2.166   3.998  0.0726  0.0580 -0.0285
16521PP      PP26625   3.286   5.176  13.459  0.0589  0.2732  0.1230
16522PP      PP26626   8.545   9.300   2.326 -0.3792  0.3765  0.0264
16523PP      PP26627   0.763   1.095   0.303  0.0710  0.1174 -0.1691
16524PP      PP26628  11.030   7.033   3.358  0.2982  0.1554  0.2364
16525PP      PP26629   8.147   7.977   3.844  0.1103 -0.0018  0.1221
16526PP      PP26630  10.746   5.693   3.784  0.1045 -0.0012  0.1818
16527PP      PP26631  10.964   4.502   9.938 -0.2131  0.2370 -0.0388
16528PP      PP26632  11.506  12.245  10.877  0.1807 -0.0028 -0.1590
16529PP      PP26633   9.455   8.230   1.018 -0.2798 -0.3419 -0.1225
16530PP      PP26634   7.928   3.501   2.454  0.1508 -0.2531  0.0405
16531PP      PP26635   7.382   5.101   1.096  0.1323  0.1469  0.1672
16532PP      PP26636   7.271   1.743  10.768 -0.3660 -0.2721 -0.0533
16533PP      PP26637  10.484   3.183   0.373  0.0122 -0.1385  0.1017
16534PP      PP26638   2.271  12.864  12.666 -0.1323 -0.2769  0.0681
16535PP      PP26639   4.557   9.205   5.064 -0.0735  0.2003 -0.0709
16536PP      PP26640  13.012  12.940   0.580 -0.1597 -0.1713  0.0331
16537PP      PP26641  14.509   6.591  11.024 -0.2023  0.1804  0.0206
16538PP      PP26642  13.371  12.704  12.011 -0.1475 -0.1142  0.0120
16539PP      PP26643  13.430  12.632  13.191 -0.1735 -0.1754 -0.1810
16540PP      PP26644  12.877   0.652   9.409 -0.2849  0.3391 -0.0128
16541PP      PP26645   5.784   4.935  10.409 -0.2757  0.0958 -0.2395
16542PP      PP26646   4.521   5.156   0.060  0.3802 -0.3004 -0.0999
16543PP      PP26647   3.364  13.890  10.193 -0.0339 -0.0149 -0.0869
16544PP      PP26648   9.237   7.712  10.626  0.4266 -0.1094  0.2707
16545PP      PP26649   3.795  12.004   9.973  0.0437 -0.2527  0.0354
16546PP      PP26650  12.078  12.458   9.540 -0.3857  0.1036 -0.4103
16547PP      PP26651   5.393  12.843   3.506 -0.1398 -0.0745 -0.0390
16548PP      PP26652   0.314   4.485   9.805  0.1162 -0.2016 -0.0899
16549PP      PP26653   8.543   9.231  13.729 -0.0806  0.1967  0.1187
16550PP      PP26654  12.046   1.206  11.367 -0.2434 -0.0366  0.1836
16551PP      PP26655   2.972   3.777  11.862  0.3413 -0.1896  0.1172
16552PP      PP26656   6.721   1.195   2.132  0.3404 -0.0493  0.0393
16553PP      PP26657   3.426  11.145   0.516  0.0935  0.0948 -0.2717
16554PP      PP26658  11.191  12.275   9.945 -0.0078  0.0892  0.0018
16555PP      PP26659   5.197  13.831  11.032  0.1604 -0.0591  0.2510
16556PP      PP26660   0.606   0.664  13.153 -0.1711  0.1281  0.0247
16557PP      PP26661   8.144  10.467  12.000  0.1317  0.1306  0.0451
16558PP      PP26662  14.506   1.104   2.866  0.3018 -0.2256  0.1050
16559PP      PP26663   2.480  11.630  12.057  0.4440 -0.0294 -0.0503
16560PP      PP26664   4.444   4.016   9.537  0.0691  0.1110 -0.1003
16561PP      PP26665   4.503  13.011   1.166  0.2400  0.0624 -0.0442
16562PP      PP26666  14.431   8.817   0.561 -0.0898 -0.1114 -0.4629
16563PP      PP26667   2.567  12.806   4.073 -0.1077  0.2319 -0.0884
16564PP      PP26668  14.608   5.308   1.363  0.2675 -0.0921  0.1304
16565PP      PP26669   1.470   8.808   1.892 -0.3099 -0.4181  0.1753
16566PP      PP26670   6.735   7.901  11.286  0.1514 -0.0170 -0.0156
16567PP      PP26671   6.323  10.659   0.405  0.0490 -0.2556  0.0168
16568PP      PP26672   9.622  13.963   2.705  0.0309  0.1304 -0.0855
16569PP      PP26673   2.049   9.322  10.010 -0.1752  0.2683 -0.0518
16570PP      PP26674  13.053  13.326   3.370  0.0622  0.2737 -0.1363
16571PP      PP26675  12.288   5.776   2.761  0.0563 -0.2360 -0.1564
16572PP      PP26676  10.489   6.573   4.057  0.0290 -0.2445  0.0548
16573PP      PP26677   6.985   1.683   2.340 -0.0800 -0.0561  0.0777
16574PP      PP26678   1.482  11.039   3.015 -0.3686 -0.1987  0.1635
16575PP      PP26679  14.238  13.318  10.104  0.1257  0.0714  0.0941
16576PP      PP26680  14.309  15.221   1.613  0.2303  0.1860  0.0384
16577PP      PP26681   6.285   1.769  13.093 -0.1074 -0.0096  0.3794
16578PP      PP26682   6.107   2.221  13.027 -0.1744 -0.0855 -0.2227
16579PP      PP26683   6.944   9.488   9.817  0.3455  0.0871 -0.0965
16580PP      PP26684   7.453   8.967   4.109  0.2090 -0.0182 -0.1851
16581PP      PP26685   2.098   1.643   4.498  0.0273  0.0784  0.0496
16582PP      PP26686   0.135   0.943   9.784 -0.1373  0.0173 -0.3373
16583PP      PP26687  15.581   1.935  10.893  0.0366 -0.1058 -0.1686
16584PP      PP26688  10.296   8.573   4.106 -0.2110  0.0556  0.0897
16585PP      PP26689   3.421  10.831   5.545  0.0258  0.2814  0.1748
16586PP      PP26690  13.945   5.727   0.717  0.1480  0.0361 -0.1505
16587PP      PP26691   0.226   1.968   1.547 -0.2072 -0.2995  0.1588
16588PP      PP26692  13.852  10.855   4.478 -0.0538 -0.1730  0.0334
16589PP      PP26693   7.964  10.870   1.399  0.0163  0.0609 -0.2135
16590PP      PP26694  12.828  13.212  11.381  0.0960  0.0667  0.1197
16591PP      PP26695   1.839   4.586   2.696  0.1825  0.0628 -0.1076
16592PP      PP26696   7.430   7.022   1.724 -0.2315  0.0849  0.3938
16593PP      PP26697  14.261  14.951   3.811 -0.3507  0.1569 -0.0900
16594PP      PP26698   6.084   2.081   3.236 -0.0991 -0.0700 -0.0611
16595PP      PP26699   4.046  10.772   2.172 -0.0331 -0.3636 -0.0216
16596PP      PP26700   5.289   1.502  12.394  0.1282  0.1679  0.0800
16597PP      PP26701   1.757   7.037  12.966  0.1037  0.3504 -0.1901
16598PP      PP26702  14.775  10.348   3.667 -0.1403  0.0022  0.2629
16599PP      PP26703   6.427   4.973  11.569  0.3261 -0.0490  0.1948
16600PP      PP26704   9.503   6.464  12.214  0.0805 -0.0986 -0.1285
16601PP      PP26705   1.701  14.144  12.025  0.0948  0.1443 -0.0278
16602PP      PP26706  10.388   5.717   9.557  0.2014  0.1191  0.0389
16603PP      PP26707  13.794   9.856   9.785 -0.1026 -0.1724 -0.0741
16604PP      PP26708   9.685  13.832   9.038  0.1087  0.0037 -0.3549
16605PP      PP26709  14.716  15.301  12.122  0.0289  0.4448 -0.5531
16606PP      PP26710   9.134   7.214  10.443 -0.1151 -0.1480 -0.4458
16607PP      PP26711  15.702   2.309   0.677  0.3336  0.1045 -0.1695
16608PP      PP26712   1.885  12.051  10.034 -0.1629 -0.1747  0.1613
16609PP      PP26713   0.785  11.357  13.724  0.2225  0.0068  0.0346
16610PP      PP26714   2.389  10.884   4.508  0.2740 -0.2988  0.1829
16611PP      PP26715  13.956   5.783  11.718  0.2739  0.0010  0.2029
16612PP      PP26716  12.543   8.348   3.012  0.0929 -0.2750  0.3127
16613PP      PP26717   7.357   1.463   0.085  0.0168 -0.0566  0.0537
16614PP      PP26718   5.168   0.024  10.360 -0.0337 -0.2248 -0.2264
16615PP      PP26719   2.725   1.500   0.302 -0.0795 -0.1633  0.1728
16616PP      PP26720   9.496  15.407  10.759 -0.1735  0.0308 -0.0128
16617PP      PP26721  13.086  15.596   1.977 -0.0961 -0.0564 -0.0821
16618PP      PP26722  14.201  10.177   9.916  0.3984 -0.1593  0.1572
16619PP      PP26723   6.366   5.489  10.172  0.3319  0.0397  0.2234
16620PP      PP26724  11.357  13.488  11.753 -0.2459 -0.1474 -0.1251
16621PP      PP26725   2.056   1.899  11.939 -0.1197  0.1371  0.0745
16622PP      PP26726   7.211  14.720   9.507  0.0936  0.1821 -0.0693
16623PP      PP26727   2.074   9.424  11.000  0.1892  0.0072  0.0980
16624PP      PP26728  15.129   2.026   2.755  0.0384  0.0795 -0.1952
16625PP      PP26729  14.889   6.022   9.586 -0.0043  0.1135 -0.0492
16626PP      PP26730  13.661   5.918   0.286  0.0880  0.3006 -0.2112
16627PP      PP26731   3.911   7.002   0.986  0.2178  0.0482 -0.1335
16628PP      PP26732  10.248   9.577   9.140  0.0378 -0.0862  0.2021
16629PP      PP26733  12.724  13.457  11.840 -0.0981 -0.4693  0.1849
16630PP      PP26734  14.479  13.518   3.569  0.1942  0.2219 -0.0054
16631PP      PP26735   6.694  15.133   4.220 -0.5296  0.1514  0.0523
16632PP      PP26736   2.228   0.910  12.017 -0.1823  0.1832  0.0211
16633PP      PP26737   3.349   1.713  12.521 -0.0984 -0.1194 -0.1976
16634PP      PP26738   0.691   9.338  11.684  0.0119  0.0751 -0.1387
16635PP      PP26739  13.014   1.175   4.024  0.1355  0.0749  0.0702
16636PP      PP26740   8.284   5.009   8.592  0.1992  0.1270 -0.3747
16637PP      PP26741   0.857  13.949  10.228 -0.2656 -0.1670  0.1080
16638PP      PP26742  13.303   7.887   2.197 -0.1544 -0.3071 -0.0020
16639PP      PP26743   6.037  11.179   4.207  0.1972 -0.2372  0.0333
16640PP      PP26744   7.072   2.701   1.988 -0.0123 -0.2165  0.0531
16641PP      PP26745  15.538   2.028   8.937 -0.2824  0.1156 -0.0158
16642PP      PP26746   5.693  11.158  12.779 -0.0127  0.0515 -0.0535
16643PP      PP26747  15.092   2.703   3.985  0.1663 -0.2259 -0.0091
16644PP      PP26748   9.072  12.250  12.076  0.1340 -0.0226  0.2591
16645PP      PP26749   4.031  11.157  11.416 -0.0917 -0.0040  0.1198
16646PP      PP26750  10.734  13.552   1.860  0.0602 -0.1237  0.0400
16647PP      PP26751  10.324  10.445   1.846  0.0220  0.1758 -0.3483
16648PP      PP26752   5.205  15.711   9.184  0.2272  0.2672 -0.1003
16649PP      PP26753  10.557  14.948   3.859  0.3285  0.2136  0.0847
16650PP      PP26754  10.051   3.896   2.012  0.0484  0.3345 -0.2196
16651PP      PP26755   3.756  13.251  10.730  0.0828 -0.1586  0.1038
16652PP      PP26756   1.227   9.249   9.404  0.0935  0.2214  0.1451
16653PP      PP26757  14.011   9.772   9.039 -0.0031  0.1442  0.0910
16654PP      PP26758  10.454   1.495  12.664  0.3311 -0.1173 -0.2370
16655PP      PP26759   2.193  10.755   3.437  0.1578 -0.0571  0.1884
16656PP      PP26760   8.513   9.885  11.115 -0.1191  0.0109 -0.1088
16657PP      PP26761  11.713  12.553   2.901  0.0926 -0.3931  0.1097
16658PP      PP26762  15.614   0.984  12.044 -0.0145  0.0350 -0.2734
16659PP      PP26763   2.235   8.653  11.389 -0.0502 -0.2064 -0.3575
16660PP      PP26764   3.679  15.589  12.335  0.0562  0.0845 -0.1639
16661PP      PP26765  15.368   3.112  10.110 -0.0661 -0.1033 -0.1275
16662PP      PP26766   0.175   4.108   3.245 -0.0478  0.1407  0.2232
16663PP      PP26767  13.638   6.260   3.987 -0.1881  0.0372  0.0216
16664PP      PP26768  12.252   8.376   9.428 -0.0558 -0.0434  0.0021
16665PP      PP26769   4.021   1.801  10.166  0.0614  0.2531  0.1601
16666PP      PP26770  14.108   1.469  11.156  0.0431 -0.1962  0.0367
16667PP      PP26771   1.734  11.254   2.666  0.0202  0.4572  0.4638
16668PP      PP26772  15.333   4.378  10.666 -0.1540  0.0472  0.0667
16669PP      PP26773  10.148   4.756   0.177  0.1377 -0.1462  0.0132
16670PP      PP26774   2.951   4.399   1.182 -0.0542  0.0455  0.0589
16671PP      PP26775   0.424   0.849   2.045 -0.0666  0.0426 -0.1150
16672PP      PP26776   9.052   4.384   9.795 -0.0094  0.0628  0.3679
16673PP      PP26777   4.992  11.436  12.370 -0.3530  0.1828 -0.2121
16674PP      PP26778   2.965  15.276  12.203 -0.1264  0.1680 -0.0363
16675PP      PP26779   9.575  13.880  12.445  0.0009 -0.3288 -0.1559
16676PP      PP26780   2.358   8.727  12.855 -0.3849 -0.0203  0.0056
16677PP      PP26781  10.367   6.532   0.003 -0.0535 -0.3738 -0.1146
16678PP      PP26782  14.663   7.223   3.558 -0.0706 -0.0086  0.2266
16679PP      PP26783  11.332  15.040   1.520  0.1909  0.0474  0.0926
16680PP      PP26784   0.074  13.416   1.974 -0.0098  0.0155 -0.1271
16681PP      PP26785   0.557   7.309  12.234 -0.4196  0.0513 -0.2164
16682PP      PP26786   5.267   9.575  12.897  0.1797 -0.2364 -0.0467
16683PP      PP26787  15.435  15.399   4.779 -0.0312  0.1304  0.0790
16684PP      PP26788  10.047   3.856  11.007  0.1349  0.0900  0.0639
16685PP      PP26789  12.341   9.445  13.606 -0.0327 -0.0182 -0.1237
16686PP      PP26790   8.516   6.846  10.693 -0.1209  0.1536 -0.3341
16687PP      PP26791   3.848   5.020   9.583  0.2359 -0.2331  0.0822
16688PP      PP26792   9.767  10.665   3.926 -0.1430  0.0606 -0.1085
16689PP      PP26793   1.570  10.830   4.112 -0.1826  0.2076 -0.0922
16690PP      PP26794   0.625   1.138   1.688 -0.0376  0.1414  0.3031
16691PP      PP26795  11.197   5.071  10.547 -0.0802  0.0617  0.0905
16692PP      PP26796   8.170   7.808  11.116  0.2489  0.2610 -0.1841
16693PP      PP26797  10.892   6.146   1.460  0.0289 -0.0907  0.3694
16694PP      PP26798   3.345   0.813  12.317 -0.0983  0.0275 -0.0083
16695PP      PP26799   4.733   2.260   2.409 -0.0019 -0.0076 -0.2504
16696PP      PP26800  11.168   0.506   4.142  0.1761  0.0768  0.2344
16697PP      PP26801   0.411  13.527   3.310  0.1880  0.4130  0.3769
16698PP      PP26802   5.012   9.350  13.361  0.1255  0.0401  0.1777
16699PP      PP26803  10.588   6.628  13.339  0.0067 -0.1930  0.2476
16700PP      PP26804   1.546   3.809   1.401 -0.0303 -0.0042  0.1592
16701PP      PP26805   6.204   7.066  12.463 -0.0008  0.1657 -0.2205
16702PP      PP26806  10.918   9.847  12.534  0.1351  0.0612  0.1986
16703PP      PP26807  12.639   1.598   0.633  0.0097  0.0726  0.3774
16704PP      PP26808   3.512   7.191   2.268  0.1551 -0.0059  0.1101
16705PP      PP26809  12.356  10.315   4.200 -0.3542  0.0704  0.0566
16706PP      PP26810  12.470   9.961   2.468  0.2178 -0.1840  0.0180
16707PP      PP26811   7.492  11.394  12.801 -0.0152 -0.1720 -0.0279
16708PP      PP26812  11.971   6.909   1.075 -0.1626  0.2404  0.1338
16709PP      PP26813  10.560   7.918  10.308 -0.3467 -0.4397 -0.0002
16710PP      PP26814  13.961  15.644  11.291 -0.0572  0.1198  0.0735
16711PP      PP26815   1.881  10.965   1.581  0.3650 -0.1349 -0.2168
16712PP      PP26816   3.218  15.031   0.099 -0.0955 -0.0225 -0.1415
16713PP      PP26817   1.865  15.561  13.563 -0.0994 -0.4814 -0.2633
16714PP      PP26818   4.610   4.634   0.017  0.2165 -0.0186 -0.1821
16715PP      PP26819   9.326  10.894  10.930  0.0544  0.0952  0.0986
16716PP      PP26820  13.420  11.430  11.245 -0.1468  0.0068  0.0243
16717PP      PP26821   2.304   6.150   9.482  0.1340  0.0880 -0.2016
16718PP      PP26822   2.178   8.422   0.260  0.2069 -0.1332 -0.2314
16719PP      PP26823   5.894  13.314   2.397  0.1108  0.0696 -0.4380
16720PP      PP26824   2.181   5.467   4.868 -0.2124  0.1776 -0.0577
16721PP      PP26825   9.336  13.403   8.862  0.0372 -0.2381  0.2557
16722PP      PP26826  15.023   6.274   3.515 -0.0060  0.0070  0.3063
16723PP      PP26827   0.846   6.990   0.668 -0.0892 -0.5061  0.2318
16724PP      PP26828  13.646   8.368   9.922 -0.1820 -0.2474 -0.0156
16725PP      PP26829   3.813   4.163  13.655 -0.1278  0.0345 -0.0434
16726PP      PP26830  11.112   0.066  13.726 -0.0594  0.0789  0.0778
16727PP      PP26831   2.411  12.901   0.285  0.2012 -0.3615  0.1661
16728PP      PP26832  13.080  15.366   3.416  0.0883 -0.0844 -0.1494
16729PP      PP26833  10.555   7.041  13.687  0.1216 -0.1304  0.1215
16730PP      PP26834  14.436  14.804   3.289 -0.2117  0.1640 -0.0771
16731PP      PP26835   2.444   4.452   3.072  0.0201 -0.0863 -0.1121
16732PP      PP26836  12.339  14.906   3.064  0.0312 -0.0139 -0.0329
16733PP      PP26837   7.238  13.455   3.364 -0.1652  0.1522  0.1588
16734PP      PP26838  11.749   3.955  11.635  0.1225 -0.2444  0.0362
16735PP      PP26839  15.303   6.910   9.286  0.0759 -0.2549  0.0104
16736PP      PP26840  13.675  15.613   1.423  0.1508 -0.4864  0.2562
16737PP      PP26841  10.405  10.096   0.504  0.3237 -0.2244  0.1315
16738PP      PP26842   3.657   0.369  11.483  0.1678 -0.1999  0.1409
16739PP      PP26843   4.579   6.094   0.342  0.0079  0.0338 -0.1276
16740PP      PP26844  14.274   1.643  12.636  0.0057  0.0214  0.3072
16741PP      PP26845  11.140   9.219  11.025  0.3152  0.0569 -0.2957
16742PP      PP26846   9.131   0.549  12.588 -0.0086  0.0653  0.1753
16743PP      PP26847   0.430  10.481   0.686 -0.5714  0.0449  0.0705
16744PP      PP26848  15.511   8.266   8.816 -0.0283 -0.1140 -0.0650
16745PP      PP26849   4.224   8.907   2.469  0.2237  0.0489  0.2151
16746PP      PP26850   7.688  13.015   4.969 -0.0405  0.2396 -0.0407
16747PP      PP26851  13.804  13.321   5.038  0.0811  0.0414  0.0398
16748PP      PP26852  14.662  13.192   9.741  0.0809 -0.1338  0.3441
16749PP      PP26853   6.787  14.063  13.513 -0.4121  0.3794 -0.1431
16750PP      PP26854   3.522  10.783  13.471 -0.0375 -0.3798 -0.0987
16751PP      PP26855   6.715   5.906  12.240  0.0970 -0.0771  0.1233
16752PP      PP26856   8.961   9.863  13.225  0.0021 -0.1473 -0.1248
16753PP      PP26857   3.752  14.195  10.381  0.0636  0.0970  0.2014
16754PP      PP26858   2.678   4.054  12.202  0.3828 -0.1911 -0.0197
16755PP      PP26859  11.627  12.943   4.106 -0.1434  0.0826 -0.0577
16756PP      PP26860   9.309   3.962   9.877  0.0107  0.1392 -0.1152
16757PP      PP26861  13.309   7.704   0.396  0.2615 -0.0688  0.1049
16758PP      PP26862   1.015  11.183   2.986  0.0459  0.0367 -0.2017
16759PP      PP26863   8.271   1.602  10.538 -0.0894  0.0805  0.3047
16760PP      PP26864   4.053  12.337   0.019 -0.2700  0.0112  0.2027
16761PP      PP26865   2.590   7.670   2.067  0.0272  0.0633  0.0172
16762PP      PP26866   1.231  13.941   4.344 -0.1830 -0.2180 -0.1889
16763PP      PP26867  13.484   3.261   2.750  0.1878  0.2841 -0.0373
16764PP      PP26868   3.676   4.085   8.390  0.0581  0.2569  0.1030
16765PP      PP26869   4.835   7.978  11.851  0.1787 -0.2184 -0.0110
16766PP      PP26870   4.923  13.109   9.826  0.1395 -0.0927 -0.0406
16767PP      PP26871   9.928   9.627   4.067 -0.0937  0.1921  0.0004
16768PP      PP26872   0.711  11.489  11.139 -0.2252  0.1352  0.0805
16769PP      PP26873   6.785   4.529   8.510  0.0543 -0.1672 -0.2492
16770PP      PP26874   4.820   3.013   8.593  0.2347  0.1559  0.2582
16771PP      PP26875   9.121   8.536   2.855  0.0424 -0.1059 -0.0096
16772PP      PP26876  12.251  15.026  11.842  0.0203 -0.1845  0.1260
16773PP      PP26877   6.794   5.430   9.061  0.1883 -0.0789 -0.0470
16774PP      PP26878  15.572   4.507   8.427 -0.0102  0.1868 -0.1540
16775PP      PP26879   4.598   0.020   3.427  0.3215  0.0719 -0.0497
16776PP      PP26880   4.930   0.740   1.506 -0.0963 -0.0672 -0.1699
16777PP      PP26881   4.543   8.213   4.538 -0.0569  0.0587  0.1497
16778PP      PP26882   7.626   2.833   1.156 -0.0860 -0.3371 -0.3331
16779PP      PP26883   5.980   6.837   0.478  0.0390  0.0748 -0.1085
16780PP      PP26884   4.727  14.879  10.768  0.0574  0.0987 -0.0893
16781PP      PP26885  14.325   8.333   3.807 -0.1247  0.2282  0.3218
16782PP      PP26886  12.553  10.438  11.373  0.0552  0.2864 -0.2763
16783PP      PP26887  14.447  13.299  13.037  0.0434  0.0295  0.3129
16784PP      PP26888   0.156   3.366   9.987  0.0351  0.1011  0.0869
16785PP      PP26889   2.218  13.040   3.840 -0.1607  0.0587 -0.0043
16786PP      PP26890  15.256   4.733  13.135 -0.0660 -0.1080 -0.1963
16787PP      PP26891   6.253   2.448  10.879  0.2674  0.0344 -0.0144
16788PP      PP26892   0.832   2.991   0.696  0.0600 -0.1253  0.3217
16789PP      PP26893   0.400  14.475  13.671  0.0046  0.0867  0.0573
16790PP      PP26894   0.475   1.845  12.440  0.4137 -0.2667  0.0998
16791PP      PP26895   8.752   4.565   1.988  0.0792  0.2873 -0.2318
16792PP      PP26896   6.329  15.188   9.851 -0.4351 -0.0978  0.0968
16793PP      PP26897   5.828   7.901   2.230 -0.0915 -0.0157 -0.1807
16794PP      PP26898  13.129   4.689  13.617  0.0530  0.0364 -0.1430
16795PP      PP26899   6.954   1.768  10.071 -0.0855 -0.0427 -0.4576
16796PP      PP26900  15.261   1.702  11.322 -0.1260 -0.0976 -0.2619
16797PP      PP26901  11.964   9.074  13.416 -0.0968  0.0942  0.2036
16798PP      PP26902  13.871  11.431  11.509  0.2132  0.0828 -0.0098
16799PP      PP26903   8.832  11.423  10.060 -0.1680  0.3186 -0.0625
16800PP      PP26904   2.165  10.526  12.679  0.0480  0.0564 -0.1229
16801PP      PP26905  12.639  15.300   1.348 -0.4389  0.1415 -0.0376
16802PP      PP26906  12.181   3.409   9.186 -0.0478 -0.1284  0.0060
16803PP      PP26907   0.379   8.794   2.928  0.1586  0.0717 -0.1278
16804PP      PP26908  12.891  12.765   4.086 -0.1108 -0.1051  0.0002
16805PP      PP26909   8.534  12.759   1.799 -0.0844  0.4413 -0.4112
16806PP      PP26910   9.157   1.326  13.711  0.1684 -0.0225  0.0676
16807PP      PP26911  11.683  11.861   1.190  0.2994 -0.0931 -0.1967
16808PP      PP26912  10.106  12.096  13.464  0.1120  0.0958  0.1798
16809PP      PP26913   0.431   5.651   3.893  0.1340 -0.0007  0.4367
16810PP      PP26914   3.413  10.825   0.934 -0.0152  0.1421  0.1547
16811PP      PP26915   3.442   7.564   9.457  0.1784 -0.3799 -0.2074
16812PP      PP26916   9.775   0.830  12.109 -0.0359  0.0767 -0.1772
16813PP      PP26917  14.692  14.925   1.937 -0.1054  0.2627 -0.0983
16814PP      PP26918   6.845   3.510  11.562 -0.4945  0.2126  0.2034
16815PP      PP26919   1.902   8.118   8.209  0.1566  0.0934 -0.0229
16816PP      PP26920   6.027  15.571   3.367  0.0529 -0.0760 -0.1040
16817PP      PP26921   7.715  10.160   0.059  0.3802 -0.0602 -0.2381
16818PP      PP26922  12.330   1.688  11.527  0.4178  0.0892 -0.0548
16819PP      PP26923   1.517   7.829   8.356 -0.0404 -0.1816 -0.0537
16820PP      PP26924   7.387   7.368   8.939  0.1343  0.2657 -0.0705
16821PP      PP26925  12.986   8.442   3.243 -0.1826 -0.3387 -0.0049
16822PP      PP26926   8.793  10.602  13.710 -0.0597  0.2552 -0.1927
16823PP      PP26927   9.971  10.811   0.876 -0.0135 -0.0256  0.0363
16824PP      PP26928   1.347  12.483  12.540 -0.1340  0.1866 -0.1563
16825PP      PP26929  14.443   5.687   8.150  0.2060  0.4123  0.2349
16826PP      PP26930   4.088   8.052   4.740  0.1110 -0.0096  0.1378
16827PP      PP26931   2.128   6.974  13.367  0.2181 -0.2546 -0.0031
16828PP      PP26932   6.242  11.606   1.434 -0.0540  0.2467  0.0729
16829PP      PP26933  10.932   0.414   9.083  0.2008 -0.0676  0.0963
16830PP      PP26934  12.568   0.142  10.242 -0.2434 -0.1497  0.0976
16831PP      PP26935  15.203   8.681   8.954  0.0201  0.3204 -0.3150
16832PP      PP26936  10.913  15.038  13.647  0.0472 -0.2875 -0.2020
16833PP      PP26937  13.155   8.684   9.911 -0.2246  0.0636  0.2208
16834PP      PP26938  11.561  10.482  10.348 -0.1225  0.0027 -0.3646
16835PP      PP26939  12.521   1.628   3.172 -0.1792  0.1150  0.3592
16836PP      PP26940   8.450  10.234   9.891  0.0485 -0.0230 -0.0424
16837PP      PP26941  13.980   5.018   2.639 -0.0121  0.1813  0.1695
16838PP      PP26942   0.362  14.322   8.734 -0.0126  0.0375 -0.1120
16839PP      PP26943  12.947   2.645   2.643  0.2824 -0.2078 -0.0749
16840PP      PP26944   5.734   4.230   0.478  0.1621 -0.0984 -0.0740
16841PP      PP26945  13.247  12.054  13.155  0.1726  0.0816 -0.3832
16842PP      PP26946   5.688   2.476   9.078  0.0684 -0.1227 -0.0084
16843PP      PP26947   5.192   2.221  10.401  0.2185 -0.1722 -0.1798
16844PP      PP26948   4.094   0.454   1.301 -0.0617  0.0861  0.0543
16845PP      PP26949   3.473   8.912  11.868  0.3685 -0.1474 -0.3785
16846PP      PP26950   2.236  11.099  13.488 -0.0187 -0.1880  0.0198
16847PP      PP26951  11.571   7.944  11.422  0.4125  0.0284  0.2904
16848PP      PP26952  12.931   0.580   1.488  0.1257  0.0121 -0.1566
16849PP      PP26953  11.156  11.270   0.572 -0.2134 -0.0087  0.0059
16850PP      PP26954   4.356   8.783  13.443 -0.0487 -0.1992  0.1106
16851PP      PP26955   0.758   4.893  12.068  0.0964  0.0484  0.0638
16852PP      PP26956   3.363  12.265   3.291 -0.0524 -0.0413  0.1686
16853PP      PP26957   6.518  12.945  11.386  0.0192  0.0611 -0.1941
16854PP      PP26958  12.988   7.515   2.961  0.1621  0.2449 -0.1889
16855PP      PP26959  13.591  15.536  10.274 -0.2493  0.0539  0.6107
16856PP      PP26960   4.900  10.631   0.183 -0.0862  0.0854  0.4914
16857PP      PP26961  10.931  14.108  13.706  0.0095  0.4572 -0.0419
16858PP      PP26962  14.934   5.450   2.904  0.0817  0.0036  0.1669
16859PP      PP26963   4.395   8.057   1.417  0.2323  0.3036 -0.1707
16860PP      PP26964  10.272  12.083   1.258 -0.1835 -0.2060  0.1819
16861PP      PP26965   6.538   9.881  10.764  0.1242  0.2053 -0.1186
16862PP      PP26966   3.433   0.018   4.688 -0.1711 -0.1443  0.1767
16863PP      PP26967   8.105   0.152   1.005  0.1565  0.1547  0.1482
16864PP      PP26968  10.445   0.953  10.396  0.1247 -0.1357 -0.0272
16865PP      PP26969  10.386  13.182   1.680 -0.2070 -0.2058 -0.1051
16866PP      PP26970  13.298   4.233  11.369  0.0004  0.4647  0.3351
16867PP      PP26971   6.198  15.465  12.650 -0.1364  0.0394  0.2352
16868PP      PP26972   6.519  11.574   3.540  0.0252 -0.2046  0.0832
16869PP      PP26973   9.370   2.235   0.337 -0.0908 -0.1301 -0.4044
16870PP      PP26974  13.637  15.246   3.642  0.0442 -0.1612 -0.0439
16871PP      PP26975  15.220  14.577  13.365  0.0065  0.0582 -0.1324
16872PP      PP26976   3.007   8.535  10.540 -0.1339 -0.1254 -0.2297
16873PP      PP26977   7.733   6.989  10.415  0.2222 -0.3795  0.0307
16874PP      PP26978   4.594   9.502  12.995 -0.2052  0.0184  0.0405
16875PP      PP26979   0.174   7.378   8.684  0.1150 -0.0660 -0.0952
16876PP      PP26980   7.560   9.211   3.756 -0.0256 -0.1509  0.1743
16877PP      PP26981  11.483  15.049   2.971 -0.1144 -0.0172  0.0376
16878PP      PP26982   5.142  12.377   1.671  0.0304 -0.0689  0.3399
16879PP      PP26983   1.372   4.275  11.705  0.3997 -0.2316 -0.2606
16880PP      PP26984   6.966   6.486   9.374 -0.1918  0.1176  0.0232
16881PP      PP26985  11.064  10.397  13.056 -0.0083 -0.0253 -0.2580
16882PP      PP26986   1.534   5.819  11.464  0.0007  0.1078  0.1616
16883PP      PP26987   2.683  11.249   9.985 -0.0297 -0.2889 -0.0566
16884PP      PP26988  12.359   8.262  12.979 -0.0644 -0.0539 -0.1053
16885PP      PP26989   0.160   0.574   1.070 -0.1038 -0.0337  0.0033
16886PP      PP26990   2.213  10.431  11.316 -0.1847  0.1182 -0.1019
16887PP      PP26991  12.667  12.747  11.546  0.2178  0.2062  0.0183
16888PP      PP26992   5.670  11.351   4.930  0.0996 -0.4308 -0.0502
16889PP      PP26993   8.400   5.168   8.057  0.4316  0.1466 -0.0508
16890PP      PP26994  14.085   4.409  10.055  0.0590 -0.0000  0.1149
16891PP      PP26995  15.608   5.745  11.651 -0.1548  0.0224 -0.0619
16892PP      PP26996  13.258   5.346  10.503  0.1880 -0.0864 -0.3428
16893PP      PP26997  10.830   6.285   2.057  0.3470  0.0956 -0.1178
16894PP      PP26998   4.654   9.036   3.166  0.0631 -0.0679 -0.0842
16895PP      PP26999   5.018  14.215  13.758 -0.0257  0.0635  0.0118
16896PP      PP27000  13.004   8.921   2.508  0.0726 -0.2067 -0.2017
16897PP      PP27001   8.306  13.984   3.198  0.0171 -0.0482  0.0845
16898PP      PP27002  11.367  12.821  10.606  0.0995 -0.1957 -0.0530
16899PP      PP27003   8.459  10.644   3.557  0.0031 -0.1606  0.2760
16900PP      PP27004   3.618   6.429  10.715 -0.1053  0.0928  0.1662
16901PP      PP27005  14.286   9.834   0.377 -0.0211  0.3361 -0.1635
16902PP      PP27006   3.497  13.267   9.461 -0.0743 -0.1551 -0.0803
16903PP      PP27007   7.710   8.265   9.022  0.1035 -0.3354  0.1858
16904PP      PP27008  11.995  14.421  12.585 -0.0081  0.1709  0.0902
16905PP      PP27009   5.387  12.240   2.075  0.0679 -0.3555 -0.1430
16906PP      PP27010  13.790  14.886   4.065 -0.0512  0.1286 -0.1479
16907PP      PP27011   0.338  11.299   9.764  0.1548 -0.0213  0.1377
16908PP      PP27012   3.379   6.950  12.956 -0.0530  0.0348 -0.1921
16909PP      PP27013  13.611   1.302   3.214 -0.5102 -0.0400 -0.0233
16910PP      PP27014   6.619   9.394   3.613  0.0833 -0.0208  0.0232
16911PP      PP27015   0.391  15.195   0.836  0.1307 -0.3067 -0.0645
16912PP      PP27016   7.901   6.119   1.214  0.0186  0.0395  0.1941
16913PP      PP27017   5.692   3.343   1.785  0.0068 -0.2280  0.0832
16914PP      PP27018   4.627  11.532  12.008  0.2459  0.2486  0.2782
16915PP      PP27019   8.300  13.589   0.896  0.1746  0.1389  0.0671
16916PP      PP27020   6.276   8.288   5.150 -0.1027 -0.2642 -0.0034
16917PP      PP27021   4.059   6.821  11.270 -0.4098  0.0938  0.1316
16918PP      PP27022   1.005   8.167   2.546 -0.0131  0.0259  0.0358
16919PP      PP27023   7.875   7.140   1.399 -0.2910 -0.1325 -0.2721
16920PP      PP27024   8.136   6.178   2.629 -0.0915  0.0210  0.0612
16921PP      PP27025  12.511  10.388   2.765 -0.1596  0.0185 -0.3450
16922PP      PP27026  15.504  14.551  11.353  0.0221 -0.1277  0.2266
16923PP      PP27027   9.408   6.212   2.722 -0.1008 -0.0995  0.0354
16924PP      PP27028  15.193   5.918   3.211  0.0081 -0.1246  0.0321
16925PP      PP27029   2.585   1.504   9.486 -0.2902  0.0565 -0.0732
16926PP      PP27030  15.576   1.422   0.214  0.0399  0.5264 -0.0213
16927PP      PP27031   6.647   2.769  12.266  0.2753 -0.1107 -0.0593
16928PP      PP27032   6.053  10.650   0.819  0.0957  0.1149  0.5013
16929PP      PP27033  10.190   7.926   8.732 -0.0472  0.1551 -0.1350
16930PP      PP27034   4.009  11.698   3.702  0.1803 -0.1148  0.1343
16931PP      PP27035   7.288   0.217   4.038 -0.1564 -0.0730  0.2832
16932PP      PP27036  13.900   1.234  10.042  0.0233 -0.1387 -0.2437
16933PP      PP27037   5.308  12.311   2.620  0.1370 -0.0775  0.0180
16934PP      PP27038   8.023  10.912   0.787  0.0202 -0.3237  0.0689
16935PP      PP27039   1.578   9.864  10.016  0.2318  0.1798 -0.1461
16936PP      PP27040  10.956   4.379   3.941 -0.2581  0.2942 -0.3145
16937PP      PP27041   7.465   6.210  10.178 -0.4127 -0.3448  0.3172
16938PP      PP27042   0.491  14.716   9.171  0.0265 -0.0878 -0.1213
16939PP      PP27043  10.732   2.965   9.118  0.0301 -0.1555 -0.0807
16940PP      PP27044   0.659  11.479  12.492 -0.0235 -0.1441 -0.1988
16941PP      PP27045   3.125   7.138   2.531  0.1071  0.0374 -0.1144
16942PP      PP27046   1.794   5.332   0.025  0.2717  0.2385 -0.0470
16943PP      PP27047   2.823   6.896   2.175 -0.1505  0.4197  0.0592
16944PP      PP27048   1.876   2.612  12.202 -0.0178 -0.1320 -0.1394
16945PP      PP27049   3.949   6.206  12.986 -0.0950  0.0988 -0.0724
16946PP      PP27050  11.896  13.834  12.434  0.0904  0.2075  0.0436
16947PP      PP27051  15.706  15.020   1.067  0.0150 -0.1725 -0.2129
16948PP      PP27052   7.342   8.652  13.019  0.2958 -0.1339 -0.0404
16949PP      PP27053   9.502   8.482  12.565 -0.1129 -0.2805  0.1653
16950PP      PP27054  10.054   3.824   2.742  0.0476  0.1288  0.1132
16951PP      PP27055   4.065  13.641   4.659  0.1191 -0.2707 -0.0173
16952PP      PP27056   1.304   8.322  11.409 -0.0539  0.1004 -0.0604
16953PP      PP27057  12.112   8.323  12.476  0.1698 -0.1929 -0.0472
16954PP      PP27058   9.112   5.030  12.186 -0.1958 -0.1423 -0.0647
16955PP      PP27059  11.825   7.411   3.831 -0.1213  0.1109 -0.0232
16956PP      PP27060   6.785   5.386  12.318 -0.2785  0.2659 -0.0331
16957PP      PP27061   4.022   9.623   2.514 -0.1489 -0.1112  0.0185
16958PP      PP27062   8.265   5.061   0.753  0.0147 -0.0798 -0.2028
16959PP      PP27063   5.356   1.466   1.353  0.2605  0.2136  0.2072
16960PP      PP27064  13.730   5.325  11.582 -0.3251 -0.2725  0.0505
16961PP      PP27065   8.630   7.607  13.314 -0.0040 -0.0205  0.3481
16962PP      PP27066   1.026   9.009  12.914  0.0956 -0.0680  0.1217
16963PP      PP27067   3.735  11.915   1.235 -0.0106  0.0958 -0.0096
16964PP      PP27068   5.387   8.346   3.008 -0.1817 -0.2291 -0.0324
16965PP      PP27069   8.495   8.831  10.561 -0.2301 -0.0144 -0.0753
16966PP      PP27070  12.439   2.516   2.681 -0.1110  0.0975  0.3013
16967PP      PP27071  15.402  15.549   3.086 -0.0665  0.0227 -0.3952
16968PP      PP27072  10.368   2.805  13.152 -0.3052 -0.0989  0.0771
16969PP      PP27073   0.223   0.157  12.288  0.1882 -0.3182  0.1479
16970PP      PP27074  14.613   9.053  12.577 -0.0453 -0.0204  0.2514
16971PP      PP27075  11.938  10.558   9.604  0.2331 -0.3043  0.0973
16972PP      PP27076  11.573  15.610  12.571 -0.2747 -0.0509  0.1189
16973PP      PP27077   4.724  13.959   2.640 -0.0547 -0.1278 -0.2330
16974PP      PP27078  14.105   6.710   1.220  0.1118 -0.1646  0.0726
16975PP      PP27079  13.573   3.273  11.849 -0.0475 -0.3236  0.0043
16976PP      PP27080   2.504   0.977   9.569  0.5777  0.2697  0.1553
16977PP      PP27081  12.921  15.097  10.484  0.1753 -0.1125 -0.0644
16978PP      PP27082   2.820  10.890   3.513  0.2502 -0.2814 -0.4345
16979PP      PP27083   1.026   8.833  12.302  0.2199  0.0907 -0.1147
16980PP      PP27084  11.894   9.934   9.627 -0.1401 -0.0241 -0.1846
16981PP      PP27085  13.256   5.592   0.599 -0.1069  0.1274  0.0391
16982PP      PP27086   1.074  12.634   0.480 -0.2051  0.0107  0.0447
16983PP      PP27087   3.520  12.003  11.532  0.2059 -0.3253 -0.0479
16984PP      PP27088   7.505  13.580  13.157  0.0086 -0.3854  0.1241
16985PP      PP27089  15.621  13.288  10.402  0.0189  0.1589 -0.1556
16986PP      PP27090   2.279   8.087   2.004 -0.0795  0.2401  0.1007
16987PP      PP27091   3.520   7.215   3.576  0.0782  0.1413 -0.0092
16988PP      PP27092   2.822   4.448   3.746  0.3050 -0.0469  0.1874
16989PP      PP27093   2.848   3.364  13.104  0.2106  0.0474 -0.2455
16990PP      PP27094   2.261   2.293  12.329 -0.1265  0.1511  0.0527
16991PP      PP27095   7.160  11.287   0.847 -0.1499 -0.0294 -0.0166
16992PP      PP27096  12.125   1.249  10.867  0.0981 -0.1215 -0.1885
16993PP      PP27097   7.229   5.784   1.451  0.0389 -0.0481  0.0187
16994PP      PP27098  11.769  12.033   0.651 -0.0351  0.0050 -0.2628
16995PP      PP27099  11.329   7.780   2.179 -0.2200  0.1714  0.2420
16996PP      PP27100  11.307   9.584   0.055  0.0325  0.0509 -0.0930
16997PP      PP27101   3.612   8.075  11.893  0.0117 -0.0233 -0.0153
16998PP      PP27102  11.028   9.979   8.621  0.2468  0.3011  0.0872
16999PP      PP27103  11.958  10.643   3.577 -0.0062  0.4675  0.1666
17000PP      PP27104   3.141   0.330  12.380  0.0121 -0.1343 -0.0970
17001PP      PP27105   4.733  12.007   5.448  0.1579  0.1057 -0.2011
17002PP      PP27106   3.941   6.508   2.414  0.1209  0.0467 -0.3137
17003PP      PP27107  10.624   2.974  10.029 -0.1587  0.1809  0.3461
17004PP      PP27108   5.889   6.335  13.654 -0.2416 -0.2013 -0.1465
17005PP      PP27109   4.430  14.746  12.098 -0.0431 -0.0713 -0.1834
17006PP      PP27110   5.894   0.771   0.287  0.0537  0.3857  0.2285
17007PP      PP27111   1.140  14.667  11.538 -0.0357 -0.2803  0.0723
17008PP      PP27112   0.991   2.313  10.245 -0.0873 -0.3065  0.2162
17009PP      PP27113  12.034   9.980   3.046  0.1394  0.2887 -0.0051
17010PP      PP27114  12.037   4.681  12.509  0.4459 -0.1023 -0.0493
17011PP      PP27115  13.526   9.397  12.786 -0.0584 -0.4078  0.3794
17012PP      PP27116   2.673   9.577   4.900  0.0159 -0.0182 -0.2528
17013PP      PP27117   2.423  13.740  12.150  0.3381 -0.1836  0.1229
17014PP      PP27118  13.533  10.130  11.414 -0.0776 -0.0108  0.2294
17015PP      PP27119  14.663  12.476   1.462 -0.1175  0.0006  0.0502
17016PP      PP27120  15.561   2.499   9.012  0.1959 -0.0016 -0.3401
17017PP      PP27121   9.459   9.368   3.510 -0.1208 -0.0152  0.1168
17018PP      PP27122  14.303   8.968   9.368 -0.1321  0.2311 -0.0823
17019PP      PP27123   1.186   7.385   1.106  0.2106 -0.2012  0.1993
17020PP      PP27124   0.160   2.034   2.064 -0.2630  0.0860  0.2147
17021PP      PP27125  10.258   5.850   4.440 -0.0260 -0.1491  0.0218
17022PP      PP27126  10.406   4.931  10.754 -0.0460 -0.1482 -0.2579
17023PP      PP27127  13.642   0.659   1.900 -0.1994  0.0286 -0.0808
17024PP      PP27128   8.182   5.995   3.187  0.0521 -0.0257  0.1619
17025PP      PP27129   7.400  11.940  12.918  0.3692 -0.1136  0.2205
17026PP      PP27130   2.616   6.081   9.839 -0.3010 -0.2591  0.2187
17027PP      PP27131   7.568   7.789  10.260  0.2536  0.2594  0.3295
17028PP      PP27132  15.373   5.297  11.447  0.3347  0.1131 -0.2199
17029PP      PP27133   5.714   3.440  10.403 -0.0616 -0.0655  0.0485
17030PP      PP27134   2.622   1.012  12.714 -0.0973  0.1115  0.1753
17031PP      PP27135   8.179   0.235  11.704  0.3683  0.3231  0.2781
17032PP      PP27136   0.842  11.632   3.023  0.0383  0.1239  0.1541
17033PP      PP27137   5.850   5.534  13.173  0.0827  0.2947 -0.0276
17034PP      PP27138   2.152   8.870  13.385 -0.0358  0.1660  0.3368
17035PP      PP27139   8.852  12.424   5.089  0.1236  0.0475 -0.1641
17036PP      PP27140   9.711   4.129   3.482  0.2097 -0.0037  0.1525
17037PP      PP27141   2.965  12.572   4.287  0.2947 -0.2781 -0.4297
17038PP      PP27142   0.267   6.200   2.600 -0.1058 -0.1498 -0.2868
17039PP      PP27143   3.077  12.989  11.399  0.1063  0.1031  0.0522
17040PP      PP27144   1.561   1.720   9.508 -0.1346  0.0851  0.0202
17041PP      PP27145  13.669   0.363   3.191  0.2025  0.3672  0.1294
17042PP      PP27146   7.846  12.798   9.487  0.0722 -0.0522  0.1548
17043PP      PP27147  11.520   4.909   3.363  0.1796  0.1116 -0.0481
17044PP      PP27148  12.623   9.013  10.845 -0.2591 -0.0287 -0.1066
17045PP      PP27149   8.820  13.464   0.678  0.0733 -0.0165 -0.0231
17046PP      PP27150   3.142   5.667  13.327 -0.0427 -0.1114  0.1305
17047PP      PP27151   3.602   4.611  11.688  0.0314 -0.1309  0.1637
17048PP      PP27152   4.820   2.238  11.176 -0.0427 -0.0103 -0.1024
17049PP      PP27153  11.857   8.326  10.467  0.1057  0.0536  0.0148
17050PP      PP27154   0.215  13.921  11.106 -0.0692  0.0019  0.0179
17051PP      PP27155   4.803  12.790  12.657 -0.3465  0.0784 -0.1490
17052PP      PP27156   0.484   7.094  10.234 -0.1287  0.2572  0.0008
17053PP      PP27157   0.899   0.104   0.644 -0.0342 -0.0752  0.0020
17054PP      PP27158  13.128   4.129   2.323  0.0024  0.0271 -0.2589
17055PP      PP27159  12.701  14.606   2.970  0.2218  0.2076  0.1974
17056PP      PP27160  12.191   8.462   2.635  0.1837 -0.1822  0.1361
17057PP      PP27161   1.223  11.999   2.956  0.0338  0.0373 -0.0985
17058PP      PP27162   7.676   3.606   9.002 -0.2386  0.3673  0.2120
17059PP      PP27163  14.126   2.295   8.229  0.0568 -0.0132  0.2607
17060PP      PP27164   5.158  11.913   4.544  0.1417  0.0371 -0.1803
17061PP      PP27165  14.540  15.731   2.801 -0.1672 -0.4123 -0.1763
17062PP      PP27166  11.558   3.769   2.947  0.3916  0.0623  0.0259
17063PP      PP27167   6.840   5.235   2.200  0.6301  0.2222  0.3226
17064PP      PP27168  13.302  11.332   9.743 -0.2412  0.1984 -0.2215
17065PP      PP27169  11.942   7.266   2.425 -0.1013  0.0041 -0.3008
17066PP      PP27170   7.364   6.491  11.485  0.4383  0.1336 -0.2342
17067PP      PP27171  10.777   6.523  12.732 -0.2051 -0.1028 -0.1396
17068PP      PP27172   0.104   8.952   9.639 -0.2063 -0.2099  0.1509
17069PP      PP27173   9.695   1.669   1.225  0.0240  0.1516 -0.0709
17070PP      PP27174   4.111   4.563  10.872 -0.1723  0.1646 -0.3772
17071PP      PP27175   0.823   8.246   3.573 -0.3271  0.1741  0.0095
17072PP      PP27176  13.492  15.584   3.293  0.0833  0.1759  0.1637
17073PP      PP27177   6.144   2.119   1.665 -0.0855 -0.2506 -0.0663
17074PP      PP27178  10.537  10.600  10.153 -0.0915 -0.4342 -0.1089
17075PP      PP27179   8.788   4.123   9.012  0.0101 -0.1532 -0.1046
17076PP      PP27180   9.759   0.512   9.802  0.0971  0.0674 -0.0890
17077PP      PP27181   0.036   4.919  12.331 -0.0505  0.0602  0.2057
17078PP      PP27182   3.605  14.851  10.419 -0.3840 -0.1007 -0.0153
17079PP      PP27183   9.054   0.597  13.040 -0.0732  0.1317  0.0022
17080PP      PP27184   8.730   3.399  13.481 -0.3031  0.0284 -0.3309
17081PP      PP27185   8.590   4.626   9.689  0.2690  0.1584  0.3077
17082PP      PP27186  13.753  14.068  12.536 -0.1489 -0.0822 -0.1147
17083PP      PP27187   0.692   3.843  10.506 -0.1171 -0.0709  0.0736
17084PP      PP27188   1.044   5.326   2.826  0.1936 -0.1746 -0.1837
17085PP      PP27189   7.705   0.692  10.981  0.0851  0.2332  0.2851
17086PP      PP27190   9.034  12.573  10.656 -0.0236  0.1623  0.1199
17087PP      PP27191   4.125  15.402   9.446  0.0921  0.0576 -0.1295
17088PP      PP27192   6.963   6.621   8.375  0.1334 -0.0711 -0.0027
17089PP      PP27193  14.774   4.184  12.235  0.4575 -0.0324 -0.2086
17090PP      PP27194   0.145   1.995   9.805  0.0069  0.2512 -0.0731
17091PP      PP27195   1.234   0.172  12.431 -0.2308 -0.1473 -0.1049
17092PP      PP27196   6.083  10.109  12.564  0.0168 -0.0456 -0.0159
17093PP      PP27197   2.577  12.060  11.193  0.1165  0.2038 -0.0141
17094PP      PP27198   5.047   1.617   9.811 -0.0475 -0.3366 -0.1058
17095PP      PP27199   2.605   5.616   1.705  0.2958  0.2633 -0.0591
17096PP      PP27200   3.703   3.583   3.916  0.0620 -0.1955  0.1483
17097PP      PP27201   6.734   2.599   9.119  0.0284 -0.0695 -0.0283
17098PP      PP27202  13.102  14.849  13.384  0.2295 -0.1847  0.3482
17099PP      PP27203   3.769  11.014   2.523  0.0156  0.3346  0.1856
17100PP      PP27204   3.848   9.296   4.673  0.1492 -0.4951  0.5705
17101PP      PP27205   2.314   4.675   0.525  0.3697  0.2787  0.1175
17102PP      PP27206   4.565   2.869  13.043 -0.0650  0.1555 -0.0649
17103PP      PP27207  13.306  10.836   9.688  0.0590  0.1912  0.2082
17104PP      PP27208   3.463   7.747   2.978  0.0690  0.1749 -0.1151
17105PP      PP27209   3.552  10.549   5.152 -0.1351 -0.3056 -0.0982
17106PP      PP27210  10.937   4.474   3.004  0.1709 -0.3172  0.1577
17107PP      PP27211   4.028   3.213  10.174  0.0297  0.2883 -0.1238
17108PP      PP27212  13.094   0.119  11.494 -0.1006  0.2457  0.0359
17109PP      PP27213   2.729   0.505   9.364  0.0632  0.0861  0.0478
17110PP      PP27214  10.331  11.134   3.391  0.1348  0.0039  0.1848
17111PP      PP27215  15.597  14.843   9.485 -0.2835 -0.2195  0.2347
17112PP      PP27216   5.909  10.606  10.528 -0.1058 -0.0389  0.2093
17113PP      PP27217   9.281   5.895  11.833  0.0564  0.0237 -0.1318
17114PP      PP27218   9.353  13.261   3.188  0.1950  0.2985 -0.0610
17115PP      PP27219   6.313  13.186   0.553  0.2015  0.0108 -0.1872
17116PP      PP27220   6.303   9.513   1.226  0.1460  0.0292  0.2174
17117PP      PP27221   2.253   3.579  13.449  0.0817 -0.1795  0.1118
17118PP      PP27222   5.930  14.502   1.914  0.1093  0.1989 -0.0842
17119PP      PP27223   1.988   1.509   1.438 -0.0384 -0.1464  0.1962
17120PP      PP27224   8.776   9.539  12.444  0.0082  0.1603 -0.0721
17121PP      PP27225  15.181   8.457   1.160 -0.1231  0.0926 -0.0311
17122PP      PP27226   1.476   8.996  13.742  0.2505  0.0402  0.0085
17123PP      PP27227  13.971   0.862   1.307  0.0192  0.0040 -0.2558
17124PP      PP27228   3.764  15.444  10.799 -0.1700 -0.0160 -0.0708
17125PP      PP27229   6.009   3.782  11.380  0.0197 -0.2102  0.0033
17126PP      PP27230   0.519  15.442  10.303  0.1263  0.2169 -0.0316
17127PP      PP27231   9.840   7.206   1.950  0.2327 -0.1064  0.1571
17128PP      PP27232   9.500  14.933   8.523 -0.1763  0.0335  0.0946
17129PP      PP27233   1.628   7.771   9.921  0.0287 -0.2302  0.0538
17130PP      PP27234  13.957   4.970   8.319  0.2027  0.0624 -0.1797
17131PP      PP27235   2.699   3.896   1.395  0.0723 -0.1990  0.2515
17132PP      PP27236   2.062   2.552   2.233 -0.0749  0.0006 -0.1241
17133PP      PP27237  13.152  12.451   0.423 -0.0925 -0.0742 -0.2028
17134PP      PP27238   2.831   7.303   4.289  0.3129  0.0414  0.0148
17135PP      PP27239  14.788  13.539  10.155 -0.1332  0.1423 -0.0575
17136PP      PP27240   4.097  12.138   4.594  0.1207  0.2457  0.2771
17137PP      PP27241   1.009  13.488   4.629  0.0379 -0.0108  0.0133
17138PP      PP27242   5.643   3.703  10.919 -0.2212  0.3481  0.2779
17139PP      PP27243  12.275  15.476  11.039  0.1077  0.2160  0.0517
17140PP      PP27244   0.265   8.940  11.213  0.0876  0.1913 -0.1158
17141PP      PP27245  11.536   9.998   8.959 -0.1741 -0.2294 -0.0918
17142PP      PP27246   1.807   4.312   9.435  0.2324 -0.1965 -0.3084
17143PP      PP27247   0.480   5.735   0.143  0.0116 -0.1166  0.0103
17144PP      PP27248   9.481   0.366   2.290  0.1092  0.0239 -0.0169
17145PP      PP27249   4.226   3.553  11.507 -0.0478 -0.1743  0.0926
17146PP      PP27250   2.015   7.146   0.836  0.2755  0.2489  0.1743
17147PP      PP27251  12.143   4.598   0.041 -0.1843 -0.2909  0.1726
17148PP      PP27252  12.106   5.153   9.069  0.0712 -0.2077 -0.0251
17149PP      PP27253  10.007  15.116   4.362 -0.0775  0.0597  0.0818
17150PP      PP27254   2.713   7.642   0.148  0.1780  0.1643  0.1843
17151PP      PP27255   2.691   6.962   2.855  0.1588 -0.0532  0.4364
17152PP      PP27256   3.176   4.497   9.141 -0.0480  0.1671 -0.0246
17153PP      PP27257   7.936  10.868  10.245  0.0050 -0.2666  0.1763
17154PP      PP27258   0.452  11.674   2.730 -0.0971 -0.2929 -0.3820
17155PP      PP27259   1.760   9.804   1.242 -0.0537  0.1061  0.4468
17156PP      PP27260   9.320  11.915   4.562  0.0446  0.0424 -0.0844
17157PP      PP27261   6.438  10.627   2.265 -0.1144 -0.0352  0.0469
17158PP      PP27262   9.560   5.684  12.770  0.1319  0.0552  0.1163
17159PP      PP27263   3.524   2.486  12.851 -0.2480  0.0294 -0.1935
17160PP      PP27264   9.859  14.524   1.601 -0.0397  0.2792  0.1458
17161PP      PP27265  10.286   7.766  10.699 -0.1730  0.0181  0.0570
17162PP      PP27266  10.624   7.478   9.277 -0.2105  0.0552  0.1399
17163PP      PP27267   3.500  12.144   0.736  0.0589  0.0913 -0.2864
17164PP      PP27268   4.216   3.557  13.259  0.0126  0.2372  0.1123
17165PP      PP27269   5.549   8.634   0.453  0.0342 -0.1371  0.1874
17166PP      PP27270  14.209   4.647   0.717 -0.0409  0.2158  0.1029
17167PP      PP27271   4.985   1.271   1.579  0.1581  0.1017 -0.2618
17168PP      PP27272   7.492  13.493   2.916  0.0578 -0.0064 -0.0087
17169PP      PP27273  11.382   6.507   0.635  0.0841 -0.0683  0.1080
17170PP      PP27274  10.764   5.703   2.798 -0.0450 -0.2845  0.1196
17171PP      PP27275  14.838  13.398   0.360 -0.0802  0.2114 -0.1923
17172PP      PP27276   5.349   8.625   4.313  0.1005 -0.2199  0.2281
17173PP      PP27277  14.751  14.164   3.984 -0.0926  0.0877  0.2908
17174PP      PP27278   6.803   4.976  13.688 -0.1735  0.2196 -0.0171
17175PP      PP27279  11.796   6.414  12.006 -0.3314 -0.0541  0.0583
17176PP      PP27280   5.378   5.755  11.510  0.0938 -0.0500  0.2298
17177PP      PP27281  11.826  12.266  13.758  0.3956 -0.0694 -0.0641
17178PP      PP27282   2.995  11.413   0.119  0.1926  0.0298 -0.2114
17179PP      PP27283   0.209   3.651   4.210 -0.0067  0.0982 -0.2581
17180PP      PP27284  11.173   8.615  12.900 -0.2595  0.2326  0.3810
17181PP      PP27285   1.435  12.059  10.817  0.0475  0.0567 -0.3644
17182PP      PP27286  11.432   5.232  13.579 -0.1665  0.2458  0.4051
17183PP      PP27287  14.009  12.511   4.486 -0.0842 -0.1121 -0.1535
17184PP      PP27288   3.254   7.564   1.615 -0.1014  0.1955 -0.1705
17185PP      PP27289  12.049   3.654  10.241  0.1102  0.2521  0.0402
17186PP      PP27290  11.816  12.993  13.491  0.0347  0.6106 -0.0195
17187PP      PP27291   0.962  10.590  10.787  0.4101  0.1660 -0.0964
17188PP      PP27292   0.829   6.545  11.911 -0.1320  0.1132  0.0910
17189PP      PP27293  12.885   7.712  10.864 -0.4190 -0.0246 -0.3536
17190PP      PP27294  11.342  10.828   1.528  0.0275  0.0877 -0.2174
17191PP      PP27295   6.388  14.804  10.478  0.0169 -0.0197  0.0300
17192PP      PP27296  15.597  14.291  12.644  0.1196  0.0457 -0.0660
17193PP      PP27297   4.797  10.960   4.250 -0.0117 -0.1243  0.0587
17194PP      PP27298   9.748  13.619   3.026  0.1641  0.0179 -0.0804
17195PP      PP27299   8.761   9.016  13.147  0.1304 -0.2341  0.2256
17196PP      PP27300   5.017   6.616   0.050  0.0879 -0.0435 -0.1051
17197PP      PP27301   8.944   9.170  10.848  0.2000 -0.0287  0.1309
17198PP      PP27302  13.193   9.714  12.586 -0.0038 -0.0125 -0.1270
17199PP      PP27303  10.203   3.366  13.270  0.2298 -0.1184 -0.3047
17200PP      PP27304   7.107  13.705  11.086 -0.2640  0.2403 -0.2408
17201PP      PP27305   2.720   5.424  12.532  0.0350 -0.1563  0.1950
17202PP      PP27306  15.708   7.549   3.124  0.0170  0.3541 -0.0075
17203PP      PP27307   6.532  13.365  10.674 -0.0581 -0.1831  0.2217
17204PP      PP27308   1.930   3.254  10.337  0.1576 -0.3900 -0.3880
17205PP      PP27309   1.918  11.958  13.060  0.0897  0.0687 -0.1293
17206PP      PP27310  15.228   1.206   4.285 -0.0707 -0.0234 -0.0324
17207PP      PP27311   6.517   5.371  13.553 -0.3310 -0.0030  0.1576
17208PP      PP27312  13.555   1.608   2.799  0.1096  0.1068  0.3684
17209PP      PP27313   2.201   3.022   1.365 -0.0085 -0.0063 -0.1031
17210PP      PP27314  13.906   2.496   3.085 -0.0300  0.1146  0.0838
17211PP      PP27315   6.244  15.015   2.895 -0.1663 -0.0278  0.1336
17212PP      PP27316   4.465   4.822  11.055 -0.1519  0.1503 -0.0534
17213PP      PP27317  10.478  14.909   8.673  0.1558  0.0525 -0.0582
17214PP      PP27318   1.621  13.655   1.392  0.0661 -0.3932 -0.1011
17215PP      PP27319  10.306   1.506   2.142 -0.3392  0.2821  0.1443
17216PP      PP27320  12.557   1.626  13.138 -0.0376 -0.0642 -0.3028
17217PP      PP27321   8.690   5.463   9.026  0.2326  0.2232 -0.0940
17218PP      PP27322  15.590   8.924  10.966  0.0501 -0.0182  0.1005
17219PP      PP27323  12.329  15.154   4.427 -0.1667 -0.0659 -0.0879
17220PP      PP27324   7.521   0.262   4.459 -0.2360  0.3737  0.0630
17221PP      PP27325   6.254   1.562  10.593 -0.0683 -0.1584 -0.4494
17222PP      PP27326   5.739  10.155  10.323  0.1054 -0.2219  0.2191
17223PP      PP27327   4.066   7.314   0.518  0.5242 -0.1289  0.3036
17224PP      PP27328   1.603   2.253   3.068  0.0538 -0.3043 -0.3259
17225PP      PP27329   1.919  15.248   9.231 -0.1109  0.0969  0.0050
17226PP      PP27330   5.021  11.192   2.403 -0.0625  0.0925  0.2144
17227PP      PP27331   4.008   7.681   1.533 -0.1410  0.0665 -0.4143
17228PP      PP27332   0.424  14.307   4.045  0.0534 -0.0007 -0.0279
17229PP      PP27333   3.650   7.732   3.487 -0.2194  0.2017 -0.0508
17230PP      PP27334   8.217   3.019   3.094 -0.1109 -0.2252 -0.5964
17231PP      PP27335  12.933  15.489   0.429  0.0265 -0.3042  0.0720
17232PP      PP27336   8.632   2.773  11.058 -0.0347  0.2412  0.0268
17233PP      PP27337   0.999   4.685  10.361  0.0807 -0.1985  0.0308
17234PP      PP27338   0.521   7.316   9.350  0.1068  0.0611 -0.1032
17235PP      PP27339   5.295   0.645   3.411  0.0022  0.1762 -0.1539
17236PP      PP27340   8.471  12.827   4.302  0.0785  0.3773 -0.1786
17237PP      PP27341  10.329  12.267   0.501 -0.1268  0.0295  0.5155
17238PP      PP27342  15.379   6.401   0.039 -0.2716  0.0001 -0.0136
17239PP      PP27343   9.310   1.391   0.836  0.0203 -0.0494  0.1082
17240PP      PP27344  14.179   5.348  11.832 -0.0985 -0.0444  0.0693
17241PP      PP27345  13.149   2.267   9.252  0.1546  0.1710  0.0124
17242PP      PP27346   3.729   5.297   1.605  0.1267 -0.2129  0.0049
17243PP      PP27347   8.210  13.426  13.045  0.3604 -0.0186 -0.0447
17244PP      PP27348  12.644   4.021   8.095  0.2345 -0.1694 -0.0705
17245PP      PP27349   0.639  11.504  13.128 -0.2134 -0.4289 -0.1419
17246PP      PP27350  12.886   9.811  13.754 -0.3718 -0.0297  0.0343
17247PP      PP27351   7.403   4.191   1.961  0.0434  0.1505 -0.1051
17248PP      PP27352  11.240   2.181   8.858  0.1832 -0.0080 -0.2328
17249PP      PP27353  12.522  12.576   1.394 -0.1459  0.1373 -0.0009
17250PP      PP27354   6.761   0.474   0.878 -0.0100 -0.3378  0.1108
17251PP      PP27355   1.867  14.984  12.158 -0.0194  0.0044  0.0311
17252PP      PP27356   5.094   1.091  13.008  0.0519  0.2058  0.1908
17253PP      PP27357   0.227   4.738   1.801 -0.0057  0.1143  0.0248
17254PP      PP27358   0.280   1.165   4.416  0.6206  0.2623  0.3534
17255PP      PP27359  12.783  11.384   4.563  0.2549  0.0796 -0.1930
17256PP      PP27360   4.649   6.558   0.443  0.1343 -0.2564  0.3281
17257PP      PP27361   0.654   1.731   1.400 -0.0184 -0.1517 -0.1034
17258PP      PP27362   4.375  14.549  13.056  0.1943  0.1274 -0.0660
17259PP      PP27363   4.718  14.143  10.492  0.0951  0.0197 -0.1069
17260PP      PP27364   1.017  13.994  11.408 -0.0488  0.1203  0.2696
17261PP      PP27365  10.497  14.760  10.422 -0.2021 -0.0540  0.1560
17262PP      PP27366  15.650   9.917   3.292 -0.1197 -0.0658  0.0766
17263PP      PP27367  15.498  15.191   2.456  0.0939 -0.0425 -0.0723
17264PP      PP27368  12.706  13.940  11.620 -0.2319  0.1043  0.0661
17265PP      PP27369   7.510   4.282  12.743  0.2350  0.2184  0.2099
17266PP      PP27370  13.109  13.962   2.172 -0.0027  0.1699  0.0254
17267PP      PP27371  14.435   6.577   2.082 -0.0586 -0.0639  0.0589
17268PP      PP27372   9.023   9.281   3.351  0.1779 -0.0675 -0.0459
17269PP      PP27373  11.385  13.798  12.164 -0.1875  0.0184  0.1365
17270PP      PP27374   1.950   7.987   8.715 -0.1405  0.0909  0.0008
17271PP      PP27375   4.910   3.840   0.555 -0.1183  0.1442 -0.0492
17272PP      PP27376   1.494   9.623  11.910  0.1877  0.1058 -0.2107
17273PP      PP27377  10.134   2.671   1.090 -0.0077  0.1094 -0.1521
17274PP      PP27378  14.204  15.442  12.214 -0.1750  0.0550  0.4096
17275PP      PP27379   5.293   8.022  11.786  0.1742  0.0346 -0.0648
17276PP      PP27380  11.401   0.939   4.101  0.3265 -0.2701 -0.1043
17277PP      PP27381  10.934  12.494   1.349 -0.1526  0.1577 -0.0955
17278PP      PP27382  15.691   1.483   9.484  0.1635  0.1599 -0.2512
17279PP      PP27383  14.730   2.216   8.517  0.0711 -0.0677  0.0825
17280PP      PP27384   2.737  10.521   0.495 -0.0914 -0.0627 -0.2209
17281PP      PP27385  10.344   9.680   3.782 -0.2198 -0.1596 -0.0647
17282PP      PP27386   6.761   8.908   2.742  0.0995 -0.1263  0.0502
17283PP      PP27387   9.864   1.720   2.221  0.1313 -0.0239  0.0210
17284PP      PP27388   0.950  11.851   2.579  0.1168  0.2305 -0.1689
17285PP      PP27389  12.512   3.256   1.348 -0.1494 -0.0974  0.0844
17286PP      PP27390  14.873  11.640   1.328  0.1537 -0.0280  0.1518
17287PP      PP27391   3.198  13.820   9.249  0.1758 -0.1006  0.0080
17288PP      PP27392   2.082  10.703   4.135 -0.0519  0.1701  0.0207
17289PP      PP27393  10.254   2.446  11.625  0.0674 -0.1943 -0.4528
17290PP      PP27394   0.248  11.027  10.807 -0.3235 -0.0997 -0.1507
17291PP      PP27395  11.224   5.013   1.518  0.1187  0.3067  0.1338
17292PP      PP27396   6.315   0.432   1.227 -0.1208  0.2054 -0.0431
17293PP      PP27397  14.882   7.573   2.620 -0.1820  0.5019  0.2951
17294PP      PP27398   8.605  11.542   0.381 -0.0169  0.0135  0.3500
17295PP      PP27399   9.893   6.239   9.014  0.1480  0.1585  0.1924
17296PP      PP27400   4.575   4.333   9.190 -0.0052  0.1935  0.2773
17297PP      PP27401   2.311   1.544   2.953 -0.3257  0.0752  0.0190
17298PP      PP27402   9.983   6.821   3.986  0.2424  0.2658  0.4773
17299PP      PP27403   9.408   3.526  11.325  0.1787 -0.2663  0.1841
17300PP      PP27404  14.284  12.688  10.739  0.0982  0.3133  0.0976
17301PP      PP27405   5.467  10.846   5.124  0.1251 -0.0581  0.1746
17302PP      PP27406   8.960  15.655  10.764  0.0125 -0.0005 -0.1648
17303PP      PP27407  12.545   3.914   3.915 -0.1816 -0.0298  0.0278
17304PP      PP27408   7.705  14.831   0.398  0.1898  0.1499 -0.3736
17305PP      PP27409   6.502   3.996   8.896 -0.0924  0.0897 -0.0486
17306PP      PP27410  12.827   5.395   0.385 -0.1032 -0.0720 -0.4046
17307PP      PP27411  10.332   7.465   1.174  0.0452 -0.0596  0.0118
17308PP      PP27412   9.163   4.842   3.849 -0.0783 -0.2001  0.0153
17309PP      PP27413  12.966   5.191   3.322  0.3007  0.0154  0.1925
17310PP      PP27414  14.287   4.427   8.482 -0.0611  0.1268 -0.1253
17311PP      PP27415   4.651   6.056   9.234  0.0781 -0.0058  0.2081
17312PP      PP27416   4.203   5.753   9.027 -0.0272  0.1797  0.0389
17313PP      PP27417   9.363  10.261  12.368  0.0810 -0.3935  0.4407
17314PP      PP27418  10.886   8.976  13.323 -0.5577 -0.0135 -0.0644
17315PP      PP27419   6.768   6.142   8.337  0.1061 -0.0907 -0.1495
17316PP      PP27420  12.705  11.667  12.998  0.0814  0.1287  0.2631
17317PP      PP27421  11.802  12.812   0.300  0.1258 -0.0025 -0.0187
17318PP      PP27422   6.337  11.168   2.344  0.2454  0.4355 -0.0088
17319PP      PP27423   5.186   0.232   3.184 -0.3155 -0.0537 -0.0028
17320PP      PP27424   5.672  13.381  11.036 -0.1206 -0.0643 -0.2759
17321PP      PP27425   2.168  13.027   4.399 -0.0912  0.1486 -0.1205
17322PP      PP27426  15.244  15.340  11.761 -0.0553  0.5491 -0.2514
17323PP      PP27427  11.900   1.271   1.842  0.0000  0.1352  0.0361
17324PP      PP27428   3.071  10.429  12.812  0.0801 -0.2122  0.1727
17325PP      PP27429   7.447  11.308   4.517 -0.1766  0.1928 -0.0224
17326PP      PP27430  10.648  11.834   8.995  0.1046 -0.0392 -0.1460
17327PP      PP27431  12.748   8.508  10.196 -0.1921 -0.1775 -0.3982
17328PP      PP27432  13.762   4.713   9.153  0.2090  0.1063  0.2638
17329PP      PP27433   4.206  13.700   1.436 -0.1710 -0.1156 -0.2051
17330PP      PP27434   5.762   5.355   9.790  0.1780 -0.0882 -0.0732
17331PP      PP27435   8.725   6.576  11.405  0.3117 -0.0334 -0.3543
17332PP      PP27436   9.125  12.948   1.378 -0.0067  0.1402 -0.1591
17333PP      PP27437   5.895  14.157  11.016  0.1616  0.2878 -0.0590
17334PP      PP27438   2.111  14.712   3.759 -0.0381  0.0488  0.3878
17335PP      PP27439  10.610   3.518  11.075 -0.1667 -0.0768 -0.2286
17336PP      PP27440   5.642  13.604   4.513  0.2207  0.1039  0.0276
17337PP      PP27441  14.375  11.798   1.192  0.1218 -0.0590  0.0660
17338PP      PP27442   1.121  12.189   9.317 -0.1091  0.0326  0.0822
17339PP      PP27443   5.876  14.204  12.577 -0.0005  0.0304  0.2167
17340PP      PP27444   0.971   2.318  13.157  0.0954  0.0212  0.3185
17341PP      PP27445  11.122   2.362   2.250  0.0563 -0.1593  0.1773
17342PP      PP27446  13.001  15.362  13.118  0.0737  0.4321 -0.3073
17343PP      PP27447  12.246   8.323   0.985 -0.1499  0.0619 -0.2103
17344PP      PP27448   8.414   5.623  10.006 -0.3568 -0.0097  0.1668
17345PP      PP27449  12.233   8.699  10.919 -0.1504 -0.1656  0.1578
17346PP      PP27450   6.475   9.636   3.111 -0.0299 -0.3262  0.0420
17347PP      PP27451  13.615  10.156  10.905 -0.0134 -0.0728 -0.3390
17348PP      PP27452   5.405   8.432  10.009 -0.5180 -0.1043 -0.3215
17349PP      PP27453  12.520   1.417  12.622  0.0430 -0.1098  0.1759
17350PP      PP27454   8.052   0.004  11.169 -0.1912 -0.0628 -0.1337
17351PP      PP27455   9.523  11.722   0.647  0.0835  0.0384  0.2179
17352PP      PP27456  10.668  12.125  11.937 -0.2430  0.3116  0.2855
17353PP      PP27457  15.071  14.033   0.379  0.0067  0.0705  0.1514
17354PP      PP27458   8.636  13.965   9.317  0.0781  0.1010 -0.1449
17355PP      PP27459   9.348   3.003  11.501  0.2741 -0.2449  0.0525
17356PP      PP27460   6.754  15.031   9.037  0.1589  0.2322 -0.0175
17357PP      PP27461  10.378   0.703   2.951  0.1043  0.0155 -0.0035
17358PP      PP27462   6.195   5.179  13.160  0.0670 -0.2321 -0.0731
17359PP      PP27463   7.076   7.208   4.102  0.0987 -0.0322 -0.3892
17360PP      PP27464  15.207   1.783   3.308 -0.3504 -0.0802 -0.2692
17361PP      PP27465  12.607   0.042  13.240 -0.3182 -0.1915  0.3452
17362PP      PP27466   9.656   6.278  12.643 -0.0159  0.2686 -0.0506
17363PP      PP27467   6.743   6.422   0.116 -0.0610  0.0806 -0.0310
17364PP      PP27468  10.205  14.878   1.798  0.1489  0.1281  0.2146
17365PP      PP27469  10.918   6.624   9.022 -0.1544  0.0235  0.0245
17366PP      PP27470   1.943  15.330   1.794  0.0845 -0.0749  0.1945
17367PP      PP27471   2.849   4.824   4.643  0.1849 -0.0055 -0.0013
17368PP      PP27472  10.690  10.974  12.500  0.0527 -0.4259 -0.0122
17369PP      PP27473   4.715   3.678  11.445  0.2048  0.0221 -0.1102
17370PP      PP27474   9.550   7.429  10.270 -0.3604  0.2648 -0.0158
17371PP      PP27475   1.031  15.414   4.557  0.1668 -0.1043 -0.0048
17372PP      PP27476   1.333  15.004   4.359  0.0757  0.2499  0.4894
17373PP      PP27477   1.272   6.916  12.566 -0.0146 -0.3479  0.1875
17374PP      PP27478   2.797  12.282   0.245  0.1064 -0.1097  0.3038
17375PP      PP27479   9.919   6.615   0.125  0.1504  0.0295  0.3165
17376PP      PP27480  10.610   9.003   1.908  0.1384 -0.0220 -0.3677
17377PP      PP27481   2.576  11.473   5.131 -0.1057 -0.2146 -0.1308
17378PP      PP27482  13.318  14.039   4.021  0.0415  0.0440  0.0272
17379PP      PP27483  14.690   9.894  11.364  0.1962  0.1050  0.0346
17380PP      PP27484   8.411   3.953  13.468 -0.3764 -0.2580  0.0054
17381PP      PP27485   1.738   1.183   3.503  0.2062  0.3452  0.1578
17382PP      PP27486  13.586  14.290   4.358 -0.0222 -0.3843  0.1737
17383PP      PP27487  12.943  12.537   2.559 -0.0430 -0.0433  0.0218
17384PP      PP27488   6.118   1.363   0.940  0.0148  0.2220  0.0437
17385PP      PP27489   3.142  12.264   1.961  0.2243 -0.1356 -0.0131
17386PP      PP27490  14.482  14.686   0.320 -0.2821 -0.1235  0.1977
17387PP      PP27491  11.327   0.874   8.985  0.3426 -0.2254  0.2451
17388PP      PP27492  11.442   9.573   3.752  0.2107  0.2810  0.5836
17389PP      PP27493   6.236   8.561  11.622  0.1952 -0.2889 -0.1074
17390PP      PP27494  12.224   1.212   1.215  0.0635 -0.0474 -0.2139
17391PP      PP27495   2.137   9.749  13.107 -0.0534  0.2505  0.1988
17392PP      PP27496   4.719  13.059   5.273 -0.2101 -0.1334  0.1087
17393PP      PP27497   3.540  14.308  13.575  0.1562  0.1805 -0.1445
17394PP      PP27498  14.775   4.853  13.120  0.0240 -0.1893  0.1520
17395PP      PP27499  13.858   9.878   3.861 -0.0247 -0.3004  0.0614
17396PP      PP27500  12.881   1.504   0.151 -0.0648 -0.2080 -0.1898
17397PP      PP27501  14.830  10.062  12.329 -0.1942 -0.2328 -0.0345
17398PP      PP27502   0.501   1.596   0.907  0.1531  0.2242  0.1214
17399PP      PP27503  10.188   4.215  10.581  0.2406 -0.0945  0.0934
17400PP      PP27504   7.464  12.455   9.227 -0.0207  0.3347 -0.0571
17401PP      PP27505   1.849   7.275   9.877 -0.3213 -0.0051 -0.1179
17402PP      PP27506  15.595  15.411   1.384 -0.0614 -0.3452  0.0324
17403PP      PP27507  13.193  14.635   2.994  0.0792  0.0310 -0.0447
17404PP      PP27508   4.179   3.614   3.543 -0.1650 -0.0223  0.0437
17405PP      PP27509   0.767   2.470  12.366  0.0085  0.3094 -0.1533
17406PP      PP27510   0.139  12.762  10.418 -0.0559  0.1318  0.1313
17407PP      PP27511   0.232   9.350   0.769 -0.1516 -0.1117 -0.1730
17408PP      PP27512   3.832  15.087   0.354 -0.0405  0.3985  0.1080
17409PP      PP27513   7.383  10.165   0.643  0.2483 -0.2154  0.0959
17410PP      PP27514  12.299  10.102   2.049 -0.1238  0.0783  0.0005
17411PP      PP27515  12.178   0.745  10.931  0.1130 -0.2682  0.3253
17412PP      PP27516   4.777   3.421   0.867 -0.4503 -0.0989  0.1826
17413PP      PP27517   0.292   5.528   2.745  0.0757  0.0210  0.2571
17414PP      PP27518   6.467   1.482  11.094  0.0206 -0.0192 -0.1134
17415PP      PP27519   1.340   9.303   0.351 -0.1716 -0.3659  0.4249
17416PP      PP27520  15.250   2.130   9.891  0.1652 -0.2966  0.1595
17417PP      PP27521   2.602   2.735   1.318 -0.1962 -0.1659  0.2501
17418PP      PP27522  12.135   0.413   1.199 -0.0936  0.0877  0.2403
17419PP      PP27523   5.111  14.884  10.065  0.1723  0.0404  0.3659
17420PP      PP27524   1.571   2.544  11.731 -0.0883 -0.0225 -0.1047
17421PP      PP27525   2.724   0.923   2.889  0.0131  0.2899 -0.1380
17422PP      PP27526   9.667  10.311   9.040  0.2568  0.0975 -0.0251
17423PP      PP27527   6.407  14.401  13.481  0.0403  0.0490  0.0602
17424PP      PP27528   9.993   7.072   1.351 -0.0381 -0.1223  0.1022
17425PP      PP27529   4.737   4.665   0.911  0.3653  0.3164  0.0417
17426PP      PP27530   4.939   0.638  10.927 -0.0836 -0.0091 -0.1947
17427PP      PP27531   5.020   9.058   0.272 -0.0112  0.1212  0.1572
17428PP      PP27532   6.228   6.154   4.601 -0.2890 -0.1052  0.2434
17429PP      PP27533   5.828  14.970  11.335 -0.0267 -0.3158 -0.0583
17430PP      PP27534   2.927  14.176   4.021 -0.0522  0.0675 -0.0254
17431PP      PP27535  13.133   9.330   0.901  0.4069  0.0026 -0.2397
17432PP      PP27536   3.242   1.204  12.706  0.0185 -0.2744  0.0145
17433PP      PP27537  10.779   9.592   0.293  0.0623  0.1247  0.2634
17434PP      PP27538  15.069   0.011   1.240  0.0896  0.0849  0.1761
17435PP      PP27539   8.306   6.957   0.685 -0.1389 -0.0526 -0.1596
17436PP      PP27540   4.338   7.099  10.326 -0.3052 -0.2534 -0.1010
17437PP      PP27541   0.935  15.293   9.965  0.1616  0.0318 -0.0577
17438PP      PP27542   4.856   8.262   2.921  0.0999 -0.0917  0.1930
17439PP      PP27543   9.000  13.813   0.932  0.0103 -0.2098  0.1622
17440PP      PP27544   8.714   5.108  12.540 -0.0241  0.1868 -0.1892
17441PP      PP27545   7.965  14.520   1.865  0.2612  0.0027 -0.1257
17442PP      PP27546   0.150   8.755  12.060 -0.3439  0.0657 -0.1661
17443PP      PP27547   8.687   8.851   9.322  0.2002 -0.0492 -0.1102
17444PP      PP27548   1.884   7.891  12.301  0.0095 -0.1334  0.1317
17445PP      PP27549  12.459   5.667   3.331  0.1746  0.2908  0.0417
17446PP      PP27550   1.030  12.841  11.341  0.1346  0.0133  0.3954
17447PP      PP27551   6.096   8.378   1.595  0.1994  0.2306  0.2273
17448PP      PP27552   9.710   6.893   2.706  0.1359  0.4091 -0.1785
17449PP      PP27553   8.430  10.101  11.897 -0.0331 -0.1988  0.0167
17450PP      PP27554  11.992  11.488   6.495  0.0964 -0.0862 -0.0371
17451PP      PP27555   4.162   4.788   0.050  0.1360  0.0247 -0.0117
17452PP      PP27556   4.753   0.711   3.261 -0.2072  0.0614  0.0754
17453PP      PP27557   9.737   7.485   1.546 -0.1064 -0.4052  0.3048
17454PP      PP27558   0.387   2.007  10.609  0.0869 -0.2186 -0.1740
17455PP      PP27559   0.526  10.655  11.406  0.0318 -0.0722  0.1990
17456PP      PP27560   6.183   9.490  10.574  0.0870 -0.0493 -0.0358
17457PP      PP27561  15.663   4.860   9.017  0.3456  0.1504 -0.1487
17458PP      PP27562  11.314   0.298   0.890  0.0170 -0.3265 -0.0531
17459PP      PP27563   9.436   1.566   2.981 -0.0892  0.0009  0.3162
17460PP      PP27564   0.956  10.706   9.345  0.1006  0.0888 -0.1642
17461PP      PP27565   9.388   7.332   2.876  0.2004  0.1659 -0.4284
17462PP      PP27566   2.862  15.250   3.279  0.0561 -0.0465  0.0759
17463PP      PP27567  10.818   0.990   8.814 -0.1075 -0.2134 -0.0092
17464PP      PP27568   7.811   8.705   1.133 -0.4393  0.2546  0.1178
17465PP      PP27569  10.626   5.410   0.912 -0.1231  0.2836  0.2186
17466PP      PP27570  12.180  12.951   2.224 -0.3128 -0.1197  0.0867
17467PP      PP27571   7.450   3.033  10.143  0.2164  0.0267  0.4268
17468PP      PP27572   9.676   7.809   9.933 -0.1121  0.2261  0.1098
17469PP      PP27573   9.413   6.481  10.509  0.0769  0.0535  0.3644
17470PP      PP27574   0.507  13.052   3.232  0.2106 -0.0290  0.0756
17471PP      PP27575   3.734  13.751  10.596 -0.0050 -0.0145 -0.0873
17472PP      PP27576   5.444   4.856   0.363  0.0150 -0.0263 -0.2642
17473PP      PP27577  10.173   7.021   0.219  0.1374  0.0180  0.1348
17474PP      PP27578   7.153   7.777   4.038 -0.3046 -0.2378  0.2327
17475PP      PP27579   8.389   1.098   1.227  0.1639 -0.1798  0.0566
17476PP      PP27580  10.999   4.179   9.517  0.2273  0.0708 -0.0910
17477PP      PP27581  10.942  12.914  12.265  0.1638  0.0392 -0.2770
17478PP      PP27582   2.099  10.622  13.208 -0.1927  0.0701 -0.0547
17479PP      PP27583  13.057  13.852  10.198  0.1487 -0.1731  0.0058
17480PP      PP27584   9.096   5.950   1.805 -0.0288 -0.6500 -0.1210
17481PP      PP27585   1.665  11.179   0.386 -0.0819 -0.1660  0.0529
17482PP      PP27586   6.942   9.406  11.291 -0.2243  0.0635  0.1754
17483PP      PP27587  11.303  15.557  11.731 -0.0062  0.2354 -0.2574
17484PP      PP27588  15.654  11.591  10.666 -0.0063  0.4651  0.1881
17485PP      PP27589   8.276  11.015  12.479  0.1191 -0.0141 -0.2715
17486PP      PP27590   0.829   3.651  13.606  0.0234 -0.2756 -0.1061
17487PP      PP27591   3.824   2.097  11.901  0.1498  0.1401  0.0457
17488PP      PP27592  11.985   1.411  11.842 -0.0373  0.1020 -0.0877
17489PP      PP27593  10.316   9.720  11.907 -0.2880  0.0923  0.1738
17490PP      PP27594  15.559  15.412   3.939 -0.4726 -0.1253 -0.1096
17491PP      PP27595   6.574   3.063  13.121 -0.1159 -0.1665 -0.0328
17492PP      PP27596  12.090   3.472   1.600 -0.1951 -0.1850  0.3155
17493PP      PP27597   5.129   3.514  12.149 -0.0781  0.0119  0.0289
17494PP      PP27598   6.434  13.619   2.969  0.2288  0.0482  0.3768
17495PP      PP27599   3.920  14.561  13.280 -0.1630 -0.4867 -0.2270
17496PP      PP27600   7.399   3.071  13.559  0.1411  0.2345 -0.0617
17497PP      PP27601   3.746   9.941  11.934  0.1494 -0.1538  0.3149
17498PP      PP27602   9.138   3.635  13.269 -0.1449  0.0103 -0.2019
17499PP      PP27603   9.537   3.162   8.429 -0.0667 -0.2232  0.2190
17500PP      PP27604   5.811   9.711  13.573 -0.0259  0.3674 -0.1973
17501PP      PP27605   7.348   9.640   3.640 -0.3964  0.1641 -0.1724
17502PP      PP27606   8.564   0.194   9.339  0.1063  0.0328  0.1118
17503PP      PP27607  11.068  14.719  12.376 -0.3832 -0.0967 -0.0000
17504PP      PP27608   2.913   7.275  13.655 -0.1742 -0.3318  0.0520
17505PP      PP27609   7.090   2.396   9.512 -0.0812  0.0449  0.0096
17506PP      PP27610   6.194  14.684   9.564  0.0333  0.1689  0.1590
17507PP      PP27611   9.206  14.361  13.763  0.3125  0.0450  0.0399
17508PP      PP27612   1.892   8.200  10.058  0.0816  0.1243  0.0280
17509PP      PP27613  12.069  15.539   9.206  0.1086  0.4158 -0.0635
17510PP      PP27614   4.396   6.527   9.999  0.3704  0.1788  0.0230
17511PP      PP27615   4.927   8.565   1.443  0.6207  0.0496  0.0826
17512PP      PP27616   7.390   9.329   2.322 -0.0378 -0.0503  0.0701
17513PP      PP27617  10.404  13.516   1.184  0.1777  0.1569  0.0101
17514PP      PP27618   8.924   1.816  10.823  0.1728  0.0110  0.0913
17515PP      PP27619   7.385   5.290   1.600 -0.1745  0.0345 -0.0658
17516PP      PP27620   4.270  13.387   0.075  0.5001  0.1488  0.0393
17517PP      PP27621   6.981  12.628  11.252  0.0254  0.3643 -0.3052
17518PP      PP27622   3.630  10.139   9.999  0.1456  0.0540  0.1901
17519PP      PP27623   2.559  15.126  10.557 -0.0765  0.0008 -0.1496
17520PP      PP27624   2.707   0.951   9.108  0.1701 -0.3302  0.2114
17521PP      PP27625   8.871  14.215   8.785  0.1228  0.1293 -0.0386
17522PP      PP27626  10.345   8.175   3.644  0.0745 -0.2735  0.2103
17523PP      PP27627   6.124  13.433   3.739  0.0218 -0.4795  0.0373
17524PP      PP27628  12.387   1.007  12.908 -0.0120 -0.1715 -0.0055
17525PP      PP27629   0.027  10.935  13.153  0.3226 -0.2454  0.0551
17526PP      PP27630   5.200   9.840   4.473  0.0194  0.0527 -0.1961
17527PP      PP27631   8.382   3.917   0.507  0.0899 -0.2681 -0.2308
17528PP      PP27632   4.005   8.101   1.144  0.2474  0.2627 -0.3449
17529PP      PP27633  15.398   4.734   1.678  0.2057  0.0037 -0.1131
17530PP      PP27634   7.166  14.771  13.655  0.1380  0.1316 -0.0143
17531PP      PP27635  12.608  11.180   0.697  0.1182  0.1956  0.0344
17532PP      PP27636   3.606   8.210   2.760 -0.0614  0.4035  0.0543
17533PP      PP27637   7.321   8.182   2.373  0.0571  0.2721 -0.0894
17534PP      PP27638   0.669  10.964  10.457 -0.1345  0.1836  0.0669
17535PP      PP27639   9.604  14.302   4.104  0.0286  0.1702  0.3621
17536PP      PP27640   3.655   0.429   0.483  0.0590 -0.1071 -0.2092
17537PP      PP27641  15.664   9.773  13.527  0.0539  0.2382  0.2095
17538PP      PP27642   8.707   3.055   1.808 -0.1225  0.1202 -0.0354
17539PP      PP27643   2.253   4.587   2.113  0.1686 -0.1773  0.0766
17540PP      PP27644   5.150   8.543   1.869  0.0254  0.0548 -0.2889
17541PP      PP27645  13.777   5.859   9.171 -0.0288 -0.3175 -0.1339
17542PP      PP27646   4.360  12.004   5.045  0.1652  0.2132  0.1476
17543PP      PP27647  13.055   9.527   9.425 -0.0131 -0.0087 -0.0900
17544PP      PP27648   3.316   5.478   3.497  0.0020  0.4004 -0.1069
17545PP      PP27649  10.156   9.946  11.198  0.1719  0.0710  0.2652
17546PP      PP27650   8.261  11.838   4.424 -0.0917 -0.1460  0.4794
17547PP      PP27651   4.290   9.065   3.919  0.3244  0.3600  0.0075
17548PP      PP27652   7.697  10.179   3.070  0.1158  0.1454  0.2127
17549PP      PP27653  10.125  11.705   9.045  0.2055 -0.1958  0.0357
17550PP      PP27654  13.989   8.390   2.395 -0.0131  0.0123 -0.0951
17551PP      PP27655   6.134  14.101   0.426  0.0276 -0.1411  0.0883
17552PP      PP27656  15.184  10.062   3.543  0.0303  0.1996 -0.1259
17553PP      PP27657  14.972   2.398   0.449 -0.1647  0.1220  0.1015
17554PP      PP27658   1.565   8.079   8.987 -0.1630 -0.0778  0.0952
17555PP      PP27659  12.229   6.508  12.256 -0.1777 -0.0912 -0.1395
17556PP      PP27660   8.642   5.178   3.857  0.1855  0.1708 -0.1720
17557PP      PP27661  13.834   1.145  10.938  0.2021 -0.2465  0.1008
17558PP      PP27662  11.237   6.163   9.150  0.1635  0.0266 -0.2915
17559PP      PP27663  13.380   0.433  12.075 -0.0536 -0.2210 -0.0111
17560PP      PP27664  13.025  11.401   1.056 -0.0101  0.4381  0.0694
17561PP      PP27665   1.196   4.713  12.200  0.1675  0.3425 -0.0143
17562PP      PP27666   3.446  15.237  12.088  0.3804  0.0077 -0.1640
17563PP      PP27667   0.995   0.088   0.126  0.0496  0.0427  0.0619
17564PP      PP27668  14.994   1.842  11.901  0.1907 -0.0098 -0.4006
17565PP      PP27669   7.861   0.577   9.493  0.2381 -0.0055 -0.0594
17566PP      PP27670   0.721  14.426  13.214  0.1108  0.0451 -0.1542
17567PP      PP27671   3.299   5.979   0.418 -0.1230 -0.0858  0.0414
17568PP      PP27672   2.413  12.511   4.542 -0.3716 -0.2217  0.0113
17569PP      PP27673   3.401   7.412  10.525  0.1674  0.0647 -0.0785
17570PP      PP27674  11.532  11.115  13.486  0.0503 -0.2839 -0.1328
17571PP      PP27675  14.636   2.796   3.153  0.0582 -0.0320 -0.1264
17572PP      PP27676   9.191  12.437   4.660  0.2420  0.2136 -0.1906
17573PP      PP27677   1.818   6.437   3.236  0.2197  0.2163  0.2418
17574PP      PP27678   5.374   6.278  13.555 -0.1242 -0.0035  0.1103
17575PP      PP27679  14.277  14.319   0.089  0.2036  0.2367 -0.1242
17576PP      PP27680  13.158  12.299   1.252 -0.0050  0.2289  0.0975
17577PP      PP27681  12.799   0.245   2.108  0.1094  0.0539 -0.5008
17578PP      PP27682  12.314   9.672  13.017  0.0888  0.0501 -0.2637
17579PP      PP27683  13.295  12.522   3.142  0.2446  0.1006 -0.1812
17580PP      PP27684   1.240   9.020   2.831  0.0234 -0.1703  0.0401
17581PP      PP27685  12.272  12.574  12.983 -0.3936 -0.0430  0.0229
17582PP      PP27686   9.056  14.354   2.155 -0.0791  0.0299 -0.1579
17583PP      PP27687   4.644   9.516  10.928  0.2491 -0.1829  0.0186
17584PP      PP27688   0.412   9.949   2.110  0.0866 -0.1215  0.1297
17585PP      PP27689   6.968   6.787   8.834 -0.1389 -0.1309 -0.0042
17586PP      PP27690   2.608  10.264   1.336 -0.0188  0.0765 -0.0459
17587PP      PP27691  14.894   2.978  11.791 -0.1470 -0.0787  0.0166
17588PP      PP27692  15.270   5.622   1.053  0.2381  0.1859 -0.1600
17589PP      PP27693   3.097  10.060  10.738 -0.0112  0.4393 -0.2738
17590PP      PP27694   0.270  12.314   2.197  0.0781 -0.0142  0.2096
17591PP      PP27695   9.525  12.745   2.415  0.2595  0.0180 -0.0477
17592PP      PP27696   2.676  12.578   0.611  0.0423  0.1700 -0.0388
17593PP      PP27697   5.522   3.953  11.372 -0.0156 -0.0795  0.2121
17594PP      PP27698   3.873  12.552  12.848 -0.0630  0.2572  0.1398
17595PP      PP27699   9.102   6.633   0.942  0.0294  0.2344 -0.1367
17596PP      PP27700   1.507   6.627   8.848 -0.0269  0.0442  0.0790
17597PP      PP27701  10.215   0.547   0.616  0.0165  0.1358  0.2947
17598PP      PP27702   9.881   9.069  10.522  0.0522 -0.2893  0.1816
17599PP      PP27703  11.637   9.560   2.736 -0.2141 -0.2288  0.1991
17600PP      PP27704   6.367  12.069   5.343  0.1982  0.1594 -0.1137
17601PP      PP27705   6.172  11.161   9.898  0.7138 -0.0584 -0.3219
17602PP      PP27706   5.324   0.692  12.342 -0.1689  0.1194  0.1111
17603PP      PP27707   3.452  11.870   2.020 -0.2124 -0.2339 -0.0747
17604PP      PP27708  11.093   8.949   0.792 -0.1548  0.2501 -0.3111
17605PP      PP27709   5.354   0.467  11.284  0.0745 -0.0280 -0.2278
17606PP      PP27710   6.785   7.433   1.054 -0.3438  0.0509 -0.0107
17607PP      PP27711  13.967   9.306   9.398  0.1454  0.2693  0.1581
17608PP      PP27712   6.476   4.288   1.869 -0.2849 -0.0910 -0.0967
17609PP      PP27713   9.876   5.150   0.066 -0.0283 -0.2316 -0.3548
17610PP      PP27714   0.185   8.608  13.770 -0.0923  0.1065 -0.0731
17611PP      PP27715   2.837   7.404  11.249 -0.1642  0.2241  0.0697
17612PP      PP27716  10.888   3.962   1.498  0.0855  0.0270 -0.2106
17613PP      PP27717  12.483   9.192   3.253  0.0292 -0.0187 -0.0970
17614PP      PP27718   7.991   3.023  10.290 -0.0569  0.1174 -0.0853
17615PP      PP27719   4.889   8.022   4.874 -0.1456 -0.2517  0.2549
17616PP      PP27720  12.125   4.675  13.238  0.0304  0.2912 -0.2689
17617PP      PP27721   6.536   0.092   9.356 -0.1922 -0.0285  0.0043
17618PP      PP27722   8.190   6.512   9.762  0.3060 -0.0132  0.1812
17619PP      PP27723   2.670   8.930   2.150 -0.1163 -0.0411 -0.2143
17620PP      PP27724  14.395   8.037   0.584  0.1631  0.0895  0.3484
17621PP      PP27725  14.971   5.966   9.070  0.0888 -0.2853  0.1739
17622PP      PP27726   4.088   2.663  11.241  0.0962 -0.3247  0.0199
17623PP      PP27727   0.871  12.697   1.009  0.0771  0.3774  0.2309
17624PP      PP27728  13.386   1.742  12.319 -0.1154 -0.1807  0.0475
17625PP      PP27729   1.009   2.454   3.916 -0.0050 -0.1365 -0.1165
17626PP      PP27730   4.783  10.751   2.368  0.0827 -0.0606  0.1097
17627PP      PP27731   6.035  14.429  10.263 -0.1610  0.1894 -0.0823
17628PP      PP27732   4.368   6.162   8.819 -0.1380  0.2302 -0.1662
17629PP      PP27733  10.431  11.468   1.404  0.5548 -0.0898 -0.2112
17630PP      PP27734   9.197  10.556   2.495  0.2302 -0.1027 -0.0130
17631PP      PP27735  10.524  12.203  13.741 -0.0153  0.0200 -0.3555
17632PP      PP27736   3.315   4.414   3.007  0.3008  0.3880 -0.4869
17633PP      PP27737   7.963   3.545   1.744  0.2172  0.1456  0.0042
17634PP      PP27738   6.948  12.225   1.619 -0.0942  0.2108  0.1954
17635PP      PP27739   1.390   6.956   1.407 -0.0591  0.0572  0.3977
17636PP      PP27740   7.045   7.092  10.249  0.3017 -0.1289  0.2285
17637PP      PP27741  14.027   6.617   2.903 -0.1561 -0.1225  0.2526
17638PP      PP27742  14.845  13.029   2.327  0.2870  0.1589 -0.0972
17639PP      PP27743  14.263   2.738   8.360  0.4632 -0.2726 -0.1782
17640PP      PP27744   8.957   9.940  12.637  0.3178 -0.2096 -0.1048
17641PP      PP27745   6.577   9.681   2.316  0.0139  0.1578  0.0911
17642PP      PP27746   3.743  15.229   1.372  0.2287 -0.1033  0.0535
17643PP      PP27747  14.494   7.202   2.065 -0.3728  0.2249 -0.2128
17644PP      PP27748   7.683   8.986   0.044 -0.0015  0.2088 -0.1312
17645PP      PP27749   0.167   6.791   0.853  0.0999  0.1619 -0.2944
17646PP      PP27750  11.570  15.705  13.511 -0.3059 -0.0613  0.1076
17647PP      PP27751   3.138   3.591   1.643 -0.2871 -0.0416  0.0142
17648PP      PP27752   3.543  12.325   2.862  0.0399  0.0689 -0.0383
17649PP      PP27753   9.830   8.151  12.421 -0.0088  0.1333  0.0536
17650PP      PP27754   7.428  13.514  12.471 -0.3953 -0.1374 -0.3184
17651PP      PP27755   0.677   9.229   4.600  0.0050 -0.0298  0.2097
17652PP      PP27756   0.019   8.455  12.449  0.0592  0.4227 -0.1015
17653PP      PP27757  10.525   4.309  11.554  0.1014  0.0245  0.1605
17654PP      PP27758   0.448  11.313   3.247  0.0500 -0.1547 -0.1619
17655PP      PP27759   4.531   7.143   1.876  0.2637  0.1116  0.1214
17656PP      PP27760   4.124   1.200  10.102 -0.0377 -0.2504 -0.3100
17657PP      PP27761   8.863  13.185   4.080  0.0971  0.0071 -0.0202
17658PP      PP27762  11.325   5.860   3.114  0.2197 -0.0422 -0.4567
17659PP      PP27763  10.325  15.341  12.688 -0.0239  0.1681 -0.0581
17660PP      PP27764  10.018   6.034   1.317 -0.0734 -0.1289 -0.1311
17661PP      PP27765  14.431   3.559   9.332  0.3161  0.2618  0.1073
17662PP      PP27766  14.986   4.566   9.102 -0.0664  0.1770 -0.2238
17663PP      PP27767   4.858   7.943   2.363  0.2507 -0.2349 -0.1792
17664PP      PP27768  13.023   4.719   8.535  0.0077 -0.2829 -0.1122
17665PP      PP27769   2.263   2.199   2.554 -0.0783 -0.0996  0.3397
17666PP      PP27770   0.402  13.806   0.499  0.0325  0.1122  0.0279
17667PP      PP27771   9.008   9.841  11.096 -0.0501 -0.4190 -0.3031
17668PP      PP27772  11.782   1.058   0.997  0.1552 -0.0962  0.0686
17669PP      PP27773   3.881  11.795  13.504 -0.1722 -0.1315 -0.1635
17670PP      PP27774   5.400   8.903  10.233  0.0675  0.3233 -0.1818
17671PP      PP27775  10.791   0.976  12.635 -0.0394 -0.6007 -0.3551
17672PP      PP27776  14.476  13.178   3.972 -0.1040  0.1662  0.3400
17673PP      PP27777  14.372   7.051   3.886  0.2364  0.3186 -0.3084
17674PP      PP27778  12.579  10.923  10.363 -0.3763  0.0653  0.3130
17675PP      PP27779   9.055   0.053   4.430 -0.1486 -0.4251 -0.1502
17676PP      PP27780   2.341   7.993   0.016 -0.1582 -0.2928 -0.2522
17677PP      PP27781   9.988   5.864  13.090  0.0647  0.1929 -0.1749
17678PP      PP27782   9.069  12.810   9.108  0.1825  0.1476 -0.0664
17679PP      PP27783   5.359   3.808   2.363 -0.0032  0.1868 -0.1514
17680PP      PP27784  10.973  14.579   1.993  0.1489 -0.2412 -0.0041
17681PP      PP27785   9.380   9.754  12.611  0.2456 -0.1057  0.1071
17682PP      PP27786  14.551  10.623   0.944  0.0638  0.0221 -0.0036
17683PP      PP27787   1.121   6.902   1.894  0.0031 -0.0510 -0.0975
17684PP      PP27788   9.949   3.632   0.011  0.0353  0.1658 -0.1542
17685PP      PP27789   4.020   5.691   2.072 -0.1147 -0.1526  0.0555
17686PP      PP27790  12.163   8.603   1.551  0.1420 -0.1436  0.1585
17687PP      PP27791  11.685   1.585  10.739  0.0404  0.1466 -0.3482
17688PP      PP27792   4.497  15.665  10.314 -0.0485 -0.3899 -0.2290
17689PP      PP27793   7.625  11.711  10.679 -0.1635 -0.1327  0.2384
17690PP      PP27794   8.039  12.706  10.842  0.1253  0.3384  0.0395
17691PP      PP27795  14.076  12.796  11.793  0.0066 -0.0908 -0.0393
17692PP      PP27796  12.316   2.062   2.898 -0.0550  0.1463  0.0096
17693PP      PP27797   5.017   2.806   0.501  0.1852  0.0838 -0.1663
17694PP      PP27798   9.531  14.224  13.365 -0.0709  0.2577  0.0613
17695PP      PP27799  11.166   3.207   8.854 -0.0479 -0.0685  0.1498
17696PP      PP27800   7.449  13.843   9.034  0.1150 -0.0645 -0.0712
17697PP      PP27801  11.410   8.123  10.167 -0.1466 -0.1516  0.0127
17698PP      PP27802  13.327   7.563   3.323  0.2846 -0.0897 -0.3016
17699PP      PP27803   8.865   2.238   8.962 -0.1222  0.1148  0.0438
17700PP      PP27804   5.128   4.481   1.207  0.0089  0.1128  0.1546
17701PP      PP27805   4.942  11.736   3.696 -0.1286 -0.0265 -0.0624
17702PP      PP27806   7.943   4.382   4.046  0.0508 -0.2268  0.1689
17703PP      PP27807  14.562  12.269   1.057  0.0273  0.0454 -0.1285
17704PP      PP27808  15.494   9.413   1.658  0.1791 -0.1278  0.2770
17705PP      PP27809   3.744   8.467  10.475 -0.1780 -0.0007 -0.5948
17706PP      PP27810  11.288   9.677  12.224  0.1890  0.2191 -0.0463
17707PP      PP27811   9.651   4.596   3.706  0.1517  0.1799  0.0731
17708PP      PP27812   5.874   8.453   2.780 -0.0013 -0.5420  0.0237
17709PP      PP27813   8.311  15.512   1.950 -0.2217 -0.0563 -0.1488
17710PP      PP27814  15.566   0.212   1.089 -0.0160  0.1498  0.2441
17711PP      PP27815   5.992   1.589  10.112 -0.2171 -0.0762  0.5756
17712PP      PP27816   8.013   3.552   0.083  0.3836 -0.3015  0.5809
17713PP      PP27817   0.833   4.620   9.856  0.0276 -0.0492 -0.2290
17714PP      PP27818  10.842   7.512  10.804 -0.2712 -0.0003  0.2473
17715PP      PP27819   0.384  15.690   0.622 -0.0235 -0.2358  0.2835
17716PP      PP27820   2.660   2.119  11.980  0.0352 -0.3001  0.0960
17717PP      PP27821   1.296   2.572   0.184  0.0384  0.3452 -0.1876
17718PP      PP27822   0.122   1.843  12.062  0.4085  0.1383  0.2896
17719PP      PP27823   0.372   7.572  10.268 -0.1464  0.1000 -0.2796
17720PP      PP27824   7.948  11.277  10.494 -0.0637  0.1172  0.0630
17721PP      PP27825   8.176   3.593  12.790 -0.1406  0.3392 -0.1378
17722PP      PP27826  14.419   1.079   0.978  0.1333 -0.2536  0.1283
17723PP      PP27827  14.676  15.421   2.439  0.2254  0.2266 -0.0429
17724PP      PP27828  12.488  13.026  11.142  0.0154  0.1081  0.1696
17725PP      PP27829  12.612  11.667   0.875  0.1711 -0.3852  0.0604
17726PP      PP27830   6.018   4.421  10.321  0.3646 -0.0731  0.0789
17727PP      PP27831   0.520   8.565  13.375 -0.0781  0.1015 -0.1121
17728PP      PP27832   8.701  14.891  10.249  0.1042  0.2655 -0.0707
17729PP      PP27833   4.281   9.280  10.171 -0.1011 -0.2792 -0.1618
17730PP      PP27834   1.488   3.395  10.149 -0.0538  0.2051 -0.0718
17731PP      PP27835   8.301   4.793   3.948  0.1813 -0.0182  0.2258
17732PP      PP27836  10.362   8.205   1.460  0.0734  0.3552 -0.0196
17733PP      PP27837  15.665   1.289   2.748  0.1367  0.1038 -0.2727
17734PP      PP27838   0.455   1.123   0.918 -0.2058  0.0098  0.0316
17735PP      PP27839   7.957  13.206  10.110  0.1175  0.0697 -0.1203
17736PP      PP27840   6.026   4.778   3.358  0.0032  0.1743 -0.0623
17737PP      PP27841   1.074   6.211   9.581  0.0918 -0.0017  0.3198
17738PP      PP27842   0.225  12.058  11.356 -0.0230  0.3543 -0.1797
17739PP      PP27843   0.303   1.595  10.867 -0.3396  0.0777  0.0634
17740PP      PP27844   4.648   3.947   8.763  0.1151 -0.1533  0.1371
17741PP      PP27845  15.095   1.217   0.412  0.1556  0.2224  0.1543
17742PP      PP27846  14.065   9.329   8.815 -0.1094 -0.2229 -0.3968
17743PP      PP27847   4.716   7.464   4.192 -0.2175 -0.4719  0.2360
17744PP      PP27848   7.021  11.253  11.784 -0.0921  0.3158 -0.0833
17745PP      PP27849   6.475   1.033   8.902  0.1067  0.0039  0.0374
17746PP      PP27850  10.328   7.229  13.185 -0.0424  0.0591  0.1340
17747PP      PP27851   1.274  10.864   0.365 -0.0390 -0.2229  0.1219
17748PP      PP27852  10.180   3.877   9.732 -0.3077 -0.1209 -0.1247
17749PP      PP27853   6.967   4.675   2.237  0.3465 -0.0793 -0.0124
17750PP      PP27854   7.051   2.222   2.368  0.1058 -0.3891 -0.1295
17751PP      PP27855  13.238   0.862   9.113  0.0662 -0.1015 -0.2685
17752PP      PP27856   2.166   6.596   4.847 -0.2020  0.2004  0.2221
17753PP      PP27857   5.545   3.991   3.244  0.1544  0.2307 -0.1202
17754PP      PP27858  11.360   1.797  12.632  0.0622  0.1545  0.1625
17755PP      PP27859  10.301   6.386   3.198  0.1372  0.2038 -0.1922
17756PP      PP27860   7.612  15.686  12.921 -0.1037  0.2400  0.0119
17757PP      PP27861  15.375  12.949   0.170 -0.1373  0.0652  0.0285
17758PP      PP27862  13.543   3.099  10.437 -0.0922 -0.1683  0.1033
17759PP      PP27863   8.203  10.518   0.550 -0.1910  0.0365  0.1745
17760PP      PP27864   6.994   2.463   3.520 -0.1742 -0.0412  0.0868
17761PP      PP27865   3.398   3.053   1.622  0.1748  0.3988  0.0308
17762PP      PP27866   8.931   8.117   1.261  0.0709 -0.1752  0.0304
17763PP      PP27867  10.045  14.191   2.414 -0.0025  0.4167  0.0335
17764PP      PP27868   2.401   8.281   9.045  0.1327 -0.1385 -0.0199
17765PP      PP27869  11.703  13.296   1.466 -0.2073 -0.1721 -0.0483
17766PP      PP27870  11.671  10.394  13.318  0.1428  0.0504  0.0136
17767PP      PP27871   9.713   0.772  12.586 -0.0174 -0.1276  0.1883
17768PP      PP27872  15.101   1.417  10.795  0.1280 -0.0306  0.2276
17769PP      PP27873   1.075   6.448  12.995 -0.0225 -0.2195 -0.2554
17770PP      PP27874   8.545  14.332   0.228 -0.1063  0.1833 -0.0916
17771PP      PP27875   1.988   0.454  11.108 -0.1532 -0.0127 -0.3662
17772PP      PP27876  11.597  10.864  11.378 -0.1741  0.1552 -0.0383
17773PP      PP27877  14.365   1.610  13.739  0.3366 -0.0815  0.2651
17774PP      PP27878   8.144  10.538  13.155 -0.2543  0.0605  0.3703
17775PP      PP27879   5.263   5.702  10.534 -0.0882 -0.4324  0.0491
17776PP      PP27880   8.069   7.040   9.457  0.1902  0.2638  0.2610
17777PP      PP27881   5.723   7.921   2.984 -0.3443  0.0617  0.0211
17778PP      PP27882   8.312  13.562   1.523 -0.0243  0.0963 -0.2359
17779PP      PP27883   4.140   2.155   3.343 -0.0593  0.0200 -0.0016
17780PP      PP27884   3.616   9.869   2.473 -0.0300  0.1962 -0.0654
17781PP      PP27885  10.599  13.820   0.273 -0.1079  0.0177  0.0727
17782PP      PP27886   1.655   4.690   1.109  0.0136  0.1658  0.0718
17783PP      PP27887   1.628  14.440   2.476  0.2734 -0.2832  0.2640
17784PP      PP27888   9.332  14.529   3.276  0.0338  0.1605 -0.1277
17785PP      PP27889   9.625  15.627   0.935 -0.0063 -0.2227  0.0358
17786PP      PP27890  14.126   2.521   0.953  0.5094 -0.0733 -0.0614
17787PP      PP27891   5.330   8.511   1.039  0.2787 -0.0459  0.2298
17788PP      PP27892  10.063   6.860  13.470  0.0926 -0.0565  0.1400
17789PP      PP27893   6.936   8.262   4.109 -0.2069  0.1832 -0.0747
17790PP      PP27894   8.440   5.309   1.502 -0.3917 -0.1033  0.1413
17791PP      PP27895  13.214   1.439   2.341  0.3773 -0.2706  0.0917
17792PP      PP27896   1.132   6.061   2.939  0.0190  0.0972 -0.0790
17793PP      PP27897  15.413  14.335  11.819  0.0765  0.0866 -0.3118
17794PP      PP27898  13.056   8.518   1.667  0.1017 -0.1171  0.0576
17795PP      PP27899   2.404  15.240  13.327 -0.3102 -0.1724  0.0121
17796PP      PP27900   6.410  14.754   2.539  0.0982 -0.1739 -0.1272
17797PP      PP27901   0.463  11.416   1.894  0.1183 -0.1359 -0.1614
17798PP      PP27902   7.318   9.840   2.884 -0.0124  0.2334 -0.1792
17799PP      PP27903  10.309  14.638  11.029 -0.0923 -0.0900 -0.0067
17800PP      PP27904   8.722  13.020   2.604  0.2336 -0.2451  0.0481
17801PP      PP27905   6.734   7.107   2.778  0.0723  0.0115 -0.1177
17802PP      PP27906  12.704   9.965  10.154  0.0874 -0.1638 -0.2362
17803PP      PP27907   9.514   7.744   2.641 -0.2443 -0.2917  0.0075
17804PP      PP27908  10.290   2.048   0.945 -0.1215 -0.0827 -0.3589
17805PP      PP27909   7.067   5.443   1.107 -0.2096 -0.1455 -0.2024
17806PP      PP27910  12.472  11.871  13.399  0.4250  0.1047 -0.2598
17807PP      PP27911  14.016   0.344  11.522  0.0488  0.1361 -0.4194
17808PP      PP27912  13.425   4.544  12.845 -0.1065  0.1260 -0.0422
17809PP      PP27913  13.994   3.995   8.694  0.0726 -0.1394  0.1321
17810PP      PP27914   6.303   6.249   2.617  0.1798  0.0356  0.0663
17811PP      PP27915   3.827  15.549  13.234 -0.2671 -0.2024 -0.3221
17812PP      PP27916   1.060  10.180  11.878 -0.1265 -0.0459  0.2578
17813PP      PP27917   6.081  10.380  12.104 -0.1891  0.1366 -0.1409
17814PP      PP27918   1.380   6.551   1.659 -0.4384 -0.1448  0.0902
17815PP      PP27919  14.867  12.024   2.159 -0.0606  0.1963 -0.0032
17816PP      PP27920   8.826   0.221  10.343 -0.3128 -0.0567  0.0839
17817PP      PP27921   8.442   8.065   9.643  0.1737 -0.2114 -0.0223
17818PP      PP27922   0.546   8.141  10.003 -0.3398  0.1678 -0.1067
17819PP      PP27923   8.123   8.278   1.345  0.0949  0.2542 -0.2237
17820PP      PP27924   6.170   8.047  13.370 -0.1024 -0.1679  0.1592
17821PP      PP27925   0.312  10.318  12.261 -0.1269 -0.0385  0.2018
17822PP      PP27926  13.496   4.478   0.097 -0.1950  0.1916 -0.0960
17823PP      PP27927  14.061  14.365   4.339 -0.1699 -0.1169 -0.2020
17824PP      PP27928   4.811   8.690  11.300 -0.0044  0.0912 -0.0720
17825PP      PP27929   3.414  11.698   2.468  0.0061  0.0690  0.3182
17826PP      PP27930   8.796  14.293   1.721 -0.0485  0.1117  0.1617
17827PP      PP27931   7.681   3.440   9.821 -0.0054  0.0242  0.3320
17828PP      PP27932   7.105  13.460   3.838  0.0757 -0.1217  0.0964
17829PP      PP27933   2.259   8.010  11.463 -0.1737  0.0886  0.2594
17830PP      PP27934   7.424   9.669  11.147  0.1845 -0.1207  0.3220
17831PP      PP27935   1.307   2.942   2.526 -0.2215  0.4579  0.0652
17832PP      PP27936  11.497   3.342   1.649  0.0487  0.0934  0.0731
17833PP      PP27937   4.353   0.692   3.584  0.1155 -0.3522  0.1077
17834PP      PP27938  15.681  10.920   1.771  0.2879 -0.0266  0.1939
17835PP      PP27939   8.038  10.734   4.559 -0.1595 -0.0309 -0.3198
17836PP      PP27940  15.020   7.371   2.079 -0.0828 -0.0925 -0.0979
17837PP      PP27941  11.599   9.223  13.038 -0.2139  0.0650 -0.0205
17838PP      PP27942  14.446   3.517  12.084  0.0415  0.0717  0.0554
17839PP      PP27943   0.390  13.392   9.396 -0.0868 -0.1129 -0.1345
17840PP      PP27944   2.582   2.933   0.029  0.0700  0.2210 -0.1025
17841PP      PP27945   7.304   8.751   1.358  0.1731  0.0708  0.2622
17842PP      PP27946  10.287  12.673  12.885  0.4251  0.0386  0.1541
17843PP      PP27947  11.886   8.865  10.566 -0.1891  0.0393  0.0293
17844PP      PP27948   9.126   3.699   2.500 -0.1213  0.3138 -0.3696
17845PP      PP27949   4.017   0.028   4.074  0.5381  0.0808 -0.0377
17846PP      PP27950  10.635   8.983  11.178 -0.2779 -0.1433 -0.0220
17847PP      PP27951  12.150  13.509   9.369 -0.0686  0.2816  0.3279
17848PP      PP27952   6.564  10.604   3.637 -0.1020  0.1900  0.0791
17849PP      PP27953   3.763   9.859   1.582  0.3605  0.1424  0.3057
17850PP      PP27954   8.206   0.773  10.724 -0.1704  0.0535 -0.1594
17851PP      PP27955  11.202  11.160   2.937 -0.0598 -0.0449  0.1782
17852PP      PP27956   6.130   9.509   3.601  0.0064  0.0765 -0.1272
17853PP      PP27957   1.945  11.697  12.010  0.1473 -0.0180 -0.1058
17854PP      PP27958  15.260   2.084   0.979  0.4156  0.0486 -0.3638
17855PP      PP27959   4.253   0.507  12.165 -0.0102  0.1737 -0.0659
17856PP      PP27960   6.389   3.976   0.161  0.2701  0.0757  0.2230
17857PP      PP27961  15.391   4.243   3.138 -0.0121 -0.3295 -0.1802
17858PP      PP27962  11.942  11.072   2.687  0.0364 -0.0409 -0.3866
17859PP      PP27963   1.960   0.168  10.661 -0.0196 -0.0831  0.4290
17860PP      PP27964   1.263   9.314  13.182  0.3191 -0.1129  0.0698
17861PP      PP27965   7.871  11.336  13.282 -0.2858  0.2580 -0.1950
17862PP      PP27966   8.126  15.683   0.096  0.0486  0.0777 -0.2269
17863PP      PP27967  14.606  12.626  12.277  0.0576  0.0681 -0.1285
17864PP      PP27968   0.139  12.241   1.191 -0.0583 -0.3018 -0.1278
17865PP      PP27969   9.478  12.819  11.905 -0.1325 -0.1087 -0.1440
17866PP      PP27970   7.017   1.741   1.356  0.2894  0.0259  0.2651
17867PP      PP27971  15.292   2.989  10.530  0.1647 -0.2723 -0.2009
17868PP      PP27972   1.980   3.473  10.848 -0.0912 -0.2757 -0.1257
17869PP      PP27973  15.123  14.028   3.037  0.0980  0.3854 -0.2877
17870PP      PP27974   9.538   4.039   1.618 -0.0531  0.0104  0.2226
17871PP      PP27975   5.404   8.856  11.278  0.0717  0.2480 -0.0800
17872PP      PP27976   0.207   7.984  10.490  0.0341 -0.0465 -0.0544
17873PP      PP27977  14.125   2.156   2.216  0.2050  0.2289 -0.0148
17874PP      PP27978   6.668  12.601   3.038 -0.1907 -0.0777  0.3512
17875PP      PP27979   9.439  13.685   1.214  0.2051 -0.0561 -0.0320
17876PP      PP27980  10.221  10.446  10.547 -0.0943  0.1986 -0.2023
17877PP      PP27981   2.290   2.537  13.642 -0.0461 -0.0491  0.0448
17878PP      PP27982   6.581   5.878   0.469  0.1499  0.0344  0.0526
17879PP      PP27983   5.974   9.167   0.512  0.1315  0.2995 -0.0887
17880PP      PP27984   1.581   0.440  10.305 -0.1665 -0.2780 -0.0341
17881PP      PP27985   9.658  12.534  10.207 -0.0128  0.0599 -0.1939
17882PP      PP27986  14.146   5.573   9.442 -0.1583 -0.1406  0.0936
17883PP      PP27987   2.976   6.754  12.679  0.2243 -0.0811 -0.0649
17884PP      PP27988   0.278   9.620  11.346  0.1887 -0.2593 -0.2257
17885PP      PP27989  10.909   1.685  13.574 -0.4145 -0.2849  0.0850
17886PP      PP27990   1.504   4.325   1.468  0.0891 -0.0850  0.1914
17887PP      PP27991   5.826   8.498   0.829 -0.0318  0.3958 -0.1563
17888PP      PP27992   8.827   2.211   1.471  0.0478  0.0861 -0.1438
17889PP      PP27993  11.991   6.602  10.839  0.4532  0.0396  0.0636
17890PP      PP27994  10.810  15.073   9.523  0.2733 -0.3774 -0.1262
17891PP      PP27995   7.834   9.935   2.634 -0.0187  0.0171 -0.1211
17892PP      PP27996  13.365  11.626   3.326  0.0893 -0.0556  0.0761
17893PP      PP27997   3.942   0.954  13.593  0.0810 -0.0134  0.1295
17894PP      PP27998  10.239  10.052  12.533 -0.0210 -0.2500 -0.3065
17895PP      PP27999   7.451   2.345   3.371 -0.1707 -0.0249  0.2695
17896PP      PP28000  12.961   1.998   0.510 -0.3994 -0.1524  0.0824
17897PP      PP28001  15.667  10.170  10.366 -0.0012 -0.0459  0.0502
17898PP      PP28002   9.962  14.324   0.836  0.0816 -0.0137  0.1822
17899PP      PP28003   8.609   0.158  12.181 -0.1141 -0.1759 -0.0480
17900PP      PP28004  12.001   4.794   1.951 -0.0462  0.0031  0.0948
17901PP      PP28005   4.742   9.027   4.225  0.3885  0.0250 -0.4151
17902PP      PP28006  10.276  15.120  10.914  0.1402 -0.0258  0.2051
17903PP      PP28007   0.998  14.409  10.060  0.1203  0.2060 -0.2741
17904PP      PP28008   6.231   2.715  11.793  0.3139 -0.2625 -0.0933
17905PP      PP28009   5.446   0.897   1.948  0.2386 -0.4064  0.1763
17906PP      PP28010   2.610   5.661  11.069 -0.0677 -0.1399  0.2066
17907PP      PP28011  13.103   5.438  13.372 -0.2122 -0.0121  0.0375
17908PP      PP28012   0.866  12.842  13.211  0.2049 -0.0269  0.0982
17909PP      PP28013   6.666  10.295   0.619 -0.0473  0.1055  0.3990
17910PP      PP28014   0.019   7.970   2.424 -0.4608  0.2195 -0.0182
17911PP      PP28015   6.521  10.830  12.971  0.0822 -0.2836  0.1441
17912PP      PP28016   0.851   6.256   8.656 -0.1226 -0.0548  0.0729
17913PP      PP28017   9.205   1.642  11.340  0.1505 -0.0251  0.2135
17914PP      PP28018   1.881   7.130  11.050  0.1577 -0.3884 -0.0639
17915PP      PP28019  11.119   0.533  12.953 -0.0396 -0.0935  0.0249
17916PP      PP28020   6.508  12.014  10.536 -0.5906 -0.1151  0.0913
17917PP      PP28021   8.669   9.118  12.666 -0.0750 -0.2845  0.0245
17918PP      PP28022   9.829  11.033  10.763  0.0278  0.0586 -0.0256
17919PP      PP28023   3.001  14.168  12.529  0.3613 -0.3574  0.1202
17920PP      PP28024  12.140   0.370   2.970  0.2256 -0.1354  0.0081
17921PP      PP28025   1.290   1.485  10.640 -0.0040  0.0050 -0.0446
17922PP      PP28026  14.200   5.581  13.061  0.0302  0.0649  0.0333
17923PP      PP28027  14.982  10.253  10.565  0.0790  0.1266 -0.0792
17924PP      PP28028   1.950  13.484   9.378  0.0363  0.1228  0.1193
17925PP      PP28029  13.335  12.900  10.088 -0.4030  0.0606  0.1304
17926PP      PP28030   0.177  10.624  10.503  0.1194 -0.0636 -0.0165
17927PP      PP28031  15.199  13.487  12.763  0.1363 -0.1012 -0.2286
17928PP      PP28032   0.365   2.933   0.437  0.0457  0.0343  0.0994
17929PP      PP28033   9.169   2.391   0.934 -0.2105  0.3707 -0.1724
17930PP      PP28034   9.787   0.417  11.370 -0.3183 -0.0646  0.3826
17931PP      PP28035   7.813   8.552  13.673  0.0156  0.0617  0.1416
17932PP      PP28036   3.727   0.270   0.998  0.1111 -0.1819 -0.2393
17933PP      PP28037   9.622   3.846  12.608 -0.3407 -0.3918  0.2844
17934PP      PP28038  13.445  10.226   1.594 -0.4005  0.0847  0.2281
17935PP      PP28039   2.721  13.580   2.323 -0.2704  0.6086  0.1369
17936PP      PP28040   1.996   6.806   8.843 -0.3891 -0.0857  0.1875
17937PP      PP28041  11.257  12.093   3.676 -0.4873  0.3412 -0.0308
17938PP      PP28042   7.263  14.937  10.516  0.0401  0.0389  0.0017
17939PP      PP28043   0.624   8.840   1.764 -0.2251 -0.1145 -0.1215
17940PP      PP28044  12.489   5.429  13.761  0.3021 -0.2735  0.1062
17941PP      PP28045  13.500  11.257   2.234 -0.1636 -0.5928  0.2842
17942PP      PP28046   5.240   0.135   1.306 -0.0523  0.0743 -0.3031
17943PP      PP28047   9.045  13.532  11.510 -0.1471  0.0809  0.2714
17944PP      PP28048  10.804  11.436   2.769  0.1079 -0.1459  0.2589
17945PP      PP28049  15.459   2.479   9.510  0.0235  0.2164  0.1354
17946PP      PP28050  14.168   0.796   1.949  0.0276  0.1526 -0.3770
17947PP      PP28051   9.272   4.411   8.914 -0.1613 -0.1486  0.0176
17948PP      PP28052   5.979   6.905   1.203  0.0658  0.1056  0.3642
17949PP      PP28053  10.742   2.932  11.183  0.1698 -0.1846 -0.2591
17950PP      PP28054   9.987  13.466  10.370  0.1612 -0.2595  0.0576
17951PP      PP28055   1.933  14.566   3.242 -0.0575 -0.2599  0.1460
17952PP      PP28056   5.949   8.109  11.071 -0.1385  0.0081  0.1752
17953PP      PP28057   7.537   0.013  10.472 -0.0306 -0.0812 -0.0161
17954PP      PP28058  12.717   6.650  11.438 -0.0885  0.2788  0.2171
17955PP      PP28059   1.243   2.038  10.607 -0.1770  0.0178  0.0570
17956PP      PP28060  13.894   8.964   1.457  0.0194 -0.3313  0.1691
17957PP      PP28061  15.674   5.238   1.757  0.1245 -0.0783  0.4119
17958PP      PP28062   2.284   5.775  10.249 -0.0644 -0.0008  0.0719
17959PP      PP28063   0.864   9.830   4.211 -0.3369 -0.0979 -0.2291
17960PP      PP28064   7.107  10.961  10.303  0.0206  0.2109  0.4963
17961PP      PP28065  15.586   0.447   3.844  0.0710  0.0635  0.4362
17962PP      PP28066   7.576   3.213  10.567  0.3042  0.1423 -0.2307
17963PP      PP28067   6.760   3.692  12.029  0.0079 -0.3084  0.1523
17964PP      PP28068  15.643   9.823   2.151  0.0682 -0.1595 -0.0584
17965PP      PP28069  10.513  15.022   3.208  0.0274  0.1551 -0.1361
17966PP      PP28070   1.477   6.881  10.226 -0.3692  0.0124  0.3957
17967PP      PP28071  13.280   9.253   1.424 -0.1709  0.1227 -0.0176
17968PP      PP28072   8.367   0.251   0.562 -0.3935 -0.2360  0.0546
17969PP      PP28073   3.234   4.909  11.401  0.2277  0.3235  0.1135
17970PP      PP28074   3.017  10.090   0.421 -0.2018  0.0873  0.1999
17971PP      PP28075   3.568   2.251  12.355  0.2269 -0.3319  0.1312
17972PP      PP28076   5.076  13.005   1.028  0.0953  0.2086 -0.0055
17973PP      PP28077  12.950   1.395   1.859 -0.0009  0.2501 -0.2460
17974PP      PP28078  10.162   5.126  13.362  0.1347 -0.4321 -0.0600
17975PP      PP28079   0.543  13.615   1.904  0.1262  0.0520 -0.2164
17976PP      PP28080   3.953  10.889   2.944  0.1473 -0.1318 -0.0319
17977PP      PP28081  12.588   5.000  10.118  0.0935  0.2406  0.1490
17978PP      PP28082   6.443   2.481   0.129 -0.0307  0.0823  0.0310
17979PP      PP28083   4.493   6.267  10.545  0.0441 -0.1516  0.2090
17980PP      PP28084  11.729   5.447   2.504  0.1883  0.2833 -0.0363
17981PP      PP28085   5.519  15.112   4.073 -0.0297 -0.0508  0.1071
17982PP      PP28086   6.812  15.642  11.641 -0.0827 -0.1681  0.0460
17983PP      PP28087   7.755   3.313   8.570  0.0152 -0.2953  0.1507
17984PP      PP28088  14.832  15.355  10.686 -0.1224 -0.0438  0.2535
17985PP      PP28089   4.412   9.644   4.812  0.1284 -0.2069  0.1200
17986PP      PP28090  15.137  15.303   1.565  0.4713  0.2830 -0.3006
17987PP      PP28091  13.790  14.851   2.071  0.0606  0.1943  0.4234
17988PP      PP28092   7.023   5.444  13.681 -0.1521  0.0131  0.0231
17989PP      PP28093   1.376   0.064   0.646 -0.1398  0.2105 -0.4579
17990PP      PP28094   0.128   5.117   8.578 -0.0604  0.2450  0.2439
17991PP      PP28095   5.215   4.910   3.130  0.1937 -0.0372  0.1635
17992PP      PP28096  15.160   1.169  12.674  0.0828  0.0610  0.0844
17993PP      PP28097   8.436   0.646  13.472 -0.0424 -0.2320  0.0104
17994PP      PP28098   0.132   4.881   0.444  0.0910 -0.2130 -0.1435
17995PP      PP28099   2.333   3.704   3.999  0.0781  0.0822  0.0569
17996PP      PP28100   5.443   4.316   9.193  0.3094  0.0124 -0.3973
17997PP      PP28101   1.770   1.043  10.079 -0.0079 -0.1059  0.2538
17998PP      PP28102  15.106  15.690   2.239  0.3797  0.2295 -0.0597
17999PP      PP28103   4.801   6.229   2.061 -0.4231 -0.2064 -0.1334
18000PP      PP28104  12.533   7.980   2.714  0.1178  0.1216 -0.0230
18001PP      PP28105   0.684   2.620   9.343 -0.0617  0.0131 -0.0650
18002PP      PP28106   9.308   3.566   2.055 -0.0261  0.0609  0.1413
18003PP      PP28107   7.260   0.224   1.283 -0.0965  0.2139  0.0692
18004PP      PP28108   3.791   1.494   4.346 -0.3916  0.0182  0.1739
18005PP      PP28109   1.809   4.536   0.673  0.0419  0.0048  0.1644
18006PP      PP28110   1.775   5.708   4.795  0.1457  0.1311 -0.1638
18007PP      PP28111  13.261   1.817   0.096  0.1277  0.1601  0.1516
18008PP      PP28112   6.844   1.551   3.784 -0.0490 -0.4041 -0.2061
18009PP      PP28113  13.365   2.027   3.726  0.3965  0.0520 -0.0622
18010PP      PP28114   8.553   9.977  12.382  0.2229 -0.0863  0.3748
18011PP      PP28115   7.815   4.493   2.161 -0.1653 -0.1154 -0.0031
18012PP      PP28116   9.985  12.547   9.299  0.0572  0.0618  0.0871
18013PP      PP28117   4.029   8.161   4.247 -0.1101 -0.0503 -0.0649
18014PP      PP28118   2.451   3.476   3.509  0.1302 -0.1819 -0.3393
18015PP      PP28119   4.580   9.466   1.109  0.0868  0.2244 -0.0524
18016PP      PP28120   1.684   8.588   9.172  0.0956 -0.0411 -0.2654
18017PP      PP28121   6.283   0.641  11.710 -0.1535 -0.0359  0.1911
18018PP      PP28122   7.944  10.670   3.275  0.2366  0.0104  0.1410
18019PP      PP28123  13.450   7.784   1.251 -0.0277 -0.3515 -0.0583
18020PP      PP28124   8.008   7.134  11.346 -0.1777 -0.2720 -0.0698
18021PP      PP28125  14.029  15.594  11.789 -0.0768 -0.1412  0.0494
18022PP      PP28126  14.342   2.444  11.328 -0.0240 -0.1237  0.0190
18023PP      PP28127   0.599   8.014   9.199  0.2798  0.3818  0.1295
18024PP      PP28128   3.363   2.192   3.570  0.2343  0.1307  0.0177
18025PP      PP28129   6.493   2.904   1.459  0.1126  0.2564 -0.1654
18026PP      PP28130   3.272  10.733   3.487 -0.1404 -0.2116  0.1158
18027PP      PP28131   2.768   8.341   2.059 -0.2461  0.0118  0.1866
18028PP      PP28132   6.430  12.534  12.722  0.3184 -0.0750 -0.1412
18029PP      PP28133   7.870   8.323  12.319  0.1136 -0.1355  0.2559
18030PP      PP28134   6.441   7.647  13.521 -0.0135  0.1414  0.1599
18031PP      PP28135  14.262   5.942   2.466 -0.0941  0.0425 -0.0619
18032PP      PP28136  15.150   2.763   4.554  0.2892 -0.1308 -0.2770
18033PP      PP28137   8.101   5.243   4.041  0.3162 -0.3227 -0.0928
18034PP      PP28138  11.560  10.970   3.373  0.0077 -0.1355  0.1266
18035PP      PP28139   6.254   0.089   2.498 -0.0347 -0.2165  0.1434
18036PP      PP28140   4.711  14.141   2.190 -0.5907  0.0395 -0.0533
18037PP      PP28141   7.463   5.830  12.751 -0.1283 -0.1662  0.1715
18038PP      PP28142   9.103  13.829   0.465  0.0897  0.0303  0.4608
18039PP      PP28143  11.226   1.089  11.956  0.4095 -0.0023  0.1314
18040PP      PP28144   2.366  15.298   2.581  0.0252  0.4907  0.2190
18041PP      PP28145  12.754  12.574  13.746  0.0638 -0.2730  0.0987
18042PP      PP28146  14.964  11.678   3.905  0.3194  0.2150 -0.3847
18043PP      PP28147   0.217   7.664  13.741 -0.0255 -0.2584  0.0987
18044PP      PP28148  11.186  13.811   4.092 -0.1521  0.1442  0.1000
18045PP      PP28149  15.465  14.832  10.971 -0.1261  0.1968 -0.5824
18046PP      PP28150   9.484   9.803  13.151  0.0539 -0.2707  0.3188
18047PP      PP28151   9.933   8.357   8.870 -0.0563  0.2092 -0.0070
18048PP      PP28152  12.727   4.365  10.053  0.4164  0.1423  0.1133
18049PP      PP28153   9.095   5.441   0.488  0.3489  0.0482 -0.2454
18050PP      PP28154   6.915  13.709   3.047 -0.0095 -0.1297 -0.2669
18051PP      PP28155   6.339  14.119  11.239 -0.1463 -0.1455  0.0540
18052PP      PP28156   2.763  14.221   3.202  0.1903 -0.3126 -0.1597
18053PP      PP28157   0.374   3.348   0.110 -0.6051  0.0716  0.3020
18054PP      PP28158   4.028   0.729   9.405 -0.0475  0.3483 -0.3411
18055PP      PP28159  14.532   5.659   2.100 -0.0968 -0.2484  0.0058
18056PP      PP28160  11.235   5.879  11.838 -0.3471  0.0562  0.3214
18057PP      PP28161  11.073   2.197   9.366  0.0713  0.0847  0.2513
18058PP      PP28162   8.909  10.257  12.067  0.3294  0.1786  0.3415
18059PP      PP28163  13.823   5.161  10.419 -0.0629  0.1745  0.1750
18060PP      PP28164  10.372  10.818   4.162 -0.1070 -0.1183 -0.1554
18061PP      PP28165  10.615   5.215   2.275 -0.0733 -0.1200  0.0047
18062PP      PP28166   5.002   8.208  10.807 -0.1290  0.1232  0.3852
18063PP      PP28167   4.082   2.706  13.281 -0.0234 -0.1144 -0.0924
18064PP      PP28168  10.850   3.970   0.225 -0.1444  0.0897 -0.2371
18065PP      PP28169   2.662   0.777   0.129 -0.2570  0.0400 -0.1080
18066PP      PP28170  11.509   4.965  12.569 -0.0964 -0.2260 -0.0356
18067PP      PP28171  12.391  15.533   3.909  0.1678 -0.0430 -0.1277
18068PP      PP28172   8.256   4.612   4.480 -0.2972  0.0898  0.2475
18069PP      PP28173   3.711   8.757   0.564 -0.0358 -0.0079 -0.2549
18070PP      PP28174   1.136  13.544   9.579 -0.0793 -0.1247  0.0448
18071PP      PP28175  12.587   8.076  12.471  0.0294 -0.1665  0.2672
18072PP      PP28176   1.765   4.301  10.728 -0.0622 -0.0217  0.0693
18073PP      PP28177   3.692   8.128   9.486 -0.0187  0.0228 -0.1469
18074PP      PP28178   0.063   0.871   2.471  0.0407  0.0684  0.4195
18075PP      PP28179  12.822   0.141   0.687 -0.3344 -0.0353  0.1835
18076PP      PP28180  15.394  14.312   2.187 -0.2131  0.0298  0.3812
18077PP      PP28181   7.287  10.075   3.383 -0.0111  0.1974 -0.2134
18078PP      PP28182  10.176  13.788   8.995  0.0411  0.0830 -0.2906
18079PP      PP28183  11.396   3.438   3.848  0.0961  0.0592 -0.1654
18080PP      PP28184  13.219   7.953   0.836  0.1066  0.1658 -0.0166
18081PP      PP28185  14.688   1.067   2.423 -0.3785  0.1402 -0.0109
18082PP      PP28186   5.903   8.291   9.246 -0.1613 -0.5203  0.0438
18083PP      PP28187   5.790  11.058   0.716  0.0488 -0.6947 -0.0995
18084PP      PP28188   7.194  15.289   0.013 -0.2181 -0.2425  0.1549
18085PP      PP28189   1.464   6.520   3.645  0.2176  0.1186 -0.0395
18086PP      PP28190  11.603  10.787   2.883 -0.0950 -0.1643 -0.1919
18087PP      PP28191   0.697   6.016   9.120 -0.0030 -0.0609  0.1287
18088PP      PP28192  11.333   2.968   3.036  0.0240  0.1509 -0.2097
18089PP      PP28193   8.490   3.183   3.983 -0.0277 -0.0099 -0.2789
18090PP      PP28194   3.077   5.302   9.467 -0.0385 -0.1751 -0.0204
18091PP      PP28195   1.735  13.118   4.164 -0.1605 -0.1394  0.1085
18092PP      PP28196   4.215  11.233   0.520  0.1366  0.0341 -0.1150
18093PP      PP28197   7.928   9.045  11.043  0.0235  0.0993 -0.1454
18094PP      PP28198   7.475  10.704   1.452  0.0669 -0.1744  0.1405
18095PP      PP28199   6.414   5.828   3.272 -0.0878  0.0604 -0.1438
18096PP      PP28200   8.967   9.454   4.772  0.0221 -0.2159 -0.1640
18097PP      PP28201   8.781   1.585  13.448 -0.1944 -0.4776  0.2233
18098PP      PP28202   6.036   3.063   1.366 -0.1650  0.0645 -0.0110
18099PP      PP28203  10.840  12.494   3.031 -0.0307 -0.1128 -0.1251
18100PP      PP28204  11.132   1.864   2.427 -0.2399  0.1729  0.0339
18101PP      PP28205   7.655   2.765   0.153 -0.0934 -0.1064 -0.0450
18102PP      PP28206   4.112  10.627  11.305  0.3411  0.0770 -0.1136
18103PP      PP28207   5.175   4.288  10.245  0.0839  0.0645  0.4776
18104PP      PP28208   7.225  13.944  10.593 -0.2500 -0.1362 -0.0976
18105PP      PP28209   5.619  10.115   4.569  0.2555 -0.1574 -0.1545
18106PP      PP28210  14.464   4.967   0.998  0.3711 -0.0138  0.0853
18107PP      PP28211   7.222   4.912  13.231 -0.0512 -0.0504  0.0585
18108PP      PP28212  13.780   3.291  10.893 -0.0807 -0.0155  0.0507
18109PP      PP28213  14.052  12.832   1.773  0.0190 -0.0994  0.1408
18110PP      PP28214   4.151   3.723   8.200  0.0506 -0.1977 -0.0931
18111PP      PP28215   6.628   2.532  10.514 -0.2429 -0.0371 -0.1137
18112PP      PP28216   5.388   0.304   3.799  0.1056 -0.1023  0.0160
18113PP      PP28217   5.564  11.590   4.518  0.0463  0.1681 -0.1579
18114PP      PP28218  10.680  13.020   2.035 -0.0219  0.1471 -0.0087
18115PP      PP28219   5.227  13.141  13.775  0.0187  0.1653 -0.2656
18116PP      PP28220   9.057   1.067   2.648 -0.1438 -0.0450  0.0068
18117PP      PP28221   9.771  12.580  13.093  0.2071  0.0326 -0.0121
18118PP      PP28222   5.968   8.848  13.332  0.0888 -0.4459 -0.1489
18119PP      PP28223  13.789   6.342  12.392  0.1272 -0.3086 -0.2582
18120PP      PP28224   1.824   9.369   0.361  0.2013 -0.0449  0.2951
18121PP      PP28225  13.831   3.102   0.183  0.6507  0.1204  0.0218
18122PP      PP28226  12.900  11.658   4.180  0.0963  0.2370 -0.0728
18123PP      PP28227  12.069   3.850  13.517 -0.0045 -0.0237  0.2834
18124PP      PP28228   2.316   0.447   1.995  0.1964 -0.1279 -0.0731
18125PP      PP28229  15.329  11.194  10.127  0.2820 -0.1076 -0.1232
18126PP      PP28230   9.680   1.234   9.454  0.1783  0.3064  0.2013
18127PP      PP28231  13.448   9.385  12.238  0.1411  0.2788  0.0184
18128PP      PP28232  12.011   1.373  13.262  0.2876  0.2993  0.0780
18129PP      PP28233   4.460   9.753   2.964 -0.1280  0.1854 -0.0311
18130PP      PP28234  12.705  15.151   2.566  0.2010  0.2814  0.1451
18131PP      PP28235   4.295  10.282   3.123  0.1234 -0.0208  0.0772
18132PP      PP28236  10.518  14.282   2.580 -0.0583  0.1122  0.3487
18133PP      PP28237   6.786   1.605  12.961 -0.0739 -0.1469  0.1810
18134PP      PP28238   5.640   2.121   3.566 -0.0869 -0.2103  0.1326
18135PP      PP28239   9.153   9.654  10.511 -0.1528 -0.0832  0.1144
18136PP      PP28240   2.691   4.508   0.212 -0.1082 -0.2366 -0.1479
18137PP      PP28241  13.957   5.412   9.944 -0.0513  0.0385  0.0101
18138PP      PP28242   3.897   5.914   8.635  0.0473  0.0083 -0.3088
18139PP      PP28243   6.283   1.563   1.619 -0.2065  0.0807  0.0991
18140PP      PP28244   9.073  15.332   0.268  0.1776 -0.0109 -0.0999
18141PP      PP28245  15.164  15.522  13.743  0.0635 -0.1449  0.0617
18142PP      PP28246   6.720  13.184   2.802 -0.0793 -0.1073 -0.1827
18143PP      PP28247  12.380  12.215   0.877 -0.2698  0.0578 -0.0503
18144PP      PP28248  13.217  13.278  12.274 -0.2266 -0.0297  0.0387
18145PP      PP28249   8.124   5.476   3.163  0.0328 -0.0012  0.1448
18146PP      PP28250   2.564   5.794   8.705 -0.0443 -0.2284 -0.1432
18147PP      PP28251  11.692   8.242   3.894 -0.1480 -0.2242 -0.0719
18148PP      PP28252   4.163   7.578  10.727 -0.1316  0.2236  0.2306
18149PP      PP28253  15.680  13.475  12.849  0.0298  0.1036  0.1055
18150PP      PP28254   4.414   4.565   3.183 -0.0305  0.1542 -0.0544
18151PP      PP28255   3.105   1.569   2.395  0.0835  0.4048 -0.4474
18152PP      PP28256  10.655  12.362  12.449  0.1203  0.3326 -0.2983
18153PP      PP28257   8.917   3.268   2.235 -0.1183 -0.1986  0.1435
18154PP      PP28258   1.021  11.839   3.452 -0.2381  0.0017  0.1245
18155PP      PP28259   4.779   8.577  10.544  0.1623 -0.2234 -0.1139
18156PP      PP28260  12.691   6.638   1.760 -0.2992  0.1935 -0.1406
18157PP      PP28261   0.260   8.501  12.894  0.0967 -0.1619 -0.1058
18158PP      PP28262  10.753   2.496  13.018  0.1796  0.3085  0.2496
18159PP      PP28263   2.086   9.895  12.578 -0.0454 -0.1463 -0.2363
18160PP      PP28264   8.767  14.880   0.037 -0.0785  0.2240  0.0917
18161PP      PP28265   0.121   0.620   3.431 -0.2670 -0.0667  0.3107
18162PP      PP28266   2.842   9.876   9.555  0.1265 -0.3229  0.0915
18163PP      PP28267   2.787  12.593   3.397  0.1866 -0.1310 -0.1989
18164PP      PP28268  10.803   8.843  12.542  0.0775 -0.1655 -0.0871
18165PP      PP28269  11.391   7.090   2.915 -0.0672  0.1609  0.1641
18166PP      PP28270  11.082   1.647  10.919  0.0648 -0.1550  0.2593
18167PP      PP28271   1.592   8.747  12.264 -0.1384 -0.0115  0.1142
18168PP      PP28272   6.130   1.558  13.752 -0.2551 -0.2715 -0.0815
18169PP      PP28273  10.917   2.889  12.082 -0.0152 -0.2303  0.3771
18170PP      PP28274   2.912   9.155   9.563  0.1268 -0.0095  0.0030
18171PP      PP28275   6.556  13.016   9.861 -0.1144 -0.1288  0.3900
18172PP      PP28276   6.236   1.432   2.194 -0.1313  0.2950  0.1149
18173PP      PP28277  13.903   6.488   1.869 -0.2743 -0.0167  0.0836
18174PP      PP28278   0.954   4.867   4.152 -0.0192  0.0913  0.1094
18175PP      PP28279   7.667  15.711   1.579 -0.3370 -0.1004 -0.1419
18176PP      PP28280   0.621   9.094   2.533 -0.2007 -0.3685 -0.0748
18177PP      PP28281   2.017   9.316  13.666  0.0216 -0.0380 -0.0014
18178PP      PP28282   4.833  12.989  10.298 -0.0960 -0.0576 -0.0077
18179PP      PP28283  10.207   4.372   3.538 -0.1329 -0.0047  0.1536
18180PP      PP28284  13.628   3.619   9.514  0.0674 -0.1843  0.0667
18181PP      PP28285   4.266   2.182   9.069 -0.1297 -0.1554  0.3439
18182PP      PP28286  14.938  13.665   4.475  0.1786 -0.2790  0.0712
18183PP      PP28287  11.279   7.553   3.786 -0.0849  0.0797 -0.0417
18184PP      PP28288   5.936  11.151   0.218 -0.1410  0.0362 -0.4477
18185PP      PP28289  13.671   3.576  10.525 -0.0701 -0.1080 -0.0508
18186PP      PP28290   0.576  10.465   1.701 -0.1552  0.0820 -0.0583
18187PP      PP28291  15.017  14.057  10.983  0.1223 -0.2259  0.2953
18188PP      PP28292  14.839   7.463  12.591  0.3101 -0.1105  0.0629
18189PP      PP28293   5.929  11.154  11.947 -0.2653 -0.0276 -0.1552
18190PP      PP28294   2.007  13.412  11.498  0.2697  0.1170  0.0075
18191PP      PP28295   1.651   9.968   1.983  0.0018  0.0759  0.2494
18192PP      PP28296   0.638  15.129   1.648 -0.2628  0.1428 -0.0465
18193PP      PP28297   0.937   1.068   3.686  0.1695  0.0620  0.1011
18194PP      PP28298   0.121   2.986   1.947 -0.0301  0.0458  0.0399
18195PP      PP28299   8.615  14.955   8.242  0.1175  0.0713 -0.0612
18196PP      PP28300  12.074   4.234   9.163 -0.0528  0.1425 -0.0099
18197PP      PP28301   7.826  13.433  12.739 -0.3321 -0.1038  0.1610
18198PP      PP28302   6.192  13.186   2.768 -0.1328 -0.1794 -0.1501
18199PP      PP28303  13.110   1.825   2.686  0.0879 -0.1176 -0.0193
18200PP      PP28304  13.861   4.908   7.865 -0.0592 -0.1846  0.4605
18201PP      PP28305   5.289  14.871  11.468 -0.2268  0.0674  0.1839
18202PP      PP28306   2.071   2.370  11.819  0.0804  0.0778  0.0547
18203PP      PP28307   0.092  12.738   3.114 -0.0730  0.2369  0.1233
18204PP      PP28308  10.309  14.599  11.561  0.2059 -0.0279  0.3081
18205PP      PP28309   5.687  10.725   1.285 -0.3202 -0.2026  0.0676
18206PP      PP28310  10.646   4.030   9.936  0.1081 -0.1725 -0.0191
18207PP      PP28311   0.079  14.222   3.294  0.0624  0.1356  0.0089
18208PP      PP28312   8.591  10.140   9.306 -0.1429  0.0241 -0.0264
18209PP      PP28313   9.387   6.954   1.895  0.0705 -0.0422  0.0825
18210PP      PP28314  12.349   9.697   0.937  0.0049  0.2885  0.2326
18211PP      PP28315   5.817   9.383   2.629 -0.0590  0.1318  0.4359
18212PP      PP28316   2.679   8.076  10.650 -0.0038  0.1797 -0.0911
18213PP      PP28317   1.354   1.780   3.058  0.1883  0.0314 -0.2171
18214PP      PP28318   1.415  10.573   0.724  0.0964 -0.2253  0.0682
18215PP      PP28319   6.186   6.502  13.263  0.0693 -0.1153 -0.1758
18216PP      PP28320   6.314  10.314   0.037  0.1035 -0.1841  0.2783
18217PP      PP28321   9.480  12.873  12.812 -0.0439  0.4200 -0.2007
18218PP      PP28322   2.475  10.847   2.802  0.1193  0.0072  0.2840
18219PP      PP28323   6.669  14.913   3.740  0.2714 -0.2456  0.2902
18220PP      PP28324   5.486   5.049   2.060 -0.2276  0.2043 -0.0531
18221PP      PP28325   0.319  15.488   3.656  0.1895 -0.0446 -0.0761
18222PP      PP28326  11.490  10.731   9.864  0.1401 -0.2374 -0.0402
18223PP      PP28327  13.081   5.181   3.775  0.0490 -0.3680 -0.2402
18224PP      PP28328  12.362  15.485   0.606 -0.0124 -0.1677 -0.2158
18225PP      PP28329   2.106   4.284  12.830 -0.1280  0.2473 -0.1422
18226PP      PP28330   1.107   9.277   2.440 -0.0309  0.0173 -0.2085
18227PP      PP28331   9.814   7.590   0.350 -0.1115 -0.0510 -0.2135
18228PP      PP28332   8.223  13.530   9.026 -0.1245 -0.1324 -0.1527
18229PP      PP28333  11.684   5.256  10.449 -0.0800 -0.0372  0.2042
18230PP      PP28334  14.359   8.691   1.629 -0.3440 -0.3011  0.2609
18231PP      PP28335  15.668   6.518   9.065 -0.1016  0.2661  0.0714
18232PP      PP28336  12.341  12.326  13.732  0.0559 -0.0718 -0.2781
18233PP      PP28337  10.922   3.561  10.200 -0.1501  0.1055 -0.3176
18234PP      PP28338  13.535   1.806   3.241 -0.2202 -0.2554  0.3902
18235PP      PP28339  15.586  12.752   4.058  0.0693  0.0121  0.1515
18236PP      PP28340   8.321   9.968  12.871 -0.0054  0.0820  0.0082
18237PP      PP28341  14.742   7.203   1.645 -0.2601  0.3371 -0.1396
18238PP      PP28342   3.094   9.527   0.630 -0.1913 -0.2916 -0.0663
18239PP      PP28343  11.373  12.328   0.447  0.3760 -0.0710 -0.3751
18240PP      PP28344   7.824   7.692   0.632  0.2064  0.0333 -0.1072
18241PP      PP28345   8.602   9.896   1.794 -0.1241  0.2170 -0.0639
18242PP      PP28346   0.039  15.519  12.028  0.0233 -0.0288 -0.1871
18243PP      PP28347   1.764  11.497   3.737 -0.0291 -0.1139 -0.2998
18244PP      PP28348   2.928   7.753  13.499 -0.1978  0.0213 -0.0928
18245PP      PP28349  15.444   8.770   8.511 -0.0295 -0.2304 -0.1858
18246PP      PP28350  15.067  13.340   4.826  0.2074 -0.0364 -0.2062
18247PP      PP28351   9.347  11.615   1.109 -0.2010  0.1205 -0.0096
18248PP      PP28352   4.639  10.715  11.352  0.1400 -0.2608 -0.4538
18249PP      PP28353   2.114  14.586  10.070 -0.0628  0.0455  0.1013
18250PP      PP28354  11.052   2.441   4.090 -0.1377 -0.1245  0.0036
18251PP      PP28355   3.831   9.183   9.368  0.0289  0.3980  0.0028
18252PP      PP28356   2.426   9.534   0.249  0.0813  0.0839 -0.0097
18253PP      PP28357   5.055   1.152  10.076 -0.1063 -0.0966  0.3013
18254PP      PP28358  14.911  10.252  11.722  0.0128 -0.1195 -0.2229
18255PP      PP28359   7.147   9.575   1.884 -0.0597 -0.2376 -0.0497
18256PP      PP28360  12.447  10.224  12.961  0.0398  0.0909 -0.2350
18257PP      PP28361  14.567   5.424  11.471 -0.0058  0.0177 -0.0002
18258PP      PP28362   4.959   2.713   3.066  0.3779  0.0414 -0.0405
18259PP      PP28363   5.866  14.983  12.945 -0.2801 -0.2425  0.4212
18260PP      PP28364   7.315  11.400   0.243 -0.0749 -0.0811  0.0786
18261PP      PP28365   2.372   7.721   8.679 -0.1962  0.0975  0.1083
18262PP      PP28366   2.054   5.890   8.865 -0.1105 -0.3944  0.0575
18263PP      PP28367   1.922  10.830  10.621 -0.3911  0.1717 -0.1142
18264PP      PP28368  11.116   9.801   9.148 -0.1374 -0.1975  0.0045
18265PP      PP28369  12.223  12.415   3.546  0.1128 -0.1394  0.1361
18266PP      PP28370  15.646   7.195   9.530 -0.2520  0.1890 -0.0928
18267PP      PP28371   5.301  12.685  10.104  0.0738  0.0039 -0.2124
18268PP      PP28372   9.783  13.025  11.528  0.1523  0.1660 -0.2938
18269PP      PP28373   2.137   0.684   0.214  0.1254 -0.2488 -0.0726
18270PP      PP28374   2.424  13.788   9.901  0.3146 -0.1788 -0.1014
18271PP      PP28375  12.912   0.721   2.347 -0.0121  0.0777 -0.0739
18272PP      PP28376   6.978   0.087  10.634  0.0733  0.1472 -0.3459
18273PP      PP28377   4.868   0.256   0.579 -0.1698  0.0581 -0.0181
18274PP      PP28378  14.356  10.477  13.108 -0.2372 -0.1186 -0.0495
18275PP      PP28379   0.254  10.686   3.916  0.0705  0.1890  0.2224
18276PP      PP28380   6.053   6.920  11.977 -0.0082  0.3414  0.0589
18277PP      PP28381   8.788   3.911  11.937  0.3645  0.0159  0.0518
18278PP      PP28382   8.070   1.545   3.214 -0.1643  0.2196  0.3906
18279PP      PP28383   7.157  15.172   9.385 -0.0292  0.0122 -0.4525
18280PP      PP28384   4.417   8.825  10.071  0.0138  0.2126 -0.1361
18281PP      PP28385  14.276   9.843   9.536  0.2990  0.1757  0.0799
18282PP      PP28386   7.725   8.649   9.308 -0.0810 -0.1942 -0.2928
18283PP      PP28387   7.465  13.197   2.375  0.2881  0.2069  0.1648
18284PP      PP28388   7.595   8.955   3.334 -0.2170 -0.3879 -0.2056
18285PP      PP28389  13.497   9.571   3.116 -0.4523  0.0157  0.0549
18286PP      PP28390   8.567  13.448  10.965  0.0199 -0.1543  0.0439
18287PP      PP28391  10.368   2.785   9.462  0.1093  0.2243  0.3539
18288PP      PP28392  12.940   4.976  11.791 -0.0005 -0.1949 -0.1510
18289PP      PP28393   0.053  10.225   3.743  0.0673  0.3600  0.0320
18290PP      PP28394   3.094  15.230   3.729 -0.0830  0.1086  0.2863
18291PP      PP28395   9.413   9.326  12.340 -0.3913  0.1950  0.2607
18292PP      PP28396   4.919   4.542   8.826  0.1248 -0.0836  0.3282
18293PP      PP28397  14.433  10.158  13.513 -0.0618 -0.2406 -0.1511
18294PP      PP28398  14.754   6.988  11.841  0.1571  0.0020 -0.1671
18295PP      PP28399  10.860   3.769   3.228  0.3583 -0.0539 -0.0239
18296PP      PP28400   5.795   2.249  11.025 -0.1706 -0.1984  0.2049
18297PP      PP28401   0.744   9.196   3.689  0.3358 -0.2423  0.0267
18298PP      PP28402   0.205   3.249  11.035  0.0378  0.0053  0.0197
18299PP      PP28403  13.810  15.200  10.027 -0.2021  0.0510 -0.2976
18300PP      PP28404  14.601   9.050  11.706  0.2932 -0.1496 -0.1929
18301PP      PP28405   6.652  10.380  12.759 -0.1639  0.0280 -0.0372
18302PP      PP28406   7.148   5.024   0.285 -0.5570 -0.2267  0.1319
18303PP      PP28407   0.590  12.807   2.253  0.1094 -0.0603  0.1677
18304PP      PP28408   5.081   0.774   4.482  0.1998 -0.0499  0.1879
18305PP      PP28409   4.959   7.120  13.768  0.1356  0.0712  0.2334
18306PP      PP28410   3.645   9.195   0.889  0.1016  0.3011  0.3877
18307PP      PP28411   1.143   7.515   8.137  0.0882  0.0609  0.1664
18308PP      PP28412  14.885  11.044  13.331  0.1050 -0.2206 -0.1591
18309PP      PP28413  10.664   7.020  10.897 -0.3550 -0.0178 -0.0969
18310PP      PP28414   5.338  13.983  12.912 -0.1668 -0.0116  0.1118
18311PP      PP28415   4.566   9.660   1.586 -0.0235  0.2207  0.0578
18312PP      PP28416   5.271   9.828   1.932  0.2566  0.0882  0.2124
18313PP      PP28417  14.034  11.056  11.934 -0.0578 -0.1247 -0.3245
18314PP      PP28418   1.744  11.156  11.654 -0.1452  0.0238 -0.2153
18315PP      PP28419  10.695   1.799   2.204 -0.1431 -0.0293 -0.0251
18316PP      PP28420   3.353  15.206  10.689 -0.1200  0.1903  0.2702
18317PP      PP28421   2.609   2.511   2.847  0.1030  0.0765  0.0909
18318PP      PP28422  13.404   9.600   2.563  0.0189  0.1710 -0.0983
18319PP      PP28423  15.094   3.742   2.964  0.1971  0.0162  0.3612
18320PP      PP28424   5.358  14.662   3.112 -0.0003  0.0146  0.2456
18321PP      PP28425  15.369  10.209  13.344 -0.0573 -0.0068  0.0101
18322PP      PP28426  11.983  10.912  13.226 -0.1059 -0.1795 -0.0036
18323PP      PP28427   0.832   9.582   3.425 -0.0419 -0.0825  0.1986
18324PP      PP28428   7.344  10.592  13.476  0.2125 -0.3475  0.2740
18325PP      PP28429  15.422   4.761  11.875  0.0485 -0.0816  0.1960
18326PP      PP28430  15.510  10.701  10.251  0.2056  0.0384  0.2151
18327PP      PP28431   3.369   1.040  10.844 -0.1502  0.2410 -0.2448
18328PP      PP28432   1.069   5.590  10.391 -0.0468 -0.0764 -0.3104
18329PP      PP28433  13.122  15.482   1.487  0.4158 -0.2905  0.1080
18330PP      PP28434   6.014   4.028  12.876 -0.0292  0.4611  0.1441
18331PP      PP28435   1.109   0.902   4.110 -0.2424  0.0065 -0.0505
18332PP      PP28436  13.728   4.137  10.444 -0.0058  0.2152  0.3771
18333PP      PP28437  11.439   4.590   8.303  0.1595 -0.0120 -0.1907
18334PP      PP28438  11.939  13.697   3.524  0.0255 -0.0962  0.1018
18335PP      PP28439  11.056   5.498   0.648 -0.3834 -0.0000 -0.0235
18336PP      PP28440   4.149   5.589   3.337 -0.4746 -0.0125  0.1245
18337PP      PP28441  11.339  10.184   9.398  0.0896  0.2713 -0.2396
18338PP      PP28442   7.733  12.895  11.258  0.3919  0.0068  0.3065
18339PP      PP28443   2.371  13.898   2.711  0.1761  0.4152 -0.0840
18340PP      PP28444   8.429   5.442   8.466  0.0490 -0.0937  0.2907
18341PP      PP28445   1.272   8.186   0.037 -0.1324 -0.0248  0.1286
18342PP      PP28446   7.408   1.927   2.153  0.1217  0.0320 -0.3045
18343PP      PP28447   5.754   8.721   3.208 -0.1552  0.0551  0.1083
18344PP      PP28448   0.606   9.134  10.302 -0.1071  0.2283 -0.0700
18345PP      PP28449   7.013   8.368  12.461  0.1334 -0.0389  0.1348
18346PP      PP28450  12.083   0.261  10.352  0.1000 -0.0753 -0.0512
18347PP      PP28451   7.734   0.487  12.775  0.1001 -0.1505 -0.1172
18348PP      PP28452  13.856   9.389   3.702  0.0501  0.0497 -0.2851
18349PP      PP28453   3.245  12.804   3.406 -0.0686  0.0430 -0.0323
18350PP      PP28454  10.697  12.706  10.240  0.0225  0.1445  0.0020
18351PP      PP28455   7.219   0.239  13.725  0.2202  0.0066 -0.0124
18352PP      PP28456   3.190   5.540   0.629 -0.2489  0.1281  0.4148
18353PP      PP28457   7.362   0.638   9.288  0.1771  0.0147 -0.1038
18354PP      PP28458  11.648   0.137   3.661  0.1065 -0.3186  0.0429
18355PP      PP28459  12.097   8.499   3.833 -0.0128 -0.0469  0.1320
18356PP      PP28460   4.604   7.819  12.304 -0.2364 -0.1254 -0.0717
18357PP      PP28461   1.648   4.792   9.454  0.0613  0.1700  0.0069
18358PP      PP28462   0.822   2.710   1.118 -0.4444  0.2166 -0.1307
18359PP      PP28463  12.592   1.869   2.518 -0.1350 -0.1231 -0.0225
18360PP      PP28464  15.594   1.265   4.646  0.2570  0.0602 -0.2354
18361PP      PP28465  14.494  11.753   2.667  0.2520 -0.3857  0.0795
18362PP      PP28466  15.350   3.808   9.553  0.1390 -0.0753  0.1562
18363PP      PP28467  10.580  13.464   2.932 -0.0124 -0.0562 -0.0080
18364PP      PP28468   2.921  14.749   3.245 -0.2108  0.0927  0.1248
18365PP      PP28469  13.253   1.542   1.414  0.1913 -0.0752 -0.2315
18366PP      PP28470   6.300   8.852  10.469 -0.0976  0.1543  0.1148
18367PP      PP28471   7.413   4.543  12.307 -0.0794  0.2994 -0.1070
18368PP      PP28472   4.686   4.116   3.424  0.3242  0.1176  0.0605
18369PP      PP28473   5.813  12.099   3.702  0.0489  0.1978 -0.3985
18370PP      PP28474   8.589   6.891   9.250  0.2757 -0.1736  0.0812
18371PP      PP28475  14.860   7.201   9.996 -0.0622 -0.2214 -0.0841
18372PP      PP28476   2.768   5.086   1.674  0.3815  0.0655  0.1975
18373PP      PP28477  12.444   9.181  12.545  0.2733 -0.0055 -0.1476
18374PP      PP28478   9.988  13.092  12.792  0.2656 -0.2714  0.1361
18375PP      PP28479   6.929   0.663   3.889 -0.2533  0.2258  0.2474
18376PP      PP28480   7.370   4.205  10.794  0.0938  0.0693  0.0105
18377PP      PP28481  11.767   5.479   0.630  0.2486  0.0376 -0.1227
18378PP      PP28482   6.690   8.408  11.566  0.0968  0.0324 -0.2885
18379PP      PP28483  10.683   0.531   4.096  0.1468 -0.2012  0.1181
18380PP      PP28484  13.943  14.423  12.176 -0.3110 -0.1382  0.0717
18381PP      PP28485  10.264   5.371   9.235  0.0713  0.0240 -0.0136
18382PP      PP28486   8.734  11.786  13.763  0.0076  0.0239 -0.1121
18383PP      PP28487  12.295   6.777   0.720 -0.1085  0.1389  0.0713
18384PP      PP28488   6.248  11.662  12.325  0.1936 -0.0566 -0.0949
18385PP      PP28489   2.090   8.927   3.581  0.3388 -0.3845  0.1808
18386PP      PP28490   9.805   0.209  10.890  0.0350 -0.3220 -0.1222
18387PP      PP28491  13.768  12.021  10.080  0.0430 -0.1104  0.3687
18388PP      PP28492   3.154   3.240   0.841  0.1584 -0.0736  0.0513
18389PP      PP28493  14.558  13.595  11.929  0.1548 -0.0503 -0.2370
18390PP      PP28494   7.110   4.726  10.969  0.1115 -0.1483 -0.1971
18391PP      PP28495   7.266   1.353  11.574 -0.0300  0.0095 -0.0690
18392PP      PP28496   8.927  10.917  10.431 -0.0746  0.1258 -0.3607
18393PP      PP28497  13.122   4.696   3.282 -0.1151  0.0334  0.2339
18394PP      PP28498   5.772  11.309  10.273  0.0909 -0.1646  0.0908
18395PP      PP28499   1.296  14.283  12.906 -0.2587  0.0284  0.1187
18396PP      PP28500   7.998   7.894   9.371  0.0045  0.0104 -0.3008
18397PP      PP28501  11.803   0.773  11.350  0.1320 -0.2979  0.2029
18398PP      PP28502   1.271   4.267   3.582 -0.2167 -0.1663 -0.0371
18399PP      PP28503   9.382   0.362   9.048  0.0513 -0.1463 -0.2513
18400PP      PP28504  12.194  14.930   3.994 -0.1990  0.1372 -0.0850
18401PP      PP28505   3.785   3.262  12.590 -0.1005  0.0040  0.0892
18402PP      PP28506   9.072   9.183   3.842  0.0439 -0.1722  0.0261
18403PP      PP28507   1.921  14.960   1.458 -0.1348 -0.1564 -0.3776
18404PP      PP28508   6.497   4.951  12.074  0.2770  0.0765 -0.1261
18405PP      PP28509  15.447  15.179  12.276  0.1407 -0.1100  0.2715
18406PP      PP28510   0.402  15.035   3.606 -0.0886  0.0404 -0.1283
18407PP      PP28511  10.261   3.169  10.909  0.2451  0.0519 -0.1789
18408PP      PP28512   0.791  11.960   9.030  0.1154  0.0418 -0.0147
18409PP      PP28513   0.246   6.824   9.523  0.0765 -0.3528  0.0727
18410PP      PP28514   8.936   4.725   2.874 -0.0970 -0.1852 -0.1036
18411PP      PP28515   1.831   0.796  12.663 -0.0058  0.1689  0.0991
18412PP      PP28516   3.261  12.068   5.408  0.2421 -0.0173  0.0261
18413PP      PP28517  14.535   2.783   1.410  0.0067  0.0772  0.1057
18414PP      PP28518   5.051  10.535   2.767  0.0737 -0.1951  0.4001
18415PP      PP28519   2.195   6.852   3.024  0.1191 -0.2480 -0.0683
18416PP      PP28520  10.396  11.752   2.651  0.0284 -0.1039  0.1926
18417PP      PP28521   1.509   3.596  13.023  0.0538  0.3478  0.1041
18418PP      PP28522   7.417  11.219  10.627 -0.1954  0.2089 -0.0569
18419PP      PP28523   7.091   5.084   9.833 -0.3838 -0.1628 -0.1510
18420PP      PP28524   2.634   7.566   4.692  0.1061 -0.0757  0.1994
18421PP      PP28525   3.699  14.458   0.476 -0.0443  0.1560  0.0812
18422PP      PP28526   8.413  13.086   9.811 -0.1279  0.0472  0.0944
18423PP      PP28527  15.389  12.703   2.127 -0.0302  0.0357 -0.1997
18424PP      PP28528  14.193  13.773  12.362  0.2064 -0.1975 -0.0304
18425PP      PP28529  13.058   0.576   0.586 -0.3348  0.1358 -0.0849
18426PP      PP28530   9.026   9.337   4.288 -0.1143 -0.1260 -0.0732
18427PP      PP28531  11.265  14.648  10.986 -0.0660 -0.0115  0.0349
18428PP      PP28532   8.236   7.625  12.831  0.2945 -0.1709  0.0021
18429PP      PP28533  13.635  10.773  11.975  0.0367  0.0779 -0.0530
18430PP      PP28534   7.208  14.920   0.386  0.3374  0.1092 -0.0581
18431PP      PP28535   2.449   2.752   1.788  0.0073 -0.3223 -0.2306
18432PP      PP28536   5.070  15.450   4.472 -0.0362  0.4179  0.2943
18433PP      PP28537   9.287  11.752  13.377 -0.1852  0.0397 -0.1733
18434PP      PP28538   0.811  14.323   2.085 -0.0550  0.0105 -0.3225
18435PP      PP28539   3.927   0.865  12.183  0.1153 -0.0652  0.2149
18436PP      PP28540   6.405   2.459   3.532  0.0968 -0.0870  0.0397
18437PP      PP28541   4.278   5.286   0.607 -0.2156 -0.0072  0.1039
18438PP      PP28542  10.765   5.698   2.309 -0.1835  0.0582  0.3038
18439PP      PP28543   1.593   2.236  10.895 -0.3496 -0.1667  0.0987
18440PP      PP28544   3.404   8.407  12.215 -0.0517 -0.0595  0.0359
18441PP      PP28545   3.918  13.632  13.589  0.0444  0.2253 -0.1967
18442PP      PP28546  15.298   5.680  10.920  0.0044 -0.1743  0.0899
18443PP      PP28547   6.710   7.284   9.881  0.0358 -0.2739 -0.1192
18444PP      PP28548  10.045   3.657  11.504  0.0736 -0.1103 -0.0726
18445PP      PP28549   9.320  14.771   0.761  0.1366  0.0157  0.1335
18446PP      PP28550  14.356   2.644  12.398  0.2175 -0.2319 -0.4216
18447PP      PP28551   2.436   0.702   2.394 -0.1472  0.1012  0.1199
18448PP      PP28552  15.284  14.189   1.689  0.0901 -0.1212 -0.1384
18449PP      PP28553   3.159   6.529   4.689  0.1014 -0.3369 -0.1455
18450PP      PP28554   5.776  10.552   4.753 -0.2822 -0.2321 -0.0130
18451PP      PP28555  12.334  10.496  12.395 -0.0286  0.1881  0.6426
18452PP      PP28556  13.997   0.887   0.746 -0.1241  0.0947  0.1230
18453PP      PP28557  13.604   0.137   1.910 -0.0689  0.1799 -0.0968
18454PP      PP28558   6.664   2.448   1.571 -0.3951  0.1227  0.1056
18455PP      PP28559  13.648  11.139   1.716 -0.2606  0.3034  0.1981
18456PP      PP28560   4.798  11.206  10.986 -0.1659 -0.0313 -0.0255
18457PP      PP28561  12.390  12.406   9.913  0.2034  0.2212  0.0669
18458PP      PP28562   2.720   0.288  11.675  0.0712 -0.1803 -0.2531
18459PP      PP28563   3.290   8.335   9.364 -0.0072 -0.2932  0.0415
18460PP      PP28564  15.213  12.165   3.007  0.0066  0.0821 -0.0907
18461PP      PP28565   4.503  13.733  13.607  0.1843 -0.1998  0.1759
18462PP      PP28566   0.642   5.391  12.940 -0.0914  0.1091  0.0620
18463PP      PP28567  11.951   4.557   2.807  0.1143  0.1961 -0.1567
18464PP      PP28568   9.975  15.596  12.902  0.2293 -0.0248 -0.1372
18465PP      PP28569   2.934   0.153  10.052 -0.2516  0.1731  0.0794
18466PP      PP28570   7.936   4.867   3.162  0.0940  0.0594 -0.1245
18467PP      PP28571   3.918   1.269   0.936  0.3371  0.1298 -0.3607
18468PP      PP28572  12.689   8.428   2.524 -0.1083  0.0388  0.3564
18469PP      PP28573   8.943   5.635  10.518 -0.2299  0.0571 -0.2325
18470PP      PP28574   4.299   2.373  10.862 -0.0318 -0.0348  0.0167
18471PP      PP28575   9.593   3.847   3.022 -0.1994 -0.1645 -0.1276
18472PP      PP28576   3.677   4.027  12.388  0.1488 -0.2429  0.2206
18473PP      PP28577   3.160   2.083   1.508  0.0879 -0.1280  0.0278
18474PP      PP28578  14.939   4.900   1.526 -0.0729  0.0538 -0.1208
18475PP      PP28579   0.922   7.323   9.692  0.1430  0.0695  0.2617
18476PP      PP28580   9.888   9.586  12.432  0.2063 -0.1839 -0.1067
18477PP      PP28581  14.259   8.225  10.859  0.1794 -0.0035  0.0515
18478PP      PP28582  12.244   2.347  10.820  0.3450 -0.0307 -0.0506
18479PP      PP28583   4.943   2.638  13.282 -0.0013 -0.0496  0.0235
18480PP      PP28584  12.150   2.944  12.746 -0.0532  0.0932 -0.0001
18481PP      PP28585  10.782  11.161   3.211 -0.1126  0.1973 -0.0547
18482PP      PP28586   3.160  12.383   9.810 -0.0507  0.0809 -0.1081
18483PP      PP28587   4.052  11.928  11.759  0.1196 -0.1242  0.0160
18484PP      PP28588   3.815   4.252  11.893  0.4713  0.0250 -0.0690
18485PP      PP28589   5.572   2.063   2.913  0.1152 -0.3527 -0.3700
18486PP      PP28590   4.250   3.880  11.148  0.3338 -0.0852 -0.2881
18487PP      PP28591  14.876  12.811   0.199 -0.0686  0.1033  0.2003
18488PP      PP28592   1.872  11.335   1.103 -0.1459  0.3260  0.1455
18489PP      PP28593   0.624   5.187   3.829 -0.1120  0.1923  0.2280
18490PP      PP28594   8.166  11.875   0.839 -0.2355  0.1008  0.0561
18491PP      PP28595   2.420   7.786   9.227 -0.2276  0.1359 -0.0629
18492PP      PP28596   3.881   3.677  12.032  0.0226  0.1155 -0.0455
18493PP      PP28597   5.812   5.061  12.695  0.0042 -0.1800  0.1822
18494PP      PP28598   6.191   7.988   9.549 -0.0306  0.1942  0.1224
18495PP      PP28599   8.774  11.383  12.604 -0.0442 -0.2821 -0.0571
18496PP      PP28600   5.027  12.327  12.885  0.0554  0.2040  0.1024
18497PP      PP28601   9.455  13.674   4.820  0.1591  0.1525 -0.1197
18498PP      PP28602  15.089   7.041   0.753  0.2851  0.0480 -0.4188
18499PP      PP28603  15.582   5.765  12.453  0.1525 -0.0556  0.1199
18500PP      PP28604   7.490   2.996  13.062  0.1128 -0.0059  0.0435
18501PP      PP28605  12.919   3.008   1.571  0.1275  0.1592 -0.0429
18502PP      PP28606   0.304   7.276   0.910  0.1298 -0.3544 -0.1010
18503PP      PP28607   9.500  12.334  11.816 -0.1303  0.1360  0.1163
18504PP      PP28608  13.727   7.437   2.482 -0.0430 -0.0257 -0.1781
18505PP      PP28609   7.244   0.479   3.070  0.0190 -0.0802  0.1259
18506PP      PP28610  14.833   0.987  10.451 -0.3751 -0.0159 -0.0800
18507PP      PP28611   7.715   4.401   8.518  0.2472  0.0921 -0.0635
18508PP      PP28612  13.295   9.186   2.874  0.0306 -0.0940 -0.4305
18509PP      PP28613  10.918   1.933   3.997  0.2023  0.1376 -0.0050
18510PP      PP28614  10.344   3.652  10.635 -0.3070 -0.0894 -0.0964
18511PP      PP28615   4.308   7.356  12.163 -0.0866  0.0129  0.0030
18512PP      PP28616   1.062   0.414   1.059 -0.0137  0.0802  0.0284
18513PP      PP28617   7.285   8.531   2.005  0.0470 -0.0334 -0.3124
18514PP      PP28618  13.921   3.557   2.077 -0.0861 -0.1168 -0.2797
18515PP      PP28619   6.113  13.165  11.060  0.1493  0.0896  0.1130
18516PP      PP28620   2.013   4.713   3.725 -0.0515 -0.0322  0.0632
18517PP      PP28621   8.295  14.047   1.666 -0.0654  0.1712 -0.2117
18518PP      PP28622   8.292   7.803   0.383 -0.0001 -0.0096 -0.3530
18519PP      PP28623  15.098  10.599   3.359  0.3226  0.1171 -0.3030
18520PP      PP28624   3.314   3.269  13.310 -0.1311  0.1291 -0.4126
18521PP      PP28625   6.497  14.692  12.135 -0.2239 -0.1701 -0.1052
18522PP      PP28626   8.264  15.225  10.242  0.2784  0.1427 -0.1868
18523PP      PP28627   1.981   7.443   7.810 -0.1056  0.0179 -0.3076
18524PP      PP28628   5.426   9.815   5.020  0.1502  0.0091  0.2297
18525PP      PP28629   6.160   5.785   3.739 -0.1962 -0.1161  0.2061
18526PP      PP28630  10.090   0.089   0.443  0.0848 -0.0753  0.2870
18527PP      PP28631  13.875   8.807   9.745 -0.2533 -0.0406  0.2053
18528PP      PP28632   0.650   3.153   1.277 -0.1665 -0.1173 -0.3112
18529PP      PP28633   3.051   7.353   0.375  0.0151 -0.3358 -0.1502
18530PP      PP28634   8.238   6.746  11.114 -0.0513 -0.0231 -0.0304
18531PP      PP28635  14.127  12.171  12.591 -0.1192 -0.1270  0.0257
18532PP      PP28636   9.886   3.131   9.174 -0.1785  0.3469 -0.0042
18533PP      PP28637   4.824   9.871   0.628 -0.0497 -0.0449 -0.0426
18534PP      PP28638   0.178   4.107  11.543 -0.3841  0.2295 -0.0598
18535PP      PP28639   9.014  14.121   1.323 -0.0322 -0.1150 -0.3417
18536PP      PP28640  11.696   2.535   2.073 -0.1466 -0.0423  0.3128
18537PP      PP28641   5.686   1.653   9.688  0.4009  0.0329  0.0099
18538PP      PP28642   4.046  14.221  12.794  0.0622 -0.0146 -0.2923
18539PP      PP28643  14.916   6.353   2.959  0.1781  0.2136 -0.1963
18540PP      PP28644   5.415   3.427   9.623 -0.1224 -0.1652 -0.1427
18541PP      PP28645   5.730   2.297   1.964 -0.1291  0.0837  0.1729
18542PP      PP28646   1.797   1.148  10.577 -0.2038  0.1014 -0.0084
18543PP      PP28647  13.247   4.522   9.453 -0.0569 -0.1614  0.1372
18544PP      PP28648   4.584  13.741  12.511 -0.0803 -0.0534  0.1482
18545PP      PP28649  13.672   9.254   1.890  0.2517  0.0298  0.1526
18546PP      PP28650  11.845   2.677  10.659  0.1071 -0.0950 -0.0797
18547PP      PP28651  13.264  13.191   1.809 -0.1785 -0.3344 -0.0268
18548PP      PP28652  12.841  14.202   0.503 -0.0711 -0.1300  0.0622
18549PP      PP28653   2.369   7.690   2.799 -0.0970 -0.3272 -0.1021
18550PP      PP28654   2.873   8.315  12.323  0.0012  0.1465 -0.0736
18551PP      PP28655   7.388   4.812   1.511 -0.2147  0.3719 -0.1218
18552PP      PP28656   5.163  13.593  11.895 -0.0974 -0.1971  0.0786
18553PP      PP28657   8.284   1.598  13.634  0.0319 -0.0925 -0.1999
18554PP      PP28658  14.360   0.510  11.838  0.2736  0.0745  0.1704
18555PP      PP28659   2.788  13.424  13.249  0.0871 -0.1608  0.0683
18556PP      PP28660   3.206   0.678   0.125 -0.1100  0.0384 -0.0455
18557PP      PP28661  15.709  11.545  10.164 -0.1438 -0.0738 -0.3301
18558PP      PP28662   0.477   0.385   3.086  0.1562 -0.2782  0.1313
18559PP      PP28663  12.637   3.173  11.581 -0.0705  0.0234  0.2746
18560PP      PP28664   3.200   8.200  12.685 -0.1279 -0.0762 -0.0155
18561PP      PP28665   2.446   6.843   0.657  0.1301 -0.0681  0.1075
18562PP      PP28666   3.186   1.524  10.403 -0.2832  0.1182 -0.4454
18563PP      PP28667  10.026   7.322   2.925 -0.4654 -0.0143  0.2126
18564PP      PP28668   8.981  11.703  12.179  0.0441 -0.0172  0.2462
18565PP      PP28669   1.762   2.440   3.617 -0.0058  0.2462 -0.0198
18566PP      PP28670   7.721   0.527   2.586  0.0018 -0.3737 -0.2756
18567PP      PP28671   8.893  12.382   9.493  0.0007 -0.1967  0.1389
18568PP      PP28672   7.657   4.765  11.834 -0.4873 -0.2854 -0.2570
18569PP      PP28673   6.694   7.558   0.555  0.1003 -0.0216  0.2508
18570PP      PP28674  13.303   0.601   9.830  0.1010  0.0931 -0.1855
18571PP      PP28675   0.482   9.542   4.163  0.2973  0.0252  0.0586
18572PP      PP28676   1.984   1.481  10.922  0.0769 -0.4053  0.1492
18573PP      PP28677   3.779   4.773   9.178  0.1213  0.1122 -0.1413
18574PP      PP28678  15.649  11.915   1.847  0.3444  0.3015 -0.0003
18575PP      PP28679   0.833   3.718   9.975 -0.0536  0.2915 -0.0295
18576PP      PP28680   8.479  11.298   2.760  0.1212 -0.2515 -0.0445
18577PP      PP28681  10.245   0.833  12.478 -0.2492 -0.0832 -0.3489
18578PP      PP28682  15.271   4.462   2.116  0.2210 -0.3940  0.2445
18579PP      PP28683   1.238  11.274  11.238  0.1439  0.1180  0.0643
18580PP      PP28684   7.827  15.403   2.015  0.0168 -0.0214  0.0830
18581PP      PP28685   7.840   0.981   1.581 -0.1220 -0.2418 -0.1816
18582PP      PP28686   5.333  12.272   3.541  0.2294 -0.0558 -0.1683
18583PP      PP28687  10.348   5.307  10.397 -0.0111 -0.2319 -0.1389
18584PP      PP28688   3.244   0.582  10.037  0.0495 -0.0448  0.1700
18585PP      PP28689   4.274  15.657   2.445  0.0776 -0.1451 -0.0547
18586PP      PP28690   3.934   3.418  10.678 -0.1898 -0.0899  0.0333
18587PP      PP28691  10.978   3.933   2.028 -0.3024  0.2514 -0.3515
18588PP      PP28692  13.368  13.202   1.320  0.0254 -0.0215  0.0580
18589PP      PP28693  15.459  15.312  10.656 -0.1004  0.2522 -0.1308
18590PP      PP28694   7.472   2.222  10.820 -0.0433 -0.0200  0.1915
18591PP      PP28695   8.887   8.468  13.721  0.2014 -0.0338 -0.2564
18592PP      PP28696  13.268  11.829   0.883 -0.0213  0.1241 -0.0436
18593PP      PP28697   4.890   1.480   0.649 -0.2140  0.1943 -0.1261
18594PP      PP28698  13.381   4.846   2.024  0.1829  0.2203  0.1497
18595PP      PP28699   6.802  13.102  13.324  0.4117  0.0572  0.1056
18596PP      PP28700  14.427   6.565   4.018 -0.2948  0.0696  0.1360
18597PP      PP28701  13.866   2.087   0.799  0.1962 -0.1199 -0.2550
18598PP      PP28702   3.565   4.120   0.439 -0.2975  0.2590 -0.2965
18599PP      PP28703   6.839  13.460  10.044  0.1807  0.0166 -0.0489
18600PP      PP28704   2.745  12.923   4.599 -0.0884  0.2291  0.0237
18601PP      PP28705   9.823   0.693   8.928  0.2489  0.0060  0.0008
18602PP      PP28706  15.212   1.147  11.179 -0.1808 -0.1484 -0.3227
18603PP      PP28707   8.669   9.229  10.355  0.0382  0.0061 -0.2651
18604PP      PP28708   9.187   7.541   9.095  0.1595  0.0467 -0.2213
18605PP      PP28709   1.497   9.945   2.454 -0.3035 -0.2745 -0.0876
18606PP      PP28710   5.824   2.873  10.883 -0.2172 -0.0759 -0.2185
18607PP      PP28711   0.961  15.565  13.418 -0.0192  0.0641  0.0706
18608PP      PP28712   9.062  13.283   9.298  0.3798 -0.1043 -0.0076
18609PP      PP28713  13.002   5.528   2.600  0.1516  0.0005 -0.0592
18610PP      PP28714   2.378   4.232  11.730  0.1573  0.1279  0.0592
18611PP      PP28715  12.879  12.833   2.904 -0.1806  0.0574 -0.0393
18612PP      PP28716   7.658   8.205   9.505  0.2354  0.0763 -0.0560
18613PP      PP28717   6.037  11.683  10.521  0.1126  0.4555  0.0360
18614PP      PP28718   9.755   1.405  10.479  0.2149  0.2345 -0.2370
18615PP      PP28719  11.147  10.616   9.436  0.4480  0.0608  0.1615
18616PP      PP28720  14.758  15.696   0.335  0.1705  0.2771 -0.0931
18617PP      PP28721  10.653   8.687  13.741  0.1996  0.0334 -0.0862
18618PP      PP28722  13.132  15.058   3.840  0.0528  0.4582  0.1545
18619PP      PP28723   3.368   2.291  10.383 -0.0367  0.0509 -0.0012
18620PP      PP28724   2.087  10.872   1.098  0.1754 -0.1577  0.0511
18621PP      PP28725   1.180   2.495   2.859  0.2491  0.2632 -0.1596
18622PP      PP28726   6.839  11.006   4.039  0.0643  0.2092 -0.1370
18623PP      PP28727   0.551   7.305  13.557  0.1511 -0.2350 -0.0450
18624PP      PP28728  13.783   8.516  11.466  0.0326  0.1841 -0.2453
18625PP      PP28729   2.804  11.253  11.894  0.0819  0.3706  0.0024
18626PP      PP28730   6.874   4.837   3.606  0.0878  0.1202 -0.1197
18627PP      PP28731  11.651   8.326   0.264 -0.0067  0.1501  0.0780
18628PP      PP28732   1.025   4.128   1.370 -0.0956 -0.1986 -0.2324
18629PP      PP28733  14.553  11.724  10.748 -0.1207 -0.3432 -0.0915
18630PP      PP28734  14.547  13.349   1.654 -0.0892  0.0214 -0.1097
18631PP      PP28735  15.099   0.844  13.336 -0.0964 -0.2785 -0.0841
18632PP      PP28736  11.070   9.031   2.111 -0.1130  0.0441  0.0627
18633PP      PP28737  11.320   1.490   8.220  0.2804  0.1061 -0.0520
18634PP      PP28738  14.280  11.179   8.798 -0.0693  0.3766 -0.1640
18635PP      PP28739   5.353   1.022   2.560 -0.2533  0.0887 -0.0540
18636PP      PP28740   4.627  12.354   9.485 -0.2508  0.0610  0.1081
18637PP      PP28741   4.529   2.085   0.263  0.2905 -0.1029 -0.1366
18638PP      PP28742   8.212   2.300  11.702 -0.0365  0.1606  0.0271
18639PP      PP28743   2.297   0.722  12.491  0.2313  0.0819 -0.2119
18640PP      PP28744   3.284   1.275   9.909  0.2590  0.0726  0.0129
18641PP      PP28745   8.129   0.110  12.614 -0.1186  0.3245  0.0128
18642PP      PP28746   5.012   8.416   2.511  0.0145 -0.4618  0.0845
18643PP      PP28747  13.261   3.200   1.249  0.0623 -0.2318 -0.1793
18644PP      PP28748   3.486  11.318  13.710 -0.0099  0.1150  0.0301
18645PP      PP28749   8.699  13.680   8.925  0.0827 -0.1508 -0.2274
18646PP      PP28750   2.682   4.391   0.771 -0.2768 -0.0242 -0.2218
18647PP      PP28751   0.904  13.284   3.009  0.0751 -0.1846  0.1315
18648PP      PP28752   8.812  15.225  11.069 -0.0979  0.0645 -0.0519
18649PP      PP28753  10.276   9.822   9.659 -0.1195  0.0146 -0.0925
18650PP      PP28754  11.496   8.750   9.418 -0.0270  0.0660 -0.0617
18651PP      PP28755   8.887   6.052  10.828  0.0968 -0.0055 -0.0053
18652PP      PP28756   3.104   3.669  13.520 -0.0245  0.0949 -0.0820
18653PP      PP28757   2.243  12.818  11.671  0.0740 -0.1453  0.1697
18654PP      PP28758  14.919  14.644   4.947 -0.0389  0.0277  0.2038
18655PP      PP28759   7.247   0.515  10.673 -0.0551  0.1891  0.0542
18656PP      PP28760  13.734   7.519   3.633  0.0591  0.0900 -0.2463
18657PP      PP28761   1.326   8.196   8.514  0.2513  0.1592  0.1283
18658PP      PP28762  13.247   2.836   0.354  0.0748  0.1747  0.1311
18659PP      PP28763   0.743   5.932  13.040 -0.0601 -0.1738 -0.0028
18660PP      PP28764  10.323   1.053   2.604  0.0468 -0.0102  0.1537
18661PP      PP28765  10.091  11.775   9.912 -0.3608  0.0721 -0.2667
18662PP      PP28766   6.347   9.832   4.240  0.1306  0.2174  0.2498
18663PP      PP28767   1.354   5.539   1.721  0.0181  0.0047 -0.1246
18664PP      PP28768   5.860   4.113   2.279 -0.3715  0.3356  0.1599
18665PP      PP28769   3.100   0.916   4.087  0.0637 -0.0854 -0.0585
18666PP      PP28770   7.267  11.785   0.617  0.2981  0.1008 -0.1473
18667PP      PP28771   3.245   6.237  12.016 -0.0042  0.0963  0.0513
18668PP      PP28772   7.438  12.519   2.881 -0.1519 -0.1748  0.0404
18669PP      PP28773   1.932  11.338  13.144 -0.1982 -0.1517  0.4802
18670PP      PP28774  12.830   1.526   3.617  0.1067 -0.0958 -0.1134
18671PP      PP28775   4.358  13.506  12.134 -0.4181  0.1579  0.1539
18672PP      PP28776   6.249  12.684  10.080 -0.1778  0.0445  0.2798
18673PP      PP28777   0.783  13.421  12.188  0.2794 -0.0622  0.1711
18674PP      PP28778   0.897   9.720   2.525  0.2478 -0.1090  0.0320
18675PP      PP28779   4.208  14.436  11.645 -0.1853  0.2215 -0.3400
18676PP      PP28780   5.838   7.885  13.015 -0.2399 -0.0774 -0.1372
18677PP      PP28781  11.389   2.457   3.107 -0.0471 -0.1503  0.0015
18678PP      PP28782  13.025  14.583  12.980  0.2345  0.1130  0.1611
18679PP      PP28783  14.603   7.293  10.912 -0.5300 -0.0736 -0.0086
18680PP      PP28784  11.620   0.140   1.241  0.1114  0.2109  0.0843
18681PP      PP28785  14.694   2.764   9.165 -0.3906 -0.0469  0.0074
18682PP      PP28786   8.940   9.945   0.475 -0.2418 -0.0135  0.2344
18683PP      PP28787   1.621  15.007  11.703 -0.0760 -0.0751 -0.1617
18684PP      PP28788   5.700  10.845   1.807 -0.3281  0.1276  0.0022
18685PP      PP28789  10.743   6.170   0.625  0.1419  0.2667  0.3140
18686PP      PP28790   1.145   5.869   4.293 -0.1138  0.1592 -0.2438
18687PP      PP28791  15.006   0.424   9.111 -0.1387 -0.0386 -0.0409
18688PP      PP28792  13.765   0.745  11.905  0.0518 -0.0081  0.2344
18689PP      PP28793   4.591   4.826   9.705  0.3021 -0.0636  0.0196
18690PP      PP28794   2.320  15.526  13.744  0.0044  0.1295  0.1278
18691PP      PP28795  11.048   3.405   1.455  0.0429  0.0002 -0.1838
18692PP      PP28796   9.154  11.299   4.046 -0.0619  0.2700 -0.3048
18693PP      PP28797   0.198  10.207   1.087 -0.1978  0.0248  0.1043
18694PP      PP28798   9.994   1.685   0.805 -0.0113 -0.4327 -0.1582
18695PP      PP28799  14.969  12.371   4.388 -0.0393  0.1934 -0.0768
18696PP      PP28800   5.563   6.680  10.259  0.0387  0.1535 -0.0275
18697PP      PP28801   6.093   7.873  11.937 -0.0365 -0.4952  0.3159
18698PP      PP28802   8.996  14.889   9.474 -0.0236  0.1651 -0.0690
18699PP      PP28803   3.082   1.961  12.183  0.0647 -0.0392  0.0123
18700PP      PP28804  13.519   1.190   1.235 -0.0449  0.0889 -0.0130
18701PP      PP28805  13.916   9.597   0.641  0.0160  0.0534 -0.1181
18702PP      PP28806  11.941   1.031   9.870 -0.2556 -0.0542 -0.2427
18703PP      PP28807   4.493  14.582   0.997 -0.2565 -0.4052  0.0629
18704PP      PP28808  13.969  12.673  12.330 -0.0405 -0.1025  0.0228
18705PP      PP28809  12.585  15.104   0.215 -0.0785 -0.0582  0.1624
18706PP      PP28810   1.216   5.170  12.002  0.0724  0.1730  0.0616
18707PP      PP28811   0.503   3.590  11.330 -0.3199  0.0508  0.1862
18708PP      PP28812   5.501  15.391  12.004  0.0720 -0.0063 -0.2344
18709PP      PP28813   5.663   5.967   9.794  0.0379  0.1994 -0.3995
18710PP      PP28814  14.106   1.800   1.198 -0.2380 -0.0315  0.1708
18711PP      PP28815   9.087  13.775  12.444 -0.0067 -0.2536  0.0626
18712PP      PP28816   1.722  14.440   0.950 -0.2609  0.2667  0.1346
18713PP      PP28817   4.685   4.975   3.225  0.0305  0.0695 -0.0778
18714PP      PP28818   1.473   9.690   0.836  0.1348 -0.1840 -0.3338
18715PP      PP28819   4.840  14.694  12.937  0.0439 -0.0963  0.0063
18716PP      PP28820   7.079   3.463   0.066 -0.1096 -0.1964 -0.2258
18717PP      PP28821   0.418   4.930  10.915 -0.2820 -0.1379 -0.1916
18718PP      PP28822  15.291   6.554  10.619  0.0834  0.0163  0.0697
18719PP      PP28823   1.997   9.067   2.570 -0.1095  0.0338  0.0363
18720PP      PP28824  11.973  11.463   3.486 -0.1705 -0.0194 -0.0518
18721PP      PP28825   0.617   6.620  10.560  0.2833 -0.2241 -0.0759
18722PP      PP28826   5.919  13.352  11.497  0.1765  0.1431 -0.0178
18723PP      PP28827   6.130   0.380   9.398 -0.0179  0.0140  0.2651
18724PP      PP28828   6.172   3.451   1.797  0.1560 -0.1607 -0.3209
18725PP      PP28829   4.899  12.064  13.339  0.2347 -0.1017 -0.0617
18726PP      PP28830  10.269   0.456  10.109  0.2289 -0.1365  0.0202
18727PP      PP28831   4.989   9.775  13.755  0.1741 -0.0124  0.1865
18728PP      PP28832   6.037  13.550   0.335  0.3109  0.0743 -0.0089
18729PP      PP28833  12.937   6.491   3.726  0.0716  0.1279 -0.2475
18730PP      PP28834  13.340   6.378  11.202 -0.0329 -0.1970 -0.0621
18731PP      PP28835   5.481  10.520   0.839  0.0762  0.2248  0.1040
18732PP      PP28836  13.659   2.641  12.652  0.2098 -0.3867 -0.0403
18733PP      PP28837   7.599   3.267   0.250  0.2312  0.1036 -0.0567
18734PP      PP28838   3.881   5.403   8.899 -0.0284  0.1658  0.1775
18735PP      PP28839   4.935   4.823  13.507  0.4180 -0.1287  0.0745
18736PP      PP28840  13.290   2.344   2.358  0.1094  0.1017  0.3076
18737PP      PP28841   9.606  15.488   2.205  0.1511  0.1886  0.0734
18738PP      PP28842   7.028  11.465  13.626 -0.0419 -0.3287  0.0264
18739PP      PP28843  14.583   4.824   9.470  0.0265  0.2893  0.1114
18740PP      PP28844   9.864   5.055   8.458 -0.0618 -0.2200 -0.0193
18741PP      PP28845   0.654  11.925  10.283 -0.0425 -0.0740 -0.5250
18742PP      PP28846   7.692  12.787  10.033 -0.0814 -0.1468 -0.0856
18743PP      PP28847  10.688   9.462  13.324 -0.1245  0.0839 -0.0019
18744PP      PP28848   0.453  13.866   9.530  0.0790  0.1556  0.2248
18745PP      PP28849  13.870   0.403  12.644  0.0213 -0.1415  0.0987
18746PP      PP28850   2.691   8.827   3.730  0.2125 -0.0171  0.0208
18747PP      PP28851  11.147  10.709   1.966 -0.1153  0.0069  0.2573
18748PP      PP28852   7.453   1.939   1.655  0.0414 -0.0385  0.0363
18749PP      PP28853   6.663   6.105   0.924  0.0409  0.2492 -0.0074
18750PP      PP28854   9.425  11.612   3.462  0.1760 -0.0148 -0.1734
18751PP      PP28855   8.667   8.489  13.264  0.1155  0.2883 -0.3170
18752PP      PP28856  10.090  10.238   1.400  0.1124  0.0974 -0.0685
18753PP      PP28857  13.951   3.767  10.972 -0.3436 -0.0059 -0.1060
18754PP      PP28858  14.450  14.174  12.669  0.2383  0.2952  0.0910
18755PP      PP28859   8.581   9.674  13.414  0.1699 -0.2486  0.5858
18756PP      PP28860   0.952   5.198   1.410 -0.2016  0.0148  0.6294
18757PP      PP28861   3.338   8.303   0.356  0.1157 -0.4050  0.2135
18758PP      PP28862   5.344  11.606   0.635  0.1832 -0.0028  0.0537
18759PP      PP28863   6.281   3.482   0.083 -0.0398  0.1356 -0.1762
18760PP      PP28864  12.438   7.905   3.909 -0.3953 -0.1126  0.0564
18761PP      PP28865   6.614  15.023   4.723 -0.0430 -0.0139  0.3865
18762PP      PP28866   3.086   8.116   2.780  0.2060  0.0785 -0.0871
18763PP      PP28867   5.541   7.883  10.846  0.3316 -0.1446 -0.1925
18764PP      PP28868   7.609   2.095   9.384  0.0647 -0.0698  0.1448
18765PP      PP28869   5.928   6.153   4.034  0.0191 -0.3876  0.1951
18766PP      PP28870  10.535  13.590   8.596 -0.0041 -0.3036 -0.0639
18767PP      PP28871  11.190  10.984   3.744  0.3760  0.0597  0.1556
18768PP      PP28872  10.769   4.471   0.116 -0.0079  0.2213  0.2380
18769PP      PP28873   9.534  12.079  10.547 -0.1027 -0.2558 -0.0162
18770PP      PP28874   2.102  15.061  13.718 -0.3036 -0.1367  0.2020
18771PP      PP28875   5.310  13.882   4.299 -0.1491 -0.0058 -0.0254
18772PP      PP28876   1.328   3.562   0.480  0.1693  0.0919 -0.2657
18773PP      PP28877   8.196   4.958   1.276 -0.1116  0.3221 -0.1301
18774PP      PP28878   0.775   5.805   2.737 -0.0682 -0.3384  0.2360
18775PP      PP28879   5.726  10.370  10.936 -0.3862 -0.3540  0.0699
18776PP      PP28880   9.772   5.129  12.698 -0.0751  0.2364  0.2284
18777PP      PP28881  10.843  10.731   1.226  0.0636  0.2961  0.0966
18778PP      PP28882   0.716   7.514   0.791  0.0460 -0.3675 -0.0509
18779PP      PP28883   4.723  11.819   3.017  0.0654 -0.0063 -0.0037
18780PP      PP28884   9.858  10.694  10.241  0.2289  0.4191 -0.3717
18781PP      PP28885   2.493   6.548   0.170 -0.0461  0.0972  0.3397
18782PP      PP28886   5.474  15.445   1.527 -0.1364 -0.0465  0.0234
18783PP      PP28887  14.980   4.961  11.293 -0.1465  0.2204 -0.0783
18784PP      PP28888  14.975   2.360   9.000 -0.1105 -0.0311 -0.2812
18785PP      PP28889   1.421  11.516  10.844  0.2404 -0.0379  0.2577
18786PP      PP28890   2.463  15.711   2.299 -0.2493 -0.2459  0.0576
18787PP      PP28891   5.729  11.799  10.165 -0.0245  0.2368 -0.0850
18788PP      PP28892  10.786  15.353   3.990 -0.2113 -0.1482  0.0622
18789PP      PP28893   6.122  12.866  12.310  0.0315 -0.0542 -0.1544
18790PP      PP28894   4.280   1.788  13.727  0.1211  0.0429  0.2568
18791PP      PP28895  11.998  12.301   1.179 -0.0623  0.1391 -0.0719
18792PP      PP28896   3.935  14.561   5.333 -0.0201 -0.0719 -0.0380
18793PP      PP28897   4.164  10.717   3.438  0.0306  0.0927 -0.0394
18794PP      PP28898   8.331  12.310  12.566 -0.1923 -0.1830  0.1606
18795PP      PP28899   2.931   4.261   3.338  0.0403 -0.1931  0.3574
18796PP      PP28900  10.056   6.382   4.290  0.0393 -0.1763  0.1291
18797PP      PP28901   1.073   3.795  11.944 -0.0577 -0.0853 -0.0342
18798PP      PP28902   3.618   0.616   3.385  0.0342  0.3689 -0.4048
18799PP      PP28903   8.410   2.009   8.944 -0.2723  0.1833 -0.2869
18800PP      PP28904  13.772  12.783  13.455 -0.0831  0.0091  0.1603
18801PP      PP28905   5.805  11.009  13.349  0.2469  0.2406  0.0160
18802PP      PP28906  10.326   6.380   1.083  0.0073  0.0436  0.0270
18803PP      PP28907   7.809   6.588  11.832 -0.1693 -0.1526  0.0338
18804PP      PP28908   6.748  12.671   2.472  0.0969  0.1919 -0.0334
18805PP      PP28909  10.463   3.074   1.793  0.0357  0.1137  0.0937
18806PP      PP28910   4.496   7.061  11.731 -0.2221 -0.2485  0.2293
18807PP      PP28911   9.243   4.829  11.729  0.0823 -0.0391  0.1684
18808PP      PP28912   8.754  12.871   9.472  0.0876  0.1361 -0.1568
18809PP      PP28913  12.923   7.975   4.120 -0.0771 -0.1172  0.2893
18810PP      PP28914  13.772  10.796   4.012 -0.1023 -0.2523 -0.1249
18811PP      PP28915   9.058  10.257   0.923 -0.0320  0.1183  0.3479
18812PP      PP28916  13.973   1.347   1.128  0.1140 -0.1838  0.1885
18813PP      PP28917   4.384  10.657  11.803  0.2683 -0.0757 -0.1454
18814PP      PP28918  15.686   4.031  12.405 -0.1374 -0.0767 -0.0949
18815PP      PP28919  12.443   8.481  11.303  0.2447 -0.0452  0.0498
18816PP      PP28920  15.528  13.640   3.729  0.2454  0.1303  0.0972
18817PP      PP28921   8.032   7.190   2.993  0.0737  0.0877  0.1522
18818PP      PP28922  14.847   9.178  11.237  0.2736 -0.1390  0.2962
18819PP      PP28923  12.463   5.129   3.549  0.0869  0.0141 -0.1101
18820PP      PP28924   7.720   6.022   2.347 -0.1565 -0.2689  0.2595
18821PP      PP28925  14.287   7.095   3.239 -0.0840 -0.0987  0.0904
18822PP      PP28926   3.129  11.695  10.618  0.0863 -0.2132  0.2993
18823PP      PP28927   2.698   3.429   0.922  0.0265 -0.3585 -0.0041
18824PP      PP28928  13.770  13.187   2.678  0.2332 -0.2663  0.0244
18825PP      PP28929   4.713   1.738  11.376  0.2394 -0.1666  0.1239
18826PP      PP28930   4.563   0.379   1.135 -0.2739  0.0369  0.0406
18827PP      PP28931   8.780  10.090  13.670 -0.3477 -0.3386  0.1538
18828PP      PP28932  10.288  13.924  12.390  0.1061  0.0927  0.0384
18829PP      PP28933   2.507  12.040  11.705  0.0741  0.0432 -0.0628
18830PP      PP28934  12.464   9.132  12.051  0.0388  0.1683 -0.0408
18831PP      PP28935   1.668   6.695  13.729 -0.0297 -0.0076 -0.1621
18832PP      PP28936   7.748   5.293  11.669 -0.3819  0.0478  0.0549
18833PP      PP28937   5.789  10.719   4.091 -0.1849 -0.1728  0.1434
18834PP      PP28938  12.552  14.594   1.848 -0.2517 -0.1479  0.0189
18835PP      PP28939   1.661   7.275  10.435 -0.3753  0.0192 -0.1654
18836PP      PP28940   9.783  15.322  11.667 -0.1053 -0.2383 -0.2228
18837PP      PP28941  14.935  11.521   2.362  0.0224  0.0659 -0.0150
18838PP      PP28942  13.706   4.207   2.575 -0.0477 -0.0702  0.0005
18839PP      PP28943   5.473   2.966   1.514  0.0157  0.1329 -0.0969
18840PP      PP28944   4.447   6.469  13.628  0.0605  0.0942 -0.0368
18841PP      PP28945   4.422   7.372  13.396 -0.1504  0.1300 -0.3429
18842PP      PP28946  13.910   2.098  10.345 -0.2540 -0.2979  0.0028
18843PP      PP28947  14.111   7.711  12.908  0.2085 -0.0761  0.0979
18844PP      PP28948  10.340   5.425   8.733  0.0774  0.4168  0.3108
18845PP      PP28949   0.777   4.621   2.734  0.1476  0.1363 -0.0151
18846PP      PP28950  12.830   2.949   0.990  0.1614 -0.0614  0.1518
18847PP      PP28951   9.728   9.110  12.734 -0.3051 -0.0358 -0.4111
18848PP      PP28952   0.998  14.489  13.753 -0.0505 -0.0711  0.0339
18849PP      PP28953  12.506   7.264   0.711 -0.0722 -0.0530 -0.2371
18850PP      PP28954  10.929   5.297  13.433 -0.0783  0.0300  0.0990
18851PP      PP28955   8.163   9.821   0.002 -0.3216 -0.3326  0.1432
18852PP      PP28956   4.911   5.184   2.759 -0.3538 -0.0878 -0.3422
18853PP      PP28957   6.588   0.376  10.342  0.3038 -0.1531 -0.1043
18854PP      PP28958   4.018  13.567  11.058 -0.2961 -0.2144 -0.0424
18855PP      PP28959   6.455  10.130   2.227 -0.0281 -0.0520  0.3923
18856PP      PP28960   0.017  11.472  13.609  0.0241 -0.4751 -0.0207
18857PP      PP28961   8.127   5.342   1.921 -0.1328 -0.0585 -0.0105
18858PP      PP28962  15.496   9.444   0.180  0.2392  0.0193  0.0598
18859PP      PP28963  13.250   8.464  10.420  0.1299 -0.0521 -0.1540
18860PP      PP28964   9.523   3.819   1.149 -0.0708  0.2527  0.2804
18861PP      PP28965   5.296   7.478   9.478  0.3078  0.1150  0.1821
18862PP      PP28966  12.498  12.265  10.815 -0.2815 -0.0270  0.2193
18863PP      PP28967   4.023   0.301   2.708 -0.0746  0.1638  0.0952
18864PP      PP28968  14.288  13.226   2.295 -0.1074  0.1105 -0.0687
18865PP      PP28969  10.250  12.752  12.409  0.1403  0.1869 -0.2552
18866PP      PP28970   1.722  10.326   4.130  0.1980 -0.1883  0.0402
18867PP      PP28971   9.960   8.875  10.076  0.0118  0.3539  0.0918
18868PP      PP28972   9.888   9.983   0.569 -0.0344 -0.3886  0.0128
18869PP      PP28973   3.622   4.825   3.216  0.0364 -0.0474 -0.2238
18870PP      PP28974   0.612  11.151   1.503  0.4191 -0.1901  0.2478
18871PP      PP28975  12.543   2.702   8.524  0.3660 -0.0477 -0.0399
18872PP      PP28976   3.574   1.099   9.447 -0.0233  0.1702 -0.3106
18873PP      PP28977   8.340   8.503   0.028  0.1889 -0.2932 -0.0503
18874PP      PP28978  14.357  10.571   2.237 -0.2969 -0.1847  0.4091
18875PP      PP28979   1.291   5.093  10.389  0.0327  0.0980  0.3190
18876PP      PP28980   9.977   9.234   3.108  0.3528 -0.2013  0.0043
18877PP      PP28981   0.849   6.698   4.523  0.0188  0.0533  0.0831
18878PP      PP28982  14.697  15.183   5.214 -0.0200  0.0742  0.0320
18879PP      PP28983  11.006   1.845   8.334 -0.1119  0.1892 -0.0551
18880PP      PP28984  13.227   9.042  13.150 -0.0451 -0.1281  0.2850
18881PP      PP28985  15.189  15.131   9.426 -0.0389 -0.0845  0.2563
18882PP      PP28986  11.514   5.772   3.578 -0.1376  0.0343  0.0244
18883PP      PP28987  14.384   0.395  13.524  0.0913 -0.1096 -0.1628
18884PP      PP28988  12.595  12.852  10.184  0.0184  0.1889 -0.4071
18885PP      PP28989  10.118  12.789   3.540  0.0611  0.0918 -0.0557
18886PP      PP28990   0.293  14.689   4.959 -0.0573 -0.1460  0.1318
18887PP      PP28991   7.672   1.975   3.058 -0.2184 -0.1354  0.3135
18888PP      PP28992   5.051  10.144   1.602 -0.0197 -0.0267  0.0145
18889PP      PP28993  13.437  13.027  11.019  0.0910 -0.0484  0.2310
18890PP      PP28994   0.732   1.219   2.835  0.2055 -0.2139  0.0970
18891PP      PP28995   4.091   7.566   2.094  0.2858  0.4319  0.4034
18892PP      PP28996  15.110  10.037   4.037  0.3911  0.1382 -0.0972
18893PP      PP28997   9.499   2.214  13.613  0.1125 -0.0919 -0.0231
18894PP      PP28998   6.141   2.863   1.814  0.1791  0.1282 -0.1229
18895PP      PP28999   6.108  11.756   1.921  0.0650 -0.1898  0.3630
18896PP      PP29000   8.377  13.432   2.623  0.0164  0.1574  0.2130
18897PP      PP29001   7.844   7.282   4.523 -0.0666 -0.0007  0.0713
18898PP      PP29002   0.058   4.413  10.310  0.1546  0.4126 -0.2168
18899PP      PP29003   2.470  14.147   1.088  0.1890 -0.0242  0.0848
18900PP      PP29004   7.216  14.779  11.513 -0.0038  0.2350  0.3714
18901PP      PP29005  14.455   7.554   0.485  0.2246  0.0019  0.1684
18902PP      PP29006   9.343   3.149  13.396  0.0046  0.0762 -0.1096
18903PP      PP29007  10.860   7.121   2.607 -0.1204 -0.0549 -0.0984
18904PP      PP29008   3.464   1.078  13.199  0.0366 -0.2970  0.1547
18905PP      PP29009   1.966   4.257  10.265 -0.1088  0.1176  0.1004
18906PP      PP29010  14.852  15.643  11.725 -0.0076  0.2766 -0.1004
18907PP      PP29011   9.289   4.329   2.995 -0.3766  0.2620  0.0272
18908PP      PP29012  15.357  11.612   0.874  0.3997  0.1183  0.1558
18909PP      PP29013   6.123   4.756  12.417 -0.1116  0.0082  0.3951
18910PP      PP29014   4.421  10.142  11.966  0.3076  0.1022 -0.0974
18911PP      PP29015  14.461   9.465  11.473  0.5093 -0.2886 -0.0341
18912PP      PP29016  11.171  12.474   1.836  0.1431  0.0146 -0.4797
18913PP      PP29017   3.401  14.362   4.066  0.4551 -0.0953  0.0156
18914PP      PP29018   1.537   3.476   4.301 -0.0094 -0.0748 -0.0786
18915PP      PP29019   1.469   9.245  12.247 -0.0457  0.3141 -0.2307
18916PP      PP29020   8.918  15.595   1.746 -0.2567 -0.2495 -0.2375
18917PP      PP29021   4.877  13.319  12.194 -0.2230 -0.1712 -0.2476
18918PP      PP29022   5.992   6.055  13.022  0.0202  0.0503  0.0297
18919PP      PP29023   0.410   1.583   1.817  0.2140  0.1676  0.3548
18920PP      PP29024   3.676  12.793  11.030 -0.0363  0.0648  0.1670
18921PP      PP29025   1.792  10.949  12.860 -0.2862  0.3065  0.0372
18922PP      PP29026   4.764   5.477   1.464  0.0761  0.0439 -0.0687
18923PP      PP29027  13.246  14.888  10.808 -0.1649  0.3807  0.0211
18924PP      PP29028   9.174   6.981   0.154  0.0876 -0.0419 -0.0689
18925PP      PP29029   6.555   1.599   1.169  0.0749  0.0220 -0.1455
18926PP      PP29030  13.552   8.437   0.822 -0.0389 -0.1997 -0.0629
18927PP      PP29031   5.506  11.949  11.454 -0.0354 -0.0309  0.0126
18928PP      PP29032   9.123   4.092   1.933  0.3679 -0.0805  0.1151
18929PP      PP29033   8.795   7.957   0.253 -0.2856  0.3035  0.1689
18930PP      PP29034   8.219  12.655   1.360  0.0674  0.0275  0.3448
18931PP      PP29035   8.969  12.479   1.529 -0.2099 -0.0802 -0.1441
18932PP      PP29036  10.589   9.621  12.851  0.0165 -0.4049 -0.4402
18933PP      PP29037   5.249  11.161   5.496  0.1209  0.1040 -0.0260
18934PP      PP29038   2.512   5.955  12.613 -0.0284 -0.0505  0.0516
18935PP      PP29039   2.098  12.422   9.478 -0.1866  0.1326 -0.1727
18936PP      PP29040  13.128   2.689   9.526  0.0169 -0.2470  0.0449
18937PP      PP29041   6.151   9.024   3.411  0.1421  0.1756  0.1339
18938PP      PP29042   3.948  11.077  10.895 -0.2775  0.2255 -0.1237
18939PP      PP29043   2.433  12.839   4.943 -0.1895  0.2817  0.0094
18940PP      PP29044  10.942  10.740   4.113 -0.1298  0.0177 -0.0557
18941PP      PP29045   1.792   8.081   2.272  0.0498 -0.1062  0.2338
18942PP      PP29046   5.910  15.164   9.670  0.0317 -0.0513  0.0356
18943PP      PP29047  14.506  14.542   4.244 -0.1663 -0.0708  0.1009
18944PP      PP29048   9.381   5.471  12.236 -0.0811 -0.1083  0.3123
18945PP      PP29049   2.374   1.085   2.052  0.0680 -0.5979 -0.1511
18946PP      PP29050  11.188  14.501   1.328  0.0323 -0.0183  0.1213
18947PP      PP29051   5.675  12.245   0.752  0.2150 -0.5429  0.1383
18948PP      PP29052  10.449  12.448   3.314  0.5276  0.3442 -0.2727
18949PP      PP29053  15.625   9.513   9.631 -0.1510  0.1439 -0.0711
18950PP      PP29054   6.727   4.024  13.427  0.0915 -0.3648  0.1442
18951PP      PP29055  11.123   9.999   1.146  0.0357  0.0827 -0.1060
18952PP      PP29056  11.516  12.395  10.292 -0.2079  0.1414 -0.2199
18953PP      PP29057   1.310   6.265   8.510  0.1093  0.3262  0.1908
18954PP      PP29058   6.274   2.040  10.423 -0.1615 -0.0155 -0.0605
18955PP      PP29059   3.326   8.132  10.528 -0.0513  0.1063 -0.4159
18956PP      PP29060   1.317   6.962   0.215  0.3015 -0.2474  0.1742
18957PP      PP29061   9.506  14.619   9.606  0.3501 -0.1901 -0.0678
18958PP      PP29062   6.947   2.868  13.568  0.1902 -0.0865  0.0776
18959PP      PP29063   2.808  15.686   3.593 -0.0773 -0.0490 -0.0608
18960PP      PP29064   4.871  13.063   1.565  0.1754 -0.1042 -0.0958
18961PP      PP29065  13.542   1.210  11.975  0.0714 -0.0084 -0.0373
18962PP      PP29066   3.697   4.233   2.195  0.2035 -0.4691  0.2522
18963PP      PP29067   1.924   0.841   2.665  0.1283  0.1457 -0.2466
18964PP      PP29068  10.031   7.855   1.361  0.2032 -0.0320  0.1607
18965PP      PP29069   6.201   3.881  13.457 -0.1417  0.2096 -0.0194
18966PP      PP29070  10.583   2.230   1.981 -0.3296 -0.1742  0.0037
18967PP      PP29071   7.591  14.964   3.753 -0.0466  0.2495 -0.1981
18968PP      PP29072   7.304   7.384  11.041  0.1371  0.0800  0.2844
18969PP      PP29073  14.418  14.684  12.953 -0.0740  0.1516 -0.1606
18970PP      PP29074  14.918   9.544   9.753  0.2964  0.1169 -0.1430
18971PP      PP29075  12.867   4.062  13.697 -0.0341 -0.0238  0.0033
18972PP      PP29076  15.692  15.456  10.273 -0.0411 -0.2160  0.3029
18973PP      PP29077   0.827   6.224   0.116  0.1399 -0.2527  0.0841
18974PP      PP29078   8.087   2.989   0.305  0.0700 -0.1473  0.0345
18975PP      PP29079   5.381  10.551   4.482 -0.0561 -0.0988 -0.3708
18976PP      PP29080  15.638   7.583   0.377  0.1198 -0.1974 -0.1081
18977PP      PP29081   2.904   1.566  12.656 -0.3481 -0.0718 -0.2515
18978PP      PP29082  12.216   1.519   9.684  0.0577  0.2934 -0.1633
18979PP      PP29083  11.037  10.763   3.318 -0.0945  0.1572  0.0607
18980PP      PP29084   6.174   9.267  11.912  0.3072 -0.0680 -0.1827
18981PP      PP29085   8.908   7.833   1.763  0.0950  0.0308  0.0053
18982PP      PP29086   6.814   6.524   2.756  0.1227  0.0123 -0.2010
18983PP      PP29087  10.932   4.245  10.782  0.0363 -0.2249 -0.0619
18984PP      PP29088  15.045   9.116  12.246 -0.1814  0.2588  0.0475
18985PP      PP29089  12.439   8.726  11.749  0.0016  0.1516  0.0792
18986PP      PP29090  12.871  12.128   0.087 -0.0444  0.1568  0.1501
18987PP      PP29091   4.474  10.884  13.131 -0.3906  0.0238 -0.0424
18988PP      PP29092  11.884  12.752   1.430 -0.2528  0.0567 -0.0812
18989PP      PP29093  11.280   9.422  11.717  0.4002  0.1012  0.0252
18990PP      PP29094   5.517   1.128  12.108  0.2033  0.2035  0.0049
18991PP      PP29095   8.327   0.332  13.018  0.0693  0.0138  0.1732
18992PP      PP29096   2.615   7.335   8.906 -0.0936  0.2870 -0.1735
18993PP      PP29097   3.378   4.758   9.539 -0.2211  0.0781 -0.1412
18994PP      PP29098   9.106   9.851   4.440  0.1700 -0.1054  0.0353
18995PP      PP29099   3.536   1.582   2.920 -0.1929 -0.2541 -0.1138
18996PP      PP29100   5.038   9.190  11.572  0.0096 -0.3142 -0.0511
18997PP      PP29101   3.824   2.703   1.322 -0.2494  0.1111  0.0163
18998PP      PP29102   5.970   6.549   3.734  0.0771  0.3359 -0.0853
18999PP      PP29103   2.659   5.650   9.345  0.0370  0.3248 -0.3241
19000PP      PP29104  10.850   4.336   2.403  0.2463  0.0504 -0.1176
19001PP      PP29105   0.747  11.677   1.517  0.0677 -0.1293 -0.4646
19002PP      PP29106  10.571   5.716  10.610  0.1669 -0.6627  0.2499
19003PP      PP29107   8.433  10.717   3.031 -0.1417  0.3355 -0.2372
19004PP      PP29108   3.947   4.150  13.203  0.0352 -0.1350 -0.3748
19005PP      PP29109  15.303   7.001   1.902 -0.2147  0.0051 -0.0923
19006PP      PP29110   5.226  14.883  12.164 -0.3626  0.2071  0.1492
19007PP      PP29111   0.845  14.630  10.858  0.2462  0.0539 -0.0350
19008PP      PP29112   5.341  10.976  11.760  0.1582 -0.0421  0.1378
19009PP      PP29113   8.456   6.323  11.763 -0.1017  0.0786  0.2969
19010PP      PP29114   1.475  14.721   4.989  0.0404 -0.2888  0.2520
19011PP      PP29115   2.690  11.546   1.680 -0.2513  0.0457  0.0071
19012PP      PP29116  13.654   5.354   2.569  0.0055  0.5597  0.3855
19013PP      PP29117   8.707   7.325  12.281  0.1007 -0.0952  0.1325
19014PP      PP29118  14.823   4.533   2.438  0.0976  0.2536  0.2457
19015PP      PP29119   1.972   7.620   8.307  0.1787  0.1070  0.0763
19016PP      PP29120   7.807   1.535   1.713  0.0648 -0.3851  0.0636
19017PP      PP29121   2.542  11.764   3.087  0.1218  0.2210 -0.2716
19018PP      PP29122   8.385  15.031   3.302 -0.2344  0.3411  0.0861
19019PP      PP29123   6.605  10.452   1.865  0.1166  0.1894 -0.1064
19020PP      PP29124   5.892  11.982  12.244  0.2847 -0.3537  0.2043
19021PP      PP29125   7.338  14.750   3.351  0.3143 -0.3001 -0.2371
19022PP      PP29126  10.305   8.878   3.240  0.0438  0.0929 -0.5130
19023PP      PP29127   7.854  14.716   4.234  0.0573 -0.0616  0.5044
19024PP      PP29128   1.263   5.799   2.542 -0.0075 -0.1964 -0.0862
19025PP      PP29129  14.405  12.749   2.298 -0.1398  0.1955 -0.0825
19026PP      PP29130  14.778  12.235  12.531  0.0560  0.1070  0.0844
19027PP      PP29131   8.948   4.677   9.357  0.1939  0.1210  0.1334
19028PP      PP29132   5.234  13.121  10.970  0.0195  0.1023  0.2774
19029PP      PP29133  12.464  10.956  13.134 -0.2519  0.1514 -0.1476
19030PP      PP29134  11.226  13.668  10.692 -0.0049 -0.0033  0.1907
19031PP      PP29135  14.363   9.676  12.982  0.0433 -0.0238  0.0100
19032PP      PP29136   9.924  15.017   1.428  0.5444  0.0606  0.0081
19033PP      PP29137   6.047  15.528   0.429 -0.1440  0.0268  0.2687
19034PP      PP29138  10.157   5.435  12.929  0.0331  0.1010  0.1411
19035PP      PP29139   3.246  15.621   3.336 -0.1602  0.0498  0.1518
19036PP      PP29140   9.615   4.751   0.962  0.1478  0.2306 -0.5246
19037PP      PP29141   8.775   9.421   9.328 -0.0140  0.0691  0.1786
19038PP      PP29142   4.019  12.330   3.554 -0.0730  0.0331  0.3129
19039PP      PP29143  14.601   7.131  10.448 -0.0834  0.1967 -0.1725
19040PP      PP29144   7.568   7.300  13.409 -0.2271 -0.0578 -0.1035
19041PP      PP29145   8.536  14.500  13.498  0.0261 -0.2299  0.0407
19042PP      PP29146   3.976  13.559   3.242 -0.0480  0.0246  0.1772
19043PP      PP29147   5.622  11.617   2.119  0.1871 -0.4465  0.1207
19044PP      PP29148   5.786  14.040  10.498  0.0123  0.2462 -0.0292
19045PP      PP29149   7.149   3.123   1.160  0.2310 -0.1889 -0.1772
19046PP      PP29150  14.490   4.704  10.161  0.1267  0.2379 -0.1071
19047PP      PP29151   6.250   5.211   2.920  0.1855  0.0133  0.0650
19048PP      PP29152   2.893  11.831  12.795 -0.2287  0.0207 -0.1501
19049PP      PP29153   3.484   6.042   2.714 -0.0581  0.0831  0.0131
19050PP      PP29154   8.434   2.461   9.730  0.1572  0.3631 -0.0397
19051PP      PP29155   1.535   4.793  13.070  0.1471  0.0010  0.2577
19052PP      PP29156   2.365   6.471   2.078  0.1043  0.0962 -0.0663
19053PP      PP29157  14.207  13.961  13.336  0.1198  0.1105 -0.0318
19054PP      PP29158  12.306   0.286  10.793 -0.0578  0.0179 -0.0927
19055PP      PP29159   5.804   2.420   1.419  0.0047 -0.1534 -0.2122
19056PP      PP29160   8.316   2.433   3.193 -0.1366 -0.0027  0.1865
19057PP      PP29161  13.264   4.161  11.947 -0.3128 -0.1924  0.0706
19058PP      PP29162   0.448   3.340  10.392  0.1245  0.1787  0.0592
19059PP      PP29163  11.175   1.842  13.152  0.1380 -0.0223 -0.1242
19060PP      PP29164  13.961   1.594   0.687  0.2151 -0.0971  0.0225
19061PP      PP29165   6.036   9.828   2.314 -0.3441 -0.1501  0.0972
19062PP      PP29166   5.664  12.564  12.170 -0.1555  0.0973 -0.0245
19063PP      PP29167  15.616   9.338   1.129  0.1068  0.0033  0.2439
19064PP      PP29168   5.270   6.185   4.167 -0.2441 -0.0807 -0.0941
19065PP      PP29169  13.683   1.419   0.284  0.3991 -0.3355  0.2160
19066PP      PP29170   6.938   4.554  13.529 -0.1836 -0.0941  0.1899
19067PP      PP29171   0.870  11.650   9.841 -0.0839  0.0149  0.2965
19068PP      PP29172   5.274   8.142   2.114 -0.0288 -0.2281 -0.0617
19069PP      PP29173   8.624   5.054  13.560 -0.1988  0.0417  0.0389
19070PP      PP29174   6.456   3.983  11.649 -0.0865 -0.0060  0.3682
19071PP      PP29175   4.895  11.157   1.253 -0.3315 -0.1194 -0.3081
19072PP      PP29176   6.991  12.693  12.919  0.2525  0.2549 -0.3049
19073PP      PP29177   8.846  10.481   4.370 -0.1824  0.0730  0.2552
19074PP      PP29178  12.441   6.153   9.246 -0.2424  0.0938  0.2206
19075PP      PP29179   9.223   7.873   8.662 -0.3958 -0.1124  0.3145
19076PP      PP29180  10.191  13.907   0.932 -0.0541 -0.2268 -0.0959
19077PP      PP29181   4.579  12.972  13.308 -0.3778 -0.0877 -0.0100
19078PP      PP29182  10.258   6.385  10.228 -0.0972 -0.1881  0.0680
19079PP      PP29183   6.082  10.953   2.770 -0.5226  0.0046 -0.0287
19080PP      PP29184  15.424  10.749  13.440  0.0342  0.2087  0.1466
19081PP      PP29185  14.499  13.197  11.661 -0.4420  0.0509  0.0601
19082PP      PP29186   7.748  11.115   3.159  0.0880 -0.2514  0.1405
19083PP      PP29187  14.789   4.627   1.890 -0.3467 -0.1630 -0.1537
19084PP      PP29188  13.983  10.504   0.723 -0.0270 -0.0622  0.1939
19085PP      PP29189  12.189  15.017   2.468  0.2589 -0.1980  0.2117
19086PP      PP29190   2.115   9.078  10.548  0.1833 -0.1453  0.1424
19087PP      PP29191  15.434  10.268   0.832 -0.1789 -0.0703 -0.2085
19088PP      PP29192  15.076   9.513   4.007 -0.0475 -0.0615 -0.1001
19089PP      PP29193   1.981  11.642   2.489  0.2086 -0.1178 -0.4127
19090PP      PP29194   0.425  13.453   4.322 -0.1610 -0.0282 -0.0061
19091PP      PP29195   6.166   4.706   0.802  0.0490 -0.0822  0.1037
19092PP      PP29196  12.715   1.363   9.764 -0.0160  0.1187 -0.1388
19093PP      PP29197  12.148   6.128   9.649 -0.3622 -0.4996  0.0216
19094PP      PP29198   3.593   2.060   1.926 -0.1385 -0.0550  0.0979
19095PP      PP29199   8.174  13.034   1.734  0.3396  0.1404 -0.5039
19096PP      PP29200   9.944  10.818   2.984 -0.0331 -0.1136 -0.1369
19097PP      PP29201   5.206  10.157  12.970 -0.0840 -0.3877 -0.2820
19098PP      PP29202   4.760   1.945   0.851  0.1308 -0.2568 -0.0855
19099PP      PP29203  11.310  15.445  10.642 -0.1567 -0.0035  0.0279
19100PP      PP29204   3.573   1.231  10.451  0.2977  0.0695 -0.1417
19101PP      PP29205  11.152   0.097   3.798  0.3604 -0.0052 -0.0419
19102PP      PP29206  13.721   1.666   3.956 -0.2233 -0.3058  0.0898
19103PP      PP29207   1.143  14.343   4.926 -0.3370  0.1246  0.2110
19104PP      PP29208   9.383   7.337   1.216  0.0057 -0.1705 -0.3183
19105PP      PP29209  11.773   4.744   9.198 -0.3171 -0.0750 -0.0600
19106PP      PP29210   6.933  15.394   2.355  0.0232 -0.0334  0.0505
19107PP      PP29211   2.828   0.234   0.352  0.1998  0.0370  0.2786
19108PP      PP29212   4.429   8.524   3.108 -0.0381 -0.2999 -0.1739
19109PP      PP29213  14.848   5.527   3.846 -0.2775 -0.0146  0.1381
19110PP      PP29214   7.381   1.379  12.246  0.1016  0.1437  0.1122
19111PP      PP29215   5.162  14.606   4.832  0.1818 -0.0143 -0.3865
19112PP      PP29216   3.261  12.075   4.873  0.2026  0.1699 -0.2166
19113PP      PP29217   2.376   8.976  11.928 -0.0338 -0.1368 -0.2668
19114PP      PP29218  10.565   0.084  13.086  0.0365  0.2175  0.0078
19115PP      PP29219  12.026  15.064  11.229  0.0331 -0.1629 -0.0918
19116PP      PP29220   0.647   6.748  11.112 -0.0846  0.0528  0.1057
19117PP      PP29221   3.764   0.937  12.796  0.1562 -0.2109  0.2137
19118PP      PP29222  14.083  15.359   4.081 -0.0247  0.1088  0.2023
19119PP      PP29223  10.606  12.780   1.594  0.0480 -0.3336  0.2775
19120PP      PP29224   6.628   5.505   2.862 -0.0675 -0.2617  0.0747
19121PP      PP29225  11.615   0.358   0.015  0.3661 -0.0273  0.0849
19122PP      PP29226   9.507  11.272   9.463  0.0988  0.1196 -0.0653
19123PP      PP29227   9.912  12.598  11.697 -0.2496 -0.0409  0.2288
19124PP      PP29228  13.958   4.931   1.176 -0.0451  0.0688 -0.0538
19125PP      PP29229   2.087   6.648  12.921 -0.2488 -0.0515  0.0037
19126PP      PP29230  11.134   2.139   3.544  0.1487  0.2373  0.1201
19127PP      PP29231   2.922  10.239   4.342 -0.0996 -0.2067  0.1239
19128PP      PP29232   3.175   0.747   1.470  0.2643 -0.0825  0.1020
19129PP      PP29233   9.293  13.707   9.857 -0.1904  0.1556  0.0696
19130PP      PP29234  14.634  15.583   4.142 -0.2922  0.0336 -0.0437
19131PP      PP29235   7.291   8.652  11.483 -0.0601  0.1095 -0.2062
19132PP      PP29236   8.547  11.215   1.392 -0.3528 -0.0879 -0.1933
19133PP      PP29237  10.602   4.356  10.347  0.1204 -0.3233  0.2421
19134PP      PP29238   7.365   5.376  12.027  0.1175 -0.2775 -0.2754
19135PP      PP29239   4.671  15.231  12.087  0.1355 -0.0288 -0.0110
19136PP      PP29240  15.567   4.449   9.522  0.5428  0.0579 -0.0945
19137PP      PP29241   2.045   6.302  12.544 -0.2266 -0.3152 -0.2422
19138PP      PP29242   9.639  11.163   4.871 -0.1238 -0.2116 -0.0278
19139PP      PP29243   5.138  14.645  11.026 -0.0281  0.0528 -0.1964
19140PP      PP29244   8.940  13.905   2.114  0.0803  0.4736 -0.0481
19141PP      PP29245   5.973   8.478  10.090 -0.1472 -0.1144  0.0429
19142PP      PP29246  12.572  15.242   9.229  0.1821 -0.0348  0.1216
19143PP      PP29247   5.567   0.529  13.737  0.2237  0.3145 -0.0889
19144PP      PP29248   3.706   7.795  12.758 -0.1156  0.2321  0.3141
19145PP      PP29249   7.639   1.041   9.547 -0.0067  0.0305 -0.2118
19146PP      PP29250   6.701   3.693   9.924 -0.0761 -0.0944 -0.1219
19147PP      PP29251  13.136   0.347  13.109  0.2687 -0.2016  0.0879
19148PP      PP29252  12.452   9.767   1.651 -0.0033  0.0918  0.4144
19149PP      PP29253   6.668   0.961  11.917 -0.0092 -0.1692 -0.0875
19150PP      PP29254   8.204   0.825   0.673  0.0781 -0.0438 -0.5800
19151PP      PP29255   4.158   1.617  11.109  0.0861 -0.0043 -0.0424
19152PP      PP29256   8.189   8.363  13.260  0.0402 -0.1236  0.1720
19153PP      PP29257   1.526   7.648  11.944  0.1411 -0.1194 -0.1561
19154PP      PP29258  10.695   5.058  11.374 -0.0275 -0.3925  0.0021
19155PP      PP29259  13.698   4.873  11.316 -0.4051  0.3975  0.2661
19156PP      PP29260  10.531   1.958  10.203  0.0008  0.2594  0.1205
19157PP      PP29261   2.716  12.494  12.293 -0.0513 -0.1209  0.1535
19158PP      PP29262  12.860   4.522  11.402  0.0870 -0.2170  0.1296
19159PP      PP29263   6.956   2.933  10.350  0.0952  0.0633 -0.0291
19160PP      PP29264   9.922  10.569  12.483 -0.2467 -0.4830  0.4658
19161PP      PP29265  10.671  13.292   0.160  0.2695 -0.2304 -0.3770
19162PP      PP29266   7.291   4.522  11.588  0.2559  0.2429  0.1838
19163PP      PP29267   0.700   8.882  10.827  0.1493 -0.4715 -0.0845
19164PP      PP29268   2.358  15.333  12.291 -0.3709 -0.1427  0.1282
19165PP      PP29269   5.414   0.710   9.491 -0.0610  0.3372  0.0607
19166PP      PP29270   3.570  11.510   3.865  0.0410  0.0775 -0.1577
19167PP      PP29271  13.267   8.697   1.183  0.0886 -0.1771  0.2275
19168PP      PP29272   3.349   3.475   1.205 -0.0227  0.0774 -0.0433
19169PP      PP29273   1.122   9.954  12.797 -0.2080  0.0373  0.1454
19170PP      PP29274  13.533  12.106  11.398 -0.0416 -0.0144  0.1527
19171PP      PP29275   0.866  11.842   4.391  0.0030  0.0292  0.0484
19172PP      PP29276  14.059  15.227   3.316 -0.2173  0.2867 -0.0459
19173PP      PP29277  14.497   9.388   9.516 -0.0061  0.1923 -0.2573
19174PP      PP29278   2.180   6.736   9.650 -0.2759 -0.0742 -0.0774
19175PP      PP29279   2.277  11.602   1.293  0.4471 -0.3587 -0.0630
19176PP      PP29280   0.524   4.353   9.296 -0.2877 -0.0399 -0.0384
19177PP      PP29281   0.160  12.940   0.654 -0.1036 -0.0542 -0.1658
19178PP      PP29282  13.841   1.394  12.374 -0.0588  0.2065  0.0173
19179PP      PP29283  12.474  13.476   3.446  0.1264  0.5459 -0.0173
19180PP      PP29284   8.517   9.776   9.730 -0.0425  0.0688  0.2461
19181PP      PP29285  12.599  10.651  11.916 -0.1473 -0.1085  0.0774
19182PP      PP29286   3.313  15.261   9.537  0.2458 -0.1145 -0.0399
19183PP      PP29287   7.029   6.014  10.329 -0.1487  0.0582 -0.0075
19184PP      PP29288  10.502  14.138  11.444 -0.0570 -0.0357 -0.0825
19185PP      PP29289   0.104  11.859   0.267  0.0189  0.1873  0.0914
19186PP      PP29290   0.204   6.315   0.801 -0.3977  0.2187 -0.2654
19187PP      PP29291   3.902  11.343  12.276  0.0176 -0.1003 -0.2851
19188PP      PP29292  10.575  10.630   9.039  0.0449  0.1682 -0.3587
19189PP      PP29293  15.328  14.381   3.352  0.0275 -0.0876 -0.1345
19190PP      PP29294   5.623  12.676   0.531 -0.1717 -0.2223  0.4522
19191PP      PP29295   9.866   5.890   4.050 -0.0541 -0.0638  0.5728
19192PP      PP29296  10.881  12.659   4.160  0.2249  0.0377  0.0655
19193PP      PP29297   4.211   5.312   1.831  0.3044 -0.0560  0.0916
19194PP      PP29298  11.774   7.033  10.642 -0.1040  0.2919  0.1218
19195PP      PP29299   4.244   1.750  12.568  0.2538 -0.1412 -0.2043
19196PP      PP29300  10.431   6.047   2.142  0.0698 -0.2439 -0.2575
19197PP      PP29301   3.071  11.626   3.821 -0.2241  0.0215 -0.0200
19198PP      PP29302  11.479   1.717  11.245 -0.2755 -0.1579  0.0395
19199PP      PP29303   3.386  11.245  11.991 -0.2977  0.2906  0.0334
19200PP      PP29304   1.949  13.621  11.933  0.1279  0.1446  0.1529
19201PP      PP29305   5.290   3.977  13.341  0.1830  0.0900  0.1163
19202PP      PP29306   4.780   2.539  10.659 -0.1698  0.1190  0.1158
19203PP      PP29307   0.766   1.371  12.343 -0.1711 -0.1607 -0.2645
19204PP      PP29308   1.701   1.655   2.733  0.1396  0.4556 -0.2259
19205PP      PP29309   0.118   6.198  11.402  0.0066  0.1751 -0.0663
19206PP      PP29310   6.887  10.008  11.771  0.0476  0.2131  0.0576
19207PP      PP29311   2.002   4.151   2.878  0.0435  0.0130 -0.5375
19208PP      PP29312   5.393   8.027   9.760 -0.0552  0.0215 -0.0197
19209PP      PP29313   3.257   7.917   9.740  0.0788 -0.0154  0.1287
19210PP      PP29314  14.848  15.121  11.466 -0.1136 -0.2921  0.1573
19211PP      PP29315   0.587  14.151   0.807  0.1687 -0.2119 -0.0699
19212PP      PP29316   7.407   8.340   3.811 -0.3118 -0.1331 -0.0314
19213PP      PP29317  12.655   0.592  13.100 -0.0815 -0.0505  0.0268
19214PP      PP29318  10.892  11.237   2.295 -0.0547  0.0183 -0.0278
19215PP      PP29319   3.005   9.518   9.890 -0.2840 -0.1799  0.0845
19216PP      PP29320   3.722   3.179   0.205 -0.0030 -0.2552  0.0343
19217PP      PP29321   0.995  12.655   1.455 -0.0680  0.2113 -0.4029
19218PP      PP29322  12.062   5.762  10.451 -0.0019  0.2293 -0.0913
19219PP      PP29323   5.245   2.739   9.169 -0.4593 -0.0677  0.3472
19220PP      PP29324   1.329   2.167   9.397  0.2296  0.0432 -0.0284
19221PP      PP29325   8.403   4.409  10.620  0.0560 -0.1641  0.0064
19222PP      PP29326   2.808   1.204   1.423 -0.0348  0.3862 -0.1834
19223PP      PP29327   6.886   0.520   1.428  0.0747 -0.0230  0.0578
19224PP      PP29328  11.627   2.966  11.547  0.0659 -0.1273 -0.0051
19225PP      PP29329   4.063   8.906  13.055  0.0746 -0.0335  0.0236
19226PP      PP29330   5.552   2.878  13.263  0.0944 -0.2833 -0.0405
19227PP      PP29331  13.307   0.072   3.690  0.1584  0.3901 -0.0394
19228PP      PP29332   2.147   9.790   0.574  0.0687  0.2219 -0.0363
19229PP      PP29333   0.303  14.226  12.897  0.0660 -0.0058  0.0912
19230PP      PP29334  15.472   9.307  12.059 -0.2242 -0.2454  0.1483
19231PP      PP29335  10.775   9.431   3.935 -0.0229  0.0551  0.1189
19232PP      PP29336  12.383   0.394  13.517  0.0580  0.1209 -0.0599
19233PP      PP29337  11.812  13.371  11.575  0.3705 -0.1989  0.1378
19234PP      PP29338  10.128  10.865   4.716  0.3315 -0.0861 -0.2345
19235PP      PP29339  14.282  13.306  11.127  0.2493 -0.1247  0.2051
19236PP      PP29340   1.833   7.725   2.852  0.0674 -0.2423  0.2165
19237PP      PP29341   6.135   8.520   3.849  0.0258 -0.2141  0.0788
19238PP      PP29342   2.970  10.104  13.177  0.3313 -0.2142  0.0463
19239PP      PP29343  14.616  12.611   3.638 -0.0141  0.1494 -0.1823
19240PP      PP29344  10.589   0.513   2.156 -0.1899  0.0024  0.0470
19241PP      PP29345  11.456  14.871  13.347 -0.0653 -0.2153 -0.1070
19242PP      PP29346  13.001   4.167  13.193  0.2342 -0.4010 -0.0644
19243PP      PP29347  11.043   7.453   2.894 -0.1792 -0.1732  0.1100
19244PP      PP29348  14.335   3.822   0.026 -0.1903  0.0353  0.0620
19245PP      PP29349  12.924   5.801   0.046  0.4216  0.0230 -0.1277
19246PP      PP29350  13.471  15.107  13.621  0.0210 -0.0689  0.0688
19247PP      PP29351   1.751   0.129   9.177  0.1618  0.1612  0.1418
19248PP      PP29352   2.997   2.382   9.319  0.1531  0.3907  0.1747
19249PP      PP29353  14.276   2.428   2.694  0.0975 -0.2399 -0.0868
19250PP      PP29354   6.252  12.480   9.315  0.0834 -0.2666 -0.1219
19251PP      PP29355   3.095   2.139   2.044  0.2593  0.2175 -0.2800
19252PP      PP29356   4.067   6.957   9.041 -0.2826 -0.2293 -0.1776
19253PP      PP29357   5.218  13.874   1.463  0.2941 -0.2323  0.3819
19254PP      PP29358   7.335   5.258   2.155  0.4743  0.0756  0.2446
19255PP      PP29359   1.839   1.498   9.212 -0.2710 -0.3008 -0.2958
19256PP      PP29360   4.409   1.193  10.860 -0.2793 -0.0613 -0.0809
19257PP      PP29361   1.020   1.905   3.924  0.0064  0.4742 -0.0732
19258PP      PP29362  11.824  13.833  11.913  0.0074 -0.2386  0.2060
19259PP      PP29363  10.097   2.265   1.797  0.0597 -0.0114 -0.1241
19260PP      PP29364   3.731  12.980   4.861 -0.1077 -0.1667  0.0468
19261PP      PP29365   7.371  10.217   2.482 -0.1201  0.0221  0.2413
19262PP      PP29366   8.856   3.794  10.484  0.1062 -0.2800 -0.0697
19263PP      PP29367  14.970   5.218  11.730 -0.5447 -0.1206  0.0781
19264PP      PP29368  10.027  10.012  10.666  0.3327  0.0378 -0.3090
19265PP      PP29369   5.270  11.876  13.661  0.0399  0.1469  0.3244
19266PP      PP29370   9.525  14.754  13.237  0.3207  0.0226  0.0897
19267PP      PP29371  15.155   0.940   2.217 -0.1686  0.3056 -0.0854
19268PP      PP29372   6.473   1.044   3.891 -0.0463 -0.1298 -0.1573
19269PP      PP29373   4.239   4.475  13.427  0.1310 -0.2386 -0.1514
19270PP      PP29374  10.588   6.558   9.481 -0.1440 -0.0296 -0.3055
19271PP      PP29375   6.124  12.429   4.578  0.2929 -0.3999 -0.0673
19272PP      PP29376   0.518   4.388  11.932  0.1903  0.0062 -0.1589
19273PP      PP29377   4.873   6.209   0.843  0.1254  0.0772  0.1185
19274PP      PP29378  11.294   3.340   1.030  0.1479 -0.1689  0.0080
19275PP      PP29379   8.033   7.558  13.294  0.2606  0.3465 -0.0508
19276PP      PP29380   4.891  15.030   4.836 -0.0680  0.1615 -0.2839
19277PP      PP29381   0.581  12.452  10.183  0.1078 -0.0719  0.2272
19278PP      PP29382  15.547  10.441   1.429  0.0608 -0.1368  0.0715
19279PP      PP29383   9.131   4.735   8.079  0.0398 -0.1941 -0.0166
19280PP      PP29384  14.604  11.760   9.536  0.0863 -0.0122  0.0993
19281PP      PP29385   8.819  15.652   0.560  0.0379  0.0044  0.0012
19282PP      PP29386   7.129   7.461   9.348  0.3175 -0.2655  0.0194
19283PP      PP29387   0.831  11.074   2.080  0.0181 -0.0302 -0.1653
19284PP      PP29388   9.976   4.610  12.275  0.1042 -0.1089  0.0073
19285PP      PP29389   7.193  15.619  11.184  0.0550  0.1078  0.0196
19286PP      PP29390   4.522   5.370  11.028  0.0006  0.1825 -0.2803
19287PP      PP29391  14.641   2.977   9.596  0.1651  0.0046  0.0238
19288PP      PP29392  13.777  14.657   5.323  0.0675 -0.0496 -0.0641
19289PP      PP29393   1.007  14.742  12.782  0.0669  0.3028  0.0883
19290PP      PP29394   8.318   0.367  10.273 -0.1965  0.2123  0.2199
19291PP      PP29395  13.230   2.935  11.524  0.0332 -0.1440  0.1418
19292PP      PP29396   8.113   2.105   2.835 -0.0444 -0.0205 -0.2075
19293PP      PP29397  13.564  10.323   3.893  0.4417  0.3150  0.0787
19294PP      PP29398   1.261  12.460   4.610 -0.0437 -0.0412  0.0121
19295PP      PP29399  14.795   4.183  12.850  0.0885 -0.1997 -0.1217
19296PP      PP29400   8.795   4.260   0.625 -0.2199  0.4014 -0.0510
19297PP      PP29401  11.485  14.263   0.003  0.1380 -0.2097  0.2564
19298PP      PP29402   4.533  11.100   2.126  0.1181 -0.2853  0.2312
19299PP      PP29403   4.110   3.098   3.673  0.1875  0.2181  0.0657
19300PP      PP29404   0.518   4.830   3.447 -0.0529  0.2819 -0.0134
19301PP      PP29405   1.605   6.955   1.924 -0.1948  0.1134  0.1278
19302PP      PP29406   6.718   2.809   2.998 -0.1898 -0.2702 -0.1034
19303PP      PP29407  10.228  12.973   4.112  0.0356 -0.0827  0.0353
19304PP      PP29408   8.174  11.794   0.331 -0.4421 -0.2052  0.1085
19305PP      PP29409   8.673  14.478  12.331  0.4482 -0.2289  0.0510
19306PP      PP29410   7.225   3.278   9.043 -0.1587 -0.3811  0.0344
19307PP      PP29411   8.621  10.788  12.138  0.4410 -0.1308 -0.0628
19308PP      PP29412   7.534   7.403  11.507 -0.0846 -0.1278 -0.0348
19309PP      PP29413   7.141   0.966  12.322  0.0103  0.0052  0.1122
19310PP      PP29414   9.189  12.178  13.730  0.1972  0.1036 -0.1972
19311PP      PP29415  12.673   3.775  13.326  0.0024 -0.1705 -0.3207
19312PP      PP29416   8.114   9.179  10.577  0.0862 -0.1199 -0.0018
19313PP      PP29417   8.463  14.374  10.256  0.0201 -0.1364  0.2747
19314PP      PP29418  10.086   4.985   1.093  0.3343  0.0825  0.1497
19315PP      PP29419  11.574   7.005  13.730  0.0441 -0.0566  0.0225
19316PP      PP29420  10.446   8.181  10.916  0.0061  0.0309  0.2238
19317PP      PP29421  15.109   0.011   3.445  0.1223 -0.2965  0.2031
19318PP      PP29422   1.392   6.939   0.860 -0.0357 -0.3568 -0.0083
19319PP      PP29423   9.751   3.981  10.034 -0.0781 -0.2608 -0.0403
19320PP      PP29424   7.443  11.296   3.508  0.0900 -0.0895  0.0262
19321PP      PP29425  14.523   7.914   9.937 -0.3677  0.0825 -0.0814
19322PP      PP29426  15.285  10.622  11.789 -0.0552  0.1569  0.0280
19323PP      PP29427  14.321   5.392  12.547 -0.0370 -0.0799  0.4089
19324PP      PP29428   4.865   3.891   2.452 -0.3195  0.0467  0.2359
19325PP      PP29429   8.732  11.574   4.061 -0.2993 -0.3147  0.1332
19326PP      PP29430  11.858   6.141   1.452 -0.1091  0.2299  0.1511
19327PP      PP29431   0.632   6.241  12.243 -0.0243  0.0233 -0.3134
19328PP      PP29432   4.353   4.798   0.533  0.0652  0.0733  0.0568
19329PP      PP29433  15.588   3.623   2.796 -0.1384  0.1527 -0.1586
19330PP      PP29434  13.252   3.960  10.701 -0.2432 -0.0077  0.1948
19331PP      PP29435  15.003   7.665   8.607  0.1561  0.0338  0.0180
19332PP      PP29436   1.605  10.020   9.531 -0.2949  0.0230 -0.1244
19333PP      PP29437   1.509  12.664   4.144  0.2819 -0.2820 -0.0565
19334PP      PP29438  11.695   9.372  12.484  0.1084 -0.2918 -0.2725
19335PP      PP29439   8.595   3.732  13.028  0.0625 -0.2371 -0.0456
19336PP      PP29440  11.228   2.855  12.826 -0.2320  0.0422  0.2441
19337PP      PP29441   9.543  12.991  11.075 -0.4685  0.0801 -0.0743
19338PP      PP29442  10.107   2.642   2.775 -0.1727 -0.1717  0.4297
19339PP      PP29443   2.746   8.166  11.431 -0.2089 -0.0770  0.1930
19340PP      PP29444  10.284  11.278   0.866  0.1364  0.0124 -0.2685
19341PP      PP29445  13.136   0.524   2.735 -0.1980 -0.0767 -0.1288
19342PP      PP29446  15.347  11.990   0.444 -0.0552 -0.0116  0.0965
19343PP      PP29447  12.040  11.574   9.201  0.0094 -0.1041  0.0095
19344PP      PP29448   3.225   8.362  10.042 -0.2049  0.1647 -0.0383
19345PP      PP29449  14.289   3.261   0.266 -0.1224  0.1070  0.0928
19346PP      PP29450   0.135   6.428   3.440 -0.1076 -0.1929 -0.0445
19347PP      PP29451   2.698  13.445   0.524  0.0966 -0.0328 -0.2357
19348PP      PP29452   6.417   4.813  13.446 -0.3637  0.2222  0.2053
19349PP      PP29453   1.434   7.867   2.587 -0.0833 -0.0157 -0.1042
19350PP      PP29454  13.248  11.821   0.256  0.0428 -0.1464  0.0203
19351PP      PP29455   9.179  15.077   3.825 -0.0943 -0.2192  0.1448
19352PP      PP29456   6.153   7.599   3.061  0.1904 -0.0708 -0.0240
19353PP      PP29457   7.988   1.322   0.661  0.0239 -0.0501  0.0925
19354PP      PP29458  14.393   1.077  10.838  0.1922  0.1704 -0.0172
19355PP      PP29459  14.708   6.223  11.341 -0.0697  0.1914  0.3409
19356PP      PP29460   6.407  11.713   4.967 -0.2089 -0.2905  0.2067
19357PP      PP29461   6.740   1.094   0.226  0.2600  0.1837  0.2777
19358PP      PP29462   1.251  11.329   3.923 -0.0195  0.3390  0.0074
19359PP      PP29463   2.954   4.921  13.163 -0.0695 -0.0707  0.2205
19360PP      PP29464   7.842   5.277   2.346  0.1621 -0.1410  0.0237
19361PP      PP29465   3.599  12.537  12.406  0.0747  0.0074 -0.3041
19362PP      PP29466   0.928   0.608   0.245  0.1597  0.0274  0.0063
19363PP      PP29467  13.331   2.320   0.255 -0.0558  0.0586  0.3007
19364PP      PP29468   7.863  14.270  11.752  0.0706 -0.0834 -0.0511
19365PP      PP29469   4.246  12.649   9.818 -0.0948 -0.2317 -0.0404
19366PP      PP29470  12.055  10.583   2.969  0.0436 -0.1407  0.0657
19367PP      PP29471   4.065  13.488   1.934 -0.2818  0.3454 -0.3311
19368PP      PP29472   7.581   5.143  13.507 -0.0453  0.0999 -0.1045
19369PP      PP29473   9.352   6.729  12.931  0.0473  0.0975 -0.1801
19370PP      PP29474  14.041   3.816   0.501 -0.0027  0.1101  0.0174
19371PP      PP29475   2.528   9.729  10.064 -0.1272 -0.0060  0.0288
19372PP      PP29476  11.670   6.948  11.146  0.2258 -0.0053 -0.0680
19373PP      PP29477   7.127  14.680   1.926  0.1360  0.0274 -0.1242
19374PP      PP29478   6.297   9.523   0.726 -0.0419 -0.0568 -0.0733
19375PP      PP29479   2.085   0.261  12.692  0.0527  0.0145 -0.0611
19376PP      PP29480  13.399  12.294   2.345  0.1514  0.2556  0.1055
19377PP      PP29481   7.679   4.980  12.308  0.0438 -0.1368  0.1083
19378PP      PP29482  13.496  13.774   0.826  0.2434 -0.3355  0.1515
19379PP      PP29483   3.059   9.707   1.597 -0.3374  0.3121 -0.2005
19380PP      PP29484  14.237   1.240   2.339  0.0183 -0.1117  0.0162
19381PP      PP29485   6.872   8.301   1.169  0.1596 -0.2017  0.2768
19382PP      PP29486   7.153  15.566   1.541 -0.2688 -0.0633 -0.0137
19383PP      PP29487   4.494   5.190  10.052 -0.0787 -0.1217  0.1238
19384PP      PP29488   9.599   6.992  10.577  0.2202  0.1328 -0.0981
19385PP      PP29489   8.084   2.844   9.306 -0.0020 -0.4243 -0.1708
19386PP      PP29490  11.339  12.776  12.651  0.1146  0.0505  0.1671
19387PP      PP29491   7.914   8.198  10.876 -0.0224 -0.1446 -0.0124
19388PP      PP29492  11.121   3.372  12.864  0.0270 -0.3916 -0.0800
19389PP      PP29493  10.744   4.892  10.298 -0.3169  0.0218  0.0261
19390PP      PP29494  13.329   9.733   3.627 -0.2508  0.0853 -0.0337
19391PP      PP29495  15.568   1.647   1.866 -0.1377 -0.3577  0.3300
19392PP      PP29496   0.365  14.717   4.415 -0.0761 -0.2472  0.0511
19393PP      PP29497   1.773  12.362   3.003  0.1440  0.3695 -0.0994
19394PP      PP29498   6.477  12.892  10.900  0.1752 -0.0659  0.1628
19395PP      PP29499  13.615   4.296   2.070  0.0799 -0.3782  0.1489
19396PP      PP29500   2.429   7.186  11.685  0.3550  0.2441  0.3425
19397PP      PP29501   9.026   1.824   3.108 -0.2361 -0.0228 -0.1477
19398PP      PP29502   7.566   9.406   1.418 -0.0838  0.0104 -0.1235
19399PP      PP29503  13.393   7.694   2.744  0.2048 -0.3267  0.2831
19400PP      PP29504   9.857  10.082  12.202  0.0343  0.1333 -0.0062
19401PP      PP29505   3.204  13.768  13.270  0.2492 -0.1892 -0.0867
19402PP      PP29506   3.148   3.541  10.381 -0.1357  0.3632  0.2434
19403PP      PP29507   6.784   1.027   3.517  0.0004  0.2021 -0.2152
19404PP      PP29508  15.070   3.015   0.703 -0.0185  0.1358  0.1545
19405PP      PP29509  11.654  13.632  10.300 -0.1280  0.0027 -0.1107
19406PP      PP29510  12.369   2.299   9.358  0.2016  0.1809  0.2463
19407PP      PP29511   2.011  10.930   3.002 -0.0304 -0.2803 -0.1563
19408PP      PP29512  14.425   0.010  11.558 -0.2895  0.0602  0.2151
19409PP      PP29513   4.071   3.237   3.132 -0.1562  0.2293 -0.1362
19410PP      PP29514  13.428  10.031   1.089  0.0111  0.1908  0.1560
19411PP      PP29515   0.987  11.367  10.653 -0.0163  0.0343  0.2982
19412PP      PP29516  13.646   8.713   2.609  0.0234 -0.4202  0.0691
19413PP      PP29517   6.631  13.870   9.803 -0.2812 -0.0436 -0.0138
19414PP      PP29518  14.537   5.508   8.855 -0.1304 -0.1477  0.0217
19415PP      PP29519  11.988  14.676   4.485 -0.0866  0.2561 -0.0341
19416PP      PP29520   8.938  10.926  11.280 -0.0042  0.0552 -0.3003
19417PP      PP29521   9.470   3.221   9.409 -0.2261  0.0526 -0.1537
19418PP      PP29522   4.122   9.573   4.283 -0.0323 -0.0232  0.1419
19419PP      PP29523   3.656   7.486   8.818 -0.0814  0.0501  0.0444
19420PP      PP29524  10.718  11.064  11.175  0.0874  0.0068 -0.0874
19421PP      PP29525   3.551   5.320  11.202  0.3286  0.0536 -0.0471
19422PP      PP29526   5.242   7.581   4.195  0.1704  0.1070 -0.1721
19423PP      PP29527  15.433   6.612  12.430  0.0155  0.0924 -0.1468
19424PP      PP29528   2.281   0.622   3.084 -0.0839  0.1725  0.2737
19425PP      PP29529   7.462  14.365   4.407  0.4250  0.1570 -0.0320
19426PP      PP29530   7.495   1.681   9.083  0.2989 -0.5615  0.1345
19427PP      PP29531   9.936   4.037   0.900 -0.3242  0.0991 -0.0621
19428PP      PP29532  11.295   4.676  10.965 -0.0080  0.0071 -0.0193
19429PP      PP29533  11.241   9.482  10.384  0.0880 -0.0416 -0.4925
19430PP      PP29534   1.443   2.863   1.827 -0.1324 -0.3718 -0.2914
19431PP      PP29535  11.662   0.921  12.286  0.1957  0.1596  0.1997
19432PP      PP29536   9.776   1.828  11.496  0.0517 -0.2633  0.1104
19433PP      PP29537   5.505   9.949  10.710 -0.1661 -0.1108  0.0594
19434PP      PP29538   4.941   3.589   9.658  0.2797  0.3704 -0.0805
19435PP      PP29539   5.442   3.655   8.588 -0.0075 -0.0151 -0.0826
19436PP      PP29540  13.588   3.212   0.590  0.0594  0.0274  0.0006
19437PP      PP29541   2.256   8.578   3.948 -0.1694 -0.3478 -0.2565
19438PP      PP29542   6.850   5.599  12.877 -0.2549 -0.0202 -0.1183
19439PP      PP29543  15.531   2.890   4.274 -0.0653  0.1931  0.0009
19440PP      PP29544   2.846   0.906   9.977 -0.0606  0.0625  0.1288
19441PP      PP29545   6.183   4.555  11.204 -0.0496 -0.1526 -0.1490
19442PP      PP29546   6.407  13.420  12.404 -0.4681 -0.4313 -0.0565
19443PP      PP29547  12.225   1.243   9.221  0.0585  0.0336 -0.1325
19444PP      PP29548  12.694  10.618   9.896 -0.3186  0.0422  0.3735
19445PP      PP29549  11.668   6.513   1.138  0.0567 -0.0078  0.3263
19446PP      PP29550   5.563   2.790   9.523 -0.1249  0.0365 -0.0796
19447PP      PP29551   1.138  14.227   2.490 -0.0181  0.1456 -0.0495
19448PP      PP29552  10.572  11.706   0.743 -0.1236  0.0694  0.0742
19449PP      PP29553  13.824   4.065  13.704 -0.0221  0.2134  0.0761
19450PP      PP29554   1.820  10.770   4.644  0.1007 -0.3566 -0.0615
19451PP      PP29555   6.067   8.362  13.702  0.0059  0.3663 -0.0678
19452PP      PP29556   9.552  15.083   9.417  0.0542 -0.1870  0.1649
19453PP      PP29557   3.178   0.270   2.990  0.0384  0.1520  0.1346
19454PP      PP29558  11.888   8.587   9.697  0.0610  0.2326  0.0992
19455PP      PP29559   3.966   7.054  13.676 -0.2007  0.1688 -0.2519
19456PP      PP29560   1.140  13.990   9.807  0.0582  0.0472  0.1821
19457PP      PP29561  10.244   9.601  10.551  0.0445  0.0164 -0.1057
19458PP      PP29562   3.373  10.002   4.525 -0.0216 -0.3177  0.0188
19459PP      PP29563   8.449  15.353   2.768  0.0579 -0.3626 -0.2799
19460PP      PP29564   6.773   1.404   1.562  0.0191  0.2425 -0.2089
19461PP      PP29565  10.556   2.276   4.311 -0.1702  0.0232  0.0370
19462PP      PP29566   6.894   0.451  13.313  0.1129  0.2762 -0.0908
19463PP      PP29567   4.275  11.457   1.959 -0.0901 -0.5241  0.0983
19464PP      PP29568  14.776  10.021   1.959 -0.1545  0.3200 -0.0589
19465PP      PP29569   3.587  11.399  13.167 -0.0727 -0.2144  0.1802
19466PP      PP29570  11.977  12.172  10.169 -0.1719  0.2292  0.0465
19467PP      PP29571  11.607  10.889   9.349 -0.1940  0.1553  0.0592
19468PP      PP29572   9.025   7.203   4.548 -0.0510 -0.0029  0.0448
19469PP      PP29573  10.566  11.984   3.484  0.1817 -0.1042  0.2628
19470PP      PP29574   6.156   5.209   0.675  0.3253 -0.2196  0.1411
19471PP      PP29575  10.038  10.147   0.141  0.0854 -0.0352  0.1925
19472PP      PP29576   6.212  10.716  11.633  0.2083  0.1462 -0.0221
19473PP      PP29577   6.254  13.430   9.883 -0.2564 -0.0937 -0.0527
19474PP      PP29578  11.784  13.160   1.929  0.1025 -0.2311  0.0396
19475PP      PP29579   8.443  13.726   2.160  0.0546 -0.0790 -0.2001
19476PP      PP29580  13.639   7.607  12.088 -0.3327  0.5228 -0.1041
19477PP      PP29581  14.684  12.833   3.129  0.1242 -0.0032 -0.0866
19478PP      PP29582   7.280   0.869   3.415  0.0752  0.1014 -0.2925
19479PP      PP29583   1.133  12.045  12.862  0.0085 -0.0267 -0.2104
19480PP      PP29584   1.809   5.764  13.219  0.0134 -0.0177 -0.1938
19481PP      PP29585   7.095   3.135   2.945  0.0365 -0.1020  0.3965
19482PP      PP29586   2.492  14.298   0.007 -0.1043 -0.0248  0.1514
19483PP      PP29587   2.297  11.634  13.091  0.1327 -0.0773 -0.2420
19484PP      PP29588  13.651  14.188   0.299 -0.2664 -0.1669 -0.2161
19485PP      PP29589  10.099  13.778   3.669  0.1839 -0.1605  0.1907
19486PP      PP29590   2.857   4.781   9.522  0.3173 -0.2535  0.1585
19487PP      PP29591   5.091   0.566  10.408 -0.3032  0.0426 -0.1066
19488PP      PP29592   7.008  10.363   9.565  0.0945 -0.2635 -0.0024
19489PP      PP29593   8.783   6.681   2.735  0.0313 -0.0420  0.0241
19490PP      PP29594   2.345   1.191   2.594 -0.3665  0.1610 -0.1153
19491PP      PP29595   3.999  12.689   2.191  0.1630  0.0459  0.1700
19492PP      PP29596   5.334   7.872  13.191 -0.0780 -0.1880  0.4128
19493PP      PP29597   3.327   1.683   4.342 -0.0882  0.1109 -0.0657
19494PP      PP29598   8.669   7.811   0.741  0.0176 -0.2363  0.1816
19495PP      PP29599   1.551  14.778  12.864 -0.1107 -0.0353 -0.1337
19496PP      PP29600   0.890   6.692   1.526 -0.3118 -0.0543  0.2805
19497PP      PP29601   2.036  11.516   5.203  0.1409 -0.0426  0.0395
19498PP      PP29602   4.002   8.670   3.962  0.1312 -0.2366  0.0662
19499PP      PP29603   2.811  14.279   2.547  0.3153 -0.2232  0.1561
19500PP      PP29604  11.645  14.736  12.483  0.0448 -0.0442  0.1816
19501PP      PP29605   4.383   5.916  13.694 -0.0740  0.0562  0.0710
19502PP      PP29606   1.157   6.157  11.614 -0.0116  0.0838  0.0683
19503PP      PP29607   2.503  13.765   4.472 -0.2143  0.0639  0.2456
19504PP      PP29608  13.689  14.078  10.216  0.1967 -0.1390  0.1250
19505PP      PP29609   8.789   5.441   9.613  0.1489  0.1387 -0.0621
19506PP      PP29610   4.708   2.174   1.816 -0.3569 -0.0307  0.1461
19507PP      PP29611  11.967   2.087  11.486  0.3120  0.1604  0.2100
19508PP      PP29612   0.549  10.448   5.093  0.3275  0.0299  0.0441
19509PP      PP29613  13.633  11.191   3.078  0.1195 -0.1235  0.2674
19510PP      PP29614  10.543   1.684   1.720 -0.1705  0.1852 -0.1501
19511PP      PP29615   7.419   0.541   0.412 -0.2092  0.0543 -0.0266
19512PP      PP29616   0.656   5.829   8.641 -0.0233  0.0167 -0.1961
19513PP      PP29617   4.597   2.188  12.661  0.2198  0.2014 -0.0704
19514PP      PP29618   9.588   2.507   9.626 -0.0569  0.1777 -0.3211
19515PP      PP29619  10.724   0.189  11.305  0.1095 -0.1480  0.2486
19516PP      PP29620  11.757   3.406   2.140 -0.0342 -0.0462 -0.1483
19517PP      PP29621  13.417   7.104   3.386 -0.4300  0.1372  0.4536
19518PP      PP29622   2.879  13.740  10.298 -0.1493  0.0774 -0.2565
19519PP      PP29623   4.097  13.807   0.260 -0.1166 -0.0503 -0.3575
19520PP      PP29624  15.468   2.431   1.762 -0.1260 -0.1798 -0.0711
19521PP      PP29625   1.067   6.667  13.478 -0.0586  0.0047 -0.2005
19522PP      PP29626   2.130   3.683   1.502  0.0549 -0.0634  0.1750
19523PP      PP29627   2.882  10.144   3.488  0.0604 -0.1410 -0.2601
19524PP      PP29628   0.337   5.282   1.427 -0.3343  0.1074  0.1346
19525PP      PP29629   6.986   0.879  11.087  0.1784  0.1942 -0.0335
19526PP      PP29630   6.002  13.317   5.222 -0.0707  0.1554 -0.2742
19527PP      PP29631   1.493  13.358  11.417  0.0470  0.2029 -0.0327
19528PP      PP29632  12.089   7.979  10.880  0.0195 -0.0738 -0.1628
19529PP      PP29633  13.151   5.545   9.790  0.2700 -0.0994  0.0379
19530PP      PP29634   4.372  12.810  12.903  0.4214  0.0894  0.0428
19531PP      PP29635   8.437   1.506  10.999 -0.0170  0.0457 -0.2334
19532PP      PP29636  12.686   1.868   8.584 -0.2365 -0.1707  0.1664
19533PP      PP29637   9.309   7.595   3.454  0.5469 -0.2275  0.1048
19534PP      PP29638   7.276  10.913   3.247 -0.0726  0.0484 -0.0692
19535PP      PP29639   0.244   1.196  11.241 -0.2548  0.1955  0.0251
19536PP      PP29640   2.663  14.633   9.557  0.0434 -0.0417 -0.0842
19537PP      PP29641   8.175  12.131   3.261  0.0374  0.0236  0.1480
19538PP      PP29642   5.804   0.218   4.563 -0.1133 -0.1406  0.0257
19539PP      PP29643   5.510  10.638  12.863 -0.0375  0.2494  0.0585
19540PP      PP29644  12.498  14.933  12.279  0.1736  0.0332 -0.2200
19541PP      PP29645   2.190  13.323   3.254  0.1304  0.3502  0.0579
19542PP      PP29646   1.689   9.710  12.887  0.1272  0.0448  0.3545
19543PP      PP29647   9.681   9.261  13.238  0.1549 -0.0976  0.0566
19544PP      PP29648   1.664  10.429  13.326  0.0753  0.1683  0.1248
19545PP      PP29649   7.749  15.364  11.135  0.2880 -0.1548 -0.1022
19546PP      PP29650  10.691   0.841  13.251  0.2976  0.2078 -0.0470
19547PP      PP29651  13.438  14.121   3.090  0.0337 -0.3996 -0.2741
19548PP      PP29652  13.768   4.877   0.553  0.1824 -0.4721  0.0100
19549PP      PP29653  11.775  12.423  11.645  0.1476  0.0306  0.0295
19550PP      PP29654   6.079   5.342  12.170 -0.0743 -0.1664  0.3522
19551PP      PP29655  12.175   1.439   0.775  0.0024  0.1406  0.1194
19552PP      PP29656  10.905   6.675   0.315 -0.0229  0.0550  0.1312
19553PP      PP29657   0.444   8.065  13.466 -0.0454 -0.0035 -0.0391
19554PP      PP29658   2.879   8.875  12.008 -0.0546  0.2269 -0.0928
19555PP      PP29659   5.015   6.670  11.166 -0.2057  0.2906 -0.3583
19556PP      PP29660   5.210   9.380   3.436  0.0547 -0.1115 -0.0677
19557PP      PP29661   1.093  13.116   0.255  0.3551 -0.2769  0.1265
19558PP      PP29662   0.110  10.687  12.674  0.0732 -0.0657  0.0301
19559PP      PP29663  13.899  14.938  12.003  0.3444 -0.1205  0.1691
19560PP      PP29664  10.758   5.337   9.444 -0.1790  0.0889  0.0256
19561PP      PP29665   8.877  11.819   3.613  0.1158 -0.0852  0.2964
19562PP      PP29666  11.433   3.746   2.448 -0.2487  0.1584  0.1859
19563PP      PP29667   9.206   5.537  10.982  0.1753  0.0418 -0.0216
19564PP      PP29668   6.896   1.500  13.634  0.2883  0.0903 -0.1013
19565PP      PP29669   6.945  11.583   3.865 -0.1030 -0.0326 -0.0020
19566PP      PP29670   2.515   9.786   1.517  0.1569  0.4638  0.0019
19567PP      PP29671   6.737   3.904  10.760  0.1830 -0.1913  0.1319
19568PP      PP29672   8.508   5.386  12.209  0.0987 -0.3132  0.3265
19569PP      PP29673   8.192   9.791  10.691 -0.3145  0.1433 -0.0067
19570PP      PP29674   4.927  10.910   1.849 -0.1221  0.0568  0.1817
19571PP      PP29675   6.667   7.778  10.191  0.1057  0.0031 -0.1006
19572PP      PP29676  11.433  14.260  11.243 -0.0772 -0.0318  0.2063
19573PP      PP29677  15.552  15.015   0.386  0.0487 -0.2912 -0.0117
19574PP      PP29678   7.759   8.952  13.261  0.1371  0.0458  0.3398
19575PP      PP29679   7.024   6.129   9.809  0.0097  0.1190 -0.1210
19576PP      PP29680   5.558  15.514   3.114  0.0944  0.0941  0.1585
19577PP      PP29681   3.240  12.927  13.757 -0.1624 -0.1477  0.3388
19578PP      PP29682   1.687  14.144   1.333 -0.0931 -0.2564 -0.0858
19579PP      PP29683   0.010  13.969   9.303 -0.0029  0.4431 -0.2806
19580PP      PP29684  11.484   4.311  11.253 -0.1615 -0.2015 -0.1257
19581PP      PP29685   3.253   8.730  11.442  0.1665 -0.0080 -0.1165
19582PP      PP29686   5.199   0.061  12.097  0.0123 -0.0437 -0.1423
19583PP      PP29687  15.043   3.204  11.329 -0.0658 -0.0573  0.0239
19584PP      PP29688  13.642   7.760   0.067  0.0466 -0.2480  0.0660
19585PP      PP29689   4.007   0.913  10.492  0.2210 -0.1103 -0.0975
19586PP      PP29690   3.206  11.499   1.724  0.0288  0.1944 -0.3986
19587PP      PP29691   9.668   2.726   0.028  0.1329  0.0404 -0.1097
19588PP      PP29692  12.550  12.695   3.294  0.2901  0.1067 -0.5097
19589PP      PP29693   7.895  14.019   9.137 -0.0430 -0.2331 -0.2931
19590PP      PP29694  15.633   1.809   2.875 -0.5784  0.2123 -0.0775
19591PP      PP29695  15.205  12.149  13.317 -0.0990 -0.0927 -0.0535
19592PP      PP29696  11.485  13.774   3.694  0.0105 -0.0298 -0.1993
19593PP      PP29697   8.134   5.375   0.383  0.2480  0.1166 -0.1871
19594PP      PP29698   5.920  10.026   0.141  0.0351  0.0958 -0.1660
19595PP      PP29699   6.352   0.173  13.396  0.3165  0.1102 -0.3320
19596PP      PP29700   2.544   3.965   3.046 -0.3433 -0.3383  0.2538
19597PP      PP29701   8.921   2.359  10.808 -0.2365  0.0350 -0.1279
19598PP      PP29702   6.840  10.097  13.659 -0.0480  0.0171 -0.0593
19599PP      PP29703  15.470   0.909   3.060 -0.0055  0.0535  0.0448
19600PP      PP29704   1.701  11.333   4.301  0.0569  0.1246  0.1240
19601PP      PP29705   7.049   1.376  11.048  0.1140  0.0534 -0.1480
19602PP      PP29706   4.008   5.459  11.237  0.0201  0.0997  0.0098
19603PP      PP29707  13.174  12.501  12.371  0.0545  0.1271  0.2943
19604PP      PP29708  14.140   9.925  11.425  0.1736 -0.0553 -0.0994
19605PP      PP29709   6.999  10.487  11.242  0.1777 -0.2660 -0.0037
19606PP      PP29710  10.933  14.346   2.801 -0.2710  0.2979 -0.0269
19607PP      PP29711  14.928   9.842   3.208 -0.0800  0.2103 -0.3543
19608PP      PP29712   9.514   8.122  11.410  0.1077 -0.1989  0.1155
19609PP      PP29713  15.140   6.816   2.792 -0.2740 -0.0020 -0.3746
19610PP      PP29714   7.596   7.333   2.686  0.1234 -0.1495 -0.0592
19611PP      PP29715  11.568   4.514  10.213 -0.0072 -0.0437  0.2141
19612PP      PP29716  12.598  15.450  10.628  0.3952  0.0805 -0.0317
19613PP      PP29717   4.884   8.983   2.272  0.0099  0.0383  0.2780
19614PP      PP29718   1.562   8.791   3.554 -0.0702 -0.0893 -0.0136
19615PP      PP29719  10.381   2.520   1.503  0.0444  0.3865 -0.0847
19616PP      PP29720   5.097   4.113   1.548  0.2865 -0.0807  0.2766
19617PP      PP29721   6.328   7.278   0.861  0.0123 -0.0043  0.2756
19618PP      PP29722   5.306   3.164   8.800  0.2203 -0.0629 -0.0399
19619PP      PP29723  12.156   9.555   2.751 -0.4122  0.0792  0.1310
19620PP      PP29724   3.766   9.059   3.488  0.0080 -0.0587  0.0089
19621PP      PP29725  15.353   9.442   3.297  0.4097 -0.0279  0.0491
19622PP      PP29726   4.465  15.365   9.827 -0.2108 -0.3449 -0.0024
19623PP      PP29727   0.061  12.996  11.242  0.2055 -0.0159 -0.0370
19624PP      PP29728   1.110  10.262  13.270  0.1128 -0.0486 -0.0044
19625PP      PP29729   6.398   3.120  11.187  0.1083 -0.1617 -0.6067
19626PP      PP29730  10.019   6.596  11.888 -0.5498  0.1416 -0.0291
19627PP      PP29731  13.587   4.195   9.184  0.0280  0.0590 -0.0479
19628PP      PP29732  11.661  13.345  11.033  0.1650  0.0265  0.1988
19629PP      PP29733  12.042  12.854  11.336 -0.0591 -0.1182  0.0795
19630PP      PP29734   5.836   4.831   8.234  0.0924  0.2266 -0.0877
19631PP      PP29735   7.373   1.920   0.522  0.0982  0.2089 -0.2511
19632PP      PP29736   6.519  11.472   2.036  0.1419 -0.1021 -0.1141
19633PP      PP29737   8.089   0.836  13.111 -0.0925  0.0770 -0.1220
19634PP      PP29738  15.598   8.882  11.669  0.0568 -0.1621  0.1027
19635PP      PP29739  11.060  14.760   0.416  0.2021  0.0535  0.0443
19636PP      PP29740  15.105   6.236   8.625  0.0892 -0.1179 -0.2792
19637PP      PP29741  11.826  11.073   3.823 -0.1935 -0.1498 -0.0529
19638PP      PP29742  15.689  10.168   4.566 -0.0085 -0.1663  0.5283
19639PP      PP29743  11.268   6.197  10.807  0.2170 -0.1249 -0.0199
19640PP      PP29744   3.832   2.076  12.811  0.0211  0.2048  0.1245
19641PP      PP29745   5.557   5.344  11.322 -0.3313 -0.0011  0.1789
19642PP      PP29746   5.594  12.410   1.393 -0.0890 -0.0691  0.0979
19643PP      PP29747   9.309   2.332   3.642  0.1768 -0.1158 -0.0326
19644PP      PP29748  11.531  13.136   0.839  0.0336 -0.0140  0.0650
19645PP      PP29749   3.249  10.266   2.299  0.1407  0.1426  0.2644
19646PP      PP29750   5.009   8.710   3.075 -0.0448  0.1434 -0.0310
19647PP      PP29751   6.347   1.224   3.118  0.0318  0.1963  0.2476
19648PP      PP29752   6.694   5.853   8.775  0.3565 -0.1033 -0.0869
19649PP      PP29753   9.510   8.155  10.901  0.2301  0.2783 -0.0429
19650PP      PP29754   5.531   2.615  11.799  0.2131 -0.1226  0.1172
19651PP      PP29755  12.374   0.696   2.253  0.2551 -0.0449 -0.2754
19652PP      PP29756  12.330  12.925  10.686 -0.1853  0.0365  0.0143
19653PP      PP29757   5.055  10.253   2.305  0.0221 -0.0423  0.2769
19654PP      PP29758   4.190   3.495   1.271 -0.0825 -0.0070  0.0651
19655PP      PP29759   5.743   6.390  12.269 -0.3134 -0.1934  0.3762
19656PP      PP29760   0.756  14.494   1.183 -0.1356  0.0694  0.1045
19657PP      PP29761   4.470   3.022   2.897 -0.3024  0.1141 -0.1181
19658PP      PP29762  14.161   1.191  13.038 -0.0477  0.1370 -0.1174
19659PP      PP29763   2.324   5.699   9.668  0.0642 -0.3646  0.0362
19660PP      PP29764   8.219   1.980   8.216  0.1718  0.0194 -0.0045
19661PP      PP29765   3.175  12.796   0.973  0.1656  0.2337 -0.0737
19662PP      PP29766  15.706   4.292  11.993 -0.0691 -0.0267  0.1017
19663PP      PP29767   5.642   0.058  11.214  0.2048 -0.2216 -0.3286
19664PP      PP29768   0.987  13.868   1.965 -0.1474  0.0883 -0.2285
19665PP      PP29769   5.157  11.608  11.963 -0.1435 -0.1011  0.0165
19666PP      PP29770   0.616   1.878   2.378 -0.2880 -0.1503  0.1288
19667PP      PP29771   7.724  12.215  10.665 -0.0912 -0.2243  0.4765
19668PP      PP29772   3.232   8.229   3.628  0.0246 -0.2056 -0.0904
19669PP      PP29773  12.483  12.125  12.827  0.0108 -0.4141  0.2866
19670PP      PP29774  10.186  10.638   0.455 -0.1047  0.0305 -0.1123
19671PP      PP29775   4.078   1.025   4.539  0.2879 -0.4711  0.2088
19672PP      PP29776   0.479   5.221   1.968  0.1044 -0.2358  0.2303
19673PP      PP29777  10.581   6.772   1.794  0.0634 -0.1086 -0.0297
19674PP      PP29778  15.274   6.563   3.248  0.2226  0.0482  0.0931
19675PP      PP29779  13.711   6.924  12.380 -0.1728  0.0788  0.2804
19676PP      PP29780   3.589   6.031  12.470 -0.0598 -0.0459 -0.1431
19677PP      PP29781  11.868   9.048   1.393 -0.1680 -0.3846 -0.0187
19678PP      PP29782  14.835  11.155  10.652 -0.3665 -0.0562  0.2846
19679PP      PP29783   0.995   4.341   8.966 -0.0179  0.2131  0.0043
19680PP      PP29784   5.095   9.053   1.145 -0.0928  0.1033 -0.2535
19681PP      PP29785  14.587   0.409   0.250 -0.0862  0.2030  0.3207
19682PP      PP29786   9.538   2.054   3.960  0.1617 -0.2518 -0.3361
19683PP      PP29787   8.508   2.348  13.358 -0.3091  0.1055  0.1238
19684PP      PP29788   2.901   3.590   9.866 -0.2267 -0.0272 -0.1324
19685PP      PP29789   4.650   6.553  12.919  0.2663 -0.2132 -0.0664
19686PP      PP29790  15.637   2.851  13.670 -0.0223 -0.1478  0.0074
19687PP      PP29791   3.764   4.465  12.789 -0.2346  0.1149 -0.0922
19688PP      PP29792   3.414  10.287   3.624  0.0071  0.1318 -0.1919
19689PP      PP29793   4.125   7.218   1.459  0.1619 -0.1024  0.0185
19690PP      PP29794  15.299   7.998   0.306 -0.0032 -0.1186  0.0409
19691PP      PP29795  11.080   3.670   8.697  0.1434 -0.0409  0.1832
19692PP      PP29796   3.063   5.276  10.879 -0.0721 -0.1366 -0.0416
19693PP      PP29797   2.547   8.606   0.545  0.2620  0.0469  0.2133
19694PP      PP29798  12.409  11.182   2.712  0.0068  0.2601 -0.1520
19695PP      PP29799   3.510  13.634   9.798 -0.0813 -0.1968  0.0674
19696PP      PP29800   3.665  13.146   0.892  0.0767  0.2445 -0.2491
19697PP      PP29801   7.364  12.507  11.571  0.0900 -0.0445 -0.2919
19698PP      PP29802   9.611   1.113   8.974 -0.1181 -0.1747 -0.2052
19699PP      PP29803   2.886  14.053   0.520  0.2234 -0.0216 -0.0033
19700PP      PP29804  11.992   2.423   2.483 -0.2144 -0.1359 -0.0831
19701PP      PP29805   6.442   1.775   0.635 -0.1907  0.0733  0.0244
19702PP      PP29806  13.872  12.324   3.183  0.0634 -0.1102  0.2354
19703PP      PP29807   0.095  14.952   3.995  0.0901  0.1552 -0.1598
19704PP      PP29808  14.204   9.248  13.455  0.0237 -0.0724 -0.2261
19705PP      PP29809   0.096   5.477   3.515 -0.0216  0.1137  0.0051
19706PP      PP29810  10.233   1.283   9.577  0.0070  0.0044  0.0583
19707PP      PP29811  11.945  13.376   1.017 -0.0121 -0.0409  0.0834
19708PP      PP29812   4.423  13.145   9.958  0.0852 -0.1976 -0.2531
19709PP      PP29813  12.401  14.185   2.234 -0.2778 -0.0580  0.0702
19710PP      PP29814   6.316   7.918  12.880 -0.0549  0.1779  0.1566
19711PP      PP29815  11.634  11.372   3.040 -0.4398  0.4072  0.0834
19712PP      PP29816   2.591  11.172  11.377 -0.0745  0.1117 -0.0626
19713PP      PP29817   0.470   0.804  13.695  0.3486 -0.0880  0.0439
19714PP      PP29818  10.584  15.307  10.527 -0.0427  0.0088 -0.0275
19715PP      PP29819   8.497   1.651   9.436 -0.2280  0.2488  0.0163
19716PP      PP29820   6.870   8.367   2.303  0.1766 -0.1473 -0.1160
19717PP      PP29821   6.711   3.936   3.144 -0.2441 -0.1742  0.0981
19718PP      PP29822  15.006   1.293  11.615  0.0444 -0.2084 -0.0730
19719PP      PP29823  15.265   8.134  13.274 -0.0917 -0.1290  0.2761
19720PP      PP29824   8.058   9.415   1.526 -0.0531 -0.1642  0.0833
19721PP      PP29825   4.160   4.466   0.860  0.1342  0.2278  0.1939
19722PP      PP29826  14.873   4.291  11.756 -0.1094 -0.1172  0.1156
19723PP      PP29827  10.130   9.703   1.356  0.0155 -0.0999  0.1783
19724PP      PP29828  12.596   1.119  10.629  0.1291 -0.1316 -0.1914
19725PP      PP29829   3.228   6.425   0.871  0.1538 -0.0083 -0.0843
19726PP      PP29830  10.700   8.704  10.168  0.0710  0.3190 -0.1329
19727PP      PP29831  11.431   7.199   9.612  0.2082  0.1443 -0.1133
19728PP      PP29832   0.863   0.297   2.771  0.1825  0.2878  0.2051
19729PP      PP29833   3.656   5.570  13.554  0.0484 -0.4967 -0.2161
19730PP      PP29834   9.732   1.398  13.144  0.1163  0.1163 -0.0465
19731PP      PP29835  14.415  10.907  10.386  0.2828  0.0525 -0.1163
19732PP      PP29836   8.889   7.415   2.028  0.2255  0.0819  0.0949
19733PP      PP29837   1.743  12.009  11.265 -0.0898 -0.0024 -0.2598
19734PP      PP29838  10.435   7.335  11.522  0.2323 -0.0357 -0.0212
19735PP      PP29839   7.177   6.607   1.779 -0.0841  0.2703  0.1889
19736PP      PP29840   5.968  14.585   0.516 -0.2143  0.1628 -0.0150
19737PP      PP29841   2.585   6.763   3.350 -0.0653  0.0992 -0.1249
19738PP      PP29842   5.107  14.557  10.506 -0.0495 -0.1221  0.1399
19739PP      PP29843   0.697  14.938  11.346 -0.3409  0.2272 -0.3338
19740PP      PP29844   5.786   8.686  12.404 -0.2004 -0.0817  0.0012
19741PP      PP29845  10.674  14.356   1.178 -0.0833  0.1011 -0.0373
19742PP      PP29846   9.271   4.852   3.254  0.1786  0.0489  0.0009
19743PP      PP29847   5.728   2.318   9.567  0.2325 -0.1458  0.0355
19744PP      PP29848   2.839   2.512  11.347 -0.1123 -0.0548  0.2629
19745PP      PP29849   1.697  10.530   1.211 -0.1776 -0.1364  0.1434
19746PP      PP29850   2.920   3.409   9.361  0.0115  0.1707 -0.1883
19747PP      PP29851   0.045   3.838  11.118  0.0749  0.2120  0.0830
19748PP      PP29852  13.996   0.689   0.278  0.1809 -0.2295  0.2206
19749PP      PP29853  10.827   3.767  10.684  0.0284 -0.1146 -0.3160
19750PP      PP29854   8.148   9.499  11.134  0.1564 -0.4037  0.0791
19751PP      PP29855   3.096   4.706   2.464  0.1606  0.1084 -0.1389
19752PP      PP29856   4.246   5.339  11.925 -0.0987 -0.0189  0.0211
19753PP      PP29857  15.480   4.464  11.448 -0.1357 -0.1342 -0.2419
19754PP      PP29858  14.498   8.772   8.963 -0.2405  0.0055  0.1622
19755PP      PP29859   9.372  15.150   4.418  0.0408 -0.0865  0.0338
19756PP      PP29860   6.326  12.841  11.848 -0.1934 -0.1470 -0.0928
19757PP      PP29861   8.905   5.204   8.667 -0.0689 -0.1085 -0.1222
19758PP      PP29862   3.309  15.307   9.025  0.1956 -0.1392 -0.0708
19759PP      PP29863  13.145   6.595   0.442  0.0147 -0.0384  0.0096
19760PP      PP29864  14.641   3.452  11.640  0.2636  0.1168 -0.0792
19761PP      PP29865  11.863   6.042  10.008  0.4513  0.0550  0.1096
19762PP      PP29866  15.139  14.490  12.850 -0.0106  0.3229 -0.0490
19763PP      PP29867  11.512   1.311  13.076 -0.3314  0.0490 -0.1209
19764PP      PP29868   8.168   4.863   2.245  0.0406  0.3699  0.0222
19765PP      PP29869  12.957   8.543   9.294  0.0480 -0.0105 -0.2460
19766PP      PP29870   7.520  13.040  13.116  0.0977 -0.1871 -0.1133
19767PP      PP29871  11.267   2.901   1.475 -0.3332 -0.1017  0.0229
19768PP      PP29872  10.840  14.959  10.873  0.0087 -0.0300  0.2632
19769PP      PP29873   6.891  10.230   1.392 -0.0620  0.3338 -0.4571
19770PP      PP29874  12.877  11.199   2.562  0.0105  0.0660 -0.1822
19771PP      PP29875   3.515   0.654  10.597  0.1491  0.2753  0.1157
19772PP      PP29876   0.642   7.281   2.534  0.1562  0.1540  0.0748
19773PP      PP29877   4.376   5.144  10.645 -0.1365  0.0646  0.2039
19774PP      PP29878  10.733  10.662  10.654  0.2420  0.3943 -0.1056
19775PP      PP29879   9.138   8.128   2.511 -0.3776 -0.0142  0.1872
19776CNN    PA129880   7.739   9.270   5.311  0.2021 -0.1341 -0.4215
19776CNN    PA229881   7.497   9.285   5.329  0.2107 -0.0284  0.1406
19776CNN    PA329882   7.427   9.328   5.132  0.1717  0.1830  0.1592
19776CNN    PA429883   7.230   9.324   5.291  0.1955 -0.0503  0.0692
19777CNN    PA129884  10.879   9.703   4.501 -0.2057 -0.0456 -0.1386
19777CNN    PA229885  10.972   9.929   4.590  0.1125  0.1160  0.0950
19777CNN    PA329886  11.165   9.962   4.480  0.2301 -0.4140  0.0169
19777CNN    PA429887  11.144  10.163   4.650 -0.6015  0.0505  0.1742
19778CNN    PA129888   8.901   8.646   4.787  0.1739 -0.1302 -0.2335
19778CNN    PA229889   8.674   8.544   4.764 -0.3147  0.0155  0.0745
19778CNN    PA329890   8.587   8.675   4.632  0.1251  0.1485 -0.2647
19778CNN    PA429891   8.416   8.475   4.642 -0.2687 -0.0335  0.1817
19779CNN    PA129892  11.732  13.156   7.466  0.1586  0.3710 -0.2674
19779CNN    PA229893  11.691  13.080   7.243 -0.2602 -0.2299  0.0034
19779CNN    PA329894  11.565  12.875   7.287 -0.3720 -0.2134 -0.0078
19779CNN    PA429895  11.577  12.890   7.060 -0.6013 -0.0719 -0.3314
19780CNN    PA129896   8.446  12.127   6.125 -0.2018  0.1980 -0.4680
19780CNN    PA229897   8.492  12.043   5.906 -0.0376  0.1997 -0.0227
19780CNN    PA329898   8.526  11.822   5.932 -0.1066  0.4790 -0.2703
19780CNN    PA429899   8.627  11.908   5.739  0.0496  0.1222  0.2528
19781CNN    PA129900   8.761  13.926   7.608 -0.1909 -0.0351 -0.1015
19781CNN    PA229901   8.541  13.999   7.701 -0.4442  0.4308 -0.4389
19781CNN    PA329902   8.409  13.954   7.551 -0.0043  0.0561  0.1972
19781CNN    PA429903   8.281  14.050   7.713  0.0546  0.2664 -0.0354
19782CNN    PA129904   7.676  14.604   5.157 -0.1315 -0.0244 -0.1299
19782CNN    PA229905   7.819  14.675   5.354  0.0857  0.4145  0.0881
19782CNN    PA329906   7.976  14.793   5.245 -0.0279 -0.2275 -0.2556
19782CNN    PA429907   8.034  14.768   5.490  0.2077 -0.4208  0.4635
19783CNN    PA129908   7.185   1.304   7.698  0.1710 -0.3538 -0.2345
19783CNN    PA229909   7.388   1.212   7.633  0.0331 -0.0630  0.0401
19783CNN    PA329910   7.350   1.167   7.440 -0.6755 -0.3507  0.2399
19783CNN    PA429911   7.549   1.050   7.497 -0.3072  0.2122  0.1669
19784CNN    PA129912   0.006   4.366   1.094 -0.0475  0.3644  0.2313
19784CNN    PA229913   0.190   4.425   0.957  0.1670  0.2459  0.2270
19784CNN    PA329914   0.295   4.228   0.974 -0.2213  0.2166  0.2580
19784CNN    PA429915   0.397   4.344   0.800  0.3822 -0.1185  0.3030
19785CNN    PA129916   2.998   8.963   5.700  0.2613 -0.2248  0.1982
19785CNN    PA229917   2.857   8.952   5.899 -0.1201 -0.0876  0.1239
19785CNN    PA329918   2.991   9.030   6.054 -0.1655  0.1519  0.1817
19785CNN    PA429919   2.775   8.901   6.151  0.0116 -0.1364 -0.1230
19786CNN    PA129920  13.072   6.262   7.400  0.5783 -0.8628 -0.2001
19786CNN    PA229921  13.031   6.184   7.630 -0.2110  0.0174  0.3585
19786CNN    PA329922  13.041   6.350   7.750  0.1197  0.1923  0.1583
19786CNN    PA429923  12.945   6.185   7.898 -0.3794  0.1206  0.0309
19787CNN    PA129924   3.083   8.545   7.609 -0.0298 -0.0557  0.1639
19787CNN    PA229925   2.966   8.511   7.806 -0.1401 -0.1890 -0.1407
19787CNN    PA329926   2.915   8.734   7.852 -0.1409  0.2179 -0.4663
19787CNN    PA429927   2.896   8.611   8.057 -0.2978 -0.0621 -0.1141
19788CNN    PA129928  11.697   4.422   8.622 -0.0226  0.1989  0.5304
19788CNN    PA229929  11.572   4.511   8.833  0.0384  0.5435  0.0537
19788CNN    PA329930  11.613   4.403   8.999 -0.3169 -0.3225  0.1294
19788CNN    PA429931  11.371   4.475   9.075  0.0219  0.6029 -0.0114
19789CNN    PA129932   2.779  11.426   2.235  0.1740  0.3266  0.0437
19789CNN    PA229933   2.840  11.196   2.348  0.1075 -0.1929  0.3027
19789CNN    PA329934   2.673  11.130   2.447 -0.1767 -0.0466 -0.0885
19789CNN    PA429935   2.861  10.987   2.487 -0.0494  0.2710  0.3247
19790CNN    PA129936   4.960   9.763   6.775 -0.0330  0.0401 -0.0961
19790CNN    PA229937   5.012   9.595   6.598  0.2693 -0.1912  0.1300
19790CNN    PA329938   5.144   9.471   6.694 -0.4891 -0.1087  0.4079
19790CNN    PA429939   5.194   9.463   6.442  0.1464  0.0314 -0.0307
19791CNN    PA129940  15.681  10.044   8.693  0.3855  0.2385 -0.2007
19791CNN    PA229941  15.528   9.916   8.828  0.0934  0.1304 -0.0846
19791CNN    PA329942  15.448   9.754   8.710  0.1525 -0.3274 -0.4244
19791CNN    PA429943  15.376   9.662   8.916 -0.1484 -0.2114  0.0876
19792CNN    PA129944   1.252   3.980   8.941 -0.0097 -0.1336 -0.0738
19792CNN    PA229945   1.269   3.933   8.697 -0.0895 -0.1297 -0.4719
19792CNN    PA329946   1.089   3.966   8.620  0.3518  0.1498  0.0120
19792CNN    PA429947   1.233   3.846   8.442  0.3006  0.1802 -0.2592
19793CNN    PA129948   7.134   9.863   6.556  0.3607 -0.2115  0.6840
19793CNN    PA229949   7.033   9.765   6.746 -0.4405 -0.0158 -0.1007
19793CNN    PA329950   6.973   9.923   6.873 -0.3852 -0.1324 -0.0635
19793CNN    PA429951   6.927   9.726   6.986  0.0032 -0.2150 -0.0736
19794CNN    PA129952  11.538   3.774   5.699 -0.0885 -0.4044 -0.3068
19794CNN    PA229953  11.740   3.852   5.573 -0.4357 -0.0340  0.2044
19794CNN    PA329954  11.717   4.050   5.498  0.2118 -0.4496  0.3238
19794CNN    PA429955  11.913   4.018   5.404 -0.1784 -0.3794  0.0045
19795CNN    PA129956   1.156   6.283   5.702 -0.0201  0.0919  0.0008
19795CNN    PA229957   1.251   6.223   5.910  0.2400 -0.0339  0.0405
19795CNN    PA329958   1.165   6.026   5.965  0.3872  0.1507 -0.2019
19795CNN    PA429959   1.315   6.096   6.149 -0.5156  0.2299 -0.1467
19796CNN    PA129960  14.001  14.839   5.682 -0.4005 -0.4017 -0.0444
19796CNN    PA229961  13.838  14.972   5.685  0.2418 -0.2025  0.0714
19796CNN    PA329962  13.825  15.027   5.892  0.2076 -0.1519  0.1527
19796CNN    PA429963  13.587  15.078   5.813 -0.0021  0.2777  0.1458
19797CNN    PA129964   5.272  15.181   7.317 -0.2823 -0.2202 -0.0188
19797CNN    PA229965   5.057  15.168   7.203 -0.0590  0.3238  0.1987
19797CNN    PA329966   5.097  15.025   7.046  0.1429  0.2470 -0.3644
19797CNN    PA429967   4.870  15.097   7.031 -0.0270  0.1281  0.2668
19798CNN    PA129968  10.311   0.604   1.354 -0.1095 -0.0389 -0.1465
19798CNN    PA229969  10.283   0.388   1.422 -0.0269 -0.2855  0.1284
19798CNN    PA329970  10.465   0.320   1.522  0.0815 -0.0196  0.2915
19798CNN    PA429971  10.288   0.111   1.511 -0.5931 -0.3039  0.1523
19799CNN    PA129972   7.652   7.675   8.131 -0.0625 -0.0809 -0.2063
19799CNN    PA229973   7.518   7.612   8.320 -0.1996  0.0898  0.2565
19799CNN    PA329974   7.345   7.727   8.307  0.0139  0.3589  0.0591
19799CNN    PA429975   7.333   7.576   8.501  0.0571 -0.1227  0.0871
19800CNN    PA129976   1.842  15.496   8.250 -0.0739 -0.1878  0.2390
19800CNN    PA229977   1.940  15.540   8.460 -0.2383 -0.1826  0.2495
19800CNN    PA329978   1.773  15.614   8.560 -0.4615  0.1731  0.1317
19800CNN    PA429979   1.947  15.625   8.707  0.1078 -0.4480 -0.2213
19801CNN    PA129980   2.783  15.556   7.177  0.5391  0.0596 -0.1283
19801CNN    PA229981   2.773  15.606   7.408 -0.2307 -0.1334  0.1280
19801CNN    PA329982   2.940  15.521   7.477  0.2503  0.1504  0.2142
19801CNN    PA429983   2.871  15.731   7.633  0.1137  0.2097 -0.0032
19802CNN    PA129984  15.410   6.498   4.992 -0.4334 -0.0783  0.0750
19802CNN    PA229985  15.200   6.556   4.881  0.1474  0.1618  0.0040
19802CNN    PA329986  15.252   6.712   4.743 -0.0625 -0.2242 -0.1571
19802CNN    PA429987  15.056   6.593   4.659  0.0557  0.0977 -0.0162
19803CNN    PA129988   8.014  14.203   4.797  0.0385  0.2027 -0.0601
19803CNN    PA229989   8.152  14.298   4.959 -0.1892  0.0109 -0.0455
19803CNN    PA329990   8.144  14.490   4.897 -0.3060 -0.2062 -0.1713
19803CNN    PA429991   8.305  14.476   5.048 -0.0849 -0.1821 -0.0776
19804CNN    PA129992   7.550   7.614   7.819  0.2821 -0.1159  0.1023
19804CNN    PA229993   7.789   7.665   7.780  0.2783  0.4027 -0.0062
19804CNN    PA329994   7.845   7.563   7.596 -0.1935  0.4657  0.1184
19804CNN    PA429995   8.019   7.716   7.636  0.2573 -0.1666  0.1143
19805CNN    PA129996   2.244   6.977   7.106 -0.3759 -0.2912  0.6001
19805CNN    PA229997   2.263   7.128   7.299 -0.3485  0.1336  0.1424
19805CNN    PA329998   2.113   7.055   7.414 -0.1083  0.3126 -0.2583
19805CNN    PA429999   2.200   7.261   7.511 -0.0903 -0.0564  0.5261
19806CNN    PA130000   2.224   4.401   2.665 -0.2164  0.0662  0.0904
19806CNN    PA230001   2.442   4.273   2.600 -0.0165 -0.5615  0.0346
19806CNN    PA330002   2.418   4.229   2.390  0.2173 -0.3281 -0.0941
19806CNN    PA430003   2.638   4.162   2.427 -0.0715 -0.3458 -0.1566
19807CNN    PA130004   3.070   9.534   5.092  0.2673 -0.3329  0.1515
19807CNN    PA230005   3.253   9.425   5.146 -0.3063 -0.1605 -0.4575
19807CNN    PA330006   3.179   9.246   5.227  0.0052 -0.0491 -0.6250
19807CNN    PA430007   3.415   9.233   5.287  0.1995 -0.1292  0.2882
19808CNN    PA130008  10.830  10.625   7.289 -0.1307 -0.2030 -0.4342
19808CNN    PA230009  10.613  10.714   7.349  0.6171  0.2019 -0.0005
19808CNN    PA330010  10.589  10.651   7.570  0.3713  0.1199  0.2610
19808CNN    PA430011  10.406  10.820   7.516 -0.0982 -0.0511  0.1713
19809CNN    PA130012  10.587   4.884  12.305  0.1789  0.1270  0.0488
19809CNN    PA230013  10.721   4.680  12.337 -0.0421  0.0134 -0.2284
19809CNN    PA330014  10.865   4.710  12.214 -0.1386 -0.1933  0.1163
19809CNN    PA430015  10.946   4.525  12.347  0.1483  0.0987  0.0646
19810CNN    PA130016   1.602   2.921   8.057 -0.4219 -0.0837  0.0218
19810CNN    PA230017   1.457   2.767   7.940  0.2748  0.1224 -0.1839
19810CNN    PA330018   1.440   2.598   8.057  0.0190 -0.1612 -0.0104
19810CNN    PA430019   1.356   2.540   7.826  0.2722  0.3325  0.0268
19811CNN    PA130020   3.400  11.763   8.377 -0.0377  0.4543 -0.1346
19811CNN    PA230021   3.459  11.800   8.132 -0.5749 -0.1584  0.5391
19811CNN    PA330022   3.569  11.596   8.091  0.6625 -0.5188  0.5180
19811CNN    PA430023   3.448  11.705   7.872 -0.3471 -0.1600 -0.1355
19812CNN    PA130024   3.142   8.007   6.829 -0.1451  0.2125 -0.0102
19812CNN    PA230025   3.229   8.089   7.067  0.3467 -0.0435 -0.0393
19812CNN    PA330026   3.030   8.102   7.184 -0.2610 -0.0493 -0.1208
19812CNN    PA430027   3.197   8.206   7.322 -0.2023 -0.0503  0.1905
19813CNN    PA130028  10.498   4.837   5.009 -0.0131  0.0872  0.1161
19813CNN    PA230029  10.600   4.737   5.223 -0.2506 -0.1558 -0.2146
19813CNN    PA330030  10.705   4.910   5.319 -0.2102  0.2440  0.0766
19813CNN    PA430031  10.713   4.728   5.488  0.3722 -0.1133 -0.2414
19814CNN    PA130032   2.147   7.609   3.317 -0.2103 -0.2856  0.2520
19814CNN    PA230033   2.264   7.488   3.157 -0.0756 -0.0012 -0.1279
19814CNN    PA330034   2.135   7.448   3.001  0.0516  0.3486  0.2687
19814CNN    PA430035   2.311   7.295   2.976 -0.0738  0.1356  0.0345
19815CNN    PA130036   6.179  12.972   9.573 -0.4188 -0.2635 -0.3756
19815CNN    PA230037   6.365  12.931   9.406  0.5071  0.2461 -0.2667
19815CNN    PA330038   6.490  12.781   9.514 -0.1708 -0.1414 -0.4590
19815CNN    PA430039   6.604  12.802   9.295 -0.2011  0.3639  0.4729
19816CNN    PA130040  10.900   3.685   6.820 -0.4188 -0.1725 -0.0286
19816CNN    PA230041  10.849   3.810   7.031 -0.2023  0.1222  0.1033
19816CNN    PA330042  10.992   3.978   7.030 -0.1957 -0.0906  0.0970
19816CNN    PA430043  10.929   3.952   7.248 -0.2519  0.3528  0.0582
19817CNN    PA130044   3.144  11.921   8.570  0.0047  0.4776  0.6451
19817CNN    PA230045   3.003  11.744   8.624  0.1350  0.1092  0.0360
19817CNN    PA330046   3.153  11.601   8.703  0.0516 -0.0834 -0.0721
19817CNN    PA430047   2.909  11.537   8.768 -0.1394  0.0352  0.1698
19818CNN    PA130048   9.361  14.976   5.709  0.3315 -0.2249  0.5481
19818CNN    PA230049   9.298  15.073   5.502 -0.3810 -0.3353  0.0086
19818CNN    PA330050   9.360  15.261   5.505 -0.0920 -0.3557  0.1619
19818CNN    PA430051   9.371  15.220   5.274 -0.3781  0.2947 -0.3489
19819CNN    PA130052  14.768   8.305   6.567  0.0742 -0.1276  0.1067
19819CNN    PA230053  14.959   8.166   6.608  0.1685  0.0115  0.1701
19819CNN    PA330054  14.875   7.943   6.581 -0.0375  0.0986 -0.5324
19819CNN    PA430055  15.111   7.962   6.661 -0.0130  0.2458 -0.6518
19820CNN    PA130056  13.145  13.235   6.470  0.1784  0.1432  0.0156
19820CNN    PA230057  13.166  13.330   6.246  0.1470  0.3441  0.0837
19820CNN    PA330058  13.003  13.472   6.264  0.1277 -0.2180  0.1712
19820CNN    PA430059  13.116  13.460   6.043  0.2563 -0.0629 -0.1317
19821CNN    PA130060   9.353   3.689   6.672  0.0856 -0.2237 -0.2392
19821CNN    PA230061   9.578   3.735   6.616 -0.0480 -0.2303 -0.3051
19821CNN    PA330062   9.610   3.933   6.726  0.1672  0.2445  0.1285
19821CNN    PA430063   9.819   3.932   6.628 -0.1752  0.0154 -0.1043
19822CNN    PA130064  12.139   1.447   7.050  0.2333 -0.1859 -0.1755
19822CNN    PA230065  12.069   1.691   7.022 -0.0948  0.3950 -0.2149
19822CNN    PA330066  12.038   1.749   7.239 -0.3122  0.0641  0.2278
19822CNN    PA430067  11.953   1.952   7.100 -0.2820  0.3099 -0.0260
19823CNN    PA130068   2.256  10.870   8.729 -0.1302 -0.1187 -0.5945
19823CNN    PA230069   2.046  10.898   8.832 -0.3669  0.0908  0.1043
19823CNN    PA330070   2.030  10.725   8.977 -0.2903  0.1167 -0.0162
19823CNN    PA430071   1.816  10.837   8.969  0.0254 -0.0329 -0.0040
19824CNN    PA130072   0.197   8.452   1.072  0.6083  0.2040  0.1229
19824CNN    PA230073   0.211   8.537   1.284  0.2703 -0.2433 -0.2142
19824CNN    PA330074   0.262   8.745   1.262 -0.0839  0.1934  0.0869
19824CNN    PA430075   0.211   8.711   1.525  0.1585 -0.0931 -0.1231
19825CNN    PA130076   7.156  14.993   4.264  0.1519  0.2794 -0.0844
19825CNN    PA230077   7.093  14.783   4.386 -0.2341  0.2144 -0.0118
19825CNN    PA330078   6.906  14.841   4.483  0.1568  0.2331 -0.0509
19825CNN    PA430079   6.978  14.620   4.577 -0.0820 -0.0889 -0.3139
19826CNN    PA130080   7.126   1.041   6.340 -0.0339  0.1058 -0.1991
19826CNN    PA230081   7.253   1.049   6.154 -0.7404  0.0177  0.1873
19826CNN    PA330082   7.341   1.257   6.163 -0.3583 -0.4683 -0.0547
19826CNN    PA430083   7.390   1.172   5.957 -0.2023  0.2697  0.0457
19827CNN    PA130084  11.394   7.075   0.293  0.0448  0.3570 -0.2663
19827CNN    PA230085  11.310   6.856   0.213  0.0879 -0.1669 -0.3162
19827CNN    PA330086  11.493   6.733   0.266 -0.0873  0.1449  0.0542
19827CNN    PA430087  11.306   6.601   0.219  0.4887 -0.4153  0.3513
19828CNN    PA130088   4.249   6.441   4.547 -0.4074 -0.0752 -0.2436
19828CNN    PA230089   4.320   6.462   4.798  0.0347 -0.1153 -0.0314
19828CNN    PA330090   4.324   6.697   4.847  0.0645  0.3626  0.5944
19828CNN    PA430091   4.421   6.608   5.025 -0.1570  0.4016  0.3322
19829CNN    PA130092  15.682   6.866   2.140  0.1396  0.5026 -0.0303
19829CNN    PA230093  15.712   6.881   2.379  0.1085 -0.4310  0.2701
19829CNN    PA330094  15.861   7.080   2.385 -0.1087 -0.1923  0.1519
19829CNN    PA430095  15.803   7.018   2.619  0.2146 -0.1663  0.0019
19830CNN    PA130096  13.977   6.363   7.045 -0.1148  0.3995 -0.1597
19830CNN    PA230097  14.138   6.520   6.933  0.0247 -0.2806  0.2620
19830CNN    PA330098  14.266   6.574   7.052  0.0274 -0.3224 -0.0786
19830CNN    PA430099  14.331   6.743   6.878  0.0822 -0.0370 -0.1278
19831CNN    PA130100   2.375   8.153   5.074  0.0841  0.2866  0.2218
19831CNN    PA230101   2.522   8.182   4.897 -0.1638  0.3184 -0.3029
19831CNN    PA330102   2.535   8.022   4.804 -0.0529 -0.1666 -0.2845
19831CNN    PA430103   2.679   8.188   4.647  0.2291 -0.2391  0.2253
19832CNN    PA130104   3.777   9.698   6.791 -0.0441 -0.4274  0.3070
19832CNN    PA230105   3.633   9.659   6.967 -0.4627  0.0715 -0.0629
19832CNN    PA330106   3.451   9.731   6.890 -0.6754  0.7863  0.1241
19832CNN    PA430107   3.399   9.708   7.105 -0.2439  0.2834  0.0945
19833CNN    PA130108  15.291   8.821   4.118  0.2282  0.0396  0.0779
19833CNN    PA230109  15.230   8.582   4.082  0.2152 -0.0024  0.0863
19833CNN    PA330110  15.369   8.527   3.915 -0.0617  0.0200  0.2045
19833CNN    PA430111  15.229   8.338   3.948  0.2706  0.6146 -0.0173
19834CNN    PA130112   8.438   2.981   8.075 -0.2327 -0.1640 -0.1994
19834CNN    PA230113   8.639   3.059   8.006 -0.0934  0.3552 -0.1438
19834CNN    PA330114   8.622   3.056   7.779  0.2826  0.3740 -0.2497
19834CNN    PA430115   8.859   3.040   7.805 -0.0131 -0.0518 -0.0000
19835CNN    PA130116  14.123   9.066  12.260 -0.0404  0.3729 -0.2802
19835CNN    PA230117  14.176   8.910  12.085 -0.2002 -0.0243  0.8895
19835CNN    PA330118  13.992   8.790  12.046  0.0564 -0.3081  0.0877
19835CNN    PA430119  14.166   8.690  11.892  0.0758  0.4624 -0.2882
19836CNN    PA130120  15.303   8.143   6.943 -0.3923  0.0545  0.2771
19836CNN    PA230121  15.437   8.324   7.068  0.0375  0.2949 -0.2637
19836CNN    PA330122  15.486   8.256   7.242  0.2093  0.0886  0.2460
19836CNN    PA430123  15.534   8.490   7.275  0.3682  0.0080  0.3342
19837CNN    PA130124   0.498  15.663   0.124 -0.0261  0.3023  0.2209
19837CNN    PA230125   0.660  15.506   0.017 -0.1436 -0.1622 -0.2152
19837CNN    PA330126   0.555  15.360  -0.054  0.2924  0.0184  0.1023
19837CNN    PA430127   0.782  15.281  -0.013  0.0797 -0.0231 -0.3846
19838CNN    PA130128  13.538   4.046   0.227 -0.4040 -0.0605 -0.1745
19838CNN    PA230129  13.664   3.863   0.341  0.3126  0.4300  0.2138
19838CNN    PA330130  13.512   3.806   0.483 -0.3639  0.1230 -0.1914
19838CNN    PA430131  13.623   3.584   0.403  0.2558 -0.1253  0.0005
19839CNN    PA130132   2.638  12.024   8.111  0.1250 -0.1838  0.1271
19839CNN    PA230133   2.857  12.077   8.217 -0.0934  0.1151 -0.0410
19839CNN    PA330134   2.831  12.050   8.461 -0.5251  0.2277  0.1139
19839CNN    PA430135   2.981  12.200   8.427 -0.7053 -0.0199  0.2909
19840CNN    PA130136   3.112   9.545   6.329 -0.2851  0.0985 -0.0930
19840CNN    PA230137   3.091   9.343   6.431  0.4576  0.3406  0.2999
19840CNN    PA330138   2.909   9.254   6.314 -0.0872 -0.1204  0.0039
19840CNN    PA430139   2.995   9.075   6.470 -0.0145 -0.3225 -0.1034
19841CNN    PA130140   1.629  15.282   8.631 -0.0522 -0.0255 -0.4125
19841CNN    PA230141   1.455  15.366   8.466 -0.4191  0.0106 -0.1936
19841CNN    PA330142   1.359  15.485   8.581 -0.3094  0.5429  0.4435
19841CNN    PA430143   1.260  15.556   8.367  0.1525 -0.0563 -0.6254
19842CNN    PA130144  15.102  10.589   5.908  0.1857 -0.1735  0.0250
19842CNN    PA230145  15.088  10.807   5.986 -0.1744  0.1670 -0.2253
19842CNN    PA330146  14.845  10.820   6.023 -0.3216 -0.1473 -0.3864
19842CNN    PA430147  14.980  11.029   6.048  0.0791 -0.0045 -0.0802
19843CNN    PA130148  10.387  11.399   5.031 -0.0391 -0.3836 -0.3548
19843CNN    PA230149  10.314  11.449   5.266 -0.0621 -0.0197 -0.3340
19843CNN    PA330150  10.499  11.416   5.370  0.1069 -0.1806 -0.6528
19843CNN    PA430151  10.325  11.464   5.548 -0.4587 -0.4720  0.0201
19844CNN    PA130152  15.027   8.030   8.128  0.5852 -0.0288 -0.1033
19844CNN    PA230153  15.131   7.998   8.345 -0.0299  0.2193 -0.0974
19844CNN    PA330154  15.291   7.871   8.302 -0.5381  0.0064 -0.2446
19844CNN    PA430155  15.316   7.908   8.526 -0.4406 -0.2687  0.1173
19845CNN    PA130156   4.282  13.792   5.098 -0.1507 -0.2283  0.4946
19845CNN    PA230157   4.403  13.579   5.082  0.0391 -0.1641  0.5883
19845CNN    PA330158   4.393  13.500   4.869  0.3937 -0.4003 -0.3228
19845CNN    PA430159   4.488  13.323   4.989 -0.1093 -0.1772 -0.2224
19846CNN    PA130160   5.714  10.386   9.954 -0.3250  0.0308  0.1815
19846CNN    PA230161   5.517  10.416   9.820 -0.2275  0.3055 -0.2961
19846CNN    PA330162   5.533  10.583   9.667 -0.0957 -0.0805 -0.0146
19846CNN    PA430163   5.329  10.490   9.632 -0.0627  0.3378 -0.0350
19847CNN    PA130164  12.327   7.939   9.264  0.0215 -0.1932  0.4181
19847CNN    PA230165  12.374   7.802   9.056  0.2393 -0.2840  0.1292
19847CNN    PA330166  12.178   7.842   8.948  0.0540 -0.1517  0.4222
19847CNN    PA430167  12.344   7.653   8.854 -0.2372  0.1500 -0.3092
19848CNN    PA130168   0.195   2.992  11.435  0.3414  0.9362 -0.1223
19848CNN    PA230169   0.224   3.165  11.576 -0.2405 -0.5948  0.0852
19848CNN    PA330170   0.197   3.105  11.788 -0.0064  0.0245 -0.2302
19848CNN    PA430171   0.223   3.322  11.800 -0.2288 -0.2046 -0.1202
19849CNN    PA130172   7.103  10.345   8.503 -0.0197 -0.1499  0.1933
19849CNN    PA230173   6.916  10.299   8.663 -0.2483 -0.2732  0.0290
19849CNN    PA330174   6.897  10.503   8.779  0.0358  0.0339 -0.0926
19849CNN    PA430175   6.707  10.329   8.823  0.0731  0.2076 -0.4912
19850CNN    PA130176   4.136   8.735   6.827  0.0557  0.0614  0.2542
19850CNN    PA230177   4.228   8.614   6.665  0.3635 -0.1168 -0.1842
19850CNN    PA330178   4.050   8.557   6.551 -0.0213  0.0402 -0.1123
19850CNN    PA430179   4.248   8.511   6.416  0.3706  0.1979  0.2127
19851CNN    PA130180   3.925   1.429   3.380  0.1197  0.1468 -0.0411
19851CNN    PA230181   3.927   1.539   3.574  0.3756 -0.2854 -0.0556
19851CNN    PA330182   4.054   1.704   3.541 -0.1785 -0.1335  0.1031
19851CNN    PA430183   3.919   1.764   3.735 -0.0235  0.1990 -0.1294
19852CNN    PA130184   6.442  14.408   8.211  0.1714 -0.7049 -0.6507
19852CNN    PA230185   6.515  14.497   8.423 -0.3739  0.1424 -0.2654
19852CNN    PA330186   6.559  14.290   8.537  0.5020 -0.3117  0.6773
19852CNN    PA430187   6.566  14.450   8.676 -0.0884  0.2086 -0.0163
19853CNN    PA130188  11.833   4.362   5.680 -0.0498 -0.0612 -0.0041
19853CNN    PA230189  11.872   4.127   5.737 -0.7089 -0.0553 -0.1710
19853CNN    PA330190  11.761   4.096   5.928  0.0111 -0.3615  0.1393
19853CNN    PA430191  11.837   3.884   5.876 -0.4738 -0.6163 -0.2350
19854CNN    PA130192  14.048   2.984   5.824  0.2209  0.2605  0.1662
19854CNN    PA230193  14.013   2.744   5.736 -0.1407 -0.5186  0.1063
19854CNN    PA330194  13.978   2.605   5.894 -0.1463  0.0753  0.4058
19854CNN    PA430195  14.050   2.469   5.703  0.0093  0.1852 -0.0228
19855CNN    PA130196   4.031   6.756   6.850 -0.0152  0.0764  0.2189
19855CNN    PA230197   4.199   6.790   6.666  0.0014 -0.0847  0.0976
19855CNN    PA330198   4.097   6.903   6.549  0.1002 -0.0527 -0.2397
19855CNN    PA430199   4.324   6.859   6.435 -0.2641 -0.2372 -0.0961
19856OST    PA130200   5.596   1.118   8.848 -0.0044  0.1743 -0.2105
19856OST    PA230201   5.623   0.828   9.064  0.0425  0.1998 -0.1120
19856OST    PA330202   5.329   0.797   9.057 -0.3082  0.4345  0.4880
19856OST    PA430203   5.678   0.643   9.044  0.3214  0.0073  0.0677
19856OST    PA530204   5.975   0.697   8.968  0.5218 -0.1969 -0.1639
19856OST    PA630205   5.971   0.909   9.031 -0.1394  0.2754 -0.0362
19857OST    PA130206  12.029   3.199  12.132 -0.2893 -0.0222 -0.0235
19857OST    PA230207  11.730   3.081  12.024 -0.0110 -0.0659  0.1581
19857OST    PA330208  11.637   3.296  12.162 -0.1289 -0.3684 -0.1453
19857OST    PA430209  11.570   2.940  12.096  0.1500 -0.0990  0.2145
19857OST    PA530210  11.766   2.700  12.058  0.1318  0.1655 -0.4086
19857OST    PA630211  11.898   2.792  11.936 -0.0566  0.0588 -0.0599
19858OST    PA130212  12.496   2.591  10.216 -0.0955  0.0985 -0.3153
19858OST    PA230213  12.845   2.486  10.277 -0.0671 -0.0983  0.0842
19858OST    PA330214  12.811   2.502  10.559  0.2619  0.4558 -0.0170
19858OST    PA430215  12.980   2.312  10.283  0.3038 -0.1003  0.4514
19858OST    PA530216  13.027   2.323   9.969  0.1169  0.0735 -0.3766
19858OST    PA630217  12.919   2.539   9.925  0.0193  0.2108 -0.1155
19859OST    PA130218   0.794  11.224   4.003 -0.3207 -0.2164  0.1823
19859OST    PA230219   0.731  10.952   3.786 -0.2355 -0.0301  0.2399
19859OST    PA330220   0.505  11.051   3.639  0.1410  0.1564  0.0080
19859OST    PA430221   0.698  10.732   3.752  0.1826  0.3194 -0.3731
19859OST    PA530222   0.990  10.657   3.806  0.2803  0.1912  0.1652
19859OST    PA630223   1.054  10.880   3.887  0.1582  0.0460  0.0527
19860OST    PA130224  15.291  12.548   9.450 -0.0496  0.0485 -0.0388
19860OST    PA230225  15.365  12.203   9.447 -0.2194 -0.3277 -0.1122
19860OST    PA330226  15.496  12.243   9.198  0.1954  0.3726 -0.6343
19860OST    PA430227  15.336  11.996   9.416 -0.0342  0.1967 -0.3444
19860OST    PA530228  15.034  11.996   9.554  0.1855 -0.1187  0.0911
19860OST    PA630229  15.029  12.190   9.602  0.0768 -0.3503  0.3214
19861OST    PA130230   5.749   7.069  11.381 -0.0945  0.2028  0.1917
19861OST    PA230231   5.952   7.084  11.098  0.2469 -0.0721 -0.0495
19861OST    PA330232   5.716   7.143  10.950 -0.0412 -0.1811  0.5168
19861OST    PA430233   6.048   7.015  10.950 -0.2257  0.4388  0.1371
19861OST    PA530234   6.321   7.019  11.116 -0.0528  0.2079 -0.4198
19861OST    PA630235   6.240   7.209  11.279 -0.0846  0.4305  0.1923
19862OST    PA130236   8.124  13.220  11.973  0.3707  0.0972 -0.1423
19862OST    PA230237   7.925  13.231  11.642  0.0198  0.4460 -0.0173
19862OST    PA330238   8.166  13.386  11.532  0.0116  0.3351  0.1292
19862OST    PA430239   7.790  13.349  11.561 -0.0684  0.2546  0.5408
19862OST    PA530240   7.548  13.202  11.717 -0.1981  0.2421  0.1292
19862OST    PA630241   7.689  13.028  11.783  0.0563  0.2081  0.0395
19863OST    PA130242  15.534   7.238  11.418  0.1803 -0.0532  0.1486
19863OST    PA230243  15.884   7.187  11.479  0.1241  0.0137 -0.1093
19863OST    PA330244  15.790   7.063  11.741 -0.0675  0.2640 -0.1511
19863OST    PA430245  16.051   7.142  11.505 -0.1468 -0.1374 -0.0795
19863OST    PA530246  16.106   7.101  11.190 -0.1419  0.3334 -0.1873
19863OST    PA630247  15.897   7.149  11.122 -0.4206  0.0743 -0.0769
19864OST    PA130248   8.732   9.597   4.001 -0.0493 -0.0514  0.0639
19864OST    PA230249   8.465   9.801   4.083 -0.1898 -0.4825  0.0789
19864OST    PA330250   8.613  10.048   4.022 -0.2318 -0.3246  0.4060
19864OST    PA430251   8.346   9.895   4.190  0.4286  0.1975  0.0111
19864OST    PA530252   8.170   9.630   4.260 -0.0251 -0.2142  0.1006
19864OST    PA630253   8.256   9.546   4.039 -0.2277  0.1880 -0.0267
19865OST    PA130254   1.274   0.080  11.966  0.0579  0.0981  0.1244
19865OST    PA230255   1.497   0.362  12.014 -0.5310 -0.0338 -0.0349
19865OST    PA330256   1.727   0.173  12.045 -0.0729  0.1449 -0.3391
19865OST    PA430257   1.625   0.488  11.893  0.4619 -0.2194  0.0007
19865OST    PA530258   1.393   0.652  11.791  0.2634 -0.6645 -0.1329
19865OST    PA630259   1.209   0.521  11.904 -0.1682  0.0534  0.0855
19866OST    PA130260  15.385   2.469  12.551  0.0264  0.1509  0.2826
19866OST    PA230261  15.324   2.283  12.242  0.1488 -0.0371 -0.0822
19866OST    PA330262  15.246   2.508  12.078  0.1580  0.1887 -0.2550
19866OST    PA430263  15.432   2.188  12.089  0.1493 -0.1068  0.1117
19866OST    PA530264  15.396   1.906  12.267  0.1887 -0.5081  0.1222
19866OST    PA630265  15.296   1.985  12.458  0.0110  0.0175  0.1142
19867OST    PA130266   4.809  15.051   2.052  0.1606 -0.0633  0.0907
19867OST    PA230267   4.874  14.729   2.212 -0.5681  0.2161  0.0587
19867OST    PA330268   5.144  14.806   2.098  0.0711 -0.2314 -0.0731
19867OST    PA430269   4.937  14.521   2.246  0.0071  0.0405  0.0760
19867OST    PA530270   4.673  14.477   2.413 -0.1464  0.3550 -0.0482
19867OST    PA630271   4.575  14.709   2.407 -0.3227 -0.2041  0.1155
19868OST    PA130272   8.295   8.186   3.332 -0.0446 -0.1339 -0.0570
19868OST    PA230273   8.622   8.156   3.371 -0.0969 -0.3609  0.1675
19868OST    PA330274   8.685   8.428   3.491  0.4056 -0.3233  0.0797
19868OST    PA430275   8.786   8.151   3.241 -0.3473 -0.2507  0.3198
19868OST    PA530276   8.746   7.849   3.208  0.5095 -0.2751 -0.5216
19868OST    PA630277   8.570   7.794   3.345  0.2614 -0.1692 -0.0244
19869OST    PA130278   5.188   7.396   1.350  0.0201 -0.0899 -0.0090
19869OST    PA230279   4.959   7.361   1.625  0.0892 -0.1035 -0.0576
19869OST    PA330280   4.959   7.062   1.574  0.3852 -0.1635 -0.0502
19869OST    PA430281   4.980   7.343   1.847 -0.2242  0.1002  0.2029
19869OST    PA530282   5.024   7.637   1.905 -0.0372 -0.0701  0.2031
19869OST    PA630283   5.019   7.726   1.666  0.2418  0.2515 -0.2108
19870OST    PA130284   6.012   4.262  13.750  0.1718 -0.1841  0.3077
19870OST    PA230285   5.764   4.535  13.811 -0.2452  0.1222 -0.1101
19870OST    PA330286   5.569   4.337  13.726 -0.3754 -0.2433 -0.1830
19870OST    PA430287   5.669   4.700  13.724 -0.1101 -0.1738  0.2019
19870OST    PA530288   5.924   4.875  13.667 -0.0007  0.1351  0.0289
19870OST    PA630289   6.087   4.716  13.735  0.0202  0.1635  0.2077
19871OST    PA130290  14.813   4.054  13.369 -0.0398 -0.2646  0.0921
19871OST    PA230291  14.681   3.725  13.425  0.0800  0.4002 -0.1171
19871OST    PA330292  14.405   3.796  13.338  0.0197  0.3312  0.3374
19871OST    PA430293  14.620   3.519  13.477  0.5494 -0.0749  0.2168
19871OST    PA530294  14.919   3.453  13.562  0.1819  0.3309 -0.0822
19871OST    PA630295  15.040   3.684  13.549 -0.0632 -0.0080 -0.1458
19872OST    PA130296   2.890  11.295   4.802  0.0233 -0.1379  0.2789
19872OST    PA230297   3.144  11.545   4.804  0.1563  0.2009 -0.2439
19872OST    PA330298   3.165  11.466   5.092  0.4136 -0.2634 -0.2733
19872OST    PA430299   3.332  11.571   4.779 -0.1756  0.1408  0.2510
19872OST    PA530300   3.279  11.733   4.490  0.1182  0.4688 -0.2704
19872OST    PA630301   3.046  11.734   4.533  0.3098 -0.1275  0.0689
19873OST    PA130302   2.700  14.986   4.327 -0.0657  0.1143 -0.0667
19873OST    PA230303   2.517  14.812   4.553 -0.0777  0.0156  0.0524
19873OST    PA330304   2.806  14.764   4.616  0.1440 -0.1071 -0.0294
19873OST    PA430305   2.450  14.643   4.585 -0.2816 -0.3077 -0.3790
19873OST    PA530306   2.210  14.591   4.428  0.4447  0.1580 -0.0748
19873OST    PA630307   2.228  14.832   4.340 -0.2449  0.5016 -0.0439
19874OST    PA130308   0.078   2.080   4.903 -0.1184  0.0842  0.2676
19874OST    PA230309   0.327   2.344   4.899 -0.0299 -0.2163  0.1995
19874OST    PA330310   0.585   2.204   4.949  0.4297  0.5156 -0.1211
19874OST    PA430311   0.415   2.472   4.774  0.5270  0.0074 -0.1196
19874OST    PA530312   0.111   2.603   4.690 -0.1791 -0.2311  0.0450
19874OST    PA630313   0.028   2.549   4.908 -0.1730 -0.2441  0.2162
19875OST    PA130314  13.115   9.848  11.622 -0.0930  0.0494 -0.0342
19875OST    PA230315  13.128   9.758  11.957  0.4448 -0.0771 -0.1663
19875OST    PA330316  13.286   9.497  11.907  0.1594 -0.4589  0.1421
19875OST    PA430317  13.222   9.799  12.101 -0.3362  0.0321 -0.0501
19875OST    PA530318  13.041  10.026  12.191  0.2176  0.0967 -0.3071
19875OST    PA630319  12.879  10.013  12.041 -0.0111 -0.0209  0.2248
19876OST    PA130320   0.665   8.880   1.254 -0.0129  0.1998 -0.1179
19876OST    PA230321   0.909   8.646   1.193 -0.2070 -0.1879  0.0195
19876OST    PA330322   0.911   8.596   1.500 -0.2036  0.2713  0.1442
19876OST    PA430323   1.094   8.582   1.170 -0.1606  0.1794 -0.0073
19876OST    PA530324   1.127   8.749   0.904 -0.1344 -0.1206 -0.3060
19876OST    PA630325   0.899   8.829   0.910 -0.1050  0.2521  0.1003
19877OST    PA130326  14.438  15.086   0.054  0.0348  0.0674 -0.2011
19877OST    PA230327  14.592  15.240  -0.250  0.1010 -0.4705  0.1106
19877OST    PA330328  14.734  15.411  -0.054 -0.5017 -0.0364  0.7458
19877OST    PA430329  14.599  15.388  -0.409 -0.1504  0.0426 -0.1076
19877OST    PA530330  14.429  15.216  -0.598  0.4625 -0.2689 -0.0656
19877OST    PA630331  14.440  15.028  -0.435 -0.5286  0.2438  0.5880
19878OST    PA130332   1.709   6.929   7.739  0.1396 -0.1310 -0.0768
19878OST    PA230333   1.685   7.041   8.081 -0.5092  0.1089 -0.1550
19878OST    PA330334   1.897   6.813   8.113 -0.0792 -0.1253  0.1095
19878OST    PA430335   1.744   7.144   8.236  0.0885 -0.4966  0.4517
19878OST    PA530336   1.625   7.433   8.098  0.3228 -0.0102  0.0954
19878OST    PA630337   1.535   7.304   7.908  0.1383 -0.0048 -0.0357
19879OST    PA130338   2.005  12.369   1.304  0.3999  0.1573  0.2290
19879OST    PA230339   2.296  12.142   1.325 -0.4401 -0.3552  0.0606
19879OST    PA330340   2.167  12.008   1.124 -0.6311  0.0479  0.2498
19879OST    PA430341   2.494  12.064   1.293 -0.2136 -0.3443  0.0156
19879OST    PA530342   2.658  12.263   1.486  0.2851 -0.6750  0.0724
19879OST    PA630343   2.445  12.379   1.557  0.0840 -0.0536  0.1310
19880OST    PA130344   8.517  12.634   0.454 -0.2457  0.2554 -0.0272
19880OST    PA230345   8.445  12.367   0.204  0.4413 -0.0836 -0.4119
19880OST    PA330346   8.198  12.284   0.344 -0.0179  0.3982  0.0030
19880OST    PA430347   8.450  12.231   0.093 -0.1147 -0.0980 -0.0397
19880OST    PA530348   8.755  12.177  -0.012  0.1227 -0.3645 -0.0824
19880OST    PA630349   8.789  12.403   0.128 -0.4459  0.0966 -0.0628
19881OST    PA130350  12.307  15.491   2.501 -0.1550 -0.0638 -0.1544
19881OST    PA230351  12.065  15.734   2.445 -0.3292  0.0678  0.0699
19881OST    PA330352  11.869  15.563   2.553 -0.0352  0.0014  0.3302
19881OST    PA430353  11.959  15.897   2.454  0.0194  0.3855 -0.3567
19881OST    PA530354  12.139  16.068   2.294 -0.0589 -0.2474  0.3273
19881OST    PA630355  12.315  15.918   2.229 -0.0827  0.1835  0.2438
19882OST    PA130356   8.632   8.735   3.867 -0.2463  0.0351  0.2070
19882OST    PA230357   8.647   8.391   3.999  0.3449  0.0273 -0.1320
19882OST    PA330358   8.881   8.430   4.172  0.0670 -0.1343 -0.2053
19882OST    PA430359   8.712   8.190   3.938 -0.0600  0.0754 -0.2790
19882OST    PA530360   8.464   8.221   3.720  0.1469 -0.1386 -0.1764
19882OST    PA630361   8.354   8.397   3.778  0.1313  0.0596  0.0924
19883OST    PA130362   7.846   6.167  10.534 -0.0686 -0.1702 -0.0461
19883OST    PA230363   8.095   6.410  10.401  0.0386  0.0053 -0.1964
19883OST    PA330364   7.984   6.494  10.147  0.0946  0.0520  0.0517
19883OST    PA430365   8.124   6.572  10.489  0.2208 -0.1076 -0.1533
19883OST    PA530366   8.361   6.445  10.637 -0.3914  0.3705 -0.0012
19883OST    PA630367   8.347   6.209  10.547  0.0932  0.1059 -0.0304
19884OST    PA130368   4.431   9.789  13.642 -0.1679 -0.0281 -0.1179
19884OST    PA230369   4.535   9.463  13.512  0.0314  0.0662  0.0313
19884OST    PA330370   4.751   9.479  13.705 -0.1130 -0.0403 -0.3341
19884OST    PA430371   4.567   9.282  13.468  0.1467  0.1512  0.0649
19884OST    PA530372   4.300   9.265  13.265 -0.2717  0.0583  0.5494
19884OST    PA630373   4.263   9.481  13.316  0.0742 -0.2599 -0.0119
19885OST    PA130374  11.304   9.543  12.784 -0.2695 -0.1212 -0.0118
19885OST    PA230375  11.482   9.842  12.737 -0.1106 -0.0761 -0.3359
19885OST    PA330376  11.294  10.038  12.819  0.1379  0.0887  0.0034
19885OST    PA430377  11.600   9.957  12.631 -0.0862  0.3592  0.2340
19885OST    PA530378  11.872   9.801  12.704 -0.0052 -0.4804 -0.4521
19885OST    PA630379  11.760   9.664  12.906  0.6681 -0.2478  0.1152
19886OST    PA130380  14.373  15.318   0.555 -0.2031  0.0872  0.1190
19886OST    PA230381  14.132  15.276   0.303  0.1927  0.2838 -0.2596
19886OST    PA330382  14.130  14.972   0.376 -0.0334  0.4124 -0.0203
19886OST    PA430383  14.009  15.245   0.157  0.1294 -0.2687 -0.1885
19886OST    PA530384  13.954  15.534   0.187  0.2981 -0.4979 -0.0239
19886OST    PA630385  14.000  15.597   0.389 -0.1330 -0.0590  0.2376
19887OST    PA130386   7.745  13.369   9.146  0.2841 -0.0485 -0.3281
19887OST    PA230387   7.806  13.076   8.942  0.1517  0.0261 -0.0915
19887OST    PA330388   8.060  13.159   8.828  0.1216 -0.2252 -0.1450
19887OST    PA430389   7.737  12.976   8.792  0.1119  0.3661  0.0695
19887OST    PA530390   7.486  12.818   8.924 -0.0491  0.3136 -0.0613
19887OST    PA630391   7.521  12.930   9.130 -0.3292  0.0885  0.0671
19888OST    PA130392  10.483   1.897   8.641  0.1139  0.1455  0.0158
19888OST    PA230393  10.456   2.064   8.962 -0.1661  0.5119 -0.0895
19888OST    PA330394  10.659   1.989   9.169 -0.1362 -0.0961  0.2860
19888OST    PA430395  10.292   2.055   9.098 -0.0841  0.2361  0.0667
19888OST    PA530396  10.112   2.273   8.962 -0.1315  0.1143 -0.2632
19888OST    PA630397  10.270   2.315   8.784  0.1258  0.1230 -0.1024
19889OST    PA130398   8.251   0.651   3.212 -0.0882  0.0635  0.1781
19889OST    PA230399   8.211   0.494   2.878 -0.1237  0.0912  0.0713
19889OST    PA330400   8.229   0.746   2.717  0.0970  0.2938 -0.0494
19889OST    PA430401   8.325   0.398   2.735 -0.0280 -0.1483 -0.2184
19889OST    PA530402   8.404   0.124   2.921 -0.1365 -0.0916 -0.2386
19889OST    PA630403   8.287   0.217   3.100 -0.0633 -0.3112  0.2319
19890OST    PA130404   9.439   7.444  12.941 -0.2632 -0.3510  0.3624
19890OST    PA230405   9.174   7.404  12.727  0.0537  0.2916  0.3904
19890OST    PA330406   9.319   7.585  12.574  0.3409  0.3858 -0.3981
19890OST    PA430407   9.141   7.265  12.567 -0.0025 -0.5222  0.4051
19890OST    PA530408   9.157   7.015  12.726  0.0993  0.3805  0.0441
19890OST    PA630409   9.134   7.120  12.929 -0.0214  0.0902  0.1619
19891OST    PA130410  14.762  10.396   3.102 -0.0681 -0.1087 -0.1182
19891OST    PA230411  14.965  10.282   2.849  0.1652 -0.0225 -0.1720
19891OST    PA330412  14.872   9.995   2.863  0.2580 -0.3325  0.1372
19891OST    PA430413  15.025  10.277   2.683  0.2033  0.2193  0.0661
19891OST    PA530414  15.173  10.556   2.669 -0.0241 -0.1553 -0.3950
19891OST    PA630415  15.028  10.630   2.845 -0.0292 -0.1866  0.0136
19892OST    PA130416   8.801   2.351   2.376  0.2252  0.0423 -0.3361
19892OST    PA230417   8.745   2.024   2.496  0.0103 -0.2119 -0.2739
19892OST    PA330418   8.507   2.104   2.635  0.5852 -0.1412 -0.3219
19892OST    PA430419   8.664   1.840   2.431  0.0600  0.2182  0.0493
19892OST    PA530420   8.930   1.758   2.243 -0.0690 -0.2541  0.5657
19892OST    PA630421   9.034   1.950   2.262  0.1422 -0.0535 -0.0554
19893OST    PA130422  15.257   7.577  12.430  0.5292 -0.2845  0.0178
19893OST    PA230423  15.101   7.320  12.235  0.4623  0.0899  0.0530
19893OST    PA330424  14.980   7.576  12.104  0.1616  0.0717  0.1286
19893OST    PA430425  14.950   7.210  12.225  0.1272 -0.1324 -0.4033
19893OST    PA530426  15.141   6.959  12.288  0.0795  0.1029 -0.1614
19893OST    PA630427  15.361   7.069  12.323 -0.4831 -0.2536 -0.0116
19894OST    PA130428   3.521  11.651   5.187 -0.0467  0.2031  0.1612
19894OST    PA230429   3.492  11.313   5.110 -0.0648  0.1983  0.1704
19894OST    PA330430   3.659  11.372   4.866 -0.3022  0.3593 -0.2618
19894OST    PA430431   3.386  11.187   5.017 -0.1487 -0.1818 -0.3373
19894OST    PA530432   3.211  11.149   5.295 -0.2520 -0.1393 -0.1580
19894OST    PA630433   3.361  11.296   5.409 -0.1364  0.0331 -0.2640
19895OST    PA130434  12.319  13.144  11.616 -0.0347 -0.2070  0.0571
19895OST    PA230435  12.098  13.060  11.896 -0.3696 -0.0835 -0.1956
19895OST    PA330436  12.055  12.778  11.787  0.0496  0.0990 -0.2839
19895OST    PA430437  11.997  13.011  12.071  0.5723 -0.2271  0.4797
19895OST    PA530438  12.133  13.231  12.243 -0.7181  0.1343  0.2020
19895OST    PA630439  12.302  13.307  12.069 -0.2877  0.0485  0.1030
19896OST    PA130440  11.085   9.001  11.830 -0.0572 -0.0023 -0.0422
19896OST    PA230441  10.773   8.863  11.733  0.1669 -0.2787  0.1119
19896OST    PA330442  10.849   8.743  11.464 -0.0434 -0.3342 -0.3709
19896OST    PA430443  10.677   8.719  11.800 -0.2324 -0.1257  0.4208
19896OST    PA530444  10.582   8.794  12.071  0.0729  0.3165 -0.3085
19896OST    PA630445  10.680   9.013  12.076 -0.1378 -0.2189 -0.1903
19897OST    PA130446   8.209   2.749  13.278  0.2973 -0.2137 -0.1739
19897OST    PA230447   8.293   2.572  12.996  0.0732  0.2551  0.2378
19897OST    PA330448   8.260   2.839  12.915 -0.4763  0.0891  0.4546
19897OST    PA430449   8.249   2.498  12.807  0.1768 -0.0027  0.1756
19897OST    PA530450   8.100   2.248  12.910 -0.0265  0.4296  0.0790
19897OST    PA630451   8.105   2.265  13.132 -0.0647 -0.3577 -0.0468
19898OST    PA130452   1.715  13.035   2.541  0.0229  0.0845 -0.0619
19898OST    PA230453   1.820  13.356   2.449 -0.2604 -0.1165 -0.2248
19898OST    PA330454   1.676  13.355   2.189  0.3577  0.3699  0.1171
19898OST    PA430455   1.796  13.535   2.492  0.1176  0.2849  0.3782
19898OST    PA530456   1.916  13.589   2.778 -0.5867  0.2364 -0.1271
19898OST    PA630457   1.999  13.343   2.768 -0.0631 -0.0174 -0.0710
19899OST    PA130458   3.477   3.983  10.386 -0.1487  0.0844 -0.1524
19899OST    PA230459   3.417   3.964  10.040 -0.1067 -0.3185  0.3220
19899OST    PA330460   3.163   4.099  10.044  0.1442 -0.1318  0.0782
19899OST    PA430461   3.400   3.893   9.840 -0.2977 -0.1808  0.2958
19899OST    PA530462   3.687   3.933   9.781 -0.0899 -0.4853 -0.3004
19899OST    PA630463   3.760   4.004   9.986 -0.0593  0.0088  0.1522
19900OST    PA130464   8.926  11.128   4.803 -0.4996 -0.1334  0.2968
19900OST    PA230465   8.978  11.424   4.603 -0.1122  0.0618 -0.1459
19900OST    PA330466   9.267  11.491   4.653 -0.1935  0.2932  0.1324
19900OST    PA430467   8.963  11.521   4.444  0.0116 -0.2158  0.2264
19900OST    PA530468   8.674  11.564   4.478  0.5729 -0.3127 -0.0311
19900OST    PA630469   8.615  11.471   4.678  0.3700 -0.1662  0.1896
19901OST    PA130470   0.169   8.014   8.032  0.0615  0.1175 -0.0022
19901OST    PA230471   0.499   7.895   8.054  0.0898 -0.3447  0.0066
19901OST    PA330472   0.460   7.792   8.340 -0.1507  0.7027  0.2349
19901OST    PA430473   0.677   7.776   8.015 -0.0061 -0.1221  0.1774
19901OST    PA530474   0.724   7.836   7.723 -0.0723  0.3845  0.0405
19901OST    PA630475   0.497   7.969   7.692  0.0373  0.0486 -0.1162
19902OST    PA130476   7.301   6.132   0.968  0.0663  0.0849 -0.0155
19902OST    PA230477   7.190   6.102   0.642 -0.0164 -0.0635  0.1493
19902OST    PA330478   7.254   6.361   0.533  0.0983  0.3258  0.0371
19902OST    PA430479   7.234   6.000   0.480 -0.0594  0.0683 -0.0990
19902OST    PA530480   7.117   5.730   0.607  0.2017 -0.1279  0.5411
19902OST    PA630481   7.011   5.825   0.779 -0.2554  0.0053 -0.2905
19903OST    PA130482   2.771   9.738  11.658 -0.2266 -0.0256 -0.0091
19903OST    PA230483   2.856   9.987  11.878 -0.3590  0.2380  0.2367
19903OST    PA330484   2.827   9.810  12.101 -0.0376 -0.1906 -0.2355
19903OST    PA430485   2.786  10.126  11.978 -0.1065 -0.2849  0.2144
19903OST    PA530486   2.819  10.367  11.737  0.0335 -0.0203 -0.0134
19903OST    PA630487   2.973  10.244  11.637  0.2789 -0.4760 -0.2560
19904OST    PA130488  10.411   1.846  13.457  0.1504  0.0404 -0.1059
19904OST    PA230489  10.124   1.641  13.453  0.2471 -0.1665 -0.3604
19904OST    PA330490  10.295   1.502  13.269 -0.0033  0.3227 -0.1747
19904OST    PA430491  10.059   1.483  13.534  0.0944 -0.2758 -0.4422
19904OST    PA530492  10.016   1.659  13.831 -0.3055  0.6126  0.2937
19904OST    PA630493  10.091   1.831  13.733  0.0459  0.2295  0.1050
19905OST    PA130494   6.400  15.115  13.003 -0.0773  0.4007  0.2775
19905OST    PA230495   6.573  14.945  13.262  0.0327  0.5275  0.3548
19905OST    PA330496   6.892  14.948  13.364  0.5478  0.1613 -0.0544
19905OST    PA430497   6.512  14.954  13.447  0.1010  0.4471 -0.1424
19905OST    PA530498   6.270  14.753  13.440 -0.2137 -0.5892  0.0668
19905OST    PA630499   6.280  14.711  13.216 -0.0263  0.0596  0.1291
19906OST    PA130500   7.294  11.819   5.173 -0.0227 -0.2118 -0.2002
19906OST    PA230501   7.118  11.764   4.877  0.1202 -0.4113 -0.4287
19906OST    PA330502   6.870  11.615   4.957 -0.0589 -0.4448  0.4451
19906OST    PA430503   7.159  11.657   4.711  0.2359  0.0035 -0.2710
19906OST    PA530504   7.300  11.888   4.549 -0.3215  0.2940 -0.2794
19906OST    PA630505   7.275  12.037   4.728 -0.2501 -0.1057 -0.2518
19907OST    PA130506  14.092   7.972   1.402  0.2077  0.3210 -0.2651
19907OST    PA230507  13.971   7.686   1.241  0.0567 -0.1492  0.2731
19907OST    PA330508  13.803   7.559   1.443 -0.0684  0.2191 -0.1900
19907OST    PA430509  13.910   7.567   1.094  0.0930  0.2283 -0.1033
19907OST    PA530510  14.012   7.630   0.832 -0.0887  0.0210  0.2045
19907OST    PA630511  14.172   7.793   0.932 -0.2716  0.0127 -0.0218
19908OST    PA130512  13.703   5.325   9.185 -0.1079  0.0848 -0.0114
19908OST    PA230513  13.426   5.086   9.239  0.2952 -0.2180 -0.0418
19908OST    PA330514  13.329   5.075   8.960  0.1132  0.0582  0.1006
19908OST    PA430515  13.379   4.912   9.278 -0.3322  0.1480  0.0247
19908OST    PA530516  13.406   4.968   9.613  0.2146 -0.2855  0.4641
19908OST    PA630517  13.439   5.213   9.574  0.2043  0.1449  0.1860
19909OST    PA130518   0.758   7.299  11.785  0.0273  0.1489 -0.0433
19909OST    PA230519   1.040   7.430  11.601 -0.1972 -0.0787 -0.2293
19909OST    PA330520   0.925   7.646  11.467  0.1449 -0.2661 -0.3887
19909OST    PA430521   1.214   7.520  11.623 -0.2764  0.1363  0.2546
19909OST    PA530522   1.370   7.226  11.680  0.0822 -0.0646 -0.2478
19909OST    PA630523   1.200   7.113  11.682  0.1520 -0.2246 -0.2987
19910OST    PA130524   0.931   8.112   1.152  0.0185  0.2796  0.0738
19910OST    PA230525   0.762   8.288   0.914  0.0858 -0.6404 -0.1372
19910OST    PA330526   0.556   8.338   1.142 -0.2994 -0.0534 -0.0915
19910OST    PA430527   0.702   8.446   0.819  0.3096 -0.0077  0.1715
19910OST    PA530528   0.717   8.274   0.548 -0.3506 -0.3078  0.0939
19910OST    PA630529   0.760   8.072   0.658 -0.0040  0.0031  0.2611
19911OST    PA130530  12.613   8.460   0.066  0.0323  0.0175 -0.0491
19911OST    PA230531  12.438   8.769  -0.038  0.3438  0.0536  0.4736
19911OST    PA330532  12.153   8.741   0.057 -0.0612  0.3518  0.6522
19911OST    PA430533  12.393   8.924  -0.185  0.2159  0.1000 -0.3236
19911OST    PA530534  12.695   9.061  -0.238 -0.1604 -0.1500 -0.2588
19911OST    PA630535  12.796   8.881  -0.118  0.0110 -0.1120 -0.3483
19912OST    PA130536   6.819   9.005   4.651  0.1986  0.3441 -0.0545
19912OST    PA230537   6.949   8.828   4.375 -0.2541  0.1669  0.0809
19912OST    PA330538   6.726   8.870   4.170  0.0639 -0.0518  0.1727
19912OST    PA430539   7.041   8.676   4.269 -0.4987 -0.1097  0.0404
19912OST    PA530540   7.303   8.723   4.445  0.3542 -0.3742  0.2409
19912OST    PA630541   7.252   8.918   4.553  0.1212  0.1746  0.5743
19913OST    PA130542  11.802  11.238   1.426 -0.1314  0.3245 -0.0855
19913OST    PA230543  11.824  11.407   1.745  0.0618 -0.1224 -0.0792
19913OST    PA330544  11.779  11.189   1.901  0.5517 -0.1436  0.0484
19913OST    PA430545  11.870  11.531   1.899 -0.0596  0.1289 -0.2630
19913OST    PA530546  11.951  11.827   1.792 -0.7154  0.3113 -0.0509
19913OST    PA630547  11.923  11.703   1.554 -0.1422  0.0759  0.0266
19914OST    PA130548   6.833  13.355   0.772  0.1026  0.3476 -0.1585
19914OST    PA230549   6.878  13.056   0.599 -0.4047 -0.3452  0.2464
19914OST    PA330550   6.793  12.887   0.828 -0.3159 -0.3148 -0.0223
19914OST    PA430551   7.035  12.919   0.511  0.4775 -0.2240 -0.2002
19914OST    PA530552   7.118  13.074   0.238  0.1681 -0.2089 -0.6052
19914OST    PA630553   6.975  13.256   0.342  0.0151  0.0752  0.0276
19915OST    PA130554  15.311   2.835   1.577 -0.2444  0.2600 -0.3716
19915OST    PA230555  15.371   3.183   1.473 -0.0106  0.1101  0.3400
19915OST    PA330556  15.674   3.194   1.568 -0.1843 -0.3029  0.2299
19915OST    PA430557  15.400   3.300   1.317  0.0226  0.0847 -0.4666
19915OST    PA530558  15.069   3.383   1.366  0.0959  0.3410 -0.1619
19915OST    PA630559  15.034   3.218   1.559 -0.2641 -0.2622 -0.4314
19916OST    PA130560  13.910   8.451  12.434 -0.0525 -0.2301  0.0076
19916OST    PA230561  13.960   8.164  12.217 -0.1069 -0.1052  0.1441
19916OST    PA330562  14.056   8.003  12.450  0.2156 -0.2508  0.2709
19916OST    PA430563  13.925   8.007  12.105  0.1940 -0.1072  0.7046
19916OST    PA530564  13.926   8.169  11.829  0.0202  0.3330 -0.1903
19916OST    PA630565  13.923   8.390  11.946  0.1300 -0.0762 -0.1224
19917OST    PA130566  13.333   7.148  12.092 -0.0558  0.2891 -0.0540
19917OST    PA230567  13.284   7.338  11.789  0.0912 -0.4711  0.3274
19917OST    PA330568  13.277   7.120  11.603  0.1258 -0.5381  0.1609
19917OST    PA430569  13.340   7.503  11.645 -0.6397 -0.0663  0.2463
19917OST    PA530570  13.191   7.723  11.769  0.0420 -0.1669 -0.0571
19917OST    PA630571  13.142   7.589  11.978 -0.0887 -0.2733 -0.4003
19918OST    PA130572   0.962   1.764  11.530 -0.0917 -0.1855 -0.0592
19918OST    PA230573   1.119   1.957  11.275  0.0550 -0.2434  0.1164
19918OST    PA330574   1.123   2.198  11.472  0.0401  0.3175 -0.0672
19918OST    PA430575   1.097   2.070  11.093  0.1405  0.1797  0.1014
19918OST    PA530576   1.076   1.764  10.959 -0.2590  0.0834 -0.1277
19918OST    PA630577   1.077   1.623  11.115 -0.0568  0.1625 -0.0047
19919OST    PA130578   1.312  10.656   4.568 -0.1104  0.3629 -0.1223
19919OST    PA230579   1.388  10.991   4.543  0.0419 -0.0106 -0.5236
19919OST    PA330580   1.501  10.956   4.828  0.1035 -0.3757  0.2244
19919OST    PA430581   1.322  11.178   4.588  0.0786 -0.0934  0.0389
19919OST    PA530582   1.149  11.254   4.348  0.0296 -0.2724 -0.1065
19919OST    PA630583   1.159  11.015   4.249 -0.2665  0.0775 -0.1735
19920OST    PA130584  13.930   4.683   2.295 -0.1269  0.1840  0.2210
19920OST    PA230585  14.210   4.747   2.091 -0.0776 -0.0293 -0.0644
19920OST    PA330586  14.087   4.677   1.835 -0.7462  0.1111  0.4586
19920OST    PA430587  14.369   4.643   2.059 -0.1706  0.1160 -0.0399
19920OST    PA530588  14.549   4.845   2.234 -0.2237  0.0221 -0.2110
19920OST    PA630589  14.359   4.986   2.274  0.2935  0.1157  0.1978
19921OST    PA130590   1.560  12.466   1.362  0.1565  0.2929  0.0554
19921OST    PA230591   1.438  12.300   1.642 -0.1276 -0.2423 -0.4949
19921OST    PA330592   1.539  12.080   1.499 -0.3887  0.1369  0.0368
19921OST    PA430593   1.383  12.212   1.821 -0.1731  0.6256 -0.0285
19921OST    PA530594   1.336  12.516   1.932  0.1582  0.0074 -0.2597
19921OST    PA630595   1.368  12.662   1.738 -0.2153 -0.0936 -0.4086
19922OST    PA130596   2.747  12.582  11.815 -0.1183 -0.1719  0.0533
19922OST    PA230597   2.824  12.940  11.875 -0.0229  0.2357 -0.0012
19922OST    PA330598   2.645  12.961  11.647  0.0899  0.3809 -0.1889
19922OST    PA430599   2.867  13.103  11.897  0.0161  0.0470  0.1497
19922OST    PA530600   3.088  13.062  12.122 -0.4921  0.3266 -0.2110
19922OST    PA630601   3.048  12.833  12.125 -0.0432  0.2132  0.1802
19923OST    PA130602   9.680   6.847   8.420  0.3975 -0.0691 -0.4202
19923OST    PA230603   9.949   6.721   8.643  0.0472 -0.2489 -0.5070
19923OST    PA330604   9.863   6.472   8.531  0.0496  0.0911  0.2037
19923OST    PA430605  10.105   6.682   8.693 -0.0935  0.5178  0.1806
19923OST    PA530606  10.214   6.957   8.783  0.0957 -0.2335  0.2151
19923OST    PA630607  10.003   7.056   8.774  0.0705  0.0331 -0.1816
19924OST    PA130608  11.439   8.690  10.837  0.0771 -0.1907 -0.0094
19924OST    PA230609  11.208   8.781  10.577  0.4057  0.4457 -0.3045
19924OST    PA330610  11.097   8.514  10.650  0.0193  0.0267  0.2403
19924OST    PA430611  11.192   8.743  10.378 -0.1401 -0.5270 -0.1453
19924OST    PA530612  11.403   8.984  10.346  0.0679  0.1777 -0.5235
19924OST    PA630613  11.443   9.036  10.573  0.2622 -0.1522 -0.1377
19925OST    PA130614   7.745  14.519   3.512 -0.1181  0.1737  0.1776
19925OST    PA230615   7.962  14.475   3.795 -0.8147 -0.2070 -0.2492
19925OST    PA330616   7.842  14.247   3.889 -0.0003  0.7626  0.3129
19925OST    PA430617   8.141  14.424   3.917 -0.1446  0.0894 -0.0520
19925OST    PA530618   8.250  14.736   3.878 -0.2075  0.0153  0.0328
19925OST    PA630619   8.073  14.804   3.740 -0.1998  0.3609 -0.1697
19926OST    PA130620  14.892   3.982   0.987  0.3022  0.3762 -0.2853
19926OST    PA230621  14.771   3.752   1.228 -0.1620  0.1356 -0.1886
19926OST    PA330622  14.760   3.519   1.023  0.0198 -0.1619 -0.1693
19926OST    PA430623  14.770   3.622   1.371 -0.0794 -0.1524 -0.3209
19926OST    PA530624  14.736   3.808   1.623  0.2905  0.0651  0.3416
19926OST    PA630625  14.763   3.992   1.479 -0.1805  0.0394 -0.0779
19927OST    PA130626   5.338   1.429   9.184  0.1965 -0.0570 -0.2156
19927OST    PA230627   5.441   1.598   8.855 -0.2580  0.4912 -0.0520
19927OST    PA330628   5.725   1.524   8.911 -0.5921  0.0346  0.0743
19927OST    PA430629   5.472   1.649   8.701  0.1125 -0.2796 -0.0828
19927OST    PA530630   5.221   1.877   8.699 -0.0380  0.1145  0.0374
19927OST    PA630631   5.120   1.771   8.894 -0.0025 -0.1210  0.0274
19928OST    PA130632   9.084   2.767   2.518  0.0538 -0.2961 -0.1172
19928OST    PA230633   9.299   2.702   2.245 -0.2636 -0.3872 -0.0808
19928OST    PA330634   9.474   2.544   2.434 -0.2319  0.0500 -0.1424
19928OST    PA430635   9.443   2.708   2.117  0.1710  0.0046  0.1165
19928OST    PA530636   9.253   2.867   1.913 -0.0427  0.1508 -0.3099
19928OST    PA630637   9.057   2.875   2.041 -0.0170 -0.0040  0.0628
19929OST    PA130638   4.248  11.164   4.736 -0.3739 -0.0784 -0.1990
19929OST    PA230639   4.262  10.840   4.871 -0.3544 -0.0659 -0.2720
19929OST    PA330640   4.540  10.969   4.962 -0.0735  0.3573  0.3350
19929OST    PA430641   4.246  10.683   5.010 -0.3813 -0.3588  0.0525
19929OST    PA530642   3.934  10.681   4.903  0.0460  0.3250 -0.4923
19929OST    PA630643   3.963  10.814   4.738  0.4585  0.1891 -0.0617
19930OST    PA130644  11.844   1.155   3.251 -0.0847  0.4270  0.3999
19930OST    PA230645  11.842   1.280   2.909  0.0049 -0.2881 -0.0090
19930OST    PA330646  11.570   1.243   2.793  0.0349  0.4059  0.3685
19930OST    PA430647  11.884   1.448   2.760  0.3997  0.1491  0.2432
19930OST    PA530648  12.198   1.485   2.831  0.2957 -0.2780 -0.0502
19930OST    PA630649  12.199   1.316   2.968 -0.2609 -0.1128  0.0551
19931OST    PA130650  13.676   6.034  10.919 -0.0625 -0.0802 -0.2181
19931OST    PA230651  13.864   6.321  10.869  0.2306 -0.0387  0.0808
19931OST    PA330652  13.825   6.390  11.143 -0.4981 -0.2860 -0.0568
19931OST    PA430653  14.011   6.463  10.822 -0.3573  0.3293  0.1196
19931OST    PA530654  14.009   6.363  10.521 -0.3998  0.4672 -0.0897
19931OST    PA630655  13.849   6.195  10.532  0.0551  0.1829 -0.0780
19932OST    PA130656   9.675   0.237   0.026 -0.0514 -0.1733 -0.1048
19932OST    PA230657   9.768  -0.122   0.073  0.0402  0.0505  0.0439
19932OST    PA330658   9.492  -0.234   0.070 -0.4693  0.0973 -0.2344
19932OST    PA430659   9.863  -0.286   0.143  0.0618 -0.0718 -0.0709
19932OST    PA530660  10.160  -0.216   0.007 -0.0970 -0.1200  0.0511
19932OST    PA630661  10.116   0.014  -0.010 -0.1007 -0.0364 -0.0311
19933OST    PA130662   4.501  15.169   2.446 -0.0268  0.0913  0.3634
19933OST    PA230663   4.248  14.972   2.609  0.5434  0.1108 -0.1880
19933OST    PA330664   4.204  14.810   2.349 -0.0281 -0.1577 -0.1174
19933OST    PA430665   4.205  14.814   2.735  0.3561 -0.0277 -0.1612
19933OST    PA530666   4.186  15.036   2.973 -0.2535  0.1729 -0.0604
19933OST    PA630667   4.249  15.248   2.857  0.0742  0.6082 -0.0514
19934OST    PA130668   5.090  14.334   1.626 -0.0501 -0.2186  0.0768
19934OST    PA230669   5.217  14.636   1.760  0.0957  0.2758  0.0892
19934OST    PA330670   5.052  14.890   1.724 -0.1105  0.3926  0.0804
19934OST    PA430671   5.370  14.730   1.771 -0.0462  0.0049 -0.1723
19934OST    PA530672   5.485  14.522   1.975  0.3024 -0.0253  0.0325
19934OST    PA630673   5.303  14.376   2.009  0.1292 -0.2673 -0.1707
19935OST    PA130674   5.606   2.155  11.718  0.1453 -0.0348 -0.0462
19935OST    PA230675   5.459   2.151  11.428  0.3904 -0.0657 -0.0698
19935OST    PA330676   5.543   2.440  11.377  0.2894 -0.1456 -0.1631
19935OST    PA430677   5.328   2.135  11.255 -0.3006 -0.0182 -0.2893
19935OST    PA530678   5.089   1.980  11.366  0.1180  0.0114  0.3173
19935OST    PA630679   5.198   1.972  11.578 -0.1040  0.2936 -0.0082
19936OST    PA130680   4.493   1.725   2.238 -0.0045  0.0982  0.2541
19936OST    PA230681   4.414   2.080   2.163  0.0262  0.0626 -0.4247
19936OST    PA330682   4.344   1.925   1.920 -0.2174 -0.2922  0.3227
19936OST    PA430683   4.314   2.244   2.099  0.1908  0.0675  0.2362
19936OST    PA530684   4.194   2.329   2.387  0.2204  0.2158  0.3428
19936OST    PA630685   4.279   2.150   2.508 -0.0153 -0.1189  0.2154
19937OST    PA130686   5.046  15.072   2.525 -0.1072 -0.2135  0.1751
19937OST    PA230687   4.939  15.086   2.852 -0.4063 -0.1806  0.0538
19937OST    PA330688   5.240  15.096   2.877  0.2864 -0.0456 -0.2388
19937OST    PA430689   4.920  15.086   3.075  0.2267  0.0124  0.1180
19937OST    PA530690   4.670  14.910   3.037 -0.0535  0.2106  0.0364
19937OST    PA630691   4.635  14.892   2.803 -0.2950  0.0761  0.1998
19938OST    PA130692   9.495   5.501   3.979 -0.2786 -0.2827 -0.2234
19938OST    PA230693   9.772   5.417   4.182  0.0979 -0.2895  0.2680
19938OST    PA330694   9.952   5.293   3.975  0.0034 -0.0904 -0.5071
19938OST    PA430695   9.906   5.471   4.331  0.1165  0.0475  0.1097
19938OST    PA530696   9.708   5.393   4.580  0.0190 -0.3658 -0.3343
19938OST    PA630697   9.548   5.330   4.448 -0.3587 -0.3071  0.0144
19939OST    PA130698   9.420   8.723  11.461  0.0283  0.0844  0.2573
19939OST    PA230699   9.659   8.962  11.397 -0.2381 -0.0315  0.0252
19939OST    PA330700   9.603   8.954  11.080 -0.3155 -0.0153  0.1271
19939OST    PA430701   9.858   8.987  11.358 -0.0382 -0.2322 -0.5337
19939OST    PA530702  10.001   8.940  11.632  0.4063  0.2449  0.1684
19939OST    PA630703   9.771   8.936  11.747  0.0866 -0.0014 -0.2626
19940OST    PA130704   6.517   8.588   4.797  0.1364 -0.0873  0.0008
19940OST    PA230705   6.555   8.511   4.456 -0.4245 -0.1063 -0.2240
19940OST    PA330706   6.800   8.362   4.515 -0.0802 -0.3452 -0.2079
19940OST    PA430707   6.578   8.501   4.253 -0.4322 -0.3592 -0.1375
19940OST    PA530708   6.397   8.718   4.169  0.1061 -0.0334  0.1398
19940OST    PA630709   6.340   8.778   4.397  0.1652  0.0607 -0.0570
19941OST    PA130710   6.298   9.412   5.462  0.2708  0.3220 -0.1790
19941OST    PA230711   6.241   9.452   5.083 -0.3464  0.1589 -0.2482
19941OST    PA330712   6.011   9.628   5.075 -0.2878  0.0007  0.3203
19941OST    PA430713   6.233   9.386   4.919 -0.1486  0.2082  0.1406
19941OST    PA530714   6.557   9.295   4.880 -0.1859 -0.3721  0.2787
19941OST    PA630715   6.596   9.411   5.110  0.1120  0.1060 -0.0889
19942OST    PA130716   2.465   1.463  10.974  0.4208  0.0470 -0.4311
19942OST    PA230717   2.651   1.768  10.910  0.0053  0.0726  0.0743
19942OST    PA330718   2.865   1.680  10.715  0.2989  0.2354 -0.3941
19942OST    PA430719   2.622   1.952  10.827  0.1305 -0.0953  0.0186
19942OST    PA530720   2.472   2.043  11.084  0.8098  0.4059 -0.3155
19942OST    PA630721   2.448   1.838  11.208  0.1981  0.3008 -0.1388
19943OST    PA130722  10.942  10.348  10.318  0.0063  0.2414  0.0393
19943OST    PA230723  10.961  10.423  10.001  0.2471 -0.0766  0.0030
19943OST    PA330724  11.202  10.541  10.088 -0.0315 -0.1111  0.2406
19943OST    PA430725  11.014  10.409   9.813 -0.0198  0.1237  0.1131
19943OST    PA530726  10.756  10.236   9.704 -0.3509 -0.3278 -0.1433
19943OST    PA630727  10.659  10.237   9.889 -0.3734 -0.0615 -0.6630
19944OST    PA130728   6.077  14.378  12.019  0.3213 -0.3049 -0.1727
19944OST    PA230729   6.061  14.537  11.703  0.1172  0.2228  0.0077
19944OST    PA330730   6.106  14.776  11.887  0.0828 -0.4063 -0.4955
19944OST    PA430731   6.110  14.606  11.553  0.0309 -0.0316 -0.2897
19944OST    PA530732   6.040  14.377  11.337  0.5033 -0.2388  0.2314
19944OST    PA630733   5.941  14.247  11.498 -0.0775 -0.0079  0.1484
19945OST    PA130734  12.440   8.940   2.441 -0.2427  0.4142  0.0097
19945OST    PA230735  12.123   8.961   2.553  0.1036 -0.1334 -0.1144
19945OST    PA330736  12.010   9.071   2.310  0.1823 -0.1652 -0.2689
19945OST    PA430737  11.948   8.854   2.615  0.2214 -0.0648  0.1737
19945OST    PA530738  12.080   8.775   2.925 -0.1094 -0.0306  0.3799
19945OST    PA630739  12.271   8.926   2.876  0.1507 -0.1138 -0.0773
19946OST    PA130740   6.304   0.738   2.720  0.2761  0.2295  0.0496
19946OST    PA230741   6.247   0.406   2.899  0.0232 -0.1048  0.1690
19946OST    PA330742   6.488   0.458   3.068 -0.0035 -0.0717  0.2923
19946OST    PA430743   6.122   0.331   3.073 -0.2911 -0.1580  0.1703
19946OST    PA530744   5.877   0.328   2.842  0.0018  0.0323 -0.4487
19946OST    PA630745   5.970   0.415   2.656  0.3590 -0.1732  0.0857
19947OST    PA130746   0.036   1.031   9.325  0.2166  0.1324  0.3726
19947OST    PA230747  -0.168   0.735   9.397  0.3562 -0.2285  0.1582
19947OST    PA330748  -0.251   0.705   9.667  0.3468  0.4007 -0.2726
19947OST    PA430749  -0.180   0.506   9.359  0.0637 -0.3356 -0.2625
19947OST    PA530750  -0.207   0.562   9.066  0.0088 -0.3673  0.0600
19947OST    PA630751  -0.346   0.794   9.081  0.1167 -0.0298  0.1113
19948OST    PA130752  12.569   7.461  12.556  0.1068 -0.1584  0.0314
19948OST    PA230753  12.300   7.712  12.475 -0.1381 -0.2242 -0.1491
19948OST    PA330754  12.425   7.737  12.175 -0.1228 -0.0587 -0.2888
19948OST    PA430755  12.155   7.827  12.445  0.1587  0.0435 -0.0040
19948OST    PA530756  12.058   7.883  12.720 -0.1121 -0.0821  0.0556
19948OST    PA630757  12.259   7.767  12.816 -0.2657  0.1596 -0.0857
19949OST    PA130758   7.486   6.807  13.752  0.0408  0.0206  0.1334
19949OST    PA230759   7.377   6.458  13.758 -0.2419  0.0744  0.1832
19949OST    PA330760   7.202   6.528  13.490 -0.1025 -0.4982 -0.4960
19949OST    PA430761   7.238   6.370  13.842 -0.1615 -0.0120 -0.1396
19949OST    PA530762   7.492   6.299  14.053 -0.1138  0.1587 -0.2309
19949OST    PA630763   7.644   6.325  13.942 -0.3253 -0.0368  0.1129
19950OST    PA130764  11.530   7.905  13.326 -0.2432 -0.0514 -0.0794
19950OST    PA230765  11.911   7.931  13.398  0.2683  0.1968 -0.2369
19950OST    PA330766  12.069   8.036  13.172  0.3632 -0.0336 -0.1886
19950OST    PA430767  12.066   7.854  13.519 -0.1850 -0.1534  0.0852
19950OST    PA530768  11.909   7.843  13.823  0.2856  0.4704  0.2951
19950OST    PA630769  11.762   8.007  13.716  0.0809  0.0091 -0.0031
19951OST    PA130770   3.093   3.829   2.223 -0.0477 -0.0424  0.2568
19951OST    PA230771   3.181   4.145   2.372  0.1479  0.1813  0.4420
19951OST    PA330772   3.228   4.058   2.634 -0.2878 -0.4306 -0.1586
19951OST    PA430773   3.270   4.303   2.398 -0.0750 -0.2891 -0.2567
19951OST    PA530774   3.120   4.407   2.148  0.0259  0.0516  0.0929
19951OST    PA630775   2.972   4.258   2.064  0.0401  0.1382  0.2170
19952OST    PA130776  15.484  12.028   9.843  0.1025  0.4698  0.0615
19952OST    PA230777  15.700  12.264   9.735  0.2432  0.1312  0.3660
19952OST    PA330778  15.721  12.174   9.428 -0.1166  0.0970  0.1609
19952OST    PA430779  15.698  12.450   9.678 -0.0610 -0.0681 -0.0573
19952OST    PA530780  15.723  12.580   9.950 -0.1364 -0.3002 -0.1669
19952OST    PA630781  15.734  12.360  10.079 -0.2523  0.1930 -0.1321
19953OST    PA130782   2.240   7.633   5.006 -0.2998 -0.0207 -0.1409
19953OST    PA230783   2.224   7.772   4.676  0.0744 -0.2346 -0.2346
19953OST    PA330784   2.142   8.058   4.750  0.5455 -0.0063 -0.2115
19953OST    PA430785   2.274   7.826   4.494 -0.5593 -0.1795 -0.0096
19953OST    PA530786   2.223   7.575   4.329 -0.2966  0.2406  0.0937
19953OST    PA630787   2.193   7.435   4.496  0.2187 -0.3132 -0.1923
19954OST    PA130788  14.208   6.868   2.487  0.1409  0.2424  0.0080
19954OST    PA230789  14.422   7.112   2.630 -0.2918  0.1839  0.0483
19954OST    PA330790  14.212   7.169   2.829 -0.0775  0.0616 -0.0430
19954OST    PA430791  14.552   7.259   2.696 -0.1917 -0.1602  0.0436
19954OST    PA530792  14.804   7.115   2.520 -0.2234  0.1408 -0.3164
19954OST    PA630793  14.681   6.961   2.443 -0.0597  0.1714 -0.0417
19955OST    PA130794  12.594  10.909   1.749 -0.3209 -0.2484  0.1109
19955OST    PA230795  12.359  11.154   1.644  0.0494  0.5875  0.0805
19955OST    PA330796  12.552  11.338   1.739  0.1771 -0.0885  0.2135
19955OST    PA430797  12.176  11.256   1.701 -0.3554 -0.2325  0.1859
19955OST    PA530798  11.985  10.997   1.709  0.0416 -0.1199 -0.0908
19955OST    PA630799  12.162  10.827   1.647 -0.1025 -0.1852  0.0884
19956OST    PA130800  12.831  10.414   1.048  0.0299 -0.0261  0.0015
19956OST    PA230801  13.098  10.577   1.208 -0.3632 -0.2310 -0.0116
19956OST    PA330802  12.975  10.607   1.470  0.5240 -0.1731 -0.2228
19956OST    PA430803  13.261  10.653   1.269 -0.3796  0.1507 -0.0116
19956OST    PA530804  13.371  10.566   0.975  0.1716 -0.1987  0.1069
19956OST    PA630805  13.196  10.524   0.851  0.2100  0.1465  0.0620
19957OST    PA130806   8.059  14.342   0.767  0.3878  0.0057  0.3869
19957OST    PA230807   8.134  14.005   0.733 -0.0775 -0.1521  0.1328
19957OST    PA330808   8.403  14.068   0.806  0.1721 -0.2539  0.1124
19957OST    PA430809   8.176  13.889   0.572  0.1257 -0.0899 -0.2793
19957OST    PA530810   7.876  13.805   0.541  0.4069  0.2115 -0.1252
19957OST    PA630811   7.793  13.972   0.713 -0.1398  0.0381  0.1823
19958OST    PA130812  13.312   8.084  12.107  0.1035 -0.1816 -0.0469
19958OST    PA230813  13.073   8.305  12.220  0.1052 -0.0022  0.1283
19958OST    PA330814  13.108   8.207  12.494  0.2872 -0.1662 -0.0202
19958OST    PA430815  12.880   8.395  12.252  0.1685 -0.1466  0.0718
19958OST    PA530816  12.872   8.605  12.003  0.1190  0.0878  0.4267
19958OST    PA630817  13.106   8.529  11.942 -0.0754 -0.2813 -0.3343
19959OST    PA130818   4.653   7.997   9.411  0.1080 -0.0652  0.2495
19959OST    PA230819   4.804   7.862   9.701  0.1687 -0.2862  0.2390
19959OST    PA330820   5.063   7.835   9.575 -0.3809 -0.1435  0.1884
19959OST    PA430821   4.861   7.838   9.880 -0.3621 -0.0610  0.1787
19959OST    PA530822   4.592   7.872  10.050 -0.0783 -0.0088 -0.1255
19959OST    PA630823   4.487   7.832   9.864 -0.2525 -0.1046 -0.0731
19960OST    PA130824   7.118   0.619   1.886  0.0918 -0.2477  0.0293
19960OST    PA230825   7.167   0.886   1.660  0.2695  0.2484  0.1015
19960OST    PA330826   6.959   1.025   1.805  0.0276 -0.4818  0.0413
19960OST    PA430827   7.142   0.979   1.458  0.0734 -0.3042 -0.1593
19960OST    PA530828   7.410   0.850   1.335  0.2286 -0.0536 -0.1318
19960OST    PA630829   7.434   0.707   1.506  0.1197 -0.2702 -0.1352
19961OST    PA130830   6.981   7.907   9.205  0.1841 -0.3353 -0.3197
19961OST    PA230831   7.024   7.822   8.893 -0.2142  0.2122 -0.1448
19961OST    PA330832   6.888   7.578   8.943  0.5570  0.4478  0.4672
19961OST    PA430833   7.183   7.711   8.810  0.1421  0.1084  0.2230
19961OST    PA530834   7.355   7.976   8.814  0.0383  0.1058  0.2057
19961OST    PA630835   7.193   8.128   8.888 -0.1595  0.1338  0.0673
19962OST    PA130836   8.627  10.842   9.816 -0.3416  0.1089 -0.0427
19962OST    PA230837   8.404  11.084   9.720 -0.1649 -0.0414 -0.2221
19962OST    PA330838   8.668  11.229   9.678  0.0483 -0.1787  0.0388
19962OST    PA430839   8.324  11.143   9.540  0.0730  0.0486  0.0027
19962OST    PA530840   8.036  10.968   9.550 -0.1555  0.2008 -0.1415
19962OST    PA630841   8.119  10.857   9.733  0.4668  0.0108 -0.3506
19963OST    PA130842  11.276  11.272   1.900 -0.0483  0.1034  0.3453
19963OST    PA230843  11.450  11.254   2.227 -0.1083  0.0804 -0.0135
19963OST    PA330844  11.596  11.003   2.121 -0.0486  0.2144  0.0373
19963OST    PA430845  11.639  11.350   2.263  0.0333 -0.0679  0.2164
19963OST    PA530846  11.439  11.576   2.382 -0.3811 -0.1520  0.0657
19963OST    PA630847  11.252  11.550   2.388 -0.0969  0.1948  0.1118
19964OST    PA130848  10.944   5.793  13.661  0.4614  0.0400  0.2857
19964OST    PA230849  11.166   5.956  13.888  0.2628  0.2139  0.2436
19964OST    PA330850  10.987   5.890  14.091  0.6162  0.2113 -0.3722
19964OST    PA430851  11.199   6.133  13.947  0.2119 -0.1732 -0.0425
19964OST    PA530852  11.404   6.158  13.694  0.1928  0.4074 -0.1946
19964OST    PA630853  11.390   5.944  13.618  0.0547 -0.3110  0.2043
19965OST    PA130854   8.154   8.890   4.568  0.1830  0.0495 -0.2510
19965OST    PA230855   7.958   8.664   4.731 -0.1751  0.0896  0.0935
19965OST    PA330856   8.222   8.606   4.916  0.2639 -0.0361 -0.0832
19965OST    PA430857   7.835   8.641   4.869 -0.0089  0.0011 -0.1495
19965OST    PA530858   7.593   8.636   4.632  0.0568  0.4135  0.1818
19965OST    PA630859   7.726   8.644   4.449  0.3818 -0.0217 -0.0080
19966OST    PA130860  13.427   8.557  12.355 -0.2321 -0.1539  0.2369
19966OST    PA230861  13.269   8.555  12.674 -0.2067  0.0132  0.0389
19966OST    PA330862  13.076   8.685  12.490 -0.0290  0.3744  0.0038
19966OST    PA430863  13.205   8.638  12.842 -0.0386  0.0347  0.1750
19966OST    PA530864  13.469   8.734  12.926 -0.1905  0.4500 -0.4033
19966OST    PA630865  13.604   8.617  12.817 -0.0193  0.0972 -0.1721
19967OST    PA130866  13.646   3.433   4.528 -0.2818  0.0525  0.0487
19967OST    PA230867  13.535   3.131   4.368  0.1105  0.0964  0.3965
19967OST    PA330868  13.525   3.004   4.611 -0.3069  0.0953 -0.1663
19967OST    PA430869  13.598   2.950   4.253 -0.0631 -0.0431  0.0122
19967OST    PA530870  13.615   3.085   3.973 -0.5899 -0.0840  0.3687
19967OST    PA630871  13.562   3.305   4.028 -0.0031  0.2600  0.4138
19968OST    PA130872   0.440  12.226   9.296 -0.1897 -0.1014 -0.0975
19968OST    PA230873   0.372  12.386   9.616 -0.2016  0.5419 -0.0047
19968OST    PA330874   0.270  12.635   9.533 -0.0020  0.0166  0.0432
19968OST    PA430875   0.346  12.381   9.801  0.3955  0.1548  0.1492
19968OST    PA530876   0.585  12.177   9.900 -0.2322 -0.1349 -0.0475
19968OST    PA630877   0.657  12.158   9.643  0.0447 -0.0418 -0.2838
19969OST    PA130878   6.435  13.414   4.944  0.2932  0.1480 -0.3160
19969OST    PA230879   6.178  13.434   4.726 -0.0534 -0.0536 -0.2161
19969OST    PA330880   5.925  13.573   4.857 -0.0349  0.2686 -0.2837
19969OST    PA430881   6.070  13.315   4.591 -0.1620  0.3616  0.1619
19969OST    PA530882   6.306  13.148   4.431  0.2404 -0.1641 -0.0991
19969OST    PA630883   6.463  13.323   4.519  0.1165  0.0021  0.2869
19970OST    PA130884  14.895   8.383  11.820 -0.2530 -0.2078 -0.5321
19970OST    PA230885  14.835   8.535  12.136 -0.0601  0.2437 -0.0788
19970OST    PA330886  15.043   8.435  12.324 -0.0985  0.6564  0.1149
19970OST    PA430887  14.882   8.711  12.192 -0.0313  0.1450 -0.3007
19970OST    PA530888  14.632   8.855  12.078  0.3322  0.3988  0.0546
19970OST    PA630889  14.564   8.652  11.972 -0.2241 -0.2761  0.3000
19971OST    PA130890   1.241   3.031  11.076 -0.0093 -0.1192  0.0897
19971OST    PA230891   1.053   2.792  11.275  0.2276  0.1704  0.2587
19971OST    PA330892   0.996   3.037  11.375 -0.5184  0.0802 -0.3526
19971OST    PA430893   1.158   2.715  11.458  0.0381  0.1864 -0.2009
19971OST    PA530894   1.301   2.505  11.277 -0.0133  0.0653  0.4983
19971OST    PA630895   1.222   2.556  11.053 -0.1528  0.2846 -0.0734
19972OST    PA130896  11.349   1.548   1.042  0.1331  0.0995  0.1213
19972OST    PA230897  11.629   1.487   1.255  0.1217  0.3861 -0.1610
19972OST    PA330898  11.407   1.467   1.479  0.1708  0.2497 -0.1178
19972OST    PA430899  11.793   1.443   1.371 -0.0508 -0.0583 -0.2759
19972OST    PA530900  11.982   1.556   1.155 -0.2238 -0.6244  0.0315
19972OST    PA630901  11.796   1.614   0.963  0.1393 -0.1182  0.1731
19973OST    PA130902   1.471  11.361   0.869 -0.0580 -0.0793  0.0709
19973OST    PA230903   1.257  11.512   1.117 -0.1607 -0.0507 -0.0252
19973OST    PA330904   1.439  11.433   1.321 -0.3938 -0.1138 -0.4575
19973OST    PA430905   1.092  11.549   1.238 -0.2167  0.0956  0.2414
19973OST    PA530906   0.896  11.668   1.028 -0.1139 -0.1383  0.2795
19973OST    PA630907   1.090  11.623   0.839 -0.1000  0.0995 -0.1861
19974OST    PA130908  14.549   4.341   3.683  0.1170 -0.1055 -0.0141
19974OST    PA230909  14.374   4.577   3.888  0.0508  0.1800 -0.0861
19974OST    PA330910  14.570   4.750   3.893 -0.0014 -0.1794  0.1388
19974OST    PA430911  14.286   4.634   4.081 -0.2442  0.1237 -0.0139
19974OST    PA530912  14.008   4.482   3.991  0.3331 -0.0402 -0.0512
19974OST    PA630913  14.054   4.482   3.775 -0.0608  0.0796 -0.2246
19975OST    PA130914  13.681   3.461   1.298  0.2618 -0.1213 -0.3238
19975OST    PA230915  13.866   3.141   1.351  0.0316 -0.0884 -0.0100
19975OST    PA330916  14.039   3.271   1.561  0.2229  0.0977  0.2641
19975OST    PA430917  13.990   2.995   1.320 -0.0968 -0.0357 -0.1179
19975OST    PA530918  13.916   2.945   1.013  0.0868  0.2497 -0.1837
19975OST    PA630919  13.707   3.061   1.024  0.1286 -0.0953  0.0529
19976OST    PA130920   5.201   5.868   8.978  0.1119 -0.0357  0.4390
19976OST    PA230921   5.374   5.549   8.942 -0.0391  0.0267  0.0187
19976OST    PA330922   5.171   5.394   8.781  0.1297 -0.1008  0.0608
19976OST    PA430923   5.477   5.392   9.014 -0.2642 -0.1109 -0.4094
19976OST    PA530924   5.762   5.537   9.013 -0.1438 -0.0765  0.2280
19976OST    PA630925   5.687   5.726   8.938 -0.0716 -0.2316  0.2035
19977OST    PA130926  12.251   0.599   4.294  0.3009 -0.1097  0.1629
19977OST    PA230927  12.507   0.362   4.330  0.0191 -0.0886 -0.0035
19977OST    PA330928  12.377   0.330   4.587  0.1073  0.5221  0.0646
19977OST    PA430929  12.682   0.249   4.351  0.5433 -0.0096  0.0634
19977OST    PA530930  12.690   0.200   4.037  0.0025  0.0008 -0.0235
19977OST    PA630931  12.512   0.313   3.965  0.0297 -0.4836 -0.7646
19978OST    PA130932  15.244  12.304  12.430  0.1715  0.4484 -0.4162
19978OST    PA230933  15.494  12.541  12.296  0.1975  0.1779 -0.2127
19978OST    PA330934  15.385  12.587  12.015 -0.3336  0.1804 -0.2318
19978OST    PA430935  15.676  12.588  12.270  0.2334  0.1841 -0.3143
19978OST    PA530936  15.696  12.700  12.580 -0.5287  0.1320  0.0520
19978OST    PA630937  15.457  12.673  12.612  0.2110 -0.4354  0.1011
19979OST    PA130938   7.211   5.895  13.152 -0.0803 -0.0005 -0.0604
19979OST    PA230939   6.898   5.840  13.315  0.3241 -0.1107  0.1837
19979OST    PA330940   6.815   5.583  13.294  0.3678  0.1374  0.1254
19979OST    PA430941   6.699   5.912  13.325 -0.4483 -0.0872  0.0498
19979OST    PA530942   6.800   6.166  13.496  0.2523  0.3726  0.1332
19979OST    PA630943   7.025   6.091  13.537  0.5169  0.2233 -0.2278
19980OST    PA130944   8.866   4.542  11.512 -0.2812  0.1141 -0.0530
19980OST    PA230945   8.667   4.233  11.608 -0.1352  0.1963 -0.2999
19980OST    PA330946   8.690   4.168  11.308  0.4653  0.0476 -0.1718
19980OST    PA430947   8.459   4.172  11.618 -0.3171 -0.2052  0.4106
19980OST    PA530948   8.452   4.318  11.900  0.1195 -0.0605 -0.2114
19980OST    PA630949   8.651   4.379  11.923  0.4433 -0.2552  0.2336
19981OST    PA130950  12.051   7.404   8.926 -0.3465 -0.2049  0.0597
19981OST    PA230951  11.963   7.559   9.234  0.2227  0.1792  0.2671
19981OST    PA330952  12.201   7.406   9.293 -0.2863  0.0226  0.3236
19981OST    PA430953  12.003   7.700   9.323  0.0001 -0.1189 -0.1132
19981OST    PA530954  11.673   7.745   9.373 -0.0272 -0.1532 -0.2849
19981OST    PA630955  11.589   7.558   9.271  0.1232 -0.1087 -0.0167
19982OST    PA130956   2.568   4.695   2.632  0.0858 -0.2376  0.0886
19982OST    PA230957   2.728   4.897   2.895  0.2816  0.0982  0.1220
19982OST    PA330958   2.881   4.661   3.007 -0.1570  0.1239 -0.0187
19982OST    PA430959   2.724   4.991   3.064  0.4369 -0.4350  0.0137
19982OST    PA530960   2.415   5.125   3.108  0.2529  0.1722  0.3413
19982OST    PA630961   2.382   5.038   2.879 -0.2466 -0.1205  0.2969
19983OST    PA130962   0.721   5.796   9.582 -0.1172 -0.0197 -0.2294
19983OST    PA230963   1.048   5.651   9.654 -0.2046  0.1361  0.2652
19983OST    PA330964   1.115   5.698   9.944  0.0335  0.2101 -0.2661
19983OST    PA430965   1.162   5.476   9.640  0.3433  0.1664 -0.1820
19983OST    PA530966   1.212   5.528   9.317 -0.5350 -0.4530 -0.1103
19983OST    PA630967   1.096   5.751   9.322 -0.0013  0.2678 -0.0136
19984OST    PA130968  12.860   8.132  10.469  0.0514 -0.0905  0.0908
19984OST    PA230969  12.745   7.982  10.159  0.0036 -0.0276  0.1331
19984OST    PA330970  12.515   8.159  10.054  0.2359 -0.1175  0.3394
19984OST    PA430971  12.723   7.836  10.013  0.1540 -0.3222 -0.3724
19984OST    PA530972  12.720   7.578  10.151  0.5019  0.3584 -0.4571
19984OST    PA630973  12.754   7.662  10.379  0.0046 -0.1473 -0.3998
19985OST    PA130974  13.738   4.210  11.118  0.2071 -0.0130  0.0730
19985OST    PA230975  14.060   4.270  10.925  0.0759 -0.2566 -0.0975
19985OST    PA330976  14.037   4.092  10.697  0.2213  0.3535  0.0371
19985OST    PA430977  14.241   4.351  10.854  0.0427 -0.2115  0.0666
19985OST    PA530978  14.280   4.606  11.038  0.1933  0.1564  0.3107
19985OST    PA630979  14.051   4.584  11.115  0.2869  0.1359 -0.1501
19986OST    PA130980  12.887   7.250  12.232 -0.0735  0.2374  0.1062
19986OST    PA230981  12.569   7.242  12.145 -0.3628  0.2126 -0.1152
19986OST    PA330982  12.614   7.427  11.920 -0.4473  0.2403 -0.1113
19986OST    PA430983  12.416   7.114  12.047  0.2806 -0.1820  0.0037
19986OST    PA530984  12.372   6.951  12.304  0.0918 -0.2694 -0.2397
19986OST    PA630985  12.502   7.044  12.423 -0.1909 -0.1267 -0.0398
19987OST    PA130986  14.137   2.660   0.345 -0.2174 -0.1380  0.0491
19987OST    PA230987  14.234   2.884   0.601  0.0322  0.0074  0.2932
19987OST    PA330988  13.957   2.993   0.556 -0.4322 -0.0829 -0.2239
19987OST    PA430989  14.257   2.912   0.784  0.0482 -0.0522  0.2714
19987OST    PA530990  14.576   2.887   0.799  0.2221 -0.2601  0.3267
19987OST    PA630991  14.566   2.910   0.533 -0.2581  0.3114  0.2063
19988OST    PA130992   7.587   9.118   2.681  0.1526 -0.1463 -0.1099
19988OST    PA230993   7.799   9.379   2.775 -0.1616 -0.0231 -0.0288
19988OST    PA330994   7.600   9.569   2.644 -0.3082  0.0290  0.0092
19988OST    PA430995   7.913   9.515   2.870 -0.1533 -0.5705 -0.4148
19988OST    PA530996   7.997   9.312   3.131  0.0534 -0.0673  0.4367
19988OST    PA630997   7.884   9.144   3.019  0.0717 -0.2192 -0.0550
19989OST    PA130998   3.898   3.498   9.743 -0.0552  0.1527 -0.1602
19989OST    PA230999   4.213   3.629   9.672  0.2502  0.0861  0.0483
19989OST    PA331000   4.260   3.569   9.376  0.0843 -0.1871 -0.2568
19989OST    PA431001   4.373   3.609   9.708  0.2497 -0.3145 -0.4089
19989OST    PA531002   4.391   3.845   9.926 -0.1660  0.2674  0.2791
19989OST    PA631003   4.164   3.911   9.902  0.0539  0.1071  0.0698
19990OST    PA131004   0.836   3.030  12.335 -0.1207  0.1409  0.2508
19990OST    PA231005   0.498   3.034  12.334 -0.1940  0.0766 -0.0700
19990OST    PA331006   0.380   3.067  12.616  0.4323 -0.3863 -0.3450
19990OST    PA431007   0.329   3.085  12.224 -0.0450  0.1374 -0.3490
19990OST    PA531008   0.308   2.851  12.015 -0.1456 -0.0299  0.2079
19990OST    PA631009   0.529   2.757  12.055  0.3272  0.0094 -0.1662
19991OST    PA131010   6.809  14.802   8.578 -0.0852  0.1488  0.3219
19991OST    PA231011   6.593  15.051   8.522 -0.0350 -0.1914 -0.1390
19991OST    PA331012   6.488  14.917   8.287  0.4588  0.4316 -0.2858
19991OST    PA431013   6.409  15.157   8.556  0.5362 -0.2717  0.1128
19991OST    PA531014   6.549  15.398   8.701  0.0910  0.1169 -0.0476
19991OST    PA631015   6.766  15.318   8.605 -0.1026 -0.1442  0.1086
19992OST    PA131016   4.058   0.273  13.422 -0.0126 -0.0983  0.1036
19992OST    PA231017   4.011   0.236  13.777  0.0170 -0.2533  0.0445
19992OST    PA331018   4.258   0.401  13.760  0.3818 -0.1537 -0.1881
19992OST    PA431019   3.989   0.230  13.953  0.1094  0.0449 -0.1613
19992OST    PA531020   3.833  -0.047  13.941  0.2827  0.4222  0.0219
19992OST    PA631021   3.811  -0.033  13.686 -0.0326  0.0403  0.1926
19993OST    PA131022  11.071   6.886  13.662  0.1735 -0.0174 -0.0677
19993OST    PA231023  11.060   6.520  13.594  0.1354 -0.2302 -0.3475
19993OST    PA331024  10.771   6.519  13.689 -0.3630 -0.4428 -0.1801
19993OST    PA431025  11.082   6.322  13.589 -0.3442 -0.4772 -0.1222
19993OST    PA531026  11.379   6.350  13.441 -0.2425 -0.3871  0.1578
19993OST    PA631027  11.395   6.554  13.510 -0.0788 -0.0357  0.2738
19994OST    PA131028   6.619  14.071   8.884  0.1348 -0.1015 -0.0718
19994OST    PA231029   6.847  13.874   9.056 -0.0535  0.3309 -0.0220
19994OST    PA331030   7.080  13.987   8.908 -0.0906 -0.2824 -0.0072
19994OST    PA431031   6.902  13.698   9.049  0.2582 -0.1511  0.1445
19994OST    PA531032   6.719  13.642   9.323 -0.1269 -0.2028 -0.2963
19994OST    PA631033   6.620  13.840   9.301  0.2779  0.3024  0.1429
19995OST    PA131034  14.164   8.285  13.250  0.0087  0.0112 -0.1682
19995OST    PA231035  13.823   8.462  13.278 -0.2143  0.1253  0.0294
19995OST    PA331036  13.839   8.619  13.537  0.3510 -0.0194  0.1218
19995OST    PA431037  13.662   8.498  13.252  0.2807  0.3630  0.2100
19995OST    PA531038  13.566   8.323  13.031  0.0773  0.0234 -0.1561
19995OST    PA631039  13.768   8.224  12.996 -0.1133 -0.0246 -0.3220
19996OST    PA131040  14.489   3.680  11.273 -0.0844  0.3790 -0.1191
19996OST    PA231041  14.409   3.674  10.920 -0.0520  0.0628  0.0655
19996OST    PA331042  14.281   3.431  10.800  0.1349  0.3359 -0.1105
19996OST    PA431043  14.490   3.709  10.753  0.2644  0.2594 -0.0598
19996OST    PA531044  14.470   4.040  10.754  0.5392  0.1608  0.0530
19996OST    PA631045  14.451   4.019  10.966  0.2101 -0.5758  0.0019
19997OST    PA131046   4.688   9.310  11.873  0.1102  0.1224 -0.2763
19997OST    PA231047   4.574   9.573  12.057  0.0174  0.2657  0.1198
19997OST    PA331048   4.369   9.588  11.843  0.1651 -0.0134 -0.0079
19997OST    PA431049   4.471   9.693  12.204 -0.2637 -0.0565  0.3491
19997OST    PA531050   4.597   9.511  12.440 -0.0978 -0.0818 -0.3010
19997OST    PA631051   4.765   9.406  12.325  0.1254  0.4518 -0.1512
19998OST    PA131052   8.077   0.193   1.902  0.2990  0.1233  0.1016
19998OST    PA231053   8.105   0.416   2.159  0.1165 -0.2759 -0.0614
19998OST    PA331054   8.385   0.410   2.259 -0.0636 -0.0925 -0.5884
19998OST    PA431055   8.043   0.587   2.297 -0.3464  0.0049  0.0933
19998OST    PA531056   7.798   0.691   2.112  0.2976  0.1456  0.1455
19998OST    PA631057   7.826   0.527   1.953 -0.2347  0.1053 -0.3122
19999OST    PA131058  12.479   3.295  12.916 -0.0941 -0.0309  0.1139
19999OST    PA231059  12.274   3.461  12.648  0.0707 -0.0244  0.1126
19999OST    PA331060  12.546   3.498  12.550 -0.0404  0.0420 -0.1346
19999OST    PA431061  12.192   3.419  12.473 -0.6097  0.2669  0.2458
19999OST    PA531062  11.908   3.307  12.546 -0.1781  0.3256 -0.0360
19999OST    PA631063  11.960   3.372  12.766 -0.0542  0.1159  0.1945
20000OST    PA131064   2.154  14.197   4.431 -0.1182 -0.1383 -0.3154
20000OST    PA231065   1.898  14.072   4.223  0.0310 -0.0682 -0.3447
20000OST    PA331066   2.059  13.964   4.012 -0.1517 -0.4113 -0.3549
20000OST    PA431067   1.766  14.157   4.112 -0.0757  0.1315  0.1879
20000OST    PA531068   1.552  14.200   4.335 -0.0443 -0.1792  0.0309
20000OST    PA631069   1.654  14.093   4.484 -0.3313  0.2070  0.0876
20001OST    PA131070  14.183  10.745   9.129  0.1453 -0.0465 -0.0219
20001OST    PA231071  13.867  10.739   8.959 -0.0352  0.2908 -0.1280
20001OST    PA331072  13.714  10.754   9.242 -0.2279 -0.3548  0.1259
20001OST    PA431073  13.708  10.660   8.839 -0.1328  0.1191 -0.2795
20001OST    PA531074  13.886  10.629   8.588  0.1136 -0.0650  0.3927
20001OST    PA631075  14.079  10.739   8.698  0.1445  0.2387  0.1037
20002OST    PA131076  10.952   1.156   0.231  0.5109  0.2096  0.1736
20002OST    PA231077  11.253   1.106   0.415 -0.2882  0.2829  0.1178
20002OST    PA331078  11.073   1.090   0.657 -0.0496 -0.2257 -0.3770
20002OST    PA431079  11.403   1.190   0.504  0.1126 -0.4996  0.0333
20002OST    PA531080  11.576   1.227   0.228  0.2007 -0.2489  0.2935
20002OST    PA631081  11.410   1.144   0.096 -0.5515 -0.0116 -0.0654
20003OST    PA131082   3.408  11.616   9.617  0.0870 -0.3061 -0.0572
20003OST    PA231083   3.100  11.609   9.800  0.2043  0.0118 -0.2589
20003OST    PA331084   2.987  11.383   9.641 -0.4481 -0.2532  0.1198
20003OST    PA431085   3.022  11.544   9.999 -0.1306 -0.1861 -0.1087
20003OST    PA531086   3.151  11.766  10.171 -0.0307  0.0022  0.0654
20003OST    PA631087   3.254  11.877   9.991  0.1016 -0.0417  0.2362
20004OST    PA131088   9.910  13.330   4.491  0.1297  0.1054 -0.1085
20004OST    PA231089   9.745  13.136   4.238  0.0222  0.0791  0.2236
20004OST    PA331090   9.879  12.915   4.336  0.5181 -0.2980 -0.4265
20004OST    PA431091   9.795  13.087   4.022  0.1743  0.2076 -0.1774
20004OST    PA531092   9.652  13.352   3.937 -0.7006 -0.0453  0.0314
20004OST    PA631093   9.578  13.431   4.151 -0.0698  0.1775 -0.0858
20005OST    PA131094   6.238  15.155   9.308  0.0348  0.0307 -0.2229
20005OST    PA231095   6.260  15.481   9.162 -0.2852  0.1763 -0.1081
20005OST    PA331096   6.428  15.281   8.993 -0.5376  0.1937 -0.2256
20005OST    PA431097   6.171  15.566   9.027  0.1307 -0.4321  0.1334
20005OST    PA531098   5.894  15.612   9.194  0.2107 -0.0864 -0.2496
20005OST    PA631099   6.008  15.584   9.411  0.0481  0.0606  0.3863
20006OST    PA131100   7.281  14.478  10.164 -0.1001  0.2176 -0.0117
20006OST    PA231101   6.990  14.553  10.364  0.3995  0.2380  0.5358
20006OST    PA331102   7.064  14.323  10.501 -0.1226  0.1936  0.0222
20006OST    PA431103   6.904  14.640  10.512  0.0031  0.2248  0.3361
20006OST    PA531104   6.851  14.912  10.342  0.3312  0.1043 -0.0346
20006OST    PA631105   6.965  14.832  10.155 -0.1227  0.0824 -0.3261
20007OST    PA131106   7.764   8.177   3.346  0.1575 -0.1265  0.3028
20007OST    PA231107   7.579   8.139   3.026  0.3389 -0.3827 -0.5472
20007OST    PA331108   7.758   8.185   2.840 -0.0190 -0.1005  0.4805
20007OST    PA431109   7.430   8.274   2.980 -0.2281 -0.2256  0.1967
20007OST    PA531110   7.216   8.194   3.173  0.2536 -0.0083 -0.2132
20007OST    PA631111   7.349   8.022   3.286 -0.2893  0.0033  0.5733
20008OST    PA131112   3.821  10.724   4.316 -0.1600  0.1061 -0.0786
20008OST    PA231113   4.051  10.501   4.471  0.1812 -0.0764 -0.2527
20008OST    PA331114   4.230  10.705   4.360  0.3617  0.1625 -0.1492
20008OST    PA431115   4.169  10.439   4.625 -0.2493  0.0550 -0.1672
20008OST    PA531116   3.926  10.272   4.792 -0.4024 -0.3454  0.3166
20008OST    PA631117   3.764  10.348   4.610 -0.0597 -0.4333  0.0622
20009OST    PA131118   6.804   8.676  10.139  0.1643 -0.4547 -0.0942
20009OST    PA231119   6.721   8.355  10.274  0.0348  0.1079 -0.2902
20009OST    PA331120   6.793   8.231  10.016 -0.1471 -0.1606  0.3631
20009OST    PA431121   6.721   8.171  10.375 -0.3700  0.1235  0.4325
20009OST    PA531122   6.825   8.338  10.653  0.0522 -0.3001 -0.0672
20009OST    PA631123   6.812   8.534  10.563  0.4605 -0.2876  0.0218
20010OST    PA131124  12.949   7.377  12.799  0.1127 -0.2205  0.1065
20010OST    PA231125  13.173   7.520  12.563  0.2020 -0.1038  0.1521
20010OST    PA331126  13.364   7.289  12.620  0.5539  0.1907  0.3195
20010OST    PA431127  13.289   7.595  12.398 -0.1131  0.0612 -0.0374
20010OST    PA531128  13.057   7.786  12.288  0.4952  0.2004 -0.0943
20010OST    PA631129  12.897   7.734  12.441  0.1412 -0.1204 -0.5790
20011OST    PA131130   5.121   2.416   1.895 -0.1470  0.3294  0.0167
20011OST    PA231131   5.257   2.082   1.860 -0.2911 -0.0693 -0.0689
20011OST    PA331132   5.254   2.118   2.143  0.2563 -0.2114 -0.0555
20011OST    PA431133   5.412   1.932   1.873 -0.3466  0.0307  0.1453
20011OST    PA531134   5.570   2.003   1.624 -0.3811 -0.1605  0.2776
20011OST    PA631135   5.398   2.161   1.524  0.0505  0.2013 -0.2482
20012OST    PA131136   3.798   6.739   3.835  0.1432  0.0258 -0.1385
20012OST    PA231137   3.434   6.725   3.924  0.0997  0.1575  0.4667
20012OST    PA331138   3.411   6.448   3.788 -0.0702  0.0138 -0.0087
20012OST    PA431139   3.260   6.770   3.820 -0.1971 -0.1418 -0.3013
20012OST    PA531140   3.219   7.051   3.920 -0.0416 -0.2968  0.1370
20012OST    PA631141   3.429   7.061   4.036  0.1043 -0.2508  0.4876
20013OST    PA131142   8.230   4.907  13.211  0.2085  0.2399 -0.1553
20013OST    PA231143   8.474   4.641  13.205  0.2785 -0.0134  0.3565
20013OST    PA331144   8.630   4.582  13.433 -0.3352 -0.2496 -0.2605
20013OST    PA431145   8.485   4.445  13.116  0.0280 -0.1410  0.0418
20013OST    PA531146   8.456   4.549  12.803 -0.4202 -0.2243  0.0130
20013OST    PA631147   8.523   4.746  12.865  0.4153 -0.1723 -0.1346
20014OST    PA131148  12.749   4.286   9.479 -0.0223  0.3832 -0.0101
20014OST    PA231149  12.693   3.959   9.498  0.1498  0.3375 -0.1224
20014OST    PA331150  12.882   3.907   9.727  0.2743 -0.3990 -0.2249
20014OST    PA431151  12.741   3.803   9.405 -0.0734 -0.1165 -0.1328
20014OST    PA531152  12.530   3.755   9.152 -0.3947 -0.0195 -0.3183
20014OST    PA631153  12.452   3.953   9.240 -0.1227  0.1562  0.3989
20015OST    PA131154  14.316   0.232   9.925  0.0395  0.0650  0.2434
20015OST    PA231155  14.531   0.497   9.831 -0.1137  0.1069 -0.2607
20015OST    PA331156  14.398   0.505   9.569 -0.1357  0.3274  0.1525
20015OST    PA431157  14.709   0.598   9.774  0.0627 -0.3650 -0.0198
20015OST    PA531158  14.844   0.666  10.051  0.2479 -0.2621  0.5739
20015OST    PA631159  14.651   0.543  10.179 -0.1571 -0.1683 -0.0443
  15.73077  15.73077  13.78269
