Martini system
31159
    1CHOL   ROH    1   4.703   1.359   6.276  0.0362  0.0447  0.2033
    1CHOL    R1    2   4.435   1.441   6.241 -0.0145 -0.1624  0.0776
    1CHOL    R2    3   4.222   1.265   6.248  0.0849 -0.2824  0.3448
    1CHOL    R3    4   4.128   1.435   6.438 -0.0069 -0.0463  0.0926
    1CHOL    R4    5   3.898   1.267   6.367  0.1029 -0.3291  0.3922
    1CHOL    R5    6   3.905   1.485   6.367 -0.0556 -0.3202  0.0458
    1CHOL    C1    7   3.621   1.429   6.615  0.0271 -0.1347  0.1830
    1CHOL    C2    8   3.379   1.204   6.505  0.2536 -0.1808  0.0535
    2XCA    COO    9   5.247   2.511   4.027 -0.0392  0.4028 -0.0446
    2XCA     C1   10   5.206   2.425   4.403 -0.1146  0.0861  0.1316
    2XCA     C2   11   5.358   2.174   4.736 -0.0202 -0.2852  0.1989
    2XCA     C3   12   5.679   2.260   5.122 -0.1217  0.0220 -0.1661
    2XCA     C4   13   5.756   2.417   5.554  0.1667 -0.1092 -0.1760
    2XCA     C5   14   5.510   2.743   5.754 -0.1045 -0.0295 -0.0865
    2XCA     C6   15   5.311   3.166   5.827  0.3975 -0.1189 -0.1612
    3XCA    COO   16   7.367   1.360   4.661 -0.2465 -0.2289 -0.0705
    3XCA     C1   17   7.305   1.401   5.161 -0.0960 -0.1384  0.2044
    3XCA     C2   18   7.315   1.522   5.591 -0.0061  0.1381 -0.1338
    3XCA     C3   19   7.122   1.504   5.967  0.2229 -0.0248 -0.0511
    3XCA     C4   20   7.282   1.494   6.434 -0.0505  0.1243 -0.2260
    3XCA     C5   21   7.439   1.171   6.485 -0.1778  0.3486  0.2550
    3XCA     C6   22   7.926   1.200   6.533 -0.3103  0.1798  0.0525
    4XCA    COO   23  11.441   9.276   5.203  0.0637 -0.0441 -0.0875
    4XCA     C1   24  11.448   9.373   5.572  0.2477  0.0863 -0.1294
    4XCA     C2   25  11.491   9.473   6.030 -0.0651 -0.0636  0.3459
    4XCA     C3   26  11.233   9.525   6.332  0.1707 -0.1598  0.0045
    4XCA     C4   27  10.872   9.350   6.679  0.0549 -0.2143  0.1661
    4XCA     C5   28  10.949   9.046   7.017  0.1711 -0.3279 -0.1866
    4XCA     C6   29  11.169   8.660   7.210  0.1351  0.1604 -0.1146
    5CHOL   ROH   30  14.875   6.251   4.854 -0.0597  0.0034  0.2408
    5CHOL    R1   31  15.035   6.062   4.991 -0.1133 -0.0518  0.2254
    5CHOL    R2   32  15.284   6.124   5.093  0.0075 -0.1957  0.0124
    5CHOL    R3   33  15.178   6.028   5.324  0.1000  0.0088  0.1442
    5CHOL    R4   34  15.454   5.927   5.320  0.0706 -0.0956  0.0540
    5CHOL    R5   35  15.272   5.808   5.345  0.0348 -0.0153  0.2428
    5CHOL    C1   36  15.454   5.721   5.669  0.1942  0.1546  0.2020
    5CHOL    C2   37  15.590   5.820   5.994  0.2175 -0.0386 -0.0839
    6CHOL   ROH   38   7.926  13.370   5.176 -0.1483  0.0472 -0.0142
    6CHOL    R1   39   8.061  13.367   5.424 -0.2611 -0.1452  0.0461
    6CHOL    R2   40   8.165  13.596   5.540 -0.0090 -0.2882  0.0997
    6CHOL    R3   41   8.014  13.517   5.752 -0.2070 -0.0987  0.0344
    6CHOL    R4   42   8.195  13.720   5.861 -0.0236 -0.2810  0.0989
    6CHOL    R5   43   8.166  13.518   5.937 -0.2893 -0.2486  0.1098
    6CHOL    C1   44   8.072  13.718   6.248 -0.2180 -0.0988  0.0370
    6CHOL    C2   45   7.873  13.594   6.552  0.0411  0.0281 -0.3613
    7XCA    COO   46  10.172  11.607   8.383  0.1026  0.2107  0.4401
    7XCA     C1   47   9.956  11.255   8.271 -0.0039 -0.0063 -0.1775
    7XCA     C2   48   9.694  10.994   7.929 -0.1725 -0.2261 -0.0547
    7XCA     C3   49   9.586  10.686   7.703 -0.1107 -0.2318  0.1116
    7XCA     C4   50   9.655  10.553   7.279 -0.0901  0.2433 -0.1138
    7XCA     C5   51   9.778  10.578   6.781 -0.3116  0.3915 -0.1107
    7XCA     C6   52   9.661  10.888   6.472 -0.0212 -0.0683 -0.1879
    8CHOL   ROH   53  15.888  14.387   4.361  0.0709 -0.1368 -0.0968
    8CHOL    R1   54  15.980  14.227   4.575  0.2421  0.0469 -0.0295
    8CHOL    R2   55  16.134  14.328   4.781 -0.1291  0.3736  0.0991
    8CHOL    R3   56  15.938  14.220   4.937 -0.0356 -0.0461 -0.0603
    8CHOL    R4   57  16.187  14.169   5.084 -0.0236  0.3974  0.0934
    8CHOL    R5   58  16.037  14.021   5.027  0.2928  0.1145 -0.0479
    8CHOL    C1   59  16.035  13.976   5.406  0.1254  0.0172 -0.0595
    8CHOL    C2   60  16.254  13.736   5.693  0.0845  0.0593 -0.0070
    9PNCE   AM1   61   1.043   6.382   8.292  0.0794 -0.3334 -0.0393
    9PNCE   AM2   62   0.832   6.160   8.464 -0.1988  0.0591 -0.0444
    9PNCE   T1A   63   0.747   6.570   8.042 -0.0791  0.1751 -0.2375
    9PNCE   C2A   64   0.696   6.622   7.678  0.2728 -0.3480  0.1009
    9PNCE   C3A   65   0.936   6.789   7.356 -0.0609 -0.3100  0.0005
    9PNCE   C1B   66   0.773   6.041   8.033  0.1256  0.1407  0.0506
    9PNCE   C2B   67   0.748   6.127   7.630 -0.0651 -0.0897 -0.0971
    9PNCE   C3B   68   0.623   6.330   7.294  0.1167 -0.1069  0.4263
    9PNCE   D4B   69   0.684   6.305   6.810 -0.3641 -0.1088 -0.1608
    9PNCE   C5B   70   0.362   6.226   6.582  0.2923 -0.0654  0.2287
    9PNCE   C6B   71   0.394   6.259   6.158  0.2778 -0.1134  0.2151
   10PNCE   AM1   72   4.444   8.798   9.047  0.1002 -0.0611 -0.2700
   10PNCE   AM2   73   4.423   8.538   9.304  0.0927  0.2823  0.0691
   10PNCE   T1A   74   4.348   8.753   8.498 -0.1177 -0.0488 -0.0478
   10PNCE   C2A   75   4.424   8.780   8.082 -0.0620 -0.0493  0.3165
   10PNCE   C3A   76   4.751   8.621   7.972  0.2134 -0.0311 -0.2273
   10PNCE   C1B   77   4.217   8.324   8.916 -0.0859 -0.0312  0.0017
   10PNCE   C2B   78   3.943   8.119   8.626 -0.3280  0.1483 -0.0123
   10PNCE   C3B   79   4.024   8.147   8.213  0.2315 -0.1619 -0.0855
   10PNCE   D4B   80   3.830   8.372   7.839 -0.0281 -0.2050  0.0876
   10PNCE   C5B   81   4.061   8.546   7.453 -0.0126 -0.1584  0.0102
   10PNCE   C6B   82   4.368   8.606   7.078  0.1087  0.1886 -0.2839
   11XCA    COO   83  10.270  10.291   8.940  0.0832  0.0972 -0.1460
   11XCA     C1   84  10.321  10.242   8.468  0.0914 -0.1086  0.0969
   11XCA     C2   85  10.531  10.469   8.148 -0.1994  0.0470 -0.2361
   11XCA     C3   86  10.610  10.763   7.817 -0.0679 -0.4671 -0.2039
   11XCA     C4   87  10.615  11.180   7.598  0.1810  0.0725  0.2487
   11XCA     C5   88  10.450  11.530   7.318  0.1240  0.1842  0.0720
   11XCA     C6   89  10.078  11.549   7.106 -0.1581 -0.0750 -0.3097
   12CHOL   ROH   90  14.239  15.736   7.757 -0.0346 -0.0113  0.0635
   12CHOL    R1   91  13.980  15.663   7.667 -0.0252 -0.0006  0.0276
   12CHOL    R2   92  13.779  15.849   7.628 -0.0334 -0.0006  0.0686
   12CHOL    R3   93  13.770  15.737   7.380 -0.0126  0.0693  0.0361
   12CHOL    R4   94  13.509  15.867   7.413 -0.0173  0.0555  0.0530
   12CHOL    R5   95  13.544  15.659   7.358 -0.0096  0.0715 -0.0033
   12CHOL    C1   96  13.343  15.774   7.055  0.0117  0.1537  0.0134
   12CHOL    C2   97  13.100  15.739   6.771  0.1399  0.0319  0.3191
   13PNCE   AM1   98   0.523  13.735   7.728  0.0221 -0.2037 -0.1512
   13PNCE   AM2   99   0.384  13.979   7.712 -0.0972 -0.2089  0.1610
   13PNCE   T1A  100   0.849  13.802   7.441  0.1150  0.1726 -0.0207
   13PNCE   C2A  101   1.162  13.855   7.062 -0.1211 -0.0423 -0.0439
   13PNCE   C3A  102   1.551  13.910   7.113  0.1997  0.1089  0.0382
   13PNCE   C1B  103   0.148  13.872   7.346 -0.0215  0.0377  0.2208
   13PNCE   C2B  104   0.239  13.854   6.924  0.0297  0.3951 -0.3181
   13PNCE   C3B  105   0.400  13.570   6.602  0.1786 -0.2934 -0.1884
   13PNCE   D4B  106   0.553  13.409   6.212  0.0465 -0.0984  0.0256
   13PNCE   C5B  107   0.942  13.633   6.004 -0.1205 -0.3183  0.0833
   13PNCE   C6B  108   1.344  13.742   5.762 -0.2608 -0.1331  0.2339
   14XCA    COO  109  11.351   0.836   5.615 -0.1735 -0.0473 -0.0869
   14XCA     C1  110  11.419   1.103   6.041  0.0233 -0.1428  0.3637
   14XCA     C2  111  11.592   1.487   6.250  0.0957 -0.2322  0.1560
   14XCA     C3  112  11.867   1.728   6.528 -0.1512  0.2248  0.2471
   14XCA     C4  113  12.153   1.764   6.849  0.0115 -0.0342  0.3912
   14XCA     C5  114  12.527   1.945   6.967  0.1233  0.2085 -0.2137
   14XCA     C6  115  12.925   1.886   6.704 -0.0399  0.4279  0.0443
   15CHOL   ROH  116  15.646  15.483   4.308 -0.0897  0.2410 -0.0081
   15CHOL    R1  117  15.707  15.422   4.578  0.0263  0.1060 -0.0627
   15CHOL    R2  118  15.804  15.611   4.755  0.0513  0.0345  0.0095
   15CHOL    R3  119  15.593  15.530   4.906  0.1227 -0.0976  0.0380
   15CHOL    R4  120  15.783  15.640   5.099 -0.0010  0.1796 -0.0063
   15CHOL    R5  121  15.692  15.443   5.105  0.1924  0.0965  0.0856
   15CHOL    C1  122  15.573  15.581   5.440  0.0356  0.1400  0.0113
   15CHOL    C2  123  15.676  15.475   5.810  0.0394  0.4041  0.1148
   16PNCE   AM1  124   3.754   0.007   8.147  0.0223 -0.3332  0.1653
   16PNCE   AM2  125   3.759   0.393   8.224 -0.1480  0.0056 -0.3280
   16PNCE   T1A  126   3.551  -0.105   7.807  0.0938  0.1704  0.1129
   16PNCE   C2A  127   3.592  -0.308   7.499  0.2793  0.1439  0.1091
   16PNCE   C3A  128   3.599  -0.464   7.073  0.1628 -0.2668  0.1674
   16PNCE   C1B  129   3.693   0.332   7.747 -0.1752  0.0419  0.0031
   16PNCE   C2B  130   3.695   0.188   7.323 -0.1793 -0.0628  0.0976
   16PNCE   C3B  131   3.953  -0.070   7.072  0.0956 -0.4226 -0.0276
   16PNCE   D4B  132   4.307   0.021   6.851  0.1422  0.0026  0.0571
   16PNCE   C5B  133   4.480   0.255   6.393 -0.0396 -0.0997 -0.0099
   16PNCE   C6B  134   4.685   0.504   6.084  0.0788 -0.0347 -0.0721
   17XCA    COO  135   2.846   6.214   5.277 -0.0290  0.1228  0.1324
   17XCA     C1  136   2.941   6.392   5.692 -0.4331  0.0808 -0.2882
   17XCA     C2  137   3.045   6.146   6.106  0.2321  0.1255  0.1254
   17XCA     C3  138   3.297   5.990   6.451  0.1821 -0.0583  0.1170
   17XCA     C4  139   3.412   5.648   6.810 -0.1716  0.3596 -0.3015
   17XCA     C5  140   3.558   5.476   7.056 -0.2335  0.2516  0.1998
   17XCA     C6  141   3.736   5.459   7.495  0.2265  0.1020 -0.0221
   18PNCE   AM1  142   0.667   0.647   7.532 -0.1287  0.0954 -0.2040
   18PNCE   AM2  143   0.914   0.727   7.688 -0.0514 -0.2034  0.2628
   18PNCE   T1A  144   0.742   0.644   7.119  0.0755  0.1197  0.4295
   18PNCE   C2A  145   0.742   0.690   6.750  0.0929 -0.1617  0.1942
   18PNCE   C3A  146   0.599   1.041   6.418 -0.0579 -0.3392  0.3221
   18PNCE   C1B  147   1.045   1.156   7.402 -0.0516  0.1356 -0.2478
   18PNCE   C2B  148   1.198   1.340   7.013  0.2224 -0.1336 -0.0298
   18PNCE   C3B  149   1.452   1.508   6.689 -0.0445 -0.3630  0.0476
   18PNCE   D4B  150   1.650   1.637   6.228  0.0386  0.0433 -0.4615
   18PNCE   C5B  151   1.460   1.498   5.887 -0.0913 -0.1498  0.1548
   18PNCE   C6B  152   1.159   1.294   5.560 -0.0939  0.2956 -0.1941
   19PNCE   AM1  153   9.720   5.868   9.285  0.1393 -0.2423 -0.0386
   19PNCE   AM2  154   9.542   6.142   9.372 -0.0500 -0.2134 -0.2695
   19PNCE   T1A  155   9.551   5.621   9.018  0.0646  0.0969  0.2693
   19PNCE   C2A  156   9.478   5.601   8.582  0.1835  0.3793  0.1447
   19PNCE   C3A  157   9.452   5.559   8.288 -0.4262 -0.0062  0.0308
   19PNCE   C1B  158   9.459   6.544   9.172 -0.0078 -0.1247  0.0245
   19PNCE   C2B  159   9.062   6.600   8.895 -0.0366  0.1030 -0.1534
   19PNCE   C3B  160   8.702   6.599   8.707 -0.2754  0.0346  0.3715
   19PNCE   D4B  161   8.472   6.618   8.262  0.1509 -0.1783  0.2043
   19PNCE   C5B  162   8.756   6.559   7.961  0.0356  0.0453  0.0678
   19PNCE   C6B  163   9.035   6.576   7.558 -0.1546  0.0081 -0.0735
   20PNCE   AM1  164   9.963   3.300   8.491 -0.0315  0.0772 -0.3365
   20PNCE   AM2  165  10.111   2.974   8.515 -0.1797 -0.1502  0.3366
   20PNCE   T1A  166   9.864   3.155   8.130 -0.0847 -0.0228 -0.1221
   20PNCE   C2A  167   9.843   2.882   7.801  0.1016  0.1593 -0.0056
   20PNCE   C3A  168   9.677   2.767   7.358 -0.1406 -0.2349  0.0334
   20PNCE   C1B  169   9.755   2.655   8.245  0.2735 -0.1253  0.0242
   20PNCE   C2B  170   9.481   2.547   7.845 -0.1561 -0.1634 -0.0853
   20PNCE   C3B  171   9.239   2.517   7.423  0.1620 -0.3266 -0.0102
   20PNCE   D4B  172   9.531   2.501   7.002  0.1500  0.1719  0.1359
   20PNCE   C5B  173   9.767   2.506   6.627 -0.0074  0.4771  0.0736
   20PNCE   C6B  174   9.419   2.762   6.413  0.0015 -0.0612 -0.1360
   21XCA    COO  175   3.616   1.502   8.192  0.2532  0.0799  0.0658
   21XCA     C1  176   3.857   1.696   7.884 -0.2218 -0.0760  0.0112
   21XCA     C2  177   3.846   1.903   7.489  0.1372  0.1393  0.1191
   21XCA     C3  178   3.731   2.036   7.130  0.1684  0.1990 -0.5218
   21XCA     C4  179   3.662   2.298   6.755  0.0112 -0.1109  0.1970
   21XCA     C5  180   3.325   2.609   6.683  0.0779  0.0911 -0.2000
   21XCA     C6  181   2.897   2.566   6.888  0.1527  0.1415 -0.0897
   22PNCE   AM1  182  12.516   0.234   4.767  0.1960 -0.1301 -0.1473
   22PNCE   AM2  183  12.748   0.085   4.851  0.0087  0.0428  0.0065
   22PNCE   T1A  184  12.399   0.562   5.016 -0.0333 -0.3656  0.1983
   22PNCE   C2A  185  12.526   0.995   5.063  0.1385  0.1154  0.1800
   22PNCE   C3A  186  12.648   1.365   5.244  0.0018 -0.0823  0.0774
   22PNCE   C1B  187  12.881   0.367   5.135 -0.2345  0.2957  0.3606
   22PNCE   C2B  188  12.832   0.747   5.277 -0.1955 -0.1803 -0.0430
   22PNCE   C3B  189  12.911   1.069   5.609  0.0104 -0.1530  0.0286
   22PNCE   D4B  190  13.050   1.439   5.467  0.3137 -0.0740 -0.0656
   22PNCE   C5B  191  12.973   1.720   5.781  0.1731  0.1366  0.1618
   22PNCE   C6B  192  12.846   1.996   6.200  0.1220  0.1864 -0.0781
   23PNCE   AM1  193   3.145   6.941   8.220 -0.0308  0.0664 -0.0024
   23PNCE   AM2  194   2.953   6.613   8.198  0.0690 -0.0804  0.1006
   23PNCE   T1A  195   3.077   7.171   7.733  0.1915 -0.1197 -0.0638
   23PNCE   C2A  196   3.078   7.474   7.362  0.1763 -0.3601  0.2412
   23PNCE   C3A  197   3.175   7.780   6.953  0.1177  0.2823 -0.1432
   23PNCE   C1B  198   2.685   6.753   7.936  0.1510  0.0935 -0.1510
   23PNCE   C2B  199   2.699   6.876   7.611 -0.0060 -0.0974  0.0940
   23PNCE   C3B  200   2.649   6.984   7.158  0.0949 -0.0245  0.3121
   23PNCE   D4B  201   2.670   7.312   6.910 -0.1375 -0.0104 -0.0472
   23PNCE   C5B  202   2.759   7.184   6.470  0.2186  0.0470 -0.3347
   23PNCE   C6B  203   2.936   7.190   6.093  0.2366  0.2212 -0.2365
   24PNCE   AM1  204  15.515   3.251   7.971 -0.0599  0.1039  0.1027
   24PNCE   AM2  205  15.180   3.344   7.820 -0.0415  0.3095  0.0523
   24PNCE   T1A  206  15.640   3.333   7.608 -0.2021  0.1368  0.1084
   24PNCE   C2A  207  15.601   3.394   7.179  0.0582  0.1412 -0.0616
   24PNCE   C3A  208  15.719   3.140   6.814  0.0122  0.0037  0.0552
   24PNCE   C1B  209  15.219   3.216   7.369  0.2444 -0.0561 -0.0500
   24PNCE   C2B  210  15.001   3.493   7.028  0.0422  0.2880 -0.1179
   24PNCE   C3B  211  14.986   3.842   6.731  0.0444  0.0391 -0.2161
   24PNCE   D4B  212  14.954   4.121   6.394  0.0041 -0.0283 -0.0722
   24PNCE   C5B  213  14.802   3.843   6.159  0.1841  0.2328 -0.0829
   24PNCE   C6B  214  14.680   3.441   6.095 -0.1223  0.0651 -0.2302
   25XCA    COO  215   8.454  14.070   8.435 -0.2066  0.0053 -0.1558
   25XCA     C1  216   8.735  14.269   8.212  0.2398  0.1733 -0.1324
   25XCA     C2  217   8.845  14.550   7.857 -0.0131 -0.0002 -0.0624
   25XCA     C3  218   8.987  14.907   7.855  0.1333  0.0452  0.1763
   25XCA     C4  219   9.163  15.395   7.776  0.3526  0.0201 -0.1716
   25XCA     C5  220   8.967  15.671   7.504  0.3648  0.1983 -0.0275
   25XCA     C6  221   8.499  15.585   7.340  0.2514 -0.0269 -0.0008
   26CHOL   ROH  222  10.537   1.891   5.311 -0.0038  0.0740 -0.1107
   26CHOL    R1  223  10.301   1.735   5.320 -0.0399  0.1354  0.0487
   26CHOL    R2  224  10.094   1.790   5.494 -0.0114  0.3361  0.0237
   26CHOL    R3  225   9.945   1.791   5.266 -0.0322  0.1721  0.0355
   26CHOL    R4  226   9.748   1.782   5.483 -0.0116  0.3081  0.0623
   26CHOL    R5  227   9.762   1.645   5.314 -0.0193  0.1929  0.1530
   26CHOL    C1  228   9.408   1.778   5.262 -0.0313  0.1380  0.0959
   26CHOL    C2  229   9.157   2.106   5.169  0.1125  0.1158 -0.1770
   27PNCE   AM1  230   4.475   1.250   8.535  0.1335 -0.1350 -0.4767
   27PNCE   AM2  231   4.735   0.965   8.418  0.0639  0.1101  0.0837
   27PNCE   T1A  232   4.717   1.521   8.238 -0.2417  0.0002  0.0327
   27PNCE   C2A  233   4.658   1.878   8.017  0.0240  0.0657  0.0490
   27PNCE   C3A  234   4.675   1.945   7.674  0.2209 -0.3836  0.2378
   27PNCE   C1B  235   4.634   1.042   8.028 -0.3818 -0.0669  0.1809
   27PNCE   C2B  236   4.539   1.106   7.580 -0.4944 -0.0864  0.0784
   27PNCE   C3B  237   4.519   1.166   7.103 -0.0180 -0.0055 -0.1412
   27PNCE   D4B  238   4.486   1.161   6.719 -0.1743 -0.0275  0.2099
   27PNCE   C5B  239   4.414   0.766   6.540  0.2225 -0.3079  0.2742
   27PNCE   C6B  240   4.489   0.950   6.134 -0.4793 -0.0688  0.1131
   28CHOL   ROH  241   2.748   1.501   7.845 -0.0779 -0.1374 -0.0792
   28CHOL    R1  242   2.838   1.575   7.587  0.0237 -0.1594 -0.0511
   28CHOL    R2  243   2.711   1.491   7.356 -0.0266  0.0100 -0.0875
   28CHOL    R3  244   2.702   1.757   7.302  0.2265  0.0332 -0.0267
   28CHOL    R4  245   2.715   1.629   7.039 -0.1997  0.0620 -0.0682
   28CHOL    R5  246   2.848   1.785   7.114  0.0638 -0.1034 -0.1758
   28CHOL    C1  247   2.710   1.959   6.804 -0.0630  0.1142  0.0001
   28CHOL    C2  248   2.402   2.213   6.654 -0.0479 -0.1151 -0.0972
   29PNCE   AM1  249  13.836  15.193   8.728  0.3488  0.1453 -0.3117
   29PNCE   AM2  250  13.897  15.457   8.509 -0.4036  0.0475  0.3315
   29PNCE   T1A  251  13.481  15.507   8.701  0.0797  0.2551  0.0958
   29PNCE   C2A  252  13.262  15.823   8.394 -0.0267 -0.1908 -0.3522
   29PNCE   C3A  253  12.914  15.918   8.156  0.1702 -0.1970  0.0029
   29PNCE   C1B  254  13.824  15.325   8.047  0.0135  0.0261  0.3104
   29PNCE   C2B  255  13.517  15.287   7.657 -0.0284  0.0090  0.1242
   29PNCE   C3B  256  13.642  15.082   7.298  0.0768 -0.1685  0.1387
   29PNCE   D4B  257  14.064  15.009   7.140 -0.3305  0.1112  0.0617
   29PNCE   C5B  258  14.390  15.331   7.345  0.3103  0.0500 -0.0114
   29PNCE   C6B  259  14.703  15.612   7.405  0.0631 -0.2210 -0.0693
   30XCA    COO  260  14.528  12.002   4.565 -0.0121 -0.0881 -0.1450
   30XCA     C1  261  14.396  11.778   4.901  0.2853  0.0339 -0.1662
   30XCA     C2  262  14.523  11.351   5.058 -0.1075 -0.0605 -0.1097
   30XCA     C3  263  14.586  11.106   5.364 -0.1211  0.1437  0.0647
   30XCA     C4  264  14.398  11.119   5.800  0.2076  0.2585  0.2285
   30XCA     C5  265  14.226  10.897   5.990  0.2112  0.2647  0.0165
   30XCA     C6  266  14.342  10.514   6.349  0.1255 -0.2587  0.1195
   31PNCE   AM1  267   9.085   3.334   8.717 -0.1255  0.2567 -0.0368
   31PNCE   AM2  268   9.304   2.983   8.825  0.1471 -0.0468 -0.0044
   31PNCE   T1A  269   8.931   3.315   8.274 -0.0173  0.1379 -0.1267
   31PNCE   C2A  270   8.969   3.368   7.952  0.0962 -0.0515 -0.0880
   31PNCE   C3A  271   8.917   3.489   7.631 -0.2117  0.0328  0.0257
   31PNCE   C1B  272   9.358   2.893   8.451 -0.2000 -0.0776 -0.1200
   31PNCE   C2B  273   9.333   2.968   8.028 -0.2638 -0.2987  0.0759
   31PNCE   C3B  274   9.219   3.002   7.689  0.2016 -0.0631  0.1276
   31PNCE   D4B  275   9.194   3.225   7.318 -0.1869 -0.0338  0.0437
   31PNCE   C5B  276   8.774   3.344   7.108  0.1113 -0.0390 -0.5881
   31PNCE   C6B  277   8.556   3.646   6.785 -0.1316 -0.0896 -0.0613
   32XCA    COO  278   8.386   5.866   4.589 -0.1523  0.0308 -0.1674
   32XCA     C1  279   8.530   5.986   5.052  0.0155  0.0156 -0.1592
   32XCA     C2  280   8.552   6.037   5.497  0.0855 -0.2003  0.3354
   32XCA     C3  281   8.643   5.967   5.935  0.2494  0.2603  0.3713
   32XCA     C4  282   8.916   5.785   6.224  0.0360 -0.2720  0.1258
   32XCA     C5  283   9.238   5.532   6.398 -0.3974 -0.3446  0.0216
   32XCA     C6  284   9.423   5.400   6.716 -0.1472 -0.1959 -0.0916
   33CHOL   ROH  285  11.296   3.894   7.654 -0.3561 -0.1024 -0.2357
   33CHOL    R1  286  11.565   3.910   7.567 -0.2892 -0.0733 -0.0304
   33CHOL    R2  287  11.736   3.694   7.570 -0.2951 -0.0777  0.0137
   33CHOL    R3  288  11.768   3.756   7.308 -0.0990  0.0223  0.0602
   33CHOL    R4  289  11.823   3.468   7.323 -0.3210 -0.0268 -0.0418
   33CHOL    R5  290  11.953   3.621   7.237 -0.1579 -0.0812  0.1032
   33CHOL    C1  291  11.904   3.396   6.932 -0.1519  0.0968 -0.0305
   33CHOL    C2  292  12.130   3.127   6.628  0.0822 -0.0675 -0.3232
   34PNCE   AM1  293   5.414  10.960   4.636  0.1520 -0.0447 -0.1814
   34PNCE   AM2  294   5.332  10.743   4.785 -0.0546  0.0719 -0.1551
   34PNCE   T1A  295   5.448  11.327   4.724 -0.0259 -0.1797 -0.3334
   34PNCE   C2A  296   5.801  11.474   4.880 -0.2098  0.0650  0.0477
   34PNCE   C3A  297   5.924  11.497   5.279 -0.0339 -0.0015  0.1409
   34PNCE   C1B  298   5.285  10.816   5.179  0.0572  0.3390  0.2403
   34PNCE   C2B  299   5.270  10.923   5.577  0.0189  0.0019  0.0330
   34PNCE   C3B  300   5.059  10.765   5.961  0.1339  0.2114  0.4067
   34PNCE   D4B  301   4.994  10.780   6.395  0.1133  0.1330 -0.1075
   34PNCE   C5B  302   5.093  11.117   6.681 -0.0194  0.1176 -0.3674
   34PNCE   C6B  303   5.191  11.186   7.069  0.1139 -0.2912 -0.1281
   35PNCE   AM1  304   1.259   1.164   3.650  0.3239 -0.1001 -0.1265
   35PNCE   AM2  305   1.028   0.970   3.679  0.2542 -0.1495 -0.2899
   35PNCE   T1A  306   1.314   0.928   4.050 -0.2851 -0.3897 -0.3069
   35PNCE   C2A  307   1.500   0.808   4.378 -0.3899 -0.0080  0.2320
   35PNCE   C3A  308   1.884   0.816   4.698 -0.1534 -0.1164  0.2395
   35PNCE   C1B  309   0.808   1.106   4.068 -0.1040 -0.0105 -0.0203
   35PNCE   C2B  310   0.591   1.294   4.354 -0.2481  0.1279 -0.0995
   35PNCE   C3B  311   0.261   1.594   4.353 -0.3011 -0.1881 -0.0413
   35PNCE   D4B  312   0.062   1.957   4.128 -0.0532 -0.2838 -0.1356
   35PNCE   C5B  313  -0.169   2.221   4.249  0.2532 -0.0983 -0.1301
   35PNCE   C6B  314  -0.515   2.368   4.484 -0.0606 -0.3326  0.0659
   36PNCE   AM1  315   6.910   2.516   8.517  0.1274  0.0742 -0.0689
   36PNCE   AM2  316   7.094   2.406   8.807 -0.3629  0.1776 -0.2161
   36PNCE   T1A  317   6.972   2.397   8.027 -0.1802  0.0825 -0.0226
   36PNCE   C2A  318   7.056   2.240   7.665 -0.2708  0.1060 -0.1526
   36PNCE   C3A  319   7.185   2.184   7.177 -0.0467  0.0433  0.0986
   36PNCE   C1B  320   7.288   2.164   8.452  0.0126  0.0640 -0.0335
   36PNCE   C2B  321   7.345   1.985   8.079  0.0421  0.1174 -0.1898
   36PNCE   C3B  322   7.599   1.888   7.680  0.0478 -0.1599 -0.0521
   36PNCE   D4B  323   7.673   2.075   7.268  0.2647 -0.0865  0.0854
   36PNCE   C5B  324   7.522   1.765   7.055  0.1627  0.0029  0.2089
   36PNCE   C6B  325   7.629   1.342   7.029  0.1520 -0.0796 -0.1602
   37XCA    COO  326   2.949   8.688   7.163 -0.1688  0.0156  0.2746
   37XCA     C1  327   3.169   8.295   7.132  0.1291  0.1521  0.0647
   37XCA     C2  328   3.559   8.134   6.975  0.3511 -0.1487 -0.2813
   37XCA     C3  329   3.992   8.152   6.963 -0.2923  0.0259 -0.2007
   37XCA     C4  330   4.305   8.187   6.778 -0.5293 -0.1114  0.3132
   37XCA     C5  331   4.707   8.270   6.911 -0.0073 -0.0462  0.0079
   37XCA     C6  332   5.045   8.150   6.990  0.0740  0.1160 -0.1803
   38CHOL   ROH  333  10.888   0.670   6.356  0.2529  0.1590 -0.0724
   38CHOL    R1  334  10.762   0.840   6.544  0.1134  0.2467 -0.2433
   38CHOL    R2  335  10.826   0.838   6.813 -0.3060  0.1445 -0.1408
   38CHOL    R3  336  10.864   1.104   6.772  0.0037  0.1199 -0.0417
   38CHOL    R4  337  10.932   1.062   7.053 -0.3617 -0.0182  0.0392
   38CHOL    R5  338  10.790   1.207   6.974 -0.1346  0.1431 -0.0989
   38CHOL    C1  339  11.030   1.443   7.155 -0.1035 -0.1360  0.2371
   38CHOL    C2  340  11.273   1.706   7.236  0.0565 -0.0029 -0.2128
   39PNCE   AM1  341  14.348   8.455   5.321  0.1967  0.0332  0.2133
   39PNCE   AM2  342  14.268   8.104   5.364 -0.2363 -0.2670  0.3100
   39PNCE   T1A  343  14.513   8.382   5.771  0.1138  0.2629  0.0725
   39PNCE   C2A  344  14.606   8.268   6.246 -0.3427  0.2512  0.1796
   39PNCE   C3A  345  14.340   8.171   6.618 -0.1111 -0.1081  0.0537
   39PNCE   C1B  346  14.620   7.816   5.498 -0.0747 -0.0031 -0.1449
   39PNCE   C2B  347  14.924   7.475   5.704  0.1409  0.0121 -0.1789
   39PNCE   C3B  348  15.149   6.937   5.777 -0.0012 -0.3675 -0.0995
   39PNCE   D4B  349  15.072   6.588   5.667 -0.0538 -0.1359  0.2584
   39PNCE   C5B  350  15.082   6.482   6.031 -0.2941 -0.1571 -0.0475
   39PNCE   C6B  351  14.983   6.427   6.536  0.1758  0.1203  0.0078
   40PNCE   AM1  352  12.603  14.145   8.888  0.0779 -0.1030 -0.2055
   40PNCE   AM2  353  12.539  14.325   9.025 -0.1909  0.0156  0.2175
   40PNCE   T1A  354  12.232  13.911   8.626 -0.0244 -0.1274 -0.2472
   40PNCE   C2A  355  12.085  13.909   8.231  0.2222 -0.2618  0.2019
   40PNCE   C3A  356  12.043  13.973   7.861  0.1973  0.2114 -0.0288
   40PNCE   C1B  357  12.697  14.533   8.582 -0.0804 -0.1201 -0.2294
   40PNCE   C2B  358  12.746  14.289   8.372  0.2701 -0.0752 -0.0198
   40PNCE   C3B  359  12.948  14.303   7.931 -0.1475 -0.2373 -0.3257
   40PNCE   D4B  360  12.942  14.477   7.519  0.0107 -0.0191 -0.4024
   40PNCE   C5B  361  13.153  14.881   7.189 -0.1059 -0.0451 -0.2197
   40PNCE   C6B  362  13.254  15.327   7.110  0.0371  0.0164 -0.0380
   41CHOL   ROH  363  14.001   3.845   6.543 -0.1098 -0.1107 -0.3186
   41CHOL    R1  364  14.222   3.722   6.670 -0.1647 -0.1477 -0.2565
   41CHOL    R2  365  14.289   3.457   6.628 -0.0886 -0.1126 -0.3810
   41CHOL    R3  366  14.532   3.562   6.564 -0.0694 -0.0230 -0.1664
   41CHOL    R4  367  14.578   3.273   6.585 -0.0220 -0.0229 -0.3177
   41CHOL    R5  368  14.688   3.430   6.689 -0.1190 -0.0659 -0.1531
   41CHOL    C1  369  14.975   3.264   6.500  0.0348  0.1134 -0.0795
   41CHOL    C2  370  15.162   3.044   6.818 -0.3305 -0.1052 -0.1510
   42PNCE   AM1  371  10.164   9.609   4.983 -0.0025 -0.1616  0.2254
   42PNCE   AM2  372  10.358   9.344   4.977 -0.0149 -0.2548 -0.2009
   42PNCE   T1A  373  10.059   9.815   5.308 -0.1528  0.0437 -0.1344
   42PNCE   C2A  374   9.986   9.825   5.682 -0.1130  0.1376  0.1905
   42PNCE   C3A  375   9.727   9.580   6.070  0.4093 -0.0595  0.1736
   42PNCE   C1B  376  10.016   9.194   5.327  0.0261  0.1048  0.1122
   42PNCE   C2B  377   9.729   9.242   5.640 -0.3562 -0.0512  0.1588
   42PNCE   C3B  378   9.376   9.228   5.914 -0.1053  0.2459 -0.0423
   42PNCE   D4B  379   9.341   9.408   6.325  0.3426 -0.2090 -0.0348
   42PNCE   C5B  380   9.036   9.525   6.573  0.0233 -0.0383 -0.5321
   42PNCE   C6B  381   8.957   9.287   6.870  0.0088  0.2225  0.3392
   43PNCE   AM1  382  14.236   1.489   8.294  0.2148  0.1585 -0.1703
   43PNCE   AM2  383  13.992   1.599   8.466  0.0730  0.0568  0.0176
   43PNCE   T1A  384  13.908   1.234   8.113  0.2228  0.0349 -0.0321
   43PNCE   C2A  385  13.545   1.354   7.939  0.2020  0.0410  0.0498
   43PNCE   C3A  386  13.410   1.193   7.525  0.0704  0.0404  0.1697
   43PNCE   C1B  387  13.877   1.748   7.950 -0.1327  0.1249  0.0019
   43PNCE   C2B  388  13.555   1.730   7.609  0.0298 -0.2361  0.1923
   43PNCE   C3B  389  13.563   1.629   7.133 -0.2086  0.1393 -0.1163
   43PNCE   D4B  390  13.655   1.673   6.627  0.0200  0.0196 -0.0378
   43PNCE   C5B  391  14.095   1.488   6.379 -0.2052  0.0096  0.2245
   43PNCE   C6B  392  14.430   1.696   6.118 -0.4015  0.0486 -0.2160
   44XCA    COO  393   3.500  12.242   8.976 -0.1882  0.3012 -0.0245
   44XCA     C1  394   3.691  11.888   8.549  0.3412  0.2433  0.1834
   44XCA     C2  395   3.949  11.736   8.319  0.2247 -0.2273 -0.0449
   44XCA     C3  396   4.333  11.633   8.000  0.2087 -0.5023 -0.0442
   44XCA     C4  397   4.737  11.696   7.799 -0.0053  0.0313 -0.3526
   44XCA     C5  398   4.955  11.664   7.307 -0.1300 -0.2606  0.0834
   44XCA     C6  399   4.841  11.670   6.944  0.0130  0.0997  0.0402
   45CHOL   ROH  400   7.351  14.718   8.210  0.0534  0.0289  0.0607
   45CHOL    R1  401   7.345  14.835   7.953  0.0152  0.1504  0.1158
   45CHOL    R2  402   7.465  14.718   7.733  0.2137  0.3826  0.0940
   45CHOL    R3  403   7.217  14.745   7.624  0.2179  0.1742  0.0298
   45CHOL    R4  404   7.388  14.659   7.402  0.3471  0.3253  0.0729
   45CHOL    R5  405   7.258  14.834   7.406  0.1969  0.2141  0.0437
   45CHOL    C1  406   7.111  14.650   7.106  0.4289  0.0963  0.0003
   45CHOL    C2  407   7.288  14.722   6.859 -0.0654 -0.4649 -0.0534
   46CHOL   ROH  408   2.905  10.843   4.871 -0.4921 -0.1179  0.0988
   46CHOL    R1  409   3.051  10.840   5.113 -0.3109 -0.2902 -0.0084
   46CHOL    R2  410   3.035  11.044   5.299  0.2872 -0.1195 -0.1166
   46CHOL    R3  411   2.973  10.841   5.469 -0.0538  0.1165  0.0516
   46CHOL    R4  412   3.129  11.029   5.631  0.0868  0.0737 -0.0495
   46CHOL    R5  413   3.168  10.816   5.606 -0.1610  0.0008  0.1791
   46CHOL    C1  414   3.125  10.830   5.984 -0.3499  0.4077  0.1476
   46CHOL    C2  415   2.965  10.882   6.378 -0.0625 -0.0168 -0.5096
   47XCA    COO  416  15.088   9.177   5.332 -0.0678 -0.0028 -0.1428
   47XCA     C1  417  14.918   9.178   5.764  0.0886  0.0917  0.0735
   47XCA     C2  418  14.760   9.267   6.175 -0.0489  0.0658  0.0081
   47XCA     C3  419  14.381   9.364   6.397  0.4212 -0.2943  0.0223
   47XCA     C4  420  14.059   9.659   6.649 -0.3078 -0.1704 -0.1850
   47XCA     C5  421  13.956   9.692   7.142  0.0968 -0.2159 -0.0192
   47XCA     C6  422  13.785   9.678   7.488 -0.0547  0.1825 -0.2174
   48CHOL   ROH  423   2.654  13.174   4.549 -0.1249 -0.0840 -0.0390
   48CHOL    R1  424   2.722  12.956   4.717 -0.2723 -0.1022 -0.0007
   48CHOL    R2  425   2.939  12.962   4.889 -0.1292 -0.3020 -0.1628
   48CHOL    R3  426   2.751  12.898   5.075 -0.0784  0.0136  0.0024
   48CHOL    R4  427   2.995  12.765   5.168 -0.2331 -0.4518 -0.2472
   48CHOL    R5  428   2.801  12.672   5.135 -0.4393 -0.0912 -0.0823
   48CHOL    C1  429   2.851  12.591   5.505 -0.2459 -0.2427 -0.1414
   48CHOL    C2  430   3.110  12.516   5.561  0.2536  0.1086  0.2695
   49PNCE   AM1  431   5.915   1.250   4.366 -0.0011  0.2748  0.1145
   49PNCE   AM2  432   6.068   1.419   4.524 -0.3229 -0.3000 -0.1365
   49PNCE   T1A  433   5.681   1.408   4.790  0.1826  0.0308  0.2625
   49PNCE   C2A  434   5.890   1.453   5.063 -0.3532  0.1752 -0.0029
   49PNCE   C3A  435   5.838   1.391   5.571 -0.2423 -0.1758  0.1014
   49PNCE   C1B  436   6.003   1.028   4.787 -0.0596 -0.0619  0.2237
   49PNCE   C2B  437   5.730   1.006   5.161  0.0362  0.2623  0.0442
   49PNCE   C3B  438   5.536   0.939   5.518 -0.3723 -0.0062  0.1963
   49PNCE   D4B  439   5.467   1.198   5.906 -0.1714 -0.0573  0.2425
   49PNCE   C5B  440   5.546   0.971   6.296 -0.0196  0.2097 -0.0751
   49PNCE   C6B  441   5.694   0.988   6.757 -0.1438  0.0739 -0.3719
   50PNCE   AM1  442   6.001  14.989   8.138  0.0232 -0.0182  0.0848
   50PNCE   AM2  443   5.773  15.160   8.289 -0.0418  0.0338  0.1283
   50PNCE   T1A  444   6.295  15.096   7.916  0.0996 -0.1747  0.0439
   50PNCE   C2A  445   6.297  15.243   7.488 -0.0641 -0.2001  0.1434
   50PNCE   C3A  446   6.479  15.301   7.181 -0.1365 -0.1452 -0.2838
   50PNCE   C1B  447   5.879  15.402   7.821 -0.1571  0.0179 -0.1964
   50PNCE   C2B  448   5.818  15.512   7.393 -0.2472  0.1127 -0.1208
   50PNCE   C3B  449   5.631  15.315   6.985  0.2655  0.2805  0.2050
   50PNCE   D4B  450   5.644  14.918   6.653 -0.0193 -0.1057 -0.1708
   50PNCE   C5B  451   5.887  14.658   6.858  0.1026  0.0014 -0.2336
   50PNCE   C6B  452   6.015  14.249   6.796 -0.3458  0.2193  0.0117
   51CHOL   ROH  453  14.204   2.963   7.818 -0.0573 -0.0533  0.0338
   51CHOL    R1  454  14.035   3.073   7.619  0.1598  0.0847 -0.0785
   51CHOL    R2  455  14.105   3.081   7.352  0.1531 -0.4063 -0.1039
   51CHOL    R3  456  13.867   2.954   7.319 -0.1493  0.0776  0.0935
   51CHOL    R4  457  13.941   3.041   7.050  0.1303 -0.6006 -0.0673
   51CHOL    R5  458  13.753   3.081   7.152  0.1866  0.0366 -0.1757
   51CHOL    C1  459  13.623   2.897   6.844 -0.1668 -0.2595  0.1394
   51CHOL    C2  460  13.657   2.995   6.486  0.2844 -0.0254  0.1961
   52PNCE   AM1  461   2.238   2.311   4.150  0.0984  0.1734 -0.1889
   52PNCE   AM2  462   2.527   2.068   4.107 -0.2679  0.0602 -0.2153
   52PNCE   T1A  463   2.379   2.253   4.572 -0.0692 -0.1759  0.2641
   52PNCE   C2A  464   2.429   2.374   5.060  0.0515  0.2088  0.2270
   52PNCE   C3A  465   2.768   2.463   5.293  0.1367  0.1309 -0.2363
   52PNCE   C1B  466   2.852   2.186   4.450  0.0951  0.0898  0.1182
   52PNCE   C2B  467   2.892   2.167   4.882  0.0499  0.2162 -0.0740
   52PNCE   C3B  468   2.850   1.974   5.345 -0.0586 -0.2249 -0.2702
   52PNCE   D4B  469   2.652   1.971   5.721  0.1186  0.2276  0.0638
   52PNCE   C5B  470   3.038   1.964   6.056  0.2156 -0.0796  0.1684
   52PNCE   C6B  471   3.285   2.342   6.292 -0.1430  0.1083  0.1714
   53PNCE   AM1  472   6.419  12.639   8.211 -0.0883 -0.0984 -0.0336
   53PNCE   AM2  473   6.609  12.361   8.112 -0.1556 -0.0066 -0.1106
   53PNCE   T1A  474   6.682  12.973   7.992 -0.2714 -0.2967 -0.2263
   53PNCE   C2A  475   6.831  13.170   7.644 -0.3433 -0.2040  0.0100
   53PNCE   C3A  476   6.657  13.313   7.204 -0.3231  0.4108  0.0283
   53PNCE   C1B  477   6.623  11.985   7.737 -0.0755  0.0542  0.0872
   53PNCE   C2B  478   6.697  11.980   7.295 -0.1876 -0.0318  0.0935
   53PNCE   C3B  479   6.901  12.031   6.968 -0.1925  0.0212  0.1926
   53PNCE   D4B  480   7.220  11.791   6.803 -0.1090  0.0712  0.0024
   53PNCE   C5B  481   7.524  12.157   6.855  0.2504 -0.0879 -0.1029
   53PNCE   C6B  482   7.937  12.283   6.850  0.2696  0.2596  0.1100
   54CHOL   ROH  483   1.493   3.286   4.492  0.0668 -0.0113 -0.0389
   54CHOL    R1  484   1.413   3.309   4.763  0.0729  0.0215 -0.0395
   54CHOL    R2  485   1.219   3.147   4.875  0.0407  0.0652 -0.0270
   54CHOL    R3  486   1.413   3.096   5.058  0.0338  0.0392 -0.0273
   54CHOL    R4  487   1.163   3.033   5.196  0.0302  0.0752 -0.0255
   54CHOL    R5  488   1.320   3.168   5.266  0.0475  0.0523 -0.0275
   54CHOL    C1  489   1.313   2.919   5.555  0.0176  0.0566 -0.0248
   54CHOL    C2  490   1.138   2.915   5.922 -0.3081  0.2115  0.0201
   55XCA    COO  491  15.487  13.486   7.954 -0.0605  0.0764  0.0336
   55XCA     C1  492  15.313  13.290   7.622 -0.2995 -0.1359  0.0013
   55XCA     C2  493  15.577  13.245   7.218 -0.0672  0.0470 -0.2699
   55XCA     C3  494  15.777  12.994   6.878 -0.0667  0.4046  0.1101
   55XCA     C4  495  16.041  13.143   6.458 -0.2887 -0.0004  0.0347
   55XCA     C5  496  16.043  13.398   6.147 -0.2696  0.0416 -0.1673
   55XCA     C6  497  16.095  13.804   6.132 -0.0750 -0.3167  0.0596
   56XCA    COO  498   2.106   3.682   4.204 -0.1485 -0.1379 -0.1174
   56XCA     C1  499   2.233   3.890   4.553  0.0564 -0.0977 -0.1152
   56XCA     C2  500   2.222   4.049   4.941  0.0450 -0.2281  0.0463
   56XCA     C3  501   2.174   3.779   5.377  0.2011 -0.4310  0.3840
   56XCA     C4  502   2.316   3.745   5.782 -0.0323 -0.0777 -0.1867
   56XCA     C5  503   2.397   3.696   6.185 -0.1644  0.0667  0.1509
   56XCA     C6  504   2.263   3.874   6.649  0.1099  0.4287  0.0521
   57CHOL   ROH  505   4.235   2.558   4.515 -0.3399 -0.3916  0.0170
   57CHOL    R1  506   4.455   2.395   4.587 -0.1790 -0.2070 -0.0508
   57CHOL    R2  507   4.714   2.490   4.595 -0.2585  0.0109 -0.1333
   57CHOL    R3  508   4.709   2.393   4.848 -0.0915  0.0040 -0.1300
   57CHOL    R4  509   4.992   2.447   4.795 -0.1490  0.2668 -0.2247
   57CHOL    R5  510   4.906   2.258   4.865  0.0420  0.1827 -0.1957
   57CHOL    C1  511   5.149   2.331   5.151  0.0715  0.4094 -0.2749
   57CHOL    C2  512   5.267   2.231   5.418  0.0524 -0.0425 -0.0688
   58CHOL   ROH  513   4.948  11.196   6.179  0.0886 -0.0605 -0.1095
   58CHOL    R1  514   4.977  11.468   6.250  0.0000 -0.0407 -0.1495
   58CHOL    R2  515   5.024  11.550   6.510 -0.2368  0.0264 -0.1264
   58CHOL    R3  516   5.236  11.677   6.397 -0.1474  0.0198  0.0302
   58CHOL    R4  517   5.134  11.866   6.597 -0.1656 -0.0572  0.0967
   58CHOL    R5  518   5.168  11.907   6.385 -0.0665  0.0507  0.1312
   58CHOL    C1  519   5.396  12.170   6.541 -0.0401 -0.1119  0.3735
   58CHOL    C2  520   5.281  12.514   6.714 -0.1178 -0.1491  0.5070
   59CHOL   ROH  521  12.554   3.846   4.923 -0.1630  0.1056 -0.1882
   59CHOL    R1  522  12.409   3.784   5.159 -0.0984  0.0427 -0.1651
   59CHOL    R2  523  12.193   3.612   5.159  0.0389 -0.1305 -0.1128
   59CHOL    R3  524  12.336   3.485   5.352  0.1530  0.0258 -0.0913
   59CHOL    R4  525  12.082   3.557   5.482  0.0821 -0.1802 -0.1060
   59CHOL    R5  526  12.283   3.604   5.553  0.0420  0.0118 -0.1100
   59CHOL    C1  527  12.152   3.406   5.851  0.2142 -0.0624 -0.0820
   59CHOL    C2  528  11.819   3.314   5.842  0.1861  0.2008 -0.0673
   60PNCE   AM1  529   3.312   9.297   9.355  0.3152 -0.0918 -0.0530
   60PNCE   AM2  530   3.069   9.499   9.409 -0.0894  0.1291 -0.2966
   60PNCE   T1A  531   3.569   9.435   8.977  0.1452 -0.1378 -0.1593
   60PNCE   C2A  532   3.925   9.596   8.686 -0.1524 -0.0405  0.0924
   60PNCE   C3A  533   3.969   9.635   8.200 -0.2570  0.1556  0.0015
   60PNCE   C1B  534   3.016   9.678   9.012 -0.1498  0.1708  0.1235
   60PNCE   C2B  535   3.126   9.424   8.635  0.0594 -0.2194  0.1043
   60PNCE   C3B  536   2.874   9.181   8.414  0.0216  0.0768 -0.4435
   60PNCE   D4B  537   2.914   8.766   8.157 -0.0100  0.2135 -0.3457
   60PNCE   C5B  538   3.375   8.583   8.185 -0.2894  0.0404 -0.0871
   60PNCE   C6B  539   3.452   8.168   8.451 -0.1271 -0.2019 -0.2298
   61PNCE   AM1  540   7.442   6.977   9.006 -0.1770 -0.2226  0.1379
   61PNCE   AM2  541   7.230   7.017   8.690  0.2313  0.0944 -0.2744
   61PNCE   T1A  542   7.710   6.909   8.586 -0.1245  0.0476 -0.2885
   61PNCE   C2A  543   8.062   6.950   8.334  0.0147 -0.2393  0.3446
   61PNCE   C3A  544   8.372   7.184   8.382 -0.1892 -0.0068 -0.0170
   61PNCE   C1B  545   7.431   7.458   8.481 -0.0639  0.2289  0.0551
   61PNCE   C2B  546   7.251   7.765   8.154 -0.1066 -0.0690  0.5709
   61PNCE   C3B  547   7.162   8.084   7.872  0.0209 -0.3032 -0.2337
   61PNCE   D4B  548   6.862   8.138   7.531 -0.0686  0.2672 -0.1441
   61PNCE   C5B  549   6.648   7.864   7.278  0.1584  0.0058 -0.1557
   61PNCE   C6B  550   6.563   7.587   7.064  0.1347  0.1439 -0.0767
   62PNCE   AM1  551  14.355  11.352   8.748  0.2364 -0.0903 -0.2425
   62PNCE   AM2  552  14.125  11.082   8.447 -0.1095  0.0911  0.1058
   62PNCE   T1A  553  13.945  11.643   8.518 -0.2810  0.0688  0.1296
   62PNCE   C2A  554  13.791  12.045   8.515 -0.2471 -0.0227  0.0546
   62PNCE   C3A  555  13.580  12.222   8.286  0.1114  0.1342  0.1396
   62PNCE   C1B  556  14.073  11.294   8.103 -0.3110  0.0787  0.1043
   62PNCE   C2B  557  14.156  11.170   7.683 -0.1173  0.1097  0.2563
   62PNCE   C3B  558  14.128  10.959   7.330  0.0094 -0.2256  0.1112
   62PNCE   D4B  559  14.168  10.716   6.868 -0.1674 -0.1243  0.0308
   62PNCE   C5B  560  13.897  10.539   6.684  0.0801  0.0221  0.1121
   62PNCE   C6B  561  13.471  10.309   6.644  0.0973 -0.1344  0.3113
   63PNCE   AM1  562   3.650   3.043   8.622 -0.2576  0.0056 -0.2702
   63PNCE   AM2  563   3.398   3.046   8.543  0.1618 -0.1465  0.0918
   63PNCE   T1A  564   3.830   3.188   8.283  0.0848 -0.1086 -0.0791
   63PNCE   C2A  565   3.987   3.044   7.898  0.1796 -0.1763  0.2557
   63PNCE   C3A  566   4.250   2.791   7.746  0.1299  0.1486  0.3225
   63PNCE   C1B  567   3.338   3.084   8.084  0.0884 -0.0448 -0.1041
   63PNCE   C2B  568   3.531   3.200   7.631  0.0330  0.3369 -0.1040
   63PNCE   C3B  569   3.772   3.370   7.131  0.1485  0.0362  0.0683
   63PNCE   D4B  570   4.074   3.489   6.947 -0.0470  0.1382  0.1605
   63PNCE   C5B  571   4.172   3.039   6.765  0.1946  0.0535  0.1226
   63PNCE   C6B  572   4.507   2.896   6.699  0.1836  0.0435 -0.0747
   64PNCE   AM1  573   4.845   3.573   8.831 -0.0010 -0.0240  0.2796
   64PNCE   AM2  574   4.912   3.767   8.601 -0.0316 -0.0228 -0.2015
   64PNCE   T1A  575   4.722   3.235   8.502  0.3888  0.0022 -0.1916
   64PNCE   C2A  576   4.599   3.093   8.143 -0.0271 -0.0813 -0.1379
   64PNCE   C3A  577   4.704   3.003   7.712 -0.1862  0.1365  0.0498
   64PNCE   C1B  578   4.962   3.558   8.156 -0.3484 -0.1935  0.1768
   64PNCE   C2B  579   4.941   3.438   7.714  0.2822  0.0766 -0.0234
   64PNCE   C3B  580   5.058   3.446   7.243  0.0493  0.0298  0.2736
   64PNCE   D4B  581   4.911   3.152   6.913  0.2053 -0.2109  0.0058
   64PNCE   C5B  582   5.102   2.792   6.843 -0.0164  0.2806 -0.0945
   64PNCE   C6B  583   5.225   2.371   7.115 -0.1788  0.1677 -0.0687
   65PNCE   AM1  584  10.395  14.365   9.028 -0.1676  0.2519  0.1385
   65PNCE   AM2  585  10.374  14.671   9.217  0.0911 -0.1521 -0.0270
   65PNCE   T1A  586  10.186  14.610   8.670 -0.1822 -0.0009  0.0229
   65PNCE   C2A  587   9.974  14.506   8.363  0.1497 -0.1831 -0.0507
   65PNCE   C3A  588   9.829  14.796   8.051  0.1383  0.1135 -0.0100
   65PNCE   C1B  589  10.745  14.730   8.872 -0.1085 -0.4084 -0.1796
   65PNCE   C2B  590  10.774  14.719   8.495  0.1674 -0.0880  0.1162
   65PNCE   C3B  591  10.841  14.550   7.998 -0.1061 -0.2829 -0.2398
   65PNCE   D4B  592  11.126  14.558   7.598  0.1871  0.1770  0.2031
   65PNCE   C5B  593  11.164  14.763   7.291  0.0523  0.1669 -0.0944
   65PNCE   C6B  594  11.372  14.788   6.965  0.0073  0.1414 -0.2463
   66CHOL   ROH  595   7.582  10.519   7.923  0.1406 -0.2811  0.2365
   66CHOL    R1  596   7.491  10.441   7.666  0.1501 -0.0309  0.1540
   66CHOL    R2  597   7.625  10.510   7.435  0.3099 -0.0290  0.2420
   66CHOL    R3  598   7.620  10.241   7.390  0.0428 -0.0006  0.0827
   66CHOL    R4  599   7.652  10.361   7.124  0.2198  0.1199  0.1620
   66CHOL    R5  600   7.499  10.218   7.185  0.0610  0.2417  0.0442
   66CHOL    C1  601   7.663  10.022   6.901 -0.0834  0.2334 -0.0341
   66CHOL    C2  602   7.647  10.317   6.608 -0.1755 -0.1745  0.0004
   67PNCE   AM1  603   3.732  13.514   8.066 -0.1501  0.1560  0.0346
   67PNCE   AM2  604   3.444  13.579   8.138  0.1066 -0.0389  0.0626
   67PNCE   T1A  605   3.922  13.772   7.781 -0.2612  0.0023 -0.2844
   67PNCE   C2A  606   4.123  14.019   7.436 -0.2999  0.0729 -0.1937
   67PNCE   C3A  607   3.977  14.270   7.151  0.0092 -0.0708 -0.3702
   67PNCE   C1B  608   3.413  13.737   7.764  0.1700 -0.0652 -0.0144
   67PNCE   C2B  609   3.251  13.637   7.402  0.0564  0.1781  0.2022
   67PNCE   C3B  610   3.378  13.458   6.999  0.2116 -0.1678  0.2350
   67PNCE   D4B  611   3.672  13.620   6.675 -0.0130 -0.2778  0.2743
   67PNCE   C5B  612   3.651  13.333   6.256 -0.0059  0.0923 -0.2361
   67PNCE   C6B  613   3.704  12.915   6.264 -0.0239  0.0115  0.3433
   68CHOL   ROH  614   8.002  12.580   8.065  0.1563 -0.0321  0.1551
   68CHOL    R1  615   8.086  12.487   7.811 -0.0065  0.0016  0.0874
   68CHOL    R2  616   8.140  12.221   7.761 -0.0066  0.0116  0.0255
   68CHOL    R3  617   7.960  12.255   7.560 -0.1520  0.0086  0.1533
   68CHOL    R4  618   8.115  12.018   7.482 -0.0265  0.1689 -0.0882
   68CHOL    R5  619   8.082  12.197   7.361 -0.2282  0.2207  0.0427
   68CHOL    C1  620   7.932  11.933   7.131 -0.1747  0.2577 -0.0344
   68CHOL    C2  621   8.251  11.664   6.969  0.0140  0.1467  0.3114
   69CHOL   ROH  622   2.302  15.377   4.336  0.1521  0.1563  0.0435
   69CHOL    R1  623   2.435  15.307   4.576  0.0297  0.0271  0.0746
   69CHOL    R2  624   2.420  15.460   4.805 -0.0021 -0.0416  0.1174
   69CHOL    R3  625   2.339  15.226   4.917 -0.1373 -0.0475  0.0118
   69CHOL    R4  626   2.335  15.420   5.138 -0.0238 -0.1413  0.1003
   69CHOL    R5  627   2.439  15.228   5.135 -0.1339 -0.2023  0.0134
   69CHOL    C1  628   2.211  15.176   5.437 -0.1634 -0.2050 -0.0089
   69CHOL    C2  629   2.015  15.339   5.808 -0.2028 -0.0512  0.0679
   70PNCE   AM1  630   3.100  15.663   8.252  0.2074  0.4214  0.0080
   70PNCE   AM2  631   2.888  15.365   8.437 -0.3217 -0.0385 -0.0207
   70PNCE   T1A  632   3.011  15.732   7.758 -0.2129  0.0022 -0.2095
   70PNCE   C2A  633   3.132  15.628   7.354  0.0533  0.1763 -0.2121
   70PNCE   C3A  634   3.129  15.673   7.020 -0.0654  0.1936 -0.0024
   70PNCE   C1B  635   2.832  15.293   7.950 -0.3183 -0.1712  0.2297
   70PNCE   C2B  636   2.926  15.203   7.548  0.0232  0.1582 -0.1165
   70PNCE   C3B  637   2.931  15.065   7.220  0.2201  0.2550 -0.0584
   70PNCE   D4B  638   3.228  14.883   7.064 -0.1072  0.0561  0.0054
   70PNCE   C5B  639   3.606  15.016   6.932 -0.3401  0.1394  0.1555
   70PNCE   C6B  640   3.882  15.131   6.702  0.0044  0.2938  0.0290
   71PNCE   AM1  641  10.419   8.086   9.052 -0.0881  0.1571 -0.1057
   71PNCE   AM2  642  10.412   8.367   8.863 -0.1265 -0.2333  0.1076
   71PNCE   T1A  643  10.667   8.030   8.621 -0.2354 -0.1099 -0.2900
   71PNCE   C2A  644  10.847   8.302   8.191  0.3748 -0.1858  0.0439
   71PNCE   C3A  645  11.091   8.458   7.708 -0.0010 -0.4138 -0.3288
   71PNCE   C1B  646  10.202   8.042   8.559  0.0347  0.1294 -0.0710
   71PNCE   C2B  647  10.355   7.730   8.234 -0.2079 -0.2159  0.0037
   71PNCE   C3B  648  10.207   7.486   7.899  0.0867  0.1426 -0.0836
   71PNCE   D4B  649   9.863   7.410   7.598 -0.2421 -0.0916 -0.0636
   71PNCE   C5B  650   9.559   7.751   7.347  0.0910 -0.0748 -0.1807
   71PNCE   C6B  651   9.119   7.926   7.455  0.0551  0.1326  0.0649
   72PNCE   AM1  652   0.752  15.234   3.915  0.0545  0.1912 -0.2142
   72PNCE   AM2  653   0.785  14.997   3.978  0.1890 -0.1303 -0.0825
   72PNCE   T1A  654   0.538  15.149   4.347  0.2418  0.1552  0.0641
   72PNCE   C2A  655   0.482  14.949   4.757 -0.0993 -0.1551 -0.0222
   72PNCE   C3A  656   0.496  14.970   5.249 -0.0243 -0.2384  0.1627
   72PNCE   C1B  657   0.643  14.646   4.277 -0.0497  0.0690  0.2829
   72PNCE   C2B  658   0.508  14.229   4.262  0.1935  0.2695  0.0487
   72PNCE   C3B  659   0.138  13.978   4.155 -0.4112 -0.1889  0.2599
   72PNCE   D4B  660  -0.225  13.736   4.266  0.1901 -0.0015  0.1235
   72PNCE   C5B  661  -0.562  13.890   4.119 -0.0134  0.0719 -0.3473
   72PNCE   C6B  662  -1.021  13.849   4.269 -0.0119 -0.0135 -0.0803
   73CHOL   ROH  663   9.932   2.160   8.650 -0.0881  0.2336  0.0927
   73CHOL    R1  664   9.794   2.114   8.407 -0.0319  0.2725  0.0541
   73CHOL    R2  665   9.864   2.239   8.170  0.1960  0.1020  0.0334
   73CHOL    R3  666   9.875   1.984   8.077 -0.0255  0.0496  0.1409
   73CHOL    R4  667   9.820   2.147   7.840  0.3315  0.0338  0.0332
   73CHOL    R5  668   9.706   1.974   7.908  0.0810  0.1841  0.0197
   73CHOL    C1  669   9.806   1.854   7.560  0.2024 -0.0550  0.1342
   73CHOL    C2  670   9.924   1.572   7.304  0.2576 -0.1465 -0.1168
   74CHOL   ROH  671   9.266   7.820   6.755 -0.1257  0.0094 -0.0970
   74CHOL    R1  672   9.436   8.041   6.801 -0.1583  0.0467 -0.1508
   74CHOL    R2  673   9.557   8.089   7.045 -0.2339  0.1745 -0.1331
   74CHOL    R3  674   9.784   8.093   6.895 -0.1916  0.1191 -0.0695
   74CHOL    R4  675   9.838   8.276   7.117 -0.1861  0.0631 -0.0309
   74CHOL    R5  676   9.857   8.320   6.904 -0.1125  0.0889 -0.0157
   74CHOL    C1  677  10.215   8.389   7.018 -0.1185 -0.0538  0.0884
   74CHOL    C2  678  10.487   8.208   7.227  0.0528  0.0121 -0.2357
   75PNCE   AM1  679  14.938  12.254   8.312  0.1140  0.1514  0.2863
   75PNCE   AM2  680  15.067  11.902   8.515  0.1522  0.5245  0.0524
   75PNCE   T1A  681  14.574  12.320   8.230  0.1102  0.2319 -0.3031
   75PNCE   C2A  682  14.045  12.541   8.169  0.1903 -0.2948  0.0684
   75PNCE   C3A  683  13.657  12.651   7.837  0.0322  0.1437 -0.0238
   75PNCE   C1B  684  14.600  11.839   8.459  0.3886  0.0781 -0.1141
   75PNCE   C2B  685  14.235  11.952   8.190 -0.2497 -0.2570 -0.2386
   75PNCE   C3B  686  14.169  11.692   7.800 -0.1175  0.2431  0.1361
   75PNCE   D4B  687  14.032  11.681   7.477  0.0891  0.3550  0.1564
   75PNCE   C5B  688  14.111  11.469   7.166 -0.0850  0.1470  0.1723
   75PNCE   C6B  689  13.795  11.205   7.000  0.1913 -0.0014 -0.1813
   76XCA    COO  690  13.605   3.926   5.090  0.2687 -0.1053  0.1223
   76XCA     C1  691  13.961   3.737   5.153 -0.0221  0.1380 -0.0142
   76XCA     C2  692  14.200   3.528   5.435  0.1078 -0.0462  0.0951
   76XCA     C3  693  14.213   3.491   5.769  0.0207 -0.3379 -0.1451
   76XCA     C4  694  14.145   3.279   6.176 -0.0307  0.1459 -0.0535
   76XCA     C5  695  14.278   2.944   6.352 -0.0809 -0.1886 -0.1937
   76XCA     C6  696  14.276   2.953   6.775  0.3558  0.4822 -0.1279
   77CHOL   ROH  697   6.913   5.210   6.723 -0.0031  0.0359  0.1221
   77CHOL    R1  698   7.155   5.157   6.860  0.1074 -0.0047 -0.0848
   77CHOL    R2  699   7.172   4.979   7.069  0.1744  0.2647  0.1495
   77CHOL    R3  700   7.369   4.868   6.918 -0.1055 -0.1341  0.0625
   77CHOL    R4  701   7.447   4.813   7.196  0.3988  0.5789  0.0844
   77CHOL    R5  702   7.569   4.910   7.043  0.1321  0.1878 -0.4011
   77CHOL    C1  703   7.792   4.612   7.127  0.2668  0.3874 -0.0351
   77CHOL    C2  704   8.066   4.309   7.013  0.2469 -0.1090 -0.2092
   78PNCE   AM1  705  14.119  14.154   8.192 -0.0954 -0.0574  0.2543
   78PNCE   AM2  706  14.070  13.992   8.348 -0.3880 -0.0770  0.5131
   78PNCE   T1A  707  13.804  14.079   7.782 -0.0410  0.2400  0.0134
   78PNCE   C2A  708  13.562  14.077   7.464  0.2241  0.1443 -0.0307
   78PNCE   C3A  709  13.314  13.909   7.129 -0.3823  0.1972  0.1643
   78PNCE   C1B  710  14.049  13.564   7.983 -0.2738 -0.1587  0.2105
   78PNCE   C2B  711  14.062  13.620   7.418 -0.0814  0.0695 -0.3010
   78PNCE   C3B  712  14.255  13.400   7.104 -0.0776  0.1622  0.3474
   78PNCE   D4B  713  14.266  13.099   6.782 -0.0663  0.1608  0.4571
   78PNCE   C5B  714  14.201  13.076   6.325 -0.1009 -0.1157  0.4382
   78PNCE   C6B  715  14.166  13.467   6.007  0.3213  0.1331 -0.3138
   79XCA    COO  716   6.239   7.181   8.922 -0.1687  0.3205 -0.2313
   79XCA     C1  717   5.919   7.085   8.469  0.0579 -0.0839  0.1751
   79XCA     C2  718   5.754   6.839   8.055 -0.0782  0.0296  0.0712
   79XCA     C3  719   5.850   6.443   7.882 -0.3636 -0.2093 -0.0812
   79XCA     C4  720   6.271   6.104   7.684 -0.1452 -0.4361  0.2186
   79XCA     C5  721   6.481   6.011   7.353  0.0140 -0.0499  0.2065
   79XCA     C6  722   6.702   5.899   7.018 -0.1762 -0.2828 -0.0949
   80PNCE   AM1  723   4.000  12.967   7.259 -0.1446  0.4370 -0.2478
   80PNCE   AM2  724   3.750  12.787   7.544  0.0571  0.1737 -0.0757
   80PNCE   T1A  725   4.152  12.689   6.909  0.2338 -0.2465 -0.0931
   80PNCE   C2A  726   4.343  12.321   6.640  0.3032 -0.4972  0.0907
   80PNCE   C3A  727   4.501  12.216   6.155 -0.0839  0.0787  0.2658
   80PNCE   C1B  728   3.693  12.563   7.106 -0.1430 -0.1223  0.0326
   80PNCE   C2B  729   3.691  12.612   6.669  0.0031 -0.1313 -0.6648
   80PNCE   C3B  730   3.541  12.497   6.346  0.3114  0.0849  0.0693
   80PNCE   D4B  731   3.316  12.718   5.997 -0.2087 -0.3265 -0.1345
   80PNCE   C5B  732   3.403  12.892   5.640  0.0396 -0.0322  0.0487
   80PNCE   C6B  733   3.418  12.765   5.175 -0.3105  0.1535  0.1284
   81XCA    COO  734   6.141   4.623   4.353  0.0417  0.0190 -0.1038
   81XCA     C1  735   6.631   4.471   4.557 -0.0562  0.1291 -0.0482
   81XCA     C2  736   6.661   4.375   5.007 -0.1158  0.0183  0.1027
   81XCA     C3  737   6.852   4.361   5.403  0.1707  0.0612 -0.0251
   81XCA     C4  738   7.073   4.105   5.669  0.0873  0.3265  0.0167
   81XCA     C5  739   6.938   3.996   6.111  0.0681 -0.0963  0.1221
   81XCA     C6  740   6.823   4.341   6.461  0.0601  0.1355  0.1076
   82CHOL   ROH  741   3.418  10.079   6.532 -0.1721  0.1606 -0.1084
   82CHOL    R1  742   3.352   9.966   6.783  0.0046  0.1487 -0.0664
   82CHOL    R2  743   3.092   9.924   6.864  0.0611  0.1206  0.1052
   82CHOL    R3  744   3.178   9.669   6.902  0.1122  0.1286  0.0437
   82CHOL    R4  745   2.949   9.698   7.084  0.1491  0.0627  0.1029
   82CHOL    R5  746   3.150   9.631   7.137  0.1734  0.0868  0.0448
   82CHOL    C1  747   2.947   9.327   7.247  0.2483  0.0365  0.0438
   82CHOL    C2  748   2.669   9.101   7.388  0.0788 -0.0869 -0.0132
   83CHOL   ROH  749  13.053  14.358   7.052 -0.1460 -0.0132  0.1522
   83CHOL    R1  750  13.046  14.519   6.819  0.0664 -0.0980  0.0839
   83CHOL    R2  751  13.029  14.413   6.565 -0.1634 -0.1849  0.1336
   83CHOL    R3  752  12.813  14.577   6.545  0.0953  0.1631  0.1123
   83CHOL    R4  753  12.916  14.557   6.272 -0.0928 -0.2669  0.0653
   83CHOL    R5  754  12.877  14.741   6.383  0.2786 -0.0914 -0.0791
   83CHOL    C1  755  12.648  14.796   6.083  0.1913  0.0120  0.0055
   83CHOL    C2  756  12.463  15.142   5.956  0.3233 -0.2013 -0.2237
   84PNCE   AM1  757   5.611   2.133   8.777 -0.0888  0.1218  0.1630
   84PNCE   AM2  758   5.831   1.994   8.620 -0.0054  0.2097  0.1444
   84PNCE   T1A  759   5.556   2.164   8.251  0.1546  0.0055  0.1965
   84PNCE   C2A  760   5.645   1.984   7.980  0.1245  0.3210 -0.0247
   84PNCE   C3A  761   5.658   1.753   7.643  0.1537  0.2999  0.0009
   84PNCE   C1B  762   5.991   1.894   8.241  0.2923 -0.0081 -0.2707
   84PNCE   C2B  763   6.119   2.013   7.789 -0.1168  0.2048  0.1510
   84PNCE   C3B  764   6.158   2.223   7.348  0.0997 -0.0701 -0.2089
   84PNCE   D4B  765   6.335   2.545   7.249  0.2903 -0.2376  0.0897
   84PNCE   C5B  766   6.853   2.557   7.354  0.0757  0.2979 -0.1929
   84PNCE   C6B  767   7.094   2.776   7.704  0.0091 -0.1694  0.0011
   85PNCE   AM1  768   2.314   1.200   7.953  0.2730 -0.1776  0.0348
   85PNCE   AM2  769   2.163   0.934   7.878  0.0279  0.1421  0.1429
   85PNCE   T1A  770   2.578   1.108   7.629  0.1668 -0.0473 -0.3788
   85PNCE   C2A  771   2.945   0.959   7.413  0.2269 -0.0493 -0.0968
   85PNCE   C3A  772   3.274   0.688   7.316 -0.1486  0.1724 -0.1208
   85PNCE   C1B  773   1.964   0.967   7.415 -0.0188  0.2362 -0.0393
   85PNCE   C2B  774   1.799   1.142   6.992  0.1183  0.1907  0.0019
   85PNCE   C3B  775   1.967   1.357   6.617  0.2552 -0.1660 -0.2210
   85PNCE   D4B  776   2.150   1.402   6.198  0.0343  0.0279  0.3421
   85PNCE   C5B  777   2.567   1.238   6.051 -0.1981  0.0103 -0.0130
   85PNCE   C6B  778   2.982   1.085   5.963 -0.2917 -0.2690  0.0801
   86CHOL   ROH  779  14.527   1.338   7.969 -0.0525  0.0275 -0.2114
   86CHOL    R1  780  14.272   1.275   7.861 -0.1185  0.1014 -0.0961
   86CHOL    R2  781  14.143   1.439   7.679 -0.0234 -0.0003 -0.2462
   86CHOL    R3  782  14.133   1.211   7.531 -0.2307 -0.1564 -0.0035
   86CHOL    R4  783  13.893   1.360   7.455  0.0120  0.1065 -0.3258
   86CHOL    R5  784  13.901   1.154   7.525 -0.3161  0.1595 -0.0884
   86CHOL    C1  785  13.737   1.101   7.185 -0.1621  0.0222 -0.1443
   86CHOL    C2  786  13.477   1.077   6.970  0.1427 -0.1960  0.2694
   87PNCE   AM1  787   0.151  10.711   8.626 -0.2506 -0.3841 -0.1832
   87PNCE   AM2  788   0.121  10.413   8.652  0.0962 -0.2926  0.1877
   87PNCE   T1A  789  -0.191  10.836   8.353  0.0629  0.0132  0.1279
   87PNCE   C2A  790  -0.412  10.978   8.061 -0.2377  0.1199 -0.0371
   87PNCE   C3A  791  -0.676  11.035   7.798 -0.1078  0.1229  0.1232
   87PNCE   C1B  792   0.105  10.404   8.216 -0.1123 -0.0096  0.1904
   87PNCE   C2B  793  -0.108  10.555   7.900  0.3164 -0.4030 -0.0116
   87PNCE   C3B  794  -0.244  10.815   7.520 -0.0395 -0.1037  0.0942
   87PNCE   D4B  795  -0.425  11.177   7.329 -0.1478 -0.0887  0.0265
   87PNCE   C5B  796  -0.469  11.169   6.922 -0.2291 -0.0001 -0.3249
   87PNCE   C6B  797  -0.186  11.139   6.558  0.0127  0.1134 -0.0484
   88XCA    COO  798  12.200  14.751   8.874 -0.0697 -0.0849  0.3215
   88XCA     C1  799  12.190  14.833   8.501 -0.1094 -0.2587  0.0977
   88XCA     C2  800  12.314  15.019   8.183  0.1616 -0.1948 -0.1287
   88XCA     C3  801  12.342  15.310   7.925  0.0532 -0.1709  0.0734
   88XCA     C4  802  12.534  15.433   7.473 -0.3461  0.0466 -0.1221
   88XCA     C5  803  12.765  15.192   7.153 -0.0356  0.2083  0.0223
   88XCA     C6  804  12.653  14.852   6.962  0.0507 -0.1312  0.0822
   89CHOL   ROH  805  10.853   4.843   4.538  0.1333 -0.1315  0.0260
   89CHOL    R1  806  10.863   5.009   4.766  0.0590 -0.0869 -0.0027
   89CHOL    R2  807  10.635   5.096   4.897  0.0124 -0.0050 -0.1326
   89CHOL    R3  808  10.757   4.987   5.114 -0.1203  0.0079 -0.0506
   89CHOL    R4  809  10.641   5.237   5.212 -0.2213 -0.0156 -0.1217
   89CHOL    R5  810  10.849   5.175   5.231 -0.2269  0.0147  0.0190
   89CHOL    C1  811  10.759   5.218   5.599 -0.4818 -0.0098 -0.0383
   89CHOL    C2  812  11.157   5.411   5.752 -0.2892  0.1476 -0.1743
   90CHOL   ROH  813   0.722   2.999   6.112  0.0438  0.0655  0.0127
   90CHOL    R1  814   0.875   3.060   6.342  0.1654 -0.2120  0.0105
   90CHOL    R2  815   1.116   2.938   6.397  0.3062 -0.1289 -0.3792
   90CHOL    R3  816   1.206   3.194   6.411  0.1141 -0.0749 -0.0109
   90CHOL    R4  817   1.422   3.033   6.527  0.1939 -0.0647 -0.1573
   90CHOL    R5  818   1.324   3.205   6.619  0.0384 -0.2587  0.0401
   90CHOL    C1  819   1.684   3.329   6.616 -0.0519  0.0232  0.3176
   90CHOL    C2  820   1.929   3.573   6.825 -0.2073  0.1800  0.0425
   91CHOL   ROH  821   4.640   5.229   8.384 -0.1093 -0.0403  0.0489
   91CHOL    R1  822   4.814   5.285   8.167 -0.1558  0.1760  0.0651
   91CHOL    R2  823   4.885   5.093   7.981  0.2262  0.2168  0.1640
   91CHOL    R3  824   4.794   5.278   7.804 -0.0655 -0.0171  0.0616
   91CHOL    R4  825   5.000   5.132   7.657  0.2016  0.2426  0.1584
   91CHOL    R5  826   4.989   5.347   7.683 -0.1590  0.2459  0.0509
   91CHOL    C1  827   4.981   5.327   7.303 -0.0866  0.0382  0.0590
   91CHOL    C2  828   5.001   5.546   6.966 -0.2050 -0.4483 -0.0410
   92PNCE   AM1  829  11.332  10.468   8.589 -0.0408  0.0585  0.1271
   92PNCE   AM2  830  11.174  10.215   8.471  0.2580 -0.2591 -0.0583
   92PNCE   T1A  831  11.521  10.468   8.198  0.0262  0.0808  0.1416
   92PNCE   C2A  832  11.671  10.275   7.845 -0.3740  0.1068  0.3987
   92PNCE   C3A  833  11.837  10.422   7.471 -0.1654  0.0145  0.0294
   92PNCE   C1B  834  10.994  10.310   8.075  0.0520 -0.1362  0.1298
   92PNCE   C2B  835  10.815  10.242   7.723  0.0966 -0.1950  0.1512
   92PNCE   C3B  836  10.851  10.114   7.296 -0.0036  0.0841 -0.1585
   92PNCE   D4B  837  11.116  10.047   6.820  0.1381 -0.4710  0.2478
   92PNCE   C5B  838  10.875   9.907   6.512  0.3154  0.1099  0.0986
   92PNCE   C6B  839  10.474   9.642   6.513 -0.0114  0.1224 -0.1488
   93CHOL   ROH  840  11.074  13.550   7.113  0.1165  0.1676  0.1970
   93CHOL    R1  841  10.902  13.774   7.097  0.0800  0.1243 -0.0620
   93CHOL    R2  842  10.706  13.797   6.904  0.0187 -0.1695 -0.0414
   93CHOL    R3  843  10.544  13.835   7.120  0.0780  0.1024 -0.0410
   93CHOL    R4  844  10.388  13.933   6.892  0.0303 -0.1487 -0.1155
   93CHOL    R5  845  10.433  14.042   7.075  0.0893  0.0633 -0.2547
   93CHOL    C1  846  10.052  14.048   7.087  0.0927  0.1187 -0.1582
   93CHOL    C2  847   9.769  14.280   7.177 -0.0264 -0.0046  0.2211
   94XCA    COO  848   8.808  12.878   8.247  0.1581 -0.2215 -0.1888
   94XCA     C1  849   9.046  13.150   7.940 -0.0137 -0.0237  0.1726
   94XCA     C2  850   9.375  13.295   7.721  0.0436 -0.1403  0.2409
   94XCA     C3  851   9.728  13.399   7.640 -0.1693  0.1482 -0.1282
   94XCA     C4  852  10.003  13.745   7.825  0.3143 -0.0514 -0.1363
   94XCA     C5  853  10.138  14.046   7.663 -0.3649 -0.2412 -0.1278
   94XCA     C6  854  10.226  14.373   7.349  0.1319 -0.1494  0.3109
   95CHOL   ROH  855   2.882   2.195   6.494 -0.1133 -0.0080 -0.2678
   95CHOL    R1  856   2.832   2.413   6.321 -0.0996  0.1931 -0.0254
   95CHOL    R2  857   2.752   2.661   6.413  0.1601  0.1749  0.2753
   95CHOL    R3  858   2.968   2.747   6.271  0.1081  0.1408  0.1758
   95CHOL    R4  859   2.810   2.989   6.321  0.2178  0.1776  0.3222
   95CHOL    R5  860   2.880   2.918   6.128  0.0853  0.2036  0.2672
   95CHOL    C1  861   3.045   3.261   6.135  0.2026  0.1472  0.2560
   95CHOL    C2  862   3.312   3.339   5.861 -0.2668 -0.0902  0.0720
   96XCA    COO  863   6.031   2.548   8.601 -0.1526  0.1171 -0.0431
   96XCA     C1  864   5.986   2.465   8.131  0.2147  0.0325  0.1056
   96XCA     C2  865   6.020   2.584   7.636  0.1521  0.0318  0.1142
   96XCA     C3  866   5.733   2.654   7.251 -0.2997  0.0084  0.0177
   96XCA     C4  867   5.633   2.663   6.830 -0.0048 -0.0118 -0.0141
   96XCA     C5  868   5.788   2.642   6.477  0.0544 -0.0876 -0.2058
   96XCA     C6  869   5.832   2.620   6.041 -0.1704 -0.0325  0.0831
   97PNCE   AM1  870  12.509   2.977   8.206  0.2318 -0.0293 -0.0943
   97PNCE   AM2  871  12.123   2.957   8.390 -0.0992  0.0556 -0.1112
   97PNCE   T1A  872  12.679   2.927   7.719  0.1729  0.0601  0.0449
   97PNCE   C2A  873  12.618   2.928   7.255 -0.0337  0.2511 -0.1008
   97PNCE   C3A  874  12.599   2.885   6.852  0.0537  0.1242  0.0866
   97PNCE   C1B  875  12.051   2.986   7.950  0.0861  0.3221  0.0347
   97PNCE   C2B  876  11.693   3.092   7.595  0.2663 -0.0728  0.0289
   97PNCE   C3B  877  11.602   3.104   7.114 -0.1282  0.1848 -0.2521
   97PNCE   D4B  878  11.613   3.210   6.693 -0.0324  0.0098  0.0676
   97PNCE   C5B  879  11.160   3.273   6.620  0.0370  0.0740 -0.1059
   97PNCE   C6B  880  10.803   3.389   6.405 -0.1042  0.1009  0.0092
   98PNCE   AM1  881   2.353  10.904   8.349 -0.1739 -0.2187 -0.1399
   98PNCE   AM2  882   2.046  10.785   8.548 -0.0948 -0.0091 -0.5428
   98PNCE   T1A  883   2.628  10.671   8.296 -0.3710  0.4984 -0.1469
   98PNCE   C2A  884   2.829  10.141   8.275 -0.1782 -0.0475  0.1974
   98PNCE   C3A  885   3.022   9.934   8.534  0.0752 -0.2069 -0.2173
   98PNCE   C1B  886   1.910  10.353   8.318  0.1632 -0.2137  0.0955
   98PNCE   C2B  887   1.913  10.072   8.028  0.1650  0.0218  0.0739
   98PNCE   C3B  888   2.149   9.711   7.949 -0.3280 -0.0513  0.0425
   98PNCE   D4B  889   2.493   9.442   8.029 -0.1656  0.0951  0.0078
   98PNCE   C5B  890   2.564   8.969   7.927  0.2011  0.1842  0.3203
   98PNCE   C6B  891   2.574   8.510   7.894  0.3215  0.0775 -0.0431
   99PNCE   AM1  892   8.008  11.174   7.982 -0.0330  0.1322 -0.0953
   99PNCE   AM2  893   7.892  10.860   7.978  0.2422 -0.1594  0.3431
   99PNCE   T1A  894   8.356  11.353   7.793 -0.0064  0.1614 -0.0328
   99PNCE   C2A  895   8.450  11.513   7.395 -0.0865  0.1432  0.1090
   99PNCE   C3A  896   8.698  11.480   7.011  0.0786  0.1057 -0.0305
   99PNCE   C1B  897   8.027  11.012   7.519  0.0763  0.1356  0.2109
   99PNCE   C2B  898   8.208  11.073   7.163  0.0892 -0.0743 -0.0784
   99PNCE   C3B  899   8.306  11.181   6.784 -0.2698 -0.0353 -0.1364
   99PNCE   D4B  900   8.607  11.347   6.538 -0.2061 -0.2021 -0.0852
   99PNCE   C5B  901   8.709  11.099   6.359  0.0145  0.1764  0.2078
   99PNCE   C6B  902   8.876  10.842   5.943 -0.1625 -0.0943  0.0595
  100CHOL   ROH  903   5.313  11.772   4.556  0.1651 -0.3480  0.1358
  100CHOL    R1  904   5.200  11.706   4.807  0.1590 -0.1078  0.1966
  100CHOL    R2  905   5.342  11.722   5.043  0.2084 -0.0665  0.1548
  100CHOL    R3  906   5.134  11.879   5.121  0.3369  0.1344  0.1068
  100CHOL    R4  907   5.244  11.771   5.371 -0.0872 -0.3551  0.1164
  100CHOL    R5  908   5.036  11.761   5.305 -0.0431  0.0209 -0.1469
  100CHOL    C1  909   4.991  11.947   5.634 -0.1387 -0.3347  0.0491
  100CHOL    C2  910   4.781  11.840   5.929 -0.4274 -0.3508 -0.1143
  101XCA    COO  911   3.225   6.019   4.960 -0.0981  0.2624 -0.1148
  101XCA     C1  912   2.850   5.743   5.157 -0.3768 -0.0556 -0.2960
  101XCA     C2  913   2.601   5.432   5.260 -0.2976 -0.1541 -0.1456
  101XCA     C3  914   2.475   5.345   5.640 -0.1697  0.0534  0.0390
  101XCA     C4  915   2.185   5.186   5.861 -0.0850  0.1060 -0.1002
  101XCA     C5  916   2.271   5.057   6.283  0.0049 -0.2124 -0.1918
  101XCA     C6  917   2.387   4.854   6.694 -0.0190 -0.0118  0.0165
  102PNCE   AM1  918   4.540  14.417   3.891 -0.0260  0.2130  0.1665
  102PNCE   AM2  919   4.347  14.277   4.270  0.2959 -0.0141  0.2676
  102PNCE   T1A  920   4.257  14.703   3.946  0.0149  0.0205  0.2563
  102PNCE   C2A  921   4.053  15.037   4.182  0.1146  0.2260  0.0626
  102PNCE   C3A  922   3.845  15.374   4.198  0.0408 -0.2951  0.2754
  102PNCE   C1B  923   4.339  14.303   4.715  0.2160 -0.2581  0.1784
  102PNCE   C2B  924   4.362  14.298   5.111  0.3811  0.2467  0.3075
  102PNCE   C3B  925   4.256  14.447   5.472  0.0516  0.2656 -0.1250
  102PNCE   D4B  926   3.847  14.708   5.660 -0.0340  0.1327 -0.3025
  102PNCE   C5B  927   3.805  14.870   6.083 -0.1080  0.1094 -0.1942
  102PNCE   C6B  928   3.443  15.070   6.311  0.2238 -0.0955  0.1406
  103PNCE   AM1  929  14.069   6.982   8.865  0.2199 -0.0042  0.1002
  103PNCE   AM2  930  13.790   7.091   9.016 -0.1511  0.1258 -0.3561
  103PNCE   T1A  931  14.282   7.337   8.542  0.2341  0.2209 -0.2350
  103PNCE   C2A  932  14.200   7.622   8.203 -0.2208  0.0319  0.1715
  103PNCE   C3A  933  14.101   7.782   7.837  0.0553 -0.0905 -0.2102
  103PNCE   C1B  934  13.867   7.442   8.916  0.1037 -0.0391  0.2240
  103PNCE   C2B  935  13.825   7.763   8.572 -0.0878 -0.3858 -0.1814
  103PNCE   C3B  936  13.724   7.864   8.207 -0.1390  0.2119 -0.2382
  103PNCE   D4B  937  13.721   8.070   7.795 -0.0661  0.1245  0.0274
  103PNCE   C5B  938  13.985   8.056   7.467 -0.1057 -0.0727 -0.0405
  103PNCE   C6B  939  14.154   7.979   7.035 -0.0749 -0.0732  0.0428
  104PNCE   AM1  940   3.199  11.906   8.393 -0.3195  0.1196  0.2834
  104PNCE   AM2  941   3.202  11.656   8.572 -0.1113 -0.0549  0.0087
  104PNCE   T1A  942   3.489  11.759   8.079  0.1374  0.0519  0.1767
  104PNCE   C2A  943   3.769  11.771   7.853 -0.1720  0.0441  0.0182
  104PNCE   C3A  944   4.007  11.437   7.646  0.2773  0.4970 -0.0867
  104PNCE   C1B  945   3.282  11.336   8.262 -0.0047  0.1688 -0.0290
  104PNCE   C2B  946   3.516  11.227   7.795 -0.0342 -0.0101  0.2983
  104PNCE   C3B  947   3.685  10.949   7.509 -0.0971  0.2006  0.0257
  104PNCE   D4B  948   3.810  10.764   7.218 -0.2950  0.1790  0.1866
  104PNCE   C5B  949   3.625  10.387   7.197  0.2297  0.1491 -0.2510
  104PNCE   C6B  950   3.265  10.294   7.127 -0.1512 -0.0875  0.2267
  105CHOL   ROH  951  11.279   1.027   8.824  0.2486 -0.0216 -0.0653
  105CHOL    R1  952  11.106   1.023   8.601  0.2583 -0.0105 -0.0736
  105CHOL    R2  953  11.091   1.232   8.421  0.1649  0.0612  0.0113
  105CHOL    R3  954  11.141   1.036   8.239  0.2685  0.1591 -0.0661
  105CHOL    R4  955  10.927   1.197   8.119  0.1297  0.0373  0.0333
  105CHOL    R5  956  10.925   0.981   8.150  0.2940  0.0288 -0.0400
  105CHOL    C1  957  10.878   0.993   7.772  0.2063  0.1152 -0.0263
  105CHOL    C2  958  10.697   0.849   7.410  0.0866 -0.1117  0.0699
  106PNCE   AM1  959   7.131  13.856   8.384  0.1602  0.2617  0.1042
  106PNCE   AM2  960   7.198  13.970   8.148  0.0818  0.0140 -0.0800
  106PNCE   T1A  961   6.681  14.007   8.196  0.1342 -0.0956  0.0267
  106PNCE   C2A  962   6.470  13.793   7.890  0.0725 -0.0343 -0.2683
  106PNCE   C3A  963   6.374  13.494   7.581 -0.0252 -0.0459 -0.0864
  106PNCE   C1B  964   6.988  13.825   7.796 -0.2797  0.4798  0.1093
  106PNCE   C2B  965   7.199  13.752   7.305 -0.0160 -0.0546  0.1226
  106PNCE   C3B  966   7.085  13.755   6.888 -0.0687 -0.2779  0.2759
  106PNCE   D4B  967   6.996  13.446   6.547 -0.0534 -0.2594 -0.1030
  106PNCE   C5B  968   7.384  13.513   6.291 -0.0830 -0.2986 -0.2116
  106PNCE   C6B  969   7.764  13.309   6.123 -0.1819  0.0430  0.1462
  107PNCE   AM1  970   5.115  10.547   8.524  0.4052  0.0453  0.1726
  107PNCE   AM2  971   5.140  10.261   8.730  0.2618 -0.1053  0.0978
  107PNCE   T1A  972   5.147  10.566   8.075 -0.2051  0.1992  0.0257
  107PNCE   C2A  973   5.129  10.704   7.684  0.3778  0.1735  0.2737
  107PNCE   C3A  974   5.345  10.873   7.421  0.2328 -0.1939  0.0024
  107PNCE   C1B  975   5.146  10.091   8.270  0.0624 -0.0060 -0.0733
  107PNCE   C2B  976   5.345   9.986   7.903  0.0068  0.0676 -0.4542
  107PNCE   C3B  977   5.602   9.816   7.569 -0.2431  0.0975  0.2342
  107PNCE   D4B  978   5.887   9.505   7.499  0.0193  0.0415  0.2532
  107PNCE   C5B  979   6.353   9.448   7.424 -0.1378 -0.1084  0.1076
  107PNCE   C6B  980   6.819   9.481   7.474 -0.0837 -0.0534  0.2090
  108PNCE   AM1  981   6.763  15.480   8.591  0.0473  0.1087 -0.0812
  108PNCE   AM2  982   6.726  15.137   8.602  0.0645  0.1935 -0.1449
  108PNCE   T1A  983   7.139  15.495   8.425  0.0451  0.0259  0.0618
  108PNCE   C2A  984   7.468  15.749   8.107  0.2442 -0.1693 -0.1496
  108PNCE   C3A  985   7.844  15.549   7.860 -0.3305 -0.3034 -0.1906
  108PNCE   C1B  986   6.828  15.032   8.117  0.1595 -0.1275 -0.2638
  108PNCE   C2B  987   6.849  15.158   7.666  0.2086 -0.1347  0.4508
  108PNCE   C3B  988   6.870  15.024   7.264  0.0718  0.1514  0.3568
  108PNCE   D4B  989   6.738  14.942   6.819  0.0293  0.0691 -0.1270
  108PNCE   C5B  990   6.879  14.618   6.509 -0.0184  0.1882 -0.1621
  108PNCE   C6B  991   7.026  14.504   6.084  0.1261 -0.3196 -0.4317
  109CHOL   ROH  992   3.924  14.113   6.728 -0.0109  0.1905  0.1666
  109CHOL    R1  993   3.856  14.191   6.464  0.0762  0.1086  0.1200
  109CHOL    R2  994   3.598  14.176   6.366  0.1366 -0.0649 -0.0097
  109CHOL    R3  995   3.639  14.438   6.309  0.0024 -0.0477 -0.0312
  109CHOL    R4  996   3.432  14.351   6.119  0.1448 -0.2120 -0.1212
  109CHOL    R5  997   3.621  14.450   6.070  0.1113 -0.1016 -0.0451
  109CHOL    C1  998   3.373  14.700   5.921  0.0235 -0.2814 -0.2064
  109CHOL    C2  999   3.385  14.927   5.682 -0.4265  0.1650  0.1752
  110CHOL   ROH 1000   6.526   8.540   8.459 -0.0140  0.0513 -0.0568
  110CHOL    R1 1001   6.507   8.459   8.189  0.2597 -0.0374 -0.0535
  110CHOL    R2 1002   6.638   8.237   8.090  0.1140 -0.2569  0.2280
  110CHOL    R3 1003   6.389   8.166   8.008  0.1258  0.0370 -0.0876
  110CHOL    R4 1004   6.569   7.990   7.858  0.1116 -0.1705  0.1359
  110CHOL    R5 1005   6.414   8.118   7.775  0.3629  0.0154 -0.0592
  110CHOL    C1 1006   6.295   7.779   7.647  0.1213  0.1558 -0.2139
  110CHOL    C2 1007   6.582   7.460   7.589 -0.0501  0.3510  0.3650
  111PNCE   AM1 1008  11.159   6.896   4.279 -0.2223  0.0143 -0.1059
  111PNCE   AM2 1009  11.472   6.814   4.407 -0.4761 -0.4377 -0.4062
  111PNCE   T1A 1010  11.032   6.626   4.622 -0.2878 -0.0797  0.3026
  111PNCE   C2A 1011  10.815   6.519   5.039  0.0548  0.1218  0.1408
  111PNCE   C3A 1012  10.938   6.248   5.404  0.2068  0.1135 -0.0949
  111PNCE   C1B 1013  11.418   7.020   4.702  0.2686  0.0941  0.0794
  111PNCE   C2B 1014  11.594   7.030   5.109  0.1336  0.3934  0.0730
  111PNCE   C3B 1015  11.583   6.809   5.571  0.0209 -0.3140  0.1322
  111PNCE   D4B 1016  11.645   6.692   6.023 -0.1124  0.0262 -0.2821
  111PNCE   C5B 1017  11.250   6.575   6.234 -0.1000  0.2423  0.1278
  111PNCE   C6B 1018  10.883   6.550   6.601 -0.0281  0.2035 -0.0179
  112CHOL   ROH 1019   9.618  10.880   5.053 -0.0329 -0.1000  0.1307
  112CHOL    R1 1020   9.562  10.693   5.257  0.0534 -0.1617  0.0984
  112CHOL    R2 1021   9.677  10.708   5.508  0.0168 -0.1294  0.1139
  112CHOL    R3 1022   9.418  10.701   5.591  0.0104 -0.2916  0.0835
  112CHOL    R4 1023   9.576  10.653   5.834  0.0150 -0.1208  0.1147
  112CHOL    R5 1024   9.414  10.528   5.757  0.1116 -0.2544  0.1251
  112CHOL    C1 1025   9.274  10.614   6.102  0.0079 -0.2679  0.0865
  112CHOL    C2 1026   9.362  10.393   6.411  0.3706  0.3526  0.0918
  113CHOL   ROH 1027  13.998   8.215   8.298 -0.1671  0.2716 -0.1772
  113CHOL    R1 1028  14.205   8.199   8.106  0.0172  0.1277  0.0293
  113CHOL    R2 1029  14.179   8.302   7.850  0.1857 -0.2345 -0.1367
  113CHOL    R3 1030  14.407   8.435   7.915  0.0523 -0.0120 -0.1100
  113CHOL    R4 1031  14.368   8.490   7.631  0.1163 -0.1915 -0.1605
  113CHOL    R5 1032  14.548   8.409   7.723  0.1501  0.0019 -0.0440
  113CHOL    C1 1033  14.693   8.724   7.564 -0.0493  0.0426 -0.1493
  113CHOL    C2 1034  14.993   8.815   7.358  0.3753  0.1348  0.0612
  114XCA    COO 1035   6.879  11.794   4.571 -0.0773  0.0194  0.0498
  114XCA     C1 1036   6.690  11.724   5.043 -0.1005 -0.2169 -0.1352
  114XCA     C2 1037   6.457  11.661   5.356  0.2986  0.0863  0.1484
  114XCA     C3 1038   6.487  11.338   5.722  0.2236 -0.1397  0.1357
  114XCA     C4 1039   6.837  11.214   6.070 -0.2911  0.1321  0.1852
  114XCA     C5 1040   7.199  11.061   6.246  0.1878 -0.0593  0.0518
  114XCA     C6 1041   7.274  10.771   5.976  0.2676 -0.1080  0.1911
  115XCA    COO 1042   6.324   5.356   4.589 -0.0721 -0.0300 -0.1238
  115XCA     C1 1043   6.592   5.257   5.036  0.2862  0.0064  0.1451
  115XCA     C2 1044   6.460   5.324   5.371  0.4353  0.0010  0.1627
  115XCA     C3 1045   6.428   5.102   5.639  0.3488 -0.2043  0.0882
  115XCA     C4 1046   6.468   4.858   5.993 -0.0807 -0.0685 -0.2789
  115XCA     C5 1047   6.485   4.729   6.378  0.0129  0.0881 -0.1158
  115XCA     C6 1048   6.356   4.576   6.827  0.2039 -0.2362 -0.1119
  116XCA    COO 1049   3.251  11.185   8.781  0.0129 -0.1841 -0.1535
  116XCA     C1 1050   3.128  10.782   8.515  0.3049  0.1153 -0.0124
  116XCA     C2 1051   3.279  10.335   8.462  0.3180 -0.3779 -0.1625
  116XCA     C3 1052   3.526   9.924   8.588  0.1863 -0.0089  0.0048
  116XCA     C4 1053   3.552   9.451   8.350  0.1159  0.1433  0.2451
  116XCA     C5 1054   3.596   9.346   7.882 -0.0895 -0.1719  0.0182
  116XCA     C6 1055   3.425   9.473   7.452 -0.1186  0.0904 -0.0847
  117CHOL   ROH 1056   9.559   7.601   8.828 -0.2229  0.0593 -0.0241
  117CHOL    R1 1057   9.568   7.373   8.660 -0.0044  0.0553 -0.0090
  117CHOL    R2 1058   9.343   7.268   8.539  0.1023 -0.1423 -0.0384
  117CHOL    R3 1059   9.491   7.297   8.313  0.1139 -0.0327 -0.0171
  117CHOL    R4 1060   9.410   7.015   8.313  0.1270 -0.0392 -0.1469
  117CHOL    R5 1061   9.613   7.092   8.294  0.1253 -0.0198 -0.1009
  117CHOL    C1 1062   9.588   6.896   7.968  0.1524  0.1236 -0.1901
  117CHOL    C2 1063   9.518   6.846   7.513  0.0363  0.0300 -0.0962
  118CHOL   ROH 1064   0.446   3.200   4.199  0.0484  0.3581  0.1536
  118CHOL    R1 1065   0.447   3.017   4.415  0.1474  0.2247  0.0427
  118CHOL    R2 1066   0.677   2.952   4.553  0.1819  0.2756  0.0126
  118CHOL    R3 1067   0.530   3.028   4.769  0.1264  0.0579  0.0529
  118CHOL    R4 1068   0.782   2.929   4.882  0.2214  0.2395 -0.0027
  118CHOL    R5 1069   0.581   2.864   4.936  0.2830  0.0373 -0.0150
  118CHOL    C1 1070   0.705   2.987   5.276  0.1923  0.0141  0.0263
  118CHOL    C2 1071   0.796   2.966   5.608  0.3350 -0.1891 -0.1425
  119CHOL   ROH 1072   9.821   3.354   4.764  0.1891  0.0902  0.1577
  119CHOL    R1 1073   9.721   3.367   5.028  0.0085  0.0693  0.0920
  119CHOL    R2 1074   9.823   3.540   5.218 -0.0399 -0.0281  0.2099
  119CHOL    R3 1075   9.564   3.618   5.239 -0.0194  0.0908  0.0454
  119CHOL    R4 1076   9.672   3.645   5.510 -0.2415 -0.1955  0.1678
  119CHOL    R5 1077   9.494   3.534   5.452 -0.2525 -0.0535 -0.0840
  119CHOL    C1 1078   9.341   3.779   5.701 -0.3396 -0.1813 -0.0110
  119CHOL    C2 1079   9.276   3.772   6.054 -0.2389 -0.1853 -0.2165
  120PNCE   AM1 1080  11.122  11.346   8.455  0.0499 -0.1294  0.0036
  120PNCE   AM2 1081  11.069  11.607   8.590  0.0033  0.0572  0.1944
  120PNCE   T1A 1082  11.274  11.386   8.017 -0.0852  0.0816  0.0174
  120PNCE   C2A 1083  11.409  11.427   7.650  0.1379  0.0276 -0.1058
  120PNCE   C3A 1084  11.534  11.229   7.256 -0.2209  0.0788  0.4282
  120PNCE   C1B 1085  11.154  11.797   8.241 -0.1778  0.0350  0.2410
  120PNCE   C2B 1086  11.269  11.924   7.847 -0.1555  0.0964  0.2400
  120PNCE   C3B 1087  11.432  12.109   7.503  0.1486 -0.0481  0.3755
  120PNCE   D4B 1088  11.668  12.289   7.104 -0.3430 -0.2168 -0.1211
  120PNCE   C5B 1089  11.887  12.567   6.879 -0.1912 -0.1585 -0.2045
  120PNCE   C6B 1090  11.816  13.093   6.779 -0.1939 -0.1734  0.0065
  121CHOL   ROH 1091  13.660  14.211   6.296  0.2155 -0.1589  0.0237
  121CHOL    R1 1092  13.432  14.210   6.463  0.2292 -0.1313  0.0426
  121CHOL    R2 1093  13.213  14.049   6.415  0.1380  0.0127 -0.0311
  121CHOL    R3 1094  13.256  13.968   6.670  0.1170 -0.1565 -0.0804
  121CHOL    R4 1095  12.987  13.869   6.605 -0.0735  0.2917 -0.0116
  121CHOL    R5 1096  13.043  13.992   6.777  0.1933  0.1410  0.0154
  121CHOL    C1 1097  12.897  13.688   6.956 -0.2164  0.2953 -0.0465
  121CHOL    C2 1098  12.493  13.689   6.975  0.0780 -0.1615 -0.3231
  122XCA    COO 1099   5.275   0.772   8.591  0.0803  0.2663  0.0882
  122XCA     C1 1100   5.340   0.906   8.173 -0.2737 -0.1231  0.1072
  122XCA     C2 1101   5.157   0.880   7.711 -0.2968  0.1313  0.3450
  122XCA     C3 1102   4.921   0.907   7.272  0.0082 -0.1616 -0.1085
  122XCA     C4 1103   4.922   1.097   6.876  0.4525 -0.0304  0.0128
  122XCA     C5 1104   5.211   1.155   6.682 -0.1951  0.1535  0.0073
  122XCA     C6 1105   5.126   1.295   6.342 -0.0694 -0.1441 -0.2527
  123XCA    COO 1106  12.749   1.644   4.389  0.0781  0.0664  0.1585
  123XCA     C1 1107  12.959   1.552   4.877 -0.0014  0.0980 -0.1124
  123XCA     C2 1108  13.386   1.595   4.948 -0.2882  0.0400 -0.1477
  123XCA     C3 1109  13.527   1.425   5.428 -0.1183 -0.1431  0.1316
  123XCA     C4 1110  13.943   1.448   5.669  0.0639  0.3916 -0.0470
  123XCA     C5 1111  14.229   1.316   5.892  0.1827  0.0533 -0.0264
  123XCA     C6 1112  14.627   1.214   5.894 -0.2392 -0.2171  0.0235
  124PNCE   AM1 1113   6.366   0.850   8.864  0.1898 -0.1244  0.1025
  124PNCE   AM2 1114   6.003   0.904   8.848 -0.0532  0.0158  0.2690
  124PNCE   T1A 1115   6.764   0.903   8.632 -0.0620  0.0510  0.3229
  124PNCE   C2A 1116   7.075   0.655   8.427  0.0029 -0.0167 -0.3455
  124PNCE   C3A 1117   7.368   0.356   8.250 -0.0425  0.3616 -0.1218
  124PNCE   C1B 1118   5.745   0.951   8.464 -0.0341 -0.2088 -0.1733
  124PNCE   C2B 1119   5.819   1.002   7.952 -0.2388 -0.0736  0.1329
  124PNCE   C3B 1120   5.897   1.105   7.663 -0.0372 -0.3673  0.0051
  124PNCE   D4B 1121   5.942   1.350   7.346 -0.2457 -0.0550 -0.1219
  124PNCE   C5B 1122   6.138   1.307   6.913 -0.2473  0.3161 -0.1640
  124PNCE   C6B 1123   6.137   1.048   6.479 -0.1596  0.2072 -0.0350
  125CHOL   ROH 1124   9.639   7.725   7.878  0.1567 -0.0364  0.2945
  125CHOL    R1 1125   9.850   7.873   7.763  0.0468 -0.0570  0.0598
  125CHOL    R2 1126   9.811   8.054   7.557 -0.1647 -0.0434  0.1101
  125CHOL    R3 1127   9.938   8.224   7.726  0.0493 -0.0660 -0.0238
  125CHOL    R4 1128  10.040   8.294   7.461 -0.0156 -0.2664 -0.1046
  125CHOL    R5 1129  10.159   8.245   7.636  0.0262 -0.2818 -0.1365
  125CHOL    C1 1130  10.292   8.594   7.564  0.2720 -0.4174 -0.3554
  125CHOL    C2 1131  10.186   8.990   7.611  0.1425 -0.0356 -0.2327
  126CHOL   ROH 1132   3.164   4.573   8.287 -0.1808 -0.1470  0.0065
  126CHOL    R1 1133   2.988   4.438   8.112 -0.1443 -0.0952 -0.0715
  126CHOL    R2 1134   2.802   4.571   7.956 -0.0319 -0.0398 -0.1606
  126CHOL    R3 1135   2.921   4.433   7.754  0.0181 -0.0822 -0.1024
  126CHOL    R4 1136   2.694   4.570   7.628 -0.0829 -0.2857 -0.1455
  126CHOL    R5 1137   2.739   4.357   7.619  0.0417 -0.2656 -0.0333
  126CHOL    C1 1138   2.744   4.441   7.247 -0.0657 -0.4687 -0.0821
  126CHOL    C2 1139   2.830   4.542   6.893 -0.2365 -0.1104  0.3764
  127CHOL   ROH 1140   3.179  11.936   6.582 -0.1312 -0.1095 -0.0409
  127CHOL    R1 1141   3.128  12.022   6.317  0.0973  0.0154 -0.0465
  127CHOL    R2 1142   3.329  12.075   6.136  0.2480 -0.3408  0.0132
  127CHOL    R3 1143   3.192  11.898   5.981 -0.0445 -0.0748 -0.0420
  127CHOL    R4 1144   3.275  12.110   5.797  0.2605 -0.1184  0.0328
  127CHOL    R5 1145   3.072  12.036   5.826  0.1432  0.1767  0.0265
  127CHOL    C1 1146   3.114  11.966   5.454 -0.0068  0.2608 -0.0075
  127CHOL    C2 1147   2.919  12.178   5.147  0.0900  0.1245  0.2755
  128PNCE   AM1 1148  14.934   1.172   7.791 -0.0688  0.0341  0.4664
  128PNCE   AM2 1149  14.666   0.909   7.864  0.1262  0.0907 -0.0504
  128PNCE   T1A 1150  14.583   1.084   7.464 -0.0560 -0.0009  0.2241
  128PNCE   C2A 1151  14.152   1.027   7.056 -0.2909 -0.0426  0.1581
  128PNCE   C3A 1152  13.886   1.194   6.739  0.0131  0.0175 -0.0823
  128PNCE   C1B 1153  14.249   0.777   7.792  0.0269  0.0663 -0.0338
  128PNCE   C2B 1154  13.982   0.740   7.373  0.0351  0.0667  0.1580
  128PNCE   C3B 1155  14.095   0.504   6.979 -0.1759  0.0736 -0.1336
  128PNCE   D4B 1156  14.081   0.553   6.441 -0.1672  0.0623 -0.1853
  128PNCE   C5B 1157  13.813   0.343   6.170  0.1066 -0.0545 -0.0784
  128PNCE   C6B 1158  13.692  -0.047   5.927 -0.0209  0.0396  0.0656
  129PNCE   AM1 1159  15.653   9.624   8.454 -0.1040 -0.1016 -0.0465
  129PNCE   AM2 1160  15.952   9.880   8.483  0.1627 -0.3505  0.1932
  129PNCE   T1A 1161  15.631   9.166   8.303  0.0531  0.3591  0.3006
  129PNCE   C2A 1162  15.445   9.034   7.847 -0.0900  0.0585 -0.2511
  129PNCE   C3A 1163  15.583   9.233   7.393  0.0177  0.1149  0.1422
  129PNCE   C1B 1164  15.668   9.940   8.114 -0.0626 -0.1373 -0.1516
  129PNCE   C2B 1165  15.705  10.145   7.710 -0.0925  0.1980 -0.2373
  129PNCE   C3B 1166  15.444  10.357   7.316  0.0154  0.0599  0.2036
  129PNCE   D4B 1167  15.012  10.400   7.092 -0.2723 -0.0580 -0.4960
  129PNCE   C5B 1168  14.756  10.061   6.943 -0.3250  0.3898  0.5517
  129PNCE   C6B 1169  14.481   9.885   6.793  0.5920 -0.1537  0.2650
  130XCA    COO 1170  10.494  12.577   4.807 -0.2336 -0.0907 -0.2407
  130XCA     C1 1171  10.780  12.261   4.846  0.1896  0.1593  0.1163
  130XCA     C2 1172  10.739  11.800   5.057  0.2132 -0.0609 -0.0383
  130XCA     C3 1173  10.599  11.476   5.373  0.0626  0.1756  0.0098
  130XCA     C4 1174  10.607  11.346   5.676 -0.0508 -0.0442 -0.0154
  130XCA     C5 1175  10.292  11.119   6.152 -0.0959  0.1039  0.0337
  130XCA     C6 1176  10.131  10.895   6.517  0.2021 -0.3432  0.1730
  131PNCE   AM1 1177   6.617   4.296   8.504 -0.2436  0.1936  0.3164
  131PNCE   AM2 1178   6.832   4.054   8.418  0.0436 -0.2837  0.2324
  131PNCE   T1A 1179   6.214   4.001   8.258 -0.2501  0.1418 -0.0099
  131PNCE   C2A 1180   6.188   3.697   7.953 -0.1680 -0.0417  0.1049
  131PNCE   C3A 1181   5.854   3.547   7.847 -0.1628  0.0436 -0.0296
  131PNCE   C1B 1182   6.607   4.158   8.033 -0.0311 -0.2552 -0.0996
  131PNCE   C2B 1183   6.264   4.071   7.667 -0.0563 -0.0282  0.3865
  131PNCE   C3B 1184   6.035   4.206   7.279 -0.2158 -0.3275 -0.2611
  131PNCE   D4B 1185   5.675   4.092   7.036  0.1077 -0.3010 -0.0055
  131PNCE   C5B 1186   5.811   4.064   6.568  0.1079  0.0089  0.2624
  131PNCE   C6B 1187   5.944   4.066   6.109  0.3498 -0.2385 -0.2386
  132PNCE   AM1 1188   5.782  13.897   7.624  0.1324  0.1671  0.0251
  132PNCE   AM2 1189   5.906  13.743   7.925 -0.0289 -0.0993  0.4103
  132PNCE   T1A 1190   5.601  13.882   7.167 -0.2293 -0.1000 -0.2496
  132PNCE   C2A 1191   5.503  13.918   6.672  0.0254  0.1253  0.3215
  132PNCE   C3A 1192   5.589  14.219   6.346  0.0074 -0.3889  0.0409
  132PNCE   C1B 1193   5.912  13.443   7.513 -0.0664 -0.2222  0.4083
  132PNCE   C2B 1194   5.971  13.112   7.273  0.2411  0.0176  0.0543
  132PNCE   C3B 1195   5.752  12.882   6.901  0.3039 -0.2468 -0.1277
  132PNCE   D4B 1196   5.749  13.005   6.413 -0.0491  0.0577  0.4396
  132PNCE   C5B 1197   5.562  13.225   6.188 -0.1142 -0.0655 -0.3661
  132PNCE   C6B 1198   5.409  13.215   5.782  0.0577 -0.2365 -0.2399
  133PNCE   AM1 1199   0.192   7.634   9.060 -0.1491  0.1122  0.1009
  133PNCE   AM2 1200   0.036   7.819   8.835 -0.0535  0.3137 -0.2721
  133PNCE   T1A 1201   0.480   7.540   8.706  0.0148  0.2649  0.0756
  133PNCE   C2A 1202   0.660   7.610   8.282  0.1629 -0.1189 -0.1246
  133PNCE   C3A 1203   0.681   7.737   7.786  0.0508  0.0907  0.0578
  133PNCE   C1B 1204   0.134   7.743   8.374  0.0012 -0.0630  0.2101
  133PNCE   C2B 1205   0.125   7.787   7.890  0.0004  0.0203 -0.2122
  133PNCE   C3B 1206  -0.036   7.870   7.619  0.3149 -0.4162 -0.0084
  133PNCE   D4B 1207  -0.357   7.730   7.424  0.2022 -0.1126 -0.0372
  133PNCE   C5B 1208  -0.280   7.494   6.994 -0.0829 -0.0233  0.4672
  133PNCE   C6B 1209  -0.095   7.476   6.625 -0.1272 -0.0243  0.3108
  134CHOL   ROH 1210  13.570  13.636   8.109 -0.0306 -0.2315  0.2024
  134CHOL    R1 1211  13.561  13.636   7.826 -0.0377 -0.0875  0.2012
  134CHOL    R2 1212  13.707  13.460   7.672  0.0005  0.0235  0.1038
  134CHOL    R3 1213  13.465  13.402   7.565  0.0098  0.0238  0.0840
  134CHOL    R4 1214  13.648  13.406   7.336 -0.0092  0.2076  0.0756
  134CHOL    R5 1215  13.463  13.519   7.356 -0.0357  0.1462  0.1542
  134CHOL    C1 1216  13.386  13.321   7.039 -0.0060  0.3151  0.0405
  134CHOL    C2 1217  13.219  13.482   6.725 -0.3750  0.0353 -0.0019
  135CHOL   ROH 1218   6.963  15.499   5.158 -0.0889  0.2216  0.1005
  135CHOL    R1 1219   6.941  15.610   5.417  0.0386  0.3052  0.0767
  135CHOL    R2 1220   6.718  15.573   5.576  0.0544  0.4782  0.1415
  135CHOL    R3 1221   6.900  15.483   5.756  0.0465  0.4199  0.1206
  135CHOL    R4 1222   6.733  15.673   5.906  0.0427  0.3731  0.1741
  135CHOL    R5 1223   6.951  15.676   5.890  0.0428  0.3768  0.1838
  135CHOL    C1 1224   6.913  15.647   6.268  0.0284  0.2571  0.1734
  135CHOL    C2 1225   6.863  15.448   6.577  0.1111  0.0579 -0.2980
  136CHOL   ROH 1226   4.161   3.443   8.033 -0.0784 -0.0080 -0.1044
  136CHOL    R1 1227   4.343   3.331   7.847  0.1253  0.0535  0.0539
  136CHOL    R2 1228   4.267   3.255   7.592  0.3119 -0.2273  0.0781
  136CHOL    R3 1229   4.471   3.417   7.517  0.1594 -0.0502  0.0396
  136CHOL    R4 1230   4.361   3.317   7.265  0.3175 -0.2955  0.0664
  136CHOL    R5 1231   4.569   3.308   7.329  0.3154 -0.0458  0.1171
  136CHOL    C1 1232   4.608   3.506   7.005  0.1777 -0.1691  0.0235
  136CHOL    C2 1233   4.566   3.414   6.625 -0.0698 -0.1098 -0.0336
  137XCA    COO 1234   6.674   1.525   8.746  0.1831  0.3118 -0.4040
  137XCA     C1 1235   6.953   1.332   8.483 -0.0349 -0.1899  0.0504
  137XCA     C2 1236   6.770   1.205   8.079 -0.1325 -0.0127  0.1197
  137XCA     C3 1237   6.895   0.858   7.938 -0.1162  0.1216  0.1660
  137XCA     C4 1238   7.053   0.470   7.857  0.0581  0.1009  0.1245
  137XCA     C5 1239   7.450   0.273   7.753  0.1561  0.1812  0.0348
  137XCA     C6 1240   7.638  -0.069   7.567  0.1635  0.2224 -0.0122
  138CHOL   ROH 1241   6.628   2.743   8.218 -0.2900 -0.4605  0.0160
  138CHOL    R1 1242   6.719   2.769   7.952 -0.0656 -0.2820  0.1079
  138CHOL    R2 1243   6.546   2.803   7.739  0.1072 -0.2758 -0.0263
  138CHOL    R3 1244   6.700   3.021   7.690  0.0331 -0.1660  0.2096
  138CHOL    R4 1245   6.517   3.007   7.461  0.3588 -0.2824 -0.0613
  138CHOL    R5 1246   6.735   3.018   7.453  0.3735 -0.1334  0.2499
  138CHOL    C1 1247   6.645   3.331   7.254  0.4358 -0.1831  0.1396
  138CHOL    C2 1248   6.737   3.553   6.901 -0.0926 -0.0301 -0.0805
  139PNCE   AM1 1249  15.522   6.158   8.416  0.3560  0.1253 -0.0665
  139PNCE   AM2 1250  15.490   5.871   8.398  0.0663 -0.2451 -0.1188
  139PNCE   T1A 1251  15.204   6.351   8.097  0.1435  0.0877  0.0904
  139PNCE   C2A 1252  15.241   6.577   7.780  0.0113  0.2406 -0.1367
  139PNCE   C3A 1253  15.157   6.848   7.493  0.0308 -0.2498  0.1258
  139PNCE   C1B 1254  15.312   5.427   8.303 -0.1166 -0.4181  0.3210
  139PNCE   C2B 1255  15.287   5.007   8.045 -0.0490  0.3231 -0.4276
  139PNCE   C3B 1256  15.489   4.588   8.163 -0.1705  0.1461  0.1238
  139PNCE   D4B 1257  15.549   4.210   7.944 -0.2095 -0.0003 -0.2490
  139PNCE   C5B 1258  15.641   4.260   7.478 -0.2636  0.0162  0.3217
  139PNCE   C6B 1259  16.037   4.315   7.378  0.0325 -0.2437 -0.4972
  140PNCE   AM1 1260   5.404   9.815   8.712  0.1002 -0.2450  0.0885
  140PNCE   AM2 1261   5.317   9.660   8.834  0.1495 -0.1012 -0.0552
  140PNCE   T1A 1262   5.453   9.514   8.316  0.2465  0.2885 -0.3832
  140PNCE   C2A 1263   5.453   9.426   7.946 -0.2332 -0.2883 -0.2567
  140PNCE   C3A 1264   5.257   9.441   7.528  0.1255 -0.1911  0.2110
  140PNCE   C1B 1265   4.988   9.541   8.570 -0.0869  0.2586  0.2021
  140PNCE   C2B 1266   5.010   9.606   8.155 -0.0702  0.1954 -0.2345
  140PNCE   C3B 1267   4.858   9.659   7.821  0.0575  0.1960 -0.2099
  140PNCE   D4B 1268   4.701   9.440   7.426 -0.3305  0.0010  0.0989
  140PNCE   C5B 1269   5.043   9.267   7.113 -0.2463 -0.2108 -0.0195
  140PNCE   C6B 1270   5.113   8.946   6.800  0.1323 -0.0021  0.0215
  141CHOL   ROH 1271   0.123   2.724   7.537 -0.0155 -0.1004 -0.3778
  141CHOL    R1 1272   0.036   2.957   7.401  0.1608  0.1626 -0.0561
  141CHOL    R2 1273   0.190   3.186   7.384  0.5963 -0.1286 -0.2226
  141CHOL    R3 1274   0.149   3.155   7.117 -0.0197  0.1034 -0.1710
  141CHOL    R4 1275   0.311   3.398   7.140  0.4353 -0.1728 -0.3424
  141CHOL    R5 1276   0.121   3.378   7.035  0.1692  0.2066  0.0357
  141CHOL    C1 1277   0.344   3.492   6.747 -0.2367  0.0193 -0.3638
  141CHOL    C2 1278   0.207   3.814   6.492  0.3788  0.1455  0.1894
  142CHOL   ROH 1279  10.894   4.350   7.518  0.2527  0.1680  0.2394
  142CHOL    R1 1280  11.064   4.278   7.303 -0.0148  0.0612  0.0573
  142CHOL    R2 1281  11.337   4.246   7.333  0.0575  0.2571 -0.3068
  142CHOL    R3 1282  11.288   4.002   7.224  0.0364  0.1179  0.0056
  142CHOL    R4 1283  11.559   4.071   7.134 -0.0924  0.1405 -0.3718
  142CHOL    R5 1284  11.391   4.012   7.008 -0.2102 -0.0669 -0.1232
  142CHOL    C1 1285  11.642   3.740   6.915 -0.1995 -0.0580 -0.1164
  142CHOL    C2 1286  11.841   3.655   6.580 -0.0339 -0.0166  0.0705
  143CHOL   ROH 1287   5.347   0.600   4.402  0.0620 -0.0067  0.1385
  143CHOL    R1 1288   5.482   0.507   4.633 -0.0940  0.0551  0.2564
  143CHOL    R2 1289   5.753   0.541   4.672 -0.0513 -0.2526  0.2607
  143CHOL    R3 1290   5.673   0.654   4.905  0.0517  0.0928  0.1347
  143CHOL    R4 1291   5.946   0.563   4.958 -0.0377 -0.1187  0.2419
  143CHOL    R5 1292   5.769   0.515   5.075 -0.0895  0.1872  0.2947
  143CHOL    C1 1293   5.983   0.681   5.343  0.0668  0.2836  0.1127
  143CHOL    C2 1294   6.299   0.610   5.335 -0.0212  0.1467  0.0055
  144PNCE   AM1 1295   1.469  11.823   8.044 -0.2041 -0.0318 -0.0861
  144PNCE   AM2 1296   1.188  11.717   7.932  0.3546  0.0734  0.1602
  144PNCE   T1A 1297   1.755  11.566   7.750 -0.0332  0.2346 -0.2823
  144PNCE   C2A 1298   1.827  11.328   7.319 -0.3482  0.1833 -0.0256
  144PNCE   C3A 1299   1.720  10.910   7.099 -0.0159 -0.5448 -0.1736
  144PNCE   C1B 1300   1.277  11.312   7.636 -0.2122 -0.2105 -0.0434
  144PNCE   C2B 1301   1.171  11.259   7.181  0.3348  0.0292  0.0432
  144PNCE   C3B 1302   1.319  11.026   6.856  0.2969 -0.0020  0.0517
  144PNCE   D4B 1303   1.457  11.174   6.480 -0.0901  0.2435 -0.0393
  144PNCE   C5B 1304   1.780  11.570   6.516  0.0468  0.1297  0.2378
  144PNCE   C6B 1305   2.013  11.812   6.219 -0.1556 -0.1291  0.0930
  145PNCE   AM1 1306   4.218  14.751   8.082  0.1589 -0.0857 -0.0315
  145PNCE   AM2 1307   3.899  14.608   8.130  0.1351 -0.0013 -0.3294
  145PNCE   T1A 1308   4.665  14.722   7.746 -0.1113  0.4195 -0.4087
  145PNCE   C2A 1309   4.676  14.922   7.404 -0.1421  0.0311 -0.2369
  145PNCE   C3A 1310   4.604  14.733   6.999  0.0141 -0.1883 -0.2331
  145PNCE   C1B 1311   4.165  14.445   7.715  0.3693 -0.0918 -0.0005
  145PNCE   C2B 1312   4.447  14.400   7.356 -0.2346  0.0320 -0.1032
  145PNCE   C3B 1313   4.576  14.174   7.007 -0.0375 -0.2954  0.1249
  145PNCE   D4B 1314   4.950  14.263   6.740 -0.3259  0.0115 -0.0871
  145PNCE   C5B 1315   5.395  14.388   6.801  0.0794 -0.0899 -0.1681
  145PNCE   C6B 1316   5.510  14.758   7.103 -0.1618  0.0087 -0.0121
  146CHOL   ROH 1317   7.777   8.556   7.067  0.1915  0.2083 -0.0175
  146CHOL    R1 1318   7.856   8.290   7.007  0.1230  0.2196 -0.1621
  146CHOL    R2 1319   8.050   8.232   6.819  0.3488  0.2930  0.0464
  146CHOL    R3 1320   8.162   8.095   7.026 -0.0089  0.0290  0.0751
  146CHOL    R4 1321   8.223   7.934   6.789  0.5013  0.3916 -0.0645
  146CHOL    R5 1322   8.126   7.865   6.971  0.1615  0.0897 -0.3399
  146CHOL    C1 1323   8.429   7.632   6.965  0.2543  0.2012 -0.1022
  146CHOL    C2 1324   8.453   7.262   6.894 -0.1592 -0.1112 -0.0439
  147XCA    COO 1325   5.207  13.142   7.719 -0.2631  0.0841  0.0105
  147XCA     C1 1326   5.678  13.004   7.650 -0.0022 -0.3695 -0.2841
  147XCA     C2 1327   5.924  12.679   7.482  0.1465  0.3856 -0.0156
  147XCA     C3 1328   6.163  12.579   7.089 -0.4575 -0.1610  0.0449
  147XCA     C4 1329   6.100  12.633   6.657 -0.2414  0.0065 -0.1871
  147XCA     C5 1330   6.220  12.802   6.344 -0.2084  0.0436 -0.2139
  147XCA     C6 1331   6.392  12.840   6.028 -0.0595 -0.2876  0.0355
  148PNCE   AM1 1332  15.145  14.968   8.007 -0.1200  0.1254 -0.0540
  148PNCE   AM2 1333  15.047  14.632   8.041 -0.0531 -0.0272 -0.5336
  148PNCE   T1A 1334  15.384  15.080   7.663  0.2478  0.1083  0.0599
  148PNCE   C2A 1335  15.528  15.120   7.266  0.3418  0.0064 -0.1744
  148PNCE   C3A 1336  15.810  14.806   7.131 -0.0490  0.4742  0.1256
  148PNCE   C1B 1337  14.898  14.594   7.590  0.0754  0.1648 -0.1201
  148PNCE   C2B 1338  14.755  14.474   7.178 -0.3584 -0.0519  0.0779
  148PNCE   C3B 1339  14.351  14.420   7.001 -0.0755 -0.0257  0.0318
  148PNCE   D4B 1340  13.911  14.623   6.900  0.0725 -0.1896 -0.0223
  148PNCE   C5B 1341  13.549  14.870   6.756 -0.0874 -0.2714 -0.0546
  148PNCE   C6B 1342  13.138  15.002   6.720  0.0114  0.3127 -0.1907
  149PNCE   AM1 1343  14.956   1.953   7.900 -0.5475  0.2584  0.1819
  149PNCE   AM2 1344  14.786   2.170   7.923  0.3536  0.0726  0.3935
  149PNCE   T1A 1345  14.619   1.746   7.700  0.2203  0.1419  0.3453
  149PNCE   C2A 1346  14.533   1.546   7.354  0.0268 -0.1646  0.0396
  149PNCE   C3A 1347  14.194   1.533   7.120  0.0564 -0.2184  0.2696
  149PNCE   C1B 1348  14.727   2.191   7.474  0.3211  0.0718 -0.3920
  149PNCE   C2B 1349  14.663   2.436   7.055 -0.3410 -0.0536  0.1533
  149PNCE   C3B 1350  14.690   2.702   6.729  0.1894  0.1223 -0.1797
  149PNCE   D4B 1351  14.983   2.749   6.470  0.1309 -0.0179  0.0952
  149PNCE   C5B 1352  14.855   2.938   6.111 -0.0200  0.0592 -0.3221
  149PNCE   C6B 1353  15.004   3.284   5.759  0.1059  0.0113 -0.0293
  150XCA    COO 1354   2.157  14.560   3.941  0.0956  0.2071  0.2109
  150XCA     C1 1355   2.201  14.846   4.306 -0.1649 -0.3120  0.0530
  150XCA     C2 1356   2.153  14.900   4.710  0.0453  0.1708 -0.3053
  150XCA     C3 1357   2.215  14.816   5.128 -0.1168  0.0845  0.2892
  150XCA     C4 1358   2.134  14.722   5.534  0.1645  0.1276 -0.3985
  150XCA     C5 1359   1.904  14.858   6.025  0.2528  0.0586  0.0291
  150XCA     C6 1360   1.966  15.228   6.266  0.0789 -0.0713  0.2926
  151PNCE   AM1 1361  12.635   5.846   8.812  0.2018  0.3461 -0.1653
  151PNCE   AM2 1362  12.722   5.444   8.650  0.2616 -0.3865  0.1765
  151PNCE   T1A 1363  12.335   6.060   8.390  0.0301  0.1210 -0.3684
  151PNCE   C2A 1364  12.279   6.142   7.939 -0.1186  0.0023 -0.1598
  151PNCE   C3A 1365  12.216   5.990   7.533 -0.1596 -0.2770  0.0844
  151PNCE   C1B 1366  12.982   5.477   8.194  0.1027 -0.1366  0.1393
  151PNCE   C2B 1367  13.194   5.533   7.811 -0.1520 -0.3477 -0.0071
  151PNCE   C3B 1368  13.311   5.508   7.395  0.1479  0.3906 -0.0943
  151PNCE   D4B 1369  13.456   5.540   6.905 -0.0144  0.1803 -0.0822
  151PNCE   C5B 1370  13.257   5.293   6.725  0.0294 -0.0206 -0.0973
  151PNCE   C6B 1371  13.148   5.004   6.318  0.2299  0.4481  0.1098
  152PNCE   AM1 1372   2.010  13.561   7.382 -0.1155 -0.0108  0.0437
  152PNCE   AM2 1373   2.058  13.211   7.308  0.2082  0.1100 -0.2314
  152PNCE   T1A 1374   1.943  13.687   6.956  0.0735 -0.0944 -0.0671
  152PNCE   C2A 1375   1.763  13.782   6.589  0.1863  0.0624 -0.0092
  152PNCE   C3A 1376   1.359  13.648   6.283  0.3299 -0.1201 -0.0542
  152PNCE   C1B 1377   2.070  12.740   7.207 -0.1337  0.1922  0.2815
  152PNCE   C2B 1378   2.095  12.470   6.697 -0.0808 -0.0985  0.2484
  152PNCE   C3B 1379   1.898  12.142   6.623 -0.0484 -0.1447  0.1696
  152PNCE   D4B 1380   1.503  12.009   6.455  0.1647  0.0089 -0.0294
  152PNCE   C5B 1381   1.420  12.400   6.319  0.0807  0.2412 -0.1118
  152PNCE   C6B 1382   1.176  12.687   6.017  0.0263  0.1099  0.1565
  153XCA    COO 1383  10.745   9.974   8.400  0.1474  0.0288 -0.0746
  153XCA     C1 1384  10.946   9.813   8.079  0.1873 -0.2569  0.0882
  153XCA     C2 1385  11.184   9.546   7.976 -0.3561 -0.0987 -0.1100
  153XCA     C3 1386  11.602   9.396   8.150  0.3996  0.1054 -0.0651
  153XCA     C4 1387  11.784   9.196   7.834  0.0736 -0.0254  0.1973
  153XCA     C5 1388  11.982   9.307   7.469 -0.0831  0.1258 -0.0225
  153XCA     C6 1389  12.314   9.491   7.209 -0.1247  0.1079  0.2934
  154CHOL   ROH 1390  15.354  10.800   4.673 -0.0226  0.0153 -0.1851
  154CHOL    R1 1391  15.443  10.874   4.931  0.0735 -0.0623 -0.1947
  154CHOL    R2 1392  15.651  11.051   4.972  0.0025  0.0312 -0.2199
  154CHOL    R3 1393  15.467  11.182   5.124  0.0081 -0.1406 -0.0614
  154CHOL    R4 1394  15.722  11.222   5.264  0.0995  0.1526 -0.3140
  154CHOL    R5 1395  15.538  11.143   5.350  0.2668 -0.0304 -0.1225
  154CHOL    C1 1396  15.591  11.445   5.576  0.1613  0.0619 -0.2200
  154CHOL    C2 1397  15.790  11.655   5.858 -0.4274 -0.1377 -0.1613
  155PNCE   AM1 1398   5.597   1.475   6.362 -0.0842 -0.2030 -0.2497
  155PNCE   AM2 1399   5.434   1.825   6.432  0.1057 -0.3459  0.4756
  155PNCE   T1A 1400   5.518   1.691   5.958  0.0730 -0.2400  0.3763
  155PNCE   C2A 1401   5.161   1.915   5.811  0.1194 -0.2403  0.3068
  155PNCE   C3A 1402   4.938   2.317   5.772 -0.1212 -0.1122  0.1665
  155PNCE   C1B 1403   5.101   1.814   6.296 -0.0713 -0.0015 -0.2183
  155PNCE   C2B 1404   4.879   2.175   6.235 -0.0714 -0.0021  0.0435
  155PNCE   C3B 1405   4.828   2.577   6.421 -0.1122 -0.1194 -0.0505
  155PNCE   D4B 1406   4.936   3.049   6.356 -0.2290  0.3138 -0.0390
  155PNCE   C5B 1407   5.453   2.961   6.286 -0.0708 -0.4907 -0.2886
  155PNCE   C6B 1408   5.763   3.118   6.596  0.0718  0.1366 -0.2021
  156PNCE   AM1 1409  10.481  10.734   5.261  0.0886 -0.0287 -0.0563
  156PNCE   AM2 1410  10.708  10.533   5.171  0.0150 -0.3384  0.1327
  156PNCE   T1A 1411  10.362  10.847   5.660 -0.4345  0.0886  0.0277
  156PNCE   C2A 1412  10.062  10.679   6.056 -0.1824  0.0965 -0.1932
  156PNCE   C3A 1413  10.187  10.365   6.426  0.0740  0.0457  0.2457
  156PNCE   C1B 1414  10.799  10.570   5.679 -0.1164 -0.0880  0.3368
  156PNCE   C2B 1415  10.720  10.847   6.079 -0.0810 -0.1291  0.2659
  156PNCE   C3B 1416  10.919  11.318   6.154  0.2067  0.0415 -0.1569
  156PNCE   D4B 1417  11.056  11.569   6.440 -0.1141  0.1028 -0.0261
  156PNCE   C5B 1418  11.413  11.747   6.718  0.0371  0.0451  0.3823
  156PNCE   C6B 1419  11.601  11.720   7.174  0.0854 -0.0582  0.1642
  157CHOL   ROH 1420  13.688   4.990   5.772 -0.0305  0.0631 -0.1133
  157CHOL    R1 1421  13.758   5.172   5.977  0.0127  0.0224 -0.0919
  157CHOL    R2 1422  13.651   5.156   6.232 -0.0341  0.0513 -0.1095
  157CHOL    R3 1423  13.913   5.153   6.306 -0.0466 -0.0617 -0.0686
  157CHOL    R4 1424  13.768   5.230   6.549 -0.0532 -0.0346 -0.0821
  157CHOL    R5 1425  13.934   5.337   6.457  0.0036 -0.0892 -0.0423
  157CHOL    C1 1426  14.081   5.270   6.803 -0.0759 -0.1908 -0.0276
  157CHOL    C2 1427  14.044   5.667   6.906 -0.0970  0.2867  0.0119
  158XCA    COO 1428   0.685   4.418   4.197  0.2260  0.3031  0.0990
  158XCA     C1 1429   0.372   4.263   4.580 -0.0893  0.1077 -0.4732
  158XCA     C2 1430   0.244   3.990   4.913 -0.0566 -0.0014  0.1264
  158XCA     C3 1431   0.167   3.703   5.294 -0.0816  0.3564  0.1234
  158XCA     C4 1432   0.366   3.468   5.568 -0.1955 -0.0162 -0.1511
  158XCA     C5 1433   0.301   3.248   6.021  0.0419 -0.2176 -0.0986
  158XCA     C6 1434   0.585   3.437   6.299  0.2099  0.0468  0.2897
  159PNCE   AM1 1435   2.636   0.808   8.086  0.0840  0.0201 -0.0345
  159PNCE   AM2 1436   2.670   0.406   8.155  0.2079 -0.0500  0.1317
  159PNCE   T1A 1437   2.995   1.055   7.979 -0.0897  0.0102 -0.3625
  159PNCE   C2A 1438   3.198   1.260   7.675  0.0157  0.1510 -0.2722
  159PNCE   C3A 1439   3.666   1.386   7.503 -0.1048  0.0086 -0.1857
  159PNCE   C1B 1440   2.771   0.245   7.729 -0.5941 -0.0034  0.1110
  159PNCE   C2B 1441   2.747   0.055   7.242 -0.0332  0.1032  0.1515
  159PNCE   C3B 1442   2.632  -0.004   6.807 -0.0719 -0.1012 -0.0460
  159PNCE   D4B 1443   2.593  -0.017   6.395 -0.0363  0.0672 -0.2854
  159PNCE   C5B 1444   2.697   0.247   6.037 -0.0312  0.1103 -0.2848
  159PNCE   C6B 1445   2.739   0.037   5.631  0.1888  0.4450 -0.0505
  160XCA    COO 1446  11.550   0.355   5.587  0.2540 -0.1229 -0.1611
  160XCA     C1 1447  11.767   0.178   5.978 -0.0017  0.3678 -0.0693
  160XCA     C2 1448  11.712   0.358   6.386 -0.1379  0.2608  0.3472
  160XCA     C3 1449  11.804   0.564   6.773  0.0524 -0.0163  0.0953
  160XCA     C4 1450  11.953   0.857   7.002 -0.1034  0.0114 -0.4410
  160XCA     C5 1451  12.321   1.116   6.883 -0.0450 -0.0158  0.4256
  160XCA     C6 1452  12.571   1.487   7.021 -0.1088  0.2116  0.0963
  161CHOL   ROH 1453   1.422   7.315   5.041  0.0520  0.0703  0.1850
  161CHOL    R1 1454   1.428   7.152   5.273  0.0374  0.0292  0.1586
  161CHOL    R2 1455   1.653   7.012   5.351  0.0310 -0.0083  0.1382
  161CHOL    R3 1456   1.614   7.145   5.585  0.0387 -0.0364  0.1536
  161CHOL    R4 1457   1.751   6.898   5.662 -0.0062 -0.0519  0.1327
  161CHOL    R5 1458   1.563   6.973   5.744  0.0081 -0.0398  0.1305
  161CHOL    C1 1459   1.771   6.956   6.063 -0.0206 -0.1038  0.1439
  161CHOL    C2 1460   1.747   6.936   6.526  0.0957 -0.0492  0.2356
  162CHOL   ROH 1461  15.827   0.488   4.347  0.0822 -0.4788  0.0917
  162CHOL    R1 1462  15.999   0.591   4.547  0.1530 -0.3041 -0.0552
  162CHOL    R2 1463  15.981   0.515   4.812  0.0691  0.1224  0.0727
  162CHOL    R3 1464  16.244   0.457   4.780  0.0239 -0.1495  0.1727
  162CHOL    R4 1465  16.199   0.437   5.069 -0.1041 -0.1206  0.1492
  162CHOL    R5 1466  16.351   0.557   4.969  0.0584 -0.2735  0.2164
  162CHOL    C1 1467  16.573   0.337   5.188 -0.2474 -0.5173  0.2876
  162CHOL    C2 1468  16.558   0.018   5.367 -0.0285  0.2051  0.3843
  163CHOL   ROH 1469   9.166  14.031   8.164 -0.0801 -0.0063  0.0549
  163CHOL    R1 1470   9.135  14.174   7.922 -0.0112  0.0329  0.0700
  163CHOL    R2 1471   9.341  14.209   7.742 -0.0133 -0.1025  0.0486
  163CHOL    R3 1472   9.164  14.102   7.566 -0.1122  0.0396  0.0584
  163CHOL    R4 1473   9.357  14.245   7.398  0.0738 -0.2060  0.0406
  163CHOL    R5 1474   9.140  14.268   7.396  0.0908  0.0284  0.0104
  163CHOL    C1 1475   9.199  14.164   7.033  0.0316 -0.1329  0.0451
  163CHOL    C2 1476   9.067  14.115   6.689 -0.1041  0.2177  0.0917
  164CHOL   ROH 1477   8.069   8.424   8.322 -0.0470 -0.1205  0.1235
  164CHOL    R1 1478   8.279   8.373   8.138 -0.1492 -0.1351  0.0102
  164CHOL    R2 1479   8.234   8.261   7.890 -0.3216  0.0934 -0.0635
  164CHOL    R3 1480   8.368   8.481   7.803 -0.1848  0.0620  0.0624
  164CHOL    R4 1481   8.380   8.295   7.578 -0.2885  0.1719 -0.0401
  164CHOL    R5 1482   8.548   8.395   7.672 -0.2304  0.0208  0.0235
  164CHOL    C1 1483   8.589   8.521   7.315 -0.1408  0.1881  0.0918
  164CHOL    C2 1484   8.717   8.779   6.961 -0.1361  0.3130  0.0930
  165CHOL   ROH 1485  15.424   5.280   5.718  0.0287  0.0637 -0.0320
  165CHOL    R1 1486  15.481   5.399   5.968 -0.0931  0.0644 -0.0044
  165CHOL    R2 1487  15.283   5.489   6.139 -0.1865 -0.2163  0.0340
  165CHOL    R3 1488  15.410   5.328   6.318  0.0185 -0.1149 -0.0162
  165CHOL    R4 1489  15.344   5.570   6.469  0.0107 -0.1020 -0.0283
  165CHOL    R5 1490  15.541   5.479   6.450  0.0451 -0.0160 -0.1474
  165CHOL    C1 1491  15.498   5.467   6.829  0.3178  0.0597 -0.1117
  165CHOL    C2 1492  15.559   5.315   7.216 -0.0121 -0.0506 -0.0667
  166CHOL   ROH 1493   8.583  14.113   4.793  0.0317 -0.1730  0.1374
  166CHOL    R1 1494   8.704  14.092   5.048  0.0866 -0.0083  0.1269
  166CHOL    R2 1495   8.824  14.306   5.174  0.0334  0.0970  0.0052
  166CHOL    R3 1496   8.656  14.239   5.377  0.0932  0.1317  0.0655
  166CHOL    R4 1497   8.898  14.340   5.510  0.2137 -0.0429 -0.0193
  166CHOL    R5 1498   8.801  14.148   5.546  0.1233  0.0015 -0.0302
  166CHOL    C1 1499   8.783  14.297   5.896  0.3749 -0.0918  0.0230
  166CHOL    C2 1500   8.788  14.643   6.123 -0.1219  0.1649 -0.3294
  167PNCE   AM1 1501   5.996   3.103   8.473 -0.2150  0.1641  0.0324
  167PNCE   AM2 1502   6.294   3.133   8.527 -0.2600  0.3577 -0.1715
  167PNCE   T1A 1503   5.633   3.208   8.258  0.0278 -0.2860 -0.2671
  167PNCE   C2A 1504   5.399   3.332   7.860  0.0462 -0.2860 -0.3296
  167PNCE   C3A 1505   5.390   3.616   7.548  0.1047 -0.0700 -0.1164
  167PNCE   C1B 1506   6.238   2.936   8.041 -0.4204  0.1451 -0.3556
  167PNCE   C2B 1507   6.132   3.158   7.683  0.2185  0.0367 -0.3736
  167PNCE   C3B 1508   6.146   3.271   7.203 -0.3597 -0.0786 -0.2686
  167PNCE   D4B 1509   6.292   3.381   6.800 -0.1226  0.0050 -0.0667
  167PNCE   C5B 1510   6.229   3.179   6.421  0.1106  0.0390  0.2238
  167PNCE   C6B 1511   6.392   3.002   6.021 -0.0177 -0.0524 -0.1899
  168CHOL   ROH 1512  14.243   6.051   8.427  0.0406 -0.1618  0.1216
  168CHOL    R1 1513  14.317   5.895   8.202 -0.0825 -0.0687  0.0141
  168CHOL    R2 1514  14.292   5.986   7.943 -0.1088  0.0886  0.0702
  168CHOL    R3 1515  14.556   5.923   7.929 -0.1394 -0.0171 -0.0304
  168CHOL    R4 1516  14.472   5.959   7.650 -0.1971  0.1622  0.0088
  168CHOL    R5 1517  14.573   5.784   7.734 -0.2491  0.0754 -0.1066
  168CHOL    C1 1518  14.825   5.882   7.465 -0.2772  0.1058 -0.1213
  168CHOL    C2 1519  14.852   5.999   7.101 -0.1920 -0.0070 -0.3168
  169XCA    COO 1520   4.994  11.018   8.311  0.2023  0.0483  0.0016
  169XCA     C1 1521   4.879  11.028   8.021  0.0677 -0.1769  0.1657
  169XCA     C2 1522   5.044  11.309   7.700  0.0822 -0.0522  0.0532
  169XCA     C3 1523   5.394  11.438   7.427  0.2762 -0.2340  0.2740
  169XCA     C4 1524   5.693  11.668   7.379  0.0512  0.0376 -0.2401
  169XCA     C5 1525   5.922  11.679   6.941 -0.0124  0.0004  0.0893
  169XCA     C6 1526   6.208  12.061   6.907 -0.1687  0.1917 -0.2346
  170CHOL   ROH 1527  12.288  14.397   8.608 -0.1861  0.2057 -0.1257
  170CHOL    R1 1528  12.228  14.400   8.331 -0.0265  0.2757 -0.1610
  170CHOL    R2 1529  12.403  14.500   8.142  0.2364  0.0025 -0.0749
  170CHOL    R3 1530  12.369  14.255   8.028 -0.0674  0.0388 -0.0674
  170CHOL    R4 1531  12.546  14.398   7.844  0.3033 -0.2709  0.0478
  170CHOL    R5 1532  12.359  14.299   7.793  0.1833  0.0225 -0.0804
  170CHOL    C1 1533  12.597  14.109   7.564  0.0569 -0.3961  0.1263
  170CHOL    C2 1534  12.867  14.054   7.255  0.1721  0.2213  0.1331
  171XCA    COO 1535   7.872  12.698   4.370 -0.3532  0.0284 -0.1671
  171XCA     C1 1536   7.679  12.563   4.702  0.2166 -0.0271 -0.1514
  171XCA     C2 1537   7.877  12.407   5.135 -0.1876  0.1127 -0.0944
  171XCA     C3 1538   8.239  12.390   5.369  0.0016  0.5479 -0.2013
  171XCA     C4 1539   8.447  12.193   5.651 -0.0630 -0.1878  0.2390
  171XCA     C5 1540   8.712  11.864   5.827  0.0433 -0.2912 -0.0298
  171XCA     C6 1541   9.146  11.641   5.827 -0.0715 -0.0238  0.2332
  172PNCE   AM1 1542  12.595   3.819   8.305  0.2515  0.0364 -0.3325
  172PNCE   AM2 1543  12.504   3.604   8.235  0.1200 -0.0226 -0.3373
  172PNCE   T1A 1544  12.439   4.181   8.104 -0.0615 -0.0783  0.0363
  172PNCE   C2A 1545  12.396   4.230   7.722 -0.0266  0.1678 -0.2673
  172PNCE   C3A 1546  12.403   4.459   7.406  0.3015  0.0029 -0.0129
  172PNCE   C1B 1547  12.401   3.354   7.871  0.0662  0.1557 -0.0362
  172PNCE   C2B 1548  12.529   3.395   7.530  0.0040  0.2468  0.0292
  172PNCE   C3B 1549  12.344   3.385   7.072  0.0759  0.1517  0.1166
  172PNCE   D4B 1550  12.361   3.754   6.921 -0.0939  0.0538  0.2428
  172PNCE   C5B 1551  12.094   4.043   7.028  0.2099  0.0364 -0.1945
  172PNCE   C6B 1552  11.913   4.166   7.437 -0.5755 -0.2511  0.1512
  173PNCE   AM1 1553   0.129   1.871   7.489  0.1606  0.3137 -0.0384
  173PNCE   AM2 1554   0.201   2.254   7.420 -0.1022  0.3040  0.0652
  173PNCE   T1A 1555  -0.112   1.928   7.146 -0.0928  0.0000  0.0174
  173PNCE   C2A 1556  -0.188   2.242   6.722 -0.0173  0.0746  0.0553
  173PNCE   C3A 1557  -0.508   2.393   6.496  0.1637  0.0053 -0.1291
  173PNCE   C1B 1558   0.223   2.203   7.018  0.1985 -0.5007  0.1767
  173PNCE   C2B 1559   0.223   1.944   6.653 -0.0507  0.3313  0.0964
  173PNCE   C3B 1560   0.310   1.830   6.228  0.2181 -0.1713 -0.0908
  173PNCE   D4B 1561   0.114   1.829   5.831 -0.0261  0.1725 -0.1394
  173PNCE   C5B 1562   0.249   1.918   5.357 -0.0112 -0.0594 -0.2363
  173PNCE   C6B 1563   0.642   2.032   5.111 -0.2473  0.0395  0.0392
  174CHOL   ROH 1564  15.214   9.530   8.198 -0.2551  0.0362 -0.1618
  174CHOL    R1 1565  15.357   9.662   7.993 -0.0475 -0.0732 -0.0919
  174CHOL    R2 1566  15.403   9.547   7.746 -0.1328 -0.0579 -0.1180
  174CHOL    R3 1567  15.288   9.776   7.654  0.1610  0.1123 -0.0740
  174CHOL    R4 1568  15.390   9.642   7.414 -0.2524 -0.1138 -0.1292
  174CHOL    R5 1569  15.432   9.847   7.475  0.1335 -0.1623 -0.2086
  174CHOL    C1 1570  15.274   9.911   7.134 -0.0461  0.0135 -0.0943
  174CHOL    C2 1571  15.176   9.951   6.729 -0.1128  0.0004 -0.1465
  175XCA    COO 1572  11.933   6.857   4.121 -0.2117 -0.0680 -0.4145
  175XCA     C1 1573  11.731   7.259   4.423  0.0707  0.1731  0.2842
  175XCA     C2 1574  11.476   7.496   4.864  0.0557 -0.3497 -0.2453
  175XCA     C3 1575  11.243   7.368   5.273 -0.1187  0.0369 -0.0826
  175XCA     C4 1576  11.186   7.168   5.663 -0.2146 -0.0456 -0.0156
  175XCA     C5 1577  11.000   7.086   6.097 -0.1746  0.1100 -0.2634
  175XCA     C6 1578  11.198   7.023   6.519 -0.5319 -0.1599  0.1690
  176CHOL   ROH 1579  12.222  14.649   5.498  0.0804 -0.0290  0.0839
  176CHOL    R1 1580  12.081  14.468   5.664 -0.0704  0.0093 -0.0007
  176CHOL    R2 1581  11.853  14.337   5.581 -0.0095  0.0084 -0.1693
  176CHOL    R3 1582  11.992  14.116   5.655 -0.0840  0.0129 -0.0121
  176CHOL    R4 1583  11.716  14.022   5.618 -0.1062  0.0696  0.0079
  176CHOL    R5 1584  11.840  13.995   5.796 -0.1391  0.1437  0.0428
  176CHOL    C1 1585  11.767  13.630   5.709 -0.2324  0.1093  0.2587
  176CHOL    C2 1586  11.766  13.263   5.741 -0.0634 -0.2140 -0.0742
  177CHOL   ROH 1587  10.369  15.617   8.777 -0.0309  0.0146  0.0275
  177CHOL    R1 1588  10.459  15.468   8.553 -0.0391 -0.0575  0.0718
  177CHOL    R2 1589  10.298  15.412   8.336  0.0318  0.1007 -0.0233
  177CHOL    R3 1590  10.502  15.526   8.197  0.2167 -0.0769  0.0969
  177CHOL    R4 1591  10.396  15.319   8.018 -0.0040  0.1542 -0.0500
  177CHOL    R5 1592  10.604  15.343   8.080  0.0150 -0.1449  0.0216
  177CHOL    C1 1593  10.645  15.371   7.702  0.1489  0.0186  0.0473
  177CHOL    C2 1594  10.557  15.288   7.330 -0.0797  0.0974  0.1965
  178CHOL   ROH 1595   2.476   6.959   8.271  0.0428  0.0226 -0.0256
  178CHOL    R1 1596   2.551   7.204   8.150  0.1679 -0.0408 -0.0773
  178CHOL    R2 1597   2.672   7.216   7.902 -0.0302 -0.1432 -0.1801
  178CHOL    R3 1598   2.467   7.385   7.846  0.0775  0.0515  0.0017
  178CHOL    R4 1599   2.655   7.419   7.623 -0.1784 -0.2898 -0.2793
  178CHOL    R5 1600   2.574   7.577   7.749  0.1661 -0.1210 -0.2553
  178CHOL    C1 1601   2.452   7.696   7.408 -0.1637 -0.1925 -0.1665
  178CHOL    C2 1602   2.654   7.832   7.092  0.0208  0.0943 -0.1594
  179XCA    COO 1603   0.621   1.828   7.473  0.2432  0.3032  0.0034
  179XCA     C1 1604   0.441   1.683   7.090  0.1074 -0.2173 -0.0768
  179XCA     C2 1605   0.449   1.460   6.739  0.3060  0.1828  0.0420
  179XCA     C3 1606   0.205   1.393   6.444 -0.4632 -0.1402  0.1645
  179XCA     C4 1607   0.182   1.188   6.126  0.0278 -0.3118 -0.1751
  179XCA     C5 1608   0.492   0.972   5.951 -0.0670  0.2079 -0.0817
  179XCA     C6 1609   0.846   0.959   5.741  0.1479  0.1047  0.3264
  180XCA    COO 1610   4.144   9.547   4.568  0.1648  0.0077 -0.1079
  180XCA     C1 1611   3.870   9.643   4.899 -0.0022  0.2994  0.1458
  180XCA     C2 1612   3.499   9.581   5.300 -0.3604  0.1663 -0.0204
  180XCA     C3 1613   3.176   9.783   5.460  0.0402 -0.1352 -0.0334
  180XCA     C4 1614   3.054   9.867   5.821  0.1242 -0.0304 -0.0307
  180XCA     C5 1615   2.862   9.896   6.193 -0.1777  0.0947  0.0603
  180XCA     C6 1616   2.737   9.787   6.560  0.2042 -0.1067 -0.4585
  181CHOL   ROH 1617  10.086   2.392   6.954 -0.3005  0.0005  0.2120
  181CHOL    R1 1618   9.991   2.643   7.044 -0.1716 -0.0079  0.3778
  181CHOL    R2 1619  10.114   2.785   7.246  0.3323  0.1276 -0.0014
  181CHOL    R3 1620  10.118   2.984   7.060 -0.2645  0.0573 -0.1097
  181CHOL    R4 1621  10.087   3.123   7.316  0.4779  0.1510 -0.0545
  181CHOL    R5 1622   9.960   3.144   7.141 -0.0645  0.0558  0.3064
  181CHOL    C1 1623  10.076   3.505   7.183  0.0023  0.0986 -0.1871
  181CHOL    C2 1624  10.292   3.896   7.078  0.0936 -0.0127 -0.1609
  182CHOL   ROH 1625   2.638   1.600   3.912  0.1349  0.1891  0.1384
  182CHOL    R1 1626   2.629   1.559   4.192  0.3993  0.1990  0.1524
  182CHOL    R2 1627   2.766   1.720   4.371  0.1757  0.5261  0.0495
  182CHOL    R3 1628   2.520   1.748   4.483  0.1697  0.0094  0.1895
  182CHOL    R4 1629   2.707   1.832   4.693  0.1037  0.4351  0.0679
  182CHOL    R5 1630   2.550   1.681   4.711  0.4367  0.0991  0.1767
  182CHOL    C1 1631   2.442   1.923   4.985  0.0562 -0.1029  0.2100
  182CHOL    C2 1632   2.342   1.978   5.362 -0.2751 -0.1118  0.0608
  183PNCE   AM1 1633   4.810   7.757   8.923  0.0202  0.0663 -0.0266
  183PNCE   AM2 1634   4.940   7.894   9.073  0.0373 -0.3401  0.1390
  183PNCE   T1A 1635   4.725   7.834   8.518  0.0062  0.2540  0.0162
  183PNCE   C2A 1636   4.470   7.848   8.219  0.1855 -0.2269  0.0064
  183PNCE   C3A 1637   4.585   7.706   7.773  0.5833 -0.0004 -0.1224
  183PNCE   C1B 1638   4.709   8.244   8.894  0.1419 -0.0604  0.2864
  183PNCE   C2B 1639   4.501   8.280   8.414  0.2713 -0.1599  0.1449
  183PNCE   C3B 1640   4.408   8.266   7.873  0.0687 -0.1264 -0.0621
  183PNCE   D4B 1641   4.606   8.596   7.541 -0.1103  0.0640 -0.2117
  183PNCE   C5B 1642   4.352   9.056   7.568  0.3122  0.4052  0.0313
  183PNCE   C6B 1643   4.187   9.303   7.288  0.0269 -0.1401 -0.1948
  184PNCE   AM1 1644  13.817   9.742   4.941 -0.0502 -0.1284  0.1266
  184PNCE   AM2 1645  13.726   9.379   5.017 -0.1120  0.0130  0.1274
  184PNCE   T1A 1646  14.008  10.034   5.304  0.0415  0.1621  0.1449
  184PNCE   C2A 1647  13.953  10.138   5.650  0.1065 -0.2196 -0.0871
  184PNCE   C3A 1648  13.881  10.168   6.132 -0.2564  0.0076 -0.0842
  184PNCE   C1B 1649  13.754   9.623   5.371  0.0140 -0.1839  0.0986
  184PNCE   C2B 1650  13.987   9.644   5.752  0.1503  0.3530 -0.2534
  184PNCE   C3B 1651  13.938   9.663   6.117  0.2801 -0.2250 -0.2621
  184PNCE   D4B 1652  13.602   9.829   6.371  0.1404 -0.0175 -0.0561
  184PNCE   C5B 1653  13.438   9.760   6.802  0.0989 -0.1092  0.3839
  184PNCE   C6B 1654  13.386   9.747   7.233 -0.1259 -0.0123  0.0685
  185PNCE   AM1 1655   1.123  15.463   7.871 -0.1260  0.2084  0.0430
  185PNCE   AM2 1656   1.303  15.262   7.759  0.0109 -0.0339  0.3221
  185PNCE   T1A 1657   0.961  15.331   7.410 -0.1826  0.0037 -0.2682
  185PNCE   C2A 1658   0.828  15.234   7.043  0.0291  0.0794  0.1056
  185PNCE   C3A 1659   0.669  15.464   6.765 -0.0172 -0.2019  0.0478
  185PNCE   C1B 1660   1.436  15.467   7.412  0.0132 -0.1525  0.1630
  185PNCE   C2B 1661   1.628  15.470   7.037 -0.1789  0.1773 -0.0960
  185PNCE   C3B 1662   1.622  15.569   6.656  0.0037  0.2899 -0.0003
  185PNCE   D4B 1663   1.895  15.794   6.317 -0.3537 -0.0641 -0.4921
  185PNCE   C5B 1664   2.260  15.602   6.151 -0.2801  0.1015  0.0074
  185PNCE   C6B 1665   2.743  15.634   5.985 -0.0341  0.0710 -0.2797
  186PNCE   AM1 1666  12.976   3.465   8.120  0.0443  0.2890 -0.0422
  186PNCE   AM2 1667  13.069   3.051   8.213  0.0058 -0.2485  0.2014
  186PNCE   T1A 1668  13.090   3.280   7.767  0.1174 -0.0393 -0.0162
  186PNCE   C2A 1669  13.033   3.160   7.422  0.0566  0.1251  0.4390
  186PNCE   C3A 1670  12.856   3.342   7.048 -0.0266 -0.0727 -0.0511
  186PNCE   C1B 1671  12.941   2.670   8.057  0.2932 -0.0544 -0.1090
  186PNCE   C2B 1672  12.723   2.328   7.688 -0.0106 -0.0779  0.2759
  186PNCE   C3B 1673  12.565   2.378   7.195 -0.1568 -0.1640 -0.1392
  186PNCE   D4B 1674  12.313   2.372   6.846 -0.3506 -0.0529  0.0320
  186PNCE   C5B 1675  12.521   2.284   6.511 -0.1073  0.2018 -0.0037
  186PNCE   C6B 1676  12.527   2.338   6.067  0.1893  0.0894  0.0642
  187PNCE   AM1 1677   7.049  15.879   4.893  0.1461  0.0881 -0.2157
  187PNCE   AM2 1678   7.369  15.799   4.835 -0.0083 -0.0445 -0.1317
  187PNCE   T1A 1679   7.197  15.942   5.290  0.0397 -0.1816  0.0479
  187PNCE   C2A 1680   7.404  16.004   5.697 -0.5211 -0.0173 -0.0502
  187PNCE   C3A 1681   7.418  16.271   6.100 -0.3988  0.3924  0.3432
  187PNCE   C1B 1682   7.685  15.814   5.190  0.1829  0.3189  0.0178
  187PNCE   C2B 1683   7.967  15.870   5.465  0.2398  0.0255 -0.2297
  187PNCE   C3B 1684   7.857  15.852   5.908 -0.1259 -0.1097 -0.0714
  187PNCE   D4B 1685   7.866  15.586   6.242  0.5217  0.1446 -0.0460
  187PNCE   C5B 1686   7.551  15.409   6.569 -0.2504 -0.4993  0.0095
  187PNCE   C6B 1687   7.305  15.271   6.901  0.0769  0.0655  0.2354
  188XCA    COO 1688   3.417   6.690   9.099  0.0936 -0.2208 -0.1192
  188XCA     C1 1689   3.419   7.102   8.917 -0.0354 -0.3720  0.0741
  188XCA     C2 1690   3.414   7.306   8.463 -0.1782 -0.1820 -0.0245
  188XCA     C3 1691   3.324   7.774   8.235  0.0742  0.1852 -0.1609
  188XCA     C4 1692   3.354   8.099   7.933 -0.0860 -0.3093  0.1989
  188XCA     C5 1693   3.484   8.145   7.560 -0.2218 -0.2623  0.1650
  188XCA     C6 1694   3.599   8.486   7.335 -0.1244  0.1413  0.0492
  189PNCE   AM1 1695  13.019   7.984   9.081  0.0461 -0.0612  0.1476
  189PNCE   AM2 1696  13.234   8.239   8.923  0.2018  0.2383 -0.1677
  189PNCE   T1A 1697  12.563   8.173   8.902  0.0978  0.1961  0.6323
  189PNCE   C2A 1698  12.144   8.218   8.796 -0.1696 -0.1648  0.1700
  189PNCE   C3A 1699  11.923   8.451   8.575 -0.0011 -0.1088  0.3833
  189PNCE   C1B 1700  13.038   8.383   8.504  0.3003  0.4580  0.1139
  189PNCE   C2B 1701  12.896   8.443   8.160 -0.1558  0.0317 -0.0824
  189PNCE   C3B 1702  12.671   8.543   7.777 -0.2380  0.1289 -0.1668
  189PNCE   D4B 1703  12.400   8.544   7.419  0.1501 -0.1512 -0.2173
  189PNCE   C5B 1704  12.584   8.614   7.054 -0.2008  0.0729  0.2899
  189PNCE   C6B 1705  12.954   8.573   6.765  0.1564 -0.2492  0.1225
  190PNCE   AM1 1706  13.667   3.265   8.483  0.1162  0.0114  0.1966
  190PNCE   AM2 1707  13.407   3.511   8.411 -0.2037 -0.1540 -0.1014
  190PNCE   T1A 1708  13.475   3.186   8.037 -0.1866 -0.1508 -0.2538
  190PNCE   C2A 1709  13.372   2.793   7.852  0.3467 -0.1899 -0.0458
  190PNCE   C3A 1710  13.051   2.622   7.570 -0.1984 -0.2088 -0.0167
  190PNCE   C1B 1711  13.394   3.668   8.005  0.1843  0.0779 -0.0449
  190PNCE   C2B 1712  13.527   3.990   7.633  0.0631  0.0789  0.0480
  190PNCE   C3B 1713  13.686   4.304   7.322 -0.2344 -0.0408  0.0003
  190PNCE   D4B 1714  13.779   4.406   6.817  0.3179 -0.1158 -0.0474
  190PNCE   C5B 1715  14.127   4.739   6.671  0.0282  0.2416 -0.0383
  190PNCE   C6B 1716  14.426   5.066   6.491  0.0245 -0.0482 -0.1982
  191CHOL   ROH 1717   5.190  14.193   5.142 -0.0879 -0.0495 -0.0445
  191CHOL    R1 1718   5.183  14.039   5.380 -0.1734  0.1293  0.0701
  191CHOL    R2 1719   5.360  13.834   5.430 -0.5002 -0.1641  0.0622
  191CHOL    R3 1720   5.407  13.973   5.659 -0.0580 -0.0778 -0.0705
  191CHOL    R4 1721   5.473  13.695   5.726 -0.2418 -0.1007 -0.0027
  191CHOL    R5 1722   5.335  13.826   5.833  0.0278  0.0940  0.1108
  191CHOL    C1 1723   5.582  13.745   6.113  0.3238  0.0171 -0.1651
  191CHOL    C2 1724   5.962  13.904   6.368 -0.1211 -0.0394  0.2344
  192CHOL   ROH 1725   8.928  10.726   7.680 -0.0304  0.0692 -0.3268
  192CHOL    R1 1726   8.698  10.596   7.579 -0.0890 -0.0035 -0.1050
  192CHOL    R2 1727   8.700  10.453   7.342 -0.2607 -0.0423 -0.0828
  192CHOL    R3 1728   8.601  10.254   7.499 -0.0785 -0.0408  0.0371
  192CHOL    R4 1729   8.608  10.140   7.229 -0.1133 -0.1457  0.0783
  192CHOL    R5 1730   8.436  10.147   7.363 -0.0677 -0.1974  0.1426
  192CHOL    C1 1731   8.462   9.770   7.311  0.1436 -0.2046  0.2846
  192CHOL    C2 1732   8.516   9.659   6.981 -0.1246  0.1533 -0.2531
  193XCA    COO 1733  15.103  12.711   8.231  0.0475 -0.1062 -0.1282
  193XCA     C1 1734  14.995  12.559   7.800 -0.1136  0.0158  0.0275
  193XCA     C2 1735  14.852  12.577   7.461  0.1065 -0.0966  0.1836
  193XCA     C3 1736  14.564  12.540   7.112  0.1665  0.1210 -0.1084
  193XCA     C4 1737  14.246  12.612   6.870 -0.1682 -0.1139 -0.0669
  193XCA     C5 1738  13.854  12.733   6.617 -0.1373 -0.3403  0.0636
  193XCA     C6 1739  13.511  12.797   6.291  0.2806 -0.2397 -0.0703
  194CHOL   ROH 1740   2.199   2.911   8.200 -0.0047  0.0082  0.0442
  194CHOL    R1 1741   2.206   3.108   7.997  0.0390  0.0247  0.0613
  194CHOL    R2 1742   2.411   3.292   7.975  0.1031 -0.0454  0.0517
  194CHOL    R3 1743   2.428   3.195   7.722  0.0351 -0.0296  0.0412
  194CHOL    R4 1744   2.586   3.442   7.717  0.0470 -0.0402  0.0167
  194CHOL    R5 1745   2.423   3.390   7.583  0.0118 -0.0219  0.0546
  194CHOL    C1 1746   2.703   3.438   7.329 -0.0496 -0.0223 -0.0134
  194CHOL    C2 1747   2.907   3.584   7.035 -0.2166  0.2278  0.2818
  195PNCE   AM1 1748   5.598  10.268   8.707 -0.0802  0.2751  0.2814
  195PNCE   AM2 1749   5.789  10.503   8.599  0.0241  0.5192  0.1843
  195PNCE   T1A 1750   5.676  10.088   8.281 -0.0013  0.2755 -0.0421
  195PNCE   C2A 1751   5.835  10.197   7.844  0.0500  0.0691 -0.0642
  195PNCE   C3A 1752   6.051  10.034   7.531  0.0184  0.0638  0.1962
  195PNCE   C1B 1753   5.650  10.581   8.208 -0.1089  0.1902 -0.1309
  195PNCE   C2B 1754   5.617  10.612   7.780 -0.0827 -0.0894 -0.3080
  195PNCE   C3B 1755   5.706  10.602   7.299 -0.0457 -0.0464 -0.7236
  195PNCE   D4B 1756   6.042  10.793   7.065 -0.0395  0.1476  0.0129
  195PNCE   C5B 1757   6.336  10.739   6.666  0.1033 -0.0524 -0.0639
  195PNCE   C6B 1758   6.361  10.433   6.218  0.1660  0.3271 -0.1656
  196XCA    COO 1759   3.391   6.681   5.673  0.0818 -0.0675 -0.0190
  196XCA     C1 1760   3.172   7.092   5.640 -0.1626  0.1340  0.1303
  196XCA     C2 1761   2.988   7.277   5.311 -0.1128 -0.2864 -0.1246
  196XCA     C3 1762   2.530   7.406   5.277 -0.2341  0.0654  0.0266
  196XCA     C4 1763   2.353   7.596   5.716  0.0824  0.0475  0.2159
  196XCA     C5 1764   2.462   7.556   6.109  0.0058 -0.0690 -0.3877
  196XCA     C6 1765   2.371   7.778   6.566 -0.1568  0.1876  0.0425
  197CHOL   ROH 1766  12.674   9.237   8.920  0.0719 -0.1112  0.1207
  197CHOL    R1 1767  12.823   9.090   8.730 -0.0294 -0.1487  0.0696
  197CHOL    R2 1768  12.703   8.942   8.529 -0.1337 -0.0598  0.0647
  197CHOL    R3 1769  12.863   9.091   8.368 -0.0924 -0.1064  0.0626
  197CHOL    R4 1770  12.747   8.889   8.191 -0.0332 -0.1683  0.0942
  197CHOL    R5 1771  12.959   8.933   8.216 -0.0422 -0.1523  0.1416
  197CHOL    C1 1772  12.923   8.998   7.842  0.0640 -0.2752  0.1094
  197CHOL    C2 1773  13.162   8.776   7.785 -0.1037  0.0311  0.1400
  198CHOL   ROH 1774  14.717   3.436   7.636  0.0362 -0.0511  0.0474
  198CHOL    R1 1775  14.713   3.616   7.417 -0.1418 -0.0165  0.0778
  198CHOL    R2 1776  14.698   3.890   7.450 -0.0340 -0.0174  0.1373
  198CHOL    R3 1777  14.921   3.888   7.295 -0.1926 -0.0542 -0.0960
  198CHOL    R4 1778  14.862   4.172   7.337  0.0136 -0.0427  0.1427
  198CHOL    R5 1779  14.891   4.073   7.145 -0.2423  0.0565  0.0479
  198CHOL    C1 1780  15.167   4.335   7.125 -0.1075 -0.0919 -0.0730
  198CHOL    C2 1781  15.355   4.716   7.097 -0.4384  0.0919  0.1621
  199PNCE   AM1 1782   3.982  13.312   7.662  0.2994 -0.1030  0.3502
  199PNCE   AM2 1783   4.192  13.021   7.710 -0.1060 -0.2313 -0.0823
  199PNCE   T1A 1784   4.307  13.430   7.432  0.2486  0.1677 -0.0275
  199PNCE   C2A 1785   4.498  13.680   7.044 -0.2684  0.0782 -0.1052
  199PNCE   C3A 1786   4.266  13.744   6.688 -0.2148 -0.0034  0.0348
  199PNCE   C1B 1787   4.464  12.930   7.387  0.0410 -0.0745  0.2756
  199PNCE   C2B 1788   4.626  12.599   7.249  0.2468 -0.3048 -0.3467
  199PNCE   C3B 1789   4.863  12.561   7.085 -0.0264  0.3391 -0.0382
  199PNCE   D4B 1790   5.006  12.180   7.017 -0.0617 -0.0526 -0.0321
  199PNCE   C5B 1791   5.379  11.911   6.961  0.0239  0.0573 -0.1834
  199PNCE   C6B 1792   5.451  11.514   6.786 -0.1453 -0.1964 -0.1062
  200PNCE   AM1 1793  15.009   7.088   5.314 -0.2603 -0.0616 -0.0015
  200PNCE   AM2 1794  14.865   7.014   5.053 -0.2541  0.0760 -0.0807
  200PNCE   T1A 1795  15.390   6.882   5.376 -0.1698  0.5080 -0.2200
  200PNCE   C2A 1796  15.631   6.704   5.641 -0.1182 -0.0194 -0.0569
  200PNCE   C3A 1797  15.534   6.703   6.029 -0.0220  0.2014 -0.0303
  200PNCE   C1B 1798  14.611   6.645   5.169 -0.0326  0.0701  0.1778
  200PNCE   C2B 1799  14.741   6.245   5.409  0.2816  0.1715  0.0481
  200PNCE   C3B 1800  14.696   6.232   5.803 -0.1616 -0.0782  0.1023
  200PNCE   D4B 1801  14.673   5.873   6.129 -0.2332  0.1163  0.0456
  200PNCE   C5B 1802  14.539   6.199   6.420  0.0045 -0.2354  0.2099
  200PNCE   C6B 1803  14.514   6.663   6.342 -0.0442 -0.0747  0.0220
  201CHOL   ROH 1804  11.168  14.768   8.623  0.3945 -0.0253  0.1730
  201CHOL    R1 1805  11.221  14.834   8.353  0.1220 -0.0601  0.1081
  201CHOL    R2 1806  11.464  14.934   8.269 -0.0488  0.1947 -0.1059
  201CHOL    R3 1807  11.453  14.725   8.095  0.0639  0.1149 -0.0190
  201CHOL    R4 1808  11.546  14.952   7.934  0.0058  0.0802 -0.0992
  201CHOL    R5 1809  11.376  14.824   7.890  0.0644 -0.0040 -0.0760
  201CHOL    C1 1810  11.583  14.768   7.575  0.1434 -0.0616 -0.0137
  201CHOL    C2 1811  11.786  14.841   7.205 -0.1608  0.0945  0.0438
  202CHOL   ROH 1812   1.368  14.428   4.576 -0.1094  0.1529 -0.1710
  202CHOL    R1 1813   1.330  14.587   4.807 -0.2381  0.1157 -0.1662
  202CHOL    R2 1814   1.114  14.555   4.976 -0.1487 -0.1484 -0.0987
  202CHOL    R3 1815   1.307  14.532   5.166 -0.0587  0.0997 -0.1560
  202CHOL    R4 1816   1.079  14.653   5.305 -0.2151 -0.2828 -0.0649
  202CHOL    R5 1817   1.283  14.730   5.299 -0.3293  0.0348 -0.1010
  202CHOL    C1 1818   1.240  14.688   5.676 -0.1692 -0.1280 -0.0989
  202CHOL    C2 1819   1.434  14.962   5.915  0.1611  0.1874  0.0099
  203CHOL   ROH 1820  15.427   3.734   7.880  0.0843 -0.1003  0.0786
  203CHOL    R1 1821  15.474   3.770   7.603  0.0124 -0.0502  0.0726
  203CHOL    R2 1822  15.292   3.690   7.410 -0.0617  0.0321  0.1066
  203CHOL    R3 1823  15.315   3.949   7.329 -0.0275  0.0451  0.1580
  203CHOL    R4 1824  15.387   3.792   7.093 -0.0258  0.0863  0.1346
  203CHOL    R5 1825  15.505   3.950   7.184 -0.0170  0.0548  0.1739
  203CHOL    C1 1826  15.463   4.094   6.833  0.0274  0.1300  0.1992
  203CHOL    C2 1827  15.552   4.000   6.469  0.1971 -0.3717  0.0194
  204PNCE   AM1 1828   9.370   9.529   8.366  0.0505  0.0197  0.1295
  204PNCE   AM2 1829   9.389   9.153   8.451 -0.2914 -0.1669  0.1168
  204PNCE   T1A 1830   9.594   9.547   7.928  0.1259 -0.1984  0.2075
  204PNCE   C2A 1831   9.749   9.203   7.637 -0.2248 -0.1912 -0.2567
  204PNCE   C3A 1832  10.013   9.264   7.269 -0.0611 -0.2318 -0.0722
  204PNCE   C1B 1833   9.636   9.047   8.116 -0.0394  0.0816  0.0140
  204PNCE   C2B 1834   9.361   8.792   7.758  0.1187  0.0653  0.5268
  204PNCE   C3B 1835   9.196   8.877   7.422  0.0061 -0.0610  0.0008
  204PNCE   D4B 1836   8.810   9.113   7.309 -0.0228  0.3286  0.2047
  204PNCE   C5B 1837   8.671   9.314   7.466 -0.2089 -0.2178 -0.2298
  204PNCE   C6B 1838   8.778   9.587   7.870 -0.1570  0.2825  0.1779
  205CHOL   ROH 1839   3.790   6.450   5.628  0.0428 -0.2365  0.2942
  205CHOL    R1 1840   3.817   6.560   5.887 -0.1013 -0.0421  0.2284
  205CHOL    R2 1841   4.061   6.635   5.993 -0.1281 -0.1777  0.3946
  205CHOL    R3 1842   3.936   6.874   6.030  0.0504 -0.0276  0.0728
  205CHOL    R4 1843   4.196   6.905   6.161 -0.1052 -0.2139  0.4339
  205CHOL    R5 1844   4.000   6.941   6.251 -0.2044  0.0339  0.1304
  205CHOL    C1 1845   4.157   7.286   6.295  0.0758 -0.0942  0.1546
  205CHOL    C2 1846   4.157   7.626   6.502 -0.2453  0.0838 -0.0337
  206XCA    COO 1847   9.531   8.354   5.594 -0.1197 -0.0331 -0.1886
  206XCA     C1 1848   9.887   8.070   5.772 -0.1876  0.1495  0.1010
  206XCA     C2 1849  10.072   7.692   6.064  0.0484  0.0315 -0.0418
  206XCA     C3 1850   9.998   7.701   6.523 -0.2182  0.0945 -0.1029
  206XCA     C4 1851   9.821   7.633   6.870 -0.3370  0.1222 -0.2113
  206XCA     C5 1852   9.906   7.347   7.139  0.1811 -0.2424  0.1092
  206XCA     C6 1853   9.907   6.867   7.216 -0.3535 -0.3112  0.1867
  207CHOL   ROH 1854   2.370  10.225   8.212 -0.1426 -0.3301  0.2612
  207CHOL    R1 1855   2.363  10.238   7.930 -0.0805 -0.1361  0.2671
  207CHOL    R2 1856   2.417  10.020   7.769  0.0445 -0.0060  0.1250
  207CHOL    R3 1857   2.174  10.080   7.662  0.0455 -0.0269  0.1125
  207CHOL    R4 1858   2.347  10.026   7.431  0.1139  0.1987  0.1132
  207CHOL    R5 1859   2.226  10.205   7.464  0.0386  0.1282  0.2089
  207CHOL    C1 1860   2.079  10.086   7.133  0.1551  0.2983  0.0947
  207CHOL    C2 1861   2.293  10.418   6.913 -0.0999  0.0146  0.0113
  208CHOL   ROH 1862  12.686  15.528   5.826 -0.0553  0.1307 -0.0644
  208CHOL    R1 1863  12.632  15.547   6.103 -0.1504  0.0216 -0.0753
  208CHOL    R2 1864  12.774  15.715   6.271 -0.0836 -0.1831  0.0712
  208CHOL    R3 1865  12.526  15.807   6.335 -0.0364 -0.0195  0.0262
  208CHOL    R4 1866  12.694  15.884   6.562 -0.0669 -0.3555  0.1782
  208CHOL    R5 1867  12.508  15.772   6.571 -0.1758 -0.2053 -0.0066
  208CHOL    C1 1868  12.415  16.069   6.791 -0.0128 -0.3024  0.1983
  208CHOL    C2 1869  12.173  16.270   7.090  0.3758  0.1877 -0.0719
  209PNCE   AM1 1870  10.446   1.993   8.703 -0.1515  0.2892 -0.0321
  209PNCE   AM2 1871  10.459   2.274   8.618  0.2193 -0.2109  0.1744
  209PNCE   T1A 1872  10.102   1.743   8.499 -0.1651  0.0584 -0.1017
  209PNCE   C2A 1873  10.036   1.535   8.170  0.0128 -0.1742 -0.3737
  209PNCE   C3A 1874   9.999   1.452   7.749 -0.0604  0.1981  0.1014
  209PNCE   C1B 1875  10.317   2.131   8.178 -0.0169  0.2927  0.0187
  209PNCE   C2B 1876  10.319   2.000   7.864  0.1293 -0.2055 -0.0455
  209PNCE   C3B 1877  10.359   1.759   7.536  0.1947  0.0310  0.2835
  209PNCE   D4B 1878  10.379   1.724   7.129 -0.2072 -0.0153 -0.1672
  209PNCE   C5B 1879  10.351   2.006   6.795  0.2668 -0.2215 -0.2003
  209PNCE   C6B 1880  10.066   2.020   6.467  0.0143 -0.1335  0.2221
  210CHOL   ROH 1881   8.747   3.740   8.606 -0.0459 -0.1513 -0.1095
  210CHOL    R1 1882   8.581   3.786   8.382 -0.1495 -0.0375 -0.0113
  210CHOL    R2 1883   8.368   3.962   8.387 -0.0200  0.1191  0.1125
  210CHOL    R3 1884   8.493   4.070   8.171 -0.0701  0.0208  0.0341
  210CHOL    R4 1885   8.229   4.196   8.174 -0.0247  0.1150  0.1115
  210CHOL    R5 1886   8.321   4.091   8.007 -0.1303  0.0406  0.0996
  210CHOL    C1 1887   8.265   4.433   7.847 -0.0745  0.0203  0.0373
  210CHOL    C2 1888   7.891   4.562   7.670 -0.0354  0.1240 -0.2263
  211PNCE   AM1 1889   6.850   6.578   8.582 -0.0657 -0.1824 -0.0856
  211PNCE   AM2 1890   6.418   6.546   8.676  0.0936  0.1062 -0.1107
  211PNCE   T1A 1891   6.793   6.737   8.163  0.1094 -0.0329 -0.1916
  211PNCE   C2A 1892   6.789   6.972   7.705 -0.1683  0.1652  0.0199
  211PNCE   C3A 1893   6.975   6.820   7.345 -0.3578  0.1625  0.2428
  211PNCE   C1B 1894   6.189   6.601   8.323  0.0585 -0.2507  0.1854
  211PNCE   C2B 1895   6.287   6.759   7.875 -0.1408  0.1269  0.1353
  211PNCE   C3B 1896   6.245   6.857   7.599 -0.0596 -0.1404  0.0148
  211PNCE   D4B 1897   6.026   6.966   7.222  0.5365  0.1658 -0.0133
  211PNCE   C5B 1898   6.215   7.022   6.750  0.2243  0.2434  0.0741
  211PNCE   C6B 1899   6.501   7.118   6.350  0.0217 -0.1280  0.0173
  212CHOL   ROH 1900  10.733  12.832   7.294  0.2159 -0.0108  0.0301
  212CHOL    R1 1901  10.639  13.080   7.393  0.0667 -0.0721  0.0421
  212CHOL    R2 1902  10.797  13.248   7.545  0.0049  0.0694 -0.0570
  212CHOL    R3 1903  10.729  13.431   7.356 -0.2312 -0.0010 -0.0448
  212CHOL    R4 1904  10.740  13.583   7.607  0.1136  0.0978 -0.1058
  212CHOL    R5 1905  10.573  13.576   7.467 -0.0786  0.0533  0.1121
  212CHOL    C1 1906  10.644  13.950   7.465 -0.0449  0.0480 -0.1226
  212CHOL    C2 1907  10.679  14.276   7.631  0.1868 -0.0203 -0.1253
  213PNCE   AM1 1908   3.889   3.745   8.246  0.0372  0.1233 -0.0497
  213PNCE   AM2 1909   4.244   3.874   8.219  0.0275  0.4591 -0.0170
  213PNCE   T1A 1910   3.752   3.579   7.881 -0.0155  0.2855  0.1963
  213PNCE   C2A 1911   3.938   3.539   7.564  0.2029 -0.1140 -0.0462
  213PNCE   C3A 1912   4.268   3.768   7.379  0.0222 -0.0022  0.2146
  213PNCE   C1B 1913   4.553   3.794   7.846 -0.1033  0.0862  0.0827
  213PNCE   C2B 1914   4.835   3.909   7.510  0.0087 -0.1007  0.3651
  213PNCE   C3B 1915   5.199   3.897   7.205  0.0637 -0.1637  0.2554
  213PNCE   D4B 1916   5.476   3.599   7.075 -0.1700 -0.0436 -0.1225
  213PNCE   C5B 1917   5.823   3.615   6.854  0.3962 -0.1566 -0.1316
  213PNCE   C6B 1918   6.036   3.686   6.412 -0.0839 -0.1389 -0.0616
  214CHOL   ROH 1919  12.065   3.318   7.589 -0.0547  0.0359 -0.0244
  214CHOL    R1 1920  12.144   3.105   7.421 -0.0878 -0.0011  0.0064
  214CHOL    R2 1921  11.968   2.912   7.331 -0.1418  0.0790 -0.0607
  214CHOL    R3 1922  12.061   2.986   7.087 -0.0148  0.0355 -0.0256
  214CHOL    R4 1923  11.950   2.717   7.047  0.1606 -0.0475  0.0044
  214CHOL    R5 1924  12.151   2.784   6.995  0.1623  0.0454  0.1165
  214CHOL    C1 1925  12.028   2.672   6.652  0.4558 -0.1620  0.0753
  214CHOL    C2 1926  12.004   2.413   6.323 -0.1564 -0.0531  0.0319
  215CHOL   ROH 1927   6.036  14.692   7.801 -0.2539  0.1369 -0.1420
  215CHOL    R1 1928   6.210  14.712   7.579 -0.1124  0.2738 -0.0207
  215CHOL    R2 1929   6.472  14.797   7.602 -0.0529  0.0271  0.2375
  215CHOL    R3 1930   6.525  14.562   7.476 -0.1788  0.1382 -0.0314
  215CHOL    R4 1931   6.789  14.672   7.543 -0.1112  0.0228 -0.0854
  215CHOL    R5 1932   6.721  14.608   7.346 -0.2502  0.2304 -0.1119
  215CHOL    C1 1933   7.024  14.379   7.390 -0.2632  0.1246 -0.5259
  215CHOL    C2 1934   7.298  14.203   7.129  0.0815 -0.3681 -0.0447
  216PNCE   AM1 1935  12.012  11.889   8.379  0.1557 -0.0855 -0.0051
  216PNCE   AM2 1936  11.690  11.704   8.361 -0.0618 -0.0385  0.1413
  216PNCE   T1A 1937  12.104  12.141   7.980 -0.1396 -0.1452 -0.3205
  216PNCE   C2A 1938  11.891  12.555   7.916  0.2378  0.2292 -0.1880
  216PNCE   C3A 1939  11.691  12.986   7.859 -0.1900  0.0988 -0.1440
  216PNCE   C1B 1940  11.768  11.805   7.841  0.0688 -0.0594 -0.0239
  216PNCE   C2B 1941  11.956  12.035   7.460  0.1118 -0.0201  0.1568
  216PNCE   C3B 1942  12.046  11.914   7.046 -0.3248  0.0223 -0.2049
  216PNCE   D4B 1943  11.951  12.084   6.706 -0.1665 -0.1872  0.2386
  216PNCE   C5B 1944  11.722  11.890   6.369 -0.2746  0.0553  0.0255
  216PNCE   C6B 1945  11.582  11.392   6.346 -0.3160 -0.2274 -0.0681
  217PNCE   AM1 1946  10.921   0.925   5.393  0.0550  0.3227 -0.3740
  217PNCE   AM2 1947  11.083   1.097   5.156  0.0626  0.0682  0.0396
  217PNCE   T1A 1948  10.578   1.103   5.626 -0.0606  0.1250  0.1437
  217PNCE   C2A 1949  10.302   1.238   5.922  0.0276  0.1327 -0.4349
  217PNCE   C3A 1950   9.922   1.493   5.859 -0.0995  0.1650  0.1558
  217PNCE   C1B 1951  11.270   1.507   5.210 -0.3278  0.0554 -0.1102
  217PNCE   C2B 1952  11.305   1.800   5.502  0.0599 -0.0536 -0.0975
  217PNCE   C3B 1953  11.523   1.959   5.882  0.1814 -0.1329 -0.2402
  217PNCE   D4B 1954  11.593   2.074   6.355 -0.1701 -0.0072  0.0072
  217PNCE   C5B 1955  11.369   1.838   6.679  0.3286 -0.0135 -0.4120
  217PNCE   C6B 1956  11.018   1.463   6.628  0.1043 -0.0929  0.1076
  218PNCE   AM1 1957   2.152   0.126   7.926  0.0726  0.1344  0.0931
  218PNCE   AM2 1958   2.095   0.449   8.054 -0.0802 -0.1504  0.0754
  218PNCE   T1A 1959   2.255   0.004   7.503  0.2260 -0.1313  0.0807
  218PNCE   C2A 1960   2.279   0.286   7.179 -0.4215 -0.1329  0.1973
  218PNCE   C3A 1961   2.131   0.321   6.825 -0.0755 -0.3333  0.0140
  218PNCE   C1B 1962   2.340   0.479   7.655 -0.0347 -0.0437 -0.3108
  218PNCE   C2B 1963   2.395   0.740   7.354  0.0690  0.0473  0.2666
  218PNCE   C3B 1964   2.230   0.845   6.889 -0.0032 -0.0228 -0.6367
  218PNCE   D4B 1965   2.087   0.850   6.424 -0.1353 -0.0090 -0.2552
  218PNCE   C5B 1966   2.488   0.785   6.098  0.0457  0.4330 -0.0667
  218PNCE   C6B 1967   2.873   0.641   5.808  0.1631  0.3231  0.0432
  219CHOL   ROH 1968   6.188  14.244   7.795  0.1406  0.0368 -0.1115
  219CHOL    R1 1969   6.262  14.154   7.537  0.0085 -0.1750 -0.0784
  219CHOL    R2 1970   6.248  13.889   7.462 -0.2403 -0.2081  0.0738
  219CHOL    R3 1971   6.098  13.988   7.258 -0.1974 -0.1916  0.0501
  219CHOL    R4 1972   6.167  13.716   7.174 -0.0319 -0.1251 -0.0368
  219CHOL    R5 1973   6.200  13.899   7.060 -0.0674 -0.0601  0.0557
  219CHOL    C1 1974   5.979  13.708   6.814  0.1297 -0.0615 -0.1234
  219CHOL    C2 1975   5.612  13.360   6.820 -0.1388  0.1088  0.0436
  220PNCE   AM1 1976   7.907  13.328   8.005  0.1341 -0.0882  0.0609
  220PNCE   AM2 1977   8.077  13.633   8.096  0.1738 -0.0795 -0.0803
  220PNCE   T1A 1978   7.766  12.954   7.855  0.3989 -0.1273 -0.2768
  220PNCE   C2A 1979   7.863  12.724   7.511 -0.2993  0.2421 -0.2337
  220PNCE   C3A 1980   7.675  12.391   7.257 -0.1052 -0.0598 -0.1536
  220PNCE   C1B 1981   8.438  13.936   7.930  0.2210 -0.1718 -0.0575
  220PNCE   C2B 1982   8.720  14.035   7.553  0.2621  0.0083 -0.0152
  220PNCE   C3B 1983   8.675  14.081   7.123 -0.1695 -0.2204  0.2374
  220PNCE   D4B 1984   8.428  13.949   6.814  0.0063  0.0957 -0.0081
  220PNCE   C5B 1985   8.049  14.101   6.552 -0.1645 -0.0722 -0.0196
  220PNCE   C6B 1986   7.879  14.389   6.218 -0.4227  0.3312  0.1126
  221CHOL   ROH 1987  15.520  12.689   8.032  0.2132 -0.0904 -0.1133
  221CHOL    R1 1988  15.479  12.845   7.800  0.1375 -0.0502 -0.0732
  221CHOL    R2 1989  15.476  12.735   7.546 -0.0255 -0.0183 -0.0849
  221CHOL    R3 1990  15.234  12.859   7.531  0.0015  0.0541  0.0541
  221CHOL    R4 1991  15.268  12.730   7.270 -0.1748  0.0634  0.0240
  221CHOL    R5 1992  15.223  12.940   7.306 -0.0943  0.0749  0.0653
  221CHOL    C1 1993  14.920  12.843   7.095 -0.2363  0.1788  0.2181
  221CHOL    C2 1994  14.732  13.119   6.879 -0.2705 -0.0318  0.0646
  222CHOL   ROH 1995  10.873  15.748   8.631 -0.1324 -0.1690  0.0777
  222CHOL    R1 1996  10.952  15.788   8.363 -0.0458 -0.1342  0.1079
  222CHOL    R2 1997  10.950  15.585   8.175 -0.0173 -0.1026  0.0723
  222CHOL    R3 1998  10.797  15.760   8.034  0.0489 -0.0575  0.0565
  222CHOL    R4 1999  10.961  15.626   7.832  0.0770 -0.0582  0.0806
  222CHOL    R5 2000  10.942  15.841   7.862  0.1064 -0.0593  0.1043
  222CHOL    C1 2001  10.824  15.814   7.500  0.1939  0.0100  0.0704
  222CHOL    C2 2002  10.638  15.760   7.178  0.0758  0.0915  0.1318
  223PNCE   AM1 2003  13.247   5.236   8.504 -0.0750  0.6813 -0.0200
  223PNCE   AM2 2004  13.231   5.529   8.656  0.2396  0.1772 -0.2469
  223PNCE   T1A 2005  13.532   5.367   8.176 -0.3675 -0.1618  0.0885
  223PNCE   C2A 2006  13.665   5.430   7.850 -0.0743  0.2274  0.1136
  223PNCE   C3A 2007  13.920   5.814   7.869  0.1427 -0.0343  0.3673
  223PNCE   C1B 2008  13.331   5.794   8.353  0.1300 -0.1740  0.0477
  223PNCE   C2B 2009  13.404   6.001   7.928  0.2589 -0.2704  0.1056
  223PNCE   C3B 2010  13.576   6.136   7.504  0.2975  0.1475  0.0455
  223PNCE   D4B 2011  13.861   5.891   7.360 -0.1491 -0.2559 -0.0218
  223PNCE   C5B 2012  14.150   6.119   7.382 -0.1528 -0.0717 -0.1960
  223PNCE   C6B 2013  14.493   6.350   7.243 -0.0247  0.1322 -0.2292
  224XCA    COO 2014  12.843   6.995   6.345  0.0346  0.1290  0.3519
  224XCA     C1 2015  12.994   7.080   6.705 -0.1846 -0.1541  0.1246
  224XCA     C2 2016  13.308   6.980   7.051  0.0328 -0.1723  0.1637
  224XCA     C3 2017  13.565   6.669   7.213 -0.0821 -0.2412  0.1643
  224XCA     C4 2018  13.915   6.636   7.431  0.0861  0.3672 -0.0967
  224XCA     C5 2019  13.867   6.293   7.848 -0.0004 -0.1882  0.1201
  224XCA     C6 2020  13.788   6.083   8.299 -0.0684 -0.0931  0.1425
  225CHOL   ROH 2021   0.063  11.206   5.850 -0.2656 -0.0858 -0.1602
  225CHOL    R1 2022   0.049  11.110   6.116 -0.2160 -0.0410 -0.1400
  225CHOL    R2 2023  -0.109  10.895   6.189 -0.0852 -0.1301 -0.1003
  225CHOL    R3 2024   0.125  10.800   6.291 -0.0262  0.0412 -0.0756
  225CHOL    R4 2025  -0.084  10.648   6.429  0.0657  0.1135  0.1394
  225CHOL    R5 2026   0.077  10.761   6.522  0.0589  0.2545 -0.0219
  225CHOL    C1 2027   0.150  10.414   6.664  0.2089  0.4162  0.3022
  225CHOL    C2 2028   0.255  10.127   6.999 -0.2159  0.5845  0.0647
  226PNCE   AM1 2029   9.102   2.166   8.952 -0.1399 -0.0113 -0.0020
  226PNCE   AM2 2030   8.817   2.032   8.912 -0.3562 -0.4127 -0.2389
  226PNCE   T1A 2031   9.322   1.929   8.589  0.2617  0.3585 -0.2561
  226PNCE   C2A 2032   9.568   1.723   8.346 -0.0893  0.0676 -0.2243
  226PNCE   C3A 2033   9.552   1.580   7.887 -0.1996  0.3211 -0.1672
  226PNCE   C1B 2034   8.861   1.785   8.495 -0.0646 -0.2609 -0.1319
  226PNCE   C2B 2035   9.088   1.651   8.191  0.3868  0.0344  0.3325
  226PNCE   C3B 2036   8.966   1.686   7.762 -0.0774 -0.3933 -0.0478
  226PNCE   D4B 2037   8.971   1.584   7.302  0.3100  0.1476  0.1125
  226PNCE   C5B 2038   9.027   1.174   7.117  0.0540  0.0099  0.3002
  226PNCE   C6B 2039   9.431   0.974   7.031  0.2238 -0.2234 -0.0848
  227XCA    COO 2040   8.748  15.763   9.754  0.1503  0.0723  0.0202
  227XCA     C1 2041   8.695  15.803   9.322 -0.2116  0.1446 -0.0668
  227XCA     C2 2042   8.594  15.890   8.852 -0.1042  0.1156  0.1709
  227XCA     C3 2043   8.811  15.783   8.471 -0.0886 -0.1001 -0.1227
  227XCA     C4 2044   8.965  15.702   8.145  0.0272  0.1985  0.2898
  227XCA     C5 2045   8.704  15.319   8.022  0.2086  0.0072 -0.0252
  227XCA     C6 2046   8.491  14.975   7.818  0.2318  0.3256 -0.2415
  228PNCE   AM1 2047   2.635   4.958   8.732  0.1414 -0.0919 -0.1475
  228PNCE   AM2 2048   2.335   4.902   8.397  0.0163 -0.0506 -0.2246
  228PNCE   T1A 2049   2.757   4.668   8.456  0.3702 -0.2533  0.0415
  228PNCE   C2A 2050   2.505   4.329   8.206  0.0310  0.0021 -0.1155
  228PNCE   C3A 2051   2.196   4.326   7.865  0.0408 -0.2583 -0.2213
  228PNCE   C1B 2052   2.410   4.831   7.967 -0.2131 -0.1522  0.0845
  228PNCE   C2B 2053   2.212   4.712   7.564  0.0298 -0.0064  0.3374
  228PNCE   C3B 2054   2.312   4.634   7.151 -0.1184 -0.1639  0.0448
  228PNCE   D4B 2055   2.184   4.335   6.821  0.1061 -0.3240  0.0305
  228PNCE   C5B 2056   2.442   4.401   6.494  0.2469  0.2762  0.3323
  228PNCE   C6B 2057   2.626   4.119   6.341 -0.0410 -0.1759  0.3600
  229CHOL   ROH 2058  11.265  15.680   7.397  0.1686 -0.0442  0.0586
  229CHOL    R1 2059  11.057  15.498   7.334  0.1414 -0.0222  0.0876
  229CHOL    R2 2060  10.973  15.452   7.075  0.0864  0.0042  0.1036
  229CHOL    R3 2061  11.022  15.193   7.140  0.0751 -0.0063  0.0730
  229CHOL    R4 2062  10.936  15.185   6.859 -0.0942  0.0144  0.1189
  229CHOL    R5 2063  10.853  15.070   7.024 -0.0203  0.0282  0.1704
  229CHOL    C1 2064  10.962  14.786   6.794 -0.2100  0.0105  0.0991
  229CHOL    C2 2065  11.115  14.947   6.481 -0.0626  0.0380  0.0337
  230XCA    COO 2066   7.095   3.041   8.219 -0.2221  0.0080 -0.2708
  230XCA     C1 2067   7.468   3.075   7.914 -0.1279 -0.0011 -0.2837
  230XCA     C2 2068   7.628   2.986   7.500  0.0881 -0.0963 -0.1254
  230XCA     C3 2069   7.364   2.690   7.228 -0.1098  0.1752  0.0337
  230XCA     C4 2070   7.042   2.794   6.969 -0.1208 -0.1800  0.3860
  230XCA     C5 2071   7.012   3.158   6.812 -0.2146 -0.3269 -0.1986
  230XCA     C6 2072   7.234   3.546   6.908 -0.2010  0.1644 -0.0644
  231CHOL   ROH 2073   3.334  12.252   5.006  0.0606 -0.3302  0.0607
  231CHOL    R1 2074   3.366  12.299   5.283  0.0465 -0.1807  0.0383
  231CHOL    R2 2075   3.575  12.192   5.429  0.0640 -0.0707  0.1013
  231CHOL    R3 2076   3.618  12.451   5.498  0.0167 -0.0263 -0.0361
  231CHOL    R4 2077   3.715  12.296   5.727 -0.0455  0.1217  0.0862
  231CHOL    R5 2078   3.570  12.459   5.732 -0.0608  0.1101 -0.0578
  231CHOL    C1 2079   3.837  12.601   5.965 -0.1537  0.2755 -0.0516
  231CHOL    C2 2080   4.101  12.494   6.252  0.0494 -0.0072 -0.2641
  232PNCE   AM1 2081   1.304  14.182   7.628 -0.2369 -0.0742  0.2970
  232PNCE   AM2 2082   1.359  14.173   8.009  0.0122  0.1796  0.0185
  232PNCE   T1A 2083   1.071  14.252   7.350  0.0599 -0.0128  0.0027
  232PNCE   C2A 2084   1.186  14.372   7.001 -0.0090  0.0104  0.3789
  232PNCE   C3A 2085   1.226  14.604   6.590 -0.1112  0.2264  0.0995
  232PNCE   C1B 2086   1.786  14.255   8.128  0.1864  0.0500  0.0308
  232PNCE   C2B 2087   2.171  14.366   8.082  0.2628  0.0644  0.4159
  232PNCE   C3B 2088   2.363  14.496   7.632 -0.1039  0.3529  0.0340
  232PNCE   D4B 2089   2.683  14.700   7.488 -0.1437  0.1910 -0.1228
  232PNCE   C5B 2090   2.702  14.616   7.093  0.3179  0.1389  0.0086
  232PNCE   C6B 2091   2.896  14.304   6.846  0.2309  0.0937  0.1407
  233PNCE   AM1 2092  14.719  14.052   8.143 -0.4036 -0.0537  0.3841
  233PNCE   AM2 2093  14.516  13.890   8.088 -0.1447  0.0873 -0.2705
  233PNCE   T1A 2094  14.706  14.219   7.750  0.0533 -0.2277 -0.0284
  233PNCE   C2A 2095  14.565  14.044   7.303  0.3148  0.0034 -0.0692
  233PNCE   C3A 2096  14.746  13.878   6.909 -0.2508 -0.1886  0.0537
  233PNCE   C1B 2097  14.458  13.708   7.682 -0.4076 -0.0315 -0.0169
  233PNCE   C2B 2098  14.639  13.575   7.366 -0.0900 -0.0581 -0.2515
  233PNCE   C3B 2099  15.041  13.392   7.189 -0.0340  0.0063 -0.2488
  233PNCE   D4B 2100  15.263  13.202   6.805  0.3285 -0.0785 -0.2974
  233PNCE   C5B 2101  15.129  12.775   6.684 -0.2630 -0.0265  0.1155
  233PNCE   C6B 2102  14.690  12.811   6.422 -0.1751  0.0342  0.3113
  234CHOL   ROH 2103   6.890   2.220   4.803 -0.0913  0.0150 -0.0134
  234CHOL    R1 2104   6.968   2.303   5.062  0.2424 -0.0736 -0.0802
  234CHOL    R2 2105   7.185   2.468   5.106  0.1153  0.1699 -0.3361
  234CHOL    R3 2106   7.002   2.619   5.239  0.1378 -0.1525  0.0837
  234CHOL    R4 2107   7.252   2.773   5.253 -0.0200  0.1470 -0.2242
  234CHOL    R5 2108   7.126   2.714   5.421  0.3272 -0.1377 -0.0488
  234CHOL    C1 2109   7.119   3.093   5.463 -0.0776 -0.1690  0.2351
  234CHOL    C2 2110   7.269   3.113   5.815 -0.3205  0.1734 -0.1177
  235PNCE   AM1 2111   6.227   5.207   8.482 -0.0265  0.5741  0.3069
  235PNCE   AM2 2112   6.321   5.546   8.355  0.0927 -0.0049  0.0773
  235PNCE   T1A 2113   6.296   4.988   8.077 -0.1805 -0.2039 -0.1350
  235PNCE   C2A 2114   6.386   5.087   7.622 -0.2814  0.3511 -0.2343
  235PNCE   C3A 2115   6.820   5.198   7.349 -0.1255  0.1032  0.5059
  235PNCE   C1B 2116   6.427   5.842   8.052  0.0578 -0.0281 -0.0432
  235PNCE   C2B 2117   6.802   6.024   7.776 -0.2263 -0.0668  0.1591
  235PNCE   C3B 2118   7.049   6.106   7.357  0.0808  0.0607  0.2443
  235PNCE   D4B 2119   6.987   6.338   6.948 -0.1999  0.1040 -0.2418
  235PNCE   C5B 2120   7.110   6.752   6.889 -0.2152 -0.1782  0.2936
  235PNCE   C6B 2121   7.405   7.149   6.661  0.2285  0.2977  0.2235
  236XCA    COO 2122   0.422   8.116   8.498 -0.0638 -0.0618 -0.0401
  236XCA     C1 2123   0.497   8.072   8.134  0.1527  0.2928 -0.1976
  236XCA     C2 2124   0.493   8.161   7.702  0.0582 -0.2726 -0.3375
  236XCA     C3 2125   0.373   8.157   7.273 -0.0317  0.2517  0.3604
  236XCA     C4 2126  -0.020   7.947   7.073  0.3101  0.0777 -0.1581
  236XCA     C5 2127  -0.319   7.948   6.793 -0.1278 -0.0399 -0.0965
  236XCA     C6 2128  -0.752   7.782   6.976 -0.1304 -0.3311 -0.0574
  237CHOL   ROH 2129   6.298   4.295   6.504  0.1416  0.1867  0.2191
  237CHOL    R1 2130   6.348   4.043   6.384  0.0332  0.2258  0.0940
  237CHOL    R2 2131   6.595   3.920   6.393 -0.0364  0.1020  0.0674
  237CHOL    R3 2132   6.452   3.713   6.496 -0.1494  0.1080 -0.0687
  237CHOL    R4 2133   6.713   3.598   6.432 -0.0837  0.0935  0.1588
  237CHOL    R5 2134   6.519   3.523   6.367 -0.0390  0.1081 -0.0242
  237CHOL    C1 2135   6.648   3.216   6.551 -0.2173  0.0942  0.0841
  237CHOL    C2 2136   6.569   2.878   6.757 -0.1064  0.1029 -0.0138
  238CHOL   ROH 2137  13.897   7.622   7.223 -0.0056  0.2284  0.1091
  238CHOL    R1 2138  13.709   7.517   7.039  0.1163  0.1829  0.0067
  238CHOL    R2 2139  13.462   7.421   7.117  0.1791 -0.0889 -0.0969
  238CHOL    R3 2140  13.370   7.598   6.933  0.0635 -0.0407  0.0074
  238CHOL    R4 2141  13.155   7.400   6.961  0.0774 -0.0271  0.0943
  238CHOL    R5 2142  13.250   7.462   6.775 -0.0459  0.0128  0.0514
  238CHOL    C1 2143  12.889   7.555   6.697 -0.0904  0.0543  0.3035
  238CHOL    C2 2144  12.574   7.505   6.546 -0.3544  0.0190 -0.0945
  239CHOL   ROH 2145   2.911   0.728   4.235  0.1176 -0.1754 -0.2296
  239CHOL    R1 2146   2.992   0.493   4.370  0.0015 -0.1606 -0.1303
  239CHOL    R2 2147   2.898   0.425   4.621 -0.0598 -0.0302 -0.1125
  239CHOL    R3 2148   2.832   0.192   4.498 -0.1429 -0.0432 -0.0377
  239CHOL    R4 2149   2.855   0.122   4.781 -0.0168  0.0007 -0.0438
  239CHOL    R5 2150   2.956   0.025   4.615 -0.1093 -0.0364 -0.0715
  239CHOL    C1 2151   2.767  -0.273   4.759 -0.0697  0.0065  0.0664
  239CHOL    C2 2152   2.858  -0.625   4.930  0.0778  0.0472 -0.0008
  240XCA    COO 2153   8.072   1.453   4.835  0.3302  0.0902 -0.0136
  240XCA     C1 2154   7.769   1.577   5.156  0.2238 -0.3155 -0.0594
  240XCA     C2 2155   7.641   1.922   5.358 -0.1792 -0.1419  0.1500
  240XCA     C3 2156   7.837   2.141   5.576  0.0024 -0.2877 -0.0987
  240XCA     C4 2157   7.787   2.004   5.962  0.0181  0.1108  0.1137
  240XCA     C5 2158   7.672   1.890   6.349  0.1206  0.2823 -0.0940
  240XCA     C6 2159   7.724   1.660   6.634  0.1287  0.0008 -0.1107
  241PNCE   AM1 2160   0.058   9.249   8.993 -0.1281 -0.5975 -0.3095
  241PNCE   AM2 2161   0.197   9.443   8.793 -0.0551  0.0702  0.2518
  241PNCE   T1A 2162   0.069   8.985   8.543 -0.2213 -0.1563  0.0059
  241PNCE   C2A 2163   0.158   8.947   8.075  0.0878  0.2325  0.1159
  241PNCE   C3A 2164  -0.052   8.958   7.658 -0.1386  0.1235  0.0486
  241PNCE   C1B 2165   0.161   9.399   8.347 -0.0047  0.2502 -0.5051
  241PNCE   C2B 2166  -0.117   9.441   7.947 -0.2052 -0.1912 -0.1756
  241PNCE   C3B 2167  -0.086   9.610   7.584 -0.2820  0.3579 -0.1078
  241PNCE   D4B 2168  -0.135   9.985   7.277 -0.1264 -0.0709  0.0264
  241PNCE   C5B 2169  -0.220  10.225   6.860  0.0769  0.1445 -0.1321
  241PNCE   C6B 2170  -0.370  10.222   6.441 -0.2079 -0.2508  0.1023
  242CHOL   ROH 2171  13.741   9.200   5.526  0.0539 -0.1180  0.1784
  242CHOL    R1 2172  13.472   9.183   5.611  0.0322 -0.1184  0.1072
  242CHOL    R2 2173  13.372   8.966   5.750  0.0169 -0.0827  0.1430
  242CHOL    R3 2174  13.296   9.156   5.928 -0.0582 -0.0385  0.0660
  242CHOL    R4 2175  13.090   8.947   5.949  0.0432 -0.1399  0.1765
  242CHOL    R5 2176  13.057   9.160   5.912 -0.0659 -0.1670  0.0832
  242CHOL    C1 2177  12.854   9.115   6.232 -0.0122 -0.1317  0.1236
  242CHOL    C2 2178  12.721   8.982   6.559  0.3216 -0.1186  0.0488
  243XCA    COO 2179  12.552  14.863   5.208 -0.1835 -0.2820  0.1663
  243XCA     C1 2180  12.705  14.866   5.587  0.0983  0.2913  0.4519
  243XCA     C2 2181  13.032  14.708   5.830 -0.1009  0.0133 -0.1362
  243XCA     C3 2182  13.138  14.344   5.943 -0.1603  0.2786 -0.0865
  243XCA     C4 2183  13.373  13.990   5.975 -0.2122 -0.1622  0.1559
  243XCA     C5 2184  13.465  13.639   6.348 -0.0908  0.3776  0.0495
  243XCA     C6 2185  13.208  13.206   6.332 -0.2309 -0.1177 -0.2340
  244PNCE   AM1 2186  10.650   4.404   4.544  0.0022 -0.0213 -0.0285
  244PNCE   AM2 2187  10.945   4.364   4.411  0.0315 -0.0495  0.0041
  244PNCE   T1A 2188  10.710   4.566   4.944  0.0285 -0.2954 -0.4914
  244PNCE   C2A 2189  10.695   4.622   5.355  0.1237  0.1539  0.0155
  244PNCE   C3A 2190  10.851   4.451   5.657  0.0158 -0.2307 -0.3452
  244PNCE   C1B 2191  11.122   4.292   4.856 -0.0759 -0.2120 -0.1538
  244PNCE   C2B 2192  11.144   4.362   5.276  0.0625 -0.2747 -0.3952
  244PNCE   C3B 2193  11.325   4.557   5.598 -0.0346  0.0113  0.0522
  244PNCE   D4B 2194  11.456   4.382   6.023 -0.0413 -0.2324  0.0599
  244PNCE   C5B 2195  11.365   4.630   6.271 -0.1590 -0.1909  0.0131
  244PNCE   C6B 2196  11.091   4.951   6.481  0.1883 -0.0163  0.2610
  245PNCE   AM1 2197  14.297   4.841   8.715  0.2244  0.1804  0.2291
  245PNCE   AM2 2198  14.022   4.940   8.826  0.0248  0.2618  0.0901
  245PNCE   T1A 2199  14.693   4.858   8.672 -0.0855  0.0236 -0.0349
  245PNCE   C2A 2200  15.141   4.921   8.575 -0.0680  0.1613  0.1100
  245PNCE   C3A 2201  15.499   5.141   8.654 -0.2013 -0.1506 -0.3067
  245PNCE   C1B 2202  13.949   4.901   8.293 -0.0007  0.1566 -0.1082
  245PNCE   C2B 2203  13.970   4.985   7.865  0.1865  0.0756 -0.0590
  245PNCE   C3B 2204  14.196   4.971   7.588 -0.3367 -0.0008 -0.2416
  245PNCE   D4B 2205  14.187   5.130   7.255 -0.0398  0.2255  0.4373
  245PNCE   C5B 2206  13.806   4.970   6.987 -0.0399 -0.2006 -0.0794
  245PNCE   C6B 2207  13.508   4.855   6.640 -0.2489  0.1081 -0.1088
  246CHOL   ROH 2208   6.387   0.247   8.292 -0.0296  0.1827 -0.0064
  246CHOL    R1 2209   6.349   0.015   8.135  0.0143  0.0336  0.2010
  246CHOL    R2 2210   6.132  -0.018   7.968  0.0712 -0.1161  0.1628
  246CHOL    R3 2211   6.323  -0.064   7.781  0.1273 -0.3069  0.2632
  246CHOL    R4 2212   6.070  -0.126   7.646  0.1158  0.0227  0.1060
  246CHOL    R5 2213   6.244  -0.256   7.662 -0.0423 -0.1942  0.1817
  246CHOL    C1 2214   6.214  -0.232   7.282  0.1944 -0.0754  0.1673
  246CHOL    C2 2215   6.103  -0.429   6.980  0.2586 -0.0668  0.1641
  247XCA    COO 2216   5.909   8.516   8.437  0.0739 -0.1707 -0.0011
  247XCA     C1 2217   5.918   8.369   8.097  0.1584 -0.0072 -0.2931
  247XCA     C2 2218   5.595   8.157   7.695  0.0288 -0.2871 -0.2628
  247XCA     C3 2219   5.235   8.048   7.473 -0.0532 -0.0894 -0.0059
  247XCA     C4 2220   4.909   7.746   7.364 -0.3090  0.3566  0.2009
  247XCA     C5 2221   4.799   7.286   7.373 -0.0630  0.3398  0.0438
  247XCA     C6 2222   4.835   6.808   7.155  0.0705 -0.1416 -0.2908
  248CHOL   ROH 2223   9.634   5.447   4.941 -0.0847 -0.1162  0.1368
  248CHOL    R1 2224   9.574   5.409   5.215 -0.0051 -0.0295  0.1663
  248CHOL    R2 2225   9.740   5.269   5.386  0.0815  0.0921  0.1793
  248CHOL    R3 2226   9.727   5.497   5.534  0.0435  0.1443  0.0973
  248CHOL    R4 2227   9.877   5.308   5.701  0.1259  0.2423  0.1426
  248CHOL    R5 2228   9.699   5.420   5.759  0.1024  0.2159  0.1318
  248CHOL    C1 2229   9.943   5.545   6.023  0.1161  0.3786  0.0442
  248CHOL    C2 2230   9.744   5.623   6.419  0.1063  0.0968 -0.2466
  249XCA    COO 2231   6.075   5.775   4.815  0.2674  0.1671 -0.1722
  249XCA     C1 2232   6.076   5.569   5.229  0.0197 -0.1588 -0.0133
  249XCA     C2 2233   5.937   5.399   5.492 -0.0358 -0.0989  0.1237
  249XCA     C3 2234   5.920   4.996   5.752  0.1281 -0.2258 -0.1771
  249XCA     C4 2235   5.958   4.729   6.008  0.1477  0.1142  0.1294
  249XCA     C5 2236   5.932   4.588   6.431  0.1944 -0.0204  0.0563
  249XCA     C6 2237   5.847   4.524   6.853 -0.1275  0.3137 -0.0904
  250CHOL   ROH 2238   5.930   3.094   4.417  0.1500 -0.0456  0.0480
  250CHOL    R1 2239   5.902   2.901   4.622  0.0798  0.0747  0.1531
  250CHOL    R2 2240   6.042   2.663   4.623 -0.1162 -0.0446  0.2031
  250CHOL    R3 2241   6.118   2.746   4.871  0.0629  0.0143  0.1298
  250CHOL    R4 2242   6.040   2.466   4.907 -0.1511  0.0949  0.3008
  250CHOL    R5 2243   5.965   2.637   5.020  0.0394  0.2112  0.2528
  250CHOL    C1 2244   6.110   2.429   5.304 -0.0034  0.2314  0.2890
  250CHOL    C2 2245   6.240   2.203   5.623 -0.0799 -0.1966 -0.1947
  251XCA    COO 2246  15.137  12.531   3.852  0.2461 -0.0707  0.0207
  251XCA     C1 2247  15.091  12.825   4.197  0.0544  0.1240 -0.2129
  251XCA     C2 2248  15.091  13.046   4.593 -0.2385  0.1761 -0.2046
  251XCA     C3 2249  14.984  12.754   4.976 -0.1052  0.5158  0.1895
  251XCA     C4 2250  15.129  13.009   5.259  0.2901  0.1858 -0.0098
  251XCA     C5 2251  15.375  13.074   5.557 -0.2219 -0.0777 -0.1684
  251XCA     C6 2252  15.552  13.193   5.944 -0.0879  0.2425  0.1431
  252XCA    COO 2253   1.238  14.693   3.904  0.0022  0.3571 -0.0190
  252XCA     C1 2254   1.095  14.784   4.318 -0.0111 -0.1643  0.0077
  252XCA     C2 2255   1.025  14.945   4.709 -0.0176  0.0175  0.0441
  252XCA     C3 2256   0.952  15.075   5.098  0.3261 -0.0716  0.1709
  252XCA     C4 2257   0.996  15.135   5.416  0.1596 -0.0587 -0.3003
  252XCA     C5 2258   1.266  15.497   5.753 -0.1729 -0.0223  0.0354
  252XCA     C6 2259   1.473  15.434   6.130 -0.2326  0.0894 -0.3183
  253PNCE   AM1 2260   4.298  11.673   8.644 -0.1696 -0.0141 -0.0090
  253PNCE   AM2 2261   4.189  11.506   8.877  0.1387  0.1112  0.3745
  253PNCE   T1A 2262   4.417  11.984   8.358 -0.0011  0.1039 -0.1049
  253PNCE   C2A 2263   4.639  12.115   7.972  0.2674  0.1124  0.0814
  253PNCE   C3A 2264   5.067  12.192   7.864 -0.3944 -0.0629  0.0234
  253PNCE   C1B 2265   3.925  11.172   8.615 -0.0296  0.1553 -0.1366
  253PNCE   C2B 2266   3.642  10.904   8.368 -0.5079 -0.2510 -0.0275
  253PNCE   C3B 2267   3.425  10.807   7.999  0.1017  0.1824 -0.0476
  253PNCE   D4B 2268   3.162  10.349   7.954 -0.0975  0.1609 -0.0778
  253PNCE   C5B 2269   2.743  10.403   7.854 -0.0524 -0.1312 -0.0588
  253PNCE   C6B 2270   2.470  10.602   7.627  0.1728 -0.3310 -0.1874
  254XCA    COO 2271   1.682   8.549   4.570  0.0476 -0.0446  0.1765
  254XCA     C1 2272   1.840   8.674   4.987  0.2400 -0.1544  0.1963
  254XCA     C2 2273   2.012   8.840   5.418  0.2917 -0.1493 -0.0016
  254XCA     C3 2274   2.318   8.730   5.746 -0.0390  0.0925  0.0020
  254XCA     C4 2275   2.530   8.879   6.018 -0.4755  0.3517 -0.0259
  254XCA     C5 2276   2.822   9.017   5.720  0.2621 -0.2263 -0.2437
  254XCA     C6 2277   3.103   9.289   5.616 -0.0252  0.0117 -0.0339
  255CHOL   ROH 2278   8.410  12.900   7.946 -0.1257  0.0571 -0.1309
  255CHOL    R1 2279   8.295  12.862   7.690 -0.1509  0.0750 -0.1226
  255CHOL    R2 2280   8.205  13.073   7.535 -0.0262  0.1003 -0.1656
  255CHOL    R3 2281   8.370  12.964   7.349 -0.0912 -0.0381 -0.1430
  255CHOL    R4 2282   8.260  13.203   7.220  0.1570  0.0740 -0.1448
  255CHOL    R5 2283   8.257  13.000   7.141 -0.0168  0.0836 -0.1613
  255CHOL    C1 2284   8.448  13.176   6.861  0.2027 -0.0713 -0.1115
  255CHOL    C2 2285   8.509  13.415   6.692  0.3656  0.0312  0.0263
  256PNCE   AM1 2286   0.568  10.405   8.486  0.5130 -0.1069  0.0326
  256PNCE   AM2 2287   0.509  10.015   8.501 -0.5762  0.1418  0.1968
  256PNCE   T1A 2288   0.667  10.628   8.270  0.2134 -0.2879  0.1164
  256PNCE   C2A 2289   0.560  10.856   7.920 -0.0277 -0.2108  0.1887
  256PNCE   C3A 2290   0.330  10.845   7.509  0.1760  0.1833 -0.2779
  256PNCE   C1B 2291   0.554  10.228   8.048 -0.1298 -0.2173 -0.1092
  256PNCE   C2B 2292   0.343  10.362   7.723  0.2689  0.0960 -0.0179
  256PNCE   C3B 2293   0.069  10.433   7.437  0.1219  0.1680  0.1265
  256PNCE   D4B 2294  -0.108  10.694   7.043  0.2177  0.1151 -0.0752
  256PNCE   C5B 2295  -0.485  10.716   6.714 -0.0401 -0.1709 -0.0061
  256PNCE   C6B 2296  -0.829  10.503   6.619  0.1375  0.0583  0.0832
  257PNCE   AM1 2297   9.029  14.601   8.590  0.0793 -0.0452  0.2457
  257PNCE   AM2 2298   9.114  14.441   8.379 -0.1136  0.3130 -0.2732
  257PNCE   T1A 2299   8.712  14.819   8.304 -0.2009 -0.1026 -0.1633
  257PNCE   C2A 2300   8.219  14.924   8.262 -0.2364  0.1147  0.2374
  257PNCE   C3A 2301   7.896  15.162   8.239  0.0645  0.0705 -0.3076
  257PNCE   C1B 2302   9.347  14.622   8.089  0.4756 -0.1105 -0.5500
  257PNCE   C2B 2303   9.376  14.623   7.681  0.1818  0.0948 -0.0840
  257PNCE   C3B 2304   9.532  14.647   7.305  0.0454  0.2633 -0.1352
  257PNCE   D4B 2305   9.400  14.596   6.918 -0.1339  0.1833 -0.1472
  257PNCE   C5B 2306   9.619  14.367   6.625  0.0694  0.0647  0.2023
  257PNCE   C6B 2307  10.013  14.086   6.604  0.1020  0.2958  0.0601
  258PNCE   AM1 2308   1.708   2.418   7.782 -0.0021  0.2565 -0.1442
  258PNCE   AM2 2309   1.409   2.411   7.928 -0.0379 -0.1282 -0.0688
  258PNCE   T1A 2310   1.820   2.871   7.803 -0.2406  0.2704  0.2058
  258PNCE   C2A 2311   2.033   3.139   7.509 -0.2889  0.1905  0.1554
  258PNCE   C3A 2312   2.240   3.192   7.092 -0.0322  0.1459 -0.0063
  258PNCE   C1B 2313   1.316   2.761   7.766  0.0778 -0.0327 -0.1234
  258PNCE   C2B 2314   1.331   3.109   7.435  0.1503  0.3876 -0.2380
  258PNCE   C3B 2315   1.675   3.156   7.054 -0.0564 -0.1343 -0.0479
  258PNCE   D4B 2316   1.834   2.902   6.834  0.0630  0.1378  0.3731
  258PNCE   C5B 2317   1.865   2.979   6.301 -0.2422 -0.2113 -0.0433
  258PNCE   C6B 2318   1.538   3.236   6.079 -0.3595 -0.0600 -0.0166
  259CHOL   ROH 2319   9.768   6.471   8.846  0.1444  0.1195  0.1310
  259CHOL    R1 2320   9.624   6.404   8.611 -0.0708 -0.0152  0.2975
  259CHOL    R2 2321   9.363   6.483   8.569 -0.0153  0.2187  0.3606
  259CHOL    R3 2322   9.464   6.583   8.338 -0.0368 -0.1733  0.1735
  259CHOL    R4 2323   9.176   6.638   8.323  0.0277  0.2068  0.3209
  259CHOL    R5 2324   9.297   6.534   8.174 -0.2197 -0.1250  0.3453
  259CHOL    C1 2325   9.163   6.822   7.962  0.0325 -0.1681  0.1223
  259CHOL    C2 2326   8.983   7.049   7.729 -0.0255 -0.1015  0.0442
  260XCA    COO 2327  13.515  10.219   4.868 -0.2415  0.1854 -0.1500
  260XCA     C1 2328  13.304  10.248   5.343  0.0888 -0.0491 -0.1868
  260XCA     C2 2329  13.469   9.923   5.661  0.2169  0.2523  0.1001
  260XCA     C3 2330  13.514   9.565   5.921  0.0749 -0.0339  0.0443
  260XCA     C4 2331  13.252   9.482   6.262 -0.0771 -0.0587 -0.1179
  260XCA     C5 2332  13.025   9.351   6.602  0.2902 -0.1997  0.1054
  260XCA     C6 2333  13.105   9.042   6.922 -0.0030  0.1242 -0.1723
  261PNCE   AM1 2334   1.456   3.578   8.252 -0.2121 -0.1740  0.2495
  261PNCE   AM2 2335   1.122   3.439   8.208 -0.0757 -0.0455  0.1768
  261PNCE   T1A 2336   1.855   3.472   8.313 -0.1583 -0.0863  0.0361
  261PNCE   C2A 2337   2.265   3.506   8.429  0.2327  0.0255 -0.1282
  261PNCE   C3A 2338   2.510   3.140   8.472  0.0374  0.0847 -0.1426
  261PNCE   C1B 2339   1.136   3.610   7.751  0.0857 -0.0338  0.0295
  261PNCE   C2B 2340   1.447   3.727   7.384  0.3579  0.0503  0.0048
  261PNCE   C3B 2341   1.477   3.992   6.923 -0.0042 -0.0463  0.0481
  261PNCE   D4B 2342   1.707   4.001   6.484 -0.1105 -0.1228  0.1708
  261PNCE   C5B 2343   1.843   3.607   6.289  0.0234 -0.0579 -0.1860
  261PNCE   C6B 2344   1.994   3.373   5.966 -0.3229  0.3890  0.0419
  262CHOL   ROH 2345   8.514   1.362   8.742  0.3490  0.1643  0.0383
  262CHOL    R1 2346   8.705   1.350   8.533  0.1269  0.1015 -0.1652
  262CHOL    R2 2347   8.704   1.151   8.342 -0.1482  0.1108 -0.1729
  262CHOL    R3 2348   8.700   1.361   8.169 -0.2499  0.1169 -0.1647
  262CHOL    R4 2349   8.744   1.126   8.000  0.3007  0.1743 -0.1312
  262CHOL    R5 2350   8.866   1.306   8.006  0.0355  0.3609  0.0283
  262CHOL    C1 2351   8.764   1.308   7.638  0.4668  0.2170 -0.0994
  262CHOL    C2 2352   8.485   1.209   7.340  0.2411 -0.0418  0.0992
  263PNCE   AM1 2353   3.365   2.092   4.071 -0.2096 -0.0348 -0.0791
  263PNCE   AM2 2354   3.610   1.978   3.940 -0.0407  0.1354  0.0552
  263PNCE   T1A 2355   3.382   2.350   4.453 -0.2909  0.2216  0.1591
  263PNCE   C2A 2356   3.611   2.225   4.829 -0.1831  0.0405 -0.5980
  263PNCE   C3A 2357   3.794   2.151   5.297  0.0868 -0.1409  0.3151
  263PNCE   C1B 2358   4.038   1.884   4.086 -0.1422  0.2156  0.0410
  263PNCE   C2B 2359   4.337   2.034   4.358  0.1493  0.0462 -0.1630
  263PNCE   C3B 2360   4.565   1.943   4.831 -0.2218 -0.4151  0.3556
  263PNCE   D4B 2361   4.926   1.842   5.051  0.2028 -0.2474 -0.0168
  263PNCE   C5B 2362   4.775   1.759   5.496  0.2999  0.1797 -0.0879
  263PNCE   C6B 2363   4.592   1.895   5.877  0.0697  0.3183  0.1297
  264CHOL   ROH 2364  11.020   0.597   7.164  0.0919  0.0404  0.0206
  264CHOL    R1 2365  10.775   0.524   7.043  0.0706  0.1629 -0.0113
  264CHOL    R2 2366  10.646   0.286   7.099  0.0821  0.1038 -0.2299
  264CHOL    R3 2367  10.436   0.450   7.154  0.0897  0.0482 -0.0256
  264CHOL    R4 2368  10.334   0.179   7.202  0.0718 -0.0183 -0.3858
  264CHOL    R5 2369  10.245   0.331   7.072  0.0874  0.1614 -0.1955
  264CHOL    C1 2370   9.955   0.271   7.312  0.0730 -0.1416 -0.2847
  264CHOL    C2 2371   9.916   0.190   7.692 -0.0228  0.1519  0.1174
  265XCA    COO 2372   3.133   0.606   7.765 -0.0579  0.1715  0.0879
  265XCA     C1 2373   3.237   0.227   7.517  0.1790 -0.0721  0.2705
  265XCA     C2 2374   3.275   0.233   7.056 -0.0582  0.0955 -0.0302
  265XCA     C3 2375   3.105   0.168   6.641 -0.0369  0.3849  0.0412
  265XCA     C4 2376   3.088   0.141   6.267  0.2504  0.1892  0.3151
  265XCA     C5 2377   3.237  -0.195   6.088 -0.1604 -0.0690  0.2761
  265XCA     C6 2378   3.190  -0.501   5.818 -0.0445  0.1043  0.0440
  266PNCE   AM1 2379  15.426   0.845   7.273  0.2003  0.0212  0.0998
  266PNCE   AM2 2380  15.454   0.540   7.166  0.3136  0.2550 -0.1174
  266PNCE   T1A 2381  15.430   1.170   6.928  0.1368  0.1050 -0.0746
  266PNCE   C2A 2382  15.212   1.469   6.636 -0.0490  0.0716  0.0076
  266PNCE   C3A 2383  15.199   1.141   6.254 -0.1330 -0.0271  0.1478
  266PNCE   C1B 2384  15.247   0.397   6.827  0.4362  0.0370  0.0910
  266PNCE   C2B 2385  15.108   0.265   6.408  0.0392 -0.1617  0.1448
  266PNCE   C3B 2386  15.141   0.643   6.191 -0.1489  0.3910  0.1113
  266PNCE   D4B 2387  15.056   0.909   5.824  0.2423 -0.1370 -0.1878
  266PNCE   C5B 2388  14.990   0.768   5.481  0.2207 -0.0145  0.2240
  266PNCE   C6B 2389  14.870   0.545   5.063  0.1481  0.0571 -0.1851
  267PNCE   AM1 2390   9.596  14.018   8.819  0.0454 -0.2962 -0.0495
  267PNCE   AM2 2391   9.357  14.279   8.881 -0.0888 -0.0685 -0.3100
  267PNCE   T1A 2392   9.574  14.174   8.395 -0.2434  0.2502  0.2675
  267PNCE   C2A 2393   9.782  14.231   7.978 -0.1588  0.1188  0.0400
  267PNCE   C3A 2394   9.849  14.488   7.673 -0.0948  0.1102  0.0466
  267PNCE   C1B 2395   9.552  14.667   8.614 -0.2480 -0.1062 -0.0918
  267PNCE   C2B 2396   9.648  15.132   8.378  0.0057 -0.1535 -0.2459
  267PNCE   C3B 2397   9.916  15.294   8.019 -0.2064 -0.1411 -0.3342
  267PNCE   D4B 2398  10.178  15.446   7.626 -0.0831  0.0024  0.0386
  267PNCE   C5B 2399  10.133  15.704   7.397  0.0276 -0.3340  0.0627
  267PNCE   C6B 2400   9.981  15.777   7.021  0.1551  0.0870  0.0350
  268CHOL   ROH 2401  14.377  13.107   4.504  0.0087  0.1065 -0.1512
  268CHOL    R1 2402  14.319  13.357   4.623  0.0668  0.1338 -0.1786
  268CHOL    R2 2403  14.250  13.383   4.890 -0.0767  0.1613 -0.2155
  268CHOL    R3 2404  14.456  13.560   4.892  0.0149  0.0547 -0.0925
  268CHOL    R4 2405  14.349  13.567   5.165 -0.0965  0.0571 -0.1385
  268CHOL    R5 2406  14.380  13.738   5.033  0.0484  0.0663 -0.0914
  268CHOL    C1 2407  14.600  13.841   5.327 -0.0220 -0.1038  0.0218
  268CHOL    C2 2408  14.900  13.913   5.585 -0.0730  0.0447 -0.2567
  269XCA    COO 2409   9.958  14.502   5.295 -0.0234 -0.1765 -0.0627
  269XCA     C1 2410   9.924  14.745   5.763  0.1927  0.1916 -0.0138
  269XCA     C2 2411  10.126  14.915   6.124  0.1203 -0.1063 -0.3227
  269XCA     C3 2412  10.089  15.017   6.658 -0.1057  0.0335 -0.0696
  269XCA     C4 2413   9.820  15.240   6.932 -0.0110  0.0118  0.1044
  269XCA     C5 2414   9.833  15.355   7.269  0.0113 -0.3431  0.0274
  269XCA     C6 2415   9.697  15.689   7.622 -0.3120  0.1974 -0.2367
  270CHOL   ROH 2416  12.649   3.883   7.805 -0.1012  0.3543  0.0039
  270CHOL    R1 2417  12.870   3.725   7.726 -0.2474  0.1883 -0.0834
  270CHOL    R2 2418  12.915   3.653   7.463 -0.2885  0.3309 -0.1334
  270CHOL    R3 2419  13.159   3.764   7.508 -0.1826  0.0594 -0.0209
  270CHOL    R4 2420  13.191   3.616   7.258 -0.2889  0.1855 -0.1073
  270CHOL    R5 2421  13.315   3.598   7.436 -0.3360 -0.0509 -0.0980
  270CHOL    C1 2422  13.581   3.699   7.182 -0.1897 -0.1541  0.0135
  270CHOL    C2 2423  13.909   3.507   7.244 -0.0702  0.2460 -0.0067
  271XCA    COO 2424   9.610   4.153   8.725 -0.1067 -0.5008 -0.1968
  271XCA     C1 2425   9.610   3.931   8.351 -0.0712 -0.0308  0.0009
  271XCA     C2 2426   9.534   3.929   7.893 -0.6732 -0.0954  0.0626
  271XCA     C3 2427   9.312   3.879   7.609  0.1006  0.2090  0.1282
  271XCA     C4 2428   9.255   3.719   7.250 -0.0272 -0.0393  0.0482
  271XCA     C5 2429   9.092   3.563   6.798  0.4201 -0.1567 -0.0312
  271XCA     C6 2430   8.866   3.848   6.454 -0.2068  0.0375  0.2700
  272PNCE   AM1 2431   5.416   0.337   8.421  0.0938  0.0854  0.1453
  272PNCE   AM2 2432   5.624   0.053   8.316 -0.0641  0.1108 -0.2257
  272PNCE   T1A 2433   5.424   0.439   8.014  0.1024  0.0692  0.0207
  272PNCE   C2A 2434   5.306   0.484   7.420 -0.1104  0.1187  0.2446
  272PNCE   C3A 2435   5.226   0.682   6.994  0.0076  0.0140  0.2533
  272PNCE   C1B 2436   5.956  -0.345   8.273 -0.3410 -0.0108  0.1383
  272PNCE   C2B 2437   6.353  -0.420   8.103 -0.0977  0.4212  0.0019
  272PNCE   C3B 2438   6.641  -0.391   8.059  0.0268  0.2204 -0.0534
  272PNCE   D4B 2439   7.073  -0.370   7.907 -0.1563 -0.0187  0.0674
  272PNCE   C5B 2440   7.051  -0.284   7.509  0.1185  0.0195  0.0838
  272PNCE   C6B 2441   6.964  -0.349   7.066 -0.0223 -0.0502 -0.1722
  273CHOL   ROH 2442   2.013   6.959   8.181  0.0242 -0.0220 -0.1837
  273CHOL    R1 2443   2.119   7.125   7.977 -0.0335  0.0454 -0.1593
  273CHOL    R2 2444   2.250   7.024   7.756 -0.0218  0.1228 -0.1877
  273CHOL    R3 2445   2.066   7.171   7.620 -0.0699  0.1007 -0.1471
  273CHOL    R4 2446   2.313   7.198   7.464 -0.0551  0.2871 -0.0981
  273CHOL    R5 2447   2.189   7.360   7.540 -0.1433  0.1959 -0.0407
  273CHOL    C1 2448   2.177   7.438   7.167 -0.1195  0.3620 -0.0077
  273CHOL    C2 2449   1.990   7.722   6.835  0.1257  0.3214  0.0479
  274CHOL   ROH 2450   4.588   0.041   8.072 -0.2020  0.1297 -0.0137
  274CHOL    R1 2451   4.622   0.146   7.811 -0.1325  0.2148  0.0309
  274CHOL    R2 2452   4.518   0.023   7.586  0.0107  0.2399 -0.0399
  274CHOL    R3 2453   4.407   0.268   7.544 -0.0641  0.2099 -0.0304
  274CHOL    R4 2454   4.306   0.101   7.325  0.1388  0.2193 -0.1534
  274CHOL    R5 2455   4.407   0.293   7.306  0.0776  0.2761 -0.0313
  274CHOL    C1 2456   4.077   0.376   7.134  0.1432  0.1791 -0.2106
  274CHOL    C2 2457   4.046   0.411   6.709 -0.0136 -0.0400 -0.0301
  275CHOL   ROH 2458   9.331   2.342   6.257  0.0235  0.1590 -0.2846
  275CHOL    R1 2459   9.144   2.302   6.466  0.0369 -0.0445 -0.3119
  275CHOL    R2 2460   9.005   2.509   6.583  0.0290 -0.1647 -0.1215
  275CHOL    R3 2461   8.788   2.359   6.517  0.0319 -0.1221 -0.2389
  275CHOL    R4 2462   8.677   2.612   6.616  0.0230 -0.2737  0.2036
  275CHOL    R5 2463   8.627   2.411   6.686  0.1050 -0.4033 -0.0651
  275CHOL    C1 2464   8.282   2.531   6.573  0.0223 -0.2971  0.2828
  275CHOL    C2 2465   7.903   2.901   6.603  0.1934  0.1396  0.3560
  276PNCE   AM1 2466   1.378  12.438   8.332 -0.0192  0.0044 -0.3705
  276PNCE   AM2 2467   1.270  12.649   8.177  0.2665  0.2562 -0.3592
  276PNCE   T1A 2468   1.325  12.273   7.830 -0.0672  0.0192 -0.2682
  276PNCE   C2A 2469   1.398  12.024   7.472 -0.1032  0.2715 -0.0839
  276PNCE   C3A 2470   1.222  11.802   7.234 -0.1287  0.0987 -0.2434
  276PNCE   C1B 2471   1.365  12.747   7.875 -0.1199  0.0816  0.1925
  276PNCE   C2B 2472   1.192  12.573   7.479  0.0955 -0.0334  0.1182
  276PNCE   C3B 2473   1.116  12.333   7.189 -0.1140 -0.1237 -0.1671
  276PNCE   D4B 2474   0.785  12.028   6.976  0.0071  0.0579 -0.3268
  276PNCE   C5B 2475   1.089  11.843   6.695 -0.1258 -0.0484 -0.1071
  276PNCE   C6B 2476   1.033  11.531   6.510  0.2084 -0.4159 -0.2357
  277PNCE   AM1 2477  10.984   3.259   4.383  0.0921 -0.0716 -0.0482
  277PNCE   AM2 2478  11.130   3.432   4.656  0.1422  0.0759  0.0904
  277PNCE   T1A 2479  11.050   2.865   4.569  0.3088 -0.2817  0.1469
  277PNCE   C2A 2480  11.039   2.632   4.935 -0.1029 -0.0258 -0.0657
  277PNCE   C3A 2481  11.222   2.717   5.306 -0.2145  0.0538 -0.0954
  277PNCE   C1B 2482  11.510   3.457   4.902 -0.1960  0.0272 -0.0916
  277PNCE   C2B 2483  11.804   3.340   5.236 -0.0674 -0.3906  0.0256
  277PNCE   C3B 2484  12.134   3.087   5.512 -0.1055 -0.0139  0.2144
  277PNCE   D4B 2485  12.485   2.933   5.610 -0.1105  0.0268  0.0687
  277PNCE   C5B 2486  12.681   3.259   5.654 -0.1946 -0.0987 -0.2068
  277PNCE   C6B 2487  12.817   3.582   6.091 -0.0527 -0.0841  0.2776
  278PNCE   AM1 2488   8.032  12.172   8.273  0.1905 -0.0194  0.2352
  278PNCE   AM2 2489   7.891  11.954   8.518 -0.1687 -0.1639  0.1053
  278PNCE   T1A 2490   7.710  12.075   7.959  0.3001  0.4793 -0.1103
  278PNCE   C2A 2491   7.634  11.970   7.590  0.0346  0.0944  0.1049
  278PNCE   C3A 2492   7.477  11.831   7.214  0.0673 -0.3509  0.3348
  278PNCE   C1B 2493   7.719  11.658   8.247  0.1030 -0.3140 -0.2033
  278PNCE   C2B 2494   7.465  11.550   7.864 -0.0584  0.1193 -0.4056
  278PNCE   C3B 2495   7.305  11.387   7.420  0.0146  0.0028  0.1483
  278PNCE   D4B 2496   7.404  11.354   6.992 -0.0051  0.1659 -0.2403
  278PNCE   C5B 2497   7.353  11.012   6.714 -0.0125  0.0750  0.4318
  278PNCE   C6B 2498   7.333  10.612   6.858  0.2629  0.0213 -0.1522
  279CHOL   ROH 2499   6.481   5.074   7.104  0.0113 -0.2443  0.0227
  279CHOL    R1 2500   6.481   5.059   6.822 -0.0401 -0.1810  0.0195
  279CHOL    R2 2501   6.249   5.028   6.674 -0.0656 -0.1473  0.0558
  279CHOL    R3 2502   6.339   5.251   6.547 -0.0893 -0.1194  0.0867
  279CHOL    R4 2503   6.155   5.125   6.356 -0.1611 -0.0578  0.1103
  279CHOL    R5 2504   6.362   5.183   6.318 -0.1668 -0.0626  0.0602
  279CHOL    C1 2505   6.185   5.390   6.051 -0.2390  0.0204  0.1710
  279CHOL    C2 2506   6.219   5.630   5.777  0.1447 -0.1164 -0.1493
  280PNCE   AM1 2507  13.231   4.990   9.016 -0.0461  0.0428  0.2608
  280PNCE   AM2 2508  12.926   5.049   8.866 -0.0438 -0.0408  0.0252
  280PNCE   T1A 2509  13.305   4.746   8.656 -0.0413 -0.0633 -0.1899
  280PNCE   C2A 2510  13.462   4.805   8.326 -0.2740  0.0381 -0.2088
  280PNCE   C3A 2511  13.450   4.919   7.939 -0.2258 -0.1339 -0.2574
  280PNCE   C1B 2512  12.775   4.919   8.478  0.2152 -0.0456 -0.2119
  280PNCE   C2B 2513  12.971   4.994   8.045  0.0467  0.2071  0.4106
  280PNCE   C3B 2514  13.010   5.118   7.558  0.2857  0.3487  0.1056
  280PNCE   D4B 2515  13.261   5.005   7.171 -0.0783  0.1595  0.0881
  280PNCE   C5B 2516  13.343   4.632   7.064  0.1064  0.1908  0.1033
  280PNCE   C6B 2517  13.312   4.237   7.032  0.1792  0.0982  0.1081
  281XCA    COO 2518   2.139  10.655   7.980  0.1078 -0.0650  0.3283
  281XCA     C1 2519   1.891  10.442   7.617  0.0924 -0.0666  0.3169
  281XCA     C2 2520   1.780   9.984   7.516  0.2579  0.1066  0.1377
  281XCA     C3 2521   2.109   9.639   7.364  0.2195  0.0393 -0.1178
  281XCA     C4 2522   2.439   9.576   7.451 -0.0457 -0.1726  0.2641
  281XCA     C5 2523   2.802   9.729   7.517 -0.0360 -0.0171  0.0368
  281XCA     C6 2524   2.950  10.044   7.466  0.0726  0.1291  0.1048
  282CHOL   ROH 2525  14.449  11.380   8.247  0.0454 -0.0288  0.0630
  282CHOL    R1 2526  14.572  11.347   7.994  0.0580 -0.0233  0.0679
  282CHOL    R2 2527  14.759  11.150   7.944  0.1136  0.0179  0.0910
  282CHOL    R3 2528  14.590  11.087   7.741  0.1287 -0.0468  0.0989
  282CHOL    R4 2529  14.832  10.928   7.689  0.1056 -0.0923  0.1840
  282CHOL    R5 2530  14.733  11.064   7.550  0.1379 -0.1418  0.1218
  282CHOL    C1 2531  14.716  10.740   7.350  0.1149 -0.2171  0.2455
  282CHOL    C2 2532  14.485  10.444   7.277  0.0793 -0.2706  0.2651
  283CHOL   ROH 2533   2.857   1.155   4.345  0.3080 -0.0863  0.0764
  283CHOL    R1 2534   2.940   1.195   4.613  0.2526  0.0113  0.0802
  283CHOL    R2 2535   2.934   1.442   4.735  0.1815  0.0506  0.0065
  283CHOL    R3 2536   2.788   1.311   4.922  0.1723  0.0754  0.0158
  283CHOL    R4 2537   2.879   1.555   5.057 -0.1384  0.2633 -0.1178
  283CHOL    R5 2538   2.905   1.350   5.128 -0.0033  0.3455  0.0658
  283CHOL    C1 2539   2.710   1.498   5.420 -0.3332  0.4103 -0.1814
  283CHOL    C2 2540   2.958   1.489   5.664 -0.0839  0.1906  0.0461
  284CHOL   ROH 2541  12.434   6.527   4.589  0.2231  0.0537 -0.0486
  284CHOL    R1 2542  12.567   6.557   4.837  0.1016  0.1408  0.0071
  284CHOL    R2 2543  12.506   6.760   5.015 -0.1572  0.0582  0.0173
  284CHOL    R3 2544  12.474   6.553   5.189 -0.0302 -0.0007 -0.0285
  284CHOL    R4 2545  12.531   6.785   5.359 -0.2612  0.0170  0.0280
  284CHOL    R5 2546  12.635   6.594   5.360 -0.1044  0.1017  0.0180
  284CHOL    C1 2547  12.515   6.606   5.722 -0.2025 -0.0624 -0.0087
  284CHOL    C2 2548  12.566   6.599   6.091 -0.0759  0.2400 -0.1912
  285PNCE   AM1 2549   1.287  13.559   7.767  0.1726  0.1909  0.3380
  285PNCE   AM2 2550   1.539  13.721   7.984  0.0964  0.0189  0.0994
  285PNCE   T1A 2551   1.498  13.480   7.370 -0.0255  0.1370 -0.1313
  285PNCE   C2A 2552   1.565  13.345   6.942  0.1942  0.0346 -0.2382
  285PNCE   C3A 2553   1.476  13.267   6.593 -0.1786 -0.0754 -0.1127
  285PNCE   C1B 2554   1.736  13.853   7.643 -0.1264  0.0654 -0.1235
  285PNCE   C2B 2555   2.045  14.015   7.349  0.1370 -0.0104 -0.2383
  285PNCE   C3B 2556   1.946  14.164   6.944 -0.1434  0.4075  0.3794
  285PNCE   D4B 2557   2.035  14.277   6.541 -0.2352  0.0537 -0.0300
  285PNCE   C5B 2558   1.826  14.729   6.522  0.4100 -0.1498 -0.2935
  285PNCE   C6B 2559   1.472  15.044   6.445  0.3371 -0.1630 -0.0199
  286CHOL   ROH 2560   7.412   2.638   6.540 -0.0728 -0.3067 -0.1007
  286CHOL    R1 2561   7.159   2.527   6.478 -0.0711 -0.4115  0.0702
  286CHOL    R2 2562   7.024   2.359   6.650 -0.0994 -0.0984  0.3697
  286CHOL    R3 2563   6.823   2.539   6.619 -0.0854 -0.1381  0.0168
  286CHOL    R4 2564   6.706   2.325   6.780 -0.0769  0.2184  0.5150
  286CHOL    R5 2565   6.626   2.405   6.594 -0.1052 -0.1758  0.3484
  286CHOL    C1 2566   6.332   2.474   6.827 -0.0506  0.3657  0.2684
  286CHOL    C2 2567   6.014   2.295   6.863 -0.2637  0.0795  0.1202
  287PNCE   AM1 2568   1.627  10.721   8.253 -0.0908  0.2459  0.2448
  287PNCE   AM2 2569   1.529  10.392   8.039  0.4372 -0.1035 -0.1469
  287PNCE   T1A 2570   1.412  10.890   7.903  0.0257  0.3828  0.1163
  287PNCE   C2A 2571   1.335  10.753   7.359  0.1392  0.0711  0.1276
  287PNCE   C3A 2572   0.970  10.656   7.097  0.1570 -0.2320  0.1733
  287PNCE   C1B 2573   1.392  10.281   7.627 -0.1259 -0.3678 -0.3120
  287PNCE   C2B 2574   1.323  10.188   7.234 -0.1255 -0.1406  0.2749
  287PNCE   C3B 2575   0.864  10.116   7.055  0.1297  0.0900 -0.1145
  287PNCE   D4B 2576   0.627   9.836   6.917  0.2202 -0.1870  0.0522
  287PNCE   C5B 2577   0.894   9.537   6.795  0.0709 -0.0326  0.1704
  287PNCE   C6B 2578   1.374   9.423   6.731  0.1169  0.2643 -0.2964
  288XCA    COO 2579   2.321  11.266   7.922  0.1634  0.1284  0.0710
  288XCA     C1 2580   2.634  11.270   7.625 -0.1705 -0.0629 -0.0084
  288XCA     C2 2581   2.734  10.938   7.374  0.0388 -0.0969 -0.1509
  288XCA     C3 2582   2.804  10.553   7.246 -0.2785  0.4169  0.2654
  288XCA     C4 2583   2.743  10.243   6.997  0.1965  0.4607  0.1186
  288XCA     C5 2584   2.549   9.943   6.996  0.0969 -0.1221 -0.2042
  288XCA     C6 2585   2.448   9.531   6.926 -0.3126  0.1190 -0.0752
  289CHOL   ROH 2586   0.449   6.262   4.717  0.1084  0.0009  0.0848
  289CHOL    R1 2587   0.264   6.384   4.893  0.0621  0.0195  0.0239
  289CHOL    R2 2588   0.220   6.292   5.150 -0.0302  0.0255  0.0104
  289CHOL    R3 2589   0.277   6.549   5.217 -0.0284  0.0206  0.0274
  289CHOL    R4 2590   0.210   6.418   5.471 -0.0607  0.0116  0.0149
  289CHOL    R5 2591   0.121   6.601   5.391 -0.0457  0.0184  0.0129
  289CHOL    C1 2592   0.258   6.733   5.722 -0.0767 -0.0011  0.0335
  289CHOL    C2 2593   0.160   6.678   6.062 -0.0211 -0.2919 -0.1427
  290PNCE   AM1 2594  10.718   0.242   8.882 -0.0379 -0.0717  0.2910
  290PNCE   AM2 2595  10.926   0.452   8.768  0.0004  0.1567  0.1616
  290PNCE   T1A 2596  10.577   0.132   8.498  0.0410 -0.0573  0.0636
  290PNCE   C2A 2597  10.475   0.143   8.054 -0.0681 -0.1456  0.1623
  290PNCE   C3A 2598  10.427   0.003   7.708 -0.1639 -0.0386 -0.4707
  290PNCE   C1B 2599  10.963   0.346   8.270 -0.1474  0.2924 -0.2435
  290PNCE   C2B 2600  11.038   0.534   7.982  0.2204  0.1805  0.3320
  290PNCE   C3B 2601  11.168   0.676   7.610  0.4707 -0.1946 -0.3764
  290PNCE   D4B 2602  11.304   1.037   7.266  0.2068  0.3012 -0.0608
  290PNCE   C5B 2603  11.543   1.312   7.429  0.2276  0.6357  0.1609
  290PNCE   C6B 2604  11.848   1.619   7.578 -0.1026  0.1951 -0.3047
  291XCA    COO 2605   6.973  14.405   8.192  0.0022 -0.3702 -0.0406
  291XCA     C1 2606   7.154  14.379   7.858 -0.0629  0.0034 -0.2176
  291XCA     C2 2607   7.425  14.176   7.705  0.2097  0.3758 -0.0760
  291XCA     C3 2608   7.673  13.956   7.410  0.0804  0.0872 -0.1051
  291XCA     C4 2609   7.589  13.549   7.026 -0.1573  0.1200  0.0820
  291XCA     C5 2610   7.444  13.215   6.793 -0.3186 -0.0506 -0.1429
  291XCA     C6 2611   7.180  12.920   6.456 -0.4558  0.2403  0.0591
  292CHOL   ROH 2612   6.150   1.116   8.482 -0.0794  0.2643 -0.0210
  292CHOL    R1 2613   6.330   1.062   8.270 -0.0551  0.0559  0.0498
  292CHOL    R2 2614   6.280   0.871   8.078 -0.1663  0.0618  0.0723
  292CHOL    R3 2615   6.322   1.078   7.907  0.0824 -0.0102  0.0434
  292CHOL    R4 2616   6.326   0.838   7.737 -0.0895 -0.0524  0.0932
  292CHOL    R5 2617   6.480   0.992   7.748  0.0539 -0.1932  0.1101
  292CHOL    C1 2618   6.392   1.014   7.378  0.1888 -0.1864  0.0782
  292CHOL    C2 2619   6.595   1.314   7.188  0.1512  0.1686 -0.0445
  293CHOL   ROH 2620  15.087   1.088   4.395 -0.2294 -0.1813  0.1884
  293CHOL    R1 2621  15.267   1.192   4.587 -0.2102 -0.0867  0.1209
  293CHOL    R2 2622  15.307   1.463   4.622 -0.1698 -0.0668 -0.0479
  293CHOL    R3 2623  15.244   1.406   4.881 -0.1756  0.0995 -0.0119
  293CHOL    R4 2624  15.275   1.697   4.875  0.1067  0.0644 -0.1309
  293CHOL    R5 2625  15.376   1.558   5.010 -0.0033  0.0216 -0.0977
  293CHOL    C1 2626  15.198   1.779   5.265  0.2621  0.2970 -0.1455
  293CHOL    C2 2627  15.385   2.036   5.539  0.3123 -0.0368 -0.1156
  294PNCE   AM1 2628   8.951   9.871   8.254  0.0597  0.0018 -0.1868
  294PNCE   AM2 2629   8.612   9.713   8.322 -0.1433  0.0389 -0.1173
  294PNCE   T1A 2630   9.345   9.948   7.935 -0.0798 -0.4737  0.0394
  294PNCE   C2A 2631   9.613  10.186   7.673 -0.1164  0.0552  0.2323
  294PNCE   C3A 2632   9.997  10.367   7.546  0.0304  0.3005 -0.3666
  294PNCE   C1B 2633   8.356   9.400   8.078  0.3755  0.1825 -0.0638
  294PNCE   C2B 2634   8.212   9.363   7.693 -0.1800 -0.0212 -0.0382
  294PNCE   C3B 2635   8.022   9.442   7.301  0.0987  0.1933  0.1193
  294PNCE   D4B 2636   7.709   9.560   6.826  0.1626 -0.0172 -0.0760
  294PNCE   C5B 2637   7.346   9.417   6.680  0.3828  0.0496  0.4647
  294PNCE   C6B 2638   7.099   9.105   6.403 -0.0119  0.1743 -0.2125
  295CHOL   ROH 2639   3.584   4.534   8.157 -0.0417 -0.1089 -0.1439
  295CHOL    R1 2640   3.411   4.496   7.936 -0.0919 -0.0708 -0.1118
  295CHOL    R2 2641   3.236   4.691   7.849 -0.0087 -0.0011 -0.1289
  295CHOL    R3 2642   3.360   4.652   7.611 -0.0599 -0.1138 -0.1372
  295CHOL    R4 2643   3.110   4.790   7.543  0.0069  0.0084 -0.1319
  295CHOL    R5 2644   3.182   4.602   7.459 -0.1057 -0.0462 -0.1053
  295CHOL    C1 2645   3.153   4.810   7.140 -0.0320 -0.0918 -0.1414
  295CHOL    C2 2646   3.450   4.939   6.914 -0.0945  0.1447  0.0404
  296PNCE   AM1 2647  13.652   6.166   4.673 -0.1294 -0.0102 -0.2370
  296PNCE   AM2 2648  13.483   6.527   4.739 -0.0609  0.2277 -0.0971
  296PNCE   T1A 2649  13.277   5.948   4.965  0.0444 -0.2037 -0.1602
  296PNCE   C2A 2650  13.203   5.944   5.453  0.1491 -0.0603  0.1067
  296PNCE   C3A 2651  13.191   5.989   5.983  0.2871  0.1748 -0.0335
  296PNCE   C1B 2652  13.461   6.380   5.233 -0.1332 -0.0116 -0.2529
  296PNCE   C2B 2653  13.566   6.267   5.651  0.0141  0.1539  0.2082
  296PNCE   C3B 2654  13.669   6.035   5.930  0.1275  0.2950  0.0834
  296PNCE   D4B 2655  13.864   5.676   6.105  0.0187  0.0908  0.0526
  296PNCE   C5B 2656  14.257   5.790   6.323 -0.0538  0.0536  0.0998
  296PNCE   C6B 2657  14.525   5.559   6.641  0.3218 -0.4848 -0.3556
  297XCA    COO 2658  14.967   5.760   4.531  0.0281  0.1109 -0.1344
  297XCA     C1 2659  15.139   5.566   4.980 -0.1906  0.1210 -0.0014
  297XCA     C2 2660  15.076   5.384   5.470  0.1144  0.2362 -0.3019
  297XCA     C3 2661  14.952   5.259   5.905 -0.0229 -0.1144  0.0509
  297XCA     C4 2662  14.822   4.950   6.113 -0.2468  0.1910  0.0344
  297XCA     C5 2663  14.913   4.516   6.034  0.1952 -0.0828  0.0940
  297XCA     C6 2664  14.994   4.204   5.810 -0.1130  0.2245  0.1812
  298CHOL   ROH 2665   1.639  15.024   7.433 -0.0059 -0.2412 -0.0666
  298CHOL    R1 2666   1.824  14.959   7.230 -0.1551 -0.1255 -0.2440
  298CHOL    R2 2667   1.794  15.042   6.968 -0.1992  0.2730 -0.1226
  298CHOL    R3 2668   2.045  15.140   7.004 -0.0947 -0.0018 -0.0856
  298CHOL    R4 2669   2.001  15.152   6.714 -0.1155  0.2417 -0.0675
  298CHOL    R5 2670   2.168  15.057   6.816 -0.1990  0.0048 -0.1539
  298CHOL    C1 2671   2.357  15.309   6.600  0.0315 -0.0346 -0.0007
  298CHOL    C2 2672   2.651  15.374   6.365 -0.1655  0.0726 -0.1569
  299PNCE   AM1 2673   3.614   6.751   8.632  0.0192  0.0577 -0.0007
  299PNCE   AM2 2674   3.341   6.621   8.592  0.1364  0.0958 -0.0728
  299PNCE   T1A 2675   3.684   6.975   8.242 -0.2618  0.0526  0.1053
  299PNCE   C2A 2676   3.603   7.167   7.858  0.0040 -0.2162 -0.0241
  299PNCE   C3A 2677   3.381   7.577   7.691 -0.1787 -0.1755  0.3895
  299PNCE   C1B 2678   3.489   6.528   8.215 -0.2013 -0.0670  0.1571
  299PNCE   C2B 2679   3.581   6.673   7.852  0.1964 -0.2257 -0.3404
  299PNCE   C3B 2680   3.911   6.891   7.642  0.0605 -0.0486 -0.1018
  299PNCE   D4B 2681   4.055   7.031   7.240  0.0005 -0.1817 -0.1595
  299PNCE   C5B 2682   4.250   6.701   7.187  0.1017  0.1953 -0.1820
  299PNCE   C6B 2683   4.432   6.495   6.837  0.1261 -0.2130 -0.3041
  300XCA    COO 2684   3.993  11.149   4.361  0.0825  0.1440 -0.2228
  300XCA     C1 2685   3.953  11.003   4.805 -0.3578 -0.3051  0.1619
  300XCA     C2 2686   3.800  11.084   5.258 -0.1154 -0.1539  0.1321
  300XCA     C3 2687   3.639  11.146   5.587 -0.1031 -0.1626 -0.0595
  300XCA     C4 2688   3.335  11.400   5.876 -0.2586  0.1962 -0.1492
  300XCA     C5 2689   3.572  11.687   6.177 -0.0471  0.0055 -0.3491
  300XCA     C6 2690   3.711  11.584   6.615  0.1895 -0.0991  0.0412
  301CHOL   ROH 2691  13.362  10.320   7.916  0.2019 -0.0050  0.0677
  301CHOL    R1 2692  13.302  10.044   7.897 -0.0639  0.0358  0.2344
  301CHOL    R2 2693  13.450   9.870   7.741 -0.4828 -0.1295 -0.0123
  301CHOL    R3 2694  13.470   9.731   7.974 -0.1695 -0.0801 -0.0083
  301CHOL    R4 2695  13.373   9.535   7.779 -0.4775 -0.1077  0.1916
  301CHOL    R5 2696  13.283   9.582   7.971 -0.1900 -0.0533  0.3060
  301CHOL    C1 2697  13.347   9.209   8.019 -0.1800 -0.0488  0.3142
  301CHOL    C2 2698  13.416   8.765   8.227  0.0646  0.0727  0.0270
  302CHOL   ROH 2699   9.367  10.712   8.145 -0.0395  0.0985 -0.1410
  302CHOL    R1 2700   9.613  10.581   8.197 -0.0408  0.1294 -0.0481
  302CHOL    R2 2701   9.680  10.340   8.079 -0.0010  0.0879  0.0428
  302CHOL    R3 2702   9.902  10.476   8.003 -0.0005  0.0837  0.0407
  302CHOL    R4 2703   9.966  10.195   7.950 -0.1064  0.1228 -0.2346
  302CHOL    R5 2704  10.084  10.335   8.068 -0.0055 -0.0187 -0.1817
  302CHOL    C1 2705  10.341  10.238   7.803 -0.1673  0.1394 -0.3980
  302CHOL    C2 2706  10.448   9.877   7.778 -0.0746 -0.0463 -0.1058
  303XCA    COO 2707  12.902  15.526   9.214  0.3701 -0.1207  0.0232
  303XCA     C1 2708  12.992  15.412   8.695 -0.1521 -0.5563 -0.0228
  303XCA     C2 2709  12.888  15.452   8.249  0.1053 -0.0722  0.0758
  303XCA     C3 2710  12.825  15.394   7.864 -0.1497 -0.1642 -0.1692
  303XCA     C4 2711  12.997  15.132   7.613 -0.1263 -0.0649 -0.1830
  303XCA     C5 2712  13.315  14.834   7.714 -0.1494 -0.0430  0.1471
  303XCA     C6 2713  13.513  14.493   7.821 -0.0179 -0.2964  0.1482
  304PNCE   AM1 2714  12.370   0.264   8.975  0.0945  0.2299 -0.1091
  304PNCE   AM2 2715  12.571  -0.040   8.888 -0.3416 -0.3020  0.2917
  304PNCE   T1A 2716  12.118   0.293   8.604 -0.1433  0.1505  0.2711
  304PNCE   C2A 2717  11.866   0.453   8.275  0.0368  0.0045  0.2988
  304PNCE   C3A 2718  11.478   0.697   8.145 -0.2410 -0.0098 -0.0331
  304PNCE   C1B 2719  12.380  -0.275   8.581 -0.1500  0.3494 -0.0225
  304PNCE   C2B 2720  12.463  -0.195   8.209  0.1162 -0.1136 -0.2218
  304PNCE   C3B 2721  12.475  -0.116   7.719 -0.2392  0.0509 -0.0724
  304PNCE   D4B 2722  12.576   0.031   7.317 -0.0108 -0.0513  0.0670
  304PNCE   C5B 2723  12.575   0.499   7.307  0.1256  0.1830  0.2697
  304PNCE   C6B 2724  12.521   0.681   6.924 -0.0635 -0.1221 -0.0014
  305CHOL   ROH 2725   5.746   1.891   4.820  0.0541 -0.1528 -0.1144
  305CHOL    R1 2726   5.653   1.809   5.075  0.0823 -0.1390 -0.0996
  305CHOL    R2 2727   5.391   1.845   5.156  0.1249 -0.0040 -0.0179
  305CHOL    R3 2728   5.403   1.578   5.203 -0.0109 -0.0187 -0.0629
  305CHOL    R4 2729   5.218   1.681   5.406  0.0821  0.0471 -0.0138
  305CHOL    R5 2730   5.395   1.559   5.442  0.0224 -0.0540 -0.0653
  305CHOL    C1 2731   5.127   1.335   5.596 -0.0703  0.0631 -0.0537
  305CHOL    C2 2732   4.910   1.477   5.888  0.0501  0.4619  0.0621
  306CHOL   ROH 2733   0.942   9.534   4.875  0.0234  0.1451  0.0374
  306CHOL    R1 2734   1.099   9.570   5.108 -0.0032  0.3405  0.0285
  306CHOL    R2 2735   1.002   9.694   5.334 -0.2068  0.0729  0.1018
  306CHOL    R3 2736   1.083   9.465   5.456  0.2375  0.1605 -0.0136
  306CHOL    R4 2737   1.117   9.672   5.660  0.0822  0.1525  0.0070
  306CHOL    R5 2738   1.268   9.531   5.592  0.2433  0.4003 -0.1423
  306CHOL    C1 2739   1.259   9.444   5.963  0.6677  0.2811 -0.1567
  306CHOL    C2 2740   1.243   9.619   6.270 -0.0586 -0.0970 -0.1752
  307CHOL   ROH 2741  10.419  15.248   8.997 -0.5173 -0.1508 -0.0031
  307CHOL    R1 2742  10.410  15.053   8.792 -0.3970 -0.0659 -0.0900
  307CHOL    R2 2743  10.237  15.072   8.577 -0.1742  0.0954 -0.2600
  307CHOL    R3 2744  10.466  15.046   8.432 -0.0371  0.0525 -0.0410
  307CHOL    R4 2745  10.250  15.000   8.239  0.1416  0.0567 -0.2429
  307CHOL    R5 2746  10.419  14.868   8.279  0.0897  0.0414 -0.0670
  307CHOL    C1 2747  10.473  14.934   7.907  0.4543 -0.0060 -0.0274
  307CHOL    C2 2748  10.689  14.809   7.589 -0.0886  0.0799  0.2537
  308XCA    COO 2749   6.438  10.456   4.859  0.0289 -0.1227  0.0008
  308XCA     C1 2750   6.666  10.685   5.149 -0.2617 -0.2208  0.3015
  308XCA     C2 2751   7.054  10.963   5.067 -0.0733 -0.0024  0.0890
  308XCA     C3 2752   7.297  10.913   5.364 -0.1784  0.1828  0.1270
  308XCA     C4 2753   7.686  10.861   5.585  0.1066  0.2783 -0.2716
  308XCA     C5 2754   7.957  10.493   5.771 -0.2283  0.0377 -0.3060
  308XCA     C6 2755   8.023  10.281   6.220 -0.0676  0.1258  0.1094
  309CHOL   ROH 2756   4.692  13.872   6.125  0.0784  0.0521 -0.1179
  309CHOL    R1 2757   4.747  14.109   5.981  0.0005  0.0640 -0.1277
  309CHOL    R2 2758   4.558  14.306   5.941 -0.0111  0.0800  0.0179
  309CHOL    R3 2759   4.749  14.466   6.050  0.0708  0.0572 -0.0902
  309CHOL    R4 2760   4.555  14.652   5.931 -0.0079  0.0817  0.0631
  309CHOL    R5 2761   4.770  14.647   5.894 -0.0294  0.0768 -0.0846
  309CHOL    C1 2762   4.733  15.003   6.027  0.0708  0.0611 -0.0122
  309CHOL    C2 2763   4.816  15.367   5.879 -0.1643 -0.0092  0.0954
  310CHOL   ROH 2764   7.202  10.586   6.418 -0.1533 -0.0729  0.0387
  310CHOL    R1 2765   6.979  10.498   6.266 -0.1812  0.0908 -0.0159
  310CHOL    R2 2766   6.815  10.673   6.129 -0.0163  0.2113 -0.0587
  310CHOL    R3 2767   6.874  10.513   5.918 -0.0853  0.1642 -0.0430
  310CHOL    R4 2768   6.608  10.619   5.858 -0.0409  0.2809 -0.0544
  310CHOL    R5 2769   6.666  10.409   5.862 -0.1342  0.2524 -0.0336
  310CHOL    C1 2770   6.542  10.436   5.502 -0.1199  0.2770 -0.0370
  310CHOL    C2 2771   6.167  10.460   5.540 -0.2389 -0.1396 -0.1965
  311XCA    COO 2772  10.646   7.265   8.910 -0.4938 -0.1341 -0.0387
  311XCA     C1 2773  10.696   7.405   8.516 -0.1593  0.0191 -0.0625
  311XCA     C2 2774  10.681   7.290   8.014  0.3167 -0.3724  0.2883
  311XCA     C3 2775  10.897   7.534   7.702 -0.0489 -0.1820 -0.2190
  311XCA     C4 2776  11.211   7.589   7.302 -0.1457  0.1014 -0.2113
  311XCA     C5 2777  11.448   7.209   7.016  0.2618 -0.0356  0.1903
  311XCA     C6 2778  11.692   7.049   6.673  0.2128  0.1041 -0.0216
  312PNCE   AM1 2779   4.188  10.466   8.677  0.0582  0.1771  0.2268
  312PNCE   AM2 2780   4.126  10.701   8.868  0.0387  0.1419  0.1939
  312PNCE   T1A 2781   4.061  10.658   8.270 -0.0717 -0.3798 -0.0754
  312PNCE   C2A 2782   3.971  10.908   7.936 -0.1576  0.1430 -0.2569
  312PNCE   C3A 2783   3.965  11.254   8.108  0.3767  0.1746  0.0293
  312PNCE   C1B 2784   3.729  10.487   8.627  0.1097 -0.2021  0.0812
  312PNCE   C2B 2785   3.676  10.374   8.173  0.1826  0.2247  0.0439
  312PNCE   C3B 2786   3.651  10.007   7.944 -0.0516 -0.2759  0.0045
  312PNCE   D4B 2787   3.470   9.978   7.584  0.0192  0.4586 -0.0020
  312PNCE   C5B 2788   3.591   9.874   7.220  0.0575  0.1026  0.0451
  312PNCE   C6B 2789   3.810   9.578   7.170  0.0936 -0.0182 -0.0361
  313PNCE   AM1 2790   6.632   9.701   8.584  0.0963  0.0717  0.2408
  313PNCE   AM2 2791   6.690  10.041   8.772 -0.0447  0.2151  0.1186
  313PNCE   T1A 2792   6.405   9.524   8.285 -0.2332  0.2125 -0.1961
  313PNCE   C2A 2793   6.297   9.357   7.898 -0.1641  0.0242 -0.2234
  313PNCE   C3A 2794   6.145   9.082   7.639  0.2241 -0.1860  0.0569
  313PNCE   C1B 2795   6.384  10.217   8.482 -0.2558  0.2945  0.0373
  313PNCE   C2B 2796   6.154  10.070   8.160 -0.2094 -0.4155 -0.2265
  313PNCE   C3B 2797   5.898   9.710   7.991  0.0620  0.0083  0.1969
  313PNCE   D4B 2798   5.872   9.230   8.039 -0.2150  0.1662 -0.2982
  313PNCE   C5B 2799   5.634   9.123   7.662  0.2125 -0.0584 -0.0552
  313PNCE   C6B 2800   5.409   8.986   7.389  0.0869  0.2116  0.2387
  314PNCE   AM1 2801  14.589   6.586   8.871  0.0258  0.0016  0.2869
  314PNCE   AM2 2802  14.391   6.379   8.759 -0.0783  0.1912  0.2791
  314PNCE   T1A 2803  14.512   6.775   8.490 -0.0882 -0.0341  0.3497
  314PNCE   C2A 2804  14.236   6.951   8.154  0.1139 -0.0018 -0.2956
  314PNCE   C3A 2805  13.960   6.887   7.857 -0.1391 -0.0493  0.0761
  314PNCE   C1B 2806  14.628   6.231   8.355  0.1474 -0.1490 -0.0739
  314PNCE   C2B 2807  14.705   6.361   8.028 -0.0057 -0.1712 -0.3398
  314PNCE   C3B 2808  14.797   6.293   7.649  0.3353 -0.2484 -0.0763
  314PNCE   D4B 2809  15.077   6.285   7.391  0.4832  0.1829  0.1071
  314PNCE   C5B 2810  14.961   6.515   7.060  0.0297  0.1407  0.2551
  314PNCE   C6B 2811  14.572   6.581   6.819  0.1972 -0.1426 -0.3902
  315XCA    COO 2812  10.215   8.078   4.684 -0.1480  0.2237 -0.1235
  315XCA     C1 2813  10.031   7.830   4.999  0.3337 -0.2753  0.4214
  315XCA     C2 2814  10.042   7.711   5.370  0.0166  0.1214 -0.1008
  315XCA     C3 2815  10.243   7.377   5.628 -0.0430 -0.2421  0.0936
  315XCA     C4 2816  10.336   7.193   6.003  0.1300 -0.0113  0.1641
  315XCA     C5 2817  10.138   7.184   6.407 -0.0732  0.1013 -0.1058
  315XCA     C6 2818   9.904   7.087   6.724 -0.0955 -0.2014 -0.1478
  316PNCE   AM1 2819   2.131   7.638   9.047 -0.1131  0.4641 -0.0196
  316PNCE   AM2 2820   1.899   7.726   8.776 -0.3672 -0.1293  0.0148
  316PNCE   T1A 2821   2.293   8.037   8.851 -0.0832  0.2129  0.0419
  316PNCE   C2A 2822   2.581   8.335   8.904 -0.0069  0.0818 -0.1441
  316PNCE   C3A 2823   2.663   8.569   9.161 -0.3165  0.1552  0.1254
  316PNCE   C1B 2824   2.030   8.027   8.420 -0.0288 -0.1546 -0.0740
  316PNCE   C2B 2825   1.998   8.142   7.994 -0.2313 -0.1643  0.2042
  316PNCE   C3B 2826   1.775   8.289   7.592  0.1560  0.2231 -0.1784
  316PNCE   D4B 2827   1.375   8.365   7.462 -0.0668 -0.1906  0.2883
  316PNCE   C5B 2828   1.153   8.690   7.710 -0.1602  0.0690 -0.0449
  316PNCE   C6B 2829   0.842   8.988   7.519  0.1671 -0.2627  0.0516
  317XCA    COO 2830  13.196   1.433   4.117  0.2653  0.1268  0.1658
  317XCA     C1 2831  13.623   1.543   4.300  0.1436 -0.0470  0.0800
  317XCA     C2 2832  13.759   1.668   4.635  0.2433 -0.1354  0.0787
  317XCA     C3 2833  13.859   1.979   4.928 -0.0511  0.3302  0.1363
  317XCA     C4 2834  13.913   2.079   5.378  0.2041 -0.2686  0.2966
  317XCA     C5 2835  13.956   2.103   5.809 -0.0755  0.1120  0.0968
  317XCA     C6 2836  14.061   2.409   6.045 -0.0718 -0.0446 -0.2221
  318PNCE   AM1 2837   1.450  14.844   7.963  0.4539  0.0958  0.1105
  318PNCE   AM2 2838   1.543  14.679   8.060 -0.0232 -0.2144  0.0809
  318PNCE   T1A 2839   1.790  15.064   7.844  0.0105 -0.0225  0.1461
  318PNCE   C2A 2840   2.204  15.170   7.546 -0.0274  0.0991  0.3184
  318PNCE   C3A 2841   2.414  15.061   7.239 -0.1750  0.1992 -0.3481
  318PNCE   C1B 2842   1.860  14.574   7.767 -0.4797 -0.1378 -0.0914
  318PNCE   C2B 2843   1.677  14.427   7.338  0.4972  0.0371  0.3775
  318PNCE   C3B 2844   1.654  14.511   6.965  0.1442 -0.2704 -0.2746
  318PNCE   D4B 2845   1.513  14.237   6.534 -0.1591 -0.1992 -0.2516
  318PNCE   C5B 2846   1.171  14.036   6.564  0.5414  0.1080  0.1866
  318PNCE   C6B 2847   1.042  13.564   6.654 -0.1055  0.0707  0.1020
  319PNCE   AM1 2848   2.671  12.383   8.334 -0.0926  0.1246 -0.2075
  319PNCE   AM2 2849   2.779  12.161   8.155 -0.0820  0.0483 -0.1224
  319PNCE   T1A 2850   2.733  12.605   7.884  0.1319  0.0311  0.2896
  319PNCE   C2A 2851   2.739  12.999   7.684 -0.1021 -0.0146  0.0436
  319PNCE   C3A 2852   2.520  13.062   7.240 -0.1436  0.1080  0.3573
  319PNCE   C1B 2853   3.124  12.159   7.865 -0.0388 -0.2866 -0.3054
  319PNCE   C2B 2854   3.317  11.906   7.524  0.2025  0.1560 -0.2115
  319PNCE   C3B 2855   3.621  11.581   7.386 -0.0336 -0.3176 -0.0519
  319PNCE   D4B 2856   3.888  11.532   7.062 -0.1261 -0.1328 -0.2441
  319PNCE   C5B 2857   4.124  11.846   7.100  0.0910 -0.4975  0.0822
  319PNCE   C6B 2858   4.162  12.321   7.227 -0.0185  0.1174 -0.0390
  320CHOL   ROH 2859   0.349   4.810   7.991 -0.0649 -0.1376  0.0216
  320CHOL    R1 2860   0.396   4.707   7.732 -0.0816 -0.0306 -0.0242
  320CHOL    R2 2861   0.260   4.796   7.508  0.0793  0.2368 -0.0167
  320CHOL    R3 2862   0.511   4.837   7.412  0.1531  0.0481  0.0890
  320CHOL    R4 2863   0.350   4.770   7.176  0.1471  0.3823 -0.0113
  320CHOL    R5 2864   0.535   4.673   7.239  0.0322  0.1432 -0.0225
  320CHOL    C1 2865   0.638   4.792   6.892  0.2559  0.2899  0.0911
  320CHOL    C2 2866   0.710   4.734   6.548  0.2899 -0.1623 -0.0784
  321CHOL   ROH 2867  11.767   7.884   8.754  0.2541 -0.2539 -0.1669
  321CHOL    R1 2868  11.706   7.884   8.478  0.1778 -0.1794 -0.1500
  321CHOL    R2 2869  11.817   7.704   8.300  0.1000 -0.1559 -0.2227
  321CHOL    R3 2870  11.557   7.653   8.239  0.0745 -0.0996 -0.1636
  321CHOL    R4 2871  11.704   7.597   7.992 -0.0003 -0.0920 -0.2090
  321CHOL    R5 2872  11.533   7.730   8.014  0.0299 -0.0636 -0.1463
  321CHOL    C1 2873  11.395   7.487   7.754 -0.0828 -0.0019 -0.1454
  321CHOL    C2 2874  11.443   7.187   7.554 -0.0125 -0.2347  0.0198
  322CHOL   ROH 2875  14.692  14.975   8.109 -0.0557  0.0533 -0.0820
  322CHOL    R1 2876  14.674  14.880   7.843 -0.0283  0.1108 -0.1045
  322CHOL    R2 2877  14.438  14.785   7.734  0.0021  0.0557 -0.1219
  322CHOL    R3 2878  14.490  14.970   7.542 -0.0654  0.1199 -0.0794
  322CHOL    R4 2879  14.420  14.727   7.394  0.1046  0.1022 -0.1356
  322CHOL    R5 2880  14.600  14.846   7.369  0.0419  0.2118 -0.0787
  322CHOL    C1 2881  14.459  14.866   7.015  0.1009  0.1894 -0.1038
  322CHOL    C2 2882  14.261  14.950   6.652  0.1012 -0.1649 -0.2849
  323XCA    COO 2883   1.296   8.603   4.947  0.1959  0.2430  0.2016
  323XCA     C1 2884   1.526   8.609   5.339  0.0235  0.1676  0.1496
  323XCA     C2 2885   1.784   8.513   5.738  0.1799  0.2478  0.2250
  323XCA     C3 2886   1.671   8.520   6.065 -0.2026  0.1218  0.1651
  323XCA     C4 2887   1.715   8.461   6.492  0.2417  0.0249  0.4520
  323XCA     C5 2888   1.700   8.169   6.802  0.0744  0.0932 -0.0827
  323XCA     C6 2889   1.607   8.051   7.141 -0.0674 -0.1828 -0.1807
  324XCA    COO 2890   7.628  11.944   4.682 -0.0141 -0.0659 -0.0591
  324XCA     C1 2891   7.476  12.172   4.997  0.0316  0.1333  0.1919
  324XCA     C2 2892   7.466  12.220   5.404  0.2263  0.0304 -0.0454
  324XCA     C3 2893   7.202  12.442   5.772 -0.0630 -0.3070 -0.0189
  324XCA     C4 2894   6.932  12.685   6.061  0.2408  0.0846 -0.0207
  324XCA     C5 2895   6.644  12.583   6.498 -0.0172  0.0140  0.0459
  324XCA     C6 2896   6.689  12.433   6.960  0.1922  0.0938  0.0984
  325CHOL   ROH 2897   3.375   8.764   9.228 -0.2548  0.1134  0.0338
  325CHOL    R1 2898   3.219   8.606   9.052 -0.1813  0.1014 -0.0213
  325CHOL    R2 2899   3.060   8.716   8.855 -0.1720  0.0929 -0.0349
  325CHOL    R3 2900   3.201   8.549   8.693 -0.0969  0.1544 -0.0336
  325CHOL    R4 2901   2.941   8.578   8.561 -0.0340  0.1956 -0.1411
  325CHOL    R5 2902   3.039   8.391   8.615 -0.0565  0.1793 -0.1659
  325CHOL    C1 2903   3.003   8.341   8.239  0.1169  0.3130 -0.2018
  325CHOL    C2 2904   2.862   8.093   7.943 -0.0671 -0.0043  0.0329
  326PNCE   AM1 2905  10.087   4.112   8.460  0.3239 -0.1378 -0.0712
  326PNCE   AM2 2906  10.083   3.828   8.477 -0.2897  0.1051 -0.0053
  326PNCE   T1A 2907   9.804   4.508   8.308  0.1362 -0.0533  0.2515
  326PNCE   C2A 2908   9.585   4.764   7.929 -0.0745  0.2967  0.0066
  326PNCE   C3A 2909   9.288   4.892   7.583  0.0060 -0.0205 -0.0279
  326PNCE   C1B 2910   9.937   3.734   8.053 -0.0242  0.4550  0.2424
  326PNCE   C2B 2911   9.915   3.673   7.675  0.0108  0.0801  0.2223
  326PNCE   C3B 2912   9.766   3.850   7.329  0.0050  0.1435  0.1865
  326PNCE   D4B 2913   9.484   4.092   7.015  0.0621  0.3373  0.1114
  326PNCE   C5B 2914   8.999   4.091   6.953 -0.1659 -0.0873  0.3066
  326PNCE   C6B 2915   8.565   4.221   7.055  0.1024 -0.1371 -0.1377
  327PNCE   AM1 2916   8.622  10.043   7.900 -0.0847  0.0829 -0.0570
  327PNCE   AM2 2917   8.935  10.290   7.999  0.1099 -0.0538  0.1444
  327PNCE   T1A 2918   8.962   9.934   7.525  0.6562  0.0114  0.2079
  327PNCE   C2A 2919   9.035   9.696   7.128 -0.0679 -0.2771 -0.1597
  327PNCE   C3A 2920   9.400   9.603   6.881  0.1703  0.0124 -0.1159
  327PNCE   C1B 2921   9.178  10.352   7.562 -0.4256 -0.0635 -0.0534
  327PNCE   C2B 2922   9.301  10.114   7.150 -0.2383  0.2027 -0.1340
  327PNCE   C3B 2923   9.540  10.083   6.822 -0.0390 -0.1273  0.1000
  327PNCE   D4B 2924   9.533   9.820   6.470  0.3463  0.2712 -0.3162
  327PNCE   C5B 2925   9.190   9.893   6.264  0.1773  0.2365 -0.2821
  327PNCE   C6B 2926   8.877  10.168   6.326 -0.1140 -0.2720  0.0227
  328CHOL   ROH 2927   1.659   2.112   7.146 -0.1071  0.0218 -0.0095
  328CHOL    R1 2928   1.699   2.305   6.943 -0.0675 -0.0440 -0.0639
  328CHOL    R2 2929   1.948   2.405   6.879 -0.0515 -0.1000 -0.0784
  328CHOL    R3 2930   1.881   2.325   6.628 -0.0472 -0.1616 -0.0607
  328CHOL    R4 2931   2.089   2.528   6.588  0.0497 -0.2629 -0.1002
  328CHOL    R5 2932   1.890   2.525   6.497  0.0603 -0.2097 -0.1308
  328CHOL    C1 2933   2.107   2.524   6.183  0.1126 -0.4156 -0.0963
  328CHOL    C2 2934   2.368   2.783   6.162 -0.1429  0.1172  0.4242
  329CHOL   ROH 2935  13.996  15.890   8.251  0.2211 -0.1747 -0.1097
  329CHOL    R1 2936  13.814  15.780   8.064  0.0840 -0.2055  0.0406
  329CHOL    R2 2937  13.569  15.675   8.139  0.0184  0.0568  0.2065
  329CHOL    R3 2938  13.474  15.850   7.954  0.1091 -0.0368  0.0680
  329CHOL    R4 2939  13.270  15.641   7.970 -0.0043  0.0861  0.2397
  329CHOL    R5 2940  13.369  15.712   7.789  0.0307 -0.1112  0.1794
  329CHOL    C1 2941  13.006  15.785   7.698  0.0677  0.0153  0.1289
  329CHOL    C2 2942  12.932  15.653   7.407 -0.2374  0.1034 -0.0846
  330PNCE   AM1 2943   9.037   8.220   8.382 -0.2677  0.4681 -0.0891
  330PNCE   AM2 2944   9.069   8.010   8.117 -0.2058  0.0490  0.2800
  330PNCE   T1A 2945   8.667   8.469   8.383  0.3889 -0.0218  0.0662
  330PNCE   C2A 2946   8.522   8.845   8.216 -0.0099 -0.3085 -0.1291
  330PNCE   C3A 2947   8.612   8.981   7.804  0.4155  0.0757 -0.0793
  330PNCE   C1B 2948   8.699   8.091   7.959 -0.1018 -0.0431  0.0772
  330PNCE   C2B 2949   8.322   7.850   7.709 -0.1374  0.1298  0.0228
  330PNCE   C3B 2950   7.987   7.612   7.615  0.0264  0.1941 -0.0780
  330PNCE   D4B 2951   7.506   7.767   7.680  0.1668  0.1299  0.0119
  330PNCE   C5B 2952   7.215   7.600   7.475 -0.0642 -0.0166  0.1806
  330PNCE   C6B 2953   6.980   7.309   7.291  0.0108  0.0723  0.2772
  331PNCE   AM1 2954   5.482   1.660   8.493 -0.0807 -0.2006 -0.0772
  331PNCE   AM2 2955   5.821   1.416   8.558  0.0139 -0.1117  0.0627
  331PNCE   T1A 2956   5.534   1.485   8.094 -0.2545  0.0449  0.1435
  331PNCE   C2A 2957   5.393   1.350   7.685 -0.2246 -0.0726 -0.4318
  331PNCE   C3A 2958   5.438   1.084   7.249  0.1093  0.4198 -0.1675
  331PNCE   C1B 2959   6.028   1.407   8.179 -0.1022  0.1626 -0.0922
  331PNCE   C2B 2960   6.106   1.519   7.782 -0.0865 -0.2229 -0.0569
  331PNCE   C3B 2961   6.286   1.689   7.365 -0.0208 -0.0772  0.0112
  331PNCE   D4B 2962   6.291   1.833   6.916 -0.0295 -0.3107 -0.1864
  331PNCE   C5B 2963   6.685   1.895   6.639  0.0519  0.4020 -0.3820
  331PNCE   C6B 2964   6.920   1.853   6.245 -0.1571 -0.1296  0.1582
  332PNCE   AM1 2965   1.695   1.183   7.826 -0.0261  0.0087  0.0464
  332PNCE   AM2 2966   1.295   1.204   7.895 -0.1417  0.0050  0.4084
  332PNCE   T1A 2967   1.489   0.876   7.547 -0.1501 -0.2606 -0.1063
  332PNCE   C2A 2968   1.393   0.816   7.166 -0.1005 -0.1041  0.2838
  332PNCE   C3A 2969   1.219   0.827   6.802  0.2012  0.2963  0.0505
  332PNCE   C1B 2970   1.465   1.393   7.458  0.0902 -0.0901  0.2314
  332PNCE   C2B 2971   1.726   1.703   7.140  0.0236  0.2022 -0.4050
  332PNCE   C3B 2972   1.836   1.847   6.718 -0.1771  0.1527 -0.0680
  332PNCE   D4B 2973   2.066   1.874   6.352  0.2130 -0.1010  0.2924
  332PNCE   C5B 2974   2.414   2.149   6.182 -0.0424 -0.1757  0.0540
  332PNCE   C6B 2975   2.704   2.495   5.883 -0.2139  0.1819 -0.1343
  333PNCE   AM1 2976   3.611   7.704   9.084  0.1410 -0.1694  0.0807
  333PNCE   AM2 2977   3.384   7.555   9.212 -0.0038 -0.1231 -0.1827
  333PNCE   T1A 2978   3.726   7.656   8.605 -0.1208  0.1495  0.0826
  333PNCE   C2A 2979   3.775   7.594   8.132 -0.0352  0.0385 -0.1288
  333PNCE   C3A 2980   4.089   7.356   8.009  0.0862  0.0707  0.3159
  333PNCE   C1B 2981   3.210   7.685   8.739 -0.3950 -0.0170 -0.0585
  333PNCE   C2B 2982   2.896   7.962   8.494 -0.2447  0.2417  0.4245
  333PNCE   C3B 2983   2.543   7.927   8.405  0.1234 -0.3961  0.1871
  333PNCE   D4B 2984   2.425   7.886   8.092 -0.2441 -0.0993  0.0001
  333PNCE   C5B 2985   2.368   8.099   7.694 -0.1350  0.2532  0.0314
  333PNCE   C6B 2986   2.629   8.331   7.404 -0.0949 -0.4257  0.0207
  334PNCE   AM1 2987  10.780   6.764   8.825  0.0225 -0.0886 -0.1876
  334PNCE   AM2 2988  11.201   6.843   8.722  0.0139 -0.0036  0.0045
  334PNCE   T1A 2989  10.465   6.930   8.532  0.1219  0.2503 -0.0210
  334PNCE   C2A 2990  10.243   7.036   8.149 -0.3487 -0.1260  0.1088
  334PNCE   C3A 2991  10.021   6.954   7.781 -0.0450 -0.1079  0.0652
  334PNCE   C1B 2992  11.090   7.121   8.380  0.0398 -0.1870 -0.0670
  334PNCE   C2B 2993  11.154   7.102   7.965 -0.2170 -0.0235 -0.1719
  334PNCE   C3B 2994  10.956   7.010   7.628  0.0613 -0.0212 -0.2491
  334PNCE   D4B 2995  10.944   7.160   7.177  0.3671 -0.0906 -0.1985
  334PNCE   C5B 2996  10.722   7.089   6.803  0.2915 -0.0544  0.1384
  334PNCE   C6B 2997  10.616   7.131   6.425  0.1166  0.2207  0.0518
  335PNCE   AM1 2998  13.512   1.631   8.342 -0.0368  0.2118 -0.6107
  335PNCE   AM2 2999  13.442   1.448   8.640  0.2636  0.2662 -0.1431
  335PNCE   T1A 3000  13.185   1.756   8.076  0.0202 -0.1156  0.3630
  335PNCE   C2A 3001  12.903   1.918   7.830  0.1456  0.5313  0.2012
  335PNCE   C3A 3002  12.703   1.713   7.537  0.0394 -0.2626  0.1557
  335PNCE   C1B 3003  13.095   1.290   8.295  0.1664 -0.0174 -0.1680
  335PNCE   C2B 3004  12.996   1.295   7.875  0.0047  0.0273 -0.1688
  335PNCE   C3B 3005  12.872   1.119   7.522  0.2803 -0.0514 -0.2844
  335PNCE   D4B 3006  12.468   0.981   7.360 -0.0522 -0.2378 -0.1888
  335PNCE   C5B 3007  12.076   0.761   7.468  0.3638  0.2886  0.0326
  335PNCE   C6B 3008  11.768   0.621   7.772  0.3583 -0.1389  0.0334
  336CHOL   ROH 3009   2.525  15.707   3.951  0.3487  0.2755  0.0048
  336CHOL    R1 3010   2.366  15.778   4.174  0.0779  0.3902 -0.2200
  336CHOL    R2 3011   2.456  15.753   4.435 -0.4500 -0.0573 -0.0728
  336CHOL    R3 3012   2.388  16.016   4.449  0.0744  0.0849  0.0540
  336CHOL    R4 3013   2.450  15.940   4.725 -0.7384 -0.4049  0.1557
  336CHOL    R5 3014   2.267  16.035   4.655 -0.3943  0.0755 -0.1963
  336CHOL    C1 3015   2.384  16.296   4.908 -0.4140 -0.4739  0.4079
  336CHOL    C2 3016   2.572  16.526   5.198  0.3963  0.1126  0.2519
  337XCA    COO 3017  14.908  11.447   8.263 -0.4597 -0.1127  0.0595
  337XCA     C1 3018  15.059  11.481   7.953  0.5135  0.2314 -0.0098
  337XCA     C2 3019  15.074  11.503   7.476  0.2156  0.2731 -0.1756
  337XCA     C3 3020  14.949  11.334   7.099 -0.4388  0.1695 -0.2765
  337XCA     C4 3021  15.057  11.035   6.695  0.2494  0.1731  0.3127
  337XCA     C5 3022  15.302  10.884   6.279  0.3070 -0.0610  0.1148
  337XCA     C6 3023  15.572  10.566   6.079 -0.3529 -0.0333 -0.0027
  338PNCE   AM1 3024  11.885  12.564   8.399  0.0892  0.1151 -0.2607
  338PNCE   AM2 3025  11.646  12.748   8.300 -0.0576  0.1206 -0.3186
  338PNCE   T1A 3026  12.277  12.590   8.284  0.2726  0.2077 -0.0369
  338PNCE   C2A 3027  12.540  12.577   7.906  0.2745  0.4077  0.3028
  338PNCE   C3A 3028  12.640  12.455   7.547  0.4112 -0.0953  0.3813
  338PNCE   C1B 3029  11.988  13.042   8.214 -0.4477  0.1579  0.3386
  338PNCE   C2B 3030  12.131  13.434   8.007 -0.0156 -0.1438  0.0876
  338PNCE   C3B 3031  11.886  13.529   7.618 -0.3905 -0.1117 -0.2236
  338PNCE   D4B 3032  11.763  13.382   7.351  0.0034 -0.1635  0.1698
  338PNCE   C5B 3033  11.480  13.071   7.191 -0.0676 -0.0661 -0.2715
  338PNCE   C6B 3034  11.086  13.017   7.003  0.2565  0.0688  0.1565
  339CHOL   ROH 3035   0.762   2.054   4.349 -0.0264 -0.1816  0.1449
  339CHOL    R1 3036   0.510   1.991   4.462 -0.1083 -0.2088 -0.0475
  339CHOL    R2 3037   0.437   2.071   4.716 -0.2029 -0.4548  0.0097
  339CHOL    R3 3038   0.222   2.175   4.585 -0.0950 -0.2285  0.0102
  339CHOL    R4 3039   0.160   2.211   4.869 -0.2048 -0.4632  0.0125
  339CHOL    R5 3040   0.034   2.114   4.721 -0.1853 -0.2625 -0.1335
  339CHOL    C1 3041  -0.202   2.391   4.836 -0.1045 -0.2555  0.0145
  339CHOL    C2 3042  -0.602   2.223   5.001  0.1910 -0.1609 -0.2235
  340PNCE   AM1 3043  10.712  12.971   9.262 -0.0417 -0.0948 -0.3374
  340PNCE   AM2 3044  10.586  13.314   9.273  0.0962 -0.1414  0.1086
  340PNCE   T1A 3045  10.989  13.104   8.913  0.0574 -0.0982 -0.0897
  340PNCE   C2A 3046  10.933  13.470   8.594  0.0538 -0.0781 -0.3561
  340PNCE   C3A 3047  10.972  13.507   8.177  0.3616  0.0988  0.3047
  340PNCE   C1B 3048  10.399  13.234   8.945 -0.0164  0.2449  0.3961
  340PNCE   C2B 3049  10.456  12.956   8.562 -0.0548  0.2284 -0.0700
  340PNCE   C3B 3050  10.793  13.046   8.297 -0.0865  0.2391  0.0336
  340PNCE   D4B 3051  11.173  12.997   8.065  0.0767 -0.1764 -0.0816
  340PNCE   C5B 3052  11.141  12.914   7.605  0.2105  0.0658  0.0636
  340PNCE   C6B 3053  11.113  12.509   7.295  0.0209  0.1596 -0.3307
  341PNCE   AM1 3054  13.192   4.197   8.494  0.2611  0.1642  0.1063
  341PNCE   AM2 3055  12.919   4.425   8.429  0.4138  0.1680  0.3005
  341PNCE   T1A 3056  13.048   4.025   8.054  0.3273  0.0957 -0.0115
  341PNCE   C2A 3057  12.970   4.183   7.592  0.1195 -0.2108  0.3020
  341PNCE   C3A 3058  12.897   4.392   7.200 -0.4669  0.3012 -0.2136
  341PNCE   C1B 3059  13.112   4.511   8.035  0.4431  0.2600 -0.0081
  341PNCE   C2B 3060  13.312   4.548   7.658  0.1292 -0.0697 -0.0070
  341PNCE   C3B 3061  13.612   4.888   7.489  0.1169 -0.0134  0.3465
  341PNCE   D4B 3062  13.762   5.392   7.286  0.0436  0.0707  0.0711
  341PNCE   C5B 3063  14.189   5.537   7.507  0.0523  0.2589 -0.1589
  341PNCE   C6B 3064  14.311   5.370   7.950  0.1546  0.1791  0.2448
  342PNCE   AM1 3065   1.926   8.439   8.761  0.3075 -0.0824 -0.1483
  342PNCE   AM2 3066   1.810   8.470   8.453 -0.0526  0.0646 -0.0850
  342PNCE   T1A 3067   2.207   8.743   8.778  0.6737  0.3273  0.1560
  342PNCE   C2A 3068   2.611   8.927   8.769 -0.2345  0.1014 -0.2062
  342PNCE   C3A 3069   2.898   9.204   9.003  0.3952 -0.1200 -0.2641
  342PNCE   C1B 3070   2.075   8.600   8.148 -0.2434  0.3436  0.1107
  342PNCE   C2B 3071   2.098   8.620   7.760 -0.0180  0.0371  0.1748
  342PNCE   C3B 3072   2.319   8.709   7.438 -0.1082 -0.2617 -0.0243
  342PNCE   D4B 3073   2.480   8.584   6.975 -0.0095 -0.1659 -0.0113
  342PNCE   C5B 3074   2.689   8.216   6.812 -0.4518 -0.2446  0.1133
  342PNCE   C6B 3075   3.044   8.192   6.682 -0.3029 -0.3109  0.2648
  343CHOL   ROH 3076  10.128   4.715   8.869  0.0867  0.1150 -0.0906
  343CHOL    R1 3077   9.918   4.834   8.721  0.0730  0.1473 -0.0449
  343CHOL    R2 3078   9.929   5.096   8.632  0.0834  0.1521 -0.0262
  343CHOL    R3 3079   9.878   4.982   8.390  0.0292  0.1772 -0.0269
  343CHOL    R4 3080   9.785   5.258   8.363  0.0377  0.1886  0.0200
  343CHOL    R5 3081   9.670   5.077   8.322  0.0189  0.1968  0.0256
  343CHOL    C1 3082   9.654   5.245   7.979 -0.0398  0.2336  0.0463
  343CHOL    C2 3083   9.539   5.328   7.605  0.0961 -0.0904 -0.0396
  344CHOL   ROH 3084  12.492   5.620   8.249 -0.1191 -0.2530  0.1591
  344CHOL    R1 3085  12.601   5.736   8.015 -0.1789 -0.1262  0.1929
  344CHOL    R2 3086  12.703   5.585   7.807 -0.0210 -0.0123  0.1831
  344CHOL    R3 3087  12.528   5.730   7.658 -0.1218 -0.1332  0.1819
  344CHOL    R4 3088  12.710   5.612   7.462  0.0092  0.0616  0.1895
  344CHOL    R5 3089  12.661   5.823   7.483 -0.1744  0.0150  0.2213
  344CHOL    C1 3090  12.551   5.765   7.122 -0.0679 -0.0089  0.1922
  344CHOL    C2 3091  12.331   5.649   6.719 -0.2833 -0.1512 -0.2560
  345PNCE   AM1 3092  10.573   4.363   8.309  0.1471 -0.0258  0.2518
  345PNCE   AM2 3093  10.296   4.605   8.370  0.1048 -0.3250 -0.1444
  345PNCE   T1A 3094  10.619   4.499   7.931  0.0288 -0.3413 -0.2018
  345PNCE   C2A 3095  10.431   4.605   7.545 -0.4303  0.1386 -0.2050
  345PNCE   C3A 3096  10.264   4.621   7.092 -0.2294 -0.0495 -0.2616
  345PNCE   C1B 3097  10.077   4.740   7.985  0.2828  0.1799  0.4880
  345PNCE   C2B 3098   9.915   4.898   7.559  0.3654 -0.1664 -0.0902
  345PNCE   C3B 3099   9.706   4.982   7.216 -0.1856  0.1034 -0.2369
  345PNCE   D4B 3100   9.365   5.173   7.112  0.3147  0.4156  0.0006
  345PNCE   C5B 3101   9.146   5.460   7.335 -0.0777 -0.1240  0.2293
  345PNCE   C6B 3102   8.877   5.750   7.248  0.2878 -0.2386  0.1958
  346PNCE   AM1 3103  12.033   9.157   5.332  0.1422 -0.1381  0.2201
  346PNCE   AM2 3104  11.880   9.437   5.266 -0.0141  0.1898  0.0749
  346PNCE   T1A 3105  12.392   9.048   5.414 -0.2038 -0.0948  0.1069
  346PNCE   C2A 3106  12.741   9.242   5.152 -0.1922 -0.1616 -0.3630
  346PNCE   C3A 3107  12.838   9.663   4.922 -0.1995 -0.1392  0.0300
  346PNCE   C1B 3108  11.900   9.557   5.644 -0.0251  0.0481 -0.0655
  346PNCE   C2B 3109  11.996   9.598   6.210 -0.0024 -0.0820 -0.0546
  346PNCE   C3B 3110  11.960  10.020   6.562 -0.2547 -0.2559  0.0913
  346PNCE   D4B 3111  11.705  10.340   6.642  0.1985  0.3066 -0.0418
  346PNCE   C5B 3112  11.809  10.677   6.621 -0.1541 -0.1114 -0.0261
  346PNCE   C6B 3113  11.931  11.042   6.427 -0.0483  0.0942 -0.2147
  347PNCE   AM1 3114   1.939  12.032   7.761 -0.0179  0.3356 -0.1268
  347PNCE   AM2 3115   2.204  11.768   7.957 -0.1123 -0.0757 -0.1714
  347PNCE   T1A 3116   1.860  11.886   7.331 -0.1708 -0.1282 -0.2459
  347PNCE   C2A 3117   1.740  11.835   6.939 -0.0203  0.1796 -0.2499
  347PNCE   C3A 3118   1.404  11.510   6.808 -0.1156  0.0970 -0.0894
  347PNCE   C1B 3119   2.303  11.589   7.580  0.0644 -0.2158  0.1205
  347PNCE   C2B 3120   2.384  11.591   7.134 -0.0176 -0.0367 -0.2942
  347PNCE   C3B 3121   2.078  11.429   6.904  0.2286  0.3052  0.1238
  347PNCE   D4B 3122   1.971  11.112   6.606 -0.0263  0.0303  0.1219
  347PNCE   C5B 3123   1.875  10.676   6.696 -0.0232  0.0519 -0.2078
  347PNCE   C6B 3124   1.751  10.404   7.124 -0.0943  0.2887  0.0849
  348XCA    COO 3125  14.952   0.275   7.338  0.1529  0.0400  0.4426
  348XCA     C1 3126  15.253   0.020   7.181 -0.3113  0.1358 -0.0343
  348XCA     C2 3127  15.349  -0.093   6.642  0.1137 -0.1606  0.0233
  348XCA     C3 3128  15.451  -0.442   6.400  0.1079  0.1903 -0.1080
  348XCA     C4 3129  15.752  -0.604   6.333  0.1940 -0.2025 -0.3492
  348XCA     C5 3130  16.130  -0.749   6.436 -0.0734  0.3268  0.0989
  348XCA     C6 3131  16.516  -0.664   6.249  0.1824 -0.2124  0.1942
  349XCA    COO 3132   4.596   6.550   8.443  0.1001  0.1451 -0.0726
  349XCA     C1 3133   4.670   6.188   8.141  0.3189  0.2534 -0.3138
  349XCA     C2 3134   4.984   6.224   7.781  0.4029 -0.3210 -0.0778
  349XCA     C3 3135   5.198   6.376   7.493 -0.1430 -0.1617 -0.1905
  349XCA     C4 3136   5.334   6.537   7.136 -0.1978 -0.0302 -0.0931
  349XCA     C5 3137   5.774   6.514   6.926 -0.1297  0.1483 -0.1039
  349XCA     C6 3138   6.053   6.582   6.482 -0.0145  0.3034  0.0150
  350XCA    COO 3139  10.886   2.482   8.582  0.0608  0.0446 -0.0812
  350XCA     C1 3140  10.817   2.255   8.145  0.1480  0.0259 -0.1504
  350XCA     C2 3141  10.791   1.927   7.865 -0.2517  0.1983  0.2379
  350XCA     C3 3142  10.830   1.867   7.398  0.0404  0.1388 -0.0431
  350XCA     C4 3143  10.813   1.829   6.946  0.2561  0.0989  0.0002
  350XCA     C5 3144  10.813   1.963   6.614  0.4734  0.1279 -0.1733
  350XCA     C6 3145  10.617   2.012   6.303  0.0711  0.2123 -0.0483
  351CHOL   ROH 3146   6.935  14.169   5.737 -0.0582  0.0406  0.2525
  351CHOL    R1 3147   6.915  13.888   5.768 -0.3275  0.0453  0.1456
  351CHOL    R2 3148   7.081  13.745   5.935 -0.2108 -0.2257 -0.1927
  351CHOL    R3 3149   6.847  13.656   6.040 -0.1485 -0.0063  0.1480
  351CHOL    R4 3150   7.023  13.422   6.043 -0.4239 -0.2345 -0.3292
  351CHOL    R5 3151   6.824  13.434   5.955 -0.5716  0.0779  0.0183
  351CHOL    C1 3152   6.768  13.150   6.204 -0.4894 -0.0337 -0.0887
  351CHOL    C2 3153   6.619  13.137   6.502 -0.1132  0.1773 -0.1665
  352PNCE   AM1 3154   4.888   9.685   9.096  0.0040 -0.1881  0.1050
  352PNCE   AM2 3155   4.800   9.994   9.078  0.2311 -0.4365 -0.2625
  352PNCE   T1A 3156   4.753   9.222   8.866 -0.0309 -0.0893 -0.2760
  352PNCE   C2A 3157   4.652   9.141   8.417  0.0459 -0.0022  0.0174
  352PNCE   C3A 3158   4.572   9.277   7.944  0.0568 -0.3075 -0.0617
  352PNCE   C1B 3159   4.720  10.094   8.525  0.3585 -0.2897  0.1758
  352PNCE   C2B 3160   4.629  10.213   8.050 -0.3157  0.3213  0.0540
  352PNCE   C3B 3161   4.903  10.167   7.645 -0.0536 -0.0356 -0.2407
  352PNCE   D4B 3162   5.165   9.935   7.404  0.0254  0.0881  0.2875
  352PNCE   C5B 3163   5.146   9.845   6.942  0.0347  0.2610  0.0218
  352PNCE   C6B 3164   5.227   9.881   6.441  0.1638  0.2291  0.0965
  353PNCE   AM1 3165   8.279   1.968   9.190  0.0033 -0.1240  0.0106
  353PNCE   AM2 3166   8.015   1.631   8.992 -0.0307 -0.2151 -0.1994
  353PNCE   T1A 3167   8.409   1.814   8.725  0.0800 -0.2207 -0.4564
  353PNCE   C2A 3168   8.337   1.634   8.311 -0.0667  0.1107 -0.1994
  353PNCE   C3A 3169   8.334   1.424   7.915  0.2797 -0.1913  0.1216
  353PNCE   C1B 3170   8.096   1.311   8.628 -0.2312  0.0438  0.2535
  353PNCE   C2B 3171   8.325   0.897   8.583  0.0439  0.3905 -0.2596
  353PNCE   C3B 3172   8.500   0.776   8.194  0.0092 -0.1194 -0.1735
  353PNCE   D4B 3173   8.668   0.689   7.813  0.3259 -0.2521  0.2108
  353PNCE   C5B 3174   8.754   0.683   7.393  0.1175  0.0659  0.0843
  353PNCE   C6B 3175   8.634   0.652   6.928  0.0307  0.0337 -0.1017
  354PNCE   AM1 3176  13.718   0.055   8.644  0.0781  0.0405 -0.2459
  354PNCE   AM2 3177  13.620   0.273   8.817  0.3957 -0.2092 -0.2426
  354PNCE   T1A 3178  13.702   0.279   8.306 -0.1370  0.1112  0.2279
  354PNCE   C2A 3179  13.739   0.471   7.948 -0.0807  0.1899 -0.2971
  354PNCE   C3A 3180  13.672   0.885   7.765 -0.4522 -0.2595 -0.0327
  354PNCE   C1B 3181  13.329   0.451   8.562  0.0885 -0.4497  0.1048
  354PNCE   C2B 3182  12.915   0.596   8.320 -0.0741 -0.0105 -0.1820
  354PNCE   C3B 3183  12.731   0.998   8.353 -0.1158 -0.0165 -0.0160
  354PNCE   D4B 3184  12.588   1.322   8.339  0.2308 -0.1949 -0.0805
  354PNCE   C5B 3185  12.581   1.529   8.008  0.1904  0.3728  0.2149
  354PNCE   C6B 3186  12.358   1.404   7.627 -0.0287 -0.0993  0.0829
  355XCA    COO 3187  11.986   6.408   4.523 -0.0364  0.0832  0.2272
  355XCA     C1 3188  11.782   6.622   4.857  0.3850 -0.1580  0.0600
  355XCA     C2 3189  11.881   6.600   5.255 -0.1337 -0.0670  0.0536
  355XCA     C3 3190  11.943   6.453   5.717 -0.0496 -0.1515  0.1585
  355XCA     C4 3191  12.113   6.261   6.050  0.0994  0.0301  0.0127
  355XCA     C5 3192  12.221   6.091   6.493  0.0202  0.0307 -0.0340
  355XCA     C6 3193  12.218   6.095   7.005 -0.0797  0.0201 -0.0382
  356CHOL   ROH 3194   4.459  10.966   4.651  0.3665  0.0935  0.1496
  356CHOL    R1 3195   4.494  11.103   4.896  0.0150  0.2126  0.1383
  356CHOL    R2 3196   4.284  11.221   5.032 -0.2486 -0.0690 -0.0154
  356CHOL    R3 3197   4.374  11.068   5.238 -0.1348  0.1184  0.0775
  356CHOL    R4 3198   4.234  11.290   5.367 -0.3796  0.0503 -0.0583
  356CHOL    R5 3199   4.439  11.225   5.406 -0.3193  0.2681  0.0130
  356CHOL    C1 3200   4.290  11.187   5.755 -0.3489  0.2955  0.0040
  356CHOL    C2 3201   3.964  11.379   5.882 -0.1215  0.1951 -0.0953
  357PNCE   AM1 3202  10.508   4.997   8.690  0.0656  0.3899 -0.1625
  357PNCE   AM2 3203  10.350   5.105   8.985 -0.1024  0.4076  0.3187
  357PNCE   T1A 3204  10.299   5.148   8.351  0.1266  0.0439 -0.1537
  357PNCE   C2A 3205  10.136   5.259   7.934  0.0324 -0.0929 -0.1491
  357PNCE   C3A 3206   9.998   5.453   7.507  0.2959 -0.1534  0.2983
  357PNCE   C1B 3207  10.280   5.519   8.843  0.0636  0.0105 -0.0949
  357PNCE   C2B 3208   9.985   5.632   8.620 -0.1941 -0.1128  0.1177
  357PNCE   C3B 3209   9.951   5.667   8.253 -0.0946  0.2429 -0.1181
  357PNCE   D4B 3210   9.895   5.707   7.908  0.2762 -0.0753  0.0159
  357PNCE   C5B 3211  10.035   6.118   7.759 -0.0157 -0.0439 -0.1690
  357PNCE   C6B 3212   9.996   6.505   7.471  0.2569  0.2997 -0.0931
  358CHOL   ROH 3213   2.560   2.610   8.120 -0.0630  0.0087 -0.1479
  358CHOL    R1 3214   2.633   2.869   8.033 -0.1606  0.0237 -0.1862
  358CHOL    R2 3215   2.896   2.944   7.991 -0.1808  0.1522 -0.0830
  358CHOL    R3 3216   2.803   3.012   7.745 -0.1016  0.0346 -0.1469
  358CHOL    R4 3217   3.077   3.115   7.751 -0.1263  0.1114 -0.0710
  358CHOL    R5 3218   2.897   3.228   7.703 -0.1410  0.0466 -0.1864
  358CHOL    C1 3219   3.094   3.280   7.381 -0.0202 -0.0227 -0.1240
  358CHOL    C2 3220   3.363   3.586   7.341 -0.1200 -0.0878 -0.0960
  359XCA    COO 3221  10.935  15.198   8.900 -0.1321  0.1342 -0.1518
  359XCA     C1 3222  10.877  15.196   8.451 -0.2170  0.2624  0.0869
  359XCA     C2 3223  10.982  15.101   7.986 -0.2144 -0.2772  0.1272
  359XCA     C3 3224  11.224  15.139   7.602 -0.1367  0.3808  0.2211
  359XCA     C4 3225  11.492  15.281   7.357  0.2503  0.0428  0.0611
  359XCA     C5 3226  11.503  15.234   6.928  0.0212  0.0791  0.0350
  359XCA     C6 3227  11.302  15.442   6.688  0.0792  0.0515  0.0578
  360PNCE   AM1 3228   4.169   4.690   8.031 -0.3645 -0.0685  0.0590
  360PNCE   AM2 3229   4.312   4.345   7.961 -0.2393  0.0364 -0.1690
  360PNCE   T1A 3230   3.842   4.507   7.754  0.1108 -0.0129  0.0797
  360PNCE   C2A 3231   3.646   4.365   7.426  0.3442  0.0579 -0.0330
  360PNCE   C3A 3232   3.351   4.389   7.077 -0.0026 -0.1584  0.0828
  360PNCE   C1B 3233   4.560   4.374   7.623 -0.1167  0.1051  0.3635
  360PNCE   C2B 3234   4.605   4.578   7.159 -0.2166 -0.0549 -0.2783
  360PNCE   C3B 3235   4.721   4.565   6.811  0.2675 -0.0730 -0.0280
  360PNCE   D4B 3236   4.941   4.481   6.565  0.0942 -0.3276 -0.1878
  360PNCE   C5B 3237   5.202   4.153   6.458  0.0246 -0.0508  0.0210
  360PNCE   C6B 3238   5.367   3.909   6.702  0.0973 -0.1505 -0.4950
  361XCA    COO 3239  13.755  13.397   4.717  0.4666  0.1289 -0.0915
  361XCA     C1 3240  13.860  13.657   5.104 -0.1353  0.3007  0.1395
  361XCA     C2 3241  14.030  13.525   5.490 -0.1182  0.5084  0.0236
  361XCA     C3 3242  13.874  13.104   5.700 -0.2005  0.1503 -0.1565
  361XCA     C4 3243  13.998  12.802   5.956  0.1086 -0.0203 -0.3790
  361XCA     C5 3244  14.242  12.611   6.242 -0.3723 -0.1125  0.0584
  361XCA     C6 3245  14.158  12.215   6.436  0.3019  0.0530  0.1475
  362CHOL   ROH 3246   8.483   0.238   4.804 -0.0616  0.1086 -0.0144
  362CHOL    R1 3247   8.388   0.456   4.957 -0.1197  0.0405  0.0468
  362CHOL    R2 3248   8.160   0.441   5.112 -0.0704 -0.0894  0.1060
  362CHOL    R3 3249   8.327   0.526   5.309 -0.0560 -0.0441  0.0751
  362CHOL    R4 3250   8.069   0.645   5.376 -0.0938 -0.1744  0.1646
  362CHOL    R5 3251   8.258   0.750   5.354 -0.1477 -0.0828  0.1306
  362CHOL    C1 3252   8.173   0.843   5.714 -0.0939 -0.1814  0.1696
  362CHOL    C2 3253   8.067   1.058   6.055  0.1703  0.0028 -0.3745
  363CHOL   ROH 3254   8.811  15.618   5.462  0.1186  0.0851  0.2564
  363CHOL    R1 3255   8.797  15.372   5.601 -0.0207 -0.1066 -0.0870
  363CHOL    R2 3256   8.838  15.128   5.477  0.4123  0.0833 -0.3212
  363CHOL    R3 3257   9.023  15.096   5.674  0.0135 -0.0462  0.0501
  363CHOL    R4 3258   8.936  14.824   5.610  0.3346 -0.0400 -0.5380
  363CHOL    R5 3259   8.938  14.916   5.807 -0.1644 -0.3055 -0.3821
  363CHOL    C1 3260   9.167  14.617   5.872 -0.0851 -0.2332 -0.3158
  363CHOL    C2 3261   9.499  14.549   5.907 -0.2279  0.1206  0.0582
  364CHOL   ROH 3262   7.912  15.280   5.012  0.1754  0.2326 -0.0137
  364CHOL    R1 3263   7.980  15.220   5.280  0.0965  0.2168  0.0036
  364CHOL    R2 3264   7.931  15.395   5.488 -0.0521  0.1676  0.0164
  364CHOL    R3 3265   7.801  15.181   5.595 -0.0110  0.0991 -0.0720
  364CHOL    R4 3266   7.826  15.371   5.817  0.0288 -0.0305  0.0282
  364CHOL    R5 3267   7.890  15.162   5.817  0.0416 -0.0235 -0.1055
  364CHOL    C1 3268   7.644  15.156   6.108  0.1144 -0.2102 -0.0478
  364CHOL    C2 3269   7.656  14.879   6.469 -0.3034 -0.1612  0.0399
  365CHOL   ROH 3270  12.269  11.303   5.062  0.0284 -0.0393  0.0095
  365CHOL    R1 3271  12.002  11.254   5.143  0.0175  0.0656  0.0372
  365CHOL    R2 3272  11.929  11.030   5.287 -0.0740  0.0379 -0.0520
  365CHOL    R3 3273  11.825  11.214   5.459  0.0557  0.0157  0.0526
  365CHOL    R4 3274  11.638  10.988   5.470 -0.0655  0.1098 -0.0211
  365CHOL    R5 3275  11.588  11.196   5.428  0.0394  0.1580  0.0847
  365CHOL    C1 3276  11.371  11.136   5.736  0.0611  0.1308  0.0949
  365CHOL    C2 3277  11.063  10.945   5.753  0.0045  0.2152  0.0052
  366PNCE   AM1 3278   4.949   7.158   8.949 -0.2140  0.1795  0.4756
  366PNCE   AM2 3279   4.946   6.942   8.666 -0.0373  0.0181 -0.0877
  366PNCE   T1A 3280   5.112   7.440   8.735  0.2789  0.0146 -0.0148
  366PNCE   C2A 3281   5.256   7.659   8.501 -0.0307 -0.0340  0.2566
  366PNCE   C3A 3282   4.954   7.595   8.117  0.1245 -0.2989 -0.1058
  366PNCE   C1B 3283   4.931   6.863   8.330 -0.1612 -0.0518 -0.0975
  366PNCE   C2B 3284   4.747   6.632   7.937 -0.3186 -0.4528 -0.1484
  366PNCE   C3B 3285   4.655   6.435   7.413  0.0379 -0.1425 -0.0673
  366PNCE   D4B 3286   4.315   6.151   7.254 -0.0796 -0.0741  0.0969
  366PNCE   C5B 3287   3.993   6.303   6.917  0.4781  0.3588 -0.0482
  366PNCE   C6B 3288   3.786   6.100   6.587 -0.1239 -0.0594 -0.1390
  367CHOL   ROH 3289  10.792   9.739   6.918  0.1441  0.1261  0.0966
  367CHOL    R1 3290  10.634   9.606   7.112 -0.0473  0.2220  0.0076
  367CHOL    R2 3291  10.732   9.402   7.269 -0.3761 -0.1306 -0.2287
  367CHOL    R3 3292  10.642   9.559   7.473 -0.0205 -0.1611 -0.0396
  367CHOL    R4 3293  10.509   9.300   7.513 -0.5061  0.0446 -0.2710
  367CHOL    R5 3294  10.412   9.496   7.499 -0.1411  0.2504 -0.0426
  367CHOL    C1 3295  10.294   9.387   7.845 -0.2479  0.1180 -0.1181
  367CHOL    C2 3296  10.071   9.274   8.125 -0.1323 -0.1016 -0.0163
  368CHOL   ROH 3297   2.681  13.531   4.749 -0.5216  0.1740 -0.0321
  368CHOL    R1 3298   2.724  13.360   4.970 -0.2176  0.1644 -0.0944
  368CHOL    R2 3299   2.691  13.444   5.231 -0.1799  0.0635 -0.0601
  368CHOL    R3 3300   2.525  13.229   5.246  0.0661 -0.1302 -0.0216
  368CHOL    R4 3301   2.614  13.274   5.522 -0.1924  0.2050  0.0206
  368CHOL    R5 3302   2.626  13.087   5.410  0.1210  0.1222  0.1737
  368CHOL    C1 3303   2.413  12.973   5.705  0.0312  0.1056  0.1037
  368CHOL    C2 3304   2.496  13.202   6.036 -0.0997 -0.0042  0.1947
  369PNCE   AM1 3305  15.676   2.409   8.066 -0.0143 -0.2737 -0.2474
  369PNCE   AM2 3306  15.321   2.383   8.161 -0.1233 -0.1311  0.0733
  369PNCE   T1A 3307  15.662   2.362   7.647 -0.1805  0.0329 -0.0507
  369PNCE   C2A 3308  15.767   2.456   7.214 -0.4762  0.0643  0.2185
  369PNCE   C3A 3309  15.990   2.675   7.036 -0.1626 -0.1543  0.0145
  369PNCE   C1B 3310  15.174   2.435   7.771  0.3293  0.1442 -0.2402
  369PNCE   C2B 3311  14.991   2.625   7.398  0.0076 -0.0013  0.0619
  369PNCE   C3B 3312  14.610   2.941   7.157 -0.1164 -0.1954  0.0269
  369PNCE   D4B 3313  14.416   3.337   7.122  0.0096 -0.0380  0.0752
  369PNCE   C5B 3314  14.543   3.723   6.988 -0.1460 -0.0980 -0.1791
  369PNCE   C6B 3315  14.561   3.984   6.630  0.1105  0.0579 -0.2075
  370PNCE   AM1 3316  12.666  12.584   5.039  0.1164  0.1538  0.2560
  370PNCE   AM2 3317  12.507  12.273   4.949 -0.4149  0.0950 -0.1294
  370PNCE   T1A 3318  13.044  12.847   5.218  0.0594  0.0098  0.0853
  370PNCE   C2A 3319  13.306  13.146   5.395  0.2795 -0.2345 -0.1003
  370PNCE   C3A 3320  13.477  13.546   5.324 -0.0461  0.0561  0.0585
  370PNCE   C1B 3321  12.403  12.178   5.361 -0.1741  0.3027 -0.0329
  370PNCE   C2B 3322  12.609  12.112   5.806  0.1611  0.0717 -0.3095
  370PNCE   C3B 3323  12.878  12.061   6.159 -0.0790 -0.3764  0.0358
  370PNCE   D4B 3324  13.112  12.329   6.438 -0.0273 -0.1050 -0.0066
  370PNCE   C5B 3325  13.460  12.454   6.696  0.4098  0.1594 -0.0961
  370PNCE   C6B 3326  13.827  12.198   6.859 -0.1804 -0.0807 -0.1520
  371CHOL   ROH 3327   9.485   8.272   8.633  0.1893  0.1165 -0.0415
  371CHOL    R1 3328   9.704   8.206   8.465  0.0243 -0.0593 -0.1925
  371CHOL    R2 3329   9.671   8.098   8.213 -0.2355 -0.0304 -0.1741
  371CHOL    R3 3330   9.825   8.308   8.137 -0.1153 -0.1535 -0.2743
  371CHOL    R4 3331  10.006   8.077   8.134 -0.1499 -0.1953  0.2097
  371CHOL    R5 3332  10.038   8.266   8.240 -0.2308 -0.0672  0.0090
  371CHOL    C1 3333  10.347   8.263   8.017  0.0129 -0.4069  0.3390
  371CHOL    C2 3334  10.619   8.360   7.697 -0.2017 -0.0144  0.0069
  372CHOL   ROH 3335  15.778   7.102   5.295  0.0663 -0.1484 -0.0282
  372CHOL    R1 3336  15.946   7.053   5.517  0.0426 -0.0319  0.0158
  372CHOL    R2 3337  16.184   7.188   5.556  0.0791 -0.0729 -0.0764
  372CHOL    R3 3338  16.075   7.244   5.798  0.0882  0.1410 -0.1202
  372CHOL    R4 3339  16.364   7.229   5.848  0.0646 -0.2418 -0.0421
  372CHOL    R5 3340  16.208   7.119   5.954 -0.1191 -0.0043 -0.0520
  372CHOL    C1 3341  16.367   7.307   6.245  0.0648 -0.1392 -0.0631
  372CHOL    C2 3342  16.652   7.195   6.321 -0.1904 -0.0722 -0.0071
  373CHOL   ROH 3343  13.174   6.541   5.945 -0.1046  0.2114 -0.2038
  373CHOL    R1 3344  13.157   6.759   6.125 -0.0793  0.0292  0.0239
  373CHOL    R2 3345  13.262   6.748   6.380  0.0993 -0.1775 -0.0504
  373CHOL    R3 3346  13.390   6.975   6.302 -0.0525 -0.0450  0.0776
  373CHOL    R4 3347  13.426   6.965   6.594  0.2376 -0.3603  0.0305
  373CHOL    R5 3348  13.346   7.132   6.478  0.0689 -0.2552  0.2980
  373CHOL    C1 3349  13.643   7.304   6.644  0.1756 -0.3423  0.1979
  373CHOL    C2 3350  13.959   7.597   6.676 -0.1144  0.0539  0.3309
  374XCA    COO 3351  11.341   8.502   9.421  0.3457 -0.1563 -0.3148
  374XCA     C1 3352  11.426   8.846   9.170  0.0268  0.0025  0.0670
  374XCA     C2 3353  11.725   9.010   8.844 -0.0656  0.1422 -0.0880
  374XCA     C3 3354  11.845   9.003   8.387  0.1173  0.3157  0.1499
  374XCA     C4 3355  11.907   8.670   8.042 -0.1437  0.4581  0.1854
  374XCA     C5 3356  12.296   8.395   8.086 -0.0978 -0.0739 -0.2737
  374XCA     C6 3357  12.713   8.047   7.919  0.0885  0.2332  0.0971
  375CHOL   ROH 3358  14.597   9.583   8.828 -0.0032 -0.1497  0.0121
  375CHOL    R1 3359  14.377   9.547   8.654 -0.0030 -0.0393 -0.0093
  375CHOL    R2 3360  14.323   9.306   8.531 -0.1385 -0.0208  0.0300
  375CHOL    R3 3361  14.078   9.339   8.645 -0.1398  0.1505 -0.0159
  375CHOL    R4 3362  14.023   9.208   8.388 -0.1399 -0.1529  0.1190
  375CHOL    R5 3363  13.934   9.393   8.462 -0.1201 -0.0430 -0.0992
  375CHOL    C1 3364  13.620   9.182   8.412 -0.1421 -0.0689  0.1277
  375CHOL    C2 3365  13.232   9.381   8.431 -0.0003 -0.1600 -0.2220
  376PNCE   AM1 3366   7.213   9.320   4.761  0.1166  0.0109 -0.2075
  376PNCE   AM2 3367   7.121   8.938   4.857 -0.3613 -0.1389 -0.1757
  376PNCE   T1A 3368   7.093   9.757   4.920  0.0633 -0.2368  0.1843
  376PNCE   C2A 3369   7.027   9.791   5.387 -0.1904 -0.0281 -0.1114
  376PNCE   C3A 3370   6.792   9.977   5.704 -0.0947 -0.2829  0.2080
  376PNCE   C1B 3371   7.199   8.836   5.376 -0.1868 -0.3875  0.1991
  376PNCE   C2B 3372   7.313   9.278   5.675 -0.0781 -0.0679 -0.2901
  376PNCE   C3B 3373   7.476   9.684   5.707 -0.1445 -0.0611 -0.2295
  376PNCE   D4B 3374   7.604   9.949   6.048  0.1638 -0.1009 -0.0695
  376PNCE   C5B 3375   7.534  10.398   6.076  0.1005 -0.4199 -0.1435
  376PNCE   C6B 3376   7.793  10.831   6.132  0.0447 -0.1648  0.0878
  377XCA    COO 3377  11.285  14.798   5.206 -0.0742  0.0164 -0.2372
  377XCA     C1 3378  11.449  14.600   5.599  0.0655 -0.2339 -0.0311
  377XCA     C2 3379  11.482  14.302   5.883  0.1007  0.0773  0.1729
  377XCA     C3 3380  11.343  14.306   6.252 -0.3800  0.1241 -0.0209
  377XCA     C4 3381  11.241  14.467   6.569 -0.1543 -0.1491  0.0542
  377XCA     C5 3382  11.186  14.263   6.939 -0.0070 -0.1738 -0.1342
  377XCA     C6 3383  10.815  14.388   7.179 -0.2983  0.1009  0.1496
  378PNCE   AM1 3384   1.608   4.699   8.637  0.1050  0.0404  0.1565
  378PNCE   AM2 3385   1.892   4.902   8.701  0.3756  0.1762 -0.0295
  378PNCE   T1A 3386   1.298   4.603   8.360  0.1926  0.0730  0.1498
  378PNCE   C2A 3387   1.272   4.675   7.891  0.0119  0.1047  0.0834
  378PNCE   C3A 3388   1.254   4.931   7.557 -0.3469  0.2599  0.0663
  378PNCE   C1B 3389   1.520   5.108   8.433 -0.1103 -0.1612 -0.2030
  378PNCE   C2B 3390   1.287   5.145   8.034 -0.2161 -0.1891  0.1790
  378PNCE   C3B 3391   0.828   5.066   8.036 -0.0065 -0.0588 -0.0841
  378PNCE   D4B 3392   0.808   5.044   7.677  0.2262  0.2033  0.0853
  378PNCE   C5B 3393   0.603   5.296   7.477  0.1947  0.1749  0.0776
  378PNCE   C6B 3394   0.284   5.310   7.097  0.0464 -0.0014  0.0979
  379CHOL   ROH 3395   2.170   5.476   4.948 -0.0169  0.0083 -0.0525
  379CHOL    R1 3396   1.970   5.504   5.146 -0.0659  0.0775 -0.1112
  379CHOL    R2 3397   1.905   5.301   5.322 -0.1634  0.1115 -0.1068
  379CHOL    R3 3398   1.955   5.491   5.510 -0.1700  0.1205 -0.1140
  379CHOL    R4 3399   1.739   5.330   5.624  0.0736 -0.0948  0.0481
  379CHOL    R5 3400   1.739   5.546   5.598 -0.1438 -0.0888  0.0872
  379CHOL    C1 3401   1.689   5.525   5.975  0.2054 -0.2065  0.1315
  379CHOL    C2 3402   1.646   5.767   6.183 -0.1503 -0.3483  0.3517
  380CHOL   ROH 3403   4.934   7.214   5.543 -0.1154 -0.1276  0.0851
  380CHOL    R1 3404   4.773   7.146   5.766 -0.0568 -0.1086  0.1333
  380CHOL    R2 3405   4.878   7.095   6.016 -0.0081  0.1167  0.1593
  380CHOL    R3 3406   4.702   7.287   6.094 -0.1415  0.0395  0.0534
  380CHOL    R4 3407   4.741   7.119   6.332  0.0665  0.2573  0.1818
  380CHOL    R5 3408   4.550   7.172   6.240 -0.0066  0.0289  0.1909
  380CHOL    C1 3409   4.496   7.313   6.590 -0.0154  0.2666  0.0956
  380CHOL    C2 3410   4.500   7.088   6.970  0.1927  0.0811 -0.1082
  381CHOL   ROH 3411   1.960   4.744   6.320 -0.0216  0.0718  0.0250
  381CHOL    R1 3412   1.915   4.515   6.160 -0.0965 -0.0197  0.1721
  381CHOL    R2 3413   1.676   4.376   6.163 -0.2380  0.2010  0.0811
  381CHOL    R3 3414   1.686   4.418   5.894  0.0400 -0.0141  0.0542
  381CHOL    R4 3415   1.484   4.209   5.929 -0.1253  0.1537  0.0231
  381CHOL    R5 3416   1.658   4.201   5.799 -0.0127 -0.0635  0.1935
  381CHOL    C1 3417   1.381   4.152   5.541  0.2013 -0.0758 -0.0358
  381CHOL    C2 3418   1.202   4.224   5.243  0.2797 -0.1284  0.1716
  382PNCE   AM1 3419  11.608   3.127   8.128  0.0808 -0.1714 -0.1287
  382PNCE   AM2 3420  11.635   3.395   7.968 -0.0288 -0.0305  0.0979
  382PNCE   T1A 3421  11.362   2.901   7.904  0.2474 -0.2852 -0.0459
  382PNCE   C2A 3422  11.166   2.900   7.500  0.1743  0.2165  0.0336
  382PNCE   C3A 3423  10.982   2.638   7.236 -0.2853 -0.0340 -0.0469
  382PNCE   C1B 3424  11.360   3.415   7.560  0.1161  0.0755  0.0314
  382PNCE   C2B 3425  11.300   3.475   7.074 -0.1302  0.1015 -0.0526
  382PNCE   C3B 3426  11.202   3.761   6.714  0.0242  0.0436 -0.0836
  382PNCE   D4B 3427  11.327   4.050   6.353  0.1747  0.2761  0.0791
  382PNCE   C5B 3428  11.782   3.905   6.056  0.0056 -0.1040 -0.0543
  382PNCE   C6B 3429  12.014   4.002   5.707 -0.1231 -0.0663  0.2028
  383PNCE   AM1 3430   2.503   4.483   8.936  0.1331  0.0436  0.1613
  383PNCE   AM2 3431   2.171   4.438   8.750 -0.3369 -0.0172  0.0330
  383PNCE   T1A 3432   2.555   3.991   8.686 -0.2362 -0.2102  0.0237
  383PNCE   C2A 3433   2.812   3.618   8.436 -0.1777  0.3638 -0.2745
  383PNCE   C3A 3434   2.819   3.370   8.151  0.1038  0.0102  0.1809
  383PNCE   C1B 3435   2.024   4.486   8.383 -0.0607  0.1368  0.0730
  383PNCE   C2B 3436   1.888   4.796   8.068  0.0688 -0.1137 -0.2659
  383PNCE   C3B 3437   1.719   5.023   7.792 -0.1349 -0.0667 -0.2936
  383PNCE   D4B 3438   1.709   4.961   7.350  0.0937 -0.2357 -0.0771
  383PNCE   C5B 3439   1.850   4.701   7.035  0.2494  0.1904  0.0904
  383PNCE   C6B 3440   1.745   4.451   6.659  0.2124  0.0479  0.4001
  384PNCE   AM1 3441   5.028  15.572   7.966  0.0705 -0.0732  0.0086
  384PNCE   AM2 3442   5.404  15.545   8.007  0.0646 -0.1581 -0.0276
  384PNCE   T1A 3443   5.126  15.932   7.681  0.1552  0.0597  0.0734
  384PNCE   C2A 3444   5.351  15.977   7.204 -0.2364  0.0170  0.4476
  384PNCE   C3A 3445   5.178  15.942   6.760 -0.0967 -0.0270  0.0855
  384PNCE   C1B 3446   5.653  15.870   7.838  0.1197  0.0563 -0.0672
  384PNCE   C2B 3447   5.654  16.113   7.562 -0.1073  0.2702 -0.1521
  384PNCE   C3B 3448   5.683  16.324   7.127 -0.2504  0.3690  0.1887
  384PNCE   D4B 3449   5.554  16.289   6.753  0.0413  0.1949  0.2459
  384PNCE   C5B 3450   5.306  16.544   6.531 -0.0992 -0.0716  0.0736
  384PNCE   C6B 3451   4.884  16.802   6.423  0.0482 -0.1221 -0.1552
  385CHOL   ROH 3452  10.712   8.259   6.819  0.0119 -0.0603 -0.1614
  385CHOL    R1 3453  10.792   8.490   6.962 -0.1220 -0.0529 -0.0969
  385CHOL    R2 3454  10.611   8.676   7.058 -0.2384 -0.2314  0.0385
  385CHOL    R3 3455  10.736   8.628   7.294 -0.1205 -0.2293 -0.0226
  385CHOL    R4 3456  10.541   8.838   7.354 -0.1669 -0.3078  0.0977
  385CHOL    R5 3457  10.755   8.843   7.396 -0.1512 -0.2412  0.0070
  385CHOL    C1 3458  10.618   8.888   7.749 -0.0146 -0.3503  0.0748
  385CHOL    C2 3459  10.479   9.008   8.089  0.0673 -0.1580  0.2181
  386PNCE   AM1 3460  11.199   2.896   8.521  0.1388 -0.1221 -0.3506
  386PNCE   AM2 3461  11.371   2.714   8.599 -0.0175  0.2564  0.1772
  386PNCE   T1A 3462  10.906   2.746   8.113 -0.0654 -0.2451 -0.3890
  386PNCE   C2A 3463  10.754   2.740   7.778  0.0538 -0.0096 -0.0613
  386PNCE   C3A 3464  10.567   2.459   7.509 -0.1007  0.1841 -0.1137
  386PNCE   C1B 3465  11.310   2.261   8.626 -0.2762 -0.1561 -0.1497
  386PNCE   C2B 3466  11.413   1.976   8.315  0.0002  0.0643  0.6345
  386PNCE   C3B 3467  11.729   1.663   8.071 -0.0220 -0.2259 -0.0737
  386PNCE   D4B 3468  12.054   1.368   8.051  0.3604 -0.1109 -0.0934
  386PNCE   C5B 3469  11.862   1.100   7.778  0.2505 -0.1900 -0.0838
  386PNCE   C6B 3470  11.414   1.056   7.839 -0.0706  0.2854 -0.0113
  387CHOL   ROH 3471   4.883  13.488   7.512 -0.0244  0.1833  0.0104
  387CHOL    R1 3472   4.769  13.341   7.299 -0.1028 -0.1500  0.2791
  387CHOL    R2 3473   4.870  13.348   7.041 -0.6290  0.0339  0.0843
  387CHOL    R3 3474   4.878  13.078   7.071  0.0745  0.0376  0.1352
  387CHOL    R4 3475   4.852  13.121   6.782 -0.9290 -0.0256  0.1500
  387CHOL    R5 3476   4.724  12.996   6.907 -0.2893 -0.3187  0.6040
  387CHOL    C1 3477   4.848  12.735   6.658 -0.4433 -0.0567  0.2361
  387CHOL    C2 3478   4.868  12.307   6.500  0.0111  0.3380  0.2829
  388CHOL   ROH 3479   0.337  13.096   5.474 -0.0525 -0.1805 -0.0089
  388CHOL    R1 3480   0.483  13.338   5.490 -0.1702 -0.1044 -0.0769
  388CHOL    R2 3481   0.710  13.365   5.646 -0.2879  0.1037  0.0631
  388CHOL    R3 3482   0.821  13.449   5.412 -0.1635 -0.0122  0.0790
  388CHOL    R4 3483   1.048  13.414   5.594 -0.2346 -0.1617  0.1392
  388CHOL    R5 3484   0.999  13.593   5.480 -0.0685 -0.1391  0.1025
  388CHOL    C1 3485   1.349  13.522   5.345 -0.0869 -0.4251  0.1983
  388CHOL    C2 3486   1.534  13.238   5.256  0.0887 -0.0993  0.1465
  389PNCE   AM1 3487   3.575  13.073   7.898  0.1679  0.0053  0.1679
  389PNCE   AM2 3488   3.379  13.034   8.161  0.0177  0.4402 -0.1646
  389PNCE   T1A 3489   3.229  12.923   7.650  0.1193  0.1150 -0.2006
  389PNCE   C2A 3490   3.025  13.124   7.242  0.1052 -0.3003  0.1455
  389PNCE   C3A 3491   2.831  13.344   6.886  0.3948  0.0142 -0.0300
  389PNCE   C1B 3492   3.066  13.279   7.961  0.0354  0.3882  0.1197
  389PNCE   C2B 3493   2.909  13.503   7.698 -0.5238 -0.1121 -0.3427
  389PNCE   C3B 3494   2.676  13.548   7.295 -0.1420  0.0192  0.2106
  389PNCE   D4B 3495   2.391  13.538   6.966 -0.2373 -0.0984 -0.0223
  389PNCE   C5B 3496   2.269  13.854   6.589  0.1104  0.1153  0.2241
  389PNCE   C6B 3497   2.286  13.971   6.152 -0.0639  0.1084 -0.0561
  390CHOL   ROH 3498   5.132   9.831   5.198 -0.0142 -0.2005  0.1094
  390CHOL    R1 3499   4.978   9.808   5.434 -0.0212 -0.1329  0.1122
  390CHOL    R2 3500   4.820  10.014   5.529  0.0902 -0.0516  0.1314
  390CHOL    R3 3501   4.625   9.825   5.521 -0.0101  0.0525  0.1197
  390CHOL    R4 3502   4.560   9.990   5.755  0.3239 -0.1970  0.3919
  390CHOL    R5 3503   4.583   9.773   5.751  0.2179 -0.2039  0.1055
  390CHOL    C1 3504   4.224   9.799   5.878  0.3659 -0.1839  0.5326
  390CHOL    C2 3505   3.930   9.861   6.129 -0.3140  0.0444  0.2444
  391XCA    COO 3506   4.124   0.334   3.484  0.0195  0.0481  0.1367
  391XCA     C1 3507   4.009   0.188   3.913  0.0689 -0.0932 -0.0703
  391XCA     C2 3508   3.740  -0.034   4.279 -0.2058  0.0805 -0.1144
  391XCA     C3 3509   3.709  -0.308   4.687 -0.1855 -0.0466 -0.1146
  391XCA     C4 3510   3.859  -0.374   5.099  0.1667 -0.0398 -0.0145
  391XCA     C5 3511   3.742  -0.248   5.407 -0.0279  0.1589 -0.0722
  391XCA     C6 3512   3.608  -0.165   5.732  0.0998 -0.2295 -0.1246
  392CHOL   ROH 3513  15.281   8.337   5.003 -0.0024 -0.0841 -0.1606
  392CHOL    R1 3514  15.290   8.109   5.171  0.0621 -0.0488 -0.1182
  392CHOL    R2 3515  15.461   8.091   5.387 -0.0280  0.0964 -0.0410
  392CHOL    R3 3516  15.232   8.039   5.523 -0.0556 -0.0285 -0.1315
  392CHOL    R4 3517  15.442   7.908   5.679 -0.0077  0.2403  0.0533
  392CHOL    R5 3518  15.260   7.815   5.603  0.1063  0.0344  0.0062
  392CHOL    C1 3519  15.215   7.751   5.977 -0.0217  0.2068  0.0233
  392CHOL    C2 3520  15.232   7.361   6.126 -0.0382  0.0727 -0.0061
  393XCA    COO 3521   8.310   1.208   4.412  0.2515 -0.2782  0.0995
  393XCA     C1 3522   8.537   1.288   4.787 -0.1667 -0.0895 -0.0766
  393XCA     C2 3523   8.563   1.388   5.239  0.0511  0.0558  0.1014
  393XCA     C3 3524   8.479   1.159   5.648 -0.0122 -0.0866 -0.0945
  393XCA     C4 3525   8.500   1.300   6.120  0.0055  0.0198 -0.0358
  393XCA     C5 3526   8.554   1.327   6.470 -0.0668 -0.2605  0.0700
  393XCA     C6 3527   8.549   1.115   6.815  0.1269  0.1293  0.2889
  394PNCE   AM1 3528   7.460   5.403   8.310 -0.2085 -0.1328  0.2089
  394PNCE   AM2 3529   7.303   5.664   8.504 -0.1632 -0.4528  0.1662
  394PNCE   T1A 3530   7.348   5.278   7.862  0.2358 -0.2227 -0.3624
  394PNCE   C2A 3531   7.350   5.214   7.462 -0.0529  0.0284  0.1314
  394PNCE   C3A 3532   7.498   5.358   7.125  0.0344 -0.0948  0.2345
  394PNCE   C1B 3533   7.100   5.794   8.028 -0.0832 -0.4765 -0.0986
  394PNCE   C2B 3534   7.115   5.640   7.613 -0.0079  0.2133 -0.1390
  394PNCE   C3B 3535   7.085   5.583   7.187  0.3851 -0.2158  0.1788
  394PNCE   D4B 3536   7.214   5.846   6.983 -0.0463  0.2579 -0.1498
  394PNCE   C5B 3537   7.307   6.039   6.614  0.1237  0.2626 -0.0602
  394PNCE   C6B 3538   7.385   5.897   6.181 -0.0369 -0.1131 -0.2232
  395CHOL   ROH 3539  10.522   2.799   8.578  0.2061 -0.0248 -0.2316
  395CHOL    R1 3540  10.455   2.660   8.340  0.2062  0.0395 -0.2697
  395CHOL    R2 3541  10.198   2.577   8.285  0.2582 -0.2212 -0.1437
  395CHOL    R3 3542  10.238   2.715   8.054 -0.0522 -0.0329 -0.0906
  395CHOL    R4 3543  10.074   2.484   7.975  0.1523 -0.1656 -0.1186
  395CHOL    R5 3544  10.264   2.545   7.887  0.0253  0.0999 -0.2132
  395CHOL    C1 3545  10.040   2.560   7.579 -0.2009  0.0435 -0.0541
  395CHOL    C2 3546  10.127   2.188   7.355 -0.2677  0.2169 -0.0824
  396CHOL   ROH 3547   4.101  13.934   6.221  0.2276 -0.1876 -0.1578
  396CHOL    R1 3548   3.911  13.854   6.027  0.0250 -0.2684  0.0685
  396CHOL    R2 3549   3.655  13.775   6.094 -0.0468  0.1536  0.3379
  396CHOL    R3 3550   3.583  13.967   5.916  0.1050 -0.0374  0.0639
  396CHOL    R4 3551   3.331  13.841   5.993  0.0296  0.1107  0.0565
  396CHOL    R5 3552   3.405  13.869   5.790  0.1622 -0.1444  0.0666
  396CHOL    C1 3553   3.075  14.060   5.767  0.2165 -0.0933 -0.3645
  396CHOL    C2 3554   2.651  13.986   5.799 -0.1889 -0.1124  0.0728
  397PNCE   AM1 3555   1.525   4.149   8.820  0.1306 -0.0890 -0.2161
  397PNCE   AM2 3556   1.783   4.091   8.945 -0.0484  0.0692  0.0921
  397PNCE   T1A 3557   1.547   4.203   8.424  0.1693  0.1623 -0.2271
  397PNCE   C2A 3558   1.640   4.380   7.992  0.0435 -0.3836 -0.1392
  397PNCE   C3A 3559   1.769   4.532   7.687  0.0533  0.2633  0.1123
  397PNCE   C1B 3560   2.028   3.944   8.513  0.1323 -0.0015  0.1790
  397PNCE   C2B 3561   1.875   3.962   8.047 -0.3431  0.0098 -0.1369
  397PNCE   C3B 3562   1.914   4.004   7.624  0.3754  0.0462  0.0853
  397PNCE   D4B 3563   2.052   3.699   7.327  0.4185  0.0004 -0.1250
  397PNCE   C5B 3564   2.399   3.659   7.093 -0.0808 -0.0622 -0.3946
  397PNCE   C6B 3565   2.575   3.475   6.627 -0.1668  0.5136 -0.1132
  398CHOL   ROH 3566  14.524  13.382   8.050 -0.0524 -0.0432  0.2087
  398CHOL    R1 3567  14.383  13.274   7.830  0.0407 -0.0536  0.1535
  398CHOL    R2 3568  14.245  13.035   7.844  0.0046 -0.0365  0.1164
  398CHOL    R3 3569  14.038  13.187   7.754  0.0665 -0.0218 -0.0011
  398CHOL    R4 3570  13.988  12.919   7.644 -0.0256 -0.0762  0.1785
  398CHOL    R5 3571  13.997  13.105   7.532  0.0508 -0.1575  0.0520
  398CHOL    C1 3572  13.644  12.993   7.443  0.0149 -0.0856  0.1044
  398CHOL    C2 3573  13.370  12.957   7.529  0.0744 -0.3092  0.0889
  399CHOL   ROH 3574  15.527   6.103   7.853  0.1794  0.1270 -0.0082
  399CHOL    R1 3575  15.728   6.066   7.657  0.0655  0.0843 -0.1191
  399CHOL    R2 3576  15.844   5.820   7.608  0.1594  0.1042 -0.0119
  399CHOL    R3 3577  15.767   5.871   7.352 -0.0457 -0.1271 -0.0000
  399CHOL    R4 3578  15.928   5.627   7.334  0.2892  0.0899  0.0375
  399CHOL    R5 3579  15.957   5.810   7.220 -0.0276  0.0772 -0.0672
  399CHOL    C1 3580  15.905   5.563   6.934  0.1720 -0.1356  0.0773
  399CHOL    C2 3581  16.048   5.437   6.500  0.0063 -0.0281  0.0335
  400XCA    COO 3582   9.673  13.801   5.897  0.1664  0.0119  0.2200
  400XCA     C1 3583   9.669  14.008   6.183  0.0083 -0.1647 -0.2159
  400XCA     C2 3584   9.485  13.886   6.553 -0.0023  0.0490  0.2090
  400XCA     C3 3585   9.658  13.808   6.993 -0.0019 -0.2313 -0.1060
  400XCA     C4 3586   9.944  13.580   6.931 -0.4249  0.1127 -0.3057
  400XCA     C5 3587  10.283  13.564   6.623 -0.1125 -0.2507  0.0175
  400XCA     C6 3588  10.619  13.688   6.416  0.1732  0.1486 -0.1374
  401CHOL   ROH 3589   2.464   9.482   9.225  0.0159 -0.1232  0.0349
  401CHOL    R1 3590   2.460   9.477   8.942 -0.1064  0.0681  0.0326
  401CHOL    R2 3591   2.486   9.705   8.789  0.0911  0.1397  0.1769
  401CHOL    R3 3592   2.688   9.565   8.673 -0.1143 -0.0159 -0.0034
  401CHOL    R4 3593   2.613   9.767   8.474  0.0693  0.2594  0.1902
  401CHOL    R5 3594   2.626   9.552   8.442 -0.2074  0.2621 -0.0016
  401CHOL    C1 3595   2.877   9.671   8.181 -0.1363  0.1832  0.0285
  401CHOL    C2 3596   3.145   9.797   7.983  0.1804 -0.3703 -0.0624
  402CHOL   ROH 3597  15.189   1.710   7.560 -0.0941  0.0674 -0.0559
  402CHOL    R1 3598  14.971   1.714   7.379 -0.0906 -0.0173 -0.0609
  402CHOL    R2 3599  14.959   1.887   7.165 -0.0868 -0.1197 -0.1389
  402CHOL    R3 3600  14.922   1.658   7.023 -0.0881 -0.1843 -0.0369
  402CHOL    R4 3601  14.837   1.872   6.842 -0.2173 -0.2685 -0.0846
  402CHOL    R5 3602  14.721   1.696   6.899 -0.1521 -0.2790  0.0311
  402CHOL    C1 3603  14.730   1.648   6.521 -0.2946 -0.4158  0.0428
  402CHOL    C2 3604  14.970   1.634   6.136  0.0490 -0.3202 -0.0002
  403XCA    COO 3605  14.143   5.471   4.906 -0.0949  0.0772  0.0386
  403XCA     C1 3606  14.268   5.121   5.265 -0.1040  0.2219  0.0711
  403XCA     C2 3607  14.556   4.986   5.560  0.1660 -0.2980 -0.0356
  403XCA     C3 3608  14.985   4.819   5.634 -0.3964 -0.0486 -0.2004
  403XCA     C4 3609  15.334   4.870   5.912  0.0440  0.0191 -0.0928
  403XCA     C5 3610  15.257   4.836   6.298 -0.1309  0.1118 -0.0431
  403XCA     C6 3611  15.142   4.592   6.654 -0.3256  0.2093  0.1933
  404XCA    COO 3612  15.434   7.327   8.862 -0.0240  0.0090 -0.1123
  404XCA     C1 3613  15.295   7.531   8.536  0.2164 -0.0775  0.0019
  404XCA     C2 3614  14.962   7.620   8.238  0.0566  0.1074  0.1713
  404XCA     C3 3615  14.687   7.815   7.887 -0.1663 -0.1508 -0.1628
  404XCA     C4 3616  14.518   7.945   7.540  0.0312  0.3036  0.0788
  404XCA     C5 3617  14.690   7.936   7.059 -0.1402 -0.0941  0.0737
  404XCA     C6 3618  14.841   8.014   6.646  0.1229 -0.0102  0.1720
  405PNCE   AM1 3619  15.420  12.210   7.870 -0.1334 -0.1479 -0.0545
  405PNCE   AM2 3620  15.287  11.961   8.029 -0.1090  0.2960  0.0208
  405PNCE   T1A 3621  15.385  12.290   7.384  0.0244 -0.2388  0.1375
  405PNCE   C2A 3622  15.143  12.289   7.098  0.1197 -0.0205  0.1950
  405PNCE   C3A 3623  14.814  12.225   6.787 -0.1587  0.3705 -0.3435
  405PNCE   C1B 3624  15.028  11.997   7.628 -0.1172 -0.1107 -0.1899
  405PNCE   C2B 3625  14.814  11.872   7.134 -0.1088 -0.0462 -0.2913
  405PNCE   C3B 3626  14.700  11.652   6.831  0.1021 -0.0665  0.3134
  405PNCE   D4B 3627  14.672  11.415   6.495  0.0109  0.0912 -0.4019
  405PNCE   C5B 3628  15.155  11.381   6.299 -0.0824 -0.0256 -0.0917
  405PNCE   C6B 3629  15.496  11.317   6.116 -0.0963 -0.0948 -0.2101
  406PNCE   AM1 3630  12.970   8.185   9.525 -0.1302 -0.1426 -0.1152
  406PNCE   AM2 3631  13.289   8.185   9.534  0.1584 -0.1518  0.1260
  406PNCE   T1A 3632  12.924   8.443   9.186  0.2038 -0.0811  0.0717
  406PNCE   C2A 3633  12.698   8.667   8.930 -0.0066 -0.0767  0.2985
  406PNCE   C3A 3634  12.523   8.519   8.518 -0.2640  0.0958 -0.0452
  406PNCE   C1B 3635  13.344   8.643   9.340 -0.0340  0.2304 -0.1368
  406PNCE   C2B 3636  13.685   8.689   9.033 -0.0278 -0.2036  0.3586
  406PNCE   C3B 3637  13.943   8.911   8.700  0.0959  0.0950 -0.2848
  406PNCE   D4B 3638  13.919   8.716   8.173 -0.2409  0.0439 -0.2372
  406PNCE   C5B 3639  13.806   9.080   7.983 -0.0562 -0.1113 -0.3612
  406PNCE   C6B 3640  13.840   9.495   8.031 -0.4658  0.2672 -0.2901
  407PNCE   AM1 3641   7.187   6.507   4.589 -0.2309 -0.2776  0.0515
  407PNCE   AM2 3642   7.353   6.441   4.805 -0.1914 -0.1243 -0.1406
  407PNCE   T1A 3643   6.852   6.455   4.924 -0.1270 -0.0066 -0.1058
  407PNCE   C2A 3644   6.756   6.256   5.321 -0.1659 -0.0514 -0.2466
  407PNCE   C3A 3645   6.640   5.851   5.566  0.1389 -0.0958  0.2979
  407PNCE   C1B 3646   7.285   6.405   5.294  0.1185  0.0867  0.0533
  407PNCE   C2B 3647   7.118   6.092   5.647 -0.2216 -0.6165 -0.2937
  407PNCE   C3B 3648   6.856   5.743   5.970 -0.1047  0.1887  0.2042
  407PNCE   D4B 3649   6.655   5.431   6.064 -0.1876  0.1331  0.0762
  407PNCE   C5B 3650   6.861   5.148   6.249  0.5231 -0.3264 -0.0301
  407PNCE   C6B 3651   6.977   4.811   6.468 -0.0308  0.1187 -0.0110
  408XCA    COO 3652  11.149  10.318   5.380  0.0534  0.0896  0.3065
  408XCA     C1 3653  11.254  10.305   5.740  0.0975 -0.0259  0.2707
  408XCA     C2 3654  11.244  10.655   6.071 -0.0453 -0.0771  0.1291
  408XCA     C3 3655  11.451  10.891   6.348  0.0237 -0.1808 -0.0250
  408XCA     C4 3656  11.510  11.141   6.775 -0.0559 -0.0570  0.3151
  408XCA     C5 3657  11.219  11.366   6.945 -0.2618 -0.4188  0.1164
  408XCA     C6 3658  10.838  11.683   6.940  0.0396 -0.0897 -0.0795
  409XCA    COO 3659  10.815   1.317   9.138  0.0151 -0.1705  0.0706
  409XCA     C1 3660  10.679   1.236   8.727  0.3718 -0.1397 -0.3031
  409XCA     C2 3661  10.345   1.213   8.522  0.0626  0.3306 -0.2699
  409XCA     C3 3662  10.043   1.045   8.353  0.0956  0.0912  0.0797
  409XCA     C4 3663   9.616   1.237   8.290  0.1152  0.0265  0.0624
  409XCA     C5 3664   9.272   1.176   7.912  0.0251  0.0927 -0.0555
  409XCA     C6 3665   9.109   0.930   7.575 -0.3270  0.1096  0.0001
  410CHOL   ROH 3666   6.134   4.450   8.491 -0.0079 -0.2132 -0.0046
  410CHOL    R1 3667   6.188   4.549   8.231  0.0546 -0.1847  0.0189
  410CHOL    R2 3668   6.147   4.399   8.003  0.1365 -0.1697 -0.0061
  410CHOL    R3 3669   5.997   4.614   7.928  0.1332 -0.1803 -0.0299
  410CHOL    R4 3670   6.051   4.471   7.678  0.2568 -0.1291 -0.0331
  410CHOL    R5 3671   6.090   4.681   7.718  0.2080 -0.1298  0.0191
  410CHOL    C1 3672   5.855   4.714   7.420  0.3239 -0.1155 -0.0711
  410CHOL    C2 3673   6.000   4.907   7.108 -0.1439 -0.0394 -0.2737
  411PNCE   AM1 3674   0.611   4.229   8.381 -0.2681 -0.2360  0.1947
  411PNCE   AM2 3675   0.360   4.211   8.119 -0.0510  0.1950 -0.1808
  411PNCE   T1A 3676   0.787   4.532   7.998 -0.0832 -0.1886 -0.3030
  411PNCE   C2A 3677   0.907   4.556   7.554 -0.1969  0.1066  0.0834
  411PNCE   C3A 3678   0.997   4.515   7.166  0.0938 -0.0122  0.4235
  411PNCE   C1B 3679   0.491   4.247   7.655 -0.0032  0.0321 -0.0792
  411PNCE   C2B 3680   0.581   4.242   7.163 -0.3831 -0.1215  0.0732
  411PNCE   C3B 3681   0.480   4.204   6.700  0.1733  0.0877 -0.1831
  411PNCE   D4B 3682   0.278   4.352   6.441 -0.0443 -0.0230  0.2347
  411PNCE   C5B 3683   0.307   4.757   6.130  0.1581  0.1829  0.3074
  411PNCE   C6B 3684   0.413   5.233   6.108 -0.0656 -0.1939 -0.0517
  412CHOL   ROH 3685   2.813   2.381   7.931  0.0580 -0.0544 -0.0906
  412CHOL    R1 3686   2.874   2.601   7.762 -0.1032 -0.0274 -0.1161
  412CHOL    R2 3687   3.134   2.678   7.706 -0.1563  0.1146 -0.1827
  412CHOL    R3 3688   3.051   2.651   7.448 -0.2056  0.0547 -0.1604
  412CHOL    R4 3689   3.231   2.882   7.445 -0.1682  0.0190 -0.2620
  412CHOL    R5 3690   3.027   2.876   7.370 -0.1797  0.0335 -0.2237
  412CHOL    C1 3691   3.211   2.976   7.051 -0.2213 -0.0930 -0.2874
  412CHOL    C2 3692   3.301   3.266   6.943 -0.0143 -0.0690  0.2195
  413CHOL   ROH 3693   5.023   3.567   6.553 -0.0265  0.1181 -0.1612
  413CHOL    R1 3694   4.937   3.719   6.776 -0.0422 -0.0799 -0.0299
  413CHOL    R2 3695   4.860   3.984   6.754  0.1859  0.0106  0.2389
  413CHOL    R3 3696   4.633   3.895   6.874  0.0355  0.0464 -0.0104
  413CHOL    R4 3697   4.681   4.158   6.992  0.1345 -0.0942  0.2785
  413CHOL    R5 3698   4.651   3.971   7.100 -0.0719 -0.1823  0.0804
  413CHOL    C1 3699   4.363   4.176   7.244 -0.0365 -0.1216  0.0674
  413CHOL    C2 3700   4.120   4.297   7.356  0.0791  0.1507 -0.1279
  414CHOL   ROH 3701   9.828   6.988   5.551 -0.0658  0.3159  0.1333
  414CHOL    R1 3702  10.026   6.964   5.752 -0.1173  0.2477  0.1768
  414CHOL    R2 3703   9.964   6.934   6.019 -0.1883 -0.0083  0.1355
  414CHOL    R3 3704  10.124   6.715   5.999 -0.0722  0.0880 -0.0009
  414CHOL    R4 3705  10.043   6.722   6.281  0.1081 -0.0048  0.0518
  414CHOL    R5 3706  10.247   6.712   6.204  0.0639  0.1266 -0.0824
  414CHOL    C1 3707  10.239   6.394   6.414  0.3897  0.0877 -0.1250
  414CHOL    C2 3708  10.435   6.262   6.584 -0.3130 -0.0963 -0.2176
  415XCA    COO 3709   5.173   5.924   4.745 -0.2709 -0.1444  0.0153
  415XCA     C1 3710   5.295   5.826   5.231 -0.0196 -0.2780  0.0440
  415XCA     C2 3711   5.556   5.808   5.609  0.0587 -0.0598 -0.2604
  415XCA     C3 3712   5.642   5.482   5.965 -0.0117  0.1249 -0.2379
  415XCA     C4 3713   5.763   5.529   6.363  0.0909 -0.1130  0.0537
  415XCA     C5 3714   5.956   5.886   6.679  0.1415 -0.0412  0.0156
  415XCA     C6 3715   6.164   5.896   7.026 -0.2169  0.0182  0.3967
  416PNCE   AM1 3716   9.643   8.923   8.867 -0.3039 -0.0552  0.0733
  416PNCE   AM2 3717   9.955   8.989   8.971  0.0461  0.1726  0.2288
  416PNCE   T1A 3718   9.431   8.682   8.480  0.0537  0.3044 -0.2071
  416PNCE   C2A 3719   9.346   8.430   8.153  0.1739 -0.1028 -0.0686
  416PNCE   C3A 3720   9.472   8.207   7.823 -0.1818 -0.2794 -0.2029
  416PNCE   C1B 3721   9.962   8.962   8.558 -0.0896  0.1253  0.2077
  416PNCE   C2B 3722  10.044   8.767   8.065 -0.1268 -0.3349 -0.1039
  416PNCE   C3B 3723   9.817   8.644   7.729  0.0214 -0.2135  0.2645
  416PNCE   D4B 3724   9.510   8.410   7.387  0.3485  0.2603  0.1599
  416PNCE   C5B 3725   9.514   8.614   7.047  0.1755  0.2617  0.0753
  416PNCE   C6B 3726   9.512   8.494   6.614  0.1670  0.0597  0.0125
  417CHOL   ROH 3727  14.545   2.377   3.882  0.0125 -0.0456  0.1784
  417CHOL    R1 3728  14.629   2.553   4.088  0.1468 -0.0316  0.1116
  417CHOL    R2 3729  14.453   2.661   4.272  0.2358  0.1456  0.0879
  417CHOL    R3 3730  14.627   2.554   4.451  0.1803  0.0947  0.1133
  417CHOL    R4 3731  14.452   2.726   4.611 -0.0653 -0.1721  0.1548
  417CHOL    R5 3732  14.670   2.732   4.606 -0.0576 -0.0138  0.3167
  417CHOL    C1 3733  14.615   2.664   4.977 -0.2928 -0.4049  0.2176
  417CHOL    C2 3734  14.572   2.703   5.330 -0.2189  0.3034  0.1467
  418CHOL   ROH 3735  15.265   2.860   7.975 -0.0900 -0.0067 -0.1181
  418CHOL    R1 3736  15.309   2.908   7.700 -0.0848 -0.0343 -0.1234
  418CHOL    R2 3737  15.560   2.895   7.585 -0.0472  0.1512 -0.0817
  418CHOL    R3 3738  15.439   2.720   7.416  0.1236  0.0037 -0.0524
  418CHOL    R4 3739  15.593   2.898   7.241 -0.1552  0.1942 -0.0908
  418CHOL    R5 3740  15.380   2.853   7.226 -0.0987 -0.0712 -0.0317
  418CHOL    C1 3741  15.498   2.736   6.882 -0.0578  0.0808 -0.0686
  418CHOL    C2 3742  15.777   2.750   6.494  0.0441 -0.3122  0.3237
  419XCA    COO 3743   7.290  12.982   4.884  0.2410 -0.0659  0.1567
  419XCA     C1 3744   7.417  12.763   5.255 -0.0051 -0.4687  0.0972
  419XCA     C2 3745   7.753  12.590   5.560  0.0353 -0.2618 -0.0004
  419XCA     C3 3746   8.112  12.528   5.846 -0.0746  0.1023  0.0362
  419XCA     C4 3747   8.170  12.038   6.034  0.2352  0.0635 -0.1481
  419XCA     C5 3748   8.230  11.595   5.939 -0.0388  0.1921 -0.0195
  419XCA     C6 3749   8.232  11.178   6.166 -0.1614 -0.1955 -0.1115
  420PNCE   AM1 3750  12.038  11.314   8.391 -0.2579 -0.3239  0.0532
  420PNCE   AM2 3751  12.422  11.163   8.320  0.1284  0.1622  0.3017
  420PNCE   T1A 3752  11.736  11.263   8.047  0.0226  0.0320 -0.1860
  420PNCE   C2A 3753  11.885  11.247   7.649  0.1617  0.0409  0.3463
  420PNCE   C3A 3754  12.051  11.544   7.387 -0.3580 -0.1213 -0.2941
  420PNCE   C1B 3755  12.359  11.078   7.855 -0.0722 -0.0098  0.2168
  420PNCE   C2B 3756  12.485  11.163   7.450  0.1151 -0.1486 -0.1259
  420PNCE   C3B 3757  12.541  10.926   7.122  0.0602 -0.0279  0.0429
  420PNCE   D4B 3758  12.859  10.965   6.918  0.0605 -0.1762  0.0208
  420PNCE   C5B 3759  12.968  11.163   6.550 -0.1524 -0.2878  0.1105
  420PNCE   C6B 3760  13.073  11.433   6.150 -0.0789  0.0257  0.2429
  421CHOL   ROH 3761   8.701   5.928   9.159  0.2819  0.0504 -0.0613
  421CHOL    R1 3762   8.679   6.062   8.910  0.1127 -0.0825 -0.1205
  421CHOL    R2 3763   8.892   6.192   8.792 -0.0361  0.1006 -0.1978
  421CHOL    R3 3764   8.830   6.033   8.580  0.1160 -0.0665 -0.1192
  421CHOL    R4 3765   8.965   6.266   8.463 -0.1662  0.0303 -0.2431
  421CHOL    R5 3766   8.769   6.187   8.407 -0.0825 -0.2171 -0.1830
  421CHOL    C1 3767   8.950   6.160   8.072 -0.0990 -0.1674 -0.1957
  421CHOL    C2 3768   9.039   6.136   7.685 -0.0972  0.0129  0.0418
  422PNCE   AM1 3769   8.290   8.534   5.239  0.3837  0.0500 -0.3073
  422PNCE   AM2 3770   8.011   8.715   5.371 -0.0985  0.2344 -0.1593
  422PNCE   T1A 3771   8.595   8.534   5.640 -0.3546 -0.1152  0.3084
  422PNCE   C2A 3772   8.639   8.724   6.023  0.3729 -0.0311 -0.0694
  422PNCE   C3A 3773   8.610   8.639   6.409  0.1109 -0.1656 -0.0416
  422PNCE   C1B 3774   8.084   8.614   5.756  0.2723  0.2486  0.0155
  422PNCE   C2B 3775   7.779   8.368   6.058 -0.1177 -0.1400  0.1215
  422PNCE   C3B 3776   7.499   8.174   6.300  0.0266  0.0934 -0.0879
  422PNCE   D4B 3777   7.035   8.184   6.359  0.3680  0.0160 -0.0219
  422PNCE   C5B 3778   6.798   8.678   6.283 -0.1713 -0.0910  0.1062
  422PNCE   C6B 3779   6.633   9.074   6.235 -0.2053 -0.0252 -0.3251
  423PNCE   AM1 3780   2.304  12.655   8.152  0.2507  0.3016 -0.4813
  423PNCE   AM2 3781   2.190  12.323   8.161 -0.3534 -0.0516  0.2759
  423PNCE   T1A 3782   2.300  12.998   7.860  0.3453  0.1896  0.0550
  423PNCE   C2A 3783   2.403  13.385   7.701  0.2946  0.0616  0.1229
  423PNCE   C3A 3784   2.443  13.744   7.640  0.3999  0.0447 -0.0761
  423PNCE   C1B 3785   2.482  12.088   7.805  0.0356 -0.0070 -0.1167
  423PNCE   C2B 3786   2.827  11.835   7.576 -0.2127 -0.0688  0.0898
  423PNCE   C3B 3787   2.881  11.653   7.348  0.3975  0.4364  0.0323
  423PNCE   D4B 3788   2.840  11.346   7.051 -0.2170  0.1352  0.1752
  423PNCE   C5B 3789   3.169  11.319   6.819 -0.3360  0.1333 -0.1469
  423PNCE   C6B 3790   3.588  11.144   6.990 -0.0643  0.0014 -0.0264
  424CHOL   ROH 3791  11.894  15.386   7.127  0.1389  0.1049  0.2278
  424CHOL    R1 3792  11.900  15.530   6.884  0.0038 -0.0736  0.1144
  424CHOL    R2 3793  11.889  15.806   6.874 -0.3408 -0.0840 -0.1032
  424CHOL    R3 3794  12.117  15.779   6.730 -0.2741  0.0814 -0.0298
  424CHOL    R4 3795  11.987  16.017   6.619 -0.3254  0.0683  0.0279
  424CHOL    R5 3796  12.055  15.842   6.507 -0.2089  0.1526 -0.0231
  424CHOL    C1 3797  12.259  16.114   6.334 -0.2538  0.3121  0.1732
  424CHOL    C2 3798  12.157  16.387   6.080 -0.0762 -0.3612 -0.1642
  425PNCE   AM1 3799  12.914   7.641   8.763  0.3249  0.2812 -0.1720
  425PNCE   AM2 3800  12.588   7.563   8.593  0.1932 -0.3281 -0.0743
  425PNCE   T1A 3801  13.300   7.897   8.556 -0.0027  0.0241 -0.0556
  425PNCE   C2A 3802  13.437   8.281   8.238 -0.0087 -0.2632 -0.1357
  425PNCE   C3A 3803  13.619   8.538   7.829 -0.0623 -0.0550 -0.1299
  425PNCE   C1B 3804  12.515   7.654   8.128 -0.0936  0.1008  0.0239
  425PNCE   C2B 3805  12.209   7.900   7.941 -0.0407  0.0248  0.0612
  425PNCE   C3B 3806  11.847   8.143   8.000  0.0424  0.0995  0.0799
  425PNCE   D4B 3807  11.565   8.387   7.706 -0.0766  0.1063 -0.1171
  425PNCE   C5B 3808  11.505   8.321   7.247 -0.0104 -0.3850  0.0394
  425PNCE   C6B 3809  11.609   8.436   6.907  0.2116  0.0193 -0.2474
  426PNCE   AM1 3810  11.182   4.499   8.167 -0.1691 -0.0031 -0.2983
  426PNCE   AM2 3811  11.143   4.265   7.937 -0.1202 -0.3852  0.3213
  426PNCE   T1A 3812  11.638   4.726   8.064  0.0204 -0.0435  0.1645
  426PNCE   C2A 3813  11.754   5.030   7.796  0.1364  0.2963 -0.0707
  426PNCE   C3A 3814  12.026   5.169   7.535  0.1610 -0.1580 -0.1644
  426PNCE   C1B 3815  11.416   4.571   7.657 -0.2734  0.2559 -0.1810
  426PNCE   C2B 3816  11.510   4.873   7.192 -0.1731 -0.3330 -0.0779
  426PNCE   C3B 3817  11.345   5.204   6.979 -0.2461  0.2962 -0.1483
  426PNCE   D4B 3818  11.230   5.662   7.208 -0.0614 -0.1076 -0.1395
  426PNCE   C5B 3819  11.280   6.046   6.910 -0.2154 -0.1477 -0.3024
  426PNCE   C6B 3820  11.203   6.174   6.545 -0.1919 -0.1785 -0.1293
  427PNCE   AM1 3821   8.145  14.978   4.740  0.1329  0.0954  0.0113
  427PNCE   AM2 3822   8.299  15.317   4.754  0.1885 -0.1402 -0.1671
  427PNCE   T1A 3823   8.124  14.793   5.141  0.2332 -0.0708  0.2393
  427PNCE   C2A 3824   8.070  14.651   5.466 -0.0160 -0.1706 -0.1932
  427PNCE   C3A 3825   7.777  14.329   5.720  0.0965 -0.1922 -0.2017
  427PNCE   C1B 3826   8.472  15.119   5.063  0.0696  0.0246  0.4591
  427PNCE   C2B 3827   8.363  15.062   5.524 -0.1074 -0.0175  0.2900
  427PNCE   C3B 3828   8.506  15.135   5.859 -0.2345 -0.1337  0.2608
  427PNCE   D4B 3829   8.522  15.467   6.248 -0.0267  0.1839  0.1201
  427PNCE   C5B 3830   8.706  15.892   6.091  0.0762  0.1160 -0.2209
  427PNCE   C6B 3831   8.838  16.041   5.785 -0.1413  0.0314  0.0977
  428PNCE   AM1 3832   9.351  12.221   8.572  0.0863  0.0175 -0.1782
  428PNCE   AM2 3833   9.369  12.469   8.762  0.2314  0.3639  0.2035
  428PNCE   T1A 3834   9.468  12.157   8.287 -0.3436 -0.0893 -0.2796
  428PNCE   C2A 3835   9.513  12.289   7.946 -0.0006  0.0768 -0.1675
  428PNCE   C3A 3836   9.700  12.317   7.571  0.1463 -0.2794 -0.2237
  428PNCE   C1B 3837   9.272  12.652   8.328 -0.2344 -0.1794 -0.3252
  428PNCE   C2B 3838   9.286  12.747   7.844 -0.1007 -0.2807  0.1726
  428PNCE   C3B 3839   9.082  12.448   7.463  0.0162  0.4260 -0.0725
  428PNCE   D4B 3840   8.990  12.257   7.045  0.2504 -0.0254  0.0818
  428PNCE   C5B 3841   9.330  12.359   6.673 -0.1689  0.0594 -0.0189
  428PNCE   C6B 3842   9.515  12.336   6.227  0.0331  0.0776 -0.1148
  429CHOL   ROH 3843   5.604   9.483   5.040  0.0174  0.0772  0.0851
  429CHOL    R1 3844   5.480   9.629   5.249 -0.0087  0.0103  0.1181
  429CHOL    R2 3845   5.428   9.520   5.497  0.0044 -0.0558  0.0951
  429CHOL    R3 3846   5.569   9.735   5.585 -0.0288 -0.0549  0.1433
  429CHOL    R4 3847   5.385   9.672   5.805 -0.0405 -0.1098  0.1147
  429CHOL    R5 3848   5.408   9.865   5.707 -0.0530 -0.0929  0.1492
  429CHOL    C1 3849   5.492   9.962   6.067 -0.0977 -0.1404  0.1714
  429CHOL    C2 3850   5.391  10.330   6.228 -0.2652 -0.0345  0.1383
  430PNCE   AM1 3851   0.213   0.454   7.013  0.0218 -0.0611 -0.0635
  430PNCE   AM2 3852   0.310   0.307   7.278 -0.2513  0.2751 -0.1591
  430PNCE   T1A 3853   0.269   0.174   6.692  0.2099 -0.0012 -0.0140
  430PNCE   C2A 3854   0.434  -0.188   6.417  0.1586 -0.2534 -0.0217
  430PNCE   C3A 3855   0.243  -0.412   6.018  0.0332 -0.1031 -0.1433
  430PNCE   C1B 3856   0.307  -0.183   7.046  0.1051 -0.0341  0.4864
  430PNCE   C2B 3857   0.179  -0.570   6.959 -0.4110  0.2525  0.1950
  430PNCE   C3B 3858  -0.225  -0.820   6.774 -0.2085  0.3414  0.1888
  430PNCE   D4B 3859  -0.250  -1.121   6.422 -0.2024 -0.1263  0.2906
  430PNCE   C5B 3860  -0.384  -1.608   6.532 -0.0740 -0.2668  0.1638
  430PNCE   C6B 3861  -0.098  -2.012   6.580  0.0865 -0.0625  0.1779
  431PNCE   AM1 3862   6.542  11.012   8.134  0.0688 -0.0023 -0.0549
  431PNCE   AM2 3863   6.962  11.102   8.192  0.1136 -0.0248  0.1758
  431PNCE   T1A 3864   6.582  10.872   7.740  0.0511 -0.0173  0.1069
  431PNCE   C2A 3865   6.562  10.874   7.271 -0.1549 -0.2980 -0.1081
  431PNCE   C3A 3866   6.596  11.193   6.949 -0.0905 -0.1234 -0.1155
  431PNCE   C1B 3867   7.014  11.242   7.834 -0.1416  0.1601 -0.1460
  431PNCE   C2B 3868   6.817  11.428   7.497  0.1039 -0.1033  0.3929
  431PNCE   C3B 3869   6.942  11.541   7.098  0.3035  0.3180  0.0055
  431PNCE   D4B 3870   6.962  11.367   6.651  0.0977 -0.1329 -0.1125
  431PNCE   C5B 3871   6.770  11.648   6.327  0.2258  0.0000  0.0974
  431PNCE   C6B 3872   6.650  11.756   5.967 -0.0599 -0.1728  0.2587
  432XCA    COO 3873   8.987   6.206   9.601 -0.0360  0.1582 -0.4430
  432XCA     C1 3874   9.088   6.208   9.227  0.1234  0.1247  0.3763
  432XCA     C2 3875   9.328   6.074   8.794  0.2396 -0.1066 -0.0284
  432XCA     C3 3876   9.379   6.072   8.382 -0.1752 -0.0170  0.0657
  432XCA     C4 3877   9.404   5.968   7.991  0.1393 -0.1443  0.2849
  432XCA     C5 3878   9.651   5.807   7.517 -0.1109 -0.0775 -0.1414
  432XCA     C6 3879   9.826   6.088   7.200  0.0859  0.0055  0.0192
  433XCA    COO 3880   4.120   4.470   4.642  0.1902  0.0890 -0.2920
  433XCA     C1 3881   3.908   4.192   4.925 -0.0792  0.0859  0.2761
  433XCA     C2 3882   3.446   4.019   5.119 -0.0833  0.0269 -0.0198
  433XCA     C3 3883   3.040   3.974   5.241  0.0336  0.0700 -0.0026
  433XCA     C4 3884   2.978   3.864   5.608 -0.2204 -0.1816 -0.0139
  433XCA     C5 3885   2.764   3.518   5.846 -0.0643 -0.0599  0.1492
  433XCA     C6 3886   2.550   3.199   5.971 -0.0357 -0.0388  0.1076
  434CHOL   ROH 3887  15.592   1.905   7.618  0.0673 -0.2909 -0.3028
  434CHOL    R1 3888  15.448   2.014   7.400 -0.2449 -0.1630 -0.0403
  434CHOL    R2 3889  15.198   2.128   7.429 -0.0563  0.1581  0.4473
  434CHOL    R3 3890  15.315   2.340   7.308 -0.0298 -0.0145  0.1603
  434CHOL    R4 3891  15.083   2.277   7.140 -0.1514 -0.0979  0.3495
  434CHOL    R5 3892  15.290   2.296   7.074 -0.1754 -0.2522  0.2154
  434CHOL    C1 3893  15.127   2.565   6.857 -0.1820 -0.4091  0.0229
  434CHOL    C2 3894  14.931   2.276   6.629  0.1981  0.1479  0.3180
  435CHOL   ROH 3895   7.257   3.659   8.433  0.1910 -0.0845  0.0881
  435CHOL    R1 3896   7.354   3.708   8.172  0.2097 -0.0963  0.0924
  435CHOL    R2 3897   7.524   3.534   8.041  0.1252 -0.1622  0.0650
  435CHOL    R3 3898   7.334   3.545   7.847  0.1243 -0.0452  0.0722
  435CHOL    R4 3899   7.584   3.498   7.702  0.0727 -0.3184  0.0721
  435CHOL    R5 3900   7.441   3.657   7.665  0.2173 -0.1977  0.0327
  435CHOL    C1 3901   7.440   3.486   7.324  0.0413 -0.2994  0.0829
  435CHOL    C2 3902   7.757   3.416   7.220 -0.2155  0.2537  0.2141
  436XCA    COO 3903   1.358   7.638   8.824 -0.0099  0.2092 -0.2763
  436XCA     C1 3904   1.187   7.687   8.432  0.2533 -0.0684 -0.1096
  436XCA     C2 3905   0.992   7.925   8.146 -0.0425  0.0075 -0.0148
  436XCA     C3 3906   0.909   8.253   7.923 -0.5536 -0.1512 -0.1648
  436XCA     C4 3907   0.799   8.434   7.440  0.0308  0.1728  0.1406
  436XCA     C5 3908   1.066   8.652   7.265 -0.0243 -0.0950 -0.0033
  436XCA     C6 3909   1.488   8.580   7.005 -0.1411  0.2398  0.0752
  437CHOL   ROH 3910   0.460   2.851   7.880 -0.0641  0.1484 -0.1084
  437CHOL    R1 3911   0.573   2.875   7.621 -0.0716  0.1169 -0.1147
  437CHOL    R2 3912   0.525   2.693   7.420 -0.0910  0.1011 -0.0963
  437CHOL    R3 3913   0.450   2.914   7.281 -0.0815  0.0935 -0.1137
  437CHOL    R4 3914   0.512   2.714   7.075 -0.3466 -0.0092 -0.0954
  437CHOL    R5 3915   0.595   2.915   7.090 -0.2281 -0.0476 -0.2272
  437CHOL    C1 3916   0.434   2.934   6.744 -0.4864 -0.0807 -0.1112
  437CHOL    C2 3917   0.228   3.084   6.486 -0.0139  0.2646 -0.2370
  438PNCE   AM1 3918  14.718  10.527   8.457 -0.0868  0.0575  0.1763
  438PNCE   AM2 3919  14.706  10.879   8.532  0.3190  0.3645  0.2559
  438PNCE   T1A 3920  14.382  10.371   8.239  0.2384 -0.0269  0.2081
  438PNCE   C2A 3921  13.987  10.273   8.287  0.0057  0.1144  0.3478
  438PNCE   C3A 3922  13.791  10.069   7.947  0.0907  0.1364 -0.2674
  438PNCE   C1B 3923  14.459  10.832   8.161  0.2189 -0.1886 -0.1555
  438PNCE   C2B 3924  14.321  10.714   7.857 -0.3331 -0.2933  0.0220
  438PNCE   C3B 3925  14.065  10.442   7.601  0.1004 -0.0083  0.0019
  438PNCE   D4B 3926  14.101  10.032   7.508  0.2175  0.1342 -0.0872
  438PNCE   C5B 3927  14.506   9.955   7.356  0.1174  0.0407 -0.3259
  438PNCE   C6B 3928  14.632   9.730   7.696  0.0006  0.0224  0.0168
  439XCA    COO 3929   3.188  10.390   4.804 -0.2894 -0.1579 -0.0882
  439XCA     C1 3930   3.017  10.261   5.293 -0.1445  0.2819 -0.3917
  439XCA     C2 3931   3.075  10.383   5.833 -0.3102 -0.3328 -0.2108
  439XCA     C3 3932   3.383  10.474   6.084 -0.0102 -0.0148 -0.0566
  439XCA     C4 3933   3.522  10.800   6.209  0.2451 -0.2496  0.0612
  439XCA     C5 3934   3.347  11.194   6.353  0.2655  0.3624 -0.1417
  439XCA     C6 3935   3.076  11.522   6.344 -0.0360 -0.1635 -0.1992
  440CHOL   ROH 3936   5.366  10.323   7.485 -0.0383 -0.2065 -0.0238
  440CHOL    R1 3937   5.234  10.410   7.250 -0.0238 -0.1884 -0.0265
  440CHOL    R2 3938   4.958  10.411   7.225 -0.0289 -0.1568 -0.0337
  440CHOL    R3 3939   4.997  10.672   7.161  0.0079 -0.1610 -0.0238
  440CHOL    R4 3940   4.732  10.608   7.054 -0.0396 -0.0793  0.0710
  440CHOL    R5 3941   4.899  10.696   6.944 -0.0651 -0.1108  0.0197
  440CHOL    C1 3942   4.637  10.969   6.895 -0.0113 -0.0380  0.1413
  440CHOL    C2 3943   4.576  11.275   6.606 -0.0325  0.0738 -0.1243
  441CHOL   ROH 3944   9.966  13.465   5.952  0.1392  0.0215  0.0970
  441CHOL    R1 3945   9.887  13.541   6.212  0.0418 -0.0011  0.0760
  441CHOL    R2 3946   9.621  13.561   6.287  0.0072 -0.1734  0.0316
  441CHOL    R3 3947   9.697  13.392   6.485  0.0963 -0.1016  0.0565
  441CHOL    R4 3948   9.406  13.408   6.510  0.1141 -0.1386  0.1570
  441CHOL    R5 3949   9.552  13.444   6.668  0.1587 -0.0726  0.0904
  441CHOL    C1 3950   9.353  13.160   6.826  0.2600 -0.0509  0.2534
  441CHOL    C2 3951   9.132  13.032   6.696  0.1207 -0.0388 -0.3214
  442CHOL   ROH 3952  12.167  10.863   6.777  0.1481 -0.1355  0.0126
  442CHOL    R1 3953  12.219  10.652   6.959  0.1259 -0.1760 -0.0287
  442CHOL    R2 3954  12.022  10.479   7.045  0.0969 -0.1367 -0.0202
  442CHOL    R3 3955  12.194  10.289   6.956  0.0312 -0.1700 -0.0787
  442CHOL    R4 3956  11.948  10.142   7.019 -0.0357 -0.0986 -0.1641
  442CHOL    R5 3957  12.149  10.098   7.093 -0.0598 -0.2085 -0.1596
  442CHOL    C1 3958  12.068   9.767   6.921 -0.1745 -0.1076 -0.3028
  442CHOL    C2 3959  11.819   9.464   6.971  0.2523 -0.1848  0.0873
  443CHOL   ROH 3960  15.451   8.341   8.767 -0.1952 -0.1718  0.0989
  443CHOL    R1 3961  15.429   8.249   8.500 -0.1277 -0.1816  0.0967
  443CHOL    R2 3962  15.217   8.095   8.413 -0.1643 -0.0872  0.0208
  443CHOL    R3 3963  15.194   8.290   8.225  0.0059 -0.0913 -0.0055
  443CHOL    R4 3964  15.069   8.055   8.103 -0.1512 -0.0160  0.0050
  443CHOL    R5 3965  15.228   8.176   8.017 -0.0479 -0.1420  0.0124
  443CHOL    C1 3966  14.962   8.215   7.746  0.0163  0.0216 -0.0290
  443CHOL    C2 3967  14.932   8.281   7.371  0.0021  0.0909 -0.2143
  444CHOL   ROH 3968  10.163  10.772   8.397 -0.3033 -0.2048 -0.0433
  444CHOL    R1 3969  10.049  10.818   8.142 -0.2547 -0.2797 -0.0788
  444CHOL    R2 3970  10.168  10.980   7.953 -0.4193 -0.0043  0.0511
  444CHOL    R3 3971  10.144  10.760   7.795  0.0117  0.0186 -0.0617
  444CHOL    R4 3972  10.169  10.985   7.607 -0.4978  0.1921  0.0521
  444CHOL    R5 3973  10.010  10.835   7.611 -0.1906 -0.1535  0.0077
  444CHOL    C1 3974  10.145  10.781   7.258 -0.1389  0.3278 -0.0531
  444CHOL    C2 3975  10.219  11.092   6.973 -0.2045  0.1555  0.1564
  445CHOL   ROH 3976   9.634   8.817   5.729  0.1524 -0.0611  0.0182
  445CHOL    R1 3977   9.744   8.927   5.965 -0.0760  0.0972  0.0552
  445CHOL    R2 3978   9.597   8.961   6.196 -0.1789 -0.2062  0.0441
  445CHOL    R3 3979   9.798   8.817   6.308  0.0686  0.1258  0.0405
  445CHOL    R4 3980   9.647   8.923   6.536 -0.3162 -0.4125  0.0435
  445CHOL    R5 3981   9.862   8.944   6.501 -0.3314  0.0889  0.2004
  445CHOL    C1 3982   9.866   8.766   6.839 -0.1640 -0.2209  0.0398
  445CHOL    C2 3983  10.002   8.766   7.182  0.3789  0.3031 -0.1222
  446XCA    COO 3984  15.873  11.364   4.378  0.1620 -0.0501 -0.0618
  446XCA     C1 3985  15.852  11.580   4.726  0.1418 -0.1443 -0.0528
  446XCA     C2 3986  15.991  11.552   5.051  0.0350  0.1229 -0.0524
  446XCA     C3 3987  16.071  11.538   5.457  0.0481 -0.0366  0.1506
  446XCA     C4 3988  16.323  11.539   5.826 -0.0869  0.1600 -0.0890
  446XCA     C5 3989  16.546  11.675   6.236 -0.2044  0.0739 -0.0204
  446XCA     C6 3990  16.586  12.062   6.482  0.2972  0.1395  0.0556
  447PNCE   AM1 3991   0.960   2.662   4.139  0.1509  0.0848  0.1066
  447PNCE   AM2 3992   0.883   3.002   4.127 -0.2239  0.0190 -0.0578
  447PNCE   T1A 3993   0.740   2.514   4.431 -0.3164 -0.0241 -0.2579
  447PNCE   C2A 3994   0.621   2.431   4.837 -0.1233 -0.0599 -0.1728
  447PNCE   C3A 3995   0.441   2.500   5.332  0.2433  0.2176  0.1090
  447PNCE   C1B 3996   1.144   2.947   4.488  0.0217  0.1390 -0.2146
  447PNCE   C2B 3997   1.137   2.649   4.881 -0.0955  0.0022  0.0375
  447PNCE   C3B 3998   0.981   2.600   5.227 -0.0868  0.1600  0.0527
  447PNCE   D4B 3999   0.903   2.446   5.680 -0.2380  0.0303  0.2989
  447PNCE   C5B 4000   0.567   2.165   5.765  0.1831  0.0603 -0.0237
  447PNCE   C6B 4001   0.144   2.375   5.827  0.1742  0.1109  0.2904
  448PNCE   AM1 4002  12.357   8.877   9.515 -0.2598  0.0724 -0.0207
  448PNCE   AM2 4003  12.403   8.481   9.358 -0.0328 -0.0506  0.0509
  448PNCE   T1A 4004  12.811   9.104   9.334  0.0315  0.1451  0.0062
  448PNCE   C2A 4005  13.206   9.046   9.060  0.1769 -0.0801 -0.0502
  448PNCE   C3A 4006  13.297   8.788   8.675  0.0024 -0.3045 -0.0290
  448PNCE   C1B 4007  12.212   8.753   9.044 -0.0489 -0.0525  0.1419
  448PNCE   C2B 4008  12.276   8.971   8.722  0.0594  0.0994  0.0307
  448PNCE   C3B 4009  12.302   8.872   8.235 -0.0411 -0.1032  0.0140
  448PNCE   D4B 4010  12.236   8.973   7.819 -0.0723 -0.2051 -0.0463
  448PNCE   C5B 4011  12.615   9.236   7.524 -0.0621 -0.2147 -0.2198
  448PNCE   C6B 4012  12.915   9.592   7.176  0.2470 -0.2011 -0.2734
  449CHOL   ROH 4013   8.409  10.843   7.761 -0.1847 -0.0193 -0.1688
  449CHOL    R1 4014   8.469  10.948   7.504  0.0744  0.0414 -0.0878
  449CHOL    R2 4015   8.722  11.034   7.434  0.2402 -0.2857  0.0649
  449CHOL    R3 4016   8.689  10.860   7.228  0.0638 -0.1281 -0.0416
  449CHOL    R4 4017   8.845  11.080   7.114  0.1751 -0.1663  0.0572
  449CHOL    R5 4018   8.658  10.999   7.036  0.1025  0.0125  0.0579
  449CHOL    C1 4019   8.885  10.943   6.735 -0.0284  0.0511 -0.0474
  449CHOL    C2 4020   9.077  10.776   6.497  0.0426  0.2556 -0.0314
  450PNCE   AM1 4021   0.808  12.815   4.418 -0.2918 -0.2365  0.1871
  450PNCE   AM2 4022   0.844  13.141   4.429  0.3510 -0.0263  0.3933
  450PNCE   T1A 4023   1.049  12.953   4.811  0.4698 -0.0105  0.2110
  450PNCE   C2A 4024   1.091  13.079   5.217 -0.2808  0.3366 -0.2093
  450PNCE   C3A 4025   1.244  12.838   5.533 -0.0445  0.0761 -0.0001
  450PNCE   C1B 4026   0.504  13.475   4.443 -0.1074  0.0549 -0.0303
  450PNCE   C2B 4027   0.149  13.756   4.634 -0.1473 -0.0250 -0.2255
  450PNCE   C3B 4028  -0.340  13.830   4.858  0.0863 -0.0201  0.1634
  450PNCE   D4B 4029  -0.379  13.890   5.349  0.0437 -0.2508  0.2361
  450PNCE   C5B 4030  -0.639  13.639   5.593 -0.0292 -0.0541 -0.1527
  450PNCE   C6B 4031  -0.931  13.280   5.795 -0.2463 -0.1409  0.1883
  451PNCE   AM1 4032   0.886   2.465   7.772 -0.0012  0.1964  0.4370
  451PNCE   AM2 4033   0.676   2.297   7.614 -0.1633  0.0235  0.0353
  451PNCE   T1A 4034   1.004   2.720   7.370  0.0620  0.2543 -0.3694
  451PNCE   C2A 4035   1.039   2.960   6.954  0.0211 -0.2237 -0.1073
  451PNCE   C3A 4036   0.820   3.254   6.791 -0.1504  0.0273  0.0209
  451PNCE   C1B 4037   0.649   2.298   7.219  0.1484  0.0210  0.1362
  451PNCE   C2B 4038   0.963   2.387   6.951  0.0111 -0.3091 -0.1661
  451PNCE   C3B 4039   0.908   2.559   6.553 -0.0818 -0.1057  0.3068
  451PNCE   D4B 4040   0.924   2.518   6.132  0.1355  0.0199 -0.0112
  451PNCE   C5B 4041   0.950   2.127   6.105 -0.3139  0.3268  0.0717
  451PNCE   C6B 4042   1.155   1.757   6.268  0.2469 -0.1159 -0.1042
  452PNCE   AM1 4043   7.745   5.496   8.767  0.0359  0.2306  0.0454
  452PNCE   AM2 4044   7.987   5.617   8.898  0.0439 -0.2537  0.1277
  452PNCE   T1A 4045   7.957   5.519   8.450  0.1471 -0.0633  0.3194
  452PNCE   C2A 4046   8.071   5.396   7.995  0.1032  0.1377 -0.1473
  452PNCE   C3A 4047   8.195   5.339   7.641  0.0461 -0.3004 -0.1923
  452PNCE   C1B 4048   8.354   5.678   8.728  0.0453  0.0167  0.0560
  452PNCE   C2B 4049   8.531   5.777   8.297 -0.2236  0.2406  0.2126
  452PNCE   C3B 4050   8.482   6.148   8.050 -0.3278  0.4172 -0.1772
  452PNCE   D4B 4051   8.234   6.500   7.820  0.2632  0.0819  0.0626
  452PNCE   C5B 4052   8.382   6.663   7.509 -0.0727 -0.2469 -0.4135
  452PNCE   C6B 4053   8.368   6.835   7.113  0.2554  0.0192  0.1130
  453PNCE   AM1 4054  11.341   5.076   8.320  0.1323 -0.1650 -0.1149
  453PNCE   AM2 4055  11.264   5.019   7.961 -0.2890  0.1617  0.0817
  453PNCE   T1A 4056  11.529   5.400   8.066  0.0693 -0.1628  0.1785
  453PNCE   C2A 4057  11.690   5.779   7.919  0.0506 -0.3179  0.0308
  453PNCE   C3A 4058  11.782   6.216   7.904 -0.1870  0.0106 -0.0232
  453PNCE   C1B 4059  11.326   5.146   7.578  0.0108 -0.3767 -0.0750
  453PNCE   C2B 4060  11.618   5.394   7.387  0.1084  0.1320  0.2494
  453PNCE   C3B 4061  11.627   5.552   6.976  0.2499  0.0118  0.0939
  453PNCE   D4B 4062  11.813   5.854   6.831  0.0607  0.2119 -0.0828
  453PNCE   C5B 4063  11.635   6.014   6.509 -0.2302  0.1089  0.0105
  453PNCE   C6B 4064  11.625   6.245   6.178 -0.1929 -0.2090 -0.2063
  454CHOL   ROH 4065  10.035  12.126   7.273  0.2964 -0.0301  0.1314
  454CHOL    R1 4066   9.979  11.996   7.028  0.1924 -0.0687  0.1754
  454CHOL    R2 4067   9.790  12.090   6.850  0.0890 -0.1209  0.2613
  454CHOL    R3 4068   9.997  12.081   6.674 -0.0002 -0.1108  0.1536
  454CHOL    R4 4069   9.756  12.050   6.508 -0.0968 -0.0017  0.2639
  454CHOL    R5 4070   9.929  11.917   6.512 -0.1220 -0.0446  0.1333
  454CHOL    C1 4071   9.931  12.019   6.144 -0.2886  0.0773  0.1642
  454CHOL    C2 4072   9.786  12.030   5.851 -0.1610  0.1334 -0.1642
  455PNCE   AM1 4073  10.357  11.828   8.820 -0.0317  0.3524 -0.3182
  455PNCE   AM2 4074  10.574  11.579   8.756 -0.0228 -0.1464  0.0120
  455PNCE   T1A 4075  10.333  12.249   8.586  0.0849  0.1708  0.1093
  455PNCE   C2A 4076  10.277  12.616   8.237 -0.0401  0.1993 -0.1523
  455PNCE   C3A 4077  10.346  12.961   8.073  0.0493  0.0133  0.2356
  455PNCE   C1B 4078  10.631  11.763   8.300 -0.4457  0.0461  0.1159
  455PNCE   C2B 4079  10.828  11.647   7.851 -0.1232  0.0155  0.1872
  455PNCE   C3B 4080  11.001  11.511   7.386 -0.1973  0.0523  0.1914
  455PNCE   D4B 4081  10.723  11.228   7.087  0.2703  0.0472  0.2037
  455PNCE   C5B 4082  10.631  10.871   7.234  0.0682  0.2261  0.0026
  455PNCE   C6B 4083  10.500  10.489   7.398  0.3899  0.1391 -0.0133
  456PNCE   AM1 4084   9.343   5.765   9.603 -0.3069  0.0787  0.0927
  456PNCE   AM2 4085   9.498   5.479   9.471  0.0686  0.2845 -0.0186
  456PNCE   T1A 4086   9.095   5.688   9.203  0.2662 -0.0236  0.0856
  456PNCE   C2A 4087   8.968   5.659   8.860 -0.0328  0.0963  0.3347
  456PNCE   C3A 4088   8.995   5.623   8.458  0.0053  0.0519 -0.3110
  456PNCE   C1B 4089   9.373   5.184   9.177  0.2334  0.1199 -0.0800
  456PNCE   C2B 4090   9.167   5.102   8.758 -0.1858 -0.2296  0.2437
  456PNCE   C3B 4091   9.241   5.122   8.262 -0.0430 -0.0271  0.2646
  456PNCE   D4B 4092   9.187   5.240   7.913  0.1208  0.0204 -0.0341
  456PNCE   C5B 4093   8.952   5.629   7.952 -0.1257  0.0973  0.1215
  456PNCE   C6B 4094   8.589   5.767   7.694 -0.1341  0.1255 -0.0880
  457PNCE   AM1 4095   7.895   0.253   9.096 -0.0293 -0.0156  0.1200
  457PNCE   AM2 4096   7.676   0.260   8.861  0.0703 -0.0782 -0.0474
  457PNCE   T1A 4097   8.179   0.124   8.747 -0.0737  0.3303  0.1353
  457PNCE   C2A 4098   8.349   0.139   8.360 -0.2182 -0.3252 -0.1193
  457PNCE   C3A 4099   8.265   0.399   7.945 -0.3025 -0.0048 -0.0519
  457PNCE   C1B 4100   7.817   0.132   8.437  0.0712  0.0475 -0.0417
  457PNCE   C2B 4101   7.867   0.085   8.022 -0.1913  0.4224  0.3476
  457PNCE   C3B 4102   7.913   0.333   7.582  0.3908 -0.0785 -0.0075
  457PNCE   D4B 4103   7.842   0.267   7.174  0.1250  0.1173  0.1018
  457PNCE   C5B 4104   8.140   0.375   6.753 -0.1037  0.4273  0.0890
  457PNCE   C6B 4105   8.267   0.689   6.426 -0.0422 -0.3802  0.0203
  458PNCE   AM1 4106  14.002   7.982   8.932 -0.0272 -0.1680 -0.1093
  458PNCE   AM2 4107  14.218   8.221   9.104 -0.1358 -0.1935  0.1686
  458PNCE   T1A 4108  14.274   7.925   8.565  0.0056 -0.1275 -0.0738
  458PNCE   C2A 4109  14.629   8.064   8.281  0.0286 -0.2111 -0.3289
  458PNCE   C3A 4110  14.740   8.463   8.231  0.1502 -0.1108  0.0535
  458PNCE   C1B 4111  14.195   8.470   8.736 -0.2653 -0.0466  0.0813
  458PNCE   C2B 4112  14.489   8.816   8.502  0.1751  0.0295 -0.1104
  458PNCE   C3B 4113  14.370   9.001   8.193 -0.0757  0.3027 -0.1966
  458PNCE   D4B 4114  14.338   8.939   7.797  0.1382 -0.1587 -0.3569
  458PNCE   C5B 4115  13.989   8.737   7.549 -0.0096  0.1787 -0.2460
  458PNCE   C6B 4116  13.862   8.503   7.269  0.1023 -0.0752 -0.0798
  459XCA    COO 4117  15.009  13.581   8.116  0.0592  0.1497  0.3060
  459XCA     C1 4118  14.975  13.814   7.636 -0.0949  0.2977 -0.1710
  459XCA     C2 4119  15.137  14.132   7.275  0.1002  0.1925 -0.0340
  459XCA     C3 4120  15.091  14.205   6.772  0.3764  0.4129  0.2487
  459XCA     C4 4121  15.010  14.261   6.336  0.2314 -0.0434 -0.2625
  459XCA     C5 4122  14.964  13.903   6.100  0.3214 -0.1071  0.0384
  459XCA     C6 4123  15.254  13.595   6.185  0.0758 -0.2218  0.2346
  460CHOL   ROH 4124  15.604   8.780   8.659  0.0177  0.0302  0.0332
  460CHOL    R1 4125  15.531   8.719   8.392  0.1106  0.0345  0.0083
  460CHOL    R2 4126  15.711   8.729   8.183  0.2021 -0.0514  0.0918
  460CHOL    R3 4127  15.628   8.474   8.141  0.1239 -0.0246  0.0679
  460CHOL    R4 4128  15.669   8.584   7.872  0.5077 -0.1129  0.0743
  460CHOL    R5 4129  15.488   8.488   7.947  0.3604 -0.0033 -0.1122
  460CHOL    C1 4130  15.566   8.259   7.653  0.6122 -0.1237  0.0415
  460CHOL    C2 4131  15.571   8.203   7.344 -0.1924  0.0260 -0.1159
  461CHOL   ROH 4132  13.601  10.533   7.107  0.0346  0.0883 -0.0417
  461CHOL    R1 4133  13.685  10.798   7.161  0.0174  0.0675  0.0924
  461CHOL    R2 4134  13.511  10.997   7.241 -0.0161  0.0447  0.0722
  461CHOL    R3 4135  13.687  11.022   7.447 -0.1191 -0.0294  0.1712
  461CHOL    R4 4136  13.530  11.270   7.453  0.0532  0.0919  0.0053
  461CHOL    R5 4137  13.747  11.254   7.446  0.0508 -0.0705  0.1394
  461CHOL    C1 4138  13.707  11.452   7.769 -0.0033  0.0499  0.0594
  461CHOL    C2 4139  13.761  11.701   8.090 -0.0821 -0.0372  0.0305
  462CHOL   ROH 4140  15.680   0.094   6.409  0.2286 -0.0339 -0.0138
  462CHOL    R1 4141  15.933   0.034   6.297  0.2848  0.0729  0.0537
  462CHOL    R2 4142  15.978   0.032   6.025  0.2688 -0.2394  0.0503
  462CHOL    R3 4143  16.178   0.205   6.090  0.1016  0.0519 -0.1855
  462CHOL    R4 4144  16.271   0.070   5.846  0.3621 -0.4326  0.1588
  462CHOL    R5 4145  16.379   0.085   6.035  0.2264  0.0615  0.2123
  462CHOL    C1 4146  16.630   0.254   5.802  0.2596 -0.2715  0.0006
  462CHOL    C2 4147  16.858   0.430   5.553 -0.0959  0.0608  0.2475
  463CHOL   ROH 4148   9.183   3.752   8.462 -0.0608  0.0277  0.0513
  463CHOL    R1 4149   9.143   3.828   8.192 -0.0148  0.0305  0.0458
  463CHOL    R2 4150   8.899   3.799   8.064 -0.0034  0.0749  0.0195
  463CHOL    R3 4151   8.931   4.064   8.013  0.0517  0.0682  0.0148
  463CHOL    R4 4152   8.728   3.975   7.821  0.0128  0.1084  0.0317
  463CHOL    R5 4153   8.912   4.081   7.775  0.0348  0.0679  0.0143
  463CHOL    C1 4154   8.658   4.327   7.632  0.0739  0.1216  0.0343
  463CHOL    C2 4155   8.843   4.685   7.371  0.1009  0.2141  0.1044
  464CHOL   ROH 4156   9.507   3.495   8.510 -0.1219 -0.1692  0.0506
  464CHOL    R1 4157   9.503   3.367   8.258  0.1986 -0.1976  0.0579
  464CHOL    R2 4158   9.374   3.474   8.038 -0.1084 -0.5431  0.0697
  464CHOL    R3 4159   9.617   3.443   7.921 -0.0215  0.0920  0.0424
  464CHOL    R4 4160   9.425   3.422   7.700 -0.0450 -0.6356  0.0917
  464CHOL    R5 4161   9.580   3.278   7.751  0.4134 -0.1572  0.1660
  464CHOL    C1 4162   9.682   3.362   7.393  0.0734 -0.0933  0.0790
  464CHOL    C2 4163   9.549   3.419   6.976  0.0666 -0.0192 -0.3524
  465XCA    COO 4164  13.174  14.902   8.628 -0.1319  0.0290  0.1958
  465XCA     C1 4165  12.963  14.818   8.268  0.1736  0.0348  0.0024
  465XCA     C2 4166  12.727  14.911   7.956  0.1557 -0.0152  0.1331
  465XCA     C3 4167  12.582  14.875   7.550  0.0090  0.1207  0.0160
  465XCA     C4 4168  12.519  14.521   7.356  0.0656 -0.0127  0.1890
  465XCA     C5 4169  12.580  14.257   6.918  0.0102  0.2731 -0.0238
  465XCA     C6 4170  12.580  14.046   6.575  0.2516 -0.0682 -0.1124
  466PNCE   AM1 4171  10.816  14.271   9.214 -0.1570 -0.0722 -0.1552
  466PNCE   AM2 4172  11.040  14.382   9.151 -0.2030 -0.5944 -0.3484
  466PNCE   T1A 4173  10.773  14.209   8.788 -0.0071 -0.4738 -0.0993
  466PNCE   C2A 4174  10.521  14.298   8.448 -0.1067 -0.0769 -0.0866
  466PNCE   C3A 4175  10.327  14.459   7.919 -0.0835 -0.1037  0.0841
  466PNCE   C1B 4176  11.419  14.397   8.864  0.3293 -0.0445 -0.1506
  466PNCE   C2B 4177  11.719  14.690   8.629 -0.0131 -0.1108 -0.2206
  466PNCE   C3B 4178  11.934  14.683   8.105  0.2420  0.3010 -0.3759
  466PNCE   D4B 4179  12.187  14.710   7.773 -0.0228  0.1118  0.1353
  466PNCE   C5B 4180  12.035  14.467   7.466 -0.0388  0.1368  0.1614
  466PNCE   C6B 4181  12.169  14.150   7.210 -0.1617 -0.0833  0.1521
  467PNCE   AM1 4182   1.746  15.671   8.018  0.0625 -0.1032 -0.2205
  467PNCE   AM2 4183   1.618  15.898   7.825  0.3214  0.0627  0.0932
  467PNCE   T1A 4184   1.917  15.567   7.610 -0.0072 -0.1454 -0.0847
  467PNCE   C2A 4185   2.072  15.596   7.212 -0.0134  0.2066 -0.2573
  467PNCE   C3A 4186   2.152  15.646   6.788  0.3055 -0.2036 -0.0638
  467PNCE   C1B 4187   1.588  15.940   7.352  0.2399 -0.4087  0.1292
  467PNCE   C2B 4188   1.806  15.968   7.040 -0.1935 -0.0761  0.3486
  467PNCE   C3B 4189   1.634  16.082   6.681  0.2100  0.2011  0.0705
  467PNCE   D4B 4190   1.828  16.263   6.376 -0.1243  0.0698  0.1017
  467PNCE   C5B 4191   1.519  16.558   6.223 -0.0490  0.3721  0.2574
  467PNCE   C6B 4192   1.172  16.358   5.989 -0.1752  0.1480  0.0644
  468XCA    COO 4193   0.413   3.289   7.914  0.0394  0.0918  0.0111
  468XCA     C1 4194   0.541   3.646   7.814 -0.0494  0.1698 -0.0016
  468XCA     C2 4195   0.443   3.824   7.433 -0.0322 -0.2557  0.0442
  468XCA     C3 4196   0.309   3.859   7.024 -0.1549 -0.4422  0.1626
  468XCA     C4 4197  -0.177   3.776   6.848 -0.1329 -0.3305 -0.1310
  468XCA     C5 4198  -0.529   3.522   6.681  0.1551  0.3688  0.0622
  468XCA     C6 4199  -0.726   3.557   6.197 -0.3834 -0.1806  0.1523
  469PNCE   AM1 4200   6.742   5.104   8.546  0.1944 -0.1754  0.0548
  469PNCE   AM2 4201   7.057   5.177   8.490  0.1305  0.0262  0.1715
  469PNCE   T1A 4202   6.612   4.736   8.299  0.0994 -0.1094  0.0377
  469PNCE   C2A 4203   6.532   4.579   7.864 -0.3239  0.1237 -0.0497
  469PNCE   C3A 4204   6.363   4.599   7.372 -0.1552 -0.0012 -0.1582
  469PNCE   C1B 4205   7.080   4.862   8.155  0.1156 -0.0331 -0.0487
  469PNCE   C2B 4206   7.031   4.465   7.897  0.2121 -0.2165 -0.0109
  469PNCE   C3B 4207   6.854   4.304   7.467 -0.1919  0.0609 -0.2370
  469PNCE   D4B 4208   6.528   4.155   7.231 -0.0897  0.0861  0.0622
  469PNCE   C5B 4209   6.660   4.027   6.842  0.0328  0.1070  0.1426
  469PNCE   C6B 4210   6.991   3.901   6.656  0.0374  0.0993 -0.1344
  470XCA    COO 4211  11.621   8.088   9.215 -0.0293 -0.1702 -0.1600
  470XCA     C1 4212  11.632   8.444   8.996 -0.4755 -0.1738  0.3609
  470XCA     C2 4213  11.474   8.599   8.635 -0.1528 -0.4292  0.0333
  470XCA     C3 4214  11.367   8.455   8.196 -0.0363  0.3968 -0.2486
  470XCA     C4 4215  11.287   8.101   7.992 -0.1345 -0.0332  0.2190
  470XCA     C5 4216  11.161   7.939   7.677  0.3618  0.0861  0.0775
  470XCA     C6 4217  11.021   8.105   7.396  0.0615  0.3023  0.0696
  471XCA    COO 4218   8.100   9.253   8.598 -0.1020 -0.3751 -0.1109
  471XCA     C1 4219   8.061   9.021   8.171 -0.2166  0.1880  0.0557
  471XCA     C2 4220   8.115   8.839   7.731 -0.1936  0.0577  0.2634
  471XCA     C3 4221   8.078   8.574   7.438 -0.0028  0.0116 -0.1804
  471XCA     C4 4222   8.240   8.574   7.022 -0.0768 -0.0441 -0.2452
  471XCA     C5 4223   8.163   8.529   6.532 -0.1297  0.2570 -0.1193
  471XCA     C6 4224   8.280   8.335   6.150 -0.2195 -0.3255 -0.0854
  472PNCE   AM1 4225   9.035   1.613   9.058  0.3273  0.1485  0.3654
  472PNCE   AM2 4226   9.361   1.579   9.200  0.0274 -0.2330  0.1337
  472PNCE   T1A 4227   9.245   1.444   8.687 -0.2280 -0.3097  0.0961
  472PNCE   C2A 4228   9.147   1.131   8.471 -0.2689 -0.2507 -0.1407
  472PNCE   C3A 4229   9.015   0.838   8.224  0.3932  0.0885 -0.0077
  472PNCE   C1B 4230   9.348   1.091   9.056  0.0980  0.0528 -0.1632
  472PNCE   C2B 4231   9.519   0.862   8.677 -0.0996 -0.0775 -0.0961
  472PNCE   C3B 4232   9.497   0.770   8.206 -0.4764 -0.2287  0.3557
  472PNCE   D4B 4233   9.353   0.507   7.925 -0.2806  0.1324 -0.0823
  472PNCE   C5B 4234   9.417   0.038   7.874  0.3864 -0.4924  0.1739
  472PNCE   C6B 4235   9.519  -0.260   8.144 -0.1671  0.0503 -0.1368
  473PNCE   AM1 4236   5.197  13.849   4.194  0.2354  0.0774  0.0111
  473PNCE   AM2 4237   5.441  13.659   4.341  0.1998  0.1305  0.2287
  473PNCE   T1A 4238   4.877  14.333   4.303 -0.2005  0.1642 -0.0765
  473PNCE   C2A 4239   4.852  14.645   4.728 -0.2418 -0.0873 -0.1732
  473PNCE   C3A 4240   4.900  14.599   5.135 -0.0927  0.0400  0.1891
  473PNCE   C1B 4241   5.500  13.664   4.654  0.0121 -0.1840  0.1278
  473PNCE   C2B 4242   5.604  13.782   5.060  0.0973 -0.1172  0.0755
  473PNCE   C3B 4243   5.862  13.915   5.508 -0.0939 -0.1578 -0.2088
  473PNCE   D4B 4244   5.801  14.041   5.898 -0.1539  0.1501 -0.2076
  473PNCE   C5B 4245   6.100  14.233   6.009  0.1569 -0.1898  0.3317
  473PNCE   C6B 4246   5.969  14.508   6.374  0.0689 -0.3913  0.1363
  474PNCE   AM1 4247   1.385   0.513   7.840 -0.1221  0.1532 -0.3629
  474PNCE   AM2 4248   1.654   0.747   8.039 -0.1512 -0.4068 -0.3775
  474PNCE   T1A 4249   1.206   0.387   7.475  0.0380  0.1136  0.1229
  474PNCE   C2A 4250   1.291   0.363   6.944  0.0349  0.2385  0.0287
  474PNCE   C3A 4251   1.168   0.404   6.498 -0.0516  0.0484  0.0922
  474PNCE   C1B 4252   1.847   0.472   7.586  0.2408 -0.2146 -0.0929
  474PNCE   C2B 4253   1.771   0.533   7.127  0.5268 -0.0723 -0.3066
  474PNCE   C3B 4254   1.693   0.674   6.805 -0.2795  0.3110 -0.0514
  474PNCE   D4B 4255   1.612   1.015   6.544  0.0664  0.0313 -0.1053
  474PNCE   C5B 4256   1.662   1.067   6.109 -0.1306 -0.1485 -0.1034
  474PNCE   C6B 4257   1.635   1.125   5.617  0.1680  0.1228  0.0849
  475XCA    COO 4258   6.267   1.790   8.554 -0.1115  0.2504 -0.4226
  475XCA     C1 4259   6.476   1.629   8.210  0.2930 -0.1829 -0.1541
  475XCA     C2 4260   6.619   1.494   7.698 -0.3481  0.1417  0.0007
  475XCA     C3 4261   6.897   1.160   7.564 -0.1129 -0.0581 -0.0216
  475XCA     C4 4262   7.141   0.872   7.466 -0.1627 -0.0108  0.2676
  475XCA     C5 4263   7.184   0.503   7.389 -0.2954 -0.1483 -0.0105
  475XCA     C6 4264   7.216   0.126   7.307  0.0494  0.0944 -0.1658
  476PNCE   AM1 4265  10.718  10.933   8.719  0.2166  0.0648 -0.1627
  476PNCE   AM2 4266  10.312  11.099   8.709 -0.0249 -0.1604  0.0068
  476PNCE   T1A 4267  10.917  10.939   8.267  0.3838  0.1346 -0.0876
  476PNCE   C2A 4268  11.229  10.755   7.955  0.1701 -0.1022 -0.2356
  476PNCE   C3A 4269  11.207  10.504   7.614 -0.1304 -0.0075  0.2042
  476PNCE   C1B 4270  10.475  11.237   8.267 -0.3142  0.1556  0.1197
  476PNCE   C2B 4271  10.236  11.475   7.897 -0.0468  0.0267 -0.2531
  476PNCE   C3B 4272   9.956  11.378   7.544 -0.2150  0.0196 -0.2882
  476PNCE   D4B 4273   9.646  11.174   7.444  0.0704  0.0239  0.0151
  476PNCE   C5B 4274   9.737  11.064   7.023 -0.2037 -0.0462  0.6560
  476PNCE   C6B 4275   9.599  11.345   6.671  0.1606 -0.0244 -0.0905
  477CHOL   ROH 4276  12.700  12.173   6.613 -0.1174 -0.1207 -0.1242
  477CHOL    R1 4277  12.547  12.355   6.767 -0.0595 -0.0956 -0.0906
  477CHOL    R2 4278  12.309  12.285   6.889 -0.0716 -0.0537 -0.0572
  477CHOL    R3 4279  12.433  12.380   7.112 -0.0053 -0.1037 -0.0762
  477CHOL    R4 4280  12.147  12.402   7.170  0.0314  0.1881 -0.0985
  477CHOL    R5 4281  12.294  12.561   7.184  0.1721  0.0435 -0.1334
  477CHOL    C1 4282  12.168  12.559   7.543  0.1536  0.2819 -0.1404
  477CHOL    C2 4283  12.179  12.900   7.728 -0.0424  0.1073 -0.0559
  478CHOL   ROH 4284   0.745   3.949   4.515 -0.0958  0.1014  0.0243
  478CHOL    R1 4285   0.719   3.807   4.758  0.0416 -0.0584 -0.0511
  478CHOL    R2 4286   0.895   3.839   4.969  0.0786 -0.0878 -0.0720
  478CHOL    R3 4287   0.667   3.890   5.109  0.0831 -0.2913  0.0111
  478CHOL    R4 4288   0.865   3.822   5.313  0.2143 -0.1142 -0.0618
  478CHOL    R5 4289   0.669   3.731   5.287  0.2877 -0.2878  0.0103
  478CHOL    C1 4290   0.634   3.860   5.644  0.2975 -0.3207  0.0220
  478CHOL    C2 4291   0.314   3.776   5.921 -0.0474 -0.3767 -0.1077
  479XCA    COO 4292   9.200   5.435   4.615  0.2623  0.2103  0.2542
  479XCA     C1 4293   9.184   5.252   5.020  0.1248 -0.0600 -0.0298
  479XCA     C2 4294   9.310   5.187   5.565  0.0041  0.0951  0.1614
  479XCA     C3 4295   9.338   5.213   5.931 -0.1718 -0.0166 -0.2605
  479XCA     C4 4296   9.539   5.102   6.326 -0.0579 -0.1786  0.1597
  479XCA     C5 4297   9.379   4.890   6.621 -0.0322  0.0567  0.1463
  479XCA     C6 4298   9.255   4.434   6.628  0.2007  0.0249  0.0219
  480CHOL   ROH 4299   1.755   1.794   4.022  0.2237 -0.0052 -0.0732
  480CHOL    R1 4300   1.759   1.895   4.286 -0.0232 -0.0082 -0.0660
  480CHOL    R2 4301   1.529   1.967   4.422 -0.1693 -0.2096 -0.2017
  480CHOL    R3 4302   1.625   1.795   4.610 -0.1343 -0.1332 -0.1494
  480CHOL    R4 4303   1.463   1.987   4.760 -0.3366 -0.2370 -0.2320
  480CHOL    R5 4304   1.671   1.934   4.799 -0.3161 -0.0907 -0.1353
  480CHOL    C1 4305   1.514   1.838   5.134 -0.4012 -0.1813 -0.2005
  480CHOL    C2 4306   1.418   1.709   5.458  0.2620 -0.2585 -0.0620
  481CHOL   ROH 4307   0.273   4.913   4.340  0.0830  0.0024 -0.1202
  481CHOL    R1 4308   0.229   4.710   4.532  0.2014  0.0031 -0.0916
  481CHOL    R2 4309   0.332   4.723   4.788  0.0758  0.1688 -0.0467
  481CHOL    R3 4310   0.072   4.685   4.859  0.0789 -0.0742 -0.1558
  481CHOL    R4 4311   0.225   4.646   5.107  0.0103  0.0705 -0.0921
  481CHOL    R5 4312   0.081   4.507   5.020  0.1764 -0.0658 -0.1522
  481CHOL    C1 4313  -0.082   4.565   5.360 -0.0250 -0.2150 -0.2209
  481CHOL    C2 4314  -0.148   4.599   5.785  0.0283  0.1350 -0.0255
  482PNCE   AM1 4315  14.216  14.652   8.155  0.0626  0.2045 -0.0586
  482PNCE   AM2 4316  14.452  14.486   8.039 -0.1648  0.0346  0.0213
  482PNCE   T1A 4317  13.876  14.756   8.158  0.1575  0.1475  0.2742
  482PNCE   C2A 4318  13.521  14.981   8.264  0.0436 -0.3155 -0.1501
  482PNCE   C3A 4319  13.289  15.221   8.137  0.0840 -0.2607 -0.0929
  482PNCE   C1B 4320  14.225  14.372   7.600 -0.1691  0.0844  0.0638
  482PNCE   C2B 4321  14.050  14.161   7.284  0.0361  0.1545 -0.0587
  482PNCE   C3B 4322  14.149  13.867   6.977  0.1136  0.1167 -0.0691
  482PNCE   D4B 4323  14.259  14.078   6.614  0.0383 -0.0353  0.0014
  482PNCE   C5B 4324  14.532  13.881   6.362  0.2324  0.0740 -0.0580
  482PNCE   C6B 4325  14.503  13.825   6.006  0.4746  0.2413  0.3416
  483PNCE   AM1 4326  11.838   2.480   8.482  0.0025  0.1628  0.3946
  483PNCE   AM2 4327  11.814   2.631   8.198 -0.2803  0.0909 -0.3532
  483PNCE   T1A 4328  11.961   2.164   8.187  0.0362 -0.1507 -0.1465
  483PNCE   C2A 4329  11.836   2.087   7.733 -0.2417  0.1691  0.0358
  483PNCE   C3A 4330  11.663   2.030   7.339  0.0786 -0.1573  0.2083
  483PNCE   C1B 4331  11.640   2.566   7.807 -0.0912  0.0872  0.1378
  483PNCE   C2B 4332  11.626   2.537   7.395  0.3442 -0.1404  0.0039
  483PNCE   C3B 4333  11.451   2.553   6.987  0.1574  0.1050 -0.0288
  483PNCE   D4B 4334  11.567   2.735   6.492 -0.3358 -0.0563  0.1303
  483PNCE   C5B 4335  11.545   2.494   6.041  0.0562  0.1027 -0.0625
  483PNCE   C6B 4336  11.137   2.432   5.764  0.1759 -0.0530  0.2139
  484PNCE   AM1 4337   9.867  12.243   8.782  0.2701 -0.1939 -0.0679
  484PNCE   AM2 4338   9.787  11.981   8.642  0.0897  0.0973  0.1431
  484PNCE   T1A 4339   9.776  12.540   8.410  0.4280 -0.1026 -0.0174
  484PNCE   C2A 4340   9.775  12.752   8.047 -0.3632  0.4185  0.0023
  484PNCE   C3A 4341   9.795  12.854   7.715  0.2566 -0.2058  0.1410
  484PNCE   C1B 4342   9.978  12.118   8.237  0.0810  0.1055 -0.0730
  484PNCE   C2B 4343  10.124  12.348   7.760 -0.5770  0.0709  0.0670
  484PNCE   C3B 4344  10.220  12.663   7.482  0.1453 -0.2064  0.2696
  484PNCE   D4B 4345  10.198  12.908   7.074  0.0107 -0.0221  0.1468
  484PNCE   C5B 4346  10.335  13.330   7.136  0.0593  0.0886  0.3386
  484PNCE   C6B 4347  10.171  13.701   7.328  0.0066  0.1708  0.0408
  485PNCE   AM1 4348   3.464   4.992   8.213 -0.1278 -0.0476  0.1321
  485PNCE   AM2 4349   3.798   4.954   8.334  0.1147 -0.1731 -0.2079
  485PNCE   T1A 4350   3.342   5.173   7.833  0.3104  0.2337 -0.1861
  485PNCE   C2A 4351   3.093   5.220   7.337  0.1499 -0.0468 -0.2216
  485PNCE   C3A 4352   2.961   5.305   6.955 -0.1091  0.0057 -0.2055
  485PNCE   C1B 4353   3.817   4.967   7.876  0.1469  0.1012  0.1300
  485PNCE   C2B 4354   3.671   4.986   7.400 -0.1285 -0.7062 -0.0152
  485PNCE   C3B 4355   3.854   5.100   7.110  0.1529  0.2133 -0.0441
  485PNCE   D4B 4356   3.897   5.227   6.702 -0.3229 -0.1986 -0.0882
  485PNCE   C5B 4357   3.858   4.860   6.537  0.0744  0.1082 -0.0738
  485PNCE   C6B 4358   3.715   4.722   6.064 -0.2933  0.0159  0.2150
  486PNCE   AM1 4359  11.366   9.723   8.578  0.0677 -0.1467  0.2433
  486PNCE   AM2 4360  11.386   9.462   8.873  0.1805  0.0160  0.0056
  486PNCE   T1A 4361  11.019   9.554   8.500 -0.1196 -0.2786  0.0781
  486PNCE   C2A 4362  10.978   9.281   8.277  0.1888 -0.1630 -0.0565
  486PNCE   C3A 4363  10.825   8.798   8.403  0.2511 -0.2091  0.1565
  486PNCE   C1B 4364  11.372   9.110   8.534  0.0559  0.2025 -0.0186
  486PNCE   C2B 4365  11.377   8.903   8.150 -0.0283 -0.1349  0.0839
  486PNCE   C3B 4366  11.396   8.829   7.763 -0.2849  0.2702 -0.2240
  486PNCE   D4B 4367  11.509   9.093   7.371 -0.1184 -0.0080 -0.0292
  486PNCE   C5B 4368  11.641   8.965   6.945  0.3382  0.0045  0.0109
  486PNCE   C6B 4369  11.573   8.779   6.502  0.0805  0.1013  0.4012
  487PNCE   AM1 4370   6.145  10.766   8.324  0.1861  0.1207 -0.1618
  487PNCE   AM2 4371   5.965  11.006   8.488 -0.0302 -0.0266  0.1776
  487PNCE   T1A 4372   6.193  10.578   7.964 -0.2189  0.3284 -0.0061
  487PNCE   C2A 4373   6.480  10.245   7.787 -0.0427 -0.0518  0.3085
  487PNCE   C3A 4374   6.497   9.807   7.765 -0.0749  0.0080  0.2246
  487PNCE   C1B 4375   5.868  10.996   7.951 -0.0477  0.1002 -0.3274
  487PNCE   C2B 4376   6.080  10.971   7.691  0.1561 -0.1069 -0.1418
  487PNCE   C3B 4377   6.241  10.517   7.461 -0.0561  0.1123 -0.1482
  487PNCE   D4B 4378   6.197  10.324   7.130  0.1698  0.3334  0.1357
  487PNCE   C5B 4379   6.509  10.244   6.753  0.0989  0.0886 -0.2033
  487PNCE   C6B 4380   6.882  10.171   6.674 -0.1244  0.1339  0.5654
  488PNCE   AM1 4381   8.951   9.009   8.533  0.2903  0.1013 -0.1560
  488PNCE   AM2 4382   8.811   9.256   8.231 -0.1407  0.0281 -0.3116
  488PNCE   T1A 4383   8.989   8.803   8.192  0.1506  0.1024  0.3084
  488PNCE   C2A 4384   8.971   8.540   7.896 -0.4612  0.1972 -0.0162
  488PNCE   C3A 4385   9.008   8.382   7.504  0.1812 -0.0200 -0.4051
  488PNCE   C1B 4386   9.153   9.262   8.031  0.2016  0.0943 -0.0734
  488PNCE   C2B 4387   9.165   9.412   7.616 -0.0406 -0.0208  0.5815
  488PNCE   C3B 4388   9.519   9.667   7.386  0.0039 -0.2452  0.0491
  488PNCE   D4B 4389   9.768   9.961   7.263 -0.2463  0.0427  0.1520
  488PNCE   C5B 4390  10.030  10.236   7.062  0.1668  0.0047 -0.2766
  488PNCE   C6B 4391  10.332  10.628   6.892  0.2119  0.0538  0.1680
  489XCA    COO 4392  11.391  15.169   8.691 -0.1545 -0.2396 -0.0662
  489XCA     C1 4393  11.364  15.459   8.345  0.2889  0.1217 -0.0776
  489XCA     C2 4394  11.370  15.470   7.994 -0.1165  0.1399 -0.0032
  489XCA     C3 4395  11.547  15.599   7.744 -0.2299 -0.1952 -0.4393
  489XCA     C4 4396  11.689  15.754   7.293  0.0187  0.1668 -0.2461
  489XCA     C5 4397  11.677  16.138   7.094 -0.0931 -0.0368  0.2372
  489XCA     C6 4398  11.240  16.347   6.843 -0.0885  0.0411  0.2197
  490CHOL   ROH 4399   9.185   8.607   5.802 -0.0300 -0.0096 -0.0045
  490CHOL    R1 4400   9.131   8.771   6.026  0.0299 -0.0340  0.0282
  490CHOL    R2 4401   9.055   8.668   6.271  0.1345 -0.0626  0.0484
  490CHOL    R3 4402   9.266   8.815   6.361  0.1475 -0.0403 -0.0177
  490CHOL    R4 4403   9.094   8.780   6.596  0.1909 -0.0040  0.0216
  490CHOL    R5 4404   9.169   8.969   6.517  0.1711 -0.0152 -0.0269
  490CHOL    C1 4405   9.314   8.983   6.870  0.2360  0.0510 -0.0559
  490CHOL    C2 4406   9.453   9.203   7.226 -0.1049  0.0932  0.2875
  491CHOL   ROH 4407   7.706  15.082   4.628  0.1327  0.0895 -0.0121
  491CHOL    R1 4408   7.575  14.985   4.859  0.2101  0.0566  0.0191
  491CHOL    R2 4409   7.674  14.777   5.011  0.3097  0.0932  0.0108
  491CHOL    R3 4410   7.651  14.956   5.214  0.2928  0.0982  0.0038
  491CHOL    R4 4411   7.608  14.696   5.340  0.0882  0.1227 -0.0250
  491CHOL    R5 4412   7.477  14.869   5.352  0.1738  0.1885 -0.0921
  491CHOL    C1 4413   7.549  14.818   5.723 -0.0565  0.1446 -0.0525
  491CHOL    C2 4414   7.486  14.664   6.000  0.1257  0.1766  0.0974
  492CHOL   ROH 4415  15.024   0.118   4.315  0.1763 -0.1943  0.1447
  492CHOL    R1 4416  15.024   0.202   4.586 -0.0242 -0.1617  0.1369
  492CHOL    R2 4417  14.805   0.172   4.751 -0.1300 -0.1946 -0.0032
  492CHOL    R3 4418  14.983   0.045   4.911 -0.2044 -0.1336  0.1283
  492CHOL    R4 4419  14.726   0.013   5.047 -0.2935 -0.2264 -0.0637
  492CHOL    R5 4420  14.909   0.093   5.134 -0.3866 -0.1639  0.0740
  492CHOL    C1 4421  14.848  -0.199   5.370 -0.4588 -0.1876  0.0246
  492CHOL    C2 4422  14.505  -0.295   5.565 -0.0821 -0.0801  0.3184
  493PNCE   AM1 4423   4.838   4.829   8.577 -0.1859 -0.1325  0.0068
  493PNCE   AM2 4424   5.211   4.876   8.541 -0.2610 -0.2963  0.0583
  493PNCE   T1A 4425   4.744   4.681   8.156  0.2565  0.0008  0.1499
  493PNCE   C2A 4426   4.570   4.833   7.705 -0.2771  0.0272  0.0237
  493PNCE   C3A 4427   4.585   5.112   7.386 -0.2270  0.3850  0.0464
  493PNCE   C1B 4428   5.246   4.878   8.050 -0.3691  0.2535 -0.1005
  493PNCE   C2B 4429   5.434   5.019   7.700  0.3297  0.1349 -0.3000
  493PNCE   C3B 4430   5.484   5.198   7.385 -0.1644  0.2924  0.2008
  493PNCE   D4B 4431   5.568   5.511   7.212 -0.2856  0.2725 -0.0164
  493PNCE   C5B 4432   5.466   5.676   6.775 -0.4296 -0.0451  0.0335
  493PNCE   C6B 4433   5.250   5.778   6.458  0.0419 -0.5659  0.0805
  494XCA    COO 4434  15.446   3.287   3.936 -0.1388 -0.0653  0.3123
  494XCA     C1 4435  15.427   3.088   4.343  0.0049 -0.1404  0.0098
  494XCA     C2 4436  15.476   2.952   4.638  0.1447 -0.1518 -0.0916
  494XCA     C3 4437  15.575   2.876   5.003  0.1692  0.0280 -0.1917
  494XCA     C4 4438  15.405   3.132   5.480  0.0631 -0.2533 -0.0567
  494XCA     C5 4439  15.577   3.345   5.909 -0.0660 -0.1221 -0.1816
  494XCA     C6 4440  15.829   3.423   6.303  0.1011 -0.2345  0.0144
  495CHOL   ROH 4441   2.858   0.501   7.304 -0.0324 -0.2034  0.0887
  495CHOL    R1 4442   2.780   0.604   7.052  0.0777 -0.2352  0.0462
  495CHOL    R2 4443   2.824   0.469   6.815 -0.0213 -0.3560  0.1262
  495CHOL    R3 4444   2.556   0.504   6.783  0.0093 -0.1337  0.0537
  495CHOL    R4 4445   2.652   0.423   6.519 -0.0290 -0.8976  0.1996
  495CHOL    R5 4446   2.534   0.600   6.565  0.1489 -0.6180 -0.2126
  495CHOL    C1 4447   2.301   0.430   6.316 -0.0048 -1.0042  0.1742
  495CHOL    C2 4448   2.120   0.189   5.998 -0.1020 -0.1272  0.0320
  496XCA    COO 4449   7.630  13.701   7.863  0.2793  0.1808 -0.1173
  496XCA     C1 4450   7.708  13.467   7.473  0.2558  0.0356  0.0725
  496XCA     C2 4451   7.829  13.135   7.203  0.1876 -0.0129  0.0011
  496XCA     C3 4452   7.849  12.759   7.003 -0.1764 -0.2693  0.3121
  496XCA     C4 4453   7.638  12.597   6.574 -0.0520  0.2628 -0.4223
  496XCA     C5 4454   7.379  12.438   6.355 -0.1579  0.0708  0.2052
  496XCA     C6 4455   7.010  12.045   6.452  0.2840 -0.2222 -0.1250
  497PNCE   AM1 4456   3.607  15.497   8.367 -0.2692  0.2358 -0.1330
  497PNCE   AM2 4457   3.365  15.233   8.383  0.0363 -0.1290 -0.0595
  497PNCE   T1A 4458   3.842  15.416   7.927 -0.1249 -0.2073 -0.0200
  497PNCE   C2A 4459   4.163  15.259   7.670 -0.2023 -0.1531 -0.0731
  497PNCE   C3A 4460   4.223  14.939   7.601 -0.2559  0.3762  0.2818
  497PNCE   C1B 4461   3.327  15.362   7.892 -0.0187 -0.0264 -0.4225
  497PNCE   C2B 4462   3.415  15.158   7.485 -0.2574  0.3527 -0.2426
  497PNCE   C3B 4463   3.883  15.078   7.297 -0.1030  0.0373  0.2306
  497PNCE   D4B 4464   4.104  14.744   7.121  0.0256 -0.1361 -0.2037
  497PNCE   C5B 4465   4.185  14.684   6.749  0.2227  0.3232  0.0640
  497PNCE   C6B 4466   4.265  15.032   6.466  0.2940 -0.0862  0.3088
  498CHOL   ROH 4467   1.832   9.634   4.700  0.1660 -0.3018 -0.0259
  498CHOL    R1 4468   2.046   9.686   4.878  0.1029 -0.2175  0.0260
  498CHOL    R2 4469   2.030   9.873   5.081  0.0163 -0.1504 -0.0452
  498CHOL    R3 4470   2.104   9.662   5.236 -0.0084 -0.0874  0.0541
  498CHOL    R4 4471   2.144   9.896   5.406 -0.0190 -0.0105 -0.0420
  498CHOL    R5 4472   2.291   9.742   5.361 -0.0178 -0.0375  0.0399
  498CHOL    C1 4473   2.280   9.713   5.741 -0.0628  0.1300  0.0531
  498CHOL    C2 4474   2.309   9.717   6.157 -0.2320 -0.0356  0.0281
  499PNCE   AM1 4475   6.555   7.556   8.827  0.2576 -0.0856  0.0327
  499PNCE   AM2 4476   6.411   7.756   8.728 -0.1956 -0.0613 -0.0530
  499PNCE   T1A 4477   6.882   7.342   8.521 -0.1575  0.1405 -0.1883
  499PNCE   C2A 4478   7.200   7.091   8.221  0.0091  0.0829  0.3310
  499PNCE   C3A 4479   7.609   6.993   8.088 -0.2531  0.0135 -0.0647
  499PNCE   C1B 4480   6.185   7.494   8.550  0.1330  0.1917 -0.0399
  499PNCE   C2B 4481   5.787   7.494   8.293 -0.0012 -0.0689 -0.0968
  499PNCE   C3B 4482   5.640   7.291   8.008  0.0144  0.0995 -0.0695
  499PNCE   D4B 4483   5.246   7.142   7.944  0.1467  0.2365  0.0571
  499PNCE   C5B 4484   4.752   7.118   7.964  0.2789  0.1025  0.2100
  499PNCE   C6B 4485   4.393   6.943   8.189 -0.2493 -0.2918  0.3419
  500PNCE   AM1 4486  11.856   1.048   8.704 -0.4537  0.0364  0.2243
  500PNCE   AM2 4487  11.826   0.834   8.640 -0.2182  0.0904  0.1904
  500PNCE   T1A 4488  11.615   1.190   8.315 -0.0830  0.1158  0.5255
  500PNCE   C2A 4489  11.264   1.549   8.093 -0.0496  0.1841  0.1285
  500PNCE   C3A 4490  11.361   1.891   7.788 -0.0637 -0.1214  0.0749
  500PNCE   C1B 4491  12.103   0.844   8.197 -0.0042  0.1285 -0.0387
  500PNCE   C2B 4492  12.398   0.968   7.922 -0.1519 -0.1128 -0.0413
  500PNCE   C3B 4493  12.685   0.705   7.878  0.0221  0.2399 -0.1223
  500PNCE   D4B 4494  12.812   0.279   7.708 -0.0455 -0.0597  0.0049
  500PNCE   C5B 4495  13.071   0.219   7.392 -0.2037  0.1088 -0.2900
  500PNCE   C6B 4496  12.891   0.194   6.983 -0.2763 -0.0520  0.0448
  501PNCE   AM1 4497   4.599  10.600   8.433 -0.0351  0.2454  0.2175
  501PNCE   AM2 4498   4.575  10.906   8.607  0.1766  0.2801  0.2561
  501PNCE   T1A 4499   4.441  10.678   8.001 -0.0105 -0.4030  0.0428
  501PNCE   C2A 4500   4.688  10.791   7.528  0.1408 -0.1826  0.2923
  501PNCE   C3A 4501   4.780  11.167   7.310  0.0346  0.4466  0.1602
  501PNCE   C1B 4502   4.462  11.148   8.282  0.2137  0.0888  0.0383
  501PNCE   C2B 4503   4.431  11.178   7.750  0.0238  0.2922 -0.1137
  501PNCE   C3B 4504   4.226  11.063   7.409 -0.1098  0.2399 -0.2648
  501PNCE   D4B 4505   4.316  10.693   7.179 -0.1700 -0.1340 -0.3439
  501PNCE   C5B 4506   4.042  10.528   6.829  0.2251  0.0852  0.1636
  501PNCE   C6B 4507   3.647  10.449   6.633  0.1686  0.3108 -0.1045
  502PNCE   AM1 4508  15.449   1.262   7.577  0.2286 -0.1549  0.1459
  502PNCE   AM2 4509  15.589   1.332   7.396 -0.0406 -0.1886  0.1697
  502PNCE   T1A 4510  15.061   1.298   7.286 -0.1484  0.4062 -0.2524
  502PNCE   C2A 4511  14.724   1.217   6.988  0.0974 -0.0150  0.3830
  502PNCE   C3A 4512  14.451   1.294   6.734  0.1417 -0.0936  0.0451
  502PNCE   C1B 4513  15.367   1.678   7.121  0.0400 -0.1043 -0.0794
  502PNCE   C2B 4514  15.296   1.905   6.822 -0.0886 -0.2994 -0.1211
  502PNCE   C3B 4515  15.252   1.949   6.369  0.1424 -0.0645 -0.1615
  502PNCE   D4B 4516  15.143   2.272   6.047 -0.0551 -0.0813  0.0909
  502PNCE   C5B 4517  15.599   2.375   5.930  0.2964 -0.0689  0.0269
  502PNCE   C6B 4518  15.788   2.234   5.359 -0.1172  0.2358  0.1373
  503CHOL   ROH 4519   0.728   6.627   4.894  0.0200 -0.0325 -0.0515
  503CHOL    R1 4520   0.822   6.592   5.158  0.0958  0.0475 -0.0674
  503CHOL    R2 4521   0.658   6.510   5.365  0.1329  0.2013  0.0251
  503CHOL    R3 4522   0.847   6.318   5.396  0.0689  0.1412  0.0446
  503CHOL    R4 4523   0.685   6.303   5.640  0.0759  0.2330  0.0549
  503CHOL    R5 4524   0.901   6.325   5.629  0.0830  0.1576  0.0407
  503CHOL    C1 4525   0.878   6.001   5.829 -0.0173  0.1951  0.0905
  503CHOL    C2 4526   1.173   5.743   6.054 -0.0716 -0.3008  0.4287
  504CHOL   ROH 4527   4.873   1.038   5.924  0.0132 -0.1126  0.0969
  504CHOL    R1 4528   5.135   0.946   5.977  0.0489 -0.0689  0.0023
  504CHOL    R2 4529   5.187   0.693   6.074  0.1248 -0.0479  0.0286
  504CHOL    R3 4530   5.351   0.679   5.857  0.0301 -0.0634 -0.0411
  504CHOL    R4 4531   5.472   0.498   6.054  0.2677  0.1602  0.0164
  504CHOL    R5 4532   5.571   0.662   5.950  0.0892  0.1679 -0.1396
  504CHOL    C1 4533   5.791   0.371   5.840  0.2620  0.2668 -0.0561
  504CHOL    C2 4534   5.911   0.182   5.542  0.0050  0.0340 -0.4133
  505CHOL   ROH 4535   4.945   0.033   4.174 -0.0621  0.1196 -0.0589
  505CHOL    R1 4536   4.776  -0.064   4.380 -0.0384  0.0721 -0.0625
  505CHOL    R2 4537   4.802  -0.318   4.488 -0.0112  0.0575 -0.1095
  505CHOL    R3 4538   4.816  -0.181   4.722 -0.0044  0.0159 -0.0848
  505CHOL    R4 4539   4.734  -0.450   4.799 -0.0285  0.0054 -0.1347
  505CHOL    R5 4540   4.634  -0.265   4.851 -0.0156  0.0063 -0.1037
  505CHOL    C1 4541   4.707  -0.399   5.201 -0.0321 -0.0638 -0.1263
  505CHOL    C2 4542   4.706  -0.270   5.516  0.2581  0.1381 -0.3651
  506CHOL   ROH 4543  14.639  15.319   4.197 -0.2500 -0.3100 -0.1080
  506CHOL    R1 4544  14.768  15.288   4.447 -0.1389 -0.0118 -0.1256
  506CHOL    R2 4545  14.630  15.229   4.679 -0.0073  0.0253 -0.0417
  506CHOL    R3 4546  14.808  15.023   4.693  0.1904  0.1980  0.0561
  506CHOL    R4 4547  14.753  15.093   4.973 -0.1013  0.1026  0.0343
  506CHOL    R5 4548  14.949  15.079   4.879 -0.0068  0.3146  0.1795
  506CHOL    C1 4549  14.991  14.822   5.157  0.0298  0.3098  0.1705
  506CHOL    C2 4550  15.332  14.741   5.446 -0.1547 -0.2235  0.0323
  507CHOL   ROH 4551   9.347   7.025   5.634  0.2164 -0.1102 -0.0629
  507CHOL    R1 4552   9.462   7.041   5.892  0.0186  0.0070  0.0206
  507CHOL    R2 4553   9.326   6.967   6.121 -0.0262 -0.2641 -0.0893
  507CHOL    R3 4554   9.544   6.809   6.160  0.1999  0.0623  0.0141
  507CHOL    R4 4555   9.441   6.862   6.430 -0.0946 -0.2021 -0.0425
  507CHOL    R5 4556   9.645   6.895   6.359 -0.0873  0.1483  0.1262
  507CHOL    C1 4557   9.712   6.653   6.646  0.0780  0.1403  0.0819
  507CHOL    C2 4558   9.923   6.492   6.855  0.0313  0.0991  0.1573
  508PNCE   AM1 4559   7.344   6.171   8.679  0.2339 -0.0676  0.1599
  508PNCE   AM2 4560   7.505   5.934   8.933 -0.0093 -0.0200 -0.2057
  508PNCE   T1A 4561   7.482   6.143   8.231 -0.1189  0.1575  0.1128
  508PNCE   C2A 4562   7.565   5.801   7.949  0.2797  0.3020  0.0819
  508PNCE   C3A 4563   7.808   5.606   7.553 -0.1668 -0.2728  0.0067
  508PNCE   C1B 4564   7.796   5.960   8.547  0.3515 -0.1051  0.1189
  508PNCE   C2B 4565   8.029   5.937   8.193 -0.2782 -0.3062 -0.0382
  508PNCE   C3B 4566   8.096   6.045   7.746 -0.0326  0.1797 -0.1262
  508PNCE   D4B 4567   8.224   5.837   7.412  0.1152  0.1064  0.0100
  508PNCE   C5B 4568   8.446   6.068   7.183 -0.1015  0.2960 -0.0912
  508PNCE   C6B 4569   8.645   6.300   7.493  0.0414 -0.1921  0.0719
  509CHOL   ROH 4570  10.510  12.130   5.294 -0.0875  0.0894 -0.0128
  509CHOL    R1 4571  10.540  11.931   5.493 -0.1599  0.1004  0.0093
  509CHOL    R2 4572  10.752  11.929   5.669 -0.0434 -0.0758 -0.1288
  509CHOL    R3 4573  10.555  11.921   5.856  0.0669  0.1661  0.0034
  509CHOL    R4 4574  10.791  11.810   5.991 -0.0082 -0.2478 -0.1954
  509CHOL    R5 4575  10.594  11.716   5.975 -0.1687  0.0607 -0.0957
  509CHOL    C1 4576  10.629  11.733   6.355  0.1160 -0.1207 -0.1100
  509CHOL    C2 4577  10.582  11.393   6.591 -0.2933  0.2381 -0.4514
  510PNCE   AM1 4578  12.807   2.198   8.446  0.1493 -0.0210  0.0546
  510PNCE   AM2 4579  13.141   2.350   8.501 -0.0457  0.4528 -0.0846
  510PNCE   T1A 4580  12.530   2.121   8.093 -0.0115  0.3540  0.1127
  510PNCE   C2A 4581  12.302   1.958   7.706 -0.1401 -0.0247  0.1700
  510PNCE   C3A 4582  12.270   1.834   7.350 -0.1127 -0.1767  0.2222
  510PNCE   C1B 4583  13.231   2.309   8.097 -0.3332 -0.2491  0.1087
  510PNCE   C2B 4584  13.395   2.257   7.722  0.0179 -0.3276 -0.2867
  510PNCE   C3B 4585  13.638   2.205   7.401 -0.0419  0.0742 -0.0427
  510PNCE   D4B 4586  13.943   2.024   7.068 -0.1639 -0.0482  0.2598
  510PNCE   C5B 4587  14.164   2.269   6.792  0.2821  0.0395  0.0368
  510PNCE   C6B 4588  14.019   2.556   6.491 -0.0638 -0.0499 -0.0148
  511PNCE   AM1 4589   1.615  14.415   4.106  0.1026 -0.1885  0.0028
  511PNCE   AM2 4590   1.592  14.007   4.101  0.1210 -0.0176 -0.1774
  511PNCE   T1A 4591   1.881  14.439   4.495  0.0749  0.0149  0.6288
  511PNCE   C2A 4592   2.098  14.414   4.858 -0.1127 -0.0895  0.0670
  511PNCE   C3A 4593   2.526  14.475   5.035 -0.1168 -0.3327  0.0498
  511PNCE   C1B 4594   1.386  13.986   4.440 -0.1752  0.1729  0.0889
  511PNCE   C2B 4595   1.202  14.044   4.836  0.4804  0.3820 -0.0275
  511PNCE   C3B 4596   0.996  14.185   5.251  0.0437  0.0471 -0.1141
  511PNCE   D4B 4597   1.225  14.232   5.706  0.3700  0.3817 -0.2806
  511PNCE   C5B 4598   0.966  14.260   6.022  0.1464 -0.1116  0.0855
  511PNCE   C6B 4599   0.806  14.377   6.403 -0.1861 -0.0845 -0.2641
  512CHOL   ROH 4600   5.020  13.694   7.154 -0.0060 -0.1346 -0.0646
  512CHOL    R1 4601   5.182  13.662   6.923 -0.0748  0.2190 -0.1622
  512CHOL    R2 4602   5.175  13.435   6.767  0.3613  0.1834 -0.1074
  512CHOL    R3 4603   5.128  13.613   6.567 -0.1830  0.0420 -0.1283
  512CHOL    R4 4604   5.172  13.357   6.430  0.8036  0.1283 -0.1084
  512CHOL    R5 4605   5.276  13.545   6.391  0.1794  0.5374 -0.0578
  512CHOL    C1 4606   5.126  13.479   6.046  0.5501 -0.0365 -0.1288
  512CHOL    C2 4607   4.970  13.412   5.671 -0.3197 -0.1000  0.1197
  513CHOL   ROH 4608  14.036   7.167   5.246  0.0045  0.0527 -0.0190
  513CHOL    R1 4609  14.167   6.968   5.398 -0.0123  0.0204 -0.0476
  513CHOL    R2 4610  14.030   6.765   5.527 -0.0224 -0.0333 -0.1455
  513CHOL    R3 4611  14.199   6.605   5.386  0.0312  0.0268 -0.1508
  513CHOL    R4 4612  14.037   6.420   5.545  0.0779 -0.0332 -0.1690
  513CHOL    R5 4613  14.255   6.429   5.538  0.0773  0.0320 -0.1597
  513CHOL    C1 4614  14.200   6.069   5.424  0.1867  0.0232 -0.1876
  513CHOL    C2 4615  13.871   5.821   5.494  0.0669  0.0378 -0.2607
  514PNCE   AM1 4616   6.977   9.228   8.331 -0.1244 -0.0847  0.0262
  514PNCE   AM2 4617   6.604   9.085   8.390  0.2213  0.3989  0.2517
  514PNCE   T1A 4618   6.819   9.572   8.051 -0.3065 -0.0428 -0.1320
  514PNCE   C2A 4619   6.808  10.006   8.143  0.1489  0.3239 -0.0931
  514PNCE   C3A 4620   7.132  10.291   7.945  0.2394 -0.4363  0.3378
  514PNCE   C1B 4621   6.647   9.078   7.934 -0.2203 -0.1139  0.2917
  514PNCE   C2B 4622   6.611   9.017   7.578 -0.1390  0.2099  0.0880
  514PNCE   C3B 4623   6.953   9.005   7.349 -0.3503 -0.0610  0.1183
  514PNCE   D4B 4624   7.069   9.101   6.935 -0.2269 -0.0532 -0.2838
  514PNCE   C5B 4625   7.302   8.700   6.745 -0.2692 -0.1454  0.1547
  514PNCE   C6B 4626   7.670   8.518   6.626  0.0917 -0.4465 -0.2130
  515CHOL   ROH 4627  14.473   2.546   7.627  0.1309  0.1389 -0.0139
  515CHOL    R1 4628  14.235   2.595   7.482  0.0162 -0.1051  0.0910
  515CHOL    R2 4629  14.236   2.670   7.216 -0.1622  0.1676  0.1752
  515CHOL    R3 4630  14.072   2.455   7.188  0.1748 -0.0770 -0.0165
  515CHOL    R4 4631  13.994   2.637   6.971 -0.3472  0.1987  0.3498
  515CHOL    R5 4632  13.862   2.549   7.121 -0.0635 -0.2923  0.3545
  515CHOL    C1 4633  13.699   2.416   6.803 -0.1388 -0.0129  0.2716
  515CHOL    C2 4634  13.396   2.605   6.500  0.1561 -0.2916 -0.1198
  516CHOL   ROH 4635  13.627   0.727   6.708  0.1876 -0.1861 -0.0231
  516CHOL    R1 4636  13.668   0.595   6.955  0.0870  0.0462  0.1260
  516CHOL    R2 4637  13.576   0.696   7.195 -0.2375  0.1574 -0.0188
  516CHOL    R3 4638  13.459   0.452   7.216 -0.0290  0.0648  0.0376
  516CHOL    R4 4639  13.528   0.527   7.492  0.0221  0.1008 -0.0102
  516CHOL    R5 4640  13.583   0.342   7.390  0.1215  0.1580 -0.0259
  516CHOL    C1 4641  13.389   0.199   7.686  0.3688 -0.0191  0.0479
  516CHOL    C2 4642  13.221   0.357   8.033  0.1212  0.0511  0.0774
  517PNCE   AM1 4643  11.208  12.573   8.259  0.3589 -0.0031 -0.1424
  517PNCE   AM2 4644  11.070  12.709   8.565 -0.3716  0.1723  0.0487
  517PNCE   T1A 4645  11.393  12.533   7.857 -0.0389  0.3039  0.1403
  517PNCE   C2A 4646  11.642  12.656   7.491 -0.1872 -0.0420 -0.1733
  517PNCE   C3A 4647  11.967  12.915   7.297  0.0809 -0.3249  0.3778
  517PNCE   C1B 4648  10.740  12.371   8.417  0.0078 -0.1542 -0.1271
  517PNCE   C2B 4649  10.573  12.244   8.124  0.0197 -0.1364 -0.0587
  517PNCE   C3B 4650  10.403  11.946   7.936  0.2519 -0.0414  0.0142
  517PNCE   D4B 4651   9.934  11.874   7.818 -0.0589  0.2386 -0.3365
  517PNCE   C5B 4652   9.722  11.841   7.408 -0.2855 -0.1044 -0.1199
  517PNCE   C6B 4653   9.588  11.655   7.034 -0.1442  0.1754 -0.2479
  518PNCE   AM1 4654  11.831  11.191   4.648  0.2966 -0.0517  0.2184
  518PNCE   AM2 4655  11.784  11.451   4.444 -0.0932 -0.1323  0.2041
  518PNCE   T1A 4656  11.519  11.052   4.967 -0.0624  0.2845  0.1779
  518PNCE   C2A 4657  11.234  10.818   5.204 -0.0427  0.0518 -0.0163
  518PNCE   C3A 4658  10.885  11.043   5.291 -0.0186 -0.1583 -0.2228
  518PNCE   C1B 4659  11.511  11.527   4.799  0.2636  0.2264 -0.2917
  518PNCE   C2B 4660  11.658  11.549   5.141 -0.1773 -0.0990 -0.1215
  518PNCE   C3B 4661  11.609  11.856   5.459  0.3804  0.1306 -0.0183
  518PNCE   D4B 4662  11.628  12.001   5.889 -0.3264  0.0644  0.0639
  518PNCE   C5B 4663  11.286  11.961   6.160  0.1071  0.3554 -0.0527
  518PNCE   C6B 4664  10.995  12.047   6.546 -0.2153 -0.0099 -0.0428
  519XCA    COO 4665   5.470  12.854   8.049  0.0693 -0.0784 -0.0313
  519XCA     C1 4666   5.523  12.513   7.719  0.0744 -0.0015  0.0268
  519XCA     C2 4667   5.237  12.302   7.396  0.1294  0.2219  0.1713
  519XCA     C3 4668   4.769  12.200   7.493  0.6613 -0.0453  0.1203
  519XCA     C4 4669   4.568  12.070   7.119  0.0388  0.2756 -0.2655
  519XCA     C5 4670   4.387  11.872   6.697  0.2231 -0.0435  0.1157
  519XCA     C6 4671   4.671  11.839   6.408 -0.3189 -0.1312  0.1369
  520XCA    COO 4672  14.771   4.079   8.294 -0.1733 -0.2368  0.0344
  520XCA     C1 4673  14.579   4.277   7.962  0.1779  0.2276 -0.1788
  520XCA     C2 4674  14.556   4.645   7.695 -0.0682  0.0827 -0.3825
  520XCA     C3 4675  14.685   5.048   7.606 -0.0892  0.1252  0.2981
  520XCA     C4 4676  14.630   5.427   7.355 -0.0480 -0.1756  0.2580
  520XCA     C5 4677  14.456   5.686   7.165 -0.3901  0.1175 -0.0824
  520XCA     C6 4678  14.391   6.008   6.856 -0.0774 -0.2015 -0.2141
  521XCA    COO 4679   6.643   0.439   8.831 -0.2736  0.0309  0.0008
  521XCA     C1 4680   6.842   0.172   8.507 -0.3029 -0.1523 -0.2775
  521XCA     C2 4681   6.876   0.049   8.210  0.2872 -0.2840 -0.1542
  521XCA     C3 4682   6.760   0.037   7.711  0.0663  0.0262 -0.1099
  521XCA     C4 4683   6.614  -0.121   7.391 -0.1547  0.0013 -0.1360
  521XCA     C5 4684   6.552  -0.108   6.943  0.0881 -0.0469  0.0280
  521XCA     C6 4685   6.619   0.132   6.523  0.0931 -0.1593  0.2288
  522PNCE   AM1 4686   1.739   6.946   8.581 -0.2520  0.2166  0.1757
  522PNCE   AM2 4687   1.606   7.332   8.514 -0.0706 -0.0272  0.2280
  522PNCE   T1A 4688   1.591   7.097   8.098  0.1391  0.1212 -0.1624
  522PNCE   C2A 4689   1.600   7.436   7.775  0.0519  0.1602 -0.1523
  522PNCE   C3A 4690   1.507   7.675   7.402  0.0686  0.1491 -0.2109
  522PNCE   C1B 4691   1.918   7.411   8.275  0.1146 -0.0877 -0.3538
  522PNCE   C2B 4692   2.067   7.595   7.901  0.2612 -0.0786  0.1486
  522PNCE   C3B 4693   1.984   7.823   7.463  0.5698  0.2685 -0.0065
  522PNCE   D4B 4694   2.169   8.124   7.210  0.1583 -0.1284 -0.0521
  522PNCE   C5B 4695   1.958   8.511   7.064  0.2832  0.2746  0.0660
  522PNCE   C6B 4696   2.064   8.787   6.660  0.1795 -0.1710  0.0621
  523CHOL   ROH 4697  11.468   9.787   5.176 -0.2084  0.0345  0.0297
  523CHOL    R1 4698  11.607   9.807   5.422 -0.0780  0.0462 -0.0431
  523CHOL    R2 4699  11.590  10.031   5.584 -0.1468 -0.0222  0.0495
  523CHOL    R3 4700  11.519   9.849   5.772  0.0954 -0.1453  0.0248
  523CHOL    R4 4701  11.661  10.056   5.922  0.0370 -0.1003  0.0171
  523CHOL    R5 4702  11.704   9.843   5.924  0.1905 -0.0714 -0.0882
  523CHOL    C1 4703  11.635   9.900   6.295  0.3713 -0.2613 -0.0250
  523CHOL    C2 4704  11.531   9.767   6.658 -0.1568 -0.0969 -0.1292
  524XCA    COO 4705   7.764  14.527   4.379  0.0902 -0.0320 -0.2625
  524XCA     C1 4706   7.362  14.621   4.659 -0.0894  0.3668 -0.0337
  524XCA     C2 4707   7.258  14.560   5.119  0.0381  0.5666  0.0441
  524XCA     C3 4708   7.042  14.659   5.554  0.1389 -0.2061 -0.4357
  524XCA     C4 4709   7.033  14.991   5.850  0.0543  0.0804 -0.1763
  524XCA     C5 4710   6.652  15.158   6.142  0.3472  0.0937  0.0153
  524XCA     C6 4711   6.404  15.161   6.566 -0.0579 -0.0038 -0.3207
  525CHOL   ROH 4712   5.007  11.190   4.762 -0.1400  0.0311  0.0700
  525CHOL    R1 4713   5.005  11.162   5.044  0.0525  0.0670  0.0765
  525CHOL    R2 4714   5.051  11.375   5.214 -0.1913  0.1692  0.0205
  525CHOL    R3 4715   4.813  11.298   5.321 -0.0204 -0.1937  0.1562
  525CHOL    R4 4716   4.961  11.415   5.546 -0.1539  0.2566  0.0199
  525CHOL    R5 4717   4.869  11.217   5.540  0.2065  0.0739  0.2018
  525CHOL    C1 4718   4.686  11.366   5.839  0.0284 -0.0332  0.1470
  525CHOL    C2 4719   4.540  11.424   6.082  0.2085  0.2234 -0.0137
  526PNCE   AM1 4720   2.076   1.618   7.921  0.0619  0.3427  0.0779
  526PNCE   AM2 4721   2.341   1.795   7.792  0.1290 -0.0273 -0.2866
  526PNCE   T1A 4722   2.234   1.421   7.504  0.0230  0.0710  0.1808
  526PNCE   C2A 4723   2.426   1.176   7.194  0.0096 -0.0047  0.0436
  526PNCE   C3A 4724   2.796   1.179   6.950 -0.0901 -0.0779 -0.3755
  526PNCE   C1B 4725   2.090   2.021   7.426  0.0176  0.0155 -0.3716
  526PNCE   C2B 4726   2.196   1.888   7.028  0.1137 -0.1645 -0.0423
  526PNCE   C3B 4727   2.362   1.662   6.730  0.2192 -0.1781 -0.0433
  526PNCE   D4B 4728   2.419   1.232   6.523  0.0728 -0.0084  0.1697
  526PNCE   C5B 4729   2.822   1.064   6.432  0.0691  0.0356  0.0650
  526PNCE   C6B 4730   2.995   0.654   6.314  0.0055  0.0922  0.0657
  527XCA    COO 4731  13.571   0.931   8.825  0.0358 -0.1298  0.1409
  527XCA     C1 4732  13.621   0.821   8.369  0.1921 -0.0108  0.1904
  527XCA     C2 4733  13.296   0.902   8.063 -0.0484 -0.0767 -0.2321
  527XCA     C3 4734  13.122   0.713   7.707 -0.0620  0.1382  0.0262
  527XCA     C4 4735  13.059   0.731   7.240  0.1119 -0.1860  0.2309
  527XCA     C5 4736  13.150   0.649   6.755 -0.1580  0.2249 -0.2468
  527XCA     C6 4737  13.254   0.663   6.347 -0.4075 -0.1170 -0.1331
  528CHOL   ROH 4738   5.801  10.485   5.262  0.1673 -0.0333 -0.0632
  528CHOL    R1 4739   5.717  10.696   5.430  0.0861 -0.0607 -0.0702
  528CHOL    R2 4740   5.861  10.776   5.652  0.0966  0.0534 -0.1231
  528CHOL    R3 4741   5.848  11.020   5.533 -0.0812  0.0344 -0.1474
  528CHOL    R4 4742   5.913  11.078   5.812 -0.1078  0.1035 -0.1470
  528CHOL    R5 4743   5.748  11.162   5.698 -0.1771 -0.0217 -0.1510
  528CHOL    C1 4744   5.931  11.482   5.794 -0.3937  0.1150 -0.1836
  528CHOL    C2 4745   6.130  11.855   5.912  0.3220  0.0908 -0.0326
  529XCA    COO 4746  10.791   1.547   5.229  0.1219 -0.2716 -0.0455
  529XCA     C1 4747  10.676   1.677   5.654 -0.1377  0.0785  0.0894
  529XCA     C2 4748  10.723   2.147   5.803 -0.2410 -0.3311 -0.2687
  529XCA     C3 4749  10.644   2.630   5.996 -0.1917  0.0294 -0.4974
  529XCA     C4 4750  10.375   2.872   6.320  0.1788  0.1135  0.1485
  529XCA     C5 4751  10.107   2.870   6.592  0.0427  0.0033  0.1666
  529XCA     C6 4752   9.680   2.956   6.816 -0.0509 -0.2635 -0.1089
  530PNCE   AM1 4753  11.969   7.452   8.769  0.1020 -0.0316 -0.1986
  530PNCE   AM2 4754  12.208   7.250   8.759 -0.0688 -0.0385  0.1519
  530PNCE   T1A 4755  12.214   7.880   8.526 -0.0229  0.1969  0.0295
  530PNCE   C2A 4756  12.502   8.034   8.378 -0.0595 -0.1510 -0.2354
  530PNCE   C3A 4757  12.877   7.947   8.355 -0.0690 -0.1648 -0.3014
  530PNCE   C1B 4758  12.179   7.365   8.338 -0.0304  0.1348  0.2700
  530PNCE   C2B 4759  12.145   7.410   7.951 -0.1075 -0.3328 -0.1625
  530PNCE   C3B 4760  11.855   7.466   7.584 -0.1273 -0.1404  0.1127
  530PNCE   D4B 4761  11.869   7.372   7.242 -0.1755 -0.2145  0.0065
  530PNCE   C5B 4762  12.097   6.968   7.118 -0.1805 -0.0033 -0.0049
  530PNCE   C6B 4763  12.063   6.655   6.893  0.0939  0.0176 -0.0839
  531CHOL   ROH 4764   0.848   3.019   8.049 -0.4216 -0.0804 -0.0665
  531CHOL    R1 4765   0.917   3.184   7.830 -0.3437 -0.0333 -0.0070
  531CHOL    R2 4766   0.891   3.102   7.568 -0.2074  0.0066 -0.0327
  531CHOL    R3 4767   0.745   3.330   7.544 -0.2313 -0.0118 -0.0648
  531CHOL    R4 4768   0.839   3.274   7.272 -0.1189  0.0247 -0.0379
  531CHOL    R5 4769   0.864   3.460   7.382 -0.1863  0.0195 -0.0091
  531CHOL    C1 4770   0.672   3.588   7.078 -0.0898  0.0180 -0.0711
  531CHOL    C2 4771   0.689   3.777   6.677 -0.2126 -0.2146  0.1965
  532PNCE   AM1 4772   6.046   9.063   8.437 -0.3309 -0.0507 -0.1130
  532PNCE   AM2 4773   5.627   9.004   8.393  0.0767 -0.0388  0.1216
  532PNCE   T1A 4774   6.148   8.839   8.153  0.0249 -0.0353  0.0533
  532PNCE   C2A 4775   6.287   8.654   7.750 -0.2696  0.0758 -0.0158
  532PNCE   C3A 4776   6.546   8.548   7.453 -0.0508 -0.1242 -0.1786
  532PNCE   C1B 4777   5.665   8.815   8.026 -0.4916  0.2673 -0.3031
  532PNCE   C2B 4778   5.787   8.613   7.672 -0.0754  0.1675 -0.4127
  532PNCE   C3B 4779   5.997   8.664   7.342 -0.2756 -0.0048 -0.2025
  532PNCE   D4B 4780   6.300   8.934   7.093  0.1293  0.0915  0.1231
  532PNCE   C5B 4781   6.216   9.280   6.867 -0.1858 -0.0658 -0.2817
  532PNCE   C6B 4782   6.340   9.341   6.498 -0.0687  0.2028  0.1823
  533PNCE   AM1 4783   5.995  12.926   8.319  0.4218 -0.0275 -0.0088
  533PNCE   AM2 4784   5.877  12.611   8.189 -0.3847 -0.1470 -0.0773
  533PNCE   T1A 4785   6.210  13.171   7.902  0.0402 -0.2403 -0.2498
  533PNCE   C2A 4786   6.421  12.933   7.515  0.1502 -0.1449  0.1114
  533PNCE   C3A 4787   6.432  12.492   7.479  0.1968 -0.1504 -0.0928
  533PNCE   C1B 4788   5.993  12.292   7.772  0.3462  0.1244  0.0306
  533PNCE   C2B 4789   5.786  12.259   7.292 -0.0356 -0.0082  0.2514
  533PNCE   C3B 4790   5.746  12.295   6.816  0.2942  0.2051  0.3689
  533PNCE   D4B 4791   5.826  12.007   6.545  0.0021 -0.3119 -0.1164
  533PNCE   C5B 4792   6.196  11.608   6.515  0.1058  0.0456  0.0929
  533PNCE   C6B 4793   6.384  11.192   6.459  0.1321  0.1335  0.2014
  534PNCE   AM1 4794   7.652   9.677   8.493 -0.0561 -0.0423  0.1810
  534PNCE   AM2 4795   7.579   9.338   8.395 -0.2515 -0.1146  0.1956
  534PNCE   T1A 4796   7.680  10.095   8.279  0.0485  0.1567 -0.1277
  534PNCE   C2A 4797   7.901  10.192   7.840  0.1715 -0.0916 -0.2104
  534PNCE   C3A 4798   8.220   9.871   7.754  0.0035  0.0201  0.0933
  534PNCE   C1B 4799   7.356   9.498   8.106 -0.3062 -0.1144 -0.0361
  534PNCE   C2B 4800   7.175   9.804   7.761  0.0550  0.2685 -0.2470
  534PNCE   C3B 4801   7.102  10.183   7.458  0.1005 -0.1216  0.0165
  534PNCE   D4B 4802   6.748  10.355   7.165  0.0485 -0.1701 -0.1528
  534PNCE   C5B 4803   6.790  10.637   6.811 -0.3985 -0.2015  0.0850
  534PNCE   C6B 4804   6.813  10.897   6.580 -0.2245 -0.0506  0.2103
  535PNCE   AM1 4805  15.850   6.490   8.384 -0.0865  0.1443 -0.0029
  535PNCE   AM2 4806  15.676   6.734   8.656 -0.0953 -0.0658  0.0466
  535PNCE   T1A 4807  15.722   6.468   7.982 -0.3017  0.0460  0.0065
  535PNCE   C2A 4808  15.646   6.492   7.526  0.0992  0.0719  0.0935
  535PNCE   C3A 4809  15.505   6.332   7.177  0.0580  0.0209  0.1728
  535PNCE   C1B 4810  15.777   6.931   8.229 -0.0782 -0.2814  0.3398
  535PNCE   C2B 4811  15.597   6.930   7.789  0.2013  0.4887  0.2834
  535PNCE   C3B 4812  15.641   6.996   7.350 -0.0333 -0.0011  0.3250
  535PNCE   D4B 4813  15.852   6.722   6.993  0.0273  0.1445 -0.1901
  535PNCE   C5B 4814  16.089   6.739   6.624  0.3414  0.0998  0.1012
  535PNCE   C6B 4815  16.408   6.731   6.432  0.0258 -0.1151  0.1355
  536CHOL   ROH 4816   0.906   8.704   5.146  0.1638 -0.0645  0.1866
  536CHOL    R1 4817   0.894   8.771   5.421 -0.0449 -0.0811  0.1829
  536CHOL    R2 4818   1.063   8.957   5.537 -0.0876 -0.1383  0.3348
  536CHOL    R3 4819   0.830   9.070   5.618 -0.1237 -0.0771  0.1526
  536CHOL    R4 4820   1.019   9.127   5.834 -0.1778  0.1952  0.1356
  536CHOL    R5 4821   0.824   9.032   5.854 -0.1709  0.1885  0.1988
  536CHOL    C1 4822   0.774   9.333   6.083 -0.2644  0.4468 -0.1514
  536CHOL    C2 4823   0.643   9.529   6.352  0.2191  0.2322 -0.0664
  537CHOL   ROH 4824   1.744   6.361   8.385 -0.2012  0.0160  0.1296
  537CHOL    R1 4825   1.494   6.388   8.255 -0.2147  0.0020  0.1539
  537CHOL    R2 4826   1.451   6.573   8.055 -0.2238 -0.0484  0.1141
  537CHOL    R3 4827   1.368   6.355   7.915 -0.2624 -0.0759  0.1778
  537CHOL    R4 4828   1.312   6.582   7.738  0.0136 -0.1300  0.0045
  537CHOL    R5 4829   1.171   6.428   7.801 -0.1355 -0.0062 -0.0085
  537CHOL    C1 4830   1.154   6.382   7.423  0.1156 -0.2034  0.0007
  537CHOL    C2 4831   1.123   6.409   7.114  0.1709  0.0933  0.1182
  538PNCE   AM1 4832   7.830   4.255   4.720  0.2055  0.2343 -0.1458
  538PNCE   AM2 4833   7.912   4.668   4.666 -0.0836  0.0078  0.3498
  538PNCE   T1A 4834   7.669   4.185   4.990 -0.1546  0.0296  0.0373
  538PNCE   C2A 4835   7.328   4.406   5.240  0.0493 -0.1801 -0.0504
  538PNCE   C3A 4836   7.357   4.598   5.661 -0.1405 -0.0926  0.1570
  538PNCE   C1B 4837   8.007   4.641   5.066 -0.1152  0.1404  0.0825
  538PNCE   C2B 4838   7.774   4.626   5.448  0.1991  0.0196  0.1805
  538PNCE   C3B 4839   7.916   4.738   5.803 -0.0668 -0.1743 -0.3310
  538PNCE   D4B 4840   7.964   4.780   6.216  0.0816  0.0691  0.0011
  538PNCE   C5B 4841   7.915   4.311   6.477  0.1235  0.0170  0.3335
  538PNCE   C6B 4842   8.326   4.056   6.516 -0.3000 -0.2920  0.0145
  539XCA    COO 4843   3.368   6.015   8.327  0.2423  0.2857 -0.2875
  539XCA     C1 4844   3.672   6.013   7.961  0.0001  0.4234 -0.0716
  539XCA     C2 4845   3.741   5.948   7.489 -0.2290  0.0637 -0.0379
  539XCA     C3 4846   3.568   6.070   7.103  0.3650 -0.1317  0.3175
  539XCA     C4 4847   3.468   6.368   6.856 -0.1557 -0.0225 -0.0099
  539XCA     C5 4848   3.228   6.473   6.475 -0.0667 -0.0663  0.1484
  539XCA     C6 4849   3.188   6.727   6.172 -0.2206  0.0395  0.0424
  540CHOL   ROH 4850   5.557   5.184   8.717  0.0761 -0.0651 -0.0141
  540CHOL    R1 4851   5.500   5.213   8.441  0.0172 -0.1745 -0.0139
  540CHOL    R2 4852   5.255   5.300   8.348  0.0425 -0.0761  0.0104
  540CHOL    R3 4853   5.406   5.484   8.217  0.1178 -0.2327 -0.1284
  540CHOL    R4 4854   5.243   5.359   8.008 -0.1719 -0.1028  0.0115
  540CHOL    R5 4855   5.461   5.380   8.009 -0.1472 -0.3096 -0.1635
  540CHOL    C1 4856   5.378   5.567   7.687 -0.2259 -0.2653 -0.1181
  540CHOL    C2 4857   5.306   5.871   7.520  0.4002 -0.4342  0.0759
  541PNCE   AM1 4858  11.996  10.826   8.279 -0.0007 -0.2146 -0.1042
  541PNCE   AM2 4859  12.327  10.687   8.265 -0.0599  0.0512  0.3247
  541PNCE   T1A 4860  11.773  10.807   7.884 -0.0857  0.0104  0.0241
  541PNCE   C2A 4861  11.558  10.843   7.560  0.2045  0.3516  0.0872
  541PNCE   C3A 4862  11.101  11.038   7.526  0.2393  0.1180  0.1309
  541PNCE   C1B 4863  12.187  10.616   7.808  0.1092 -0.0955  0.5687
  541PNCE   C2B 4864  12.173  10.804   7.459  0.1344  0.2479 -0.5128
  541PNCE   C3B 4865  11.950  10.959   7.210 -0.0000  0.2258  0.0835
  541PNCE   D4B 4866  11.947  11.375   7.000  0.1171  0.2447 -0.0861
  541PNCE   C5B 4867  12.028  11.557   6.590  0.0550 -0.0261 -0.1704
  541PNCE   C6B 4868  12.116  11.444   6.157 -0.3052 -0.1046 -0.0726
  542PNCE   AM1 4869   4.944   5.551   9.161  0.2018  0.0984  0.1245
  542PNCE   AM2 4870   4.750   5.888   9.069  0.0549 -0.3122 -0.0231
  542PNCE   T1A 4871   4.929   5.385   8.800  0.0265 -0.1148 -0.1964
  542PNCE   C2A 4872   4.927   5.628   8.404 -0.2230 -0.0988  0.2822
  542PNCE   C3A 4873   5.072   5.782   8.002  0.1465 -0.1292 -0.3522
  542PNCE   C1B 4874   4.896   6.179   8.627  0.0903  0.1579  0.2941
  542PNCE   C2B 4875   5.116   6.381   8.299  0.1627  0.1459 -0.3113
  542PNCE   C3B 4876   5.345   6.586   7.901 -0.2260 -0.1007  0.0329
  542PNCE   D4B 4877   5.154   6.899   7.526  0.0722 -0.2249 -0.2689
  542PNCE   C5B 4878   5.256   7.015   7.196  0.1660  0.1337  0.2090
  542PNCE   C6B 4879   5.489   7.170   7.003 -0.0261  0.0053  0.3458
  543PNCE   AM1 4880  15.350   7.056   8.429 -0.0521 -0.2624  0.4385
  543PNCE   AM2 4881  15.323   6.787   8.216  0.1272 -0.2107 -0.1640
  543PNCE   T1A 4882  14.897   7.138   8.477 -0.0713 -0.0063 -0.1557
  543PNCE   C2A 4883  14.630   7.281   8.175  0.1855  0.1713 -0.1487
  543PNCE   C3A 4884  14.356   7.346   7.791 -0.1452  0.0244  0.1221
  543PNCE   C1B 4885  15.133   7.138   8.001 -0.1405 -0.0702 -0.0743
  543PNCE   C2B 4886  14.911   7.351   7.737 -0.0594 -0.1676  0.0552
  543PNCE   C3B 4887  14.818   7.350   7.323 -0.1102 -0.0787 -0.2424
  543PNCE   D4B 4888  14.724   7.060   7.049  0.4919  0.2797  0.0806
  543PNCE   C5B 4889  14.960   6.948   6.738  0.1020  0.2175  0.3750
  543PNCE   C6B 4890  15.139   6.942   6.307 -0.0360 -0.1363  0.1280
  544CHOL   ROH 4891   3.176   4.027   8.082  0.1138  0.0384  0.0784
  544CHOL    R1 4892   2.895   4.001   8.104  0.0990  0.1318  0.0085
  544CHOL    R2 4893   2.725   4.033   7.889  0.1719  0.0658 -0.0601
  544CHOL    R3 4894   2.637   3.787   7.964  0.0796  0.1305  0.0462
  544CHOL    R4 4895   2.409   3.908   7.823  0.2498  0.0130 -0.3466
  544CHOL    R5 4896   2.407   3.822   8.024  0.0010  0.1869 -0.2689
  544CHOL    C1 4897   2.143   3.605   7.855  0.2085  0.0429 -0.4137
  544CHOL    C2 4898   1.794   3.523   7.856  0.4740  0.0894 -0.1689
  545PNCE   AM1 4899  11.179   5.585   8.447  0.0837  0.1145  0.3746
  545PNCE   AM2 4900  10.824   5.351   8.394 -0.0449  0.0331 -0.1084
  545PNCE   T1A 4901  11.010   5.595   8.023  0.1258 -0.2745 -0.1045
  545PNCE   C2A 4902  11.264   5.786   7.688  0.1068  0.1648  0.0280
  545PNCE   C3A 4903  11.674   5.855   7.352 -0.1688 -0.1021 -0.1024
  545PNCE   C1B 4904  10.663   5.197   8.002 -0.3210  0.2192  0.1562
  545PNCE   C2B 4905  10.461   5.091   7.526  0.0686  0.1499  0.0772
  545PNCE   C3B 4906  10.187   5.101   7.144  0.2525 -0.2625  0.3266
  545PNCE   D4B 4907   9.935   5.020   6.725  0.1632 -0.2176 -0.0522
  545PNCE   C5B 4908  10.208   4.651   6.536 -0.2391  0.1906 -0.0106
  545PNCE   C6B 4909  10.396   4.219   6.692  0.0360 -0.1847 -0.2321
  546PNCE   AM1 4910   0.169  14.755   7.964  0.0133 -0.2402  0.1245
  546PNCE   AM2 4911   0.293  14.354   8.041 -0.0324  0.1234  0.1813
  546PNCE   T1A 4912  -0.105  14.661   7.588  0.1855  0.1356  0.0698
  546PNCE   C2A 4913  -0.508  14.533   7.472 -0.1451 -0.1009  0.0670
  546PNCE   C3A 4914  -0.620  14.677   7.059 -0.2894 -0.2046 -0.4384
  546PNCE   C1B 4915   0.636  14.547   7.757 -0.2854  0.2354  0.0422
  546PNCE   C2B 4916   0.793  14.796   7.361 -0.0190  0.2066 -0.0602
  546PNCE   C3B 4917   0.804  14.700   6.972  0.2251  0.1540  0.1902
  546PNCE   D4B 4918   0.483  14.509   6.730  0.1726 -0.3186 -0.0204
  546PNCE   C5B 4919   0.077  14.316   6.816 -0.0758 -0.1662 -0.1728
  546PNCE   C6B 4920  -0.268  14.189   6.995  0.2006 -0.0707  0.1658
  547PNCE   AM1 4921  10.842   3.257   8.458  0.0580 -0.0666  0.1402
  547PNCE   AM2 4922  11.187   3.415   8.254  0.1723  0.0367  0.0952
  547PNCE   T1A 4923  10.491   3.070   8.147 -0.4447 -0.2109  0.0642
  547PNCE   C2A 4924  10.298   3.007   7.686  0.0460 -0.4155 -0.3162
  547PNCE   C3A 4925  10.516   2.974   7.340  0.2255 -0.2258 -0.3149
  547PNCE   C1B 4926  10.971   3.274   7.871  0.0430  0.0437  0.0967
  547PNCE   C2B 4927  10.914   3.296   7.366  0.0214 -0.1152 -0.0042
  547PNCE   C3B 4928  10.960   3.109   7.008  0.2704  0.3173  0.0128
  547PNCE   D4B 4929  11.083   2.770   6.685  0.0079  0.1128  0.0525
  547PNCE   C5B 4930  10.732   2.530   6.622  0.1878  0.1118  0.1896
  547PNCE   C6B 4931  10.361   2.409   6.529  0.1203 -0.1024 -0.0806
  548PNCE   AM1 4932  13.778  13.499   8.578  0.2416 -0.2162  0.0163
  548PNCE   AM2 4933  13.979  13.344   8.762  0.0054 -0.1759 -0.0868
  548PNCE   T1A 4934  13.337  13.247   8.395 -0.3918  0.1867 -0.2849
  548PNCE   C2A 4935  12.897  13.096   8.164 -0.0212  0.0223  0.0160
  548PNCE   C3A 4936  12.473  13.034   8.175 -0.2037  0.0037 -0.2900
  548PNCE   C1B 4937  13.977  12.950   8.656 -0.2106 -0.0092 -0.1659
  548PNCE   C2B 4938  13.635  12.752   8.495 -0.1792 -0.0917 -0.5389
  548PNCE   C3B 4939  13.264  12.746   8.228  0.0873  0.0370 -0.3662
  548PNCE   D4B 4940  13.059  12.687   7.828  0.0819  0.0713 -0.0622
  548PNCE   C5B 4941  12.746  12.982   7.675 -0.1879  0.0092 -0.0463
  548PNCE   C6B 4942  12.606  13.354   7.830 -0.0374  0.2852 -0.0073
  549CHOL   ROH 4943   6.884   0.999   5.122  0.1569 -0.0769  0.1650
  549CHOL    R1 4944   6.735   0.887   5.335  0.0309 -0.0249  0.1051
  549CHOL    R2 4945   6.850   0.729   5.530 -0.1078 -0.0880  0.1377
  549CHOL    R3 4946   6.735   0.909   5.699 -0.0893 -0.0470  0.1067
  549CHOL    R4 4947   6.712   0.652   5.838 -0.2371 -0.0392  0.0928
  549CHOL    R5 4948   6.550   0.791   5.795 -0.1671  0.0261  0.0457
  549CHOL    C1 4949   6.525   0.777   6.175 -0.2951  0.0276  0.0377
  549CHOL    C2 4950   6.349   0.520   6.373 -0.2752 -0.1223  0.0836
  550XCA    COO 4951  13.016   6.722   4.538  0.1211  0.1118 -0.0635
  550XCA     C1 4952  12.802   6.914   4.670 -0.1167  0.3439  0.2770
  550XCA     C2 4953  12.582   7.254   4.881  0.0497  0.2492  0.2924
  550XCA     C3 4954  12.358   7.421   5.260 -0.0382 -0.2453 -0.1474
  550XCA     C4 4955  12.532   7.214   5.522  0.1666 -0.0778 -0.0429
  550XCA     C5 4956  12.644   7.051   5.876  0.1430 -0.3428  0.1195
  550XCA     C6 4957  12.367   7.160   6.200 -0.1290  0.4244 -0.0144
  551PNCE   AM1 4958   1.489  10.050   8.447 -0.0332 -0.3891  0.1102
  551PNCE   AM2 4959   1.522   9.771   8.588  0.1697 -0.0322 -0.2015
  551PNCE   T1A 4960   1.387   9.850   8.064 -0.0751  0.2504  0.1495
  551PNCE   C2A 4961   1.272   9.733   7.616  0.2835  0.0982 -0.1837
  551PNCE   C3A 4962   1.172   9.659   7.229 -0.1762 -0.2814  0.0299
  551PNCE   C1B 4963   1.826   9.549   8.304 -0.2777  0.0621  0.0876
  551PNCE   C2B 4964   1.649   9.409   7.842  0.0027 -0.0367 -0.0165
  551PNCE   C3B 4965   1.644   9.444   7.396  0.0481  0.3093 -0.0713
  551PNCE   D4B 4966   1.691   9.750   7.035  0.2556  0.0525  0.3233
  551PNCE   C5B 4967   1.316   9.929   6.684  0.1025  0.3185 -0.4608
  551PNCE   C6B 4968   1.043  10.110   6.393 -0.5072 -0.1384  0.0004
  552XCA    COO 4969  14.460   5.709   4.659 -0.0390 -0.1732  0.0662
  552XCA     C1 4970  14.643   5.805   5.056  0.1786  0.0059 -0.3338
  552XCA     C2 4971  14.786   5.751   5.539  0.0603 -0.0841  0.1193
  552XCA     C3 4972  15.118   5.920   5.847  0.0722 -0.1701 -0.1590
  552XCA     C4 4973  15.237   5.999   6.273  0.4996  0.1572 -0.0093
  552XCA     C5 4974  14.969   5.848   6.660 -0.0046  0.0325 -0.0383
  552XCA     C6 4975  15.042   5.534   6.893 -0.0162  0.0365 -0.2834
  553PNCE   AM1 4976   6.878  11.557   8.320 -0.3117 -0.1369  0.2618
  553PNCE   AM2 4977   6.935  11.793   8.538 -0.0728 -0.2128 -0.2737
  553PNCE   T1A 4978   6.980  11.685   7.914  0.1210 -0.1001  0.3819
  553PNCE   C2A 4979   7.114  11.845   7.534 -0.1775 -0.1738  0.0086
  553PNCE   C3A 4980   7.182  12.235   7.370 -0.1413 -0.3427 -0.0160
  553PNCE   C1B 4981   7.284  11.931   8.302  0.0417 -0.0001 -0.2016
  553PNCE   C2B 4982   7.186  12.171   7.925 -0.0897  0.3386 -0.0621
  553PNCE   C3B 4983   7.472  12.464   7.685 -0.1236  0.1801 -0.3191
  553PNCE   D4B 4984   7.375  12.802   7.521 -0.0740  0.0329  0.3276
  553PNCE   C5B 4985   7.353  12.775   7.112 -0.0494  0.0212  0.2265
  553PNCE   C6B 4986   7.141  12.464   6.793 -0.0270 -0.1899 -0.1598
  554CHOL   ROH 4987  15.511   4.749   3.900 -0.2072 -0.2893  0.0131
  554CHOL    R1 4988  15.343   4.650   4.106 -0.2887 -0.1130  0.0329
  554CHOL    R2 4989  15.397   4.691   4.374 -0.1760 -0.2265  0.0289
  554CHOL    R3 4990  15.145   4.793   4.376 -0.0504  0.0954  0.1017
  554CHOL    R4 4991  15.216   4.767   4.659 -0.1224 -0.3137  0.0870
  554CHOL    R5 4992  15.039   4.686   4.562 -0.2146  0.0191 -0.0336
  554CHOL    C1 4993  14.875   4.907   4.826  0.0266 -0.0624  0.1890
  554CHOL    C2 4994  14.813   4.811   5.203 -0.2268  0.1056  0.2237
  555CHOL   ROH 4995  10.199   4.241   8.000 -0.0040 -0.0936  0.1281
  555CHOL    R1 4996   9.982   4.211   7.821  0.0276 -0.1023  0.0909
  555CHOL    R2 4997   9.756   4.370   7.832 -0.0765 -0.2511  0.1916
  555CHOL    R3 4998   9.815   4.416   7.570 -0.0835 -0.0246  0.2273
  555CHOL    R4 4999   9.532   4.486   7.596 -0.1665 -0.3549  0.2261
  555CHOL    R5 5000   9.619   4.347   7.452  0.0117 -0.1713  0.1538
  555CHOL    C1 5001   9.456   4.595   7.213 -0.2257 -0.2026  0.2798
  555CHOL    C2 5002   9.214   4.692   7.083 -0.2834 -0.3250 -0.1343
  556CHOL   ROH 5003   7.869  11.486   4.683  0.1986  0.0968 -0.1157
  556CHOL    R1 5004   7.985  11.388   4.922 -0.0476  0.0646 -0.0051
  556CHOL    R2 5005   8.257  11.343   4.947 -0.1086 -0.2439  0.1665
  556CHOL    R3 5006   8.230  11.506   5.164 -0.0420 -0.1137  0.0769
  556CHOL    R4 5007   8.484  11.365   5.207 -0.0613 -0.1361  0.1157
  556CHOL    R5 5008   8.316  11.377   5.346 -0.0356 -0.0243  0.1371
  556CHOL    C1 5009   8.591  11.531   5.561  0.0288  0.0487  0.0021
  556CHOL    C2 5010   8.643  11.305   5.838 -0.2066  0.0203  0.1616
  557PNCE   AM1 5011   9.843   7.310   9.020  0.1116  0.2590  0.0907
  557PNCE   AM2 5012   9.784   6.921   9.092  0.2557 -0.1354 -0.0242
  557PNCE   T1A 5013   9.951   6.999   8.616  0.1293  0.2342 -0.0743
  557PNCE   C2A 5014   9.963   6.682   8.339 -0.1591 -0.2517 -0.0289
  557PNCE   C3A 5015  10.244   6.440   8.100  0.2432  0.0891 -0.2462
  557PNCE   C1B 5016   9.389   6.934   8.851  0.0974 -0.0577  0.0898
  557PNCE   C2B 5017   9.021   6.971   8.630 -0.0938  0.0329  0.0206
  557PNCE   C3B 5018   8.865   6.996   8.259 -0.1639 -0.1056  0.0309
  557PNCE   D4B 5019   8.502   7.044   7.853  0.0620 -0.1214 -0.1363
  557PNCE   C5B 5020   8.594   7.206   7.447 -0.0379 -0.0382 -0.1702
  557PNCE   C6B 5021   8.869   6.907   7.200  0.0128 -0.1071  0.0583
  558CHOL   ROH 5022   1.785  10.366   4.388  0.2430 -0.1096 -0.0419
  558CHOL    R1 5023   1.669  10.340   4.645  0.1354 -0.2214 -0.1016
  558CHOL    R2 5024   1.714  10.122   4.807  0.4484 -0.0763  0.0089
  558CHOL    R3 5025   1.788  10.311   4.987 -0.0100  0.1400 -0.0151
  558CHOL    R4 5026   1.614  10.129   5.138  0.6290 -0.4420  0.0770
  558CHOL    R5 5027   1.592  10.345   5.121 -0.0507 -0.4831  0.1181
  558CHOL    C1 5028   1.625  10.311   5.500  0.3038 -0.4520  0.0941
  558CHOL    C2 5029   1.576  10.432   5.853 -0.2727 -0.0436  0.2184
  559PNCE   AM1 5030   0.231  15.191   7.818  0.1090  0.1405  0.1838
  559PNCE   AM2 5031   0.517  15.078   7.663  0.1180 -0.0776  0.6075
  559PNCE   T1A 5032   0.022  15.382   7.515 -0.0040  0.1654 -0.0946
  559PNCE   C2A 5033  -0.251  15.568   7.140 -0.0410  0.2739 -0.0826
  559PNCE   C3A 5034  -0.094  15.647   6.671  0.2390 -0.1655  0.1710
  559PNCE   C1B 5035   0.334  14.941   7.253  0.3154  0.1755 -0.0344
  559PNCE   C2B 5036   0.457  15.004   6.796 -0.0213  0.0033 -0.1996
  559PNCE   C3B 5037   0.847  14.985   6.496 -0.0655  0.2129  0.0165
  559PNCE   D4B 5038   0.988  14.810   6.148  0.0198  0.1551 -0.0245
  559PNCE   C5B 5039   0.741  14.983   5.861 -0.0156  0.4921 -0.0235
  559PNCE   C6B 5040   0.337  15.193   5.675  0.0724 -0.0123  0.0187
  560PNCE   AM1 5041   7.212  13.153   8.200 -0.0323 -0.4318 -0.1229
  560PNCE   AM2 5042   7.336  13.406   8.219 -0.0107  0.1699  0.2949
  560PNCE   T1A 5043   7.174  12.760   8.080  0.1251  0.0140  0.1222
  560PNCE   C2A 5044   6.915  12.566   7.759  0.1239 -0.1699  0.1787
  560PNCE   C3A 5045   6.909  12.745   7.310  0.0637 -0.1103 -0.2034
  560PNCE   C1B 5046   7.291  13.270   7.702  0.0565  0.0991  0.1207
  560PNCE   C2B 5047   7.104  13.220   7.222 -0.0321  0.2921  0.4159
  560PNCE   C3B 5048   6.916  13.000   6.900  0.1506  0.1937 -0.1069
  560PNCE   D4B 5049   6.509  12.918   6.963  0.1059  0.1817  0.0231
  560PNCE   C5B 5050   6.149  13.186   6.802  0.3502  0.3170 -0.1365
  560PNCE   C6B 5051   6.081  13.397   6.473 -0.0198 -0.1613 -0.1827
  561PNCE   AM1 5052  12.317  13.299   8.621  0.0275  0.2466 -0.0221
  561PNCE   AM2 5053  12.622  13.291   8.713 -0.0408 -0.0237 -0.1273
  561PNCE   T1A 5054  11.890  13.551   8.608 -0.2342 -0.0941  0.0889
  561PNCE   C2A 5055  11.675  13.890   8.563 -0.4074  0.0697  0.1873
  561PNCE   C3A 5056  11.685  14.276   8.401 -0.1704 -0.2632  0.1819
  561PNCE   C1B 5057  12.604  13.524   8.279 -0.0015  0.0908 -0.0725
  561PNCE   C2B 5058  12.672  13.845   7.925 -0.0657 -0.0853 -0.1282
  561PNCE   C3B 5059  12.399  13.710   7.594  0.3161 -0.2690 -0.1512
  561PNCE   D4B 5060  12.355  13.368   7.332 -0.1252 -0.3887 -0.0774
  561PNCE   C5B 5061  12.464  13.053   7.280  0.0716 -0.3156  0.0742
  561PNCE   C6B 5062  12.428  12.818   6.885  0.0889 -0.0891  0.3109
  562PNCE   AM1 5063   8.997   4.617   4.478  0.0058 -0.0059  0.1132
  562PNCE   AM2 5064   8.925   4.233   4.597  0.0658 -0.0163 -0.1914
  562PNCE   T1A 5065   9.115   4.791   4.902  0.3127 -0.2638  0.0935
  562PNCE   C2A 5066   8.992   4.555   5.236  0.1177  0.2747  0.0448
  562PNCE   C3A 5067   8.578   4.511   5.319  0.2365  0.4274 -0.0489
  562PNCE   C1B 5068   8.647   4.553   4.824 -0.2541  0.0196  0.0371
  562PNCE   C2B 5069   8.320   4.893   4.817  0.1751  0.0640 -0.1855
  562PNCE   C3B 5070   7.879   5.110   4.850 -0.0220 -0.0562 -0.2519
  562PNCE   D4B 5071   7.585   5.387   5.061 -0.0010  0.1274  0.3730
  562PNCE   C5B 5072   7.534   5.523   5.473 -0.2164  0.0248  0.1335
  562PNCE   C6B 5073   7.472   5.747   5.719 -0.2297 -0.3197 -0.0725
  563PNCE   AM1 5074   4.163   2.380   8.817 -0.0973  0.0969  0.0883
  563PNCE   AM2 5075   4.283   2.368   8.506  0.1165 -0.1397  0.0480
  563PNCE   T1A 5076   3.889   2.587   8.610 -0.1977 -0.0703 -0.3017
  563PNCE   C2A 5077   3.621   2.677   8.247  0.1174 -0.0638  0.1913
  563PNCE   C3A 5078   3.595   2.672   7.835  0.1116  0.1009 -0.0714
  563PNCE   C1B 5079   4.515   2.592   8.146 -0.5131 -0.0238 -0.0281
  563PNCE   C2B 5080   4.670   2.526   7.724  0.2975  0.1921 -0.0141
  563PNCE   C3B 5081   4.784   2.392   7.391 -0.0012 -0.1058 -0.1238
  563PNCE   D4B 5082   4.717   2.470   6.964 -0.0052  0.0275  0.2726
  563PNCE   C5B 5083   4.472   2.248   6.669  0.2007  0.0133 -0.1016
  563PNCE   C6B 5084   4.363   2.149   6.275 -0.1691 -0.0365  0.2192
  564PNCE   AM1 5085  15.932  12.822   8.142  0.1033 -0.3209  0.1749
  564PNCE   AM2 5086  15.836  13.183   7.981  0.2153 -0.0588 -0.0842
  564PNCE   T1A 5087  15.865  12.527   7.766  0.0241  0.0027  0.0850
  564PNCE   C2A 5088  16.249  12.403   7.599  0.0209  0.2170 -0.2175
  564PNCE   C3A 5089  16.405  12.406   7.121 -0.0065  0.0963 -0.2932
  564PNCE   C1B 5090  15.850  13.036   7.565 -0.0673 -0.2110  0.1571
  564PNCE   C2B 5091  16.013  12.731   7.316  0.1982 -0.0065  0.0042
  564PNCE   C3B 5092  16.223  12.833   6.961  0.3621 -0.0459 -0.1525
  564PNCE   D4B 5093  16.385  12.705   6.515  0.1458 -0.1918  0.0865
  564PNCE   C5B 5094  16.424  12.935   6.179  0.1167  0.1082 -0.2261
  564PNCE   C6B 5095  16.671  12.895   5.808  0.0511 -0.1702 -0.1512
  565CHOL   ROH 5096   8.895   1.536   6.843 -0.0546  0.1286  0.0816
  565CHOL    R1 5097   8.761   1.786   6.840  0.1254  0.2308 -0.0282
  565CHOL    R2 5098   8.741   1.942   6.613  0.0412  0.0482 -0.1712
  565CHOL    R3 5099   8.476   1.930   6.667  0.0831  0.2681  0.0831
  565CHOL    R4 5100   8.493   2.085   6.420 -0.0757 -0.1835 -0.1904
  565CHOL    R5 5101   8.391   2.144   6.603  0.1187  0.1821 -0.2138
  565CHOL    C1 5102   8.099   2.157   6.359 -0.1047 -0.1119  0.0371
  565CHOL    C2 5103   7.785   2.448   6.372 -0.0601  0.0627  0.0960
  566CHOL   ROH 5104  12.819   8.407   7.385 -0.1046  0.1238 -0.0219
  566CHOL    R1 5105  12.785   8.204   7.192 -0.0315  0.0851  0.0051
  566CHOL    R2 5106  12.537   8.098   7.128  0.0119 -0.0632  0.0689
  566CHOL    R3 5107  12.609   8.166   6.875 -0.0813 -0.0441  0.0478
  566CHOL    R4 5108  12.402   7.961   6.842  0.0425 -0.1761  0.1086
  566CHOL    R5 5109  12.602   7.959   6.754  0.0248 -0.0594  0.0697
  566CHOL    C1 5110  12.390   7.944   6.437 -0.0271 -0.2238  0.1120
  566CHOL    C2 5111  12.094   7.743   6.195 -0.3981  0.3580 -0.0588
  567PNCE   AM1 5112   8.495   2.819   8.686 -0.1195 -0.2169  0.2112
  567PNCE   AM2 5113   8.678   3.029   8.689 -0.4887 -0.2056  0.1618
  567PNCE   T1A 5114   8.395   2.590   8.299  0.1363  0.0017 -0.0204
  567PNCE   C2A 5115   8.419   2.485   7.865 -0.1743  0.0018 -0.0794
  567PNCE   C3A 5116   8.530   2.519   7.454 -0.1044 -0.1945 -0.3016
  567PNCE   C1B 5117   8.895   2.829   8.357 -0.0881  0.0199 -0.1081
  567PNCE   C2B 5118   8.929   2.618   8.003 -0.0480 -0.1539  0.3498
  567PNCE   C3B 5119   8.876   2.295   7.728 -0.0040 -0.0485  0.1890
  567PNCE   D4B 5120   8.967   2.102   7.322  0.0516 -0.0732  0.0607
  567PNCE   C5B 5121   8.557   2.125   7.103 -0.0151 -0.0570  0.1480
  567PNCE   C6B 5122   8.289   2.489   7.020  0.1279  0.3213  0.0453
  568PNCE   AM1 5123   7.920  14.078   7.959  0.0670 -0.0921  0.1355
  568PNCE   AM2 5124   7.957  14.196   8.271 -0.1279 -0.1861  0.0322
  568PNCE   T1A 5125   7.866  14.404   7.627  0.0649 -0.2332  0.2885
  568PNCE   C2A 5126   8.077  14.680   7.427  0.2284  0.0215  0.0961
  568PNCE   C3A 5127   7.797  14.923   7.217 -0.1955 -0.2018  0.1030
  568PNCE   C1B 5128   8.267  14.443   8.145  0.0672 -0.3258  0.1486
  568PNCE   C2B 5129   8.399  14.413   7.761  0.2031 -0.0068  0.1679
  568PNCE   C3B 5130   8.624  14.674   7.427  0.1001  0.1131  0.0927
  568PNCE   D4B 5131   8.516  14.883   7.108  0.1414 -0.0097 -0.3117
  568PNCE   C5B 5132   8.839  15.233   7.095 -0.0542  0.1088  0.0152
  568PNCE   C6B 5133   8.808  15.824   7.031 -0.0294 -0.1344 -0.2559
  569PNCE   AM1 5134   6.424  11.418   8.383 -0.1740 -0.0252 -0.1302
  569PNCE   AM2 5135   6.448  11.777   8.367 -0.2424  0.1868  0.1310
  569PNCE   T1A 5136   6.083  11.405   8.128  0.0223 -0.3170 -0.2444
  569PNCE   C2A 5137   5.809  11.605   7.826  0.0575 -0.1879  0.0862
  569PNCE   C3A 5138   5.539  11.984   7.691  0.1630  0.0936  0.7208
  569PNCE   C1B 5139   6.211  11.850   7.954  0.0400  0.3653 -0.1374
  569PNCE   C2B 5140   6.166  11.889   7.473 -0.0716 -0.2920  0.0561
  569PNCE   C3B 5141   6.374  11.604   7.085  0.2122 -0.1639 -0.0421
  569PNCE   D4B 5142   6.580  11.677   6.793  0.2059 -0.0703  0.3261
  569PNCE   C5B 5143   6.499  12.039   6.517 -0.0035  0.1297 -0.0905
  569PNCE   C6B 5144   6.241  12.244   6.230 -0.1972 -0.1056 -0.1720
  570CHOL   ROH 5145  11.199   1.294   5.604  0.2944 -0.0328  0.0959
  570CHOL    R1 5146  11.075   1.459   5.798  0.2131 -0.0886  0.0906
  570CHOL    R2 5147  11.211   1.563   6.014  0.1986  0.1060  0.0036
  570CHOL    R3 5148  11.115   1.799   5.920 -0.0609 -0.0083 -0.0305
  570CHOL    R4 5149  11.178   1.851   6.202  0.3249  0.2193 -0.1446
  570CHOL    R5 5150  10.988   1.888   6.103  0.1535  0.0494  0.0988
  570CHOL    C1 5151  11.069   2.241   6.223  0.1546  0.1780 -0.2630
  570CHOL    C2 5152  11.072   2.655   6.222  0.0630  0.0166  0.2281
  571XCA    COO 5153   2.209   6.174   8.453 -0.3118  0.1072  0.3076
  571XCA     C1 5154   1.890   6.045   8.147 -0.0972  0.1577  0.3841
  571XCA     C2 5155   1.741   6.104   7.755 -0.0528 -0.2060 -0.0930
  571XCA     C3 5156   1.736   6.399   7.474 -0.1408 -0.3829 -0.0909
  571XCA     C4 5157   1.495   6.688   7.236  0.1164 -0.1962 -0.2561
  571XCA     C5 5158   1.374   6.881   6.824  0.0087 -0.2099 -0.1366
  571XCA     C6 5159   1.280   6.870   6.357 -0.0001  0.3440 -0.1362
  572PNCE   AM1 5160   8.717  13.605   8.419 -0.1496  0.1041  0.4331
  572PNCE   AM2 5161   8.816  13.747   8.221 -0.0005  0.0258 -0.0981
  572PNCE   T1A 5162   9.112  13.313   8.452  0.1035 -0.0064 -0.0211
  572PNCE   C2A 5163   9.457  13.119   8.203  0.1543 -0.2828 -0.4009
  572PNCE   C3A 5164   9.935  13.252   8.050 -0.1509  0.0204  0.0615
  572PNCE   C1B 5165   8.995  13.699   7.822 -0.0598 -0.1923 -0.1913
  572PNCE   C2B 5166   8.891  13.471   7.583 -0.1588  0.0212  0.1492
  572PNCE   C3B 5167   8.502  13.620   7.231  0.3556 -0.0143  0.2364
  572PNCE   D4B 5168   8.108  13.562   7.055 -0.1604 -0.0987  0.0195
  572PNCE   C5B 5169   7.911  13.902   7.019 -0.0879 -0.3225 -0.0023
  572PNCE   C6B 5170   7.782  14.359   6.962  0.0263  0.2323 -0.0758
  573CHOL   ROH 5171   5.636   9.057   5.157  0.1108 -0.0735 -0.0486
  573CHOL    R1 5172   5.649   9.218   5.388  0.0257  0.0032 -0.0951
  573CHOL    R2 5173   5.539   9.142   5.630  0.0728  0.0103 -0.0637
  573CHOL    R3 5174   5.790   9.190   5.723  0.0510  0.1760 -0.0922
  573CHOL    R4 5175   5.628   9.151   5.964  0.1358 -0.0371 -0.0802
  573CHOL    R5 5176   5.756   9.321   5.920 -0.0106  0.0762 -0.0415
  573CHOL    C1 5177   5.915   9.201   6.245  0.1519  0.0909 -0.1165
  573CHOL    C2 5178   5.856   9.392   6.583  0.0773 -0.1244 -0.0314
  574PNCE   AM1 5179   6.821   8.048   8.768  0.0472  0.2477  0.1644
  574PNCE   AM2 5180   7.109   7.956   8.805  0.3251  0.0759  0.1111
  574PNCE   T1A 5181   6.755   7.903   8.350  0.0207  0.0164  0.1568
  574PNCE   C2A 5182   6.747   7.668   8.127 -0.3264  0.3734 -0.1750
  574PNCE   C3A 5183   6.986   7.415   7.892 -0.3188  0.1614  0.0476
  574PNCE   C1B 5184   7.183   8.221   8.377 -0.0802  0.0501 -0.0636
  574PNCE   C2B 5185   7.623   8.129   8.357 -0.1705  0.4548  0.2702
  574PNCE   C3B 5186   7.874   7.983   7.933  0.2352 -0.2246 -0.0701
  574PNCE   D4B 5187   7.892   8.121   7.540  0.1511 -0.2762  0.0430
  574PNCE   C5B 5188   7.740   7.861   7.246 -0.0211 -0.0688  0.0333
  574PNCE   C6B 5189   7.524   7.547   7.141  0.1848  0.0408  0.3196
  575PNCE   AM1 5190   8.537  13.356   7.972  0.1503  0.1142  0.0533
  575PNCE   AM2 5191   8.362  13.441   7.717  0.0060 -0.1205 -0.2753
  575PNCE   T1A 5192   8.734  13.011   7.592  0.0797  0.2387 -0.1748
  575PNCE   C2A 5193   9.157  12.976   7.381 -0.3768  0.0902 -0.1917
  575PNCE   C3A 5194   9.258  12.714   7.075 -0.0052 -0.0722  0.1107
  575PNCE   C1B 5195   8.133  13.795   7.572 -0.0296 -0.3061  0.1710
  575PNCE   C2B 5196   8.209  14.136   7.359 -0.2213 -0.3758  0.1455
  575PNCE   C3B 5197   8.296  14.407   6.926 -0.3529  0.2026 -0.2965
  575PNCE   D4B 5198   8.612  14.551   6.664 -0.0604 -0.0575  0.0580
  575PNCE   C5B 5199   8.901  14.649   6.984 -0.1359  0.1224  0.0183
  575PNCE   C6B 5200   9.072  14.812   7.391  0.3620 -0.2438  0.0868
  576XCA    COO 5201   4.831  12.808   4.128  0.0706  0.0970  0.2583
  576XCA     C1 5202   4.794  12.907   4.591  0.3240  0.4085  0.3135
  576XCA     C2 5203   4.792  12.884   5.068 -0.1372 -0.0560 -0.1014
  576XCA     C3 5204   4.773  12.909   5.514  0.1649 -0.0096 -0.2477
  576XCA     C4 5205   5.163  12.759   5.750 -0.1059  0.2952  0.3295
  576XCA     C5 5206   5.628  12.783   5.948 -0.1297  0.0422  0.0146
  576XCA     C6 5207   5.734  12.493   6.323 -0.1788 -0.1575 -0.0074
  577XCA    COO 5208  13.231   1.815   4.485 -0.0116 -0.0346  0.0887
  577XCA     C1 5209  13.280   2.011   4.794 -0.1310  0.1216  0.0101
  577XCA     C2 5210  13.467   2.016   5.203  0.0926  0.0911 -0.1314
  577XCA     C3 5211  13.511   1.870   5.695 -0.1162  0.0883  0.2744
  577XCA     C4 5212  13.510   1.973   6.077  0.1661 -0.1527  0.2290
  577XCA     C5 5213  13.422   2.133   6.491  0.2170  0.1185  0.3778
  577XCA     C6 5214  13.395   2.101   6.961  0.0915 -0.2180  0.1195
  578PNCE   AM1 5215   2.353  15.645   8.272 -0.1903 -0.0359  0.2211
  578PNCE   AM2 5216   2.682  15.864   8.108 -0.0095  0.1656  0.1350
  578PNCE   T1A 5217   2.362  15.283   8.042  0.1548  0.1920 -0.0290
  578PNCE   C2A 5218   2.478  14.828   7.974  0.3974 -0.1671 -0.0992
  578PNCE   C3A 5219   2.786  14.400   7.887  0.1585 -0.0107  0.1075
  578PNCE   C1B 5220   2.485  15.662   7.776 -0.4275  0.2158  0.2281
  578PNCE   C2B 5221   2.588  15.556   7.396  0.0609  0.0280  0.5205
  578PNCE   C3B 5222   2.675  15.456   6.903  0.0268 -0.2839  0.1000
  578PNCE   D4B 5223   2.662  14.988   6.785  0.2197 -0.1529 -0.1660
  578PNCE   C5B 5224   2.935  14.755   6.583 -0.0041  0.2729 -0.1780
  578PNCE   C6B 5225   3.236  14.464   6.493 -0.0246  0.1725 -0.0998
  579CHOL   ROH 5226   8.514  11.872   8.259  0.0054 -0.0660 -0.0324
  579CHOL    R1 5227   8.487  12.031   8.026  0.1015  0.0557  0.0377
  579CHOL    R2 5228   8.701  12.093   7.863  0.1271 -0.0639  0.0259
  579CHOL    R3 5229   8.541  11.987   7.669 -0.0013  0.1553  0.0089
  579CHOL    R4 5230   8.795  12.045   7.534  0.1570 -0.3330  0.0713
  579CHOL    R5 5231   8.597  12.112   7.472  0.2878  0.0021 -0.0136
  579CHOL    C1 5232   8.701  11.918   7.160  0.0539 -0.2840  0.0818
  579CHOL    C2 5233   8.826  11.909   6.772  0.1363  0.0662  0.1391
  580PNCE   AM1 5234   9.297   7.734   8.471  0.2788 -0.3045 -0.1623
  580PNCE   AM2 5235   9.023   7.575   8.607  0.1828  0.0461 -0.0363
  580PNCE   T1A 5236   9.228   7.584   8.045 -0.2537  0.1291  0.0529
  580PNCE   C2A 5237   9.271   7.428   7.630 -0.1144  0.0871  0.2964
  580PNCE   C3A 5238   9.374   7.209   7.250  0.0963  0.1588  0.1924
  580PNCE   C1B 5239   8.769   7.589   8.276 -0.1180  0.3136  0.0502
  580PNCE   C2B 5240   8.703   7.545   7.865 -0.0632  0.1552  0.3575
  580PNCE   C3B 5241   8.724   7.637   7.426  0.2684 -0.0915 -0.0108
  580PNCE   D4B 5242   8.937   7.432   7.159  0.0731  0.4475  0.3484
  580PNCE   C5B 5243   8.914   7.536   6.681 -0.1454  0.1120  0.1318
  580PNCE   C6B 5244   8.907   7.757   6.273 -0.2737  0.1480  0.0253
  581CHOL   ROH 5245  14.931  15.103   7.617 -0.0016  0.1121  0.0615
  581CHOL    R1 5246  14.984  15.146   7.342  0.1148 -0.0179  0.0622
  581CHOL    R2 5247  14.952  14.948   7.152  0.0825 -0.0770  0.1234
  581CHOL    R3 5248  14.795  15.134   7.031  0.2146 -0.0429  0.0035
  581CHOL    R4 5249  14.853  14.937   6.822 -0.1144 -0.3358  0.1886
  581CHOL    R5 5250  14.885  15.152   6.810  0.1101 -0.3830 -0.0690
  581CHOL    C1 5251  14.648  15.105   6.515 -0.1049 -0.4545  0.1139
  581CHOL    C2 5252  14.733  15.091   6.135 -0.1944 -0.0122 -0.2348
  582CHOL   ROH 5253  14.451  14.296   4.318  0.1249  0.0214 -0.1069
  582CHOL    R1 5254  14.585  14.465   4.502  0.0325  0.0633 -0.0787
  582CHOL    R2 5255  14.756  14.367   4.697 -0.1634  0.0968  0.1105
  582CHOL    R3 5256  14.931  14.543   4.585 -0.0062 -0.0186  0.1687
  582CHOL    R4 5257  15.045  14.482   4.847 -0.1405 -0.0886  0.2121
  582CHOL    R5 5258  15.003  14.680   4.768  0.0178 -0.0609  0.1918
  582CHOL    C1 5259  15.377  14.714   4.831  0.0206 -0.3048  0.3259
  582CHOL    C2 5260  15.546  14.972   5.067  0.2427 -0.0148 -0.0172
  583CHOL   ROH 5261   6.659   9.005   6.674 -0.1288 -0.0086 -0.0590
  583CHOL    R1 5262   6.834   8.794   6.743 -0.0320  0.0261 -0.1915
  583CHOL    R2 5263   6.770   8.604   6.933  0.1819  0.0558 -0.0817
  583CHOL    R3 5264   6.827   8.430   6.732 -0.0046  0.0238 -0.1077
  583CHOL    R4 5265   6.869   8.276   6.977  0.2541  0.0720 -0.1266
  583CHOL    R5 5266   7.011   8.302   6.814  0.0877  0.0535 -0.2724
  583CHOL    C1 5267   6.981   7.922   6.814  0.1210  0.0512 -0.1772
  583CHOL    C2 5268   7.102   7.538   6.828  0.3038 -0.0546 -0.0353
  584XCA    COO 5269   1.942   7.624   4.379 -0.0023 -0.1109  0.0701
  584XCA     C1 5270   1.860   7.729   4.797  0.2331 -0.2098 -0.1814
  584XCA     C2 5271   1.824   7.748   5.189  0.0061  0.2163  0.2917
  584XCA     C3 5272   1.910   7.776   5.558 -0.1317 -0.2216 -0.0520
  584XCA     C4 5273   1.935   7.844   6.038  0.1188  0.0066  0.0282
  584XCA     C5 5274   1.980   7.982   6.367 -0.1361 -0.0345 -0.2238
  584XCA     C6 5275   2.207   8.266   6.673  0.4062  0.0729 -0.0112
  585PNCE   AM1 5276  14.240   3.086   8.417  0.1994  0.0610 -0.0718
  585PNCE   AM2 5277  14.030   2.841   8.403  0.4776 -0.2285 -0.1211
  585PNCE   T1A 5278  13.949   3.416   8.106 -0.0279  0.1757 -0.2683
  585PNCE   C2A 5279  13.769   3.491   7.730 -0.0512 -0.1573  0.0684
  585PNCE   C3A 5280  13.565   3.196   7.526  0.1327  0.0917  0.3815
  585PNCE   C1B 5281  13.814   2.528   8.083 -0.1728 -0.2191 -0.1942
  585PNCE   C2B 5282  13.987   2.180   7.739 -0.0060 -0.1027  0.1932
  585PNCE   C3B 5283  14.186   2.053   7.492  0.0995  0.2770  0.2950
  585PNCE   D4B 5284  14.440   1.997   7.145  0.1863  0.1886  0.2097
  585PNCE   C5B 5285  14.251   1.802   6.744  0.3959 -0.0676  0.0869
  585PNCE   C6B 5286  13.956   2.018   6.348  0.0598 -0.1925 -0.0181
  586PNCE   AM1 5287  11.401  13.572   8.765 -0.0854 -0.0344  0.0009
  586PNCE   AM2 5288  11.554  13.358   8.932 -0.1264 -0.0029  0.1388
  586PNCE   T1A 5289  11.166  13.928   8.636 -0.0160  0.0337  0.0157
  586PNCE   C2A 5290  10.823  13.950   8.373  0.3433  0.0816  0.5298
  586PNCE   C3A 5291  10.839  13.909   7.942 -0.0855 -0.1881  0.1849
  586PNCE   C1B 5292  11.705  12.985   8.729  0.4003  0.0416  0.1170
  586PNCE   C2B 5293  12.086  12.911   8.800 -0.0329  0.3607  0.1250
  586PNCE   C3B 5294  12.506  12.750   8.668 -0.3320 -0.2083  0.1248
  586PNCE   D4B 5295  12.815  12.536   8.302  0.0926  0.0931 -0.0841
  586PNCE   C5B 5296  13.111  12.258   8.161  0.0091  0.1344  0.3898
  586PNCE   C6B 5297  13.383  12.119   7.802 -0.1060 -0.2500  0.0707
  587CHOL   ROH 5298  10.202   5.025   4.742  0.0382  0.1385  0.0070
  587CHOL    R1 5299  10.168   4.914   5.000  0.0467  0.1763  0.0242
  587CHOL    R2 5300  10.368   4.917   5.191  0.0223  0.2847  0.0473
  587CHOL    R3 5301  10.176   5.035   5.343 -0.0383  0.2456  0.0026
  587CHOL    R4 5302  10.389   4.964   5.532 -0.0857  0.2481  0.0597
  587CHOL    R5 5303  10.178   4.911   5.548 -0.0855  0.2216 -0.0104
  587CHOL    C1 5304  10.221   5.103   5.874 -0.2054  0.1900  0.0249
  587CHOL    C2 5305  10.024   5.097   6.159  0.0591 -0.0531  0.1738
  588PNCE   AM1 5306   5.293  14.228   7.772  0.3843 -0.2440  0.0304
  588PNCE   AM2 5307   5.220  13.892   7.680 -0.0137 -0.0821 -0.3636
  588PNCE   T1A 5308   5.215  14.720   7.576  0.1555  0.0618  0.0298
  588PNCE   C2A 5309   5.216  15.067   7.335 -0.1915  0.0855 -0.0895
  588PNCE   C3A 5310   5.290  15.454   7.515  0.0291  0.1552 -0.1480
  588PNCE   C1B 5311   5.124  14.087   7.317  0.1312 -0.1017  0.2581
  588PNCE   C2B 5312   5.059  14.549   7.109 -0.1332  0.1661  0.0364
  588PNCE   C3B 5313   5.146  14.870   6.712 -0.1450 -0.0245 -0.2704
  588PNCE   D4B 5314   5.209  15.350   6.691  0.0173  0.0472  0.0712
  588PNCE   C5B 5315   5.088  15.545   7.059  0.3840  0.1227 -0.1473
  588PNCE   C6B 5316   4.739  15.879   7.130 -0.3816  0.1412  0.0622
  589CHOL   ROH 5317  15.732   4.423   4.363  0.0049  0.0232  0.1260
  589CHOL    R1 5318  15.828   4.372   4.624 -0.0246  0.1699  0.1668
  589CHOL    R2 5319  15.672   4.403   4.849 -0.1466  0.0042  0.1083
  589CHOL    R3 5320  15.746   4.146   4.897  0.1519  0.0962  0.1602
  589CHOL    R4 5321  15.578   4.219   5.127 -0.2598 -0.1714 -0.0435
  589CHOL    R5 5322  15.780   4.137   5.134 -0.1482  0.1095  0.2079
  589CHOL    C1 5323  15.594   3.871   5.333 -0.0454 -0.1874 -0.0833
  589CHOL    C2 5324  15.760   3.679   5.586 -0.0704  0.4109  0.1292
  590XCA    COO 5325  14.385   5.232   8.420  0.0629 -0.0966 -0.0812
  590XCA     C1 5326  14.730   5.526   8.404  0.0135  0.2502  0.4349
  590XCA     C2 5327  14.972   5.892   8.271  0.3586  0.1480  0.3702
  590XCA     C3 5328  15.084   5.911   7.842 -0.0012 -0.2705  0.0561
  590XCA     C4 5329  15.349   5.854   7.530 -0.4150 -0.1390  0.0144
  590XCA     C5 5330  15.343   5.816   7.161 -0.0884 -0.0239  0.2336
  590XCA     C6 5331  15.379   6.027   6.784 -0.0751  0.2023 -0.0580
  591CHOL   ROH 5332   4.220   9.771   6.979 -0.0172  0.1883 -0.0679
  591CHOL    R1 5333   4.455   9.790   6.822  0.0367  0.0869 -0.0005
  591CHOL    R2 5334   4.671   9.620   6.856 -0.0570 -0.0245  0.0433
  591CHOL    R3 5335   4.636   9.575   6.590 -0.0053  0.0193  0.0289
  591CHOL    R4 5336   4.918   9.512   6.640 -0.0162  0.0051  0.0749
  591CHOL    R5 5337   4.841   9.649   6.490  0.0165  0.0313  0.0816
  591CHOL    C1 5338   5.029   9.406   6.265  0.0561  0.0635  0.0797
  591CHOL    C2 5339   5.423   9.489   6.228 -0.2202  0.0843  0.0360
  592CHOL   ROH 5340  15.151   8.981   8.637  0.1407  0.0868 -0.1457
  592CHOL    R1 5341  15.033   8.806   8.448  0.0523  0.0808 -0.0864
  592CHOL    R2 5342  14.975   8.884   8.189  0.0544  0.0340 -0.1050
  592CHOL    R3 5343  15.124   8.666   8.125 -0.0345 -0.0404 -0.0575
  592CHOL    R4 5344  15.068   8.796   7.868  0.0759 -0.0469 -0.0764
  592CHOL    R5 5345  15.029   8.588   7.919 -0.0282 -0.0197 -0.0641
  592CHOL    C1 5346  15.261   8.540   7.621  0.0050 -0.1638 -0.0152
  592CHOL    C2 5347  15.487   8.749   7.381  0.0400 -0.1817  0.1052
  593CHOL   ROH 5348  14.688   1.099   5.435  0.1222 -0.0369  0.1085
  593CHOL    R1 5349  14.631   1.377   5.431  0.1938 -0.0232  0.0214
  593CHOL    R2 5350  14.394   1.481   5.528  0.1217  0.0451 -0.2234
  593CHOL    R3 5351  14.562   1.636   5.676  0.0136  0.0209 -0.0737
  593CHOL    R4 5352  14.317   1.796   5.649 -0.0441 -0.0596 -0.0515
  593CHOL    R5 5353  14.519   1.859   5.599 -0.0521  0.0534  0.0508
  593CHOL    C1 5354  14.428   2.124   5.858 -0.2421 -0.1433  0.1891
  593CHOL    C2 5355  14.739   2.397   5.662  0.0048  0.1468  0.1136
  594CHOL   ROH 5356   0.694   0.173   7.585  0.0068 -0.1784  0.0386
  594CHOL    R1 5357   0.790   0.178   7.319 -0.0968 -0.0744  0.0033
  594CHOL    R2 5358   0.698   0.004   7.125 -0.1463 -0.0198 -0.0179
  594CHOL    R3 5359   0.648   0.233   6.988 -0.2308  0.0187  0.0747
  594CHOL    R4 5360   0.728   0.041   6.782 -0.0993  0.1440  0.0023
  594CHOL    R5 5361   0.814   0.238   6.816 -0.1982  0.1733  0.1061
  594CHOL    C1 5362   0.699   0.278   6.455 -0.1512  0.2755  0.1009
  594CHOL    C2 5363   0.873   0.037   6.197 -0.2898  0.4148 -0.0751
  595CHOL   ROH 5364   9.208  11.023   7.724 -0.1183  0.0428 -0.0391
  595CHOL    R1 5365   9.138  10.996   7.451 -0.1386  0.0072 -0.0303
  595CHOL    R2 5366   9.302  10.871   7.267 -0.1358  0.0164 -0.0329
  595CHOL    R3 5367   9.080  10.722   7.219 -0.1168 -0.0229 -0.0006
  595CHOL    R4 5368   9.281  10.621   7.029 -0.1503  0.0705 -0.0886
  595CHOL    R5 5369   9.080  10.692   6.981 -0.1828  0.0365 -0.0090
  595CHOL    C1 5370   9.060  10.336   6.845 -0.1411  0.0649 -0.0907
  595CHOL    C2 5371   9.046  10.047   6.729  0.0584 -0.2769  0.4186
  596CHOL   ROH 5372  14.018   4.446   4.933 -0.1291 -0.0167 -0.0965
  596CHOL    R1 5373  14.036   4.230   5.114  0.0841  0.0186 -0.0740
  596CHOL    R2 5374  14.116   4.262   5.376  0.1014  0.1166 -0.0925
  596CHOL    R3 5375  13.882   4.135   5.429  0.2164 -0.0770 -0.0366
  596CHOL    R4 5376  14.037   4.114   5.678  0.1520  0.3778  0.0518
  596CHOL    R5 5377  13.945   3.949   5.568  0.3691  0.1463  0.2035
  596CHOL    C1 5378  13.771   3.909   5.905  0.2893  0.3481  0.1884
  596CHOL    C2 5379  13.623   3.985   6.266 -0.1576  0.2385  0.2450
  597PNCE   AM1 5380   5.157   8.201   5.220 -0.0101 -0.2768 -0.1553
  597PNCE   AM2 5381   5.512   8.293   5.227 -0.1552 -0.1742  0.1617
  597PNCE   T1A 5382   5.130   8.256   5.702 -0.1135 -0.3069 -0.0570
  597PNCE   C2A 5383   5.111   8.203   6.115 -0.0699  0.1813  0.0619
  597PNCE   C3A 5384   4.794   8.183   6.443 -0.0122  0.0755 -0.0873
  597PNCE   C1B 5385   5.655   8.318   5.757 -0.1920  0.0770 -0.0852
  597PNCE   C2B 5386   5.586   8.102   6.116  0.0351 -0.1152 -0.2260
  597PNCE   C3B 5387   5.703   7.740   6.260  0.0433  0.0883  0.5582
  597PNCE   D4B 5388   5.729   7.530   6.664 -0.0606  0.0653 -0.0101
  597PNCE   C5B 5389   5.808   7.508   7.116  0.0217 -0.1704  0.2217
  597PNCE   C6B 5390   6.108   7.441   7.296 -0.0394  0.1923  0.1072
  598XCA    COO 5391   4.134  10.093   4.819 -0.1803 -0.2214  0.0934
  598XCA     C1 5392   4.061  10.211   5.235  0.1602 -0.1339  0.1575
  598XCA     C2 5393   4.094  10.173   5.676  0.0473 -0.1229  0.1607
  598XCA     C3 5394   3.902  10.370   6.021  0.0563 -0.1185  0.2539
  598XCA     C4 5395   4.080  10.683   6.352  0.2495 -0.1343  0.0342
  598XCA     C5 5396   4.231  11.067   6.296 -0.2205  0.1619 -0.1158
  598XCA     C6 5397   4.167  11.483   6.454 -0.1663 -0.2611 -0.0116
  599CHOL   ROH 5398  13.287   5.147   5.978 -0.0395 -0.0977 -0.0660
  599CHOL    R1 5399  13.053   5.290   5.909 -0.0241 -0.0455 -0.0119
  599CHOL    R2 5400  13.033   5.564   5.935  0.0583 -0.0333 -0.0500
  599CHOL    R3 5401  12.962   5.551   5.673 -0.0297 -0.0599 -0.0249
  599CHOL    R4 5402  12.813   5.780   5.779  0.0115 -0.0473 -0.0034
  599CHOL    R5 5403  12.730   5.611   5.671 -0.0277 -0.0553  0.0437
  599CHOL    C1 5404  12.619   5.894   5.441 -0.0982 -0.0803  0.0473
  599CHOL    C2 5405  12.276   6.159   5.436  0.0637 -0.4033  0.2905
  600PNCE   AM1 5406  13.540   6.639   8.555 -0.1578 -0.2198  0.0875
  600PNCE   AM2 5407  13.250   6.703   8.587 -0.2067 -0.1401 -0.2344
  600PNCE   T1A 5408  14.029   6.620   8.422 -0.0873 -0.1014 -0.0786
  600PNCE   C2A 5409  14.243   6.408   8.130  0.0015  0.0382 -0.1502
  600PNCE   C3A 5410  14.304   6.437   7.763 -0.2112  0.0480  0.1297
  600PNCE   C1B 5411  13.124   6.874   8.286  0.0440 -0.0314 -0.1658
  600PNCE   C2B 5412  13.063   7.121   7.916 -0.2700 -0.1078 -0.0199
  600PNCE   C3B 5413  12.837   7.445   7.823  0.3327 -0.1331 -0.0676
  600PNCE   D4B 5414  12.825   7.741   7.579  0.2022  0.0666 -0.1418
  600PNCE   C5B 5415  12.399   7.756   7.465 -0.2067 -0.1914  0.0421
  600PNCE   C6B 5416  12.371   7.559   7.067  0.2084 -0.0868 -0.1114
  601XCA    COO 5417   7.982   3.398   4.577 -0.1247 -0.2866 -0.1840
  601XCA     C1 5418   8.105   3.248   4.980  0.3041  0.1424  0.5588
  601XCA     C2 5419   8.131   3.018   5.191 -0.3113 -0.2028  0.1198
  601XCA     C3 5420   8.038   2.584   5.222  0.0322 -0.1926  0.1800
  601XCA     C4 5421   8.262   2.274   5.339  0.1765  0.1718  0.0117
  601XCA     C5 5422   8.719   2.256   5.417 -0.0684 -0.0002 -0.1746
  601XCA     C6 5423   9.055   2.480   5.539  0.0558 -0.2468 -0.4139
  602CHOL   ROH 5424   8.203   3.312   8.610  0.4385  0.3246  0.1758
  602CHOL    R1 5425   8.317   3.504   8.437  0.2874  0.2367 -0.0250
  602CHOL    R2 5426   8.504   3.438   8.244  0.1625  0.1481 -0.1129
  602CHOL    R3 5427   8.329   3.563   8.078  0.0290  0.0177 -0.0734
  602CHOL    R4 5428   8.577   3.549   7.924 -0.0373  0.0536 -0.1937
  602CHOL    R5 5429   8.460   3.728   7.964 -0.0876  0.0266 -0.2028
  602CHOL    C1 5430   8.455   3.730   7.583 -0.2791 -0.1238 -0.2038
  602CHOL    C2 5431   8.793   3.846   7.329 -0.1617  0.1780 -0.1810
  603PNCE   AM1 5432   9.761  14.604   9.334 -0.0882  0.1889  0.0303
  603PNCE   AM2 5433  10.062  14.318   9.391 -0.0609 -0.1856 -0.2875
  603PNCE   T1A 5434   9.821  14.426   8.949  0.2890  0.3435 -0.0144
  603PNCE   C2A 5435  10.124  14.090   8.654 -0.0218 -0.0517  0.0589
  603PNCE   C3A 5436  10.271  13.998   8.154 -0.2230  0.0403  0.1642
  603PNCE   C1B 5437  10.119  13.969   9.214  0.1162 -0.2079  0.0248
  603PNCE   C2B 5438  10.000  13.678   8.857  0.1903  0.2229 -0.3741
  603PNCE   C3B 5439   9.780  13.606   8.344 -0.3765  0.0093  0.0637
  603PNCE   D4B 5440   9.423  13.604   8.161  0.1605  0.1256 -0.0887
  603PNCE   C5B 5441   9.486  13.778   7.859  0.0402  0.0023 -0.0956
  603PNCE   C6B 5442   9.664  13.907   7.485  0.2116  0.0225 -0.3694
  604XCA    COO 5443   7.550   3.537   8.787 -0.1717 -0.3255  0.0367
  604XCA     C1 5444   7.876   3.675   8.430 -0.2545 -0.2624  0.2097
  604XCA     C2 5445   7.947   3.790   7.972  0.1298  0.0263  0.1243
  604XCA     C3 5446   7.988   3.764   7.534  0.1030  0.0058 -0.1232
  604XCA     C4 5447   8.196   3.824   7.112  0.1707 -0.0260 -0.0082
  604XCA     C5 5448   8.039   3.725   6.733  0.0337  0.1432  0.0605
  604XCA     C6 5449   7.835   3.809   6.288  0.0585  0.1481 -0.0124
  605PNCE   AM1 5450  11.291   5.981   8.693 -0.0073 -0.1571  0.0705
  605PNCE   AM2 5451  11.124   6.273   8.806 -0.1900  0.1109  0.0512
  605PNCE   T1A 5452  11.313   6.055   8.281 -0.1372 -0.2853 -0.1317
  605PNCE   C2A 5453  11.189   6.226   7.946 -0.2650  0.2733  0.1559
  605PNCE   C3A 5454  11.020   6.569   7.767 -0.0311  0.1011 -0.1140
  605PNCE   C1B 5455  11.113   6.456   8.364  0.0197  0.1091 -0.1183
  605PNCE   C2B 5456  10.835   6.647   8.217  0.1961 -0.1862 -0.0870
  605PNCE   C3B 5457  10.575   6.793   7.916  0.0928  0.0315 -0.2072
  605PNCE   D4B 5458  10.444   7.109   7.601  0.2760 -0.0649 -0.1679
  605PNCE   C5B 5459  10.379   7.004   7.144  0.3262  0.1277 -0.2266
  605PNCE   C6B 5460  10.382   6.751   6.698  0.3283 -0.0627  0.0141
  606CHOL   ROH 5461   4.420   0.615   4.063 -0.1426  0.0411 -0.0954
  606CHOL    R1 5462   4.160   0.567   4.166 -0.0973 -0.0564 -0.0245
  606CHOL    R2 5463   4.108   0.367   4.348  0.0729  0.0811  0.1807
  606CHOL    R3 5464   4.000   0.571   4.492 -0.0683  0.1449 -0.0117
  606CHOL    R4 5465   3.945   0.331   4.651  0.2684  0.2749  0.3116
  606CHOL    R5 5466   3.799   0.479   4.585  0.0759  0.0420  0.2035
  606CHOL    C1 5467   3.750   0.501   4.963  0.2498  0.4477  0.2072
  606CHOL    C2 5468   3.695   0.750   5.299  0.0678 -0.1085 -0.0159
  607XCA    COO 5469   4.334   6.674   4.955 -0.1776  0.1564  0.0294
  607XCA     C1 5470   4.234   6.781   5.443  0.0183 -0.3060 -0.1048
  607XCA     C2 5471   4.271   7.004   5.718  0.0736 -0.1032 -0.0074
  607XCA     C3 5472   3.979   7.383   5.872 -0.2805  0.1268 -0.1584
  607XCA     C4 5473   3.898   7.781   6.055 -0.0033  0.3272 -0.1446
  607XCA     C5 5474   3.606   7.826   6.151  0.2314 -0.0688  0.2179
  607XCA     C6 5475   3.331   7.980   6.351  0.1984  0.1600  0.2512
  608XCA    COO 5476   3.588   5.547   8.220 -0.1366  0.3442  0.1696
  608XCA     C1 5477   3.911   5.604   7.892  0.1057 -0.1539  0.1273
  608XCA     C2 5478   4.192   5.968   7.767 -0.0019 -0.1401 -0.1599
  608XCA     C3 5479   3.997   6.309   7.650 -0.3129 -0.0227  0.1026
  608XCA     C4 5480   3.809   6.473   7.381 -0.0024  0.2820  0.4970
  608XCA     C5 5481   3.726   6.723   7.053  0.0628 -0.0040 -0.0855
  608XCA     C6 5482   3.507   6.845   6.667 -0.0264  0.1797 -0.1372
  609XCA    COO 5483  11.739   0.114   8.794  0.1266 -0.1710 -0.1825
  609XCA     C1 5484  11.809  -0.147   8.536 -0.2769  0.2358  0.1376
  609XCA     C2 5485  11.879  -0.127   8.072 -0.1117  0.1008 -0.1615
  609XCA     C3 5486  12.057  -0.277   7.654  0.1160  0.2761  0.2681
  609XCA     C4 5487  12.218  -0.283   7.199 -0.0615 -0.0713  0.0049
  609XCA     C5 5488  12.465  -0.474   6.922 -0.2342 -0.1481  0.0535
  609XCA     C6 5489  12.843  -0.577   6.600 -0.0634  0.1143 -0.3787
  610CHOL   ROH 5490  12.409   2.511   8.414 -0.1283  0.0451  0.1222
  610CHOL    R1 5491  12.273   2.570   8.173 -0.0087  0.0952  0.0666
  610CHOL    R2 5492  12.406   2.613   7.934  0.1009 -0.0355  0.1026
  610CHOL    R3 5493  12.241   2.417   7.844 -0.0019  0.0596  0.0826
  610CHOL    R4 5494  12.307   2.575   7.605  0.1460 -0.0006  0.0847
  610CHOL    R5 5495  12.107   2.525   7.677  0.0998  0.1290  0.0459
  610CHOL    C1 5496  12.094   2.369   7.329  0.0757  0.1089  0.0557
  610CHOL    C2 5497  11.833   2.224   6.923 -0.0030 -0.3282 -0.3333
  611CHOL   ROH 5498   3.786   1.513   5.970  0.1588  0.3519 -0.0899
  611CHOL    R1 5499   3.649   1.475   5.725  0.3403  0.2007 -0.1701
  611CHOL    R2 5500   3.418   1.611   5.661  0.0727 -0.2421 -0.1861
  611CHOL    R3 5501   3.558   1.679   5.438  0.0341  0.1802 -0.0910
  611CHOL    R4 5502   3.278   1.665   5.350  0.0879 -0.3878 -0.2191
  611CHOL    R5 5503   3.448   1.560   5.261  0.3665  0.0223 -0.2016
  611CHOL    C1 5504   3.328   1.760   4.959  0.0605 -0.0761 -0.1489
  611CHOL    C2 5505   3.236   1.901   4.576 -0.1995  0.1726 -0.3317
  612CHOL   ROH 5506  15.040   3.202   4.135  0.0155  0.1758 -0.0229
  612CHOL    R1 5507  14.932   3.271   4.387 -0.0433 -0.0106  0.0038
  612CHOL    R2 5508  14.841   3.082   4.567  0.1943 -0.1600 -0.0361
  612CHOL    R3 5509  15.013   3.207   4.736  0.0621  0.0009 -0.0165
  612CHOL    R4 5510  14.862   3.022   4.907  0.2148 -0.1622 -0.0373
  612CHOL    R5 5511  14.887   3.236   4.938  0.0067 -0.1307 -0.0254
  612CHOL    C1 5512  15.036   3.104   5.263  0.1027 -0.0124 -0.0195
  612CHOL    C2 5513  14.978   2.872   5.575  0.0880  0.1645 -0.1737
  613CHOL   ROH 5514  14.534   8.944   5.970  0.2737  0.1435 -0.0557
  613CHOL    R1 5515  14.578   8.747   6.168  0.0275  0.1566  0.0157
  613CHOL    R2 5516  14.816   8.727   6.307  0.0793 -0.2082 -0.1153
  613CHOL    R3 5517  14.653   8.742   6.524  0.2270  0.2017 -0.0242
  613CHOL    R4 5518  14.873   8.567   6.608 -0.0827 -0.2422 -0.1019
  613CHOL    R5 5519  14.660   8.522   6.619 -0.1812  0.2069  0.0343
  613CHOL    C1 5520  14.753   8.488   6.987 -0.0385  0.1227 -0.0086
  613CHOL    C2 5521  14.426   8.351   7.204  0.0701 -0.2558  0.1568
  614CHOL   ROH 5522   7.523   2.789   4.902  0.1160  0.2076 -0.0904
  614CHOL    R1 5523   7.686   2.845   5.127  0.1615 -0.0272 -0.0619
  614CHOL    R2 5524   7.634   3.054   5.300  0.5054  0.1367 -0.1487
  614CHOL    R3 5525   7.644   2.859   5.488  0.0758  0.1739 -0.0778
  614CHOL    R4 5526   7.817   3.071   5.592  0.4131 -0.0923 -0.0760
  614CHOL    R5 5527   7.871   2.861   5.565  0.0552 -0.2038  0.0175
  614CHOL    C1 5528   7.933   2.897   5.940 -0.0438 -0.1907  0.0329
  614CHOL    C2 5529   8.197   2.994   6.157 -0.2839  0.2412 -0.1639
  615PNCE   AM1 5530  13.098   9.554   8.920 -0.1384  0.0303 -0.0651
  615PNCE   AM2 5531  13.350   9.801   8.783  0.0652 -0.0059  0.0158
  615PNCE   T1A 5532  12.778   9.553   8.542  0.1724 -0.0178  0.1429
  615PNCE   C2A 5533  12.866   9.471   8.059  0.0911 -0.2471  0.1434
  615PNCE   C3A 5534  12.990   9.704   7.650 -0.0166  0.1749  0.0574
  615PNCE   C1B 5535  13.105   9.896   8.366  0.0060  0.0946  0.1602
  615PNCE   C2B 5536  12.853   9.989   8.029  0.0774  0.0208 -0.2979
  615PNCE   C3B 5537  12.921  10.190   7.551  0.0993 -0.0178 -0.3031
  615PNCE   D4B 5538  13.165  10.624   7.283  0.3276 -0.1647 -0.3314
  615PNCE   C5B 5539  13.548  10.616   7.576 -0.0746 -0.2153  0.0534
  615PNCE   C6B 5540  13.866  10.855   7.866  0.2078 -0.2788 -0.3849
  616CHOL   ROH 5541   5.294  15.370   4.451 -0.1789 -0.1222  0.0727
  616CHOL    R1 5542   5.165  15.464   4.685  0.0182 -0.1843  0.2069
  616CHOL    R2 5543   5.297  15.488   4.927  0.3717  0.2504 -0.0191
  616CHOL    R3 5544   5.205  15.744   4.914 -0.1360  0.0776 -0.0775
  616CHOL    R4 5545   5.199  15.676   5.200  0.5337  0.2933  0.0115
  616CHOL    R5 5546   5.033  15.753   5.081  0.1490 -0.1153  0.2451
  616CHOL    C1 5547   5.056  16.025   5.347  0.1514  0.1559 -0.0254
  616CHOL    C2 5548   5.107  15.833   5.761  0.1912  0.1151 -0.0986
  617CHOL   ROH 5549  12.743  15.837   5.408 -0.2296  0.0246 -0.0150
  617CHOL    R1 5550  12.787  16.032   5.608 -0.0870  0.0557 -0.0761
  617CHOL    R2 5551  12.647  16.034   5.847 -0.0215  0.1788 -0.0403
  617CHOL    R3 5552  12.896  16.035   5.955  0.0086  0.0950 -0.1060
  617CHOL    R4 5553  12.720  16.116   6.174  0.0872  0.0871 -0.0400
  617CHOL    R5 5554  12.896  16.223   6.104  0.0934  0.0617 -0.0627
  617CHOL    C1 5555  12.996  16.164   6.467  0.1786 -0.0449 -0.1015
  617CHOL    C2 5556  12.689  16.347   6.544  0.0451 -0.1387 -0.4852
  618CHOL   ROH 5557   0.728   7.045   8.179 -0.0723  0.2271 -0.0235
  618CHOL    R1 5558   0.611   7.084   7.924 -0.0532 -0.0126 -0.0701
  618CHOL    R2 5559   0.686   7.290   7.756 -0.2440  0.0008 -0.1354
  618CHOL    R3 5560   0.726   7.088   7.579  0.0284 -0.0295 -0.0447
  618CHOL    R4 5561   0.699   7.328   7.413 -0.3433 -0.1317 -0.1550
  618CHOL    R5 5562   0.586   7.143   7.393 -0.0820 -0.3145 -0.0552
  618CHOL    C1 5563   0.745   7.160   7.047 -0.1455 -0.2372 -0.0813
  618CHOL    C2 5564   0.557   7.164   6.752 -0.2153 -0.1756 -0.1136
  619CHOL   ROH 5565  13.837   7.196   8.519  0.1066  0.1309  0.1063
  619CHOL    R1 5566  13.816   7.385   8.309 -0.0626  0.0984  0.0930
  619CHOL    R2 5567  13.884   7.326   8.048  0.0612  0.1601  0.1137
  619CHOL    R3 5568  13.632   7.415   7.997 -0.0310 -0.1242  0.0506
  619CHOL    R4 5569  13.763   7.407   7.735  0.1061  0.1765  0.1001
  619CHOL    R5 5570  13.661   7.578   7.824 -0.1495  0.0079  0.1493
  619CHOL    C1 5571  13.457   7.538   7.504  0.0457 -0.0807  0.0330
  619CHOL    C2 5572  13.329   7.810   7.338  0.0516 -0.0020  0.1079
  620PNCE   AM1 5573   8.861   1.086   8.995  0.1057 -0.1312  0.1302
  620PNCE   AM2 5574   8.690   0.985   9.326 -0.0993  0.1101 -0.1852
  620PNCE   T1A 5575   8.964   0.799   8.748 -0.2075 -0.0702  0.0929
  620PNCE   C2A 5576   9.220   0.482   8.517  0.0017  0.1397 -0.1786
  620PNCE   C3A 5577   9.298   0.083   8.459  0.1572  0.0148 -0.0602
  620PNCE   C1B 5578   8.535   0.696   8.984 -0.0178  0.3387  0.1646
  620PNCE   C2B 5579   8.703   0.376   8.644 -0.0848  0.0331  0.0466
  620PNCE   C3B 5580   8.835   0.322   8.187 -0.0450  0.0720  0.0324
  620PNCE   D4B 5581   8.692   0.016   7.825 -0.1878 -0.0363  0.2430
  620PNCE   C5B 5582   8.451   0.240   7.525  0.1280 -0.1514  0.5789
  620PNCE   C6B 5583   8.341   0.086   7.138 -0.2319  0.0342 -0.0626
  621XCA    COO 5584   9.338  11.431   4.751  0.1818 -0.0346  0.1925
  621XCA     C1 5585   9.237  11.764   5.005  0.1998 -0.2261 -0.0443
  621XCA     C2 5586   8.983  11.834   5.387  0.1367  0.2092  0.0007
  621XCA     C3 5587   8.524  11.914   5.201 -0.0719  0.2377  0.0328
  621XCA     C4 5588   8.143  11.790   5.507 -0.0670  0.0276  0.2192
  621XCA     C5 5589   7.866  12.039   5.585  0.1565  0.2167 -0.1431
  621XCA     C6 5590   7.614  12.271   5.921  0.0849  0.1089  0.1102
  622PNCE   AM1 5591   5.551   8.220   8.718  0.0734 -0.1356 -0.2311
  622PNCE   AM2 5592   5.278   8.287   8.960  0.1354 -0.2072 -0.1238
  622PNCE   T1A 5593   5.611   8.105   8.361 -0.3953  0.2757  0.1626
  622PNCE   C2A 5594   5.413   7.820   8.023 -0.0521  0.1218  0.1323
  622PNCE   C3A 5595   5.353   7.516   7.679  0.0502  0.2573  0.0656
  622PNCE   C1B 5596   5.125   8.144   8.547 -0.0329 -0.1207 -0.1105
  622PNCE   C2B 5597   4.876   8.154   8.141  0.0843  0.1399  0.2297
  622PNCE   C3B 5598   4.859   8.207   7.713  0.1040  0.0117 -0.1680
  622PNCE   D4B 5599   4.541   8.038   7.406  0.0821 -0.2008 -0.3395
  622PNCE   C5B 5600   4.117   7.913   7.480 -0.3181 -0.0976  0.1581
  622PNCE   C6B 5601   3.876   7.880   7.732  0.1533  0.0406 -0.1976
  623CHOL   ROH 5602   6.328   5.780   6.147 -0.2267  0.1890 -0.1474
  623CHOL    R1 5603   6.328   5.618   6.379 -0.1848  0.1221 -0.1942
  623CHOL    R2 5604   6.557   5.569   6.527 -0.1648  0.1028 -0.2342
  623CHOL    R3 5605   6.405   5.662   6.732 -0.1508  0.0272 -0.1891
  623CHOL    R4 5606   6.592   5.474   6.857 -0.0220  0.1132 -0.2454
  623CHOL    R5 5607   6.375   5.472   6.874 -0.0178  0.0084 -0.1829
  623CHOL    C1 5608   6.470   5.506   7.242  0.0742  0.0482 -0.2097
  623CHOL    C2 5609   6.543   5.623   7.634  0.0943  0.0545  0.2976
  624XCA    COO 5610   1.231   9.870   4.802 -0.1269 -0.2289 -0.2632
  624XCA     C1 5611   1.534   9.649   5.082  0.1347 -0.0238 -0.0620
  624XCA     C2 5612   1.680   9.715   5.383 -0.0240 -0.2651 -0.1710
  624XCA     C3 5613   1.813   9.491   5.708  0.3774  0.1765 -0.0328
  624XCA     C4 5614   1.853   9.569   6.113 -0.0233 -0.1092 -0.2092
  624XCA     C5 5615   1.750   9.723   6.509  0.3294 -0.3569  0.1654
  624XCA     C6 5616   1.853  10.140   6.738 -0.1220 -0.0383  0.1429
  625XCA    COO 5617   6.598   6.030   8.689 -0.0011 -0.0399  0.2849
  625XCA     C1 5618   6.770   5.997   8.368 -0.1449  0.1809  0.1580
  625XCA     C2 5619   7.006   6.282   8.147  0.0902  0.1130 -0.0672
  625XCA     C3 5620   7.308   6.184   7.754 -0.2425  0.1883 -0.0241
  625XCA     C4 5621   7.473   5.924   7.474  0.1395  0.2185  0.1275
  625XCA     C5 5622   7.802   6.039   7.253 -0.2121  0.2097 -0.3707
  625XCA     C6 5623   8.033   6.388   7.319  0.1694 -0.0996 -0.2820
  626CHOL   ROH 5624  12.780   0.266   8.620 -0.1107  0.1544  0.0975
  626CHOL    R1 5625  12.568   0.232   8.437 -0.0693  0.0824  0.0627
  626CHOL    R2 5626  12.458   0.442   8.295 -0.0707  0.0344 -0.0079
  626CHOL    R3 5627  12.515   0.286   8.081 -0.0061 -0.0072  0.0391
  626CHOL    R4 5628  12.283   0.446   7.997 -0.0266 -0.0726 -0.0354
  626CHOL    R5 5629  12.300   0.229   7.990  0.0182 -0.0719  0.0204
  626CHOL    C1 5630  12.236   0.301   7.621  0.0596 -0.1740 -0.0073
  626CHOL    C2 5631  11.925   0.204   7.552 -0.2876  0.0586  0.1315
  627CHOL   ROH 5632   0.871   1.483   3.711  0.1321 -0.2393  0.0583
  627CHOL    R1 5633   0.973   1.608   3.944  0.0886 -0.1482  0.0294
  627CHOL    R2 5634   0.813   1.668   4.162  0.0269  0.0168 -0.0536
  627CHOL    R3 5635   1.001   1.526   4.297 -0.0640  0.0246  0.0821
  627CHOL    R4 5636   0.924   1.740   4.482 -0.0304  0.1491 -0.0630
  627CHOL    R5 5637   1.126   1.691   4.417 -0.0355  0.0389  0.0242
  627CHOL    C1 5638   1.165   1.648   4.794 -0.1491  0.2335  0.0590
  627CHOL    C2 5639   0.933   1.597   5.067 -0.5053 -0.4144  0.2814
  628CHOL   ROH 5640  10.811   8.535   5.653  0.3317  0.0429 -0.1737
  628CHOL    R1 5641  11.024   8.563   5.837  0.1632  0.1380  0.0087
  628CHOL    R2 5642  10.985   8.573   6.110 -0.0596 -0.0900 -0.0194
  628CHOL    R3 5643  11.163   8.369   6.112  0.1575  0.0936 -0.0159
  628CHOL    R4 5644  11.149   8.457   6.391 -0.2952 -0.1910  0.0803
  628CHOL    R5 5645  11.329   8.436   6.271 -0.1081  0.1240  0.2710
  628CHOL    C1 5646  11.412   8.198   6.557 -0.2287 -0.0775  0.1418
  628CHOL    C2 5647  11.176   8.045   6.792  0.3484  0.0843  0.1052
  629XCA    COO 5648  14.980   9.352   8.779 -0.2286 -0.4260 -0.3095
  629XCA     C1 5649  14.794   9.234   8.418 -0.1747 -0.2903  0.2663
  629XCA     C2 5650  14.783   9.184   7.895  0.1477  0.0073  0.1567
  629XCA     C3 5651  15.079   9.273   7.521 -0.2215  0.1937 -0.3704
  629XCA     C4 5652  15.165   9.284   7.102 -0.0913  0.1294  0.1040
  629XCA     C5 5653  15.506   9.044   6.905  0.0114  0.1515 -0.2752
  629XCA     C6 5654  15.817   9.015   6.551  0.3478  0.2636 -0.2524
  630PNCE   AM1 5655   7.810   0.902   9.292  0.1098 -0.2347 -0.0612
  630PNCE   AM2 5656   7.735   1.164   8.995 -0.2061  0.0311 -0.1335
  630PNCE   T1A 5657   7.933   0.712   9.003  0.1622 -0.0516  0.3303
  630PNCE   C2A 5658   7.947   0.597   8.569 -0.2042 -0.1083  0.1632
  630PNCE   C3A 5659   7.869   0.563   8.101 -0.0216  0.2788 -0.2889
  630PNCE   C1B 5660   7.578   1.404   8.640 -0.2137 -0.0635 -0.0999
  630PNCE   C2B 5661   7.327   1.390   8.223  0.1495  0.0447  0.1318
  630PNCE   C3B 5662   7.272   1.149   7.931  0.0655  0.0689  0.0268
  630PNCE   D4B 5663   7.398   0.784   7.957  0.1574  0.1261  0.0318
  630PNCE   C5B 5664   7.625   0.797   7.633 -0.1091 -0.0474 -0.0670
  630PNCE   C6B 5665   7.598   0.887   7.210 -0.1524 -0.1441  0.0634
  631PNCE   AM1 5666   3.602   6.203   5.276  0.2347  0.4064 -0.0039
  631PNCE   AM2 5667   3.357   6.294   5.373  0.0389 -0.1478  0.0591
  631PNCE   T1A 5668   3.691   5.943   5.632  0.3041 -0.2952  0.0384
  631PNCE   C2A 5669   3.770   5.848   6.106 -0.2305  0.1695 -0.0575
  631PNCE   C3A 5670   3.652   5.617   6.378 -0.1859  0.0792  0.2274
  631PNCE   C1B 5671   3.122   5.953   5.574 -0.1938 -0.2333 -0.0632
  631PNCE   C2B 5672   2.828   5.743   5.765 -0.2848 -0.2063  0.1940
  631PNCE   C3B 5673   2.550   5.906   6.167 -0.1793 -0.2190  0.1281
  631PNCE   D4B 5674   2.314   5.971   6.468  0.3103  0.1993 -0.2167
  631PNCE   C5B 5675   2.121   6.352   6.524  0.0419  0.0716 -0.2643
  631PNCE   C6B 5676   1.975   6.578   6.276  0.1322 -0.3626  0.0733
  632CHOL   ROH 5677   8.922  11.127   4.526 -0.0247 -0.1308 -0.0985
  632CHOL    R1 5678   9.003  10.919   4.699  0.0537  0.0143  0.0427
  632CHOL    R2 5679   9.173  10.961   4.914 -0.1751  0.2719  0.1783
  632CHOL    R3 5680   8.973  10.843   5.054 -0.1699  0.1012  0.0447
  632CHOL    R4 5681   9.188  10.879   5.249 -0.2645  0.1611  0.1548
  632CHOL    R5 5682   9.084  10.693   5.203 -0.1388  0.1112  0.0376
  632CHOL    C1 5683   9.008  10.720   5.576 -0.3118 -0.0637  0.0157
  632CHOL    C2 5684   8.935  10.366   5.865  0.1321  0.0736  0.1371
  633CHOL   ROH 5685  14.336  14.931   4.477  0.0931 -0.2280  0.1268
  633CHOL    R1 5686  14.337  14.776   4.714  0.3570 -0.1900  0.1543
  633CHOL    R2 5687  14.560  14.750   4.874  0.3871  0.2874  0.2083
  633CHOL    R3 5688  14.391  14.836   5.069  0.1672 -0.0125  0.1544
  633CHOL    R4 5689  14.607  14.701   5.213  0.3276  0.3181  0.2208
  633CHOL    R5 5690  14.394  14.660   5.232  0.3835 -0.0303  0.1300
  633CHOL    C1 5691  14.476  14.752   5.593  0.0865  0.0544  0.1775
  633CHOL    C2 5692  14.679  14.597   6.001 -0.0259  0.2321 -0.1034
  634CHOL   ROH 5693   2.228   9.832   6.656  0.2938  0.0794 -0.0967
  634CHOL    R1 5694   2.276  10.047   6.479  0.2034  0.1741 -0.0077
  634CHOL    R2 5695   2.102  10.113   6.275  0.2267  0.1189 -0.0436
  634CHOL    R3 5696   2.111  10.359   6.390  0.0131  0.0892  0.0414
  634CHOL    R4 5697   1.981  10.403   6.130  0.2412  0.1099 -0.0746
  634CHOL    R5 5698   2.155  10.508   6.208  0.1261  0.1621  0.1259
  634CHOL    C1 5699   1.918  10.802   6.155  0.0492  0.0769 -0.0128
  634CHOL    C2 5700   1.822  11.211   6.075 -0.0751  0.1565  0.1390
  635PNCE   AM1 5701   1.139   6.921   8.342  0.2561  0.1409 -0.0367
  635PNCE   AM2 5702   1.024   7.273   8.451 -0.0771  0.0526  0.2910
  635PNCE   T1A 5703   1.060   6.932   7.885 -0.1348  0.2850  0.0104
  635PNCE   C2A 5704   1.332   7.052   7.566  0.0186  0.0455  0.0197
  635PNCE   C3A 5705   1.163   7.203   7.188  0.0247  0.1078  0.1147
  635PNCE   C1B 5706   1.094   7.410   8.048 -0.0070 -0.2260  0.4886
  635PNCE   C2B 5707   1.143   7.484   7.604  0.2123  0.0436 -0.1883
  635PNCE   C3B 5708   1.119   7.703   7.103 -0.1030 -0.2174  0.0562
  635PNCE   D4B 5709   1.088   7.895   6.555  0.2522 -0.0143  0.0957
  635PNCE   C5B 5710   1.241   8.307   6.517 -0.1122 -0.0628 -0.1450
  635PNCE   C6B 5711   1.285   8.727   6.482  0.1320 -0.0714 -0.1622
  636XCA    COO 5712   5.571   2.723   8.647 -0.1172 -0.1418  0.0112
  636XCA     C1 5713   5.527   2.661   8.217  0.4853  0.3210  0.1087
  636XCA     C2 5714   5.735   2.892   7.827  0.4180 -0.0829  0.3622
  636XCA     C3 5715   5.738   3.250   7.457  0.1904  0.0327  0.1667
  636XCA     C4 5716   5.503   3.117   7.089  0.2344  0.0717 -0.1224
  636XCA     C5 5717   5.348   3.278   6.731 -0.1205  0.0325 -0.2202
  636XCA     C6 5718   5.516   3.464   6.381  0.0767  0.0425  0.3829
  637PNCE   AM1 5719  14.082   4.099   8.566  0.0540  0.0718 -0.0489
  637PNCE   AM2 5720  14.121   4.500   8.391  0.0680 -0.0060 -0.1487
  637PNCE   T1A 5721  14.257   4.007   8.295  0.0823  0.1408  0.0839
  637PNCE   C2A 5722  14.393   3.760   7.871  0.1541 -0.0047 -0.0177
  637PNCE   C3A 5723  14.267   3.479   7.562  0.5185 -0.1015 -0.0158
  637PNCE   C1B 5724  14.440   4.731   8.187  0.1913 -0.4826  0.2223
  637PNCE   C2B 5725  14.774   4.970   8.045 -0.0137 -0.2066  0.2356
  637PNCE   C3B 5726  14.965   5.374   7.902  0.3393 -0.1945  0.4188
  637PNCE   D4B 5727  15.061   5.459   7.453 -0.0523  0.2282 -0.3663
  637PNCE   C5B 5728  14.994   5.104   7.200  0.0868 -0.0157  0.2884
  637PNCE   C6B 5729  14.623   5.083   6.985  0.1329  0.0694  0.0183
  638CHOL   ROH 5730   2.522  11.095   4.685  0.2101  0.0453 -0.0397
  638CHOL    R1 5731   2.454  10.978   4.934  0.0265 -0.0426 -0.1293
  638CHOL    R2 5732   2.548  10.730   5.013  0.1641  0.0351 -0.0477
  638CHOL    R3 5733   2.632  10.868   5.232 -0.2162  0.0913  0.0689
  638CHOL    R4 5734   2.578  10.597   5.330  0.0930 -0.0266 -0.0668
  638CHOL    R5 5735   2.497  10.783   5.410 -0.2463 -0.1650 -0.0699
  638CHOL    C1 5736   2.674  10.649   5.721 -0.3053 -0.0098  0.0316
  638CHOL    C2 5737   2.666  10.722   6.010 -0.1342 -0.0422 -0.3412
  639XCA    COO 5738   3.027   1.598   8.308  0.2083  0.2020  0.0329
  639XCA     C1 5739   2.787   1.926   8.021 -0.0855 -0.0349  0.0858
  639XCA     C2 5740   2.658   2.115   7.564  0.1721 -0.1921 -0.3947
  639XCA     C3 5741   2.522   2.261   7.185 -0.0026 -0.2051  0.2775
  639XCA     C4 5742   2.339   2.628   6.993 -0.3219 -0.1906  0.5865
  639XCA     C5 5743   2.392   2.890   6.665 -0.0302  0.0454  0.3055
  639XCA     C6 5744   2.191   3.267   6.545 -0.1044  0.1487 -0.0267
  640XCA    COO 5745   9.731   9.882   4.836 -0.1428  0.1720  0.0717
  640XCA     C1 5746   9.464   9.865   5.270  0.0688  0.1636 -0.0056
  640XCA     C2 5747   9.438   9.646   5.636 -0.1850 -0.2680 -0.0386
  640XCA     C3 5748   9.045   9.599   5.866  0.1619  0.0882  0.3521
  640XCA     C4 5749   8.679   9.848   5.777  0.1234 -0.0329  0.0622
  640XCA     C5 5750   8.436  10.152   5.557 -0.0956 -0.0134 -0.0248
  640XCA     C6 5751   8.700  10.376   5.314 -0.1147  0.1274  0.1690
  641XCA    COO 5752   5.726   5.626   8.703  0.3060 -0.1853 -0.1516
  641XCA     C1 5753   5.554   5.900   8.315  0.3413  0.0190 -0.0322
  641XCA     C2 5754   5.514   6.065   7.887  0.4096  0.3698 -0.1225
  641XCA     C3 5755   5.673   6.252   7.486  0.1265 -0.3679  0.0382
  641XCA     C4 5756   6.073   6.364   7.276 -0.2360  0.0665 -0.2115
  641XCA     C5 5757   6.294   6.348   6.847  0.2383 -0.1245 -0.4490
  641XCA     C6 5758   6.422   6.062   6.556  0.0217 -0.2701  0.1269
  642PNCE   AM1 5759   6.035  13.699   4.699 -0.0910  0.0476  0.0547
  642PNCE   AM2 5760   5.950  13.732   4.372 -0.0764 -0.3277  0.2236
  642PNCE   T1A 5761   6.089  13.727   5.066  0.1060 -0.0683 -0.1455
  642PNCE   C2A 5762   6.239  13.567   5.399 -0.0287 -0.2183  0.1753
  642PNCE   C3A 5763   6.675  13.551   5.494 -0.2129  0.2747 -0.1906
  642PNCE   C1B 5764   5.914  14.123   4.712  0.1238  0.0324 -0.0183
  642PNCE   C2B 5765   5.793  14.317   5.076 -0.0766 -0.1448  0.1591
  642PNCE   C3B 5766   5.622  14.348   5.456 -0.3199  0.0875 -0.2616
  642PNCE   D4B 5767   5.498  14.404   5.825  0.2188 -0.1519  0.0135
  642PNCE   C5B 5768   5.160  14.271   5.909  0.0706 -0.1169 -0.1571
  642PNCE   C6B 5769   5.126  14.031   6.263  0.1359  0.2449  0.3089
  643CHOL   ROH 5770   6.423   2.288   8.401  0.0479  0.2137  0.0271
  643CHOL    R1 5771   6.424   2.145   8.157  0.1149 -0.0537  0.1799
  643CHOL    R2 5772   6.444   2.269   7.911 -0.3784 -0.2663  0.0154
  643CHOL    R3 5773   6.653   2.099   7.878 -0.0424  0.1308  0.0181
  643CHOL    R4 5774   6.527   2.113   7.614 -0.3321 -0.4301  0.1139
  643CHOL    R5 5775   6.571   1.932   7.727  0.1586 -0.2198  0.2830
  643CHOL    C1 5776   6.772   1.862   7.410  0.0103 -0.1526  0.1738
  643CHOL    C2 5777   6.619   2.129   7.175  0.0293  0.0170 -0.1134
  644PNCE   AM1 5778   5.959   9.565   4.744  0.2828 -0.0556 -0.1484
  644PNCE   AM2 5779   5.974   9.845   4.865 -0.0285 -0.3500 -0.4850
  644PNCE   T1A 5780   6.121   9.341   5.030 -0.0988 -0.1599  0.0540
  644PNCE   C2A 5781   6.613   9.152   5.050 -0.2186 -0.1282 -0.2362
  644PNCE   C3A 5782   6.977   9.346   5.246  0.2405 -0.0553  0.1242
  644PNCE   C1B 5783   5.942   9.702   5.260 -0.0561  0.2676  0.0485
  644PNCE   C2B 5784   6.076   9.631   5.706 -0.0415  0.0471  0.0521
  644PNCE   C3B 5785   6.084   9.627   6.137 -0.1259 -0.0790  0.2784
  644PNCE   D4B 5786   6.278   9.867   6.485  0.3363 -0.0798  0.1028
  644PNCE   C5B 5787   6.619   9.734   6.604  0.3073  0.0640  0.0054
  644PNCE   C6B 5788   6.933   9.572   6.445  0.2650 -0.0499  0.0166
  645CHOL   ROH 5789  13.384  10.192   7.430  0.0427 -0.2030 -0.0239
  645CHOL    R1 5790  13.637  10.124   7.322  0.0419 -0.1533 -0.0484
  645CHOL    R2 5791  13.675  10.071   7.054  0.0564  0.0410 -0.0670
  645CHOL    R3 5792  13.866  10.264   7.076  0.0946 -0.0069  0.0738
  645CHOL    R4 5793  13.946  10.106   6.842 -0.0818  0.2611 -0.2168
  645CHOL    R5 5794  14.069  10.152   7.016  0.0459  0.0169 -0.2105
  645CHOL    C1 5795  14.283  10.306   6.739 -0.1265  0.3442 -0.1719
  645CHOL    C2 5796  14.614  10.544   6.811  0.1391 -0.1455  0.1253
  646PNCE   AM1 5797   6.233   6.733   4.938 -0.0800  0.1341  0.0237
  646PNCE   AM2 5798   6.216   7.096   5.011 -0.1060  0.2390  0.0161
  646PNCE   T1A 5799   6.246   6.541   5.289  0.0015 -0.4072  0.4239
  646PNCE   C2A 5800   6.231   6.554   5.723 -0.0102 -0.2467  0.1025
  646PNCE   C3A 5801   6.244   6.806   6.027  0.1319  0.0979 -0.0701
  646PNCE   C1B 5802   6.307   7.020   5.508 -0.0808 -0.0230  0.0392
  646PNCE   C2B 5803   6.368   7.362   5.894 -0.1895  0.0584 -0.0795
  646PNCE   C3B 5804   6.208   7.612   6.168  0.2904 -0.0966  0.2494
  646PNCE   D4B 5805   6.116   7.938   6.471 -0.0660  0.2139 -0.3066
  646PNCE   C5B 5806   5.617   8.071   6.667  0.1673 -0.1187  0.2042
  646PNCE   C6B 5807   5.260   7.939   6.571  0.1058 -0.1998 -0.3616
  647XCA    COO 5808  10.121   0.989   9.058 -0.3047  0.4555 -0.1219
  647XCA     C1 5809  10.112   0.750   8.731 -0.2165 -0.1968  0.2866
  647XCA     C2 5810  10.128   0.473   8.344  0.1128  0.2178  0.0220
  647XCA     C3 5811  10.032   0.661   7.948 -0.0003  0.1159  0.0539
  647XCA     C4 5812   9.767   0.905   7.767  0.3094  0.1767  0.1450
  647XCA     C5 5813   9.702   1.065   7.489  0.1252 -0.0047  0.0425
  647XCA     C6 5814   9.396   1.335   7.418  0.1478 -0.1025  0.1432
  648CHOL   ROH 5815  13.685   7.354   5.498 -0.1140 -0.0578 -0.0364
  648CHOL    R1 5816  13.558   7.590   5.588 -0.0805 -0.0482 -0.0118
  648CHOL    R2 5817  13.448   7.613   5.841 -0.0380 -0.0416  0.0109
  648CHOL    R3 5818  13.609   7.831   5.857 -0.0146 -0.0580 -0.0168
  648CHOL    R4 5819  13.387   7.890   6.038 -0.0604  0.0426 -0.1149
  648CHOL    R5 5820  13.459   8.016   5.875  0.0094 -0.0300 -0.1353
  648CHOL    C1 5821  13.503   8.257   6.167 -0.0514  0.0762 -0.2142
  648CHOL    C2 5822  13.290   8.322   6.569 -0.1837 -0.2756 -0.1732
  649PNCE   AM1 5823   3.197   9.859   4.831 -0.1519 -0.3632  0.5155
  649PNCE   AM2 5824   3.566  10.047   4.842  0.1511  0.2615 -0.1729
  649PNCE   T1A 5825   2.883   9.625   5.037 -0.3488  0.2602 -0.0428
  649PNCE   C2A 5826   2.697   9.557   5.458  0.1090 -0.3025  0.1134
  649PNCE   C3A 5827   2.721   9.480   5.907  0.0111  0.0930 -0.1719
  649PNCE   C1B 5828   3.541  10.099   5.246  0.1033  0.0291 -0.0188
  649PNCE   C2B 5829   3.454  10.171   5.674 -0.3197 -0.2369 -0.0949
  649PNCE   C3B 5830   3.434   9.971   6.118  0.1793 -0.1267  0.1177
  649PNCE   D4B 5831   3.295   9.659   6.226  0.0823 -0.0685 -0.3177
  649PNCE   C5B 5832   3.127   9.338   6.564 -0.0018  0.0673  0.4896
  649PNCE   C6B 5833   2.811   9.121   6.866 -0.3066  0.3567 -0.0096
  650CHOL   ROH 5834   0.772   9.183   8.374 -0.1085 -0.3151 -0.1219
  650CHOL    R1 5835   0.557   9.174   8.189 -0.1542 -0.0495 -0.0855
  650CHOL    R2 5836   0.482   9.393   8.038  0.1036  0.0416 -0.0888
  650CHOL    R3 5837   0.515   9.220   7.831 -0.1543 -0.0191 -0.0818
  650CHOL    R4 5838   0.325   9.420   7.732  0.0110  0.1687 -0.0304
  650CHOL    R5 5839   0.297   9.204   7.732 -0.2124  0.1943  0.0047
  650CHOL    C1 5840   0.264   9.274   7.359 -0.2849  0.1859  0.0102
  650CHOL    C2 5841   0.083   9.048   7.102  0.0414  0.0130  0.1752
  651PNCE   AM1 5842   2.221  10.258   4.496 -0.2414  0.1567  0.0707
  651PNCE   AM2 5843   2.232  10.621   4.596  0.2308 -0.0938  0.0537
  651PNCE   T1A 5844   2.210  10.240   4.888 -0.0683  0.1836  0.1157
  651PNCE   C2A 5845   2.191  10.399   5.285 -0.0857  0.0493  0.0728
  651PNCE   C3A 5846   2.179  10.471   5.710  0.1181 -0.1515 -0.0365
  651PNCE   C1B 5847   2.022  10.732   4.940 -0.2216 -0.1109 -0.0122
  651PNCE   C2B 5848   2.081  10.995   5.310  0.2595  0.1605 -0.1067
  651PNCE   C3B 5849   2.246  10.973   5.774 -0.3179  0.1506  0.2006
  651PNCE   D4B 5850   2.307  11.045   6.222  0.0952  0.1871 -0.2155
  651PNCE   C5B 5851   2.477  10.754   6.554  0.2197 -0.3287 -0.1715
  651PNCE   C6B 5852   2.778  10.810   6.855 -0.4486  0.1429  0.0735
  652PNCE   AM1 5853  14.049   2.392   4.099 -0.1577  0.0618  0.0399
  652PNCE   AM2 5854  14.001   2.075   3.918  0.0484 -0.3882  0.0766
  652PNCE   T1A 5855  14.179   2.367   4.513  0.1946  0.1592 -0.1732
  652PNCE   C2A 5856  14.193   2.369   4.975  0.0499  0.0577  0.1127
  652PNCE   C3A 5857  14.421   2.247   5.317 -0.0533  0.1266 -0.2460
  652PNCE   C1B 5858  14.027   1.820   4.211 -0.0741 -0.1768 -0.2208
  652PNCE   C2B 5859  14.337   1.692   4.465  0.1125  0.1192 -0.3725
  652PNCE   C3B 5860  14.357   1.902   4.848 -0.0837 -0.1491 -0.0652
  652PNCE   D4B 5861  14.211   1.728   5.197  0.0704 -0.0259  0.0131
  652PNCE   C5B 5862  13.908   1.493   5.132 -0.2148  0.0708 -0.0131
  652PNCE   C6B 5863  13.651   1.166   4.887  0.0051 -0.2967  0.0478
  653PNCE   AM1 5864   3.579   1.391   3.763 -0.1282  0.1524  0.3220
  653PNCE   AM2 5865   3.265   1.475   3.684 -0.2154 -0.1567  0.0712
  653PNCE   T1A 5866   3.637   1.517   4.188 -0.0023  0.4191  0.0295
  653PNCE   C2A 5867   3.706   1.814   4.520 -0.0160 -0.0886 -0.2799
  653PNCE   C3A 5868   3.822   1.768   4.987  0.0885  0.3692 -0.2768
  653PNCE   C1B 5869   3.166   1.552   4.158 -0.0400 -0.1905 -0.0003
  653PNCE   C2B 5870   3.415   1.437   4.646  0.1415  0.2147  0.0298
  653PNCE   C3B 5871   3.339   1.178   5.009 -0.2770  0.2516  0.1373
  653PNCE   D4B 5872   3.266   1.168   5.433 -0.0133  0.0257 -0.0861
  653PNCE   C5B 5873   3.413   1.088   5.687  0.2258  0.1017  0.3270
  653PNCE   C6B 5874   3.551   1.097   6.031 -0.1122 -0.1481 -0.0277
  654PNCE   AM1 5875  10.939   1.683   4.744  0.0968  0.2239 -0.0815
  654PNCE   AM2 5876  11.361   1.603   4.734  0.0963 -0.1937 -0.0067
  654PNCE   T1A 5877  11.047   1.914   5.076  0.1366  0.0280 -0.2839
  654PNCE   C2A 5878  10.891   2.191   5.346  0.1179  0.1831  0.0183
  654PNCE   C3A 5879  10.685   2.574   5.320 -0.0255  0.1707 -0.0563
  654PNCE   C1B 5880  11.661   1.755   4.944 -0.1366  0.0134 -0.0248
  654PNCE   C2B 5881  11.907   1.699   5.343  0.1422 -0.2210 -0.0454
  654PNCE   C3B 5882  11.942   1.756   5.787 -0.1699  0.3354  0.1209
  654PNCE   D4B 5883  12.044   1.482   6.022  0.2187 -0.0994  0.2411
  654PNCE   C5B 5884  12.204   1.340   6.417 -0.0331  0.1773  0.3477
  654PNCE   C6B 5885  12.577   1.562   6.563 -0.1754  0.1880  0.1170
  655CHOL   ROH 5886   8.589   2.368   8.741  0.3108  0.1334  0.1426
  655CHOL    R1 5887   8.619   2.161   8.550  0.1693  0.0940  0.1635
  655CHOL    R2 5888   8.427   2.105   8.361  0.0894  0.1410  0.2384
  655CHOL    R3 5889   8.634   2.135   8.187  0.0427  0.0298  0.1604
  655CHOL    R4 5890   8.419   2.012   8.028 -0.0948  0.1356  0.2432
  655CHOL    R5 5891   8.624   1.939   8.049 -0.1183  0.0255  0.1684
  655CHOL    C1 5892   8.608   1.987   7.671 -0.2460  0.0280  0.1727
  655CHOL    C2 5893   8.492   1.681   7.462  0.2462 -0.1169  0.0434
  656PNCE   AM1 5894  12.797   8.182   4.477 -0.3102 -0.2233  0.0911
  656PNCE   AM2 5895  12.896   8.352   4.882  0.0763  0.5093 -0.3157
  656PNCE   T1A 5896  12.719   7.662   4.503  0.0578 -0.3385  0.1758
  656PNCE   C2A 5897  12.232   7.414   4.441 -0.0244 -0.0565  0.0183
  656PNCE   C3A 5898  12.046   7.380   4.861 -0.4021 -0.1468 -0.2645
  656PNCE   C1B 5899  13.141   7.872   4.857  0.2313  0.1846  0.0432
  656PNCE   C2B 5900  13.261   7.653   5.160  0.0748 -0.2946  0.0289
  656PNCE   C3B 5901  13.112   7.344   5.424 -0.2369 -0.3156  0.0314
  656PNCE   D4B 5902  13.181   7.158   5.905  0.2273 -0.0692 -0.3094
  656PNCE   C5B 5903  13.062   7.414   6.229  0.0325 -0.0838  0.1278
  656PNCE   C6B 5904  13.162   7.766   6.433  0.1080  0.2691 -0.0989
  657CHOL   ROH 5905   8.644  11.388   8.129  0.1276 -0.1548 -0.2246
  657CHOL    R1 5906   8.796  11.624   8.100 -0.0317 -0.0392 -0.1407
  657CHOL    R2 5907   9.065  11.621   8.033  0.0247  0.1592  0.0545
  657CHOL    R3 5908   8.983  11.787   7.834  0.0388  0.0704 -0.0248
  657CHOL    R4 5909   9.274  11.775   7.806  0.0534  0.1822  0.0974
  657CHOL    R5 5910   9.153  11.955   7.823 -0.0268  0.1364 -0.0025
  657CHOL    C1 5911   9.320  12.021   7.486  0.0833  0.1123  0.0478
  657CHOL    C2 5912   9.445  12.235   7.146 -0.1431 -0.2922 -0.1456
  658CHOL   ROH 5913  11.090   9.068   5.442  0.1217  0.1525  0.0288
  658CHOL    R1 5914  11.143   8.951   5.694  0.0753  0.1067  0.0174
  658CHOL    R2 5915  11.333   9.052   5.867  0.1037  0.0245  0.0341
  658CHOL    R3 5916  11.125   9.055   6.043  0.0991  0.0743  0.0281
  658CHOL    R4 5917  11.365   9.042   6.211  0.0809 -0.2639  0.0311
  658CHOL    R5 5918  11.194   8.908   6.219 -0.0379 -0.1200 -0.0790
  658CHOL    C1 5919  11.188   9.040   6.576  0.0632 -0.3851  0.0237
  658CHOL    C2 5920  11.197   8.697   6.745 -0.0642  0.2124  0.4349
  659PNCE   AM1 5921  14.860   7.532   5.087  0.0023 -0.2015 -0.0403
  659PNCE   AM2 5922  15.127   7.665   4.812 -0.1940  0.1560  0.1400
  659PNCE   T1A 5923  14.577   7.306   5.413 -0.0876  0.1852  0.0816
  659PNCE   C2A 5924  14.445   7.424   5.818 -0.3152 -0.0604 -0.2648
  659PNCE   C3A 5925  14.286   7.348   6.133  0.0721 -0.0673  0.0145
  659PNCE   C1B 5926  15.336   7.594   5.222 -0.2475  0.0199 -0.0731
  659PNCE   C2B 5927  15.449   7.407   5.583  0.1485 -0.5664  0.3018
  659PNCE   C3B 5928  15.607   7.151   5.864  0.1951 -0.1078 -0.1534
  659PNCE   D4B 5929  15.784   7.086   6.204 -0.0927 -0.1841  0.0698
  659PNCE   C5B 5930  15.531   7.025   6.562 -0.1020 -0.4270 -0.0474
  659PNCE   C6B 5931  15.382   6.737   6.814  0.0883  0.1338  0.1454
  660CHOL   ROH 5932  10.751  10.150   5.484  0.0797  0.1229  0.0153
  660CHOL    R1 5933  10.680  10.137   5.758 -0.1507  0.0888 -0.0437
  660CHOL    R2 5934  10.844  10.233   5.958 -0.1504 -0.2677  0.1327
  660CHOL    R3 5935  10.623  10.375   6.027  0.0113  0.0421  0.0333
  660CHOL    R4 5936  10.807  10.410   6.253 -0.0805 -0.3231  0.1752
  660CHOL    R5 5937  10.601  10.340   6.263 -0.2004 -0.0190  0.0077
  660CHOL    C1 5938  10.578  10.647   6.489  0.1121 -0.0646  0.1068
  660CHOL    C2 5939  10.852  10.855   6.584  0.0233  0.4553 -0.0102
  661PNCE   AM1 5940  12.446   9.978   8.523  0.1894  0.0157 -0.0937
  661PNCE   AM2 5941  12.722  10.226   8.427  0.0859  0.2304  0.0925
  661PNCE   T1A 5942  12.066   9.821   8.299  0.1118 -0.2071 -0.0626
  661PNCE   C2A 5943  11.883   9.767   7.868  0.0855  0.0107 -0.4552
  661PNCE   C3A 5944  11.545   9.549   7.604  0.3544  0.0066  0.2775
  661PNCE   C1B 5945  12.368  10.219   8.053  0.0091 -0.2507  0.0065
  661PNCE   C2B 5946  12.175  10.115   7.624 -0.0489  0.3156 -0.1782
  661PNCE   C3B 5947  11.932   9.859   7.392 -0.2064 -0.2962 -0.0755
  661PNCE   D4B 5948  11.576   9.920   7.221 -0.2118 -0.1414  0.0470
  661PNCE   C5B 5949  11.412  10.283   7.205  0.0180 -0.0779 -0.0821
  661PNCE   C6B 5950  11.535  10.759   7.069  0.2110  0.0660 -0.2282
  662PNCE   AM1 5951   6.511  12.192   4.502 -0.2030 -0.1338 -0.2733
  662PNCE   AM2 5952   6.313  11.972   4.491  0.0750  0.2907 -0.3155
  662PNCE   T1A 5953   6.616  12.261   4.930  0.0491 -0.3371 -0.2480
  662PNCE   C2A 5954   6.598  12.135   5.380  0.0217  0.1834  0.0220
  662PNCE   C3A 5955   6.335  12.275   5.694 -0.2153  0.0356 -0.1916
  662PNCE   C1B 5956   6.224  11.878   4.888  0.3511 -0.0762 -0.1789
  662PNCE   C2B 5957   6.091  11.982   5.308  0.3428  0.1425 -0.2432
  662PNCE   C3B 5958   5.735  11.922   5.601 -0.0616  0.0514 -0.0270
  662PNCE   D4B 5959   5.539  11.931   5.986  0.1218 -0.0210 -0.0816
  662PNCE   C5B 5960   5.689  11.613   6.243  0.2680 -0.1892 -0.0664
  662PNCE   C6B 5961   5.918  11.267   6.240  0.1511  0.0691  0.3556
  663CHOL   ROH 5962  12.313   9.452   8.511 -0.2843  0.2559  0.0202
  663CHOL    R1 5963  12.419   9.439   8.248 -0.1204  0.1309  0.0910
  663CHOL    R2 5964  12.265   9.486   8.023  0.0152  0.0055 -0.0285
  663CHOL    R3 5965  12.460   9.667   7.968  0.0355 -0.0078 -0.0016
  663CHOL    R4 5966  12.317   9.633   7.715  0.1348 -0.0833 -0.0515
  663CHOL    R5 5967  12.531   9.612   7.746  0.1245 -0.0721  0.0411
  663CHOL    C1 5968  12.530   9.888   7.483  0.2235 -0.1475 -0.0395
  663CHOL    C2 5969  12.561   9.914   7.162 -0.0229 -0.0825 -0.0672
  664XCA    COO 5970   8.014   5.063   8.634 -0.0739  0.1041 -0.3291
  664XCA     C1 5971   8.356   5.205   8.408  0.1772 -0.1838  0.4088
  664XCA     C2 5972   8.687   5.150   8.036 -0.2168  0.1418 -0.1353
  664XCA     C3 5973   8.741   5.240   7.672 -0.0242  0.3050  0.1323
  664XCA     C4 5974   8.530   5.075   7.326  0.0258  0.3092 -0.1741
  664XCA     C5 5975   8.381   4.625   7.338 -0.0133  0.1120 -0.5232
  664XCA     C6 5976   8.252   4.184   7.450  0.0888  0.0740  0.1691
  665XCA    COO 5977   0.982  11.221   8.024  0.2667  0.1974 -0.2810
  665XCA     C1 5978   0.948  11.010   7.701  0.1300 -0.0114  0.2833
  665XCA     C2 5979   0.788  11.072   7.413 -0.3241 -0.0660  0.1285
  665XCA     C3 5980   0.610  11.065   7.095  0.0568 -0.3760 -0.0774
  665XCA     C4 5981   0.792  10.951   6.686 -0.2266  0.0778 -0.1244
  665XCA     C5 5982   1.033  10.638   6.527  0.0118  0.0854 -0.0840
  665XCA     C6 5983   1.409  10.475   6.795  0.0690 -0.1744  0.1357
  666XCA    COO 5984  12.892  12.224   5.376  0.1407  0.1512  0.0853
  666XCA     C1 5985  13.113  12.103   5.688 -0.2700 -0.1608  0.0876
  666XCA     C2 5986  13.329  11.868   6.109  0.0046  0.0109 -0.1864
  666XCA     C3 5987  13.526  11.627   6.173 -0.3788  0.0589 -0.0251
  666XCA     C4 5988  13.602  11.187   6.021  0.1542  0.0555  0.0788
  666XCA     C5 5989  13.528  10.843   5.749 -0.2146  0.2135 -0.1479
  666XCA     C6 5990  13.688  10.513   5.411  0.0965 -0.0167  0.0673
  667CHOL   ROH 5991   3.681   2.146   6.235 -0.0767  0.0370 -0.1983
  667CHOL    R1 5992   3.786   2.397   6.313 -0.0433 -0.0167 -0.0661
  667CHOL    R2 5993   4.042   2.427   6.414 -0.0423 -0.1049 -0.0416
  667CHOL    R3 5994   4.065   2.609   6.214 -0.0097 -0.0056  0.0515
  667CHOL    R4 5995   4.309   2.642   6.374 -0.0587 -0.0500  0.1347
  667CHOL    R5 5996   4.168   2.799   6.318 -0.0629 -0.0415  0.1704
  667CHOL    C1 5997   4.487   2.939   6.162 -0.0376  0.0752  0.3247
  667CHOL    C2 5998   4.496   3.244   6.208 -0.0228  0.2689  0.3993
  668PNCE   AM1 5999   2.390   5.898   5.169 -0.0548  0.0486 -0.0405
  668PNCE   AM2 6000   2.224   6.071   4.895 -0.1011 -0.1747  0.2382
  668PNCE   T1A 6001   2.212   5.830   5.505 -0.1751  0.1680  0.0923
  668PNCE   C2A 6002   2.066   5.749   5.884 -0.1785 -0.0941  0.1699
  668PNCE   C3A 6003   2.104   5.564   6.341  0.3138  0.0042  0.2803
  668PNCE   C1B 6004   2.047   6.224   5.248  0.1025 -0.1283 -0.0288
  668PNCE   C2B 6005   2.101   6.656   5.490  0.0365  0.0303  0.0086
  668PNCE   C3B 6006   2.182   6.837   5.761  0.1029 -0.3076  0.1115
  668PNCE   D4B 6007   2.362   7.040   6.106 -0.0780 -0.0791  0.2803
  668PNCE   C5B 6008   2.396   6.819   6.564  0.1672 -0.2098  0.0755
  668PNCE   C6B 6009   2.746   6.689   6.797  0.3421  0.0315 -0.1848
  669CHOL   ROH 6010   7.414   0.661   5.707  0.2241 -0.0045  0.0460
  669CHOL    R1 6011   7.180   0.723   5.853  0.2347 -0.1579  0.1303
  669CHOL    R2 6012   7.187   0.832   6.106  0.2564 -0.0203  0.0729
  669CHOL    R3 6013   7.028   1.021   5.994  0.0161 -0.2305  0.0508
  669CHOL    R4 6014   7.010   1.070   6.283  0.1315 -0.0795  0.0285
  669CHOL    R5 6015   6.843   1.041   6.145  0.0816 -0.3132  0.1392
  669CHOL    C1 6016   6.757   1.387   6.280 -0.1669 -0.3113 -0.0181
  669CHOL    C2 6017   6.703   1.367   6.646 -0.3289 -0.1656  0.1468
  670XCA    COO 6018  12.451   5.532   4.739  0.2504  0.5197 -0.0605
  670XCA     C1 6019  12.309   5.759   5.047 -0.0210  0.3120  0.1460
  670XCA     C2 6020  12.191   5.672   5.438  0.0427  0.2305 -0.3290
  670XCA     C3 6021  12.328   5.722   5.805  0.1549 -0.0773 -0.4352
  670XCA     C4 6022  12.586   6.171   5.832 -0.0900  0.1435 -0.2472
  670XCA     C5 6023  12.957   6.373   5.622 -0.1642  0.1448  0.0970
  670XCA     C6 6024  13.000   6.789   5.515 -0.2448  0.1203 -0.0927
  671PNCE   AM1 6025  11.085   9.790   5.480  0.2800 -0.0613  0.5350
  671PNCE   AM2 6026  10.989   9.496   5.368  0.1918 -0.0066 -0.1103
  671PNCE   T1A 6027  11.057   9.807   5.940  0.0140  0.5953 -0.1008
  671PNCE   C2A 6028  11.282  10.166   6.201 -0.0483  0.1362 -0.1899
  671PNCE   C3A 6029  11.230  10.454   6.585 -0.1109  0.0460  0.1816
  671PNCE   C1B 6030  10.883   9.349   5.784  0.2178  0.1175 -0.2139
  671PNCE   C2B 6031  10.715   9.360   6.203 -0.0398  0.1140  0.0988
  671PNCE   C3B 6032  10.440   9.160   6.421  0.1033 -0.0283  0.0388
  671PNCE   D4B 6033  10.301   8.823   6.213 -0.1230  0.2066  0.1472
  671PNCE   C5B 6034   9.993   8.495   5.955 -0.1399 -0.0208  0.1545
  671PNCE   C6B 6035   9.562   8.476   6.084 -0.1597  0.1804 -0.0590
  672PNCE   AM1 6036   6.050  10.771   4.642  0.1067 -0.3066 -0.0370
  672PNCE   AM2 6037   5.913  10.417   4.601 -0.1727 -0.1281  0.2891
  672PNCE   T1A 6038   5.768  10.985   5.018  0.0411 -0.3255 -0.4135
  672PNCE   C2A 6039   5.498  11.262   5.255 -0.3539 -0.1664  0.0308
  672PNCE   C3A 6040   5.445  11.489   5.681 -0.3799  0.0660  0.0231
  672PNCE   C1B 6041   5.571  10.290   4.925  0.3775  0.2533  0.2651
  672PNCE   C2B 6042   5.550  10.085   5.260 -0.1280 -0.1541 -0.0548
  672PNCE   C3B 6043   5.748  10.155   5.628 -0.2042 -0.1021 -0.2283
  672PNCE   D4B 6044   5.939  10.409   5.970 -0.0066 -0.0852 -0.0404
  672PNCE   C5B 6045   5.915  10.167   6.240 -0.1671 -0.0509 -0.0022
  672PNCE   C6B 6046   5.747   9.861   6.509  0.1410  0.2093 -0.0806
  673CHOL   ROH 6047   8.236  15.595   8.746 -0.2395  0.2964 -0.0368
  673CHOL    R1 6048   8.312  15.659   8.481 -0.2100  0.3311 -0.0219
  673CHOL    R2 6049   8.296  15.476   8.274  0.1881  0.2262  0.0216
  673CHOL    R3 6050   8.149  15.672   8.156 -0.0795 -0.0462 -0.1048
  673CHOL    R4 6051   8.336  15.584   7.948  0.2817  0.3239  0.0658
  673CHOL    R5 6052   8.305  15.788   8.017 -0.1744  0.2632  0.0484
  673CHOL    C1 6053   8.220  15.829   7.647  0.0848  0.1251 -0.0273
  673CHOL    C2 6054   8.032  15.698   7.353  0.2796 -0.1760  0.1441
  674CHOL   ROH 6055   3.229   3.448   4.397 -0.0331 -0.0261 -0.0126
  674CHOL    R1 6056   3.473   3.555   4.494 -0.0243 -0.0103 -0.0530
  674CHOL    R2 6057   3.495   3.673   4.743 -0.0138  0.0772 -0.0962
  674CHOL    R3 6058   3.696   3.493   4.774 -0.0265  0.0734 -0.0322
  674CHOL    R4 6059   3.738   3.691   4.988 -0.2265 -0.0534  0.1292
  674CHOL    R5 6060   3.885   3.626   4.839 -0.0913  0.0501  0.2148
  674CHOL    C1 6061   4.068   3.532   5.160 -0.3624 -0.1331  0.3206
  674CHOL    C2 6062   4.280   3.389   5.429  0.1269 -0.1841  0.3740
  675CHOL   ROH 6063   7.355  15.211   8.146  0.0331  0.0241  0.1103
  675CHOL    R1 6064   7.507  15.212   7.907 -0.1443 -0.1909 -0.0082
  675CHOL    R2 6065   7.395  15.164   7.659 -0.4466  0.1465  0.0535
  675CHOL    R3 6066   7.509  15.402   7.597  0.0060 -0.0549  0.0750
  675CHOL    R4 6067   7.498  15.257   7.343 -0.3287  0.0069  0.0501
  675CHOL    R5 6068   7.675  15.348   7.432 -0.1273 -0.3472  0.0316
  675CHOL    C1 6069   7.666  15.535   7.100  0.1650 -0.2636  0.0682
  675CHOL    C2 6070   7.405  15.787   6.942 -0.1196  0.0201 -0.1153
  676PNCE   AM1 6071  15.834   5.124   4.092  0.1059 -0.2827 -0.0087
  676PNCE   AM2 6072  15.441   5.132   4.194 -0.0795 -0.1112 -0.1286
  676PNCE   T1A 6073  15.803   4.911   4.457 -0.0855 -0.2576 -0.0541
  676PNCE   C2A 6074  15.633   4.902   4.898 -0.0058 -0.0601  0.2223
  676PNCE   C3A 6075  15.294   5.046   5.047 -0.0010 -0.2505 -0.1095
  676PNCE   C1B 6076  15.421   5.261   4.638  0.0127 -0.2267 -0.0456
  676PNCE   C2B 6077  15.561   5.443   5.164 -0.2276 -0.3990  0.1591
  676PNCE   C3B 6078  15.844   5.393   5.507 -0.3023  0.0997  0.2523
  676PNCE   D4B 6079  15.969   5.517   5.879  0.0344 -0.1746 -0.1890
  676PNCE   C5B 6080  16.081   5.837   6.197 -0.0106  0.0950 -0.1140
  676PNCE   C6B 6081  15.835   5.914   6.570 -0.1548 -0.1853 -0.3482
  677PNCE   AM1 6082  15.236  13.180   3.862 -0.0281 -0.0537 -0.0414
  677PNCE   AM2 6083  15.454  13.202   4.229 -0.3487 -0.2825 -0.0185
  677PNCE   T1A 6084  14.919  13.344   4.163 -0.0482  0.0036  0.1687
  677PNCE   C2A 6085  14.763  13.417   4.571  0.0240  0.2227  0.0694
  677PNCE   C3A 6086  14.608  13.150   4.897 -0.1551 -0.0218 -0.2642
  677PNCE   C1B 6087  15.247  13.535   4.534  0.0281 -0.1005  0.1969
  677PNCE   C2B 6088  15.123  13.497   4.942  0.2752 -0.2829  0.0792
  677PNCE   C3B 6089  14.874  13.478   5.205 -0.0812  0.2217  0.0922
  677PNCE   D4B 6090  14.554  13.192   5.399 -0.1164 -0.1872  0.1381
  677PNCE   C5B 6091  14.210  13.072   5.278  0.1443 -0.1031  0.1043
  677PNCE   C6B 6092  13.814  13.159   5.175 -0.2640  0.1193 -0.1123
  678XCA    COO 6093  15.454   3.695   3.635  0.3814 -0.1828  0.2543
  678XCA     C1 6094  15.450   3.832   4.058 -0.1662  0.1187 -0.1587
  678XCA     C2 6095  15.690   3.956   4.476  0.3799 -0.0448  0.1434
  678XCA     C3 6096  15.773   3.657   4.844  0.0344 -0.1468 -0.2916
  678XCA     C4 6097  15.755   3.283   5.205  0.0647  0.1184  0.0061
  678XCA     C5 6098  15.974   3.115   5.567  0.4065 -0.1331  0.1616
  678XCA     C6 6099  16.237   2.949   5.589  0.1670 -0.2279  0.0215
  679CHOL   ROH 6100   7.989   4.856   6.623 -0.1418  0.1831 -0.0846
  679CHOL    R1 6101   7.746   4.762   6.735 -0.1543  0.1553 -0.1347
  679CHOL    R2 6102   7.561   4.618   6.589 -0.0276 -0.0195 -0.1266
  679CHOL    R3 6103   7.588   4.440   6.792 -0.0442  0.1253  0.0050
  679CHOL    R4 6104   7.307   4.420   6.714  0.0163 -0.0993 -0.1632
  679CHOL    R5 6105   7.383   4.456   6.914 -0.1333  0.0759 -0.1358
  679CHOL    C1 6106   7.185   4.136   6.977  0.0263 -0.0097 -0.0610
  679CHOL    C2 6107   6.933   3.881   7.222  0.0369 -0.2110  0.1339
  680XCA    COO 6108  12.041  15.252   8.840  0.1450  0.0352  0.0949
  680XCA     C1 6109  12.016  15.325   8.463  0.3499  0.0718  0.6344
  680XCA     C2 6110  11.873  15.319   8.034  0.3184 -0.0085 -0.0272
  680XCA     C3 6111  11.885  15.205   7.669  0.0311  0.1956  0.0948
  680XCA     C4 6112  12.169  15.111   7.305 -0.1370 -0.0557  0.3346
  680XCA     C5 6113  12.136  15.087   6.846 -0.3032 -0.0461 -0.3232
  680XCA     C6 6114  12.469  15.035   6.469 -0.0875 -0.0952 -0.0173
  681CHOL   ROH 6115  14.299  13.199   8.450 -0.0008 -0.0627  0.0560
  681CHOL    R1 6116  14.099  13.237   8.253 -0.0089 -0.0228  0.0709
  681CHOL    R2 6117  13.963  13.026   8.137  0.0233 -0.0046 -0.0071
  681CHOL    R3 6118  13.744  13.165   8.219  0.0034 -0.0700  0.0489
  681CHOL    R4 6119  13.676  13.073   7.949  0.0333  0.0705 -0.0027
  681CHOL    R5 6120  13.668  13.278   8.022  0.0074  0.0283  0.1059
  681CHOL    C1 6121  13.304  13.231   7.917  0.0205  0.0529  0.0523
  681CHOL    C2 6122  13.070  13.501   7.950 -0.0199  0.3891  0.0087
  682PNCE   AM1 6123   4.989   5.443   4.835 -0.1037  0.0248 -0.2561
  682PNCE   AM2 6124   4.842   5.740   5.046 -0.0245  0.1649 -0.0397
  682PNCE   T1A 6125   5.088   5.297   5.194 -0.0498  0.1259  0.0610
  682PNCE   C2A 6126   5.181   5.376   5.665 -0.0510 -0.2201  0.0559
  682PNCE   C3A 6127   5.149   5.794   5.923 -0.1603 -0.0280 -0.6918
  682PNCE   C1B 6128   4.868   5.791   5.546  0.0820  0.1682  0.1936
  682PNCE   C2B 6129   4.593   5.822   5.929 -0.0580  0.0280  0.0405
  682PNCE   C3B 6130   4.226   5.998   6.146 -0.1638 -0.2860 -0.0120
  682PNCE   D4B 6131   4.282   6.023   6.586  0.1655 -0.1747  0.3014
  682PNCE   C5B 6132   4.507   5.762   6.836 -0.2474 -0.5242 -0.1612
  682PNCE   C6B 6133   4.523   5.455   7.099 -0.3419 -0.2011  0.1185
  683CHOL   ROH 6134   3.075  14.957   8.024  0.2824  0.0039  0.2481
  683CHOL    R1 6135   2.993  14.792   7.809  0.1085  0.0377  0.2874
  683CHOL    R2 6136   3.137  14.772   7.574 -0.1446  0.1677  0.1200
  683CHOL    R3 6137   3.128  14.506   7.629  0.0240  0.1453  0.0473
  683CHOL    R4 6138   3.186  14.520   7.343 -0.0176  0.2645  0.0395
  683CHOL    R5 6139   3.025  14.408   7.437  0.0589  0.1379  0.0295
  683CHOL    C1 6140   3.207  14.124   7.260  0.2146  0.3000 -0.0757
  683CHOL    C2 6141   3.023  13.845   7.028  0.0488  0.0913  0.0796
  684PNCE   AM1 6142   9.228   1.448   4.514 -0.1000 -0.0037  0.1064
  684PNCE   AM2 6143   8.911   1.338   4.456  0.5758  0.0858 -0.1583
  684PNCE   T1A 6144   9.544   1.450   4.838  0.1356  0.1628  0.0356
  684PNCE   C2A 6145   9.924   1.318   4.993 -0.1191 -0.0727  0.2708
  684PNCE   C3A 6146  10.009   1.217   5.467  0.1129  0.0671 -0.2506
  684PNCE   C1B 6147   8.985   1.098   4.863  0.2390  0.3683  0.0244
  684PNCE   C2B 6148   8.713   0.800   5.195 -0.0860 -0.0732 -0.1012
  684PNCE   C3B 6149   8.656   0.692   5.633 -0.0668  0.1966  0.1119
  684PNCE   D4B 6150   8.537   0.722   6.012 -0.1121 -0.1881  0.1648
  684PNCE   C5B 6151   8.768   0.724   6.385 -0.3541 -0.2137 -0.0275
  684PNCE   C6B 6152   9.033   0.897   6.723  0.3412  0.1294 -0.0881
  685CHOL   ROH 6153  14.635  15.780   4.320  0.0196 -0.0785 -0.1041
  685CHOL    R1 6154  14.813  15.770   4.540  0.2423 -0.1107 -0.2847
  685CHOL    R2 6155  14.745  15.657   4.782  0.2122  0.5011  0.0056
  685CHOL    R3 6156  14.971  15.511   4.742 -0.1775 -0.1472  0.0119
  685CHOL    R4 6157  14.930  15.509   5.033  0.2927  0.7976  0.1275
  685CHOL    R5 6158  15.112  15.569   4.927  0.2772  0.0874 -0.3808
  685CHOL    C1 6159  15.250  15.286   5.142 -0.0263  0.3617  0.2044
  685CHOL    C2 6160  15.279  15.226   5.560  0.0736 -0.2086 -0.0634
  686XCA    COO 6161   0.622   0.676   3.876  0.0529 -0.3010 -0.4068
  686XCA     C1 6162   0.493   0.710   4.252  0.2539  0.0822  0.2740
  686XCA     C2 6163   0.520   0.857   4.602  0.2167 -0.0477 -0.1257
  686XCA     C3 6164   0.493   1.105   4.988  0.4992 -0.2627  0.1006
  686XCA     C4 6165   0.232   1.065   5.274  0.2167 -0.3565  0.0128
  686XCA     C5 6166   0.008   1.034   5.702 -0.2330 -0.1011  0.1689
  686XCA     C6 6167  -0.343   0.929   6.049 -0.1023 -0.0693  0.1763
  687PNCE   AM1 6168  14.034   2.922   4.300 -0.1355  0.2497 -0.0725
  687PNCE   AM2 6169  14.074   3.214   4.254  0.1362 -0.2931  0.1751
  687PNCE   T1A 6170  14.017   2.755   4.738 -0.1220  0.2680  0.6461
  687PNCE   C2A 6171  14.041   2.752   5.211 -0.3763  0.2676  0.0275
  687PNCE   C3A 6172  14.111   2.639   5.624 -0.4308  0.0109  0.0194
  687PNCE   C1B 6173  14.259   3.174   4.705  0.2497  0.3333  0.3010
  687PNCE   C2B 6174  14.422   3.056   5.048  0.1726 -0.1290  0.1319
  687PNCE   C3B 6175  14.458   3.142   5.490 -0.2736 -0.0422 -0.1299
  687PNCE   D4B 6176  14.435   3.006   5.904 -0.0221  0.1362 -0.1362
  687PNCE   C5B 6177  14.551   2.580   6.111  0.2828 -0.0435 -0.0846
  687PNCE   C6B 6178  14.527   2.158   6.277 -0.0281 -0.0433  0.1128
  688CHOL   ROH 6179   7.196   4.904   6.071 -0.0108  0.1233  0.0888
  688CHOL    R1 6180   7.326   5.077   6.254 -0.0117  0.0650  0.1446
  688CHOL    R2 6181   7.379   5.004   6.516  0.0842 -0.0603  0.0905
  688CHOL    R3 6182   7.634   5.071   6.449  0.0458  0.0537  0.0551
  688CHOL    R4 6183   7.604   5.160   6.727  0.0807 -0.0712  0.1025
  688CHOL    R5 6184   7.670   5.281   6.558 -0.0008  0.0226  0.1342
  688CHOL    C1 6185   7.974   5.314   6.787  0.0426  0.0293  0.0763
  688CHOL    C2 6186   8.055   5.446   7.140 -0.0033  0.2844  0.0755
  689CHOL   ROH 6187  15.473  11.790   7.564  0.0936 -0.0966 -0.0897
  689CHOL    R1 6188  15.491  11.799   7.282  0.0101 -0.0693 -0.0947
  689CHOL    R2 6189  15.372  11.610   7.119  0.0176 -0.0921 -0.0764
  689CHOL    R3 6190  15.259  11.829   7.003 -0.0793 -0.1150 -0.0252
  689CHOL    R4 6191  15.200  11.607   6.819 -0.0860 -0.1166 -0.0170
  689CHOL    R5 6192  15.296  11.797   6.768 -0.1533 -0.0902 -0.0392
  689CHOL    C1 6193  14.994  11.810   6.536 -0.2372 -0.1523  0.0657
  689CHOL    C2 6194  14.893  11.803   6.127  0.0375  0.0875  0.0425
  690PNCE   AM1 6195  10.762  13.067   5.708 -0.1223 -0.0785  0.1156
  690PNCE   AM2 6196  10.726  13.259   5.383 -0.3137 -0.0058  0.2361
  690PNCE   T1A 6197  11.058  12.691   5.858  0.0975  0.0476 -0.2581
  690PNCE   C2A 6198  11.287  12.551   6.232  0.0278 -0.0648  0.0110
  690PNCE   C3A 6199  11.716  12.375   6.222 -0.0416  0.2039 -0.0815
  690PNCE   C1B 6200  11.005  13.628   5.387 -0.1008  0.0632  0.1322
  690PNCE   C2B 6201  11.235  13.885   5.676  0.1748  0.0304  0.2304
  690PNCE   C3B 6202  11.456  13.814   6.034  0.0851  0.2360  0.0575
  690PNCE   D4B 6203  11.734  13.479   6.309 -0.1407  0.4675 -0.3028
  690PNCE   C5B 6204  12.029  13.683   6.478  0.1424  0.0064  0.0298
  690PNCE   C6B 6205  12.139  14.137   6.688  0.1832  0.0234 -0.1689
  691PNCE   AM1 6206   5.206   2.054   8.593  0.2263  0.1486 -0.3552
  691PNCE   AM2 6207   5.177   2.410   8.571  0.4748  0.2384 -0.3254
  691PNCE   T1A 6208   5.170   1.811   8.104  0.3112 -0.2262 -0.0088
  691PNCE   C2A 6209   5.154   1.880   7.670 -0.0687  0.0768 -0.0848
  691PNCE   C3A 6210   5.103   1.854   7.242  0.0337 -0.1421 -0.0346
  691PNCE   C1B 6211   5.085   2.397   8.171 -0.1893  0.2850  0.2531
  691PNCE   C2B 6212   5.196   2.320   7.833  0.3838  0.1609 -0.3268
  691PNCE   C3B 6213   5.502   2.257   7.493 -0.0511 -0.0278  0.1746
  691PNCE   D4B 6214   5.646   1.922   7.170 -0.3343 -0.1534 -0.1453
  691PNCE   C5B 6215   5.561   2.086   6.813 -0.0942 -0.2282 -0.0061
  691PNCE   C6B 6216   5.738   2.137   6.408 -0.0914  0.0821  0.1464
  692PNCE   AM1 6217  14.609   9.753   4.864 -0.1811  0.3128 -0.0697
  692PNCE   AM2 6218  14.769   9.452   5.028 -0.0852  0.0325 -0.3126
  692PNCE   T1A 6219  14.408  10.138   4.993  0.0294  0.0012  0.1236
  692PNCE   C2A 6220  14.152  10.419   4.921 -0.2714  0.0621 -0.2550
  692PNCE   C3A 6221  13.796  10.724   4.961  0.2424 -0.1265 -0.0710
  692PNCE   C1B 6222  14.849   9.616   5.336 -0.1380  0.0607 -0.0425
  692PNCE   C2B 6223  14.863   9.689   5.763  0.3286  0.2838 -0.0414
  692PNCE   C3B 6224  14.948   9.767   6.144 -0.5348 -0.3610  0.0752
  692PNCE   D4B 6225  14.810   9.635   6.533  0.2387  0.3534 -0.1914
  692PNCE   C5B 6226  14.879   9.213   6.704  0.0288 -0.0877 -0.0701
  692PNCE   C6B 6227  14.774   8.963   6.945 -0.0169 -0.1781  0.1143
  693CHOL   ROH 6228   7.565   9.067   5.293 -0.0885 -0.1325  0.0076
  693CHOL    R1 6229   7.773   9.143   5.469  0.0121 -0.1601 -0.0981
  693CHOL    R2 6230   7.780   9.390   5.593  0.1735 -0.1149 -0.1976
  693CHOL    R3 6231   7.801   9.240   5.819  0.1862 -0.0346 -0.1449
  693CHOL    R4 6232   7.838   9.516   5.909  0.3716 -0.0140 -0.2717
  693CHOL    R5 6233   7.971   9.348   5.947  0.2985 -0.0715 -0.2594
  693CHOL    C1 6234   7.890   9.449   6.306  0.4988  0.1202 -0.2655
  693CHOL    C2 6235   8.141   9.377   6.599 -0.1845 -0.1519 -0.1037
  694PNCE   AM1 6236  10.605   3.441   4.654  0.2724  0.1080  0.0064
  694PNCE   AM2 6237  10.317   3.410   4.506  0.1351 -0.4124  0.1452
  694PNCE   T1A 6238  10.662   3.464   5.115  0.0709 -0.0481 -0.0170
  694PNCE   C2A 6239  10.527   3.574   5.494  0.1621  0.0413  0.1848
  694PNCE   C3A 6240  10.088   3.388   5.636 -0.1043 -0.1635 -0.0786
  694PNCE   C1B 6241  10.190   3.616   4.904  0.0349 -0.2226  0.0991
  694PNCE   C2B 6242  10.160   3.861   5.249 -0.0081 -0.0398 -0.1156
  694PNCE   C3B 6243  10.084   3.934   5.677  0.2072  0.1659 -0.1066
  694PNCE   D4B 6244   9.713   4.046   5.743 -0.0783 -0.2614  0.1090
  694PNCE   C5B 6245   9.651   4.243   6.153  0.1244 -0.0736 -0.0757
  694PNCE   C6B 6246   9.987   4.222   6.383 -0.0594 -0.0232  0.3934
  695PNCE   AM1 6247  13.764  13.963   4.742  0.0777 -0.1855  0.1186
  695PNCE   AM2 6248  14.082  13.761   4.676 -0.3135  0.0139 -0.2435
  695PNCE   T1A 6249  13.914  14.144   5.152 -0.2423 -0.4963  0.4796
  695PNCE   C2A 6250  14.225  14.051   5.406 -0.0277 -0.4974 -0.4397
  695PNCE   C3A 6251  14.440  14.259   5.753  0.0597  0.5149  0.0255
  695PNCE   C1B 6252  14.528  13.895   4.579 -0.1944 -0.0418 -0.0637
  695PNCE   C2B 6253  14.818  13.895   4.859 -0.1109 -0.0607  0.3649
  695PNCE   C3B 6254  15.082  14.016   5.072 -0.1946 -0.0588  0.2103
  695PNCE   D4B 6255  15.413  14.372   5.094 -0.1394 -0.1374  0.1966
  695PNCE   C5B 6256  15.802  14.368   5.416 -0.0927 -0.2627  0.0687
  695PNCE   C6B 6257  15.833  14.461   5.893  0.0351 -0.0236  0.1072
  696PNCE   AM1 6258  12.822   6.432   8.450 -0.3164 -0.0616  0.2077
  696PNCE   AM2 6259  13.140   6.365   8.260 -0.1735 -0.2574  0.0070
  696PNCE   T1A 6260  12.477   6.529   8.191 -0.0201  0.2253  0.0023
  696PNCE   C2A 6261  12.244   6.596   7.795 -0.0689 -0.2973 -0.1038
  696PNCE   C3A 6262  12.027   6.460   7.469  0.0708  0.2010 -0.2145
  696PNCE   C1B 6263  12.885   6.603   7.953  0.1423 -0.3394 -0.0838
  696PNCE   C2B 6264  12.935   6.808   7.492  0.3274 -0.4130 -0.2447
  696PNCE   C3B 6265  12.608   7.068   7.078  0.0151  0.2944  0.2556
  696PNCE   D4B 6266  12.471   6.966   6.733 -0.2724 -0.1778  0.0217
  696PNCE   C5B 6267  12.536   6.439   6.691 -0.0424  0.0593  0.1478
  696PNCE   C6B 6268  12.725   5.989   6.711 -0.1818 -0.1123 -0.2520
  697PNCE   AM1 6269  11.857  10.202   4.978 -0.0519  0.1571  0.1213
  697PNCE   AM2 6270  11.968   9.878   4.950 -0.2882 -0.0468  0.2103
  697PNCE   T1A 6271  11.671  10.460   5.352  0.2898  0.0984 -0.4344
  697PNCE   C2A 6272  11.676  10.512   5.812  0.0042  0.0695  0.0746
  697PNCE   C3A 6273  11.798  10.393   6.178  0.1703 -0.2128  0.0087
  697PNCE   C1B 6274  12.136  10.041   5.355  0.0007  0.1449  0.1700
  697PNCE   C2B 6275  12.101   9.981   5.809  0.3180 -0.5244  0.0539
  697PNCE   C3B 6276  12.381   9.961   6.126 -0.0524 -0.1582  0.3201
  697PNCE   D4B 6277  12.664  10.330   6.223 -0.2936  0.0058  0.0855
  697PNCE   C5B 6278  12.747  10.629   6.001  0.1652 -0.2372  0.1729
  697PNCE   C6B 6279  13.039  10.545   5.656  0.2445 -0.0713  0.2801
  698PNCE   AM1 6280   1.752   2.578   3.879  0.0832 -0.1899 -0.1060
  698PNCE   AM2 6281   1.898   2.771   4.069  0.1707 -0.0678 -0.2037
  698PNCE   T1A 6282   1.404   2.486   4.125 -0.0456  0.0146  0.1154
  698PNCE   C2A 6283   1.268   2.323   4.479  0.1979 -0.2186 -0.4912
  698PNCE   C3A 6284   1.053   2.103   4.808 -0.2351 -0.0604  0.0278
  698PNCE   C1B 6285   1.615   2.819   4.485  0.1193  0.0176 -0.4133
  698PNCE   C2B 6286   1.622   2.733   4.823 -0.2720 -0.0097  0.3178
  698PNCE   C3B 6287   1.548   2.608   5.285 -0.1920 -0.2788  0.1778
  698PNCE   D4B 6288   1.414   2.247   5.344 -0.1686 -0.3241  0.1897
  698PNCE   C5B 6289   1.070   2.073   5.354  0.0296 -0.0128 -0.0801
  698PNCE   C6B 6290   0.884   1.731   5.680 -0.3895 -0.1466 -0.1030
  699XCA    COO 6291   4.081   1.108   8.137  0.2710  0.5196 -0.0972
  699XCA     C1 6292   4.056   1.097   7.738 -0.0970  0.0227  0.2110
  699XCA     C2 6293   4.018   1.226   7.215 -0.0871 -0.0843 -0.2409
  699XCA     C3 6294   4.113   1.415   6.857  0.3673  0.2112 -0.1340
  699XCA     C4 6295   4.376   1.677   6.708 -0.1141 -0.3014 -0.3049
  699XCA     C5 6296   4.751   1.723   6.651  0.3500  0.0940 -0.0495
  699XCA     C6 6297   5.190   1.621   6.821  0.1139  0.0749  0.1335
  700XCA    COO 6298  10.414   3.528   8.293  0.2263  0.2533 -0.0866
  700XCA     C1 6299  10.441   3.484   7.886 -0.3166  0.3107  0.0910
  700XCA     C2 6300  10.396   3.505   7.477  0.1311  0.1230  0.1064
  700XCA     C3 6301  10.532   3.357   6.975  0.1251 -0.1918  0.2411
  700XCA     C4 6302  10.531   2.968   6.778  0.1387  0.0742 -0.2973
  700XCA     C5 6303  10.477   2.609   7.011  0.1950 -0.0867 -0.5195
  700XCA     C6 6304  10.693   2.277   7.062  0.2080 -0.2001 -0.2535
  701PNCE   AM1 6305   4.075   5.919   5.290  0.0599 -0.4463 -0.3592
  701PNCE   AM2 6306   4.188   6.269   5.307 -0.3931  0.4818  0.0178
  701PNCE   T1A 6307   4.368   5.695   5.460  0.0418  0.2306  0.0679
  701PNCE   C2A 6308   4.545   5.361   5.745  0.0450  0.0043 -0.1343
  701PNCE   C3A 6309   4.603   5.371   6.165  0.1560  0.2355  0.1207
  701PNCE   C1B 6310   4.402   6.186   5.699  0.1239  0.1207  0.0496
  701PNCE   C2B 6311   4.817   6.257   5.897 -0.1604  0.1391  0.1158
  701PNCE   C3B 6312   5.210   6.261   6.030  0.0395 -0.3719 -0.3196
  701PNCE   D4B 6313   5.677   6.023   6.164  0.1361  0.1363 -0.2190
  701PNCE   C5B 6314   6.036   6.206   6.096 -0.0969 -0.2180 -0.2245
  701PNCE   C6B 6315   6.446   6.403   6.219 -0.0002 -0.3999  0.1890
  702PNCE   AM1 6316   5.238  14.992   4.206 -0.3016 -0.1743 -0.0282
  702PNCE   AM2 6317   5.227  14.747   4.304  0.1416  0.0348  0.0351
  702PNCE   T1A 6318   4.882  15.126   4.558  0.0123  0.0606 -0.3278
  702PNCE   C2A 6319   4.931  15.179   5.014 -0.1840 -0.2589  0.0136
  702PNCE   C3A 6320   4.942  15.135   5.377  0.0633 -0.1773 -0.2076
  702PNCE   C1B 6321   5.287  15.002   4.765 -0.1391  0.0976 -0.0592
  702PNCE   C2B 6322   5.415  15.072   5.193 -0.2622  0.0312 -0.2975
  702PNCE   C3B 6323   5.380  15.256   5.551  0.0296  0.2173 -0.0921
  702PNCE   D4B 6324   5.403  15.401   5.913 -0.0326  0.1751 -0.0038
  702PNCE   C5B 6325   5.552  15.358   6.292  0.0702  0.0640  0.3345
  702PNCE   C6B 6326   5.942  15.399   6.476  0.1710  0.1826 -0.0555
  703CHOL   ROH 6327  12.700   4.254   5.714  0.0581  0.0551  0.1935
  703CHOL    R1 6328  12.515   4.353   5.904  0.0678 -0.0729  0.2716
  703CHOL    R2 6329  12.246   4.384   5.848  0.0987  0.1759  0.2317
  703CHOL    R3 6330  12.215   4.229   6.070 -0.0593 -0.1008  0.0218
  703CHOL    R4 6331  11.991   4.418   6.079 -0.0182 -0.0679  0.1418
  703CHOL    R5 6332  12.136   4.381   6.237 -0.1167 -0.3006  0.1746
  703CHOL    C1 6333  11.814   4.293   6.421 -0.2345 -0.4696 -0.1076
  703CHOL    C2 6334  11.705   4.164   6.647  0.0809  0.4079  0.0667
  704PNCE   AM1 6335   1.406   4.136   4.720  0.0076  0.0641 -0.1276
  704PNCE   AM2 6336   1.730   4.128   4.910 -0.0240  0.6086  0.0396
  704PNCE   T1A 6337   1.343   3.756   5.028  0.1236 -0.1562  0.3656
  704PNCE   C2A 6338   1.272   3.705   5.440  0.2977 -0.0472 -0.0504
  704PNCE   C3A 6339   1.203   3.345   5.699  0.0614  0.0055 -0.1249
  704PNCE   C1B 6340   1.713   3.972   5.261  0.0791 -0.0956 -0.0268
  704PNCE   C2B 6341   1.766   3.791   5.670  0.0398  0.1192  0.0794
  704PNCE   C3B 6342   1.367   3.730   5.984 -0.0210  0.1418  0.1718
  704PNCE   D4B 6343   1.059   3.649   6.264  0.0614  0.3357 -0.1058
  704PNCE   C5B 6344   1.136   3.700   6.645  0.2043 -0.3041  0.1351
  704PNCE   C6B 6345   1.231   3.439   7.044 -0.2987  0.1919 -0.0662
  705PNCE   AM1 6346   3.019   0.142   3.427 -0.0095 -0.0374  0.0754
  705PNCE   AM2 6347   3.310  -0.117   3.477  0.1690  0.2538 -0.4781
  705PNCE   T1A 6348   2.904  -0.080   3.749  0.0071 -0.1107  0.1557
  705PNCE   C2A 6349   2.930  -0.177   4.143 -0.0452 -0.0341  0.0444
  705PNCE   C3A 6350   2.781  -0.514   4.286 -0.0738  0.2605  0.0942
  705PNCE   C1B 6351   3.441  -0.073   3.903 -0.0312  0.1710 -0.1336
  705PNCE   C2B 6352   3.392  -0.404   4.184 -0.1270 -0.1170  0.1505
  705PNCE   C3B 6353   3.211  -0.374   4.579 -0.0971  0.0315  0.0843
  705PNCE   D4B 6354   3.102  -0.178   5.024 -0.1830  0.2321 -0.0788
  705PNCE   C5B 6355   2.942   0.251   5.218 -0.2264 -0.0094  0.0577
  705PNCE   C6B 6356   3.231   0.669   5.458  0.0479  0.0359 -0.0602
  706CHOL   ROH 6357   9.058   4.081   8.691 -0.0005 -0.1164 -0.1145
  706CHOL    R1 6358   8.916   4.130   8.451  0.1340 -0.0539 -0.1819
  706CHOL    R2 6359   8.707   4.309   8.437 -0.0247 -0.2393 -0.1887
  706CHOL    R3 6360   8.854   4.416   8.235  0.0292  0.0689  0.0064
  706CHOL    R4 6361   8.576   4.495   8.176 -0.0690 -0.4552 -0.3239
  706CHOL    R5 6362   8.714   4.392   8.041  0.3057 -0.1818 -0.1733
  706CHOL    C1 6363   8.639   4.704   7.835 -0.0440 -0.2916 -0.2195
  706CHOL    C2 6364   8.269   4.935   7.959 -0.0501 -0.2361 -0.1126
  707XCA    COO 6365   6.407   9.849   4.368  0.0146  0.1042  0.0128
  707XCA     C1 6366   6.458   9.631   4.722 -0.1210 -0.4503  0.2720
  707XCA     C2 6367   6.475   9.697   5.150  0.0172 -0.0364 -0.3119
  707XCA     C3 6368   6.550   9.546   5.584  0.0775  0.2096  0.0640
  707XCA     C4 6369   6.725   9.171   5.755 -0.4048 -0.0826 -0.2900
  707XCA     C5 6370   7.061   8.880   5.874  0.1182  0.0186 -0.0165
  707XCA     C6 6371   7.313   8.626   6.200 -0.0292  0.3351 -0.1228
  708XCA    COO 6372   9.345   0.576   5.080 -0.1946 -0.2210  0.3070
  708XCA     C1 6373   9.177   0.764   5.350  0.1312  0.0152 -0.0634
  708XCA     C2 6374   9.040   1.302   5.465 -0.1128  0.0219 -0.1247
  708XCA     C3 6375   8.944   1.466   5.868 -0.0494  0.1803 -0.0868
  708XCA     C4 6376   9.097   1.431   6.277  0.1502 -0.1665 -0.1629
  708XCA     C5 6377   9.171   1.782   6.489  0.1441  0.0477 -0.1417
  708XCA     C6 6378   9.139   2.063   6.865  0.3965 -0.0538 -0.3165
  709CHOL   ROH 6379   2.898   6.199   6.762  0.1081  0.0296 -0.1157
  709CHOL    R1 6380   2.778   6.210   6.506  0.0003  0.1229 -0.0623
  709CHOL    R2 6381   2.589   6.401   6.439  0.1152  0.2715  0.0237
  709CHOL    R3 6382   2.761   6.450   6.233  0.0635  0.1384 -0.0523
  709CHOL    R4 6383   2.517   6.597   6.163  0.0342  0.0583 -0.1093
  709CHOL    R5 6384   2.621   6.452   6.039  0.0218 -0.0224 -0.0242
  709CHOL    C1 6385   2.636   6.757   5.810 -0.0614 -0.1907 -0.2581
  709CHOL    C2 6386   2.565   7.162   5.658 -0.1786 -0.2561 -0.0809
  710CHOL   ROH 6387   6.978  10.682   4.686 -0.1454 -0.0375  0.1537
  710CHOL    R1 6388   7.005  10.474   4.876 -0.0611 -0.1060  0.0691
  710CHOL    R2 6389   7.202  10.282   4.858  0.0694  0.0229  0.0331
  710CHOL    R3 6390   7.259  10.363   5.112 -0.0478 -0.0468  0.0810
  710CHOL    R4 6391   7.376  10.095   5.092 -0.0467 -0.0392  0.0690
  710CHOL    R5 6392   7.236  10.165   5.244 -0.1141 -0.0773  0.0194
  710CHOL    C1 6393   7.530  10.063   5.466 -0.2242 -0.1407  0.1348
  710CHOL    C2 6394   7.958   9.997   5.564  0.1485  0.1869 -0.1121
  711CHOL   ROH 6395   9.320   7.673   6.315  0.1326 -0.2553 -0.0108
  711CHOL    R1 6396   9.562   7.787   6.407  0.1324 -0.2053 -0.0690
  711CHOL    R2 6397   9.727   7.937   6.245 -0.0161 -0.0314 -0.0680
  711CHOL    R3 6398   9.700   8.122   6.442  0.0012 -0.1648  0.0596
  711CHOL    R4 6399   9.939   8.206   6.295 -0.1792  0.1002 -0.0803
  711CHOL    R5 6400   9.925   8.171   6.509  0.0165 -0.0343 -0.0900
  711CHOL    C1 6401  10.037   8.535   6.509 -0.2578  0.0517  0.0323
  711CHOL    C2 6402  10.304   8.762   6.706 -0.0634  0.2233  0.0660
  712CHOL   ROH 6403  13.733   4.486   5.809 -0.1320  0.0089  0.1222
  712CHOL    R1 6404  13.800   4.337   6.040 -0.0108 -0.0147  0.0732
  712CHOL    R2 6405  14.061   4.276   6.107  0.0330  0.0673 -0.0130
  712CHOL    R3 6406  13.993   4.393   6.343  0.0554 -0.0050  0.0288
  712CHOL    R4 6407  14.232   4.234   6.404  0.1187  0.0571 -0.0642
  712CHOL    R5 6408  14.041   4.225   6.508  0.1481 -0.0247 -0.0188
  712CHOL    C1 6409  14.269   4.319   6.799  0.1898 -0.0168 -0.0547
  712CHOL    C2 6410  14.407   4.204   7.114 -0.1612  0.1495 -0.0377
  713XCA    COO 6411  15.024  11.706   4.084  0.2915 -0.1919 -0.0299
  713XCA     C1 6412  15.061  12.029   4.436 -0.2541  0.4997 -0.1799
  713XCA     C2 6413  15.113  12.157   4.885 -0.3995 -0.3137 -0.2594
  713XCA     C3 6414  15.215  12.162   5.303 -0.1308 -0.2351 -0.1895
  713XCA     C4 6415  15.336  12.538   5.592  0.0152 -0.0361  0.0566
  713XCA     C5 6416  15.059  12.825   5.889 -0.0189 -0.1597 -0.2246
  713XCA     C6 6417  15.161  13.093   6.285  0.4317  0.2029 -0.1729
  714CHOL   ROH 6418  15.560  12.613   5.982 -0.0586  0.1678  0.0157
  714CHOL    R1 6419  15.401  12.440   6.140  0.0828  0.0403  0.0213
  714CHOL    R2 6420  15.173  12.526   6.270  0.0776 -0.1157  0.1164
  714CHOL    R3 6421  15.058  12.319   6.136  0.1449 -0.1420  0.0991
  714CHOL    R4 6422  14.882  12.366   6.367  0.1268 -0.2136  0.1034
  714CHOL    R5 6423  14.973  12.176   6.309  0.1884 -0.1816  0.0893
  714CHOL    C1 6424  14.604  12.079   6.297  0.2187 -0.2953  0.0797
  714CHOL    C2 6425  14.366  11.801   6.280  0.1836  0.4506  0.1955
  715CHOL   ROH 6426   7.365   0.819   9.035  0.0512  0.1252  0.0093
  715CHOL    R1 6427   7.498   0.783   8.788  0.0327  0.0469  0.0099
  715CHOL    R2 6428   7.431   0.925   8.560  0.0406  0.0030 -0.0224
  715CHOL    R3 6429   7.695   0.989   8.561  0.0490 -0.0348 -0.0495
  715CHOL    R4 6430   7.601   1.065   8.294  0.0401 -0.0423 -0.0459
  715CHOL    R5 6431   7.770   0.935   8.340  0.0239 -0.0617 -0.0501
  715CHOL    C1 6432   7.948   1.206   8.140  0.0477 -0.1042 -0.0851
  715CHOL    C2 6433   8.060   1.002   7.878 -0.0112  0.1112  0.3247
  716PNCE   AM1 6434   0.842   4.342   4.670 -0.0475 -0.1175  0.1655
  716PNCE   AM2 6435   1.052   4.614   4.607  0.1704 -0.1889  0.1229
  716PNCE   T1A 6436   0.626   4.338   5.108  0.2688 -0.0426  0.0145
  716PNCE   C2A 6437   0.279   4.235   5.400  0.0356 -0.0464  0.1558
  716PNCE   C3A 6438   0.035   4.110   5.604  0.0100 -0.0011 -0.0326
  716PNCE   C1B 6439   0.752   4.829   4.850  0.0352 -0.0874  0.1181
  716PNCE   C2B 6440   0.452   5.012   5.200 -0.0994  0.0647 -0.3928
  716PNCE   C3B 6441   0.432   4.674   5.612  0.3320 -0.0198  0.3106
  716PNCE   D4B 6442   0.355   4.311   5.934  0.1076 -0.0394  0.1769
  716PNCE   C5B 6443  -0.020   4.167   6.148 -0.2287  0.0210 -0.2577
  716PNCE   C6B 6444  -0.489   4.393   6.161 -0.0770 -0.1391  0.0763
  717CHOL   ROH 6445  14.293   1.015   6.293  0.0578 -0.0329 -0.1527
  717CHOL    R1 6446  14.371   0.795   6.133  0.1707 -0.0562 -0.0674
  717CHOL    R2 6447  14.623   0.683   6.147  0.1664 -0.0506  0.1201
  717CHOL    R3 6448  14.484   0.454   6.190  0.1394 -0.0448  0.0625
  717CHOL    R4 6449  14.757   0.365   6.129  0.0945 -0.0699 -0.0892
  717CHOL    R5 6450  14.573   0.299   6.031  0.0439  0.0149 -0.0481
  717CHOL    C1 6451  14.703  -0.036   6.159  0.0273 -0.0757 -0.2652
  717CHOL    C2 6452  14.566  -0.403   6.055 -0.0111 -0.0607  0.1793
  718PNCE   AM1 6453   3.547  14.231   4.171 -0.0158  0.0942  0.0882
  718PNCE   AM2 6454   3.745  13.987   4.103 -0.2539 -0.1681 -0.1865
  718PNCE   T1A 6455   3.458  14.518   4.500 -0.0836 -0.1535  0.4760
  718PNCE   C2A 6456   3.552  14.576   4.919  0.0004 -0.1357 -0.1449
  718PNCE   C3A 6457   3.459  14.721   5.195 -0.1425  0.0090 -0.1047
  718PNCE   C1B 6458   3.905  14.093   4.535 -0.0554 -0.2452 -0.0173
  718PNCE   C2B 6459   3.832  14.170   4.906 -0.0558  0.0215  0.3564
  718PNCE   C3B 6460   3.669  14.203   5.255  0.0425  0.3126 -0.1515
  718PNCE   D4B 6461   3.554  14.287   5.636 -0.2865  0.1432  0.0245
  718PNCE   C5B 6462   4.017  14.279   5.903  0.2509 -0.0964 -0.0992
  718PNCE   C6B 6463   4.188  14.579   6.240 -0.1276 -0.1029  0.0442
  719PNCE   AM1 6464   0.366  12.492   4.123 -0.0714  0.0218 -0.3195
  719PNCE   AM2 6465   0.465  12.071   4.094  0.0293 -0.0048 -0.0874
  719PNCE   T1A 6466   0.352  12.619   4.567 -0.3161  0.1345  0.0814
  719PNCE   C2A 6467   0.540  12.858   4.874  0.1539 -0.0820  0.0145
  719PNCE   C3A 6468   0.616  13.271   5.009 -0.1352  0.0678  0.1470
  719PNCE   C1B 6469   0.207  11.906   4.460  0.0246 -0.0390 -0.1485
  719PNCE   C2B 6470   0.145  12.029   4.856  0.2005  0.1565  0.1253
  719PNCE   C3B 6471   0.141  12.090   5.273  0.0975  0.0398 -0.1627
  719PNCE   D4B 6472   0.268  12.016   5.691 -0.0652 -0.2251 -0.2017
  719PNCE   C5B 6473   0.706  11.869   5.775 -0.6880  0.2073 -0.1102
  719PNCE   C6B 6474   1.000  11.965   6.145  0.1015 -0.2357 -0.1658
  720PNCE   AM1 6475   9.546   3.880   4.494  0.1099  0.0473 -0.0719
  720PNCE   AM2 6476   9.252   3.843   4.516 -0.1211 -0.5383  0.0138
  720PNCE   T1A 6477   9.781   3.994   4.857  0.0526  0.0434  0.1137
  720PNCE   C2A 6478   9.729   4.102   5.238  0.3129 -0.2440 -0.0646
  720PNCE   C3A 6479   9.529   4.509   5.345 -0.1605 -0.2400  0.1517
  720PNCE   C1B 6480   9.286   3.956   5.012  0.0101  0.1203  0.0755
  720PNCE   C2B 6481   9.201   4.128   5.366 -0.2093 -0.1172  0.0568
  720PNCE   C3B 6482   9.271   4.289   5.788 -0.0310  0.1993 -0.0702
  720PNCE   D4B 6483   9.154   4.252   6.212  0.0235 -0.1213 -0.0911
  720PNCE   C5B 6484   9.427   3.971   6.501 -0.0594 -0.2896 -0.0295
  720PNCE   C6B 6485   9.896   3.806   6.716 -0.0150 -0.3151  0.0224
  721XCA    COO 6486   8.206   6.302   4.892 -0.0230 -0.0571  0.3898
  721XCA     C1 6487   8.595   6.535   5.104  0.0723  0.2377 -0.2322
  721XCA     C2 6488   8.560   6.563   5.580  0.2067  0.2313 -0.1824
  721XCA     C3 6489   8.456   6.704   5.993  0.1290  0.0578  0.0464
  721XCA     C4 6490   8.129   6.827   6.135  0.4398  0.3561  0.1095
  721XCA     C5 6491   7.700   6.770   6.405  0.0757  0.1065  0.0722
  721XCA     C6 6492   7.389   6.552   6.532  0.1072 -0.0366 -0.0141
  722PNCE   AM1 6493  15.279   2.818   3.862 -0.1845  0.1578 -0.0422
  722PNCE   AM2 6494  15.005   2.693   3.854 -0.0894  0.0586 -0.1405
  722PNCE   T1A 6495  15.580   2.672   4.130 -0.0373 -0.2576  0.3653
  722PNCE   C2A 6496  15.866   2.719   4.456  0.2656  0.0887 -0.2360
  722PNCE   C3A 6497  16.167   2.658   4.721 -0.0074  0.0289 -0.0015
  722PNCE   C1B 6498  15.057   2.752   4.311  0.1712 -0.1815 -0.0327
  722PNCE   C2B 6499  15.092   2.680   4.689  0.0866  0.0324  0.1569
  722PNCE   C3B 6500  15.086   2.608   5.152 -0.4189  0.2881  0.0465
  722PNCE   D4B 6501  15.260   2.492   5.599  0.3137  0.0239 -0.0351
  722PNCE   C5B 6502  15.339   2.813   5.937  0.0593  0.1369 -0.2222
  722PNCE   C6B 6503  15.363   3.031   6.323  0.2290 -0.0405  0.1800
  723PNCE   AM1 6504   6.756   1.504   5.037  0.0926 -0.2999  0.3894
  723PNCE   AM2 6505   6.510   1.266   4.824 -0.1081 -0.0931 -0.2268
  723PNCE   T1A 6506   6.390   1.583   5.309 -0.1970  0.2262  0.0533
  723PNCE   C2A 6507   6.224   1.661   5.725  0.1197 -0.2778 -0.0417
  723PNCE   C3A 6508   6.011   1.940   6.048 -0.0335 -0.2044 -0.1896
  723PNCE   C1B 6509   6.236   1.128   5.206 -0.1994  0.1707  0.3283
  723PNCE   C2B 6510   6.264   1.085   5.541  0.0872  0.3538  0.1458
  723PNCE   C3B 6511   6.410   1.268   5.973 -0.1659  0.1071  0.0314
  723PNCE   D4B 6512   6.363   1.615   6.285 -0.2034  0.2330 -0.0208
  723PNCE   C5B 6513   6.044   1.664   6.502 -0.0525  0.2212 -0.0561
  723PNCE   C6B 6514   5.781   1.628   6.832  0.0655 -0.1039  0.1257
  724PNCE   AM1 6515  10.137  10.490   4.949 -0.1547  0.2252  0.0345
  724PNCE   AM2 6516  10.369  10.167   5.110 -0.0612  0.0850 -0.1221
  724PNCE   T1A 6517   9.809  10.310   5.252  0.1463  0.0811  0.0720
  724PNCE   C2A 6518   9.730  10.229   5.565  0.3479 -0.0103  0.2104
  724PNCE   C3A 6519   9.372  10.074   5.836 -0.2626  0.0816 -0.2120
  724PNCE   C1B 6520  10.273  10.302   5.546  0.0330 -0.1097 -0.1214
  724PNCE   C2B 6521  10.189  10.188   5.874  0.0968  0.5474  0.0188
  724PNCE   C3B 6522  10.034   9.962   6.243  0.3545  0.0475 -0.1164
  724PNCE   D4B 6523  10.009   9.921   6.679 -0.0439  0.3023 -0.0967
  724PNCE   C5B 6524  10.228   9.593   6.913 -0.1281  0.3460 -0.1213
  724PNCE   C6B 6525  10.432   9.146   6.979 -0.2401  0.2786  0.0240
  725PNCE   AM1 6526  10.040   6.612   4.823 -0.2018 -0.1938  0.2978
  725PNCE   AM2 6527  10.402   6.533   4.781  0.0575  0.3107 -0.1923
  725PNCE   T1A 6528   9.812   6.168   4.901 -0.1721  0.3232  0.0590
  725PNCE   C2A 6529   9.888   5.895   5.258  0.2004  0.1088 -0.1739
  725PNCE   C3A 6530   9.962   5.841   5.667 -0.0551 -0.2503 -0.2151
  725PNCE   C1B 6531  10.246   6.402   5.191 -0.0049 -0.1112  0.1785
  725PNCE   C2B 6532   9.975   6.393   5.585  0.2539  0.1457  0.1823
  725PNCE   C3B 6533   9.556   6.578   5.718  0.1098 -0.0060 -0.1196
  725PNCE   D4B 6534   9.016   6.709   5.789  0.0603 -0.1405  0.3936
  725PNCE   C5B 6535   8.941   6.748   6.248 -0.0216 -0.1164 -0.0113
  725PNCE   C6B 6536   9.105   6.550   6.646 -0.1733 -0.1047 -0.1991
  726PNCE   AM1 6537   7.186  14.114   4.618  0.0869 -0.0163 -0.1470
  726PNCE   AM2 6538   6.822  14.212   4.735 -0.0006  0.0942 -0.0923
  726PNCE   T1A 6539   7.136  13.938   5.006  0.1515 -0.0618  0.0429
  726PNCE   C2A 6540   7.209  13.667   5.401 -0.3392  0.1337 -0.0527
  726PNCE   C3A 6541   7.380  13.484   5.731 -0.0801  0.1511 -0.0170
  726PNCE   C1B 6542   6.418  14.339   4.840  0.3628 -0.1087  0.2628
  726PNCE   C2B 6543   6.287  14.258   5.202  0.0649 -0.5740  0.0354
  726PNCE   C3B 6544   6.426  14.560   5.479 -0.0132  0.0575 -0.0210
  726PNCE   D4B 6545   6.568  14.602   5.918 -0.0382  0.1201 -0.1969
  726PNCE   C5B 6546   6.426  14.623   6.271  0.3675  0.1453 -0.0783
  726PNCE   C6B 6547   6.370  14.597   6.677  0.0404 -0.1071  0.0747
  727CHOL   ROH 6548   1.127  14.601   7.629 -0.1728 -0.0497 -0.2184
  727CHOL    R1 6549   1.279  14.779   7.470 -0.0377 -0.0621 -0.1061
  727CHOL    R2 6550   1.302  14.750   7.196  0.0863 -0.0083 -0.1038
  727CHOL    R3 6551   1.215  15.007   7.194  0.1682  0.0194 -0.0875
  727CHOL    R4 6552   1.286  14.952   6.916  0.1131  0.0030 -0.0966
  727CHOL    R5 6553   1.358  15.118   7.037  0.1816 -0.0229 -0.1035
  727CHOL    C1 6554   1.195  15.310   6.751  0.2057  0.0354 -0.0771
  727CHOL    C2 6555   1.027  15.546   6.376  0.0897 -0.3389  0.1418
  728XCA    COO 6556   9.906  11.381   4.868 -0.2286  0.1569 -0.1226
  728XCA     C1 6557   9.698  11.461   5.238  0.1003 -0.0284  0.1565
  728XCA     C2 6558   9.468  11.190   5.518 -0.0431 -0.2371  0.1083
  728XCA     C3 6559   9.295  11.113   5.901 -0.0981 -0.1307  0.2118
  728XCA     C4 6560   9.228  11.251   6.339  0.1010  0.1374  0.1786
  728XCA     C5 6561   9.077  11.354   6.664 -0.2078  0.0956 -0.0072
  728XCA     C6 6562   9.282  11.264   7.062  0.0894 -0.4723 -0.4306
  729PNCE   AM1 6563   8.992   8.174   5.708  0.2693 -0.0654 -0.1083
  729PNCE   AM2 6564   8.964   7.968   5.340  0.1530  0.1442 -0.1009
  729PNCE   T1A 6565   8.753   8.251   6.037  0.1273 -0.0266  0.0661
  729PNCE   C2A 6566   8.640   8.116   6.392  0.1214  0.0555 -0.1740
  729PNCE   C3A 6567   8.578   8.269   6.793 -0.1577 -0.4464  0.0515
  729PNCE   C1B 6568   8.988   7.529   5.523  0.0547 -0.1786  0.2803
  729PNCE   C2B 6569   9.198   7.401   5.881  0.3520 -0.0281 -0.2046
  729PNCE   C3B 6570   9.064   7.262   6.321 -0.0988  0.2559  0.1066
  729PNCE   D4B 6571   8.999   7.035   6.704 -0.0307  0.0860 -0.1927
  729PNCE   C5B 6572   8.637   6.738   6.685 -0.0824 -0.3197  0.2310
  729PNCE   C6B 6573   8.243   6.471   6.500  0.1079  0.0474 -0.0933
  730XCA    COO 6574   7.827  14.702   8.091  0.0620 -0.1339  0.0524
  730XCA     C1 6575   7.892  15.023   7.743 -0.0076  0.2677  0.1818
  730XCA     C2 6576   8.179  15.236   7.514  0.0634  0.3018 -0.0455
  730XCA     C3 6577   8.202  15.276   7.107  0.0499  0.1095  0.2107
  730XCA     C4 6578   8.027  15.299   6.678  0.0697  0.1571  0.2974
  730XCA     C5 6579   8.089  15.154   6.202  0.0657 -0.0631 -0.3112
  730XCA     C6 6580   8.035  14.805   6.044 -0.0168 -0.0782 -0.0476
  731PNCE   AM1 6581   6.522   2.013   4.897  0.0261  0.1202  0.0224
  731PNCE   AM2 6582   6.229   1.884   4.688 -0.3730  0.0072 -0.2056
  731PNCE   T1A 6583   6.658   2.010   5.330 -0.2732 -0.1108  0.0432
  731PNCE   C2A 6584   6.816   2.342   5.651 -0.1488 -0.1474 -0.0383
  731PNCE   C3A 6585   6.804   2.411   6.159 -0.1729  0.0112 -0.0383
  731PNCE   C1B 6586   6.061   1.943   5.218 -0.3364 -0.2875  0.1721
  731PNCE   C2B 6587   5.729   1.930   5.580  0.2480 -0.2092  0.3618
  731PNCE   C3B 6588   5.578   2.160   5.936  0.3284 -0.2939 -0.2332
  731PNCE   D4B 6589   5.342   2.437   6.122 -0.1752  0.2781  0.2913
  731PNCE   C5B 6590   5.317   2.407   6.541 -0.2148 -0.4123  0.0582
  731PNCE   C6B 6591   5.016   2.133   6.699 -0.0117  0.0448  0.0343
  732PNCE   AM1 6592   3.612   8.094   4.654  0.1224 -0.0114 -0.1147
  732PNCE   AM2 6593   3.362   8.198   4.843  0.0669  0.3367  0.2370
  732PNCE   T1A 6594   3.794   8.057   5.113 -0.0923 -0.1129 -0.0859
  732PNCE   C2A 6595   3.719   8.010   5.583 -0.0270 -0.2889 -0.1882
  732PNCE   C3A 6596   3.583   8.302   6.025 -0.4088  0.4267  0.3487
  732PNCE   C1B 6597   3.423   8.291   5.338 -0.0598  0.0815  0.0923
  732PNCE   C2B 6598   3.773   8.522   5.555  0.2782  0.4970  0.2266
  732PNCE   C3B 6599   3.857   8.721   5.882 -0.2204  0.1348  0.0659
  732PNCE   D4B 6600   3.865   8.911   6.331  0.0698 -0.0939 -0.2084
  732PNCE   C5B 6601   3.510   9.006   6.525 -0.2539  0.4030  0.1012
  732PNCE   C6B 6602   3.421   9.259   6.955  0.1421  0.1905  0.2063
  733PNCE   AM1 6603  15.943   6.029   4.461 -0.1642  0.0853 -0.0191
  733PNCE   AM2 6604  16.199   5.868   4.489 -0.2999 -0.0674  0.0797
  733PNCE   T1A 6605  15.758   6.243   4.908  0.3284  0.2307 -0.1853
  733PNCE   C2A 6606  15.580   6.389   5.282 -0.0751  0.3042 -0.1599
  733PNCE   C3A 6607  15.436   6.215   5.654  0.1116 -0.0942  0.1570
  733PNCE   C1B 6608  16.138   5.851   4.916 -0.0386  0.1710 -0.2556
  733PNCE   C2B 6609  15.899   5.774   5.153  0.0545 -0.1556 -0.1050
  733PNCE   C3B 6610  15.910   5.928   5.553  0.1248 -0.0766  0.3349
  733PNCE   D4B 6611  15.939   6.256   5.847 -0.2315 -0.4891  0.0110
  733PNCE   C5B 6612  15.624   6.257   6.242 -0.0227  0.2107 -0.1930
  733PNCE   C6B 6613  15.677   6.429   6.578 -0.2181 -0.0487 -0.0089
  734CHOL   ROH 6614   1.589  14.856   4.234 -0.0892 -0.2161  0.0985
  734CHOL    R1 6615   1.506  14.831   4.503  0.1235 -0.2076  0.1678
  734CHOL    R2 6616   1.684  14.835   4.715  0.2569  0.2534  0.0630
  734CHOL    R3 6617   1.521  15.034   4.805 -0.0619  0.0143  0.0301
  734CHOL    R4 6618   1.661  14.939   5.044  0.2624  0.4255  0.0094
  734CHOL    R5 6619   1.446  14.957   5.018  0.2082  0.0086  0.1246
  734CHOL    C1 6620   1.496  15.185   5.320 -0.0336  0.3013 -0.0527
  734CHOL    C2 6621   1.730  15.017   5.519  0.2527  0.1015 -0.2764
  735CHOL   ROH 6622   3.215   7.416   6.356 -0.1947 -0.0626 -0.0691
  735CHOL    R1 6623   3.254   7.264   6.591 -0.0397 -0.0546 -0.0896
  735CHOL    R2 6624   3.134   7.327   6.831  0.2063  0.0174  0.0138
  735CHOL    R3 6625   3.046   7.070   6.818  0.0906  0.0490  0.1228
  735CHOL    R4 6626   3.112   7.112   7.100 -0.1828  0.2354  0.1669
  735CHOL    R5 6627   3.186   6.952   6.972 -0.1257  0.0954  0.3649
  735CHOL    C1 6628   3.017   6.745   7.245 -0.5180  0.3920  0.3583
  735CHOL    C2 6629   3.108   6.612   7.621 -0.1847 -0.1068  0.1763
  736XCA    COO 6630   7.688   3.157   8.357 -0.0436 -0.0811  0.1277
  736XCA     C1 6631   7.926   3.286   7.907 -0.1023  0.3177 -0.2054
  736XCA     C2 6632   8.234   3.366   7.705  0.0908  0.1927 -0.1728
  736XCA     C3 6633   8.280   3.340   7.310  0.2328 -0.1168  0.0421
  736XCA     C4 6634   8.180   3.263   6.838 -0.0516  0.3057  0.1044
  736XCA     C5 6635   8.200   3.393   6.444 -0.1364  0.0020 -0.0937
  736XCA     C6 6636   8.386   3.629   6.200 -0.0823 -0.0609 -0.1502
  737PNCE   AM1 6637  13.431  12.054   4.393 -0.0503 -0.1819 -0.2335
  737PNCE   AM2 6638  13.267  12.233   4.505  0.1810  0.0274 -0.0982
  737PNCE   T1A 6639  13.570  11.965   4.767 -0.0996  0.1829 -0.2699
  737PNCE   C2A 6640  13.531  11.779   5.276 -0.1994  0.0138 -0.0139
  737PNCE   C3A 6641  13.313  11.657   5.666 -0.4934 -0.1815 -0.4180
  737PNCE   C1B 6642  13.212  12.353   5.034  0.0152 -0.1297  0.1109
  737PNCE   C2B 6643  13.505  12.252   5.261  0.2481 -0.2916 -0.1898
  737PNCE   C3B 6644  13.655  12.079   5.726 -0.2667 -0.0575 -0.2559
  737PNCE   D4B 6645  13.929  11.894   6.075  0.2213 -0.0532  0.0509
  737PNCE   C5B 6646  13.888  11.802   6.522  0.0689  0.0681 -0.0727
  737PNCE   C6B 6647  13.732  11.712   6.910 -0.0025  0.0608 -0.2980
  738PNCE   AM1 6648  11.027  11.215   4.813  0.2365  0.1320 -0.1700
  738PNCE   AM2 6649  10.742  11.198   4.851  0.2052 -0.0165 -0.1025
  738PNCE   T1A 6650  11.135  11.447   5.154 -0.1769 -0.1251 -0.3785
  738PNCE   C2A 6651  11.117  11.449   5.484  0.1197 -0.1687 -0.0511
  738PNCE   C3A 6652  11.209  11.567   5.860 -0.0609  0.0020 -0.2259
  738PNCE   C1B 6653  10.305  11.150   5.109 -0.0439 -0.0239 -0.0228
  738PNCE   C2B 6654   9.977  11.068   5.335  0.1923 -0.0020 -0.1227
  738PNCE   C3B 6655   9.854  11.060   5.754  0.0567 -0.2300  0.0303
  738PNCE   D4B 6656   9.813  11.150   6.076 -0.1867 -0.0328 -0.0333
  738PNCE   C5B 6657   9.694  11.562   6.208 -0.2606  0.0283  0.2164
  738PNCE   C6B 6658   9.439  11.890   6.188 -0.1342  0.1594 -0.0382
  739CHOL   ROH 6659  10.391  15.486   5.806  0.0306  0.2869  0.0536
  739CHOL    R1 6660  10.464  15.271   5.974  0.0427  0.2135 -0.0445
  739CHOL    R2 6661  10.655  15.296   6.173 -0.0772  0.1797  0.0753
  739CHOL    R3 6662  10.455  15.200   6.331 -0.1179 -0.0199 -0.0927
  739CHOL    R4 6663  10.702  15.095   6.450 -0.1013  0.2828  0.1550
  739CHOL    R5 6664  10.527  14.979   6.390  0.0831  0.0700  0.0110
  739CHOL    C1 6665  10.542  14.887   6.760 -0.1536  0.1554  0.0438
  739CHOL    C2 6666  10.541  14.791   7.163  0.2054  0.0815  0.0177
  740PNCE   AM1 6667   3.226  14.727   4.041  0.0135 -0.1781 -0.1532
  740PNCE   AM2 6668   3.076  14.462   3.915  0.0604 -0.0862 -0.0003
  740PNCE   T1A 6669   3.444  14.983   4.132 -0.0794 -0.0202 -0.0520
  740PNCE   C2A 6670   3.648  14.995   4.497 -0.0848 -0.1225  0.3258
  740PNCE   C3A 6671   3.872  15.187   4.743 -0.0507  0.1675 -0.3267
  740PNCE   C1B 6672   2.960  14.435   4.330 -0.0024  0.1228 -0.1142
  740PNCE   C2B 6673   3.031  14.558   4.738 -0.1433 -0.2806  0.1979
  740PNCE   C3B 6674   2.955  14.759   5.102  0.1913  0.0934  0.3265
  740PNCE   D4B 6675   2.988  15.078   5.331 -0.0848  0.0366 -0.0941
  740PNCE   C5B 6676   2.734  15.446   5.411 -0.1654 -0.1556 -0.0110
  740PNCE   C6B 6677   2.590  15.861   5.148  0.0941  0.0463 -0.0362
  741PNCE   AM1 6678  13.195  14.636   4.462  0.0367  0.1395 -0.0943
  741PNCE   AM2 6679  13.501  14.609   4.702  0.0623  0.1926 -0.1267
  741PNCE   T1A 6680  13.060  14.857   4.844 -0.2548  0.1567  0.1456
  741PNCE   C2A 6681  13.097  14.935   5.287  0.2389  0.1366 -0.3982
  741PNCE   C3A 6682  13.076  15.172   5.694 -0.2798  0.1965  0.0471
  741PNCE   C1B 6683  13.445  14.645   5.073  0.2533  0.3156  0.0762
  741PNCE   C2B 6684  13.456  14.603   5.487 -0.2504 -0.1103  0.1731
  741PNCE   C3B 6685  13.660  14.405   5.804  0.0167  0.2721  0.0761
  741PNCE   D4B 6686  13.976  14.126   5.956 -0.0570 -0.1176  0.0263
  741PNCE   C5B 6687  13.974  13.881   6.257 -0.2235 -0.4931  0.0125
  741PNCE   C6B 6688  14.090  13.592   6.568  0.1643  0.0433  0.0353
  742CHOL   ROH 6689   2.038   9.936   8.489  0.3520  0.1165  0.2919
  742CHOL    R1 6690   2.198   9.707   8.536  0.1008 -0.0616  0.2997
  742CHOL    R2 6691   2.093   9.469   8.629 -0.2296 -0.0733 -0.0782
  742CHOL    R3 6692   2.216   9.367   8.410 -0.0002  0.0436 -0.0076
  742CHOL    R4 6693   2.215   9.147   8.602 -0.2553 -0.0782 -0.1421
  742CHOL    R5 6694   2.388   9.226   8.497 -0.1210 -0.0407  0.0997
  742CHOL    C1 6695   2.402   8.863   8.379 -0.0549  0.0288 -0.1131
  742CHOL    C2 6696   2.513   8.446   8.428  0.3374 -0.1877 -0.2541
  743CHOL   ROH 6697   8.341  11.765   4.577  0.0981  0.0093 -0.2310
  743CHOL    R1 6698   8.485  11.647   4.791  0.0122 -0.0896 -0.2285
  743CHOL    R2 6699   8.621  11.408   4.765  0.0933 -0.0287 -0.3133
  743CHOL    R3 6700   8.830  11.554   4.857  0.0041 -0.0319 -0.0938
  743CHOL    R4 6701   8.846  11.300   5.003  0.1112 -0.2237 -0.4148
  743CHOL    R5 6702   8.842  11.500   5.090 -0.0077 -0.3292 -0.1544
  743CHOL    C1 6703   9.175  11.374   5.228  0.0377 -0.3403 -0.2678
  743CHOL    C2 6704   8.972  11.203   5.458  0.1182  0.1294 -0.1931
  744XCA    COO 6705  13.573  13.949   8.472 -0.2178  0.0271 -0.1812
  744XCA     C1 6706  13.409  14.071   8.061 -0.1821  0.3347  0.1458
  744XCA     C2 6707  13.137  13.887   7.659 -0.1282 -0.0708  0.2791
  744XCA     C3 6708  12.874  13.639   7.437  0.0180 -0.1432 -0.0161
  744XCA     C4 6709  12.995  13.200   7.295  0.0184  0.2101 -0.2134
  744XCA     C5 6710  12.926  12.723   7.256  0.0939 -0.1149 -0.1258
  744XCA     C6 6711  12.996  12.438   6.869 -0.0956 -0.2152  0.0636
  745PNCE   AM1 6712   8.203   3.894   4.549  0.0596 -0.1277  0.1664
  745PNCE   AM2 6713   8.352   4.211   4.579  0.2039 -0.0809 -0.4022
  745PNCE   T1A 6714   8.045   3.738   4.895 -0.1878 -0.0273  0.0211
  745PNCE   C2A 6715   7.875   3.571   5.398 -0.0929  0.0257  0.0003
  745PNCE   C3A 6716   7.889   3.874   5.773 -0.0318 -0.0059 -0.1745
  745PNCE   C1B 6717   8.230   4.158   5.024  0.0109 -0.0726  0.0591
  745PNCE   C2B 6718   8.007   4.063   5.296 -0.2808  0.0211 -0.1243
  745PNCE   C3B 6719   8.135   4.335   5.528  0.0250  0.1198  0.1071
  745PNCE   D4B 6720   8.404   4.574   5.746  0.2468  0.0688  0.0346
  745PNCE   C5B 6721   8.771   4.553   5.932  0.0339 -0.1612  0.0038
  745PNCE   C6B 6722   9.122   4.748   5.687 -0.0132  0.1387  0.3798
  746PNCE   AM1 6723   6.645  15.308   4.546  0.0456 -0.2581 -0.1532
  746PNCE   AM2 6724   6.707  15.224   4.905 -0.1764  0.2105  0.0221
  746PNCE   T1A 6725   6.676  15.693   4.575  0.2518 -0.1590 -0.1691
  746PNCE   C2A 6726   6.553  15.886   4.955 -0.1313 -0.0867  0.2294
  746PNCE   C3A 6727   6.487  15.937   5.420  0.0262 -0.2002  0.0057
  746PNCE   C1B 6728   6.464  15.410   5.186 -0.0025 -0.0747 -0.3113
  746PNCE   C2B 6729   6.292  15.518   5.629  0.2401 -0.0419 -0.1751
  746PNCE   C3B 6730   6.325  15.451   6.028  0.0867  0.0594 -0.2309
  746PNCE   D4B 6731   6.386  15.648   6.403  0.1383 -0.0310  0.0722
  746PNCE   C5B 6732   6.136  15.891   6.640 -0.1042 -0.2123 -0.1128
  746PNCE   C6B 6733   6.062  16.331   6.764 -0.1339 -0.1235 -0.3578
  747XCA    COO 6734   3.370   2.408   8.563  0.0672 -0.0025  0.0603
  747XCA     C1 6735   3.226   2.410   8.111 -0.0913 -0.1063  0.1873
  747XCA     C2 6736   3.151   2.199   7.699  0.0520 -0.0547  0.1576
  747XCA     C3 6737   3.084   2.229   7.209 -0.5487 -0.3241  0.0431
  747XCA     C4 6738   3.255   2.087   6.751  0.2104  0.1658  0.1958
  747XCA     C5 6739   3.423   1.814   6.367 -0.3183  0.1426 -0.2667
  747XCA     C6 6740   3.238   1.532   6.159 -0.0411 -0.1140  0.1150
  748CHOL   ROH 6741   9.054  15.762   6.618  0.1984 -0.1448 -0.0342
  748CHOL    R1 6742   8.972  15.503   6.696  0.1669 -0.1576 -0.1102
  748CHOL    R2 6743   8.707  15.435   6.734  0.1720 -0.0840  0.0533
  748CHOL    R3 6744   8.765  15.238   6.556 -0.0311 -0.0133 -0.0956
  748CHOL    R4 6745   8.481  15.201   6.618  0.0276 -0.0175  0.1972
  748CHOL    R5 6746   8.638  15.050   6.632  0.0361 -0.0365 -0.0354
  748CHOL    C1 6747   8.403  14.879   6.384 -0.2471  0.0878  0.1412
  748CHOL    C2 6748   8.121  14.776   6.652 -0.2788  0.2031 -0.5319
  749PNCE   AM1 6749   3.260   2.613   4.061 -0.1909  0.1292  0.0864
  749PNCE   AM2 6750   2.993   2.874   4.255  0.0661  0.2521  0.0614
  749PNCE   T1A 6751   3.661   2.491   4.015 -0.2046 -0.2878 -0.1167
  749PNCE   C2A 6752   3.886   2.273   4.346  0.3039  0.2509  0.2738
  749PNCE   C3A 6753   4.098   2.135   4.763 -0.2680 -0.2901 -0.2041
  749PNCE   C1B 6754   3.148   2.766   4.556 -0.3237 -0.0979  0.1578
  749PNCE   C2B 6755   3.260   2.636   4.861  0.1328 -0.0381 -0.0480
  749PNCE   C3B 6756   3.286   2.305   5.181  0.0409 -0.1745 -0.0889
  749PNCE   D4B 6757   3.345   2.068   5.617  0.1629  0.0475  0.1228
  749PNCE   C5B 6758   3.804   1.983   5.842  0.2285  0.0026 -0.1206
  749PNCE   C6B 6759   4.127   1.769   5.956 -0.2847 -0.1151  0.0536
  750XCA    COO 6760  15.122  15.785   7.679  0.4025  0.3648  0.3555
  750XCA     C1 6761  15.268  15.513   7.426  0.2592 -0.0846  0.2562
  750XCA     C2 6762  15.281  15.380   6.869  0.1454 -0.2365 -0.1597
  750XCA     C3 6763  15.203  15.064   6.494 -0.0223 -0.1170 -0.0440
  750XCA     C4 6764  15.121  14.750   6.389 -0.0706 -0.1321 -0.0704
  750XCA     C5 6765  15.225  14.583   5.965 -0.0659 -0.2318 -0.2567
  750XCA     C6 6766  15.383  14.205   5.670  0.1348 -0.1487  0.0718
  751XCA    COO 6767  13.395  13.025   4.389 -0.0301 -0.0110  0.2746
  751XCA     C1 6768  13.470  12.660   4.673  0.1212 -0.0409  0.1402
  751XCA     C2 6769  13.823  12.469   4.899  0.0621 -0.0505  0.0649
  751XCA     C3 6770  14.043  12.556   5.337  0.0261  0.0923 -0.0878
  751XCA     C4 6771  14.320  12.691   5.650 -0.1906 -0.1100 -0.0455
  751XCA     C5 6772  14.546  12.928   5.889  0.2170 -0.0685  0.0998
  751XCA     C6 6773  14.632  13.359   6.052 -0.2115  0.1012 -0.1215
  752PNCE   AM1 6774   1.605  12.178   4.441  0.1512  0.0557  0.0501
  752PNCE   AM2 6775   1.413  11.970   4.574  0.3600 -0.4676  0.0045
  752PNCE   T1A 6776   1.667  12.295   4.854  0.0461 -0.1397  0.1985
  752PNCE   C2A 6777   2.049  12.473   4.995 -0.2754  0.0253 -0.0462
  752PNCE   C3A 6778   2.512  12.506   4.837  0.1122  0.0847  0.2352
  752PNCE   C1B 6779   1.460  11.770   4.910  0.1763 -0.2853 -0.0754
  752PNCE   C2B 6780   1.393  11.558   5.318 -0.0672  0.2334  0.2158
  752PNCE   C3B 6781   1.376  11.306   5.754  0.0659 -0.0265  0.1907
  752PNCE   D4B 6782   1.308  10.986   6.029 -0.4778 -0.1175  0.0126
  752PNCE   C5B 6783   1.499  10.651   6.269  0.1070  0.0295 -0.1668
  752PNCE   C6B 6784   1.586  10.197   6.323 -0.0013  0.1476 -0.1169
  753PNCE   AM1 6785   9.517   7.517   5.332  0.0924 -0.5832  0.1474
  753PNCE   AM2 6786   9.501   7.809   5.496  0.1810  0.1211  0.2615
  753PNCE   T1A 6787   9.700   7.438   5.794 -0.3120  0.0936  0.0266
  753PNCE   C2A 6788   9.643   7.401   6.192 -0.0397 -0.0373  0.3265
  753PNCE   C3A 6789   9.407   7.338   6.668 -0.0549 -0.1944  0.0069
  753PNCE   C1B 6790   9.376   7.909   5.912  0.0739  0.2817 -0.0816
  753PNCE   C2B 6791   9.227   8.155   6.254 -0.2773 -0.1583  0.5731
  753PNCE   C3B 6792   9.078   8.336   6.585  0.1045 -0.0305 -0.0877
  753PNCE   D4B 6793   9.146   8.299   6.973  0.2733  0.1074 -0.2742
  753PNCE   C5B 6794   8.887   7.938   7.015  0.0677 -0.0462  0.4296
  753PNCE   C6B 6795   8.596   8.067   7.254 -0.2305  0.0287 -0.0455
  754XCA    COO 6796   0.438   5.708   8.576  0.0197  0.2305  0.2732
  754XCA     C1 6797   0.048   5.469   8.421  0.3076 -0.1210 -0.3042
  754XCA     C2 6798  -0.228   5.154   8.252  0.1335 -0.1290  0.1888
  754XCA     C3 6799  -0.152   4.931   7.907 -0.1821 -0.0929  0.0334
  754XCA     C4 6800  -0.047   4.527   7.790  0.1209  0.1430  0.2168
  754XCA     C5 6801  -0.004   3.994   7.788 -0.1665 -0.0931  0.0517
  754XCA     C6 6802  -0.028   3.767   7.396 -0.0614  0.0699  0.0286
  755PNCE   AM1 6803  11.601   7.190   8.971  0.2301  0.0269 -0.3456
  755PNCE   AM2 6804  11.488   7.575   8.949  0.1867 -0.2813  0.0974
  755PNCE   T1A 6805  11.590   7.243   8.467  0.1609 -0.1665 -0.1484
  755PNCE   C2A 6806  11.700   7.176   8.066 -0.0092 -0.0686 -0.0009
  755PNCE   C3A 6807  11.938   6.935   7.665  0.0416  0.2750 -0.0311
  755PNCE   C1B 6808  11.221   7.594   8.552  0.2069 -0.1733 -0.0685
  755PNCE   C2B 6809  11.087   7.611   8.201 -0.0332 -0.1601  0.2270
  755PNCE   C3B 6810  10.750   7.859   7.988  0.3458 -0.1811  0.1556
  755PNCE   D4B 6811  10.425   7.872   7.778 -0.1958 -0.2262  0.0350
  755PNCE   C5B 6812  10.520   7.651   7.364 -0.1576 -0.0432  0.1761
  755PNCE   C6B 6813  10.354   7.477   7.006 -0.2239  0.1624  0.1648
  756CHOL   ROH 6814  13.044   1.175   7.125  0.1096  0.0078 -0.1519
  756CHOL    R1 6815  12.981   1.441   7.201  0.0417 -0.0129 -0.1362
  756CHOL    R2 6816  13.153   1.598   7.348 -0.0426 -0.0138 -0.0362
  756CHOL    R3 6817  13.119   1.772   7.142  0.0232  0.0154 -0.0231
  756CHOL    R4 6818  13.112   1.940   7.383 -0.1013 -0.0246  0.0028
  756CHOL    R5 6819  12.961   1.932   7.225 -0.0336 -0.0186 -0.0636
  756CHOL    C1 6820  13.054   2.302   7.209 -0.0738 -0.0035  0.0377
  756CHOL    C2 6821  12.923   2.328   6.814  0.1494  0.0812  0.1446
  757CHOL   ROH 6822   6.722   8.655   5.004 -0.0656 -0.2602  0.0004
  757CHOL    R1 6823   6.637   8.599   5.268 -0.0026 -0.0410  0.0697
  757CHOL    R2 6824   6.770   8.694   5.491  0.0846  0.0964 -0.0409
  757CHOL    R3 6825   6.524   8.790   5.557  0.1263  0.2042 -0.0387
  757CHOL    R4 6826   6.633   8.686   5.808  0.0477  0.0691 -0.0571
  757CHOL    R5 6827   6.441   8.634   5.719  0.0288  0.1956 -0.0947
  757CHOL    C1 6828   6.323   8.771   6.055  0.0654  0.1545 -0.0646
  757CHOL    C2 6829   6.218   8.888   6.420 -0.0295  0.0992 -0.2844
  758CHOL   ROH 6830  15.832   7.373   8.524 -0.2071 -0.0691  0.1660
  758CHOL    R1 6831  15.681   7.462   8.302  0.1760 -0.0337 -0.0911
  758CHOL    R2 6832  15.785   7.472   8.045  0.4523 -0.5510 -0.0220
  758CHOL    R3 6833  15.567   7.320   7.987  0.2035 -0.2022 -0.0227
  758CHOL    R4 6834  15.611   7.480   7.746  0.4907 -0.3357 -0.0392
  758CHOL    R5 6835  15.426   7.464   7.858  0.4539 -0.0044 -0.0678
  758CHOL    C1 6836  15.306   7.342   7.517  0.2794  0.1170 -0.0498
  758CHOL    C2 6837  15.263   7.236   7.113  0.0205  0.0881 -0.1869
  759CHOL   ROH 6838  14.919   6.610   8.396 -0.1268 -0.3274  0.1005
  759CHOL    R1 6839  14.838   6.796   8.199 -0.1100 -0.2233  0.1905
  759CHOL    R2 6840  14.884   6.756   7.929  0.0716  0.0001  0.1826
  759CHOL    R3 6841  14.616   6.796   7.911  0.0587 -0.1332  0.0593
  759CHOL    R4 6842  14.714   6.816   7.634  0.2027  0.1492  0.1354
  759CHOL    R5 6843  14.592   6.963   7.741  0.0614 -0.0069  0.1858
  759CHOL    C1 6844  14.363   6.889   7.446  0.2669  0.1108 -0.0078
  759CHOL    C2 6845  14.240   6.808   7.104 -0.1390 -0.2193  0.0674
  760CHOL   ROH 6846   4.871  10.092   6.584  0.1810 -0.1829 -0.0864
  760CHOL    R1 6847   4.988  10.295   6.743  0.0214 -0.0717 -0.1084
  760CHOL    R2 6848   5.248  10.279   6.837 -0.0596  0.0077  0.1378
  760CHOL    R3 6849   5.272  10.521   6.715  0.0296 -0.0679  0.0030
  760CHOL    R4 6850   5.478  10.522   6.923  0.1374 -0.0890 -0.1025
  760CHOL    R5 6851   5.323  10.673   6.893  0.2151 -0.0079 -0.0989
  760CHOL    C1 6852   5.634  10.891   6.860  0.3359 -0.2162 -0.3689
  760CHOL    C2 6853   5.704  11.153   7.167  0.0675  0.0035 -0.2163
  761CHOL   ROH 6854   1.558  13.174   4.310  0.1288 -0.0216  0.0516
  761CHOL    R1 6855   1.339  13.232   4.480 -0.0147 -0.0316 -0.1242
  761CHOL    R2 6856   1.370  13.279   4.751 -0.2535 -0.1859 -0.0616
  761CHOL    R3 6857   1.235  13.508   4.693 -0.1095 -0.1053 -0.0768
  761CHOL    R4 6858   1.120  13.416   4.947 -0.2098 -0.0387 -0.1084
  761CHOL    R5 6859   1.011  13.465   4.764 -0.1462  0.0310 -0.1210
  761CHOL    C1 6860   0.848  13.710   5.007 -0.0492  0.1228 -0.1500
  761CHOL    C2 6861   0.443  13.712   5.168  0.1568  0.0603 -0.0599
  762PNCE   AM1 6862   8.858  11.993   4.610  0.0952  0.2316  0.1166
  762PNCE   AM2 6863   8.619  12.123   4.539  0.0919  0.2771  0.1241
  762PNCE   T1A 6864   8.901  12.183   5.020  0.3154 -0.1454  0.1373
  762PNCE   C2A 6865   8.939  12.420   5.437  0.0149  0.1375  0.0034
  762PNCE   C3A 6866   8.997  12.873   5.435  0.2426  0.2829  0.2111
  762PNCE   C1B 6867   8.432  12.275   4.820  0.2261 -0.0393 -0.1160
  762PNCE   C2B 6868   8.123  11.992   4.945 -0.1579  0.3484  0.2087
  762PNCE   C3B 6869   7.720  11.790   5.180  0.0923 -0.1734  0.0469
  762PNCE   D4B 6870   7.451  11.401   5.249 -0.0569 -0.1816 -0.1237
  762PNCE   C5B 6871   7.639  11.103   5.060  0.0441  0.0792  0.0944
  762PNCE   C6B 6872   7.445  10.693   4.817  0.2874 -0.3256  0.0015
  763PNCE   AM1 6873  14.445   3.494   4.392  0.0488 -0.1813 -0.0771
  763PNCE   AM2 6874  14.455   3.825   4.286  0.0150 -0.3615 -0.0235
  763PNCE   T1A 6875  14.820   3.678   4.635  0.2352 -0.0668 -0.0286
  763PNCE   C2A 6876  14.806   3.915   4.960 -0.1743  0.0857  0.1685
  763PNCE   C3A 6877  14.462   3.962   5.212  0.1958 -0.3223  0.0103
  763PNCE   C1B 6878  14.667   4.115   4.440 -0.2098  0.1769  0.0246
  763PNCE   C2B 6879  14.838   4.384   4.810  0.0620 -0.1239  0.2911
  763PNCE   C3B 6880  15.199   4.520   5.036  0.1171  0.3273  0.0258
  763PNCE   D4B 6881  15.388   4.550   5.486  0.2781  0.1371  0.1653
  763PNCE   C5B 6882  15.518   4.193   5.664  0.0898  0.0166 -0.0511
  763PNCE   C6B 6883  15.508   3.913   5.934  0.2736 -0.0064 -0.2281
  764CHOL   ROH 6884   9.363  15.125   6.992 -0.2372 -0.0181  0.0723
  764CHOL    R1 6885   9.419  15.402   7.004 -0.0946 -0.0473  0.0940
  764CHOL    R2 6886   9.230  15.590   7.075 -0.0913  0.0770 -0.2026
  764CHOL    R3 6887   9.417  15.662   7.259 -0.2978  0.0018  0.0434
  764CHOL    R4 6888   9.286  15.913   7.185 -0.0694  0.0598 -0.1634
  764CHOL    R5 6889   9.500  15.872   7.180 -0.0820 -0.0501  0.1294
  764CHOL    C1 6890   9.495  16.169   7.420 -0.2507 -0.0207  0.0903
  764CHOL    C2 6891   9.536  16.514   7.396 -0.4794  0.0418  0.4741
  765PNCE   AM1 6892  10.400  14.256   5.368 -0.0987  0.0041  0.0936
  765PNCE   AM2 6893  10.717  14.166   5.265 -0.2453 -0.2184  0.2958
  765PNCE   T1A 6894  10.393  14.358   5.792 -0.3863 -0.2412  0.0545
  765PNCE   C2A 6895  10.504  14.649   6.054 -0.1734  0.0175  0.0183
  765PNCE   C3A 6896  10.745  14.612   6.334  0.0481  0.2687  0.0061
  765PNCE   C1B 6897  10.649  13.912   5.641 -0.0193 -0.3964 -0.0322
  765PNCE   C2B 6898  10.900  13.692   5.896 -0.1808  0.3642 -0.0160
  765PNCE   C3B 6899  11.081  13.474   6.236  0.2870 -0.1387  0.3048
  765PNCE   D4B 6900  10.974  13.435   6.647 -0.0960  0.2575 -0.0123
  765PNCE   C5B 6901  10.651  13.221   6.780  0.2450  0.2367  0.0397
  765PNCE   C6B 6902  10.422  12.969   6.605  0.0265  0.1150 -0.1185
  766PNCE   AM1 6903  10.172   5.469   4.478  0.2970 -0.0635  0.3343
  766PNCE   AM2 6904  10.032   5.660   4.743 -0.0877 -0.0683 -0.0160
  766PNCE   T1A 6905  10.504   5.513   4.815  0.1043 -0.0282  0.0518
  766PNCE   C2A 6906  10.728   5.688   5.249 -0.0097 -0.0431 -0.1613
  766PNCE   C3A 6907  10.855   5.791   5.648 -0.1008 -0.3130  0.0888
  766PNCE   C1B 6908  10.109   5.407   5.128  0.1201  0.1729 -0.1445
  766PNCE   C2B 6909  10.373   5.478   5.526 -0.1898 -0.3527  0.3352
  766PNCE   C3B 6910  10.378   5.725   5.909 -0.0937  0.2970  0.0053
  766PNCE   D4B 6911  10.272   5.510   6.313  0.1154  0.2559 -0.1954
  766PNCE   C5B 6912  10.311   5.678   6.809 -0.0660  0.0374  0.2071
  766PNCE   C6B 6913  10.295   5.803   7.260 -0.1676  0.0915  0.4017
  767CHOL   ROH 6914  13.889   5.346   5.293  0.2634 -0.1589 -0.1433
  767CHOL    R1 6915  13.919   5.322   5.574  0.3051 -0.1346 -0.1453
  767CHOL    R2 6916  14.105   5.153   5.690  0.4678  0.0283 -0.1592
  767CHOL    R3 6917  14.184   5.380   5.817  0.2736  0.1009 -0.1653
  767CHOL    R4 6918  14.345   5.168   5.938  0.2801  0.2093  0.0158
  767CHOL    R5 6919  14.221   5.312   6.043  0.1378  0.1852 -0.1176
  767CHOL    C1 6920  14.560   5.389   6.201 -0.0113  0.3828  0.1119
  767CHOL    C2 6921  14.875   5.450   6.360 -0.0253 -0.1724 -0.0185
  768XCA    COO 6922  14.677   8.193   4.986  0.0006  0.0452 -0.1568
  768XCA     C1 6923  14.868   8.230   5.332  0.3005  0.2692 -0.0665
  768XCA     C2 6924  14.922   8.213   5.808 -0.1240  0.2025 -0.0099
  768XCA     C3 6925  14.741   7.858   6.008 -0.0875 -0.0580  0.2201
  768XCA     C4 6926  14.444   7.770   6.316 -0.1853 -0.1546  0.3047
  768XCA     C5 6927  14.432   7.560   6.602 -0.0797 -0.1615  0.0019
  768XCA     C6 6928  14.294   7.116   6.590  0.6895 -0.0551 -0.0629
  769XCA    COO 6929   4.039   5.427   5.129  0.0042 -0.0816  0.3319
  769XCA     C1 6930   3.908   5.502   5.562 -0.0696  0.2065 -0.1240
  769XCA     C2 6931   4.086   5.571   5.889  0.1444 -0.3617  0.0745
  769XCA     C3 6932   4.211   5.569   6.419  0.0907  0.1890  0.2020
  769XCA     C4 6933   4.408   5.290   6.644 -0.1562 -0.1218  0.0322
  769XCA     C5 6934   4.299   4.939   6.907 -0.1143 -0.0357  0.1057
  769XCA     C6 6935   4.169   4.798   7.365 -0.0442 -0.0798 -0.2852
  770PNCE   AM1 6936  10.509   6.073   4.587 -0.0102  0.0140  0.2189
  770PNCE   AM2 6937  10.770   6.174   4.394  0.0180 -0.5355  0.0356
  770PNCE   T1A 6938  10.353   5.966   5.027 -0.0931 -0.2220  0.1481
  770PNCE   C2A 6939  10.423   6.101   5.534 -0.1962  0.2514 -0.1414
  770PNCE   C3A 6940  10.313   6.221   5.951  0.1823  0.0536  0.0801
  770PNCE   C1B 6941  10.929   6.049   4.838 -0.1242 -0.0993 -0.4194
  770PNCE   C2B 6942  11.195   5.860   5.169  0.0195 -0.5093  0.1981
  770PNCE   C3B 6943  11.347   5.891   5.580  0.1901  0.4547  0.1179
  770PNCE   D4B 6944  11.267   5.804   5.998  0.0800 -0.0272 -0.0784
  770PNCE   C5B 6945  10.926   5.711   6.144  0.2548 -0.2754 -0.0312
  770PNCE   C6B 6946  10.663   5.844   6.473  0.0700  0.1562  0.1576
  771PNCE   AM1 6947   7.124   6.925   4.868 -0.1462 -0.0593 -0.1684
  771PNCE   AM2 6948   7.314   6.873   5.047  0.0155  0.0145 -0.1577
  771PNCE   T1A 6949   6.802   6.891   5.216 -0.0787  0.0298  0.0867
  771PNCE   C2A 6950   6.721   6.728   5.472  0.0233  0.0519 -0.1046
  771PNCE   C3A 6951   6.679   6.421   5.809  0.1675 -0.1638 -0.0747
  771PNCE   C1B 6952   7.225   6.889   5.447 -0.1123  0.0899  0.0488
  771PNCE   C2B 6953   7.190   6.585   5.847  0.0121  0.2258  0.1028
  771PNCE   C3B 6954   7.111   6.381   6.150  0.3753  0.3250 -0.2251
  771PNCE   D4B 6955   6.846   6.128   6.250 -0.2471  0.2711 -0.1703
  771PNCE   C5B 6956   6.933   5.783   6.471 -0.2334  0.0425 -0.0351
  771PNCE   C6B 6957   7.299   5.500   6.531 -0.0124  0.1789  0.3065
  772CHOL   ROH 6958  10.968   5.343   7.617  0.1603  0.0444 -0.0678
  772CHOL    R1 6959  10.923   5.256   7.352  0.1702  0.0107 -0.0585
  772CHOL    R2 6960  10.710   5.344   7.200  0.0724 -0.1449 -0.0162
  772CHOL    R3 6961  10.905   5.409   7.022 -0.0093 -0.0013 -0.0551
  772CHOL    R4 6962  10.672   5.343   6.857  0.0191 -0.2105 -0.0102
  772CHOL    R5 6963  10.872   5.257   6.840  0.0875 -0.0471 -0.0341
  772CHOL    C1 6964  10.833   5.403   6.489 -0.0887 -0.1140 -0.0433
  772CHOL    C2 6965  10.659   5.242   6.098 -0.2533 -0.0926  0.3561
  773PNCE   AM1 6966   9.156   3.263   4.920  0.1871  0.1064 -0.1058
  773PNCE   AM2 6967   9.334   3.220   5.199  0.1933  0.0389 -0.0268
  773PNCE   T1A 6968   8.951   2.809   4.891  0.0229  0.1620  0.0940
  773PNCE   C2A 6969   8.861   2.429   4.948 -0.3804 -0.1647 -0.3095
  773PNCE   C3A 6970   8.657   1.996   5.025  0.5973 -0.1110 -0.0988
  773PNCE   C1B 6971   8.984   2.979   5.438 -0.0884  0.3837 -0.0929
  773PNCE   C2B 6972   8.780   3.032   5.855  0.2117 -0.3417 -0.1355
  773PNCE   C3B 6973   8.969   2.942   6.335  0.0839 -0.1327  0.0413
  773PNCE   D4B 6974   9.056   3.094   6.719 -0.2503 -0.1006  0.0457
  773PNCE   C5B 6975   9.051   2.861   6.975  0.2180  0.0507  0.1097
  773PNCE   C6B 6976   8.871   2.501   7.074  0.1372  0.0955  0.0113
  774CHOL   ROH 6977   5.823   5.410   8.254  0.0167 -0.1451 -0.1046
  774CHOL    R1 6978   5.840   5.631   8.079 -0.1363 -0.0301  0.0188
  774CHOL    R2 6979   6.019   5.641   7.868  0.0119  0.3031  0.1401
  774CHOL    R3 6980   5.794   5.690   7.723  0.0436  0.0837  0.0156
  774CHOL    R4 6981   6.014   5.786   7.554  0.0391  0.2472  0.1160
  774CHOL    R5 6982   5.838   5.899   7.615 -0.0883  0.1008  0.0049
  774CHOL    C1 6983   5.800   5.917   7.236  0.0847  0.0087 -0.0149
  774CHOL    C2 6984   5.432   6.028   7.113 -0.3876 -0.0689 -0.2425
  775CHOL   ROH 6985  15.324   9.748   5.229 -0.0635  0.1701 -0.1548
  775CHOL    R1 6986  15.389   9.795   5.501  0.0415  0.2294 -0.1875
  775CHOL    R2 6987  15.411  10.050   5.607 -0.1062  0.2609 -0.2026
  775CHOL    R3 6988  15.230   9.956   5.786  0.0558  0.1118 -0.1167
  775CHOL    R4 6989  15.324  10.209   5.900 -0.0461  0.1257 -0.1117
  775CHOL    R5 6990  15.322  10.015   5.999  0.1299  0.1121 -0.1581
  775CHOL    C1 6991  15.102  10.214   6.240  0.1411 -0.0931  0.0219
  775CHOL    C2 6992  14.749  10.258   6.379 -0.2865  0.2927 -0.0897
  776CHOL   ROH 6993   0.371  12.836   7.894 -0.0082 -0.1282 -0.0805
  776CHOL    R1 6994   0.489  12.933   7.656 -0.0124 -0.0746 -0.0598
  776CHOL    R2 6995   0.719  12.823   7.548 -0.0059 -0.0349 -0.0744
  776CHOL    R3 6996   0.565  12.800   7.325  0.0046 -0.0042 -0.0860
  776CHOL    R4 6997   0.835  12.736   7.235 -0.0256 -0.2795 -0.0165
  776CHOL    R5 6998   0.702  12.885   7.149  0.1102 -0.1989 -0.1053
  776CHOL    C1 6999   0.758  12.664   6.843 -0.0273 -0.3933  0.0063
  776CHOL    C2 7000   0.994  12.456   6.502 -0.0336 -0.1523  0.0339
  777CHOL   ROH 7001   3.950   4.541   5.622 -0.1474  0.4300  0.0352
  777CHOL    R1 7002   4.135   4.660   5.800 -0.1114  0.4551 -0.0176
  777CHOL    R2 7003   4.402   4.591   5.805 -0.1695  0.2139  0.1638
  777CHOL    R3 7004   4.438   4.859   5.772  0.0823  0.1500 -0.1151
  777CHOL    R4 7005   4.684   4.765   5.904 -0.0710  0.0831  0.1145
  777CHOL    R5 7006   4.554   4.927   5.971  0.0362  0.2721 -0.1333
  777CHOL    C1 7007   4.882   5.117   5.931  0.2227 -0.0532 -0.1760
  777CHOL    C2 7008   5.172   5.312   6.241  0.1639 -0.0564  0.0632
  778PNCE   AM1 7009   2.095   5.348   8.583  0.0239 -0.1890  0.0677
  778PNCE   AM2 7010   2.367   5.338   8.711  0.0999 -0.1412 -0.0897
  778PNCE   T1A 7011   2.045   5.275   8.124  0.2531  0.1662 -0.3976
  778PNCE   C2A 7012   2.197   5.194   7.717  0.0260  0.1122 -0.0347
  778PNCE   C3A 7013   2.384   5.483   7.424  0.0632 -0.0247  0.1181
  778PNCE   C1B 7014   2.609   5.336   8.345  0.1479 -0.0832  0.0096
  778PNCE   C2B 7015   2.579   5.490   7.898 -0.1249 -0.3211 -0.1401
  778PNCE   C3B 7016   2.730   5.811   7.619  0.1212 -0.1162  0.0334
  778PNCE   D4B 7017   2.886   6.160   7.305  0.0244 -0.1554 -0.3657
  778PNCE   C5B 7018   2.622   6.525   7.300 -0.2442  0.1348 -0.0326
  778PNCE   C6B 7019   2.258   6.605   7.600 -0.0812  0.3062  0.3103
  779XCA    COO 7020   5.884   0.391   7.993 -0.1851  0.1738  0.0296
  779XCA     C1 7021   6.143   0.358   7.595  0.0832  0.0692 -0.3593
  779XCA     C2 7022   6.261   0.235   7.224 -0.0951  0.2584  0.2184
  779XCA     C3 7023   6.606   0.395   7.011  0.2234 -0.1244 -0.1480
  779XCA     C4 7024   6.960   0.243   6.853 -0.2917 -0.1696  0.1866
  779XCA     C5 7025   7.092   0.008   6.572  0.1282  0.3219 -0.0403
  779XCA     C6 7026   7.334  -0.166   6.207  0.0329 -0.2619 -0.3018
  780PNCE   AM1 7027   4.232   0.625   8.285 -0.0728 -0.1083 -0.1818
  780PNCE   AM2 7028   4.494   0.511   8.237 -0.1150 -0.2771  0.0598
  780PNCE   T1A 7029   4.287   0.647   7.808 -0.4511  0.0108  0.1688
  780PNCE   C2A 7030   4.334   0.729   7.373 -0.0382  0.2339  0.2035
  780PNCE   C3A 7031   4.565   0.676   6.997 -0.2105 -0.0159  0.2010
  780PNCE   C1B 7032   4.139   0.222   7.960  0.0777  0.0238  0.3208
  780PNCE   C2B 7033   4.031  -0.086   7.682  0.0164 -0.0738  0.2127
  780PNCE   C3B 7034   4.239  -0.351   7.338 -0.1797 -0.1591 -0.2415
  780PNCE   D4B 7035   4.319  -0.657   7.020  0.1136 -0.1292  0.1941
  780PNCE   C5B 7036   4.517  -0.413   6.802  0.2009 -0.4592  0.0376
  780PNCE   C6B 7037   4.750  -0.120   6.556 -0.0298  0.2277 -0.5655
  781PNCE   AM1 7038  13.063   8.772   5.060 -0.1323  0.0319  0.1911
  781PNCE   AM2 7039  12.721   8.783   5.111 -0.0654 -0.0281  0.2133
  781PNCE   T1A 7040  12.912   8.910   5.517  0.2142  0.0047 -0.2280
  781PNCE   C2A 7041  12.606   8.970   5.878 -0.1434  0.1162  0.0211
  781PNCE   C3A 7042  12.334   9.132   6.223  0.2168  0.1999 -0.1426
  781PNCE   C1B 7043  12.825   8.435   5.430  0.1625 -0.1596 -0.1392
  781PNCE   C2B 7044  12.660   8.022   5.563  0.2602 -0.2994  0.0986
  781PNCE   C3B 7045  12.304   7.750   5.661 -0.1389 -0.1694 -0.2593
  781PNCE   D4B 7046  12.129   7.368   5.786  0.0479  0.0624 -0.0403
  781PNCE   C5B 7047  11.879   7.212   6.087  0.1751 -0.3205  0.0945
  781PNCE   C6B 7048  11.484   7.178   6.162 -0.0883  0.2069  0.0958
  782PNCE   AM1 7049   3.387   5.494   4.935  0.0981 -0.1315 -0.0266
  782PNCE   AM2 7050   3.517   5.243   4.751  0.1284 -0.2844 -0.1056
  782PNCE   T1A 7051   3.342   5.516   5.366 -0.1138  0.1108  0.3087
  782PNCE   C2A 7052   3.415   5.557   5.755  0.1359 -0.0883 -0.1037
  782PNCE   C3A 7053   3.141   5.586   6.176  0.2235  0.0368  0.3678
  782PNCE   C1B 7054   3.623   5.024   5.253 -0.1006 -0.2168 -0.2985
  782PNCE   C2B 7055   3.551   5.093   5.722  0.1281 -0.1744  0.1955
  782PNCE   C3B 7056   3.513   5.181   6.193 -0.2146 -0.1069 -0.2201
  782PNCE   D4B 7057   3.320   5.228   6.503 -0.0581  0.0321  0.3231
  782PNCE   C5B 7058   2.859   5.213   6.332  0.0695 -0.2391  0.1362
  782PNCE   C6B 7059   2.586   5.456   6.135  0.1075 -0.2894  0.0325
  783PNCE   AM1 7060   7.404   2.647   8.328 -0.0179 -0.0923 -0.0260
  783PNCE   AM2 7061   7.695   2.538   8.406  0.0850  0.4788  0.1897
  783PNCE   T1A 7062   7.465   2.469   7.892  0.0054  0.1884 -0.1283
  783PNCE   C2A 7063   7.768   2.327   7.736 -0.1091  0.0587  0.0195
  783PNCE   C3A 7064   8.010   2.401   7.413 -0.3749  0.3127 -0.0836
  783PNCE   C1B 7065   7.889   2.774   8.007 -0.1848 -0.1070  0.0266
  783PNCE   C2B 7066   8.091   2.912   7.629  0.1012 -0.0478  0.0767
  783PNCE   C3B 7067   7.965   2.850   7.081 -0.0440 -0.4841 -0.1783
  783PNCE   D4B 7068   7.661   2.476   6.856  0.0439 -0.2437 -0.0172
  783PNCE   C5B 7069   7.885   2.156   6.754 -0.0906  0.0252  0.1013
  783PNCE   C6B 7070   8.075   1.935   6.994 -0.0463 -0.0959  0.1348
  784CHOL   ROH 7071   2.486   1.705   6.092 -0.0080  0.1270 -0.1060
  784CHOL    R1 7072   2.602   1.685   6.349 -0.0016  0.4429 -0.0825
  784CHOL    R2 7073   2.785   1.489   6.415 -0.3681  0.2218  0.2849
  784CHOL    R3 7074   2.938   1.701   6.489  0.0638  0.0970 -0.1816
  784CHOL    R4 7075   3.058   1.472   6.627 -0.4681  0.1219  0.4091
  784CHOL    R5 7076   2.992   1.659   6.719 -0.1127  0.5104 -0.0446
  784CHOL    C1 7077   3.360   1.662   6.820 -0.1208 -0.0534  0.0434
  784CHOL    C2 7078   3.645   1.594   7.062  0.3027  0.2164  0.3357
  785PNCE   AM1 7079   7.153   9.990   4.428 -0.3058  0.1020 -0.1842
  785PNCE   AM2 7080   6.906   9.795   4.464 -0.2333 -0.1340  0.0159
  785PNCE   T1A 7081   7.546   9.883   4.707  0.0096 -0.0322 -0.0566
  785PNCE   C2A 7082   7.742   9.815   5.001  0.0436 -0.0832  0.4779
  785PNCE   C3A 7083   7.481   9.644   5.211  0.0031  0.0852 -0.3248
  785PNCE   C1B 7084   6.708  10.028   4.780  0.0884  0.0163 -0.0978
  785PNCE   C2B 7085   6.773  10.161   5.172  0.0787 -0.0365 -0.0161
  785PNCE   C3B 7086   6.981  10.530   5.459  0.0786  0.0407 -0.2707
  785PNCE   D4B 7087   6.856  10.951   5.635  0.2688  0.0195 -0.2849
  785PNCE   C5B 7088   7.293  11.249   5.732  0.0014 -0.0440 -0.0198
  785PNCE   C6B 7089   7.671  11.268   5.984 -0.3401 -0.0344  0.1717
  786XCA    COO 7090  13.278   9.263   5.171  0.0446 -0.1649  0.1566
  786XCA     C1 7091  13.058   9.404   5.532 -0.1726 -0.1307 -0.3528
  786XCA     C2 7092  13.012   9.736   5.563  0.2761  0.1343 -0.3052
  786XCA     C3 7093  13.023  10.027   5.856  0.0929 -0.3572 -0.0407
  786XCA     C4 7094  13.096   9.936   6.371 -0.0581 -0.2922 -0.1016
  786XCA     C5 7095  12.990   9.875   6.776  0.0206  0.2467 -0.0725
  786XCA     C6 7096  13.220  10.150   7.019  0.1279  0.1556  0.0857
  787CHOL   ROH 7097   7.742   6.421   8.543 -0.2390  0.0047  0.0154
  787CHOL    R1 7098   7.777   6.517   8.279 -0.2164  0.0697  0.0430
  787CHOL    R2 7099   7.844   6.352   8.068  0.0332  0.1593  0.0544
  787CHOL    R3 7100   7.623   6.461   7.955 -0.0223 -0.0385 -0.0331
  787CHOL    R4 7101   7.788   6.376   7.728  0.1318  0.0724  0.0307
  787CHOL    R5 7102   7.705   6.574   7.760 -0.0480  0.0102 -0.0183
  787CHOL    C1 7103   7.547   6.491   7.423  0.1372 -0.1640 -0.0651
  787CHOL    C2 7104   7.435   6.355   7.059 -0.1859  0.2988 -0.4031
  788CHOL   ROH 7105   2.095  13.098   6.849 -0.0017  0.0762  0.0915
  788CHOL    R1 7106   1.991  13.285   6.664  0.0313 -0.0136 -0.0185
  788CHOL    R2 7107   2.140  13.386   6.454  0.0635 -0.1263 -0.0456
  788CHOL    R3 7108   1.930  13.298   6.306  0.0820 -0.1908 -0.0353
  788CHOL    R4 7109   2.011  13.550   6.179 -0.1293 -0.0530  0.0857
  788CHOL    R5 7110   1.810  13.497   6.248 -0.0765 -0.2364  0.1157
  788CHOL    C1 7111   1.738  13.563   5.879 -0.2242 -0.0710  0.1717
  788CHOL    C2 7112   1.849  13.584   5.406 -0.1570  0.3612 -0.2010
  789XCA    COO 7113   0.414   5.435   4.284 -0.4161 -0.2246  0.0529
  789XCA     C1 7114   0.547   5.320   4.699 -0.1425 -0.0601  0.1318
  789XCA     C2 7115   0.533   5.494   5.060  0.0695 -0.1426  0.0174
  789XCA     C3 7116   0.367   5.436   5.492  0.1540  0.1666  0.1814
  789XCA     C4 7117   0.130   5.045   5.741  0.1471 -0.2624 -0.2500
  789XCA     C5 7118  -0.165   5.041   6.124  0.0670  0.1073  0.1644
  789XCA     C6 7119  -0.205   4.618   6.471  0.0584  0.1069  0.3168
  790XCA    COO 7120   2.811  11.110   8.091  0.1712  0.1086  0.0345
  790XCA     C1 7121   2.979  10.842   7.798 -0.0864  0.0705  0.0426
  790XCA     C2 7122   3.226  10.562   7.541  0.0578 -0.0411  0.0187
  790XCA     C3 7123   3.626  10.447   7.683 -0.0429  0.1455 -0.0581
  790XCA     C4 7124   4.081  10.631   7.588  0.1216  0.3468  0.1628
  790XCA     C5 7125   4.456  10.388   7.528  0.1729 -0.0927 -0.0511
  790XCA     C6 7126   4.652  10.014   7.201 -0.0825 -0.0567  0.0696
  791CHOL   ROH 7127  15.830  13.570   7.509  0.3056 -0.0770 -0.3029
  791CHOL    R1 7128  15.659  13.705   7.329 -0.0263  0.0204  0.0685
  791CHOL    R2 7129  15.689  13.690   7.055 -0.1696  0.6086 -0.0037
  791CHOL    R3 7130  15.429  13.612   7.063 -0.0448  0.1748  0.0331
  791CHOL    R4 7131  15.464  13.727   6.796 -0.2650  0.1368  0.0035
  791CHOL    R5 7132  15.312  13.783   6.942 -0.3466 -0.0679 -0.0159
  791CHOL    C1 7133  15.088  13.676   6.652 -0.2035 -0.5452  0.0421
  791CHOL    C2 7134  14.829  13.463   6.470  0.0979  0.2409 -0.1241
  792PNCE   AM1 7135  15.803  15.041   4.093 -0.0597  0.1413  0.2870
  792PNCE   AM2 7136  16.071  14.798   3.990 -0.1523 -0.1463  0.1765
  792PNCE   T1A 7137  15.581  14.735   4.340  0.0147  0.2067  0.1502
  792PNCE   C2A 7138  15.468  14.354   4.585 -0.1745  0.0164  0.2366
  792PNCE   C3A 7139  15.168  14.119   4.599 -0.1271 -0.2719  0.2004
  792PNCE   C1B 7140  16.090  14.787   4.427 -0.3102 -0.2061 -0.1967
  792PNCE   C2B 7141  15.959  14.740   4.763  0.1954  0.1266  0.0283
  792PNCE   C3B 7142  16.031  14.665   5.090 -0.1122  0.2075 -0.2958
  792PNCE   D4B 7143  16.168  14.681   5.532 -0.0575  0.1668 -0.1667
  792PNCE   C5B 7144  16.312  14.263   5.692 -0.1504  0.2728  0.0678
  792PNCE   C6B 7145  16.712  13.977   5.642 -0.1970 -0.0830  0.0712
  793XCA    COO 7146   2.550   2.629   4.385 -0.0482 -0.2008  0.1795
  793XCA     C1 7147   2.746   2.621   4.794 -0.1158 -0.1407 -0.1815
  793XCA     C2 7148   2.979   2.907   5.157  0.0625  0.2526  0.1915
  793XCA     C3 7149   3.366   2.814   5.376  0.2091 -0.0614  0.2272
  793XCA     C4 7150   3.550   2.911   5.724  0.1156 -0.1937 -0.0215
  793XCA     C5 7151   3.427   2.872   6.178  0.0329 -0.1395 -0.0223
  793XCA     C6 7152   3.312   3.056   6.488 -0.1639  0.0400  0.0783
  794CHOL   ROH 7153   5.333   1.664   4.769 -0.0492 -0.1668 -0.1556
  794CHOL    R1 7154   5.123   1.484   4.826 -0.1244 -0.0621 -0.0996
  794CHOL    R2 7155   5.160   1.255   4.977 -0.1967 -0.0818 -0.1147
  794CHOL    R3 7156   4.956   1.358   5.125 -0.1056  0.0166 -0.0550
  794CHOL    R4 7157   5.028   1.109   5.262 -0.2695 -0.0903 -0.1521
  794CHOL    R5 7158   4.829   1.166   5.193 -0.2384  0.0812 -0.1105
  794CHOL    C1 7159   4.760   1.121   5.565 -0.2263 -0.0028 -0.1179
  794CHOL    C2 7160   4.687   0.728   5.664 -0.0170  0.0524  0.2568
  795PNCE   AM1 7161   1.960  15.890   3.889 -0.2937  0.0491  0.1974
  795PNCE   AM2 7162   1.967  16.179   3.882  0.0699 -0.0324  0.1549
  795PNCE   T1A 7163   1.928  15.816   4.319  0.0007  0.0615  0.0883
  795PNCE   C2A 7164   2.037  15.658   4.700 -0.0003 -0.2671 -0.3221
  795PNCE   C3A 7165   2.102  15.907   5.112  0.0316  0.0496  0.1056
  795PNCE   C1B 7166   1.990  16.363   4.323 -0.0343  0.1512  0.0626
  795PNCE   C2B 7167   1.894  16.249   4.754  0.4616 -0.1946 -0.0247
  795PNCE   C3B 7168   1.932  16.397   5.151  0.0765 -0.1169  0.0574
  795PNCE   D4B 7169   1.772  16.527   5.476  0.1668 -0.0981 -0.4224
  795PNCE   C5B 7170   1.643  16.205   5.762 -0.2673 -0.5735  0.3117
  795PNCE   C6B 7171   1.743  15.773   5.779  0.1405  0.0376 -0.0451
  796XCA    COO 7172   5.383   7.174   8.406  0.0732 -0.1211 -0.2944
  796XCA     C1 7173   5.395   6.737   8.411 -0.1513 -0.0485 -0.0706
  796XCA     C2 7174   5.762   6.349   8.395  0.0075 -0.0794 -0.0459
  796XCA     C3 7175   6.031   6.140   8.177  0.2733  0.2605  0.1044
  796XCA     C4 7176   6.493   6.325   8.046 -0.2657 -0.1305 -0.0036
  796XCA     C5 7177   6.635   6.436   7.638 -0.1868 -0.1065 -0.1438
  796XCA     C6 7178   6.562   6.543   7.196 -0.0125  0.0881  0.1682
  797XCA    COO 7179  11.688  14.689   6.218  0.0589 -0.2066 -0.2267
  797XCA     C1 7180  11.817  14.532   6.562 -0.1070  0.1047 -0.0396
  797XCA     C2 7181  11.703  14.367   6.977  0.1767 -0.2803 -0.0778
  797XCA     C3 7182  11.592  14.346   7.320  0.0623  0.0990  0.0671
  797XCA     C4 7183  11.679  13.921   7.492  0.0216 -0.1347 -0.0551
  797XCA     C5 7184  11.368  13.598   7.493  0.1256  0.0961 -0.1489
  797XCA     C6 7185  11.193  13.434   7.724  0.0725  0.2634 -0.1132
  798PNCE   AM1 7186  13.444   3.554   4.432 -0.5777 -0.0046 -0.1749
  798PNCE   AM2 7187  13.395   3.613   4.783 -0.1222 -0.1915  0.2057
  798PNCE   T1A 7188  13.093   3.226   4.598  0.0439 -0.2107  0.1823
  798PNCE   C2A 7189  13.082   2.844   4.876 -0.0389 -0.0507  0.0248
  798PNCE   C3A 7190  12.798   2.764   5.278 -0.2595 -0.3166  0.0489
  798PNCE   C1B 7191  13.457   3.496   5.232  0.0801 -0.3915 -0.0858
  798PNCE   C2B 7192  13.642   3.568   5.653 -0.0376 -0.1310  0.1258
  798PNCE   C3B 7193  13.728   3.376   6.017  0.0921  0.1458 -0.2574
  798PNCE   D4B 7194  13.681   3.548   6.437  0.1064 -0.2904 -0.2884
  798PNCE   C5B 7195  13.762   3.445   6.814  0.2049  0.0008 -0.2730
  798PNCE   C6B 7196  13.367   3.315   6.898  0.0970 -0.0909  0.4214
  799CHOL   ROH 7197   7.671  13.743   5.160  0.0802 -0.3706  0.1369
  799CHOL    R1 7198   7.730  13.700   5.434 -0.1046 -0.1592  0.2141
  799CHOL    R2 7199   7.841  13.894   5.595 -0.0506 -0.0871  0.0933
  799CHOL    R3 7200   7.626  13.841   5.753 -0.1813  0.2195  0.0269
  799CHOL    R4 7201   7.836  13.929   5.939 -0.1152 -0.0740  0.0911
  799CHOL    R5 7202   7.721  13.743   5.950 -0.3831  0.0871  0.0597
  799CHOL    C1 7203   7.631  13.898   6.287 -0.2755  0.2214  0.0274
  799CHOL    C2 7204   7.519  13.904   6.631  0.0662 -0.0953 -0.0142
  800PNCE   AM1 7205   8.624   3.844   4.765 -0.0604 -0.2388  0.1127
  800PNCE   AM2 7206   8.933   3.669   4.832  0.0147 -0.2788 -0.2037
  800PNCE   T1A 7207   8.791   4.095   5.129  0.3284 -0.0377 -0.0138
  800PNCE   C2A 7208   8.709   4.150   5.619  0.2969 -0.1086 -0.0698
  800PNCE   C3A 7209   8.731   4.048   6.011  0.1072  0.1289  0.0942
  800PNCE   C1B 7210   9.042   3.649   5.348 -0.0413  0.0825  0.0549
  800PNCE   C2B 7211   9.192   3.357   5.738  0.1390  0.2812  0.2753
  800PNCE   C3B 7212   9.251   3.006   5.855 -0.1043  0.1132 -0.2467
  800PNCE   D4B 7213   9.345   2.633   5.918  0.0370 -0.1941 -0.1493
  800PNCE   C5B 7214   8.938   2.553   6.064 -0.0221 -0.2399  0.0653
  800PNCE   C6B 7215   8.539   2.609   6.181  0.2019 -0.0382 -0.1155
  801CHOL   ROH 7216  10.240  11.626   5.065  0.1509 -0.0421  0.2004
  801CHOL    R1 7217  10.114  11.646   5.317  0.1055  0.3534  0.1519
  801CHOL    R2 7218  10.146  11.457   5.516 -0.4856  0.2887  0.2036
  801CHOL    R3 7219  10.221  11.672   5.665  0.0557  0.1291  0.1849
  801CHOL    R4 7220  10.142  11.469   5.861 -0.5282  0.3523  0.2008
  801CHOL    R5 7221  10.066  11.673   5.848  0.0092  0.5632  0.1530
  801CHOL    C1 7222  10.208  11.677   6.202 -0.0449  0.2396  0.1816
  801CHOL    C2 7223  10.104  11.459   6.515  0.0642 -0.0685  0.0065
  802CHOL   ROH 7224  11.317  13.126   8.521 -0.0825 -0.0102  0.0341
  802CHOL    R1 7225  11.507  13.290   8.389 -0.0882  0.0515  0.0998
  802CHOL    R2 7226  11.471  13.379   8.129  0.0185 -0.0389  0.0481
  802CHOL    R3 7227  11.511  13.623   8.242 -0.1793  0.0117  0.0095
  802CHOL    R4 7228  11.560  13.664   7.956  0.1082 -0.0639  0.0536
  802CHOL    R5 7229  11.694  13.716   8.120 -0.0824  0.0332  0.1758
  802CHOL    C1 7230  11.649  14.060   7.961 -0.0252 -0.0310  0.0205
  802CHOL    C2 7231  11.677  14.347   7.797  0.0034  0.1269 -0.3056
  803PNCE   AM1 7232   0.355   8.822   4.740 -0.1261  0.0330  0.0029
  803PNCE   AM2 7233   0.436   9.133   4.805  0.3801 -0.0269  0.0515
  803PNCE   T1A 7234   0.439   8.656   5.124 -0.1021  0.1212  0.1131
  803PNCE   C2A 7235   0.457   8.711   5.576  0.1557 -0.0282  0.1377
  803PNCE   C3A 7236   0.500   8.711   5.910 -0.2256 -0.0149  0.3044
  803PNCE   C1B 7237   0.738   9.243   5.182 -0.1911  0.2716 -0.0349
  803PNCE   C2B 7238   0.665   9.495   5.636  0.0767 -0.0556  0.1473
  803PNCE   C3B 7239   0.726   9.771   5.960 -0.2015 -0.2062 -0.0983
  803PNCE   D4B 7240   0.708  10.162   5.998  0.1628  0.0303 -0.0168
  803PNCE   C5B 7241   0.391  10.359   5.656 -0.1276 -0.4051 -0.0944
  803PNCE   C6B 7242   0.168  10.800   5.631  0.0589  0.1632 -0.3591
  804PNCE   AM1 7243  13.216   6.919   5.052 -0.2519  0.0066 -0.1812
  804PNCE   AM2 7244  13.509   6.973   5.138 -0.0417 -0.1950  0.1588
  804PNCE   T1A 7245  12.970   6.471   5.102  0.1381  0.0752 -0.2125
  804PNCE   C2A 7246  12.669   6.130   5.038 -0.0696 -0.6534  0.3832
  804PNCE   C3A 7247  12.209   6.278   4.927 -0.0759  0.0283 -0.0809
  804PNCE   C1B 7248  13.615   6.907   5.588  0.3700  0.3194  0.0664
  804PNCE   C2B 7249  13.607   6.807   5.937 -0.0301  0.3511  0.0388
  804PNCE   C3B 7250  13.679   6.421   6.165 -0.2140  0.0837 -0.2710
  804PNCE   D4B 7251  13.409   6.257   6.299 -0.0428  0.1584 -0.2361
  804PNCE   C5B 7252  12.929   6.261   6.280  0.0630  0.2536  0.0926
  804PNCE   C6B 7253  12.606   5.857   6.242 -0.4811 -0.1837 -0.4111
  805XCA    COO 7254   4.601  12.589   7.800 -0.1286 -0.0953  0.1742
  805XCA     C1 7255   4.966  12.692   7.616 -0.0629 -0.1344  0.0853
  805XCA     C2 7256   5.280  12.776   7.352 -0.1505  0.0716 -0.3561
  805XCA     C3 7257   5.310  13.015   7.053 -0.2176 -0.1370  0.2287
  805XCA     C4 7258   5.317  13.016   6.658  0.1790  0.2624  0.2962
  805XCA     C5 7259   5.118  12.916   6.287  0.2399  0.3040 -0.2753
  805XCA     C6 7260   4.720  12.722   6.200  0.1725 -0.2781 -0.2640
  806PNCE   AM1 7261   1.490  15.642   4.089 -0.0632  0.1023 -0.3551
  806PNCE   AM2 7262   1.758  15.349   4.028 -0.0259 -0.2859  0.1322
  806PNCE   T1A 7263   1.490  15.788   4.512  0.1002  0.1364 -0.0401
  806PNCE   C2A 7264   1.610  15.871   4.998  0.3748 -0.0525  0.1893
  806PNCE   C3A 7265   1.618  15.971   5.335  0.2164  0.1724 -0.4233
  806PNCE   C1B 7266   1.803  15.208   4.490 -0.1469 -0.0926  0.1388
  806PNCE   C2B 7267   1.933  15.257   4.973 -0.0093 -0.0925  0.2035
  806PNCE   C3B 7268   1.892  15.523   5.345  0.0713  0.1007  0.3052
  806PNCE   D4B 7269   2.188  15.749   5.563  0.1633  0.1459  0.1890
  806PNCE   C5B 7270   2.226  16.210   5.495 -0.2216 -0.0608 -0.1031
  806PNCE   C6B 7271   2.355  16.516   5.666 -0.2353 -0.1963 -0.0853
  807PNCE   AM1 7272   4.544  12.445   4.619 -0.2106  0.1436 -0.0654
  807PNCE   AM2 7273   4.383  12.733   4.443 -0.4252 -0.0425  0.2600
  807PNCE   T1A 7274   4.896  12.510   4.823 -0.3169  0.1872 -0.2734
  807PNCE   C2A 7275   5.293  12.695   4.895  0.1641  0.0512 -0.0597
  807PNCE   C3A 7276   5.746  12.737   4.919 -0.1147 -0.1953 -0.1934
  807PNCE   C1B 7277   4.265  12.816   4.846 -0.0430 -0.2495  0.5712
  807PNCE   C2B 7278   4.279  12.942   5.263 -0.0298  0.2911  0.1875
  807PNCE   C3B 7279   4.269  13.078   5.669 -0.1627  0.0747  0.1633
  807PNCE   D4B 7280   4.168  13.014   6.095  0.0415 -0.1454  0.1307
  807PNCE   C5B 7281   4.107  13.243   6.470  0.0454  0.1200 -0.0657
  807PNCE   C6B 7282   4.250  13.203   6.906  0.0792 -0.0031  0.0931
  808PNCE   AM1 7283   1.005  10.173   8.308 -0.0450 -0.3090 -0.4966
  808PNCE   AM2 7284   0.999   9.925   8.488  0.1553 -0.1591  0.0025
  808PNCE   T1A 7285   0.995  10.121   7.895  0.0823  0.1075  0.0333
  808PNCE   C2A 7286   0.909   9.993   7.539  0.0174 -0.4870  0.0233
  808PNCE   C3A 7287   0.541   9.763   7.445 -0.0416  0.0213  0.2337
  808PNCE   C1B 7288   0.803   9.686   8.110 -0.3007  0.1812 -0.0600
  808PNCE   C2B 7289   0.852   9.460   7.723 -0.0692  0.1941  0.2035
  808PNCE   C3B 7290   0.762   9.355   7.248  0.0425  0.0662  0.1619
  808PNCE   D4B 7291   0.601   9.164   6.901  0.0761 -0.0907 -0.2371
  808PNCE   C5B 7292   0.238   9.397   6.771  0.1511  0.1100  0.1003
  808PNCE   C6B 7293  -0.012   9.825   6.704 -0.3122  0.1633 -0.1766
  809CHOL   ROH 7294   1.187   5.582   8.563  0.1471  0.2166  0.0349
  809CHOL    R1 7295   1.124   5.481   8.306  0.2173  0.0721  0.0728
  809CHOL    R2 7296   0.881   5.526   8.183  0.1566 -0.1984  0.0781
  809CHOL    R3 7297   1.037   5.620   7.981  0.0529 -0.1134  0.0374
  809CHOL    R4 7298   0.778   5.565   7.856  0.0029 -0.0678  0.1406
  809CHOL    R5 7299   0.972   5.490   7.791 -0.0313 -0.0341  0.0161
  809CHOL    C1 7300   0.864   5.675   7.475 -0.1840  0.0880  0.1388
  809CHOL    C2 7301   0.742   5.499   7.046  0.1415 -0.0295 -0.1886
  810PNCE   AM1 7302   2.427   5.095   4.885 -0.4121 -0.1359  0.2353
  810PNCE   AM2 7303   2.657   4.884   4.749 -0.2741  0.3169  0.1081
  810PNCE   T1A 7304   2.278   5.025   5.268  0.0668 -0.1221 -0.1801
  810PNCE   C2A 7305   2.143   4.696   5.704 -0.1654 -0.0506 -0.1495
  810PNCE   C3A 7306   2.365   4.596   6.046  0.1497 -0.0916  0.0892
  810PNCE   C1B 7307   2.683   4.737   5.177  0.2804  0.1146 -0.0968
  810PNCE   C2B 7308   2.651   4.829   5.616  0.0377 -0.4786 -0.0121
  810PNCE   C3B 7309   2.752   4.845   6.005 -0.0988 -0.0200 -0.1576
  810PNCE   D4B 7310   2.828   4.719   6.414 -0.0909 -0.0116 -0.2010
  810PNCE   C5B 7311   3.170   4.344   6.563 -0.0733  0.4016  0.2615
  810PNCE   C6B 7312   3.625   4.395   6.636  0.1600 -0.2150 -0.0714
  811PNCE   AM1 7313   3.408  13.796   4.501  0.1878  0.1779 -0.3318
  811PNCE   AM2 7314   3.184  13.909   4.206 -0.3421  0.2245 -0.1067
  811PNCE   T1A 7315   3.316  14.139   4.791 -0.1871 -0.2248  0.0656
  811PNCE   C2A 7316   3.177  14.317   5.136  0.2565 -0.0696 -0.1061
  811PNCE   C3A 7317   3.049  14.508   5.556 -0.0465  0.1189  0.2179
  811PNCE   C1B 7318   2.937  13.939   4.563  0.3335 -0.0410  0.1069
  811PNCE   C2B 7319   2.790  13.988   4.979  0.0874 -0.4265  0.0223
  811PNCE   C3B 7320   2.758  14.131   5.340 -0.0783 -0.0543 -0.0118
  811PNCE   D4B 7321   2.541  14.459   5.585  0.0672  0.0833  0.1534
  811PNCE   C5B 7322   2.718  14.468   5.979 -0.0470 -0.2338  0.1367
  811PNCE   C6B 7323   2.956  14.247   6.213 -0.1032 -0.2193  0.1791
  812CHOL   ROH 7324  10.203   4.232   7.368 -0.1185  0.1819  0.0803
  812CHOL    R1 7325  10.012   4.222   7.159  0.0993 -0.0281 -0.1142
  812CHOL    R2 7326   9.827   4.423   7.117 -0.2715 -0.3578 -0.1137
  812CHOL    R3 7327   9.931   4.422   6.866 -0.0141  0.0652 -0.0202
  812CHOL    R4 7328   9.676   4.562   6.839 -0.2233 -0.3240 -0.1238
  812CHOL    R5 7329   9.742   4.391   6.723  0.1742 -0.1043 -0.2397
  812CHOL    C1 7330   9.685   4.642   6.442  0.0465  0.0928 -0.0419
  812CHOL    C2 7331   9.442   4.670   6.054 -0.1275  0.0784 -0.5249
  813PNCE   AM1 7332   4.567   1.179   3.773 -0.2629 -0.1296 -0.0180
  813PNCE   AM2 7333   4.881   1.038   3.944  0.2825 -0.2325  0.3998
  813PNCE   T1A 7334   4.344   1.048   4.175  0.2505  0.1058 -0.1187
  813PNCE   C2A 7335   4.358   0.891   4.615 -0.1420  0.0634 -0.0410
  813PNCE   C3A 7336   4.248   0.577   4.940 -0.1334 -0.0249  0.1593
  813PNCE   C1B 7337   4.914   0.887   4.335  0.0030  0.0016  0.0139
  813PNCE   C2B 7338   4.843   0.714   4.805 -0.2392 -0.1773  0.1226
  813PNCE   C3B 7339   4.717   0.582   5.207  0.0211  0.1852 -0.0716
  813PNCE   D4B 7340   4.297   0.446   5.382 -0.1338 -0.0609  0.1007
  813PNCE   C5B 7341   4.127   0.830   5.500  0.0689 -0.4061 -0.4990
  813PNCE   C6B 7342   3.995   1.021   5.814 -0.1612  0.1034 -0.1997
  814CHOL   ROH 7343   1.569   8.041   8.556 -0.1258 -0.0315 -0.0479
  814CHOL    R1 7344   1.608   8.057   8.276 -0.0441  0.0399 -0.0330
  814CHOL    R2 7345   1.538   7.852   8.105  0.0469  0.0651 -0.1018
  814CHOL    R3 7346   1.398   8.048   7.979  0.0469  0.0671 -0.0984
  814CHOL    R4 7347   1.334   7.805   7.830 -0.1569  0.0262  0.0542
  814CHOL    R5 7348   1.410   7.991   7.747 -0.1319 -0.0439 -0.0815
  814CHOL    C1 7349   1.083   7.962   7.553 -0.2755  0.0053  0.1482
  814CHOL    C2 7350   0.781   7.914   7.364  0.0704  0.1311  0.2662
  815XCA    COO 7351  12.048   9.104   5.816 -0.1215 -0.0778 -0.0781
  815XCA     C1 7352  11.856   9.110   6.176 -0.4864 -0.1048  0.0617
  815XCA     C2 7353  11.730   9.312   6.508 -0.0354 -0.1038  0.0739
  815XCA     C3 7354  11.340   9.371   6.859  0.0427 -0.1434  0.0791
  815XCA     C4 7355  11.147   9.604   7.175  0.4575  0.2350  0.0362
  815XCA     C5 7356  11.059   9.730   7.541 -0.3706  0.1014  0.0617
  815XCA     C6 7357  11.265  10.036   7.693  0.1647  0.0439  0.0775
  816PNCE   AM1 7358  15.688   9.692   4.508  0.3856 -0.3523  0.0801
  816PNCE   AM2 7359  15.966   9.540   4.568  0.0671 -0.0183  0.1692
  816PNCE   T1A 7360  15.568   9.937   4.876  0.1050 -0.0560  0.3297
  816PNCE   C2A 7361  15.450  10.218   5.204 -0.3004  0.0052 -0.3210
  816PNCE   C3A 7362  15.336  10.474   5.523 -0.1495  0.0569  0.2636
  816PNCE   C1B 7363  15.916   9.647   5.004 -0.0416 -0.3871  0.1987
  816PNCE   C2B 7364  15.838   9.818   5.405 -0.2015  0.1534 -0.1910
  816PNCE   C3B 7365  16.199   9.847   5.699 -0.1882  0.2077 -0.2684
  816PNCE   D4B 7366  16.070   9.709   6.169  0.0163 -0.1073 -0.0689
  816PNCE   C5B 7367  16.365   9.935   6.464 -0.0830  0.2200  0.0520
  816PNCE   C6B 7368  16.564  10.286   6.656  0.2622  0.2525 -0.0721
  817PNCE   AM1 7369   4.557  10.066   4.556 -0.0063 -0.1236  0.1265
  817PNCE   AM2 7370   4.368   9.922   4.316  0.1656  0.0834  0.0807
  817PNCE   T1A 7371   4.415  10.456   4.833 -0.1337  0.0947  0.0589
  817PNCE   C2A 7372   4.184  10.698   5.110  0.1825  0.3061  0.0248
  817PNCE   C3A 7373   4.117  10.777   5.469 -0.0661 -0.0264  0.4403
  817PNCE   C1B 7374   4.164  10.280   4.281  0.0712  0.0404 -0.0772
  817PNCE   C2B 7375   3.906  10.532   4.592 -0.1243 -0.1326 -0.1654
  817PNCE   C3B 7376   3.725  10.526   4.961 -0.1490 -0.1838 -0.0290
  817PNCE   D4B 7377   3.523  10.681   5.295 -0.0294  0.3291  0.1481
  817PNCE   C5B 7378   3.624  10.650   5.736 -0.1771 -0.0848  0.0663
  817PNCE   C6B 7379   3.895  10.883   5.928 -0.2792  0.2030  0.0979
  818CHOL   ROH 7380  10.295  15.223   7.000  0.0232  0.2465 -0.0752
  818CHOL    R1 7381  10.473  15.264   6.783  0.0728  0.1314 -0.0560
  818CHOL    R2 7382  10.469  15.492   6.628  0.1364  0.0687 -0.1511
  818CHOL    R3 7383  10.732  15.504   6.695  0.1251  0.0577 -0.1017
  818CHOL    R4 7384  10.709  15.666   6.451  0.1643  0.1454 -0.0401
  818CHOL    R5 7385  10.847  15.500   6.484  0.1652  0.1422 -0.0796
  818CHOL    C1 7386  11.097  15.778   6.411  0.1701  0.1797  0.0708
  818CHOL    C2 7387  11.181  16.185   6.374  0.0331  0.0406  0.1308
  819CHOL   ROH 7388   4.166   9.315   8.977 -0.0981  0.2565 -0.0376
  819CHOL    R1 7389   4.236   9.182   8.737  0.0715  0.2038  0.0387
  819CHOL    R2 7390   4.050   9.117   8.543  0.1679 -0.0532  0.0255
  819CHOL    R3 7391   4.219   9.254   8.380  0.0827  0.0229  0.0012
  819CHOL    R4 7392   3.998   9.174   8.206  0.0850 -0.0558  0.0383
  819CHOL    R5 7393   4.210   9.137   8.172  0.0923  0.0313 -0.0024
  819CHOL    C1 7394   4.126   9.336   7.857 -0.0432  0.0141  0.0228
  819CHOL    C2 7395   3.937   9.648   7.686 -0.4552 -0.4034 -0.2148
  820CHOL   ROH 7396   0.907  11.528   7.459 -0.2359  0.0508 -0.0346
  820CHOL    R1 7397   0.819  11.635   7.212 -0.0926 -0.0160 -0.1164
  820CHOL    R2 7398   0.809  11.485   6.981 -0.1154 -0.1278 -0.0477
  820CHOL    R3 7399   0.550  11.569   6.976 -0.0622  0.0340 -0.1634
  820CHOL    R4 7400   0.610  11.496   6.698 -0.0409 -0.1578 -0.1016
  820CHOL    R5 7401   0.530  11.686   6.768  0.0619 -0.0702 -0.2321
  820CHOL    C1 7402   0.251  11.581   6.530  0.0525 -0.0235 -0.2415
  820CHOL    C2 7403   0.038  11.827   6.332 -0.0922  0.4066  0.2473
  821CHOL   ROH 7404  15.853   8.032   5.414  0.0581 -0.2603  0.1724
  821CHOL    R1 7405  15.823   8.167   5.661  0.0865 -0.1592  0.1206
  821CHOL    R2 7406  15.932   8.073   5.896  0.1707 -0.0273  0.1345
  821CHOL    R3 7407  16.043   8.321   5.906  0.1099  0.0064 -0.0023
  821CHOL    R4 7408  16.095   8.206   6.171  0.1182  0.1726  0.0706
  821CHOL    R5 7409  15.999   8.398   6.129  0.0745  0.1261 -0.0490
  821CHOL    C1 7410  16.293   8.516   6.340  0.0305  0.3207 -0.0950
  821CHOL    C2 7411  16.287   8.839   6.646  0.0583  0.0833 -0.2300
  822CHOL   ROH 7412  14.520  10.892   4.564 -0.1479 -0.0778 -0.1388
  822CHOL    R1 7413  14.459  10.725   4.784  0.1178 -0.1215 -0.0974
  822CHOL    R2 7414  14.654  10.626   4.953  0.2727  0.2891 -0.0344
  822CHOL    R3 7415  14.499  10.739   5.146  0.0271  0.0657 -0.0914
  822CHOL    R4 7416  14.638  10.519   5.282  0.3190  0.2591 -0.0406
  822CHOL    R5 7417  14.422  10.554   5.277  0.2553 -0.0606 -0.1201
  822CHOL    C1 7418  14.483  10.564   5.654  0.1154  0.0319 -0.0976
  822CHOL    C2 7419  14.357  10.238   5.914 -0.0528 -0.0359 -0.1381
  823PNCE   AM1 7420  13.365   0.576   4.248  0.2376  0.1759 -0.0410
  823PNCE   AM2 7421  13.301   0.806   4.387 -0.2445  0.0822  0.2041
  823PNCE   T1A 7422  13.655   0.243   4.512 -0.0162 -0.2047 -0.0325
  823PNCE   C2A 7423  13.635  -0.189   4.563  0.2406  0.1696 -0.3830
  823PNCE   C3A 7424  13.794  -0.427   5.050 -0.0642  0.0675  0.1481
  823PNCE   C1B 7425  13.702   0.641   4.710  0.0176 -0.2315 -0.2003
  823PNCE   C2B 7426  13.801   0.255   4.972 -0.0179  0.0628 -0.1226
  823PNCE   C3B 7427  13.857  -0.047   5.368  0.1261 -0.1131  0.0183
  823PNCE   D4B 7428  13.985  -0.371   5.540  0.0693  0.3917  0.2268
  823PNCE   C5B 7429  14.106  -0.402   5.921  0.0940  0.3581 -0.0846
  823PNCE   C6B 7430  14.191  -0.425   6.393  0.2290  0.1001 -0.1307
  824PNCE   AM1 7431  10.047   0.287   5.433  0.0706 -0.1376  0.0631
  824PNCE   AM2 7432   9.960  -0.083   5.387  0.0982  0.1313 -0.1470
  824PNCE   T1A 7433   9.784   0.360   5.724 -0.0772 -0.1332 -0.0541
  824PNCE   C2A 7434   9.605   0.600   6.005  0.1729  0.2818  0.1836
  824PNCE   C3A 7435   9.249   0.745   6.230 -0.1314  0.2052  0.2319
  824PNCE   C1B 7436   9.781  -0.204   5.740  0.1170  0.1925  0.1377
  824PNCE   C2B 7437   9.704  -0.184   6.169 -0.1147 -0.0334  0.2955
  824PNCE   C3B 7438   9.507   0.283   6.390  0.1735 -0.1354 -0.0415
  824PNCE   D4B 7439   9.354   0.497   6.813 -0.0189 -0.3955  0.0614
  824PNCE   C5B 7440   9.010   0.336   7.102  0.0233 -0.1648 -0.1200
  824PNCE   C6B 7441   9.021   0.233   7.579 -0.1474  0.0718  0.0735
  825XCA    COO 7442   6.466  14.556   8.110  0.1278  0.0841  0.0969
  825XCA     C1 7443   6.642  14.248   7.734 -0.0973  0.1820 -0.0274
  825XCA     C2 7444   6.768  14.032   7.386  0.0975  0.1758 -0.0012
  825XCA     C3 7445   6.637  13.773   7.127  0.0186  0.0692 -0.1445
  825XCA     C4 7446   6.509  13.642   6.776  0.2123  0.1890 -0.3118
  825XCA     C5 7447   6.524  13.645   6.379 -0.0311 -0.2508 -0.0850
  825XCA     C6 7448   6.377  13.340   6.002 -0.2389  0.1244 -0.1114
  826XCA    COO 7449  15.802   0.888   6.903 -0.2020 -0.1961 -0.1825
  826XCA     C1 7450  15.774   1.107   6.495  0.3453 -0.1256 -0.0873
  826XCA     C2 7451  15.717   1.431   6.178  0.1499 -0.1505  0.0483
  826XCA     C3 7452  15.456   1.755   5.939  0.0880  0.1339 -0.1133
  826XCA     C4 7453  14.939   1.951   5.711  0.1134  0.1259  0.1024
  826XCA     C5 7454  14.926   2.131   5.261 -0.0426  0.2681 -0.2566
  826XCA     C6 7455  14.796   2.272   4.853 -0.0269 -0.0592 -0.0394
  827XCA    COO 7456  13.610   3.966   8.617  0.1333 -0.0321  0.0629
  827XCA     C1 7457  13.759   3.858   8.288  0.3545 -0.2063 -0.2993
  827XCA     C2 7458  13.929   3.895   7.976  0.0795 -0.0660  0.0127
  827XCA     C3 7459  14.098   3.968   7.491 -0.2081  0.0763 -0.0368
  827XCA     C4 7460  13.996   3.969   7.024 -0.1791  0.0240  0.0252
  827XCA     C5 7461  13.601   3.868   6.765  0.1291 -0.2319  0.2256
  827XCA     C6 7462  13.272   3.926   6.644 -0.0016  0.1220 -0.1445
  828PNCE   AM1 7463   5.300   3.207   4.225  0.0874  0.2250 -0.0031
  828PNCE   AM2 7464   5.545   3.395   4.362  0.0639 -0.1102 -0.1831
  828PNCE   T1A 7465   5.414   2.853   4.474 -0.0134  0.0416  0.2171
  828PNCE   C2A 7466   5.470   2.668   4.849 -0.1007  0.0252  0.2119
  828PNCE   C3A 7467   5.425   2.701   5.271  0.3058  0.0541 -0.3550
  828PNCE   C1B 7468   5.870   3.465   4.712 -0.1891  0.0896 -0.1750
  828PNCE   C2B 7469   5.994   3.488   5.177  0.0657 -0.2681  0.1407
  828PNCE   C3B 7470   5.992   3.791   5.519 -0.2584 -0.0601 -0.0455
  828PNCE   D4B 7471   5.770   4.117   5.609 -0.1891 -0.2139 -0.1866
  828PNCE   C5B 7472   6.025   4.375   5.665 -0.0418  0.0900  0.1268
  828PNCE   C6B 7473   6.347   4.557   5.549  0.1533 -0.0833  0.1214
  829PNCE   AM1 7474  11.792   8.183   4.768 -0.3183 -0.0269  0.1041
  829PNCE   AM2 7475  11.812   8.330   5.140 -0.0590  0.1716 -0.0808
  829PNCE   T1A 7476  12.061   7.865   4.777  0.0599  0.1385 -0.1139
  829PNCE   C2A 7477  12.428   7.766   4.862  0.3393 -0.4195 -0.2659
  829PNCE   C3A 7478  12.772   7.720   5.126 -0.0395 -0.0295  0.0291
  829PNCE   C1B 7479  11.901   8.289   5.527  0.2389  0.0986 -0.0055
  829PNCE   C2B 7480  11.977   8.107   5.850  0.3098  0.0492  0.2091
  829PNCE   C3B 7481  12.429   8.101   6.022  0.0117 -0.1710  0.0943
  829PNCE   D4B 7482  12.703   8.458   5.902  0.0979  0.1190 -0.0307
  829PNCE   C5B 7483  12.917   8.631   6.284  0.1575 -0.0356  0.1489
  829PNCE   C6B 7484  13.272   8.906   6.386 -0.0775  0.0136 -0.0218
  830PNCE   AM1 7485   1.688   5.910   4.757  0.1732 -0.1325 -0.1064
  830PNCE   AM2 7486   1.759   5.610   4.676 -0.1363  0.0269 -0.0482
  830PNCE   T1A 7487   1.663   5.887   5.254  0.2867  0.1311 -0.4003
  830PNCE   C2A 7488   1.707   6.051   5.661 -0.2325  0.0964  0.0742
  830PNCE   C3A 7489   1.397   6.150   5.913  0.0991  0.1890 -0.0036
  830PNCE   C1B 7490   1.509   5.442   5.166 -0.2220  0.1658 -0.0832
  830PNCE   C2B 7491   1.445   5.128   5.321 -0.2978  0.0927  0.3566
  830PNCE   C3B 7492   1.658   4.901   5.697 -0.2143 -0.1331 -0.0885
  830PNCE   D4B 7493   1.749   5.093   6.151  0.2049  0.2729  0.1043
  830PNCE   C5B 7494   1.322   5.258   6.299 -0.0585  0.0366  0.1110
  830PNCE   C6B 7495   0.943   5.165   6.268  0.2740  0.3080  0.0803
  831PNCE   AM1 7496   9.472  13.640   5.435  0.0120 -0.0232 -0.1435
  831PNCE   AM2 7497   9.533  13.952   5.399  0.0400 -0.1459 -0.0910
  831PNCE   T1A 7498   9.431  13.419   5.870  0.1055  0.2511 -0.1990
  831PNCE   C2A 7499   9.437  13.111   6.233  0.1612 -0.0757  0.2433
  831PNCE   C3A 7500   9.562  12.811   6.541 -0.2752  0.0802  0.0636
  831PNCE   C1B 7501   9.195  13.945   5.774  0.1031 -0.3959  0.1116
  831PNCE   C2B 7502   9.205  14.013   6.179 -0.2837 -0.0390  0.0668
  831PNCE   C3B 7503   9.240  14.487   6.301  0.2689  0.1538 -0.1105
  831PNCE   D4B 7504   9.147  14.932   6.612 -0.1596  0.3042  0.4257
  831PNCE   C5B 7505   9.397  15.418   6.525  0.0984  0.2596 -0.0376
  831PNCE   C6B 7506   9.589  15.721   6.708 -0.0709  0.1389  0.2258
  832XCA    COO 7507   3.355  14.682   8.457  0.0557 -0.0449 -0.0356
  832XCA     C1 7508   3.317  14.546   8.022 -0.2234  0.0342  0.3440
  832XCA     C2 7509   3.646  14.274   7.704 -0.3388  0.0458 -0.5173
  832XCA     C3 7510   3.605  14.005   7.410 -0.0430 -0.3272  0.1878
  832XCA     C4 7511   3.616  13.962   7.033 -0.4711  0.3133  0.2029
  832XCA     C5 7512   3.388  14.043   6.712 -0.5844  0.1811 -0.0675
  832XCA     C6 7513   3.228  13.818   6.447 -0.1350 -0.0116  0.0648
  833PNCE   AM1 7514  12.728  11.536   8.460  0.3111 -0.2258 -0.4822
  833PNCE   AM2 7515  12.452  11.648   8.462  0.1202 -0.0967 -0.3389
  833PNCE   T1A 7516  12.692  11.552   7.979  0.0280  0.0916  0.2763
  833PNCE   C2A 7517  12.784  11.548   7.562  0.1791 -0.0614  0.0404
  833PNCE   C3A 7518  12.705  11.436   7.071  0.0337  0.0537  0.0053
  833PNCE   C1B 7519  12.573  12.042   8.263 -0.1698  0.2894 -0.3427
  833PNCE   C2B 7520  12.764  12.127   7.897 -0.0604  0.2258  0.2245
  833PNCE   C3B 7521  12.992  12.101   7.492  0.1402 -0.2338  0.0204
  833PNCE   D4B 7522  13.315  12.174   7.163 -0.1614 -0.0383  0.3044
  833PNCE   C5B 7523  13.737  12.147   7.359 -0.1184 -0.1615 -0.0986
  833PNCE   C6B 7524  13.969  12.204   7.863 -0.0877  0.1301 -0.2113
  834PNCE   AM1 7525   0.871  11.285   4.248  0.0609  0.0368  0.1953
  834PNCE   AM2 7526   1.181  11.542   4.231  0.1057  0.0387  0.0331
  834PNCE   T1A 7527   0.570  11.389   4.568 -0.0880 -0.2634 -0.3693
  834PNCE   C2A 7528   0.552  11.742   4.835  0.3060  0.0672 -0.1524
  834PNCE   C3A 7529   0.533  11.756   5.334  0.0070 -0.1179  0.2010
  834PNCE   C1B 7530   1.008  11.699   4.644 -0.0462 -0.2311 -0.0168
  834PNCE   C2B 7531   1.008  11.774   5.076  0.2544 -0.3081 -0.0570
  834PNCE   C3B 7532   0.926  12.001   5.372  0.1641  0.3111 -0.2482
  834PNCE   D4B 7533   1.128  12.291   5.761  0.0183 -0.1876  0.1123
  834PNCE   C5B 7534   0.706  12.374   5.989 -0.2291 -0.0448  0.1985
  834PNCE   C6B 7535   0.332  12.250   6.123 -0.1688 -0.0959 -0.0131
  835CHOL   ROH 7536  11.860   0.699   5.813 -0.0792  0.1379  0.0494
  835CHOL    R1 7537  11.763   0.770   6.069 -0.1770  0.1229  0.0156
  835CHOL    R2 7538  11.920   0.760   6.296 -0.2801  0.0588  0.0802
  835CHOL    R3 7539  11.841   1.019   6.322 -0.2381  0.0723  0.0862
  835CHOL    R4 7540  11.963   0.952   6.580 -0.3201  0.0184  0.1152
  835CHOL    R5 7541  11.764   1.036   6.548 -0.2982  0.0607  0.0690
  835CHOL    C1 7542  11.915   1.307   6.770 -0.3042  0.0076  0.1412
  835CHOL    C2 7543  12.031   1.334   7.233  0.0599  0.0992 -0.0850
  836CHOL   ROH 7544   7.059   7.294   5.247 -0.2848  0.1115 -0.0574
  836CHOL    R1 7545   6.995   7.282   5.523 -0.0708  0.0259 -0.0091
  836CHOL    R2 7546   6.759   7.171   5.616 -0.0912  0.1785  0.1237
  836CHOL    R3 7547   6.928   7.021   5.768 -0.0921 -0.0443 -0.0890
  836CHOL    R4 7548   6.663   6.978   5.886 -0.0381  0.1128  0.0960
  836CHOL    R5 7549   6.843   7.043   5.990  0.1012 -0.0919 -0.0082
  836CHOL    C1 7550   6.765   6.724   6.185 -0.0081 -0.1345 -0.1198
  836CHOL    C2 7551   6.567   6.679   6.575 -0.1053  0.2236  0.0859
  837PNCE   AM1 7552   2.000   7.070   4.466  0.0751  0.1433 -0.2905
  837PNCE   AM2 7553   1.778   7.186   4.698  0.3875  0.2899  0.0080
  837PNCE   T1A 7554   2.301   7.248   4.688 -0.3872 -0.0995  0.0680
  837PNCE   C2A 7555   2.692   7.409   4.799  0.1760 -0.0279  0.0227
  837PNCE   C3A 7556   2.880   7.755   5.085 -0.1093 -0.1180 -0.0524
  837PNCE   C1B 7557   1.964   7.283   5.103  0.2658 -0.0889  0.1555
  837PNCE   C2B 7558   2.087   7.234   5.491 -0.0977 -0.2448 -0.2357
  837PNCE   C3B 7559   1.963   7.330   5.865  0.0201  0.1015 -0.0550
  837PNCE   D4B 7560   1.910   7.376   6.322 -0.0487  0.1285 -0.3617
  837PNCE   C5B 7561   2.191   7.300   6.638 -0.0908  0.2272  0.2385
  837PNCE   C6B 7562   2.018   7.042   6.932  0.0806  0.0996  0.2031
  838PNCE   AM1 7563   1.321  10.738   4.440  0.0263  0.2871  0.1959
  838PNCE   AM2 7564   0.982  10.822   4.421 -0.4070 -0.0640  0.3657
  838PNCE   T1A 7565   1.291  10.754   4.920  0.1107 -0.3073 -0.0831
  838PNCE   C2A 7566   1.592  10.887   5.145 -0.1584  0.1020  0.0767
  838PNCE   C3A 7567   1.716  10.880   5.666 -0.1058 -0.1806 -0.0202
  838PNCE   C1B 7568   0.690  10.945   4.732  0.4192  0.0900  0.3592
  838PNCE   C2B 7569   0.707  11.344   5.127  0.1138 -0.2732  0.0961
  838PNCE   C3B 7570   0.915  11.496   5.500 -0.1537 -0.1662  0.1870
  838PNCE   D4B 7571   0.953  11.415   6.012  0.0066 -0.1459 -0.0225
  838PNCE   C5B 7572   0.899  11.051   6.230 -0.2881 -0.3349  0.0436
  838PNCE   C6B 7573   0.604  10.626   6.240  0.1329 -0.2294 -0.2518
  839PNCE   AM1 7574   2.806   8.540   4.086 -0.0010  0.0953  0.0277
  839PNCE   AM2 7575   2.582   8.742   4.052 -0.0018 -0.3361  0.1589
  839PNCE   T1A 7576   2.506   8.233   4.366 -0.0950  0.4271  0.0667
  839PNCE   C2A 7577   2.412   7.924   4.774  0.0040 -0.2763  0.0305
  839PNCE   C3A 7578   2.282   7.885   5.249  0.0392 -0.0447 -0.2897
  839PNCE   C1B 7579   2.660   9.115   4.313  0.1865 -0.3433  0.0260
  839PNCE   C2B 7580   2.712   9.164   4.767  0.3602  0.0083 -0.1666
  839PNCE   C3B 7581   2.449   9.340   5.068  0.1050 -0.2427 -0.0910
  839PNCE   D4B 7582   2.223   9.257   5.532  0.3714  0.1435  0.1145
  839PNCE   C5B 7583   2.232   9.256   5.952 -0.1150  0.2732 -0.1719
  839PNCE   C6B 7584   2.131   9.221   6.376  0.4781  0.3865 -0.0060
  840XCA    COO 7585   5.459   3.702   8.703 -0.4633 -0.1671 -0.2004
  840XCA     C1 7586   5.398   3.816   8.342  0.3117  0.0393 -0.0385
  840XCA     C2 7587   5.283   3.889   7.985  0.0003 -0.0067 -0.0889
  840XCA     C3 7588   5.274   4.147   7.612 -0.0466 -0.2525  0.0493
  840XCA     C4 7589   5.040   4.330   7.328  0.0295 -0.2280  0.0865
  840XCA     C5 7590   5.198   4.330   6.936  0.1220  0.3687 -0.1996
  840XCA     C6 7591   5.418   4.620   6.649 -0.1345  0.1386 -0.1066
  841CHOL   ROH 7592   8.675   8.894   5.316  0.0127 -0.0355 -0.0867
  841CHOL    R1 7593   8.771   9.152   5.250  0.0448 -0.0501 -0.0948
  841CHOL    R2 7594   8.622   9.381   5.290  0.1048 -0.0248 -0.0276
  841CHOL    R3 7595   8.841   9.461   5.429  0.1659 -0.0786 -0.0907
  841CHOL    R4 7596   8.722   9.709   5.328  0.0560 -0.0285  0.1468
  841CHOL    R5 7597   8.929   9.644   5.302  0.0577  0.0302 -0.0135
  841CHOL    C1 7598   8.986   9.976   5.480  0.0851 -0.0812  0.1891
  841CHOL    C2 7599   9.221  10.311   5.393  0.1615 -0.2363 -0.1569
  842PNCE   AM1 7600  13.913  14.721   4.432 -0.2257 -0.3172 -0.0120
  842PNCE   AM2 7601  14.017  14.395   4.555  0.0377  0.0897  0.2276
  842PNCE   T1A 7602  13.924  14.683   4.954  0.1511  0.1267  0.1990
  842PNCE   C2A 7603  13.962  14.687   5.451 -0.1038 -0.0948 -0.1433
  842PNCE   C3A 7604  14.102  14.604   5.832 -0.2077 -0.1420  0.0561
  842PNCE   C1B 7605  14.340  14.248   4.881 -0.1784  0.2046 -0.0381
  842PNCE   C2B 7606  14.641  14.256   5.157 -0.2832 -0.0708 -0.2111
  842PNCE   C3B 7607  14.928  14.420   5.493 -0.1277 -0.0615  0.2174
  842PNCE   D4B 7608  14.885  14.898   5.700  0.0474 -0.4426  0.1562
  842PNCE   C5B 7609  14.811  15.257   5.419 -0.0774  0.2106  0.1210
  842PNCE   C6B 7610  14.469  15.407   5.124  0.0378 -0.0408  0.2137
  843CHOL   ROH 7611   4.021   7.448   5.432  0.0843 -0.1974  0.0978
  843CHOL    R1 7612   3.789   7.599   5.490  0.1699 -0.0700  0.1114
  843CHOL    R2 7613   3.538   7.485   5.515  0.1001  0.0738  0.0744
  843CHOL    R3 7614   3.540   7.611   5.756  0.1591  0.0287  0.0979
  843CHOL    R4 7615   3.268   7.506   5.729  0.1635 -0.0065  0.1632
  843CHOL    R5 7616   3.324   7.712   5.771  0.1481 -0.0052  0.1845
  843CHOL    C1 7617   3.112   7.637   6.079  0.2557 -0.0957  0.2369
  843CHOL    C2 7618   2.850   7.630   5.782  0.0747  0.1879  0.2357
  844XCA    COO 7619   4.833  15.938   3.745  0.0302 -0.1297  0.2723
  844XCA     C1 7620   4.499  15.791   4.022 -0.0948  0.1240 -0.2282
  844XCA     C2 7621   4.244  15.823   4.304 -0.1219  0.0738 -0.1927
  844XCA     C3 7622   4.203  15.847   4.781 -0.1037  0.2107 -0.1320
  844XCA     C4 7623   4.033  16.082   5.134  0.2638 -0.1684 -0.2835
  844XCA     C5 7624   3.754  16.232   5.525 -0.0217 -0.3568  0.0837
  844XCA     C6 7625   3.678  16.611   5.803  0.5043  0.1424  0.0796
  845PNCE   AM1 7626   4.449   9.765   4.976  0.3456  0.2041  0.3392
  845PNCE   AM2 7627   4.735   9.767   5.011 -0.1374 -0.2048  0.1788
  845PNCE   T1A 7628   4.232   9.706   5.366 -0.1042 -0.4862  0.1723
  845PNCE   C2A 7629   3.838   9.749   5.604 -0.2128 -0.1044 -0.1681
  845PNCE   C3A 7630   3.491   9.519   5.841 -0.3001 -0.2549 -0.0594
  845PNCE   C1B 7631   4.578  10.177   5.148 -0.0709  0.1350  0.0465
  845PNCE   C2B 7632   4.472  10.367   5.484 -0.3904  0.0369 -0.0024
  845PNCE   C3B 7633   4.709  10.437   5.829 -0.0461 -0.4389  0.1843
  845PNCE   D4B 7634   4.946  10.195   6.078 -0.0511 -0.1193  0.1026
  845PNCE   C5B 7635   4.988   9.755   5.974 -0.3118 -0.2153 -0.1789
  845PNCE   C6B 7636   5.105   9.311   5.782  0.1352  0.0961 -0.0413
  846CHOL   ROH 7637   3.369   0.622   6.104 -0.1252 -0.0346  0.1378
  846CHOL    R1 7638   3.484   0.387   6.214 -0.1876 -0.1994 -0.1401
  846CHOL    R2 7639   3.605   0.195   6.057  0.1897  0.1825 -0.3416
  846CHOL    R3 7640   3.815   0.236   6.225 -0.1174 -0.0323  0.1151
  846CHOL    R4 7641   3.860  -0.032   6.113  0.3569  0.3092 -0.5751
  846CHOL    R5 7642   3.854   0.021   6.325 -0.0414 -0.2797 -0.4157
  846CHOL    C1 7643   4.206  -0.125   6.303  0.1659  0.1814 -0.2824
  846CHOL    C2 7644   4.036  -0.327   6.664  0.2584 -0.0428 -0.0655
  847XCA    COO 7645   3.905   9.070   4.644  0.2388  0.3089  0.1007
  847XCA     C1 7646   3.436   9.085   4.766  0.2481 -0.0911  0.0643
  847XCA     C2 7647   3.147   9.234   4.992  0.1547 -0.0352 -0.1559
  847XCA     C3 7648   2.879   9.126   5.231  0.4391 -0.2432  0.2968
  847XCA     C4 7649   2.528   8.851   5.268  0.1879 -0.1918  0.0571
  847XCA     C5 7650   2.399   8.451   5.199  0.1069 -0.2608 -0.0259
  847XCA     C6 7651   2.176   8.425   4.733 -0.0145 -0.3463 -0.0260
  848CHOL   ROH 7652  14.037  12.018   4.828 -0.0150  0.2820 -0.1582
  848CHOL    R1 7653  14.014  12.093   5.100 -0.2489 -0.1807 -0.0409
  848CHOL    R2 7654  14.017  11.909   5.306  0.3982 -0.4897 -0.3056
  848CHOL    R3 7655  14.218  12.066   5.400 -0.1079  0.0790 -0.1087
  848CHOL    R4 7656  14.107  11.937   5.639  0.4259 -0.8008 -0.2837
  848CHOL    R5 7657  14.134  12.151   5.608 -0.3537 -0.6034  0.1014
  848CHOL    C1 7658  14.348  12.100   5.921 -0.0331 -0.4482 -0.0860
  848CHOL    C2 7659  14.662  12.461   5.970 -0.1569 -0.0766 -0.3625
  849CHOL   ROH 7660   3.862  12.943   4.596 -0.2101 -0.0546 -0.2704
  849CHOL    R1 7661   3.718  13.000   4.832 -0.0385 -0.0349 -0.1695
  849CHOL    R2 7662   3.841  13.029   5.078  0.1420  0.0003 -0.2646
  849CHOL    R3 7663   3.711  13.268   5.079  0.1283 -0.0065 -0.1933
  849CHOL    R4 7664   3.666  13.159   5.347  0.3080  0.0010 -0.1551
  849CHOL    R5 7665   3.514  13.228   5.208  0.2123 -0.0140 -0.0623
  849CHOL    C1 7666   3.443  13.458   5.504  0.3918 -0.0051 -0.0243
  849CHOL    C2 7667   3.347  13.389   5.880  0.0549  0.2064  0.0466
  850CHOL   ROH 7668   7.924   6.275   5.314  0.0006  0.1697 -0.0100
  850CHOL    R1 7669   8.122   6.322   5.511 -0.0941  0.2027  0.0789
  850CHOL    R2 7670   8.062   6.411   5.765 -0.2457 -0.0523  0.1360
  850CHOL    R3 7671   8.204   6.193   5.841 -0.0604  0.0188 -0.0005
  850CHOL    R4 7672   8.108   6.308   6.092 -0.1126 -0.1868  0.0761
  850CHOL    R5 7673   8.314   6.260   6.042 -0.0808  0.0009  0.0165
  850CHOL    C1 7674   8.268   6.043   6.353  0.1388 -0.1984 -0.0871
  850CHOL    C2 7675   8.170   5.926   6.811 -0.0727 -0.1424 -0.2698
  851PNCE   AM1 7676   4.210   8.747   4.880 -0.0791 -0.0799  0.1546
  851PNCE   AM2 7677   3.954   8.482   4.736 -0.0275  0.2166  0.3184
  851PNCE   T1A 7678   4.101   8.810   5.316  0.2555  0.2880  0.0877
  851PNCE   C2A 7679   4.287   8.811   5.643  0.0572 -0.1420  0.0428
  851PNCE   C3A 7680   4.305   8.956   6.101  0.0012 -0.0849  0.0546
  851PNCE   C1B 7681   3.716   8.722   4.988  0.0141 -0.2517 -0.2846
  851PNCE   C2B 7682   3.644   9.093   5.227 -0.1106 -0.2488  0.1627
  851PNCE   C3B 7683   3.595   9.044   5.672 -0.0302  0.2674  0.2083
  851PNCE   D4B 7684   3.392   9.050   6.014 -0.0564  0.1545 -0.1572
  851PNCE   C5B 7685   3.028   9.066   6.118 -0.0780  0.0221 -0.2435
  851PNCE   C6B 7686   2.675   9.256   6.317  0.0837  0.4021 -0.2581
  852XCA    COO 7687   8.781   7.298   4.639  0.1216  0.1067  0.2925
  852XCA     C1 7688   8.558   7.042   5.010  0.0269 -0.0061  0.1350
  852XCA     C2 7689   8.232   6.926   5.217 -0.0216  0.1941  0.0691
  852XCA     C3 7690   8.136   6.862   5.654 -0.3162  0.1247  0.3102
  852XCA     C4 7691   8.230   7.295   5.902  0.1565  0.1902  0.1845
  852XCA     C5 7692   8.422   7.618   5.618 -0.2325 -0.1987 -0.0408
  852XCA     C6 7693   8.541   8.035   5.497 -0.1044  0.1244 -0.3487
  853PNCE   AM1 7694   3.311   6.879   5.168  0.2294  0.0741  0.3755
  853PNCE   AM2 7695   3.509   7.156   5.138 -0.0010 -0.1950 -0.0852
  853PNCE   T1A 7696   2.848   6.795   5.289  0.3374 -0.0834  0.0858
  853PNCE   C2A 7697   2.443   6.935   5.129  0.3794  0.0951  0.0550
  853PNCE   C3A 7698   2.078   6.815   4.920 -0.0213  0.0510 -0.1237
  853PNCE   C1B 7699   3.688   7.021   5.519 -0.0030 -0.2880  0.3854
  853PNCE   C2B 7700   3.548   7.129   5.998  0.3955 -0.0967 -0.1579
  853PNCE   C3B 7701   3.708   7.390   6.347 -0.3160  0.0524 -0.0743
  853PNCE   D4B 7702   3.542   7.612   6.683 -0.0793 -0.2019  0.1945
  853PNCE   C5B 7703   3.596   7.272   7.071 -0.0396  0.3488 -0.2227
  853PNCE   C6B 7704   3.478   6.939   7.401 -0.2715 -0.2028 -0.1118
  854CHOL   ROH 7705  14.084  11.065   4.790 -0.5578  0.1108 -0.2711
  854CHOL    R1 7706  14.190  10.972   5.035 -0.2456  0.1653 -0.3823
  854CHOL    R2 7707  14.101  11.063   5.281 -0.0226  0.1252 -0.2899
  854CHOL    R3 7708  14.064  10.798   5.329  0.1583  0.1075 -0.2344
  854CHOL    R4 7709  14.022  10.928   5.589 -0.1336  0.1694 -0.2973
  854CHOL    R5 7710  14.159  10.764   5.546  0.0366  0.2606 -0.1493
  854CHOL    C1 7711  13.942  10.600   5.814 -0.0286  0.1787 -0.2496
  854CHOL    C2 7712  13.849  10.643   6.198 -0.1355 -0.1203  0.3898
  855PNCE   AM1 7713   8.767  15.436   4.699 -0.0751 -0.0363  0.2433
  855PNCE   AM2 7714   8.716  15.665   4.608  0.2571 -0.1703 -0.4417
  855PNCE   T1A 7715   8.970  15.456   5.066  0.0678 -0.0865  0.0485
  855PNCE   C2A 7716   9.262  15.224   5.318  0.1374  0.1376 -0.4189
  855PNCE   C3A 7717   9.423  14.871   5.546 -0.1832 -0.0207  0.0632
  855PNCE   C1B 7718   8.622  15.902   5.064 -0.4699  0.0239 -0.2537
  855PNCE   C2B 7719   8.465  16.079   5.427  0.0717 -0.0844  0.1677
  855PNCE   C3B 7720   8.340  16.289   5.783 -0.0515 -0.0402 -0.0867
  855PNCE   D4B 7721   8.282  16.164   6.208 -0.3191 -0.3183 -0.0272
  855PNCE   C5B 7722   7.848  16.114   6.357  0.0856 -0.1399 -0.1656
  855PNCE   C6B 7723   7.549  16.228   6.674 -0.0353 -0.1677  0.2137
  856CHOL   ROH 7724  14.008   7.164   5.739 -0.2256 -0.0323 -0.0992
  856CHOL    R1 7725  13.841   7.347   5.876 -0.2249 -0.0697 -0.0451
  856CHOL    R2 7726  13.662   7.268   6.071 -0.0969 -0.1030  0.0706
  856CHOL    R3 7727  13.792   7.454   6.220 -0.0807 -0.0278 -0.0389
  856CHOL    R4 7728  13.514   7.467   6.311 -0.0873  0.1279 -0.1138
  856CHOL    R5 7729  13.635   7.634   6.241 -0.0254  0.0345 -0.2087
  856CHOL    C1 7730  13.549   7.758   6.591 -0.0665  0.3329 -0.3240
  856CHOL    C2 7731  13.574   8.006   6.921 -0.2081 -0.0241 -0.1712
  857CHOL   ROH 7732  14.100   0.155   4.238 -0.0295 -0.1811 -0.0265
  857CHOL    R1 7733  14.107   0.165   4.521 -0.0165 -0.0634 -0.0314
  857CHOL    R2 7734  14.343   0.174   4.663 -0.0148  0.0047 -0.0499
  857CHOL    R3 7735  14.229   0.395   4.774 -0.0148  0.0457 -0.1282
  857CHOL    R4 7736  14.475   0.354   4.928 -0.1371 -0.0660  0.0617
  857CHOL    R5 7737  14.274   0.374   5.008 -0.1991  0.0101 -0.0896
  857CHOL    C1 7738  14.446   0.665   5.185 -0.2084 -0.0686  0.0531
  857CHOL    C2 7739  14.524   0.671   5.680 -0.0365  0.1174 -0.4213
  858CHOL   ROH 7740   8.697   6.448   7.033 -0.1383 -0.1472 -0.3240
  858CHOL    R1 7741   8.970   6.379   7.062 -0.0966  0.0816 -0.1332
  858CHOL    R2 7742   9.059   6.203   7.254 -0.0989  0.0575 -0.1485
  858CHOL    R3 7743   9.170   6.076   7.041  0.1902  0.2677 -0.1285
  858CHOL    R4 7744   9.279   5.937   7.276 -0.3712 -0.1694 -0.1127
  858CHOL    R5 7745   9.393   6.025   7.112  0.0187 -0.0291  0.2230
  858CHOL    C1 7746   9.511   5.663   7.088 -0.2583 -0.1042 -0.0732
  858CHOL    C2 7747   9.899   5.538   6.990  0.1876 -0.0413 -0.0769
  859CHOL   ROH 7748   1.943   3.173   4.321 -0.0236  0.1190 -0.0058
  859CHOL    R1 7749   1.980   3.229   4.596  0.2849 -0.0050 -0.0176
  859CHOL    R2 7750   1.792   3.162   4.787  0.2086  0.4591  0.0784
  859CHOL    R3 7751   2.003   3.037   4.904 -0.0374 -0.1156 -0.0571
  859CHOL    R4 7752   1.803   3.059   5.117  0.1389  0.4437  0.0764
  859CHOL    R5 7753   2.010   3.126   5.126  0.3470 -0.1105 -0.0618
  859CHOL    C1 7754   2.008   2.881   5.418 -0.1327 -0.1048 -0.0520
  859CHOL    C2 7755   2.002   2.857   5.816  0.1990  0.1098  0.0002
  860PNCE   AM1 7756  10.802  15.696   6.038  0.2908 -0.1414  0.0506
  860PNCE   AM2 7757  10.769  16.001   6.128  0.1002  0.0485  0.1259
  860PNCE   T1A 7758  11.126  15.416   6.001  0.0727 -0.1663 -0.0279
  860PNCE   C2A 7759  11.442  15.260   6.215 -0.1106  0.0243  0.1556
  860PNCE   C3A 7760  11.772  15.305   6.527 -0.1305  0.2513  0.0779
  860PNCE   C1B 7761  10.545  16.310   6.397  0.0239  0.1719  0.0725
  860PNCE   C2B 7762  10.405  16.536   6.736  0.0515 -0.4976  0.0710
  860PNCE   C3B 7763  10.392  16.914   6.978 -0.1703 -0.0563 -0.1014
  860PNCE   D4B 7764  10.315  17.125   7.299  0.1622 -0.1195 -0.0723
  860PNCE   C5B 7765  10.662  17.314   7.495 -0.1405  0.0404  0.2080
  860PNCE   C6B 7766  10.996  17.405   7.718 -0.0827  0.1164  0.2889
  861PNCE   AM1 7767   5.875  12.881   4.336  0.0549 -0.5122  0.0928
  861PNCE   AM2 7768   6.022  13.024   4.619  0.0444  0.0035  0.1883
  861PNCE   T1A 7769   5.563  13.080   4.502 -0.0629 -0.1365 -0.1470
  861PNCE   C2A 7770   5.575  13.265   4.961  0.0602 -0.0073 -0.1404
  861PNCE   C3A 7771   5.675  13.332   5.355 -0.1421  0.1518 -0.1406
  861PNCE   C1B 7772   6.157  13.238   5.004  0.0042  0.0093  0.0565
  861PNCE   C2B 7773   6.412  13.076   5.335  0.1701  0.0240 -0.2305
  861PNCE   C3B 7774   6.696  13.038   5.685  0.1068 -0.1258 -0.0921
  861PNCE   D4B 7775   7.131  12.985   5.638  0.3186  0.0246 -0.0017
  861PNCE   C5B 7776   7.305  13.015   6.004 -0.2756 -0.0357 -0.0693
  861PNCE   C6B 7777   7.708  12.733   6.099  0.4519  0.0903 -0.0626
  862XCA    COO 7778   0.306   5.147   8.785  0.0239 -0.1970 -0.2981
  862XCA     C1 7779   0.421   5.163   8.358  0.1282  0.0735 -0.0686
  862XCA     C2 7780   0.377   5.258   7.937 -0.0322 -0.1983  0.0949
  862XCA     C3 7781   0.050   5.240   7.539  0.0337 -0.0922 -0.1037
  862XCA     C4 7782  -0.170   4.867   7.326 -0.2091 -0.0010  0.0701
  862XCA     C5 7783  -0.087   4.595   6.976 -0.2044  0.0459 -0.2606
  862XCA     C6 7784  -0.016   4.231   6.768  0.2063  0.0130 -0.0076
  863CHOL   ROH 7785   6.716   9.913   7.344 -0.0330  0.1132  0.3336
  863CHOL    R1 7786   6.476   9.949   7.198  0.1362  0.0038  0.0189
  863CHOL    R2 7787   6.401   9.782   6.991  0.2254 -0.3612  0.2709
  863CHOL    R3 7788   6.173   9.757   7.137  0.0578  0.0995  0.1045
  863CHOL    R4 7789   6.086   9.732   6.859  0.2828 -0.1700  0.0560
  863CHOL    R5 7790   6.007   9.870   7.007  0.3028  0.1242 -0.1984
  863CHOL    C1 7791   5.688   9.680   6.918  0.1588  0.3737 -0.2253
  863CHOL    C2 7792   5.381   9.467   6.757 -0.0879  0.1398 -0.2246
  864PNCE   AM1 7793   0.565   1.255   7.398 -0.1405  0.0405  0.1530
  864PNCE   AM2 7794   0.402   1.091   7.596  0.0732  0.0755  0.0907
  864PNCE   T1A 7795   0.761   1.185   6.969  0.0934 -0.2236 -0.5145
  864PNCE   C2A 7796   1.010   1.323   6.593  0.2837  0.1146  0.3481
  864PNCE   C3A 7797   0.766   1.483   6.132 -0.3516  0.0275  0.3153
  864PNCE   C1B 7798   0.104   1.364   7.387 -0.0313 -0.1340  0.1797
  864PNCE   C2B 7799  -0.012   1.441   6.980 -0.0674 -0.0695 -0.1750
  864PNCE   C3B 7800  -0.236   1.642   6.688 -0.2891 -0.3729 -0.1779
  864PNCE   D4B 7801  -0.217   1.883   6.334  0.0277  0.0333  0.2112
  864PNCE   C5B 7802   0.027   2.248   6.293 -0.0173 -0.1269  0.4353
  864PNCE   C6B 7803   0.241   2.497   6.646 -0.1273 -0.0228  0.3316
  865PNCE   AM1 7804  13.328  10.660   5.015  0.4029  0.0636 -0.1294
  865PNCE   AM2 7805  12.937  10.530   4.960  0.1783  0.1146 -0.4361
  865PNCE   T1A 7806  13.493  11.060   5.188  0.1445 -0.0204  0.1465
  865PNCE   C2A 7807  13.652  11.236   5.469 -0.2388 -0.1690 -0.0759
  865PNCE   C3A 7808  13.834  11.549   5.732 -0.1363 -0.0721  0.2604
  865PNCE   C1B 7809  12.896  10.913   5.290  0.2268  0.1695 -0.0743
  865PNCE   C2B 7810  12.649  10.969   5.686 -0.0210 -0.3335  0.0788
  865PNCE   C3B 7811  12.665  11.194   6.140  0.1409 -0.4631  0.1766
  865PNCE   D4B 7812  12.488  10.990   6.523 -0.1578  0.1527 -0.0680
  865PNCE   C5B 7813  12.363  11.269   6.806 -0.0112 -0.2081  0.0047
  865PNCE   C6B 7814  12.412  11.731   6.779  0.1050 -0.2369  0.0482
  866PNCE   AM1 7815   4.844  11.741   4.270  0.1199 -0.0723  0.3247
  866PNCE   AM2 7816   4.945  11.424   4.378 -0.0333 -0.0658 -0.2042
  866PNCE   T1A 7817   4.874  12.041   4.640  0.1061  0.0089  0.1789
  866PNCE   C2A 7818   4.738  12.074   5.031 -0.1146  0.0559  0.2131
  866PNCE   C3A 7819   4.600  12.106   5.506  0.1426  0.0023 -0.1360
  866PNCE   C1B 7820   4.724  11.538   4.914  0.2096  0.1219  0.0677
  866PNCE   C2B 7821   4.428  11.718   5.170 -0.0743 -0.0322  0.0510
  866PNCE   C3B 7822   4.395  11.682   5.611 -0.2341 -0.0848  0.0990
  866PNCE   D4B 7823   4.243  11.810   6.068 -0.1502  0.1164  0.3329
  866PNCE   C5B 7824   3.967  12.070   6.177  0.1895  0.4874  0.1432
  866PNCE   C6B 7825   3.902  12.048   6.697 -0.0443 -0.2538  0.1194
  867CHOL   ROH 7826   0.064  11.592   7.615  0.2186 -0.1689 -0.0187
  867CHOL    R1 7827  -0.041  11.694   7.373 -0.0175 -0.0570  0.1267
  867CHOL    R2 7828   0.081  11.652   7.128 -0.1749  0.1771  0.0054
  867CHOL    R3 7829  -0.164  11.557   7.059 -0.1759  0.0936  0.1207
  867CHOL    R4 7830  -0.053  11.666   6.810 -0.2856  0.0519  0.0460
  867CHOL    R5 7831  -0.246  11.715   6.899 -0.2700  0.0297  0.1012
  867CHOL    C1 7832  -0.361  11.585   6.560 -0.3511 -0.0993  0.1780
  867CHOL    C2 7833  -0.570  11.824   6.265 -0.3372  0.0648  0.2513
  868PNCE   AM1 7834   3.357  11.786   4.673 -0.2179  0.0070  0.1652
  868PNCE   AM2 7835   3.536  12.075   4.612 -0.1603  0.0763 -0.2750
  868PNCE   T1A 7836   3.415  11.632   5.100 -0.0116 -0.0280 -0.2272
  868PNCE   C2A 7837   3.085  11.477   5.398  0.2265  0.0328  0.0987
  868PNCE   C3A 7838   2.891  11.587   5.755  0.2198  0.0388 -0.1966
  868PNCE   C1B 7839   3.733  12.005   4.993 -0.2583  0.0311 -0.2760
  868PNCE   C2B 7840   4.019  12.089   5.363  0.0991  0.3151 -0.0855
  868PNCE   C3B 7841   4.192  12.277   5.707 -0.1033 -0.0068  0.1673
  868PNCE   D4B 7842   4.469  12.523   5.693 -0.2094  0.1541  0.1727
  868PNCE   C5B 7843   4.882  12.367   5.842 -0.4363 -0.0927 -0.0152
  868PNCE   C6B 7844   5.218  12.278   6.115 -0.0940 -0.0072  0.5988
  869PNCE   AM1 7845   5.997   8.397   4.913 -0.0174  0.0826  0.3471
  869PNCE   AM2 7846   5.793   8.641   4.971  0.1455  0.3357  0.2087
  869PNCE   T1A 7847   6.219   8.819   5.190  0.1511  0.0174 -0.1752
  869PNCE   C2A 7848   6.209   9.128   5.502  0.2275  0.2799 -0.0167
  869PNCE   C3A 7849   6.245   9.188   5.909 -0.1727  0.0579 -0.0709
  869PNCE   C1B 7850   5.791   8.699   5.379 -0.0148 -0.1366 -0.0133
  869PNCE   C2B 7851   5.883   8.745   5.795 -0.2155 -0.0189  0.0274
  869PNCE   C3B 7852   5.738   8.681   6.243  0.1098  0.0034  0.1544
  869PNCE   D4B 7853   5.453   8.471   6.463  0.0443 -0.2825 -0.1188
  869PNCE   C5B 7854   5.431   8.576   6.867 -0.1806  0.0564 -0.1897
  869PNCE   C6B 7855   5.538   8.467   7.301 -0.0969 -0.2722  0.0491
  870XCA    COO 7856   8.131   9.877   8.276 -0.1719  0.0847  0.0388
  870XCA     C1 7857   7.873   9.640   8.065 -0.0172 -0.1217 -0.1535
  870XCA     C2 7858   7.690   9.687   7.652  0.1179  0.1562  0.1611
  870XCA     C3 7859   7.481   9.773   7.296 -0.4316 -0.1613 -0.0172
  870XCA     C4 7860   7.199   9.872   7.017 -0.2869  0.1210 -0.0739
  870XCA     C5 7861   6.946   9.602   7.014  0.1083  0.3332  0.2499
  870XCA     C6 7862   6.663   9.344   7.047 -0.1187 -0.1843 -0.1408
  871CHOL   ROH 7863   6.640   3.152   8.143  0.0222 -0.1923 -0.0161
  871CHOL    R1 7864   6.488   3.310   7.965  0.0918 -0.0188  0.0758
  871CHOL    R2 7865   6.585   3.544   7.855  0.2947 -0.1295  0.0132
  871CHOL    R3 7866   6.519   3.424   7.620  0.0094 -0.0596  0.0547
  871CHOL    R4 7867   6.525   3.710   7.558  0.3102 -0.0621  0.0482
  871CHOL    R5 7868   6.360   3.573   7.520  0.1212  0.1284  0.1499
  871CHOL    C1 7869   6.428   3.694   7.165  0.0514  0.0429  0.1076
  871CHOL    C2 7870   6.211   3.963   6.820 -0.0618  0.1840  0.1387
  872CHOL   ROH 7871  13.704   2.141   4.282 -0.3178  0.1186 -0.0037
  872CHOL    R1 7872  13.691   2.355   4.467 -0.4007  0.0473  0.0742
  872CHOL    R2 7873  13.491   2.374   4.658 -0.2298 -0.2727  0.3006
  872CHOL    R3 7874  13.701   2.392   4.829 -0.0606 -0.0533  0.0769
  872CHOL    R4 7875  13.465   2.439   4.996  0.0810 -0.2153  0.3164
  872CHOL    R5 7876  13.640   2.568   4.980 -0.0451 -0.0718  0.0995
  872CHOL    C1 7877  13.647   2.493   5.355  0.4209  0.0242  0.1156
  872CHOL    C2 7878  13.538   2.452   5.765  0.2403  0.2175  0.0608
  873XCA    COO 7879   1.470   5.958   8.618 -0.1130  0.2933  0.4424
  873XCA     C1 7880   1.341   5.954   8.153  0.3400  0.0755 -0.1664
  873XCA     C2 7881   1.220   5.982   7.690 -0.0057  0.0140 -0.2364
  873XCA     C3 7882   1.446   5.953   7.367 -0.2739  0.1066  0.1242
  873XCA     C4 7883   1.820   5.854   7.053  0.1677 -0.0880 -0.1928
  873XCA     C5 7884   2.136   5.869   6.885  0.0758  0.3001 -0.1471
  873XCA     C6 7885   2.569   5.776   6.966 -0.1680 -0.0900  0.0827
  874CHOL   ROH 7886  12.144   6.922   4.954 -0.1284 -0.0956  0.2128
  874CHOL    R1 7887  12.216   6.988   5.220  0.1336 -0.1459  0.1567
  874CHOL    R2 7888  12.028   7.025   5.420  0.3006  0.2333  0.2500
  874CHOL    R3 7889  12.178   6.838   5.549  0.0521  0.0043  0.2175
  874CHOL    R4 7890  12.010   6.955   5.758  0.1113  0.1011  0.2148
  874CHOL    R5 7891  12.227   6.937   5.761  0.0945 -0.1431  0.2791
  874CHOL    C1 7892  12.141   6.740   6.076 -0.2322 -0.1910  0.1639
  874CHOL    C2 7893  12.049   6.722   6.338 -0.0676 -0.0314  0.5139
  875PNCE   AM1 7894   3.110   5.016   4.477  0.1566  0.2313 -0.0894
  875PNCE   AM2 7895   3.336   4.792   4.433  0.3140 -0.1404 -0.0408
  875PNCE   T1A 7896   3.136   4.870   4.921 -0.1531 -0.0112  0.0262
  875PNCE   C2A 7897   3.100   5.022   5.353 -0.1121  0.3139 -0.0930
  875PNCE   C3A 7898   2.993   5.277   5.745  0.3546  0.3626  0.5045
  875PNCE   C1B 7899   3.541   4.566   4.749  0.4463 -0.0724  0.0824
  875PNCE   C2B 7900   3.678   4.519   5.191  0.0289 -0.1450  0.2077
  875PNCE   C3B 7901   3.821   4.120   5.536  0.0631 -0.0568  0.2446
  875PNCE   D4B 7902   3.833   4.246   5.987  0.1384  0.3428 -0.1768
  875PNCE   C5B 7903   4.196   4.459   6.218  0.0678  0.1419  0.1981
  875PNCE   C6B 7904   4.459   4.767   6.418 -0.1302 -0.3520 -0.0665
  876CHOL   ROH 7905   4.932   7.191   6.875  0.0795 -0.1033 -0.1080
  876CHOL    R1 7906   5.038   7.441   6.956  0.0691 -0.1107 -0.0733
  876CHOL    R2 7907   5.211   7.466   7.170  0.0645 -0.1335 -0.0696
  876CHOL    R3 7908   5.368   7.590   6.986  0.0632 -0.1007 -0.0493
  876CHOL    R4 7909   5.443   7.712   7.242 -0.0319 -0.0496 -0.0411
  876CHOL    R5 7910   5.381   7.817   7.062 -0.0290 -0.0875 -0.0672
  876CHOL    C1 7911   5.726   7.971   7.112 -0.0893  0.0300 -0.0053
  876CHOL    C2 7912   6.097   7.936   6.993  0.0108  0.1036  0.1841
  877CHOL   ROH 7913  10.911   5.984   8.428  0.1523  0.1955 -0.0479
  877CHOL    R1 7914  10.727   6.021   8.216  0.1557  0.3397 -0.0271
  877CHOL    R2 7915  10.713   6.255   8.070  0.4345  0.2963 -0.1291
  877CHOL    R3 7916  10.746   6.088   7.858  0.1744  0.1539 -0.0627
  877CHOL    R4 7917  10.622   6.329   7.745  0.4649  0.2752 -0.1424
  877CHOL    R5 7918  10.551   6.123   7.724  0.1889  0.3526 -0.0369
  877CHOL    C1 7919  10.600   6.215   7.357  0.2385  0.1292 -0.0877
  877CHOL    C2 7920  10.345   6.425   7.065 -0.1034  0.3254 -0.2947
  878CHOL   ROH 7921   0.300   9.986   4.544  0.2022 -0.0801  0.1500
  878CHOL    R1 7922   0.322  10.039   4.821  0.1666  0.0987  0.1197
  878CHOL    R2 7923   0.272  10.288   4.929 -0.1472  0.0971 -0.0095
  878CHOL    R3 7924   0.099  10.150   5.087  0.0500 -0.0465  0.0836
  878CHOL    R4 7925   0.153  10.397   5.235 -0.2437  0.0971 -0.0464
  878CHOL    R5 7926   0.175  10.194   5.310  0.0265  0.1596  0.0519
  878CHOL    C1 7927  -0.078  10.330   5.562 -0.1147 -0.0377  0.0194
  878CHOL    C2 7928  -0.063  10.187   5.802 -0.3560  0.1230 -0.3163
  879CHOL   ROH 7929   8.472   3.458   4.900  0.0497 -0.1079  0.0376
  879CHOL    R1 7930   8.409   3.520   5.169  0.1791 -0.1068  0.0684
  879CHOL    R2 7931   8.599   3.607   5.349  0.1869  0.3492 -0.1470
  879CHOL    R3 7932   8.425   3.813   5.383 -0.1903  0.0319 -0.0867
  879CHOL    R4 7933   8.519   3.751   5.653  0.1579  0.3084 -0.1356
  879CHOL    R5 7934   8.311   3.763   5.587  0.0714 -0.1161  0.0273
  879CHOL    C1 7935   8.308   4.028   5.862 -0.2131 -0.0131 -0.0723
  879CHOL    C2 7936   8.146   4.328   6.092 -0.1104 -0.0617  0.1426
  880CHOL   ROH 7937  10.781   3.057   4.881  0.1034  0.1403 -0.0489
  880CHOL    R1 7938  10.989   3.058   5.074  0.1673  0.2646 -0.1170
  880CHOL    R2 7939  11.145   3.280   5.124 -0.1521  0.4566  0.0478
  880CHOL    R3 7940  11.065   3.238   5.381 -0.0091  0.0821  0.0372
  880CHOL    R4 7941  11.331   3.360   5.404 -0.0986  0.2826  0.0636
  880CHOL    R5 7942  11.265   3.173   5.495  0.0988  0.1133 -0.1274
  880CHOL    C1 7943  11.364   3.367   5.808  0.0668 -0.1704  0.0628
  880CHOL    C2 7944  11.520   3.493   6.200 -0.0443 -0.0067  0.3289
  881PNCE   AM1 7945   9.866  13.368   5.236 -0.0623  0.2802  0.3723
  881PNCE   AM2 7946   9.547  13.119   5.427  0.0822  0.2076 -0.0736
  881PNCE   T1A 7947  10.037  12.977   5.254 -0.3028  0.0461  0.0491
  881PNCE   C2A 7948  10.043  12.530   5.294 -0.0862 -0.0729 -0.1162
  881PNCE   C3A 7949  10.009  12.068   5.365 -0.2606  0.1568 -0.0865
  881PNCE   C1B 7950   9.768  13.045   5.832 -0.0227  0.2116  0.0209
  881PNCE   C2B 7951   9.894  12.664   5.947 -0.3175  0.1362 -0.1271
  881PNCE   C3B 7952  10.223  12.236   5.910 -0.0799  0.1511 -0.0458
  881PNCE   D4B 7953  10.355  12.083   6.327 -0.0649  0.1283 -0.2648
  881PNCE   C5B 7954  10.475  12.305   6.635 -0.1918 -0.0411  0.2824
  881PNCE   C6B 7955  10.506  12.584   6.949 -0.0450 -0.0338 -0.1440
  882XCA    COO 7956   4.457   9.217   4.802 -0.0253 -0.0402 -0.0349
  882XCA     C1 7957   4.176   9.288   5.093 -0.3098  0.0132 -0.1102
  882XCA     C2 7958   4.041   9.253   5.425 -0.0899 -0.2704 -0.0169
  882XCA     C3 7959   3.925   9.321   5.863  0.0012 -0.0556  0.2361
  882XCA     C4 7960   3.892   9.368   6.263  0.0455 -0.1265 -0.0322
  882XCA     C5 7961   4.131   9.622   6.525  0.2094  0.2493  0.1821
  882XCA     C6 7962   3.973  10.027   6.693  0.2148  0.3420  0.0065
  883XCA    COO 7963  14.764  15.450   7.885  0.2234 -0.0567  0.3862
  883XCA     C1 7964  14.355  15.298   7.887  0.0198 -0.0433 -0.0224
  883XCA     C2 7965  14.016  14.950   7.680  0.1557  0.0653  0.0459
  883XCA     C3 7966  13.854  14.669   7.415 -0.2818 -0.1236 -0.0110
  883XCA     C4 7967  13.460  14.532   7.249 -0.2124  0.2207 -0.0100
  883XCA     C5 7968  13.505  14.317   6.964  0.1321  0.0952 -0.1942
  883XCA     C6 7969  13.729  14.070   6.824  0.0637 -0.0784 -0.1051
  884PNCE   AM1 7970  15.048   1.097   3.988  0.1053  0.1110 -0.2249
  884PNCE   AM2 7971  15.040   0.681   4.245  0.0414  0.1040 -0.1863
  884PNCE   T1A 7972  14.924   1.490   4.291 -0.0647 -0.0268 -0.0896
  884PNCE   C2A 7973  14.831   1.690   4.701  0.0369  0.1898  0.0714
  884PNCE   C3A 7974  14.750   1.696   5.157 -0.0197  0.1915  0.0298
  884PNCE   C1B 7975  15.107   0.685   4.680  0.0462 -0.1818  0.1335
  884PNCE   C2B 7976  15.245   0.893   5.003 -0.0140  0.2735 -0.0134
  884PNCE   C3B 7977  15.502   1.008   5.359  0.0926  0.3969  0.1358
  884PNCE   D4B 7978  15.475   1.275   5.632 -0.3427  0.0456  0.0710
  884PNCE   C5B 7979  15.683   1.645   5.437 -0.0515 -0.2928  0.0466
  884PNCE   C6B 7980  15.695   1.870   5.032 -0.2185  0.2071  0.3811
  885CHOL   ROH 7981   2.150   1.656   3.927  0.2494  0.2548  0.0823
  885CHOL    R1 7982   2.214   1.653   4.202  0.1349  0.1459  0.1075
  885CHOL    R2 7983   2.146   1.859   4.373  0.0522  0.0682  0.1600
  885CHOL    R3 7984   2.032   1.658   4.517  0.0060  0.0041  0.0378
  885CHOL    R4 7985   2.056   1.881   4.706 -0.2148 -0.0113  0.0969
  885CHOL    R5 7986   2.130   1.677   4.734 -0.1660  0.0047  0.1207
  885CHOL    C1 7987   1.896   1.705   5.035 -0.4137 -0.1177 -0.0545
  885CHOL    C2 7988   1.836   1.466   5.299  0.0984 -0.1414 -0.1954
  886XCA    COO 7989  14.810  13.134   8.349 -0.1880  0.1932 -0.2417
  886XCA     C1 7990  14.593  12.802   8.003 -0.0852 -0.3402 -0.1139
  886XCA     C2 7991  14.383  12.635   7.537  0.3550  0.1058 -0.1366
  886XCA     C3 7992  14.087  12.529   7.321  0.0235 -0.0716  0.3607
  886XCA     C4 7993  13.743  12.637   7.120  0.1212  0.2729 -0.4214
  886XCA     C5 7994  13.359  12.842   7.006  0.1083 -0.0607  0.1384
  886XCA     C6 7995  13.040  12.950   6.742  0.0123 -0.0874 -0.1467
  887PNCE   AM1 7996  14.449   9.220   5.439 -0.0706 -0.0187 -0.0584
  887PNCE   AM2 7997  14.628   8.963   5.257 -0.0212  0.0652  0.2283
  887PNCE   T1A 7998  14.411   9.384   5.826  0.0065 -0.1325  0.3060
  887PNCE   C2A 7999  14.431   9.752   6.108  0.2464  0.0687 -0.1336
  887PNCE   C3A 8000  14.303   9.994   6.348  0.1444  0.1971 -0.1209
  887PNCE   C1B 8001  14.823   8.704   5.576  0.1152 -0.0904 -0.1490
  887PNCE   C2B 8002  15.128   8.692   5.835 -0.2301 -0.1312 -0.1704
  887PNCE   C3B 8003  15.189   8.496   6.220 -0.0072  0.1066  0.2511
  887PNCE   D4B 8004  15.266   8.228   6.550  0.2448  0.2967 -0.4190
  887PNCE   C5B 8005  15.269   7.771   6.467  0.0326 -0.0360 -0.0349
  887PNCE   C6B 8006  15.323   7.468   6.628 -0.0463 -0.0604 -0.0656
  888PNCE   AM1 8007   0.831  14.364   3.952  0.1253 -0.0572 -0.0644
  888PNCE   AM2 8008   1.073  14.285   4.209 -0.2761  0.1282 -0.0139
  888PNCE   T1A 8009   0.917  13.923   3.853 -0.2477  0.6776  0.0894
  888PNCE   C2A 8010   0.580  13.717   3.935 -0.0242 -0.1140  0.0248
  888PNCE   C3A 8011   0.092  13.550   3.881 -0.0396 -0.0216 -0.4135
  888PNCE   C1B 8012   0.888  14.330   4.592 -0.1092  0.0008  0.6093
  888PNCE   C2B 8013   0.643  14.490   4.952  0.0144 -0.4878 -0.2000
  888PNCE   C3B 8014   0.582  14.447   5.299  0.1837 -0.3230  0.0353
  888PNCE   D4B 8015   0.773  14.539   5.640  0.0569 -0.1736  0.3027
  888PNCE   C5B 8016   0.545  14.578   6.059 -0.2345 -0.0897  0.0569
  888PNCE   C6B 8017   0.164  14.344   6.310  0.4360 -0.0840  0.1196
  889PNCE   AM1 8018  12.341  15.833   5.056 -0.0647 -0.3878  0.0685
  889PNCE   AM2 8019  12.315  15.689   5.359  0.0824  0.2773 -0.0701
  889PNCE   T1A 8020  12.434  16.209   5.390  0.0994  0.1307 -0.2097
  889PNCE   C2A 8021  12.567  16.517   5.751  0.0560 -0.0200  0.1563
  889PNCE   C3A 8022  12.892  16.714   6.075  0.2691  0.2925 -0.0277
  889PNCE   C1B 8023  11.834  15.532   5.510 -0.3405 -0.0954 -0.1410
  889PNCE   C2B 8024  11.679  15.593   5.922 -0.0173  0.5191  0.0191
  889PNCE   C3B 8025  11.579  15.780   6.321 -0.0243 -0.0876  0.0699
  889PNCE   D4B 8026  11.521  15.915   6.667 -0.0486  0.1297  0.1323
  889PNCE   C5B 8027  11.237  15.840   6.961  0.0660  0.6760 -0.2580
  889PNCE   C6B 8028  11.123  16.089   7.305 -0.1420  0.0625  0.1107
  890CHOL   ROH 8029  10.503  13.871   8.904  0.1124 -0.0266 -0.0464
  890CHOL    R1 8030  10.456  13.653   8.729 -0.1329  0.0429 -0.0725
  890CHOL    R2 8031  10.299  13.675   8.503 -0.0201  0.2762 -0.1355
  890CHOL    R3 8032  10.521  13.576   8.379 -0.1075 -0.0330 -0.0502
  890CHOL    R4 8033  10.306  13.550   8.180 -0.0242  0.4805 -0.2152
  890CHOL    R5 8034  10.438  13.391   8.250 -0.3494  0.1954 -0.2297
  890CHOL    C1 8035  10.518  13.385   7.877 -0.1089  0.3091 -0.1818
  890CHOL    C2 8036  10.219  13.253   7.661 -0.0043 -0.0109  0.2413
  891PNCE   AM1 8037   4.531   7.253   5.384 -0.2180 -0.0854  0.1401
  891PNCE   AM2 8038   4.447   7.648   5.257 -0.0948  0.1511 -0.0421
  891PNCE   T1A 8039   4.530   7.529   5.728  0.3889  0.1507  0.1518
  891PNCE   C2A 8040   4.374   7.629   6.061  0.0997 -0.1250  0.0176
  891PNCE   C3A 8041   4.349   8.048   6.292  0.0066  0.0434  0.0684
  891PNCE   C1B 8042   4.222   7.900   5.599  0.1727  0.0143  0.2418
  891PNCE   C2B 8043   4.124   8.263   5.877  0.0874  0.1788  0.1565
  891PNCE   C3B 8044   4.096   8.444   6.218 -0.0784  0.0501  0.0725
  891PNCE   D4B 8045   4.083   8.596   6.658  0.3463 -0.0900  0.2197
  891PNCE   C5B 8046   3.778   8.728   6.875 -0.0954 -0.1791  0.0151
  891PNCE   C6B 8047   3.369   8.775   6.926 -0.1381  0.1379 -0.1977
  892PNCE   AM1 8048  10.267  13.330   5.550  0.1284 -0.1057  0.0723
  892PNCE   AM2 8049  10.486  13.481   5.830 -0.2118  0.3268  0.0925
  892PNCE   T1A 8050  10.263  12.819   5.672  0.1422  0.1854  0.1682
  892PNCE   C2A 8051  10.553  12.533   5.709 -0.1548  0.2890  0.0434
  892PNCE   C3A 8052  10.794  12.313   6.063 -0.0183  0.0655 -0.1256
  892PNCE   C1B 8053  10.286  13.106   6.069  0.1702  0.1488  0.0470
  892PNCE   C2B 8054  10.008  12.958   6.359  0.1248  0.0375  0.2334
  892PNCE   C3B 8055   9.849  13.086   6.796  0.2437 -0.2639  0.2480
  892PNCE   D4B 8056   9.699  13.193   7.177  0.0459 -0.3348  0.1210
  892PNCE   C5B 8057   9.358  13.507   7.276 -0.3503 -0.0570 -0.1028
  892PNCE   C6B 8058   9.072  13.780   7.250  0.1323  0.0498  0.1653
  893CHOL   ROH 8059  10.766  13.053   6.134 -0.0043 -0.1640  0.0425
  893CHOL    R1 8060  10.912  12.863   6.285 -0.0335 -0.1524  0.0849
  893CHOL    R2 8061  10.925  12.871   6.561 -0.0254 -0.0872  0.0815
  893CHOL    R3 8062  10.838  12.615   6.540 -0.0695 -0.0782  0.1476
  893CHOL    R4 8063  10.954  12.633   6.809 -0.0080 -0.0448  0.1208
  893CHOL    R5 8064  11.004  12.486   6.656 -0.0631 -0.0817  0.1362
  893CHOL    C1 8065  10.889  12.253   6.935 -0.0391 -0.0115  0.2058
  893CHOL    C2 8066  11.173  12.055   7.035 -0.3590 -0.2339 -0.0576
  894XCA    COO 8067   7.264   0.388   4.783  0.0623 -0.0221  0.0560
  894XCA     C1 8068   7.300   0.598   5.251 -0.1366 -0.0222 -0.4644
  894XCA     C2 8069   7.168   1.015   5.491  0.1069  0.1948 -0.1437
  894XCA     C3 8070   6.827   1.393   5.559 -0.1060 -0.3826 -0.3150
  894XCA     C4 8071   6.721   1.769   5.722  0.1780 -0.2070  0.0165
  894XCA     C5 8072   6.506   1.991   6.051  0.0842 -0.1875  0.0586
  894XCA     C6 8073   6.265   2.104   6.436 -0.1084 -0.2089  0.1711
  895PNCE   AM1 8074   9.227  14.947   4.757 -0.0069 -0.3099 -0.0590
  895PNCE   AM2 8075   9.602  15.011   5.001 -0.3291  0.2347 -0.2908
  895PNCE   T1A 8076   8.931  14.911   5.048 -0.2626  0.2275  0.0310
  895PNCE   C2A 8077   8.605  14.696   5.353 -0.2863  0.1851 -0.2037
  895PNCE   C3A 8078   8.491  14.545   5.682 -0.1083 -0.0610 -0.0634
  895PNCE   C1B 8079   9.837  15.166   5.335 -0.1161 -0.1833  0.0477
  895PNCE   C2B 8080   9.980  15.221   5.713  0.1660  0.0637  0.1722
  895PNCE   C3B 8081  10.082  15.435   6.097  0.1775 -0.2245  0.1466
  895PNCE   D4B 8082  10.049  15.525   6.536 -0.3197  0.0684 -0.0483
  895PNCE   C5B 8083  10.359  15.938   6.763  0.0631 -0.0788  0.3701
  895PNCE   C6B 8084  10.803  16.063   6.744 -0.1873  0.3172  0.1238
  896XCA    COO 8085   2.807  11.657   8.073  0.2043 -0.1236 -0.2740
  896XCA     C1 8086   3.090  11.470   7.806  0.0583 -0.2100 -0.2898
  896XCA     C2 8087   3.197  11.251   7.410  0.1331 -0.1794  0.0537
  896XCA     C3 8088   3.200  10.902   7.153  0.1665  0.0733 -0.1263
  896XCA     C4 8089   3.269  10.803   6.770  0.0868 -0.2547 -0.2173
  896XCA     C5 8090   3.147  10.420   6.629 -0.4055 -0.0726  0.2414
  896XCA     C6 8091   2.784  10.323   6.472  0.2960  0.0042 -0.1717
  897CHOL   ROH 8092   4.916  10.460   4.592 -0.0531 -0.0818 -0.0292
  897CHOL    R1 8093   4.937  10.555   4.857  0.0309 -0.0722 -0.0382
  897CHOL    R2 8094   4.846  10.805   4.934  0.0608 -0.0626 -0.0195
  897CHOL    R3 8095   4.708  10.661   5.119  0.1112 -0.0557  0.0244
  897CHOL    R4 8096   4.763  10.917   5.250 -0.0994  0.0469 -0.0994
  897CHOL    R5 8097   4.810  10.719   5.328  0.0152  0.1236  0.0196
  897CHOL    C1 8098   4.586  10.848   5.608 -0.1454  0.1170 -0.1047
  897CHOL    C2 8099   4.562  10.854   6.031 -0.2649 -0.0026 -0.0778
  898CHOL   ROH 8100   8.806   5.060   4.718 -0.0328 -0.1255  0.1336
  898CHOL    R1 8101   8.700   5.097   4.978  0.0016  0.1614  0.1091
  898CHOL    R2 8102   8.695   4.896   5.167 -0.3092  0.2597  0.2063
  898CHOL    R3 8103   8.823   5.081   5.320 -0.0473  0.1483  0.1275
  898CHOL    R4 8104   8.699   4.897   5.512  0.0713  0.1370  0.2068
  898CHOL    R5 8105   8.677   5.114   5.507  0.1691  0.1552  0.3041
  898CHOL    C1 8106   8.822   5.070   5.857  0.5386 -0.0391  0.1333
  898CHOL    C2 8107   9.030   4.891   6.218  0.0287  0.1159 -0.0391
  899CHOL   ROH 8108   0.648  10.333   4.684  0.1057  0.0858 -0.0838
  899CHOL    R1 8109   0.697  10.469   4.927  0.0158  0.1105 -0.0780
  899CHOL    R2 8110   0.498  10.597   5.068 -0.0862 -0.0883 -0.0310
  899CHOL    R3 8111   0.587  10.442   5.273  0.0941 -0.0277 -0.0642
  899CHOL    R4 8112   0.574  10.713   5.385 -0.0470 -0.0402 -0.0591
  899CHOL    R5 8113   0.747  10.580   5.387  0.0419  0.0779 -0.1225
  899CHOL    C1 8114   0.702  10.635   5.762  0.1451  0.0446 -0.1065
  899CHOL    C2 8115   1.064  10.557   5.881  0.1000  0.0103  0.1017
  900CHOL   ROH 8116   5.891   1.468   6.016 -0.0815  0.0969  0.0214
  900CHOL    R1 8117   5.893   1.186   6.038 -0.1525  0.0932 -0.0136
  900CHOL    R2 8118   5.920   1.020   5.818 -0.0862  0.1150 -0.0240
  900CHOL    R3 8119   6.126   0.917   5.962 -0.1744  0.0538  0.0598
  900CHOL    R4 8120   6.061   0.709   5.766 -0.1137  0.0996 -0.0062
  900CHOL    R5 8121   6.075   0.684   5.982 -0.2239  0.0600 -0.0048
  900CHOL    C1 8122   6.338   0.431   5.870 -0.2126  0.0332  0.0829
  900CHOL    C2 8123   6.321   0.073   5.859 -0.0022 -0.1336 -0.4839
  901CHOL   ROH 8124   5.334   8.648   8.621  0.0597  0.0396 -0.0247
  901CHOL    R1 8125   5.393   8.628   8.345 -0.0046  0.0634 -0.0408
  901CHOL    R2 8126   5.324   8.406   8.194 -0.0056  0.0589 -0.0360
  901CHOL    R3 8127   5.204   8.592   8.036 -0.0751  0.0480  0.0044
  901CHOL    R4 8128   5.256   8.365   7.858  0.0046  0.1054 -0.0436
  901CHOL    R5 8129   5.316   8.572   7.825 -0.0715  0.1334 -0.0010
  901CHOL    C1 8130   5.103   8.515   7.514 -0.0547  0.1222 -0.0100
  901CHOL    C2 8131   5.019   8.654   7.223 -0.0972  0.2928 -0.0458
  902PNCE   AM1 8132   0.983  12.052   4.302 -0.0420 -0.2187 -0.1796
  902PNCE   AM2 8133   0.818  12.339   4.300  0.0641  0.3669 -0.1751
  902PNCE   T1A 8134   0.764  12.127   4.734 -0.3447 -0.4366 -0.4033
  902PNCE   C2A 8135   0.582  12.284   5.078  0.0171 -0.1940  0.2060
  902PNCE   C3A 8136   0.569  12.351   5.496 -0.0569  0.0085 -0.4964
  902PNCE   C1B 8137   1.123  12.491   4.587 -0.5243  0.2430 -0.0600
  902PNCE   C2B 8138   1.360  12.663   4.995 -0.1609 -0.1722  0.2265
  902PNCE   C3B 8139   1.592  12.543   5.391 -0.1700  0.2506 -0.1341
  902PNCE   D4B 8140   1.430  12.140   5.421 -0.0527  0.1378  0.1554
  902PNCE   C5B 8141   1.225  11.801   5.696  0.0785 -0.1167 -0.2307
  902PNCE   C6B 8142   1.446  11.628   6.160  0.4212 -0.1901  0.2723
  903CHOL   ROH 8143   6.260   8.236   8.716  0.1813 -0.2526  0.0827
  903CHOL    R1 8144   6.219   8.170   8.444  0.0166 -0.0453  0.0552
  903CHOL    R2 8145   6.277   7.920   8.341  0.1267  0.0881 -0.2068
  903CHOL    R3 8146   6.018   7.931   8.257  0.0499 -0.0348  0.0037
  903CHOL    R4 8147   6.151   7.751   8.067 -0.0040  0.0451 -0.1217
  903CHOL    R5 8148   6.033   7.927   8.018 -0.1372 -0.0058 -0.0133
  903CHOL    C1 8149   5.835   7.662   7.829 -0.1522 -0.0953  0.1253
  903CHOL    C2 8150   5.812   7.784   7.519 -0.1338 -0.0313  0.0925
  904PNCE   AM1 8151   0.153   0.440   3.820  0.2295 -0.1632 -0.2043
  904PNCE   AM2 8152  -0.128   0.242   3.756  0.0435 -0.1785 -0.2809
  904PNCE   T1A 8153   0.041   0.911   4.055  0.3507  0.0676  0.3687
  904PNCE   C2A 8154   0.132   1.126   4.211 -0.1094 -0.0026 -0.0418
  904PNCE   C3A 8155   0.153   1.200   4.632 -0.1348 -0.0269 -0.0302
  904PNCE   C1B 8156   0.049   0.130   4.132 -0.2499  0.0436 -0.1007
  904PNCE   C2B 8157   0.006   0.095   4.499 -0.1841  0.0704 -0.1817
  904PNCE   C3B 8158  -0.157   0.148   4.954 -0.1327 -0.1791 -0.1889
  904PNCE   D4B 8159  -0.063   0.134   5.340  0.2221  0.1013 -0.1170
  904PNCE   C5B 8160  -0.234   0.034   5.621 -0.3198  0.1001 -0.0138
  904PNCE   C6B 8161  -0.532  -0.073   6.041 -0.2403  0.2034 -0.2682
  905CHOL   ROH 8162   2.689  12.436   7.471 -0.1113  0.0670 -0.1001
  905CHOL    R1 8163   2.802  12.241   7.301  0.0834  0.2256 -0.1573
  905CHOL    R2 8164   2.656  12.029   7.199  0.3366 -0.0065 -0.0548
  905CHOL    R3 8165   2.748  12.123   6.961  0.0511  0.1246 -0.1171
  905CHOL    R4 8166   2.656  11.851   6.903  0.0413  0.1362 -0.1442
  905CHOL    R5 8167   2.852  11.933   6.858 -0.0242  0.1949 -0.3267
  905CHOL    C1 8168   2.742  11.835   6.507 -0.3987  0.3424 -0.2548
  905CHOL    C2 8169   2.724  11.895   6.135  0.0483  0.0738  0.3239
  906PNCE   AM1 8170   8.892  11.523   8.790 -0.1343 -0.1447 -0.2197
  906PNCE   AM2 8171   8.734  11.822   8.667 -0.5228 -0.0641  0.4784
  906PNCE   T1A 8172   9.209  11.756   8.508  0.1321  0.0849 -0.1466
  906PNCE   C2A 8173   9.554  11.685   8.159  0.0012 -0.3167  0.0101
  906PNCE   C3A 8174   9.556  11.444   7.841 -0.2702  0.0364 -0.1466
  906PNCE   C1B 8175   8.944  12.104   8.263  0.0485 -0.1116 -0.0954
  906PNCE   C2B 8176   8.898  12.433   8.059 -0.1429 -0.1562  0.2880
  906PNCE   C3B 8177   8.626  12.527   7.738 -0.1305  0.0656  0.0758
  906PNCE   D4B 8178   8.470  12.517   7.426 -0.0518 -0.0676  0.2256
  906PNCE   C5B 8179   8.535  12.375   7.063 -0.0146  0.1848 -0.0346
  906PNCE   C6B 8180   8.380  12.145   6.690 -0.0310 -0.2433  0.1963
  907PNCE   AM1 8181   7.581   4.465   8.835 -0.0676 -0.0078  0.1598
  907PNCE   AM2 8182   7.574   4.858   8.996 -0.1355 -0.0377  0.0262
  907PNCE   T1A 8183   8.007   4.584   8.797 -0.0804 -0.0355  0.0573
  907PNCE   C2A 8184   8.388   4.778   8.731 -0.0237 -0.0833 -0.2782
  907PNCE   C3A 8185   8.641   5.150   8.809  0.0727 -0.4508  0.4812
  907PNCE   C1B 8186   7.516   4.858   8.511 -0.0290  0.0133  0.0439
  907PNCE   C2B 8187   7.517   4.653   8.100  0.1556 -0.3393  0.0348
  907PNCE   C3B 8188   7.391   4.754   7.698 -0.1449  0.1474 -0.0823
  907PNCE   D4B 8189   7.332   4.387   7.356  0.0302  0.0534 -0.0724
  907PNCE   C5B 8190   7.564   4.121   7.377  0.0082 -0.1077 -0.1223
  907PNCE   C6B 8191   7.734   3.950   7.088  0.2088  0.2419  0.0638
  908PNCE   AM1 8192  12.401   8.316   5.022  0.2499 -0.0214  0.0065
  908PNCE   AM2 8193  12.267   8.618   5.294 -0.0755 -0.1651  0.1976
  908PNCE   T1A 8194  12.151   8.023   5.224  0.3092  0.2307  0.0477
  908PNCE   C2A 8195  11.928   7.629   5.379 -0.3496 -0.0025 -0.0469
  908PNCE   C3A 8196  11.656   7.309   5.605  0.1522  0.4714  0.0100
  908PNCE   C1B 8197  12.201   8.661   5.659  0.0027  0.1715  0.0461
  908PNCE   C2B 8198  12.249   8.647   6.073  0.1417 -0.2638 -0.0033
  908PNCE   C3B 8199  12.132   8.813   6.538  0.1486  0.2802 -0.1116
  908PNCE   D4B 8200  12.156   9.117   6.850  0.1032  0.2497  0.2101
  908PNCE   C5B 8201  12.043   8.830   7.163 -0.2092  0.2007  0.0810
  908PNCE   C6B 8202  11.906   8.559   7.366 -0.0790 -0.0415 -0.2260
  909PNCE   AM1 8203  11.931   2.613   4.822  0.3876  0.2766 -0.2226
  909PNCE   AM2 8204  12.063   2.891   4.688 -0.2295 -0.1905 -0.1246
  909PNCE   T1A 8205  11.918   2.689   5.250 -0.1208  0.0534 -0.0336
  909PNCE   C2A 8206  11.645   2.854   5.607 -0.4264  0.0906 -0.1048
  909PNCE   C3A 8207  11.390   2.980   6.016  0.1382 -0.1091 -0.3740
  909PNCE   C1B 8208  12.252   3.197   4.961  0.3096  0.3281 -0.0709
  909PNCE   C2B 8209  12.632   3.270   5.070  0.1295  0.1665 -0.0640
  909PNCE   C3B 8210  13.030   3.227   5.224  0.1292 -0.0448  0.2633
  909PNCE   D4B 8211  13.101   3.462   5.531  0.1295 -0.2577 -0.1212
  909PNCE   C5B 8212  13.201   3.295   5.797  0.0271 -0.2591 -0.1518
  909PNCE   C6B 8213  13.311   2.982   6.125 -0.1711  0.0263  0.1228
  910XCA    COO 8214   4.471   5.485   8.880  0.0492 -0.0963  0.4053
  910XCA     C1 8215   4.539   5.802   8.580 -0.1494 -0.1625 -0.1944
  910XCA     C2 8216   4.209   6.112   8.319 -0.2048 -0.3923 -0.1486
  910XCA     C3 8217   4.308   6.489   8.023  0.1125  0.0389  0.3079
  910XCA     C4 8218   4.401   6.794   7.631  0.2378 -0.1426  0.2345
  910XCA     C5 8219   4.352   7.280   7.588  0.0690 -0.1380 -0.2009
  910XCA     C6 8220   3.858   7.461   7.523  0.2277  0.1436 -0.0210
  911PNCE   AM1 8221   4.419   3.148   4.486 -0.0846  0.2750  0.2724
  911PNCE   AM2 8222   4.045   3.281   4.399 -0.1652 -0.3534  0.1302
  911PNCE   T1A 8223   4.374   2.803   4.876  0.1837  0.0571 -0.0360
  911PNCE   C2A 8224   4.333   2.405   5.181 -0.1463  0.0576  0.1081
  911PNCE   C3A 8225   4.692   2.394   5.349  0.2238  0.2554 -0.2891
  911PNCE   C1B 8226   4.003   3.148   4.827 -0.0007 -0.0263 -0.2375
  911PNCE   C2B 8227   4.490   3.253   4.967  0.0542  0.0209 -0.3940
  911PNCE   C3B 8228   4.868   3.437   5.210  0.1445 -0.1745  0.0787
  911PNCE   D4B 8229   5.114   3.252   5.412 -0.3149  0.0902  0.0610
  911PNCE   C5B 8230   5.590   3.188   5.417 -0.1359 -0.0552 -0.1685
  911PNCE   C6B 8231   5.845   2.910   5.406 -0.0402 -0.1623  0.0290
  912CHOL   ROH 8232   0.313   5.712   8.100  0.1079  0.1340  0.2202
  912CHOL    R1 8233   0.428   5.747   7.844  0.0275 -0.0201  0.1614
  912CHOL    R2 8234   0.337   5.612   7.620 -0.0774 -0.1181  0.2575
  912CHOL    R3 8235   0.316   5.863   7.518 -0.0630 -0.1650  0.1414
  912CHOL    R4 8236   0.408   5.698   7.293  0.0090 -0.2517  0.2413
  912CHOL    R5 8237   0.501   5.881   7.367 -0.0246 -0.2170  0.1865
  912CHOL    C1 8238   0.430   5.983   7.006  0.0729 -0.3736  0.1228
  912CHOL    C2 8239   0.392   5.731   6.745 -0.1938  0.0584  0.1361
  913CHOL   ROH 8240  14.517   2.107   4.252  0.0399  0.2997  0.1779
  913CHOL    R1 8241  14.739   1.962   4.351 -0.0911  0.2413  0.3931
  913CHOL    R2 8242  14.980   1.949   4.217 -0.1375 -0.2898  0.3344
  913CHOL    R3 8243  15.080   2.038   4.454  0.0257  0.0706  0.1371
  913CHOL    R4 8244  15.308   1.912   4.320 -0.0916 -0.2168  0.2140
  913CHOL    R5 8245  15.235   1.868   4.520  0.0101  0.1338  0.3295
  913CHOL    C1 8246  15.593   1.974   4.601  0.0884  0.1640 -0.0414
  913CHOL    C2 8247  15.825   1.670   4.608 -0.1057  0.2588  0.3667
  914CHOL   ROH 8248   2.618  14.832   5.396 -0.0144 -0.0877  0.0607
  914CHOL    R1 8249   2.678  14.843   5.672  0.1306 -0.1044  0.0294
  914CHOL    R2 8250   2.937  14.869   5.767  0.1500  0.2040 -0.1153
  914CHOL    R3 8251   2.832  15.082   5.899 -0.0528  0.0220  0.0267
  914CHOL    R4 8252   3.090  15.034   6.030  0.0791  0.2527 -0.1037
  914CHOL    R5 8253   2.896  15.048   6.127  0.0893 -0.0223 -0.0107
  914CHOL    C1 8254   3.080  15.330   6.306 -0.1526  0.1103  0.0364
  914CHOL    C2 8255   3.013  15.650   6.546  0.0157 -0.0224 -0.3187
  915XCA    COO 8256   3.435  13.288   4.640 -0.0868  0.0652  0.2318
  915XCA     C1 8257   3.183  13.426   4.911 -0.0357 -0.1505 -0.0535
  915XCA     C2 8258   3.094  13.211   5.373  0.1354  0.0209 -0.1332
  915XCA     C3 8259   2.915  13.023   5.771  0.2603  0.0331  0.0176
  915XCA     C4 8260   2.683  12.701   5.980  0.0879  0.0473 -0.1232
  915XCA     C5 8261   2.479  12.533   6.301  0.1197 -0.1161 -0.1098
  915XCA     C6 8262   2.547  12.265   6.558  0.1483 -0.1730 -0.0882
  916PNCE   AM1 8263   9.396   0.115   5.422 -0.0346 -0.1830 -0.1987
  916PNCE   AM2 8264   9.233  -0.040   5.116  0.2643  0.1354  0.1011
  916PNCE   T1A 8265   9.374   0.052   5.857 -0.5000  0.1423  0.0328
  916PNCE   C2A 8266   9.162  -0.208   6.124  0.1600  0.0872 -0.1131
  916PNCE   C3A 8267   9.032  -0.696   6.158  0.1601  0.2033  0.2157
  916PNCE   C1B 8268   8.938   0.303   5.375 -0.0048 -0.2901  0.3901
  916PNCE   C2B 8269   9.098   0.527   5.763 -0.2804  0.1023 -0.0017
  916PNCE   C3B 8270   9.035   0.320   6.202 -0.1731 -0.0773  0.2658
  916PNCE   D4B 8271   8.745   0.162   6.618  0.2616  0.1983 -0.2274
  916PNCE   C5B 8272   8.283  -0.183   6.573  0.0571  0.1354  0.1276
  916PNCE   C6B 8273   7.864  -0.171   6.674 -0.0012  0.1301  0.0069
  917CHOL   ROH 8274   7.695   0.618   4.865  0.0065 -0.0791 -0.0695
  917CHOL    R1 8275   7.812   0.740   5.092  0.0100 -0.0636 -0.0800
  917CHOL    R2 8276   7.698   0.955   5.221  0.0828  0.0320 -0.1773
  917CHOL    R3 8277   7.720   0.795   5.439 -0.0472  0.0920 -0.1185
  917CHOL    R4 8278   7.610   1.047   5.542  0.2494  0.2622 -0.1945
  917CHOL    R5 8279   7.788   0.943   5.615  0.1551  0.0928 -0.1920
  917CHOL    C1 8280   7.580   0.950   5.935  0.2243  0.4527 -0.1494
  917CHOL    C2 8281   7.590   1.319   5.978 -0.1504  0.3261 -0.7289
  918CHOL   ROH 8282  12.435   5.140   8.348 -0.0055 -0.5077  0.0011
  918CHOL    R1 8283  12.549   5.206   8.097  0.0612 -0.3272  0.0799
  918CHOL    R2 8284  12.552   5.030   7.884  0.0369 -0.1369 -0.0665
  918CHOL    R3 8285  12.433   5.237   7.754  0.1382  0.0186  0.0785
  918CHOL    R4 8286  12.484   5.037   7.545 -0.3099 -0.0488 -0.0008
  918CHOL    R5 8287  12.545   5.246   7.542 -0.0611 -0.1072 -0.0453
  918CHOL    C1 8288  12.333   5.234   7.226 -0.4165  0.1484  0.1737
  918CHOL    C2 8289  11.951   5.165   6.911 -0.0655  0.1929 -0.1029
  919CHOL   ROH 8290  11.276   2.511   8.176 -0.0637  0.2445  0.0332
  919CHOL    R1 8291  11.243   2.339   7.954  0.0948  0.1342  0.0922
  919CHOL    R2 8292  11.035   2.366   7.774  0.0708 -0.1148  0.0720
  919CHOL    R3 8293  11.236   2.373   7.591  0.0732  0.0023  0.0809
  919CHOL    R4 8294  11.010   2.253   7.448  0.2001 -0.2705  0.1158
  919CHOL    R5 8295  11.211   2.170   7.467  0.2760 -0.0705  0.1606
  919CHOL    C1 8296  11.184   2.195   7.087  0.2776 -0.2511  0.1495
  919CHOL    C2 8297  11.159   2.271   6.681 -0.1770  0.1114  0.1772
  920CHOL   ROH 8298  14.944   5.088   6.604 -0.0851  0.0433  0.2101
  920CHOL    R1 8299  15.213   5.170   6.625 -0.0798  0.0524  0.1063
  920CHOL    R2 8300  15.380   5.084   6.828 -0.0268  0.1319  0.0951
  920CHOL    R3 8301  15.540   5.010   6.621 -0.0797  0.0524  0.0814
  920CHOL    R4 8302  15.719   5.023   6.853 -0.0404  0.0353  0.0536
  920CHOL    R5 8303  15.747   5.125   6.662 -0.0391 -0.0016  0.0330
  920CHOL    C1 8304  16.067   4.918   6.674 -0.0981 -0.0955  0.0166
  920CHOL    C2 8305  16.446   5.171   6.590  0.1596  0.2920  0.0356
  921PNCE   AM1 8306   2.407  12.008   4.533 -0.0080 -0.1841 -0.2216
  921PNCE   AM2 8307   2.063  11.960   4.477  0.1205  0.3207  0.0642
  921PNCE   T1A 8308   2.512  12.000   4.947  0.2002  0.0141 -0.1151
  921PNCE   C2A 8309   2.403  12.241   5.326 -0.0040 -0.3282  0.0451
  921PNCE   C3A 8310   2.677  12.208   5.714  0.0455 -0.1245 -0.0601
  921PNCE   C1B 8311   2.000  11.863   4.875 -0.0608  0.0233  0.1427
  921PNCE   C2B 8312   1.876  12.016   5.262 -0.0482  0.3531 -0.4141
  921PNCE   C3B 8313   1.942  12.284   5.580 -0.4653  0.1563  0.0741
  921PNCE   D4B 8314   2.339  12.533   5.684  0.1503  0.0349  0.0618
  921PNCE   C5B 8315   2.348  12.722   5.304  0.1396  0.1452 -0.1664
  921PNCE   C6B 8316   2.285  12.968   4.945 -0.0419  0.1909 -0.0102
  922CHOL   ROH 8317   9.288  12.164   5.685 -0.1451 -0.1975  0.0024
  922CHOL    R1 8318   9.050  12.148   5.836 -0.1455 -0.1806  0.0030
  922CHOL    R2 8319   9.042  12.200   6.108 -0.1653 -0.0504 -0.0234
  922CHOL    R3 8320   8.848  12.376   6.036 -0.2069 -0.1314 -0.1134
  922CHOL    R4 8321   8.749  12.251   6.283 -0.2228 -0.1045 -0.1025
  922CHOL    R5 8322   8.643  12.264   6.092 -0.1837 -0.1869 -0.1324
  922CHOL    C1 8323   8.395  12.446   6.318 -0.2952 -0.2121 -0.2331
  922CHOL    C2 8324   8.013  12.434   6.342 -0.2988  0.1100 -0.1200
  923PNCE   AM1 8325   9.406   6.406   4.894 -0.1580 -0.2171  0.0207
  923PNCE   AM2 8326   9.261   6.209   4.763  0.0667 -0.0775  0.0999
  923PNCE   T1A 8327   9.417   6.268   5.308 -0.2304  0.5371 -0.2314
  923PNCE   C2A 8328   9.513   6.039   5.673 -0.0753  0.0089 -0.2396
  923PNCE   C3A 8329   9.363   5.808   6.038 -0.0964  0.0183  0.0946
  923PNCE   C1B 8330   9.046   5.766   4.913  0.1013 -0.0904  0.0257
  923PNCE   C2B 8331   8.732   5.580   5.236  0.0046  0.1697  0.0059
  923PNCE   C3B 8332   8.483   5.533   5.641  0.0764 -0.0601  0.2103
  923PNCE   D4B 8333   8.281   5.646   6.034  0.4047 -0.1757  0.0061
  923PNCE   C5B 8334   8.495   5.666   6.480 -0.0248 -0.2296 -0.2810
  923PNCE   C6B 8335   8.728   5.885   6.738  0.0533 -0.1490 -0.1206
  924PNCE   AM1 8336  13.873   3.434   4.754 -0.1398 -0.0996  0.0381
  924PNCE   AM2 8337  13.595   3.166   4.743 -0.1059 -0.2779  0.0633
  924PNCE   T1A 8338  13.966   3.220   5.165 -0.2828  0.0497 -0.0173
  924PNCE   C2A 8339  13.853   3.089   5.606  0.0410  0.0403  0.2493
  924PNCE   C3A 8340  13.843   2.831   6.021 -0.1574  0.1016 -0.2093
  924PNCE   C1B 8341  13.494   3.038   5.144 -0.0837  0.0818 -0.1558
  924PNCE   C2B 8342  13.349   2.960   5.544  0.0270  0.1205 -0.0610
  924PNCE   C3B 8343  13.007   2.780   5.688  0.1965  0.0568 -0.0186
  924PNCE   D4B 8344  12.657   2.500   5.608  0.3078 -0.0545 -0.2199
  924PNCE   C5B 8345  12.649   2.179   5.344 -0.1242 -0.3028  0.0230
  924PNCE   C6B 8346  12.950   1.914   5.224  0.0333 -0.2205 -0.3280
  925CHOL   ROH 8347  10.992  12.233   7.962  0.1515 -0.2557 -0.1006
  925CHOL    R1 8348  10.916  12.252   7.690  0.0732 -0.2413 -0.0788
  925CHOL    R2 8349  10.864  12.029   7.535 -0.1351 -0.2305 -0.0328
  925CHOL    R3 8350  10.628  12.156   7.489 -0.0623 -0.0704  0.0324
  925CHOL    R4 8351  10.687  12.017   7.238 -0.0663  0.1589 -0.0946
  925CHOL    R5 8352  10.643  12.229   7.262  0.0297  0.1565  0.1101
  925CHOL    C1 8353  10.363  12.129   7.022  0.0420  0.5360 -0.0692
  925CHOL    C2 8354  10.386  11.785   6.779  0.0148  0.0367  0.0271
  926CHOL   ROH 8355   2.050   8.813   6.209  0.0913  0.0143 -0.0439
  926CHOL    R1 8356   2.175   8.562   6.248 -0.0028 -0.0324 -0.0385
  926CHOL    R2 8357   2.159   8.358   6.063  0.0309  0.0153 -0.0955
  926CHOL    R3 8358   2.430   8.365   6.080  0.0253 -0.0678  0.0454
  926CHOL    R4 8359   2.358   8.096   6.170 -0.0867 -0.1432 -0.2603
  926CHOL    R5 8360   2.481   8.240   6.277 -0.1023 -0.2806 -0.0538
  926CHOL    C1 8361   2.728   7.950   6.247 -0.1605 -0.3136 -0.2239
  926CHOL    C2 8362   2.843   7.662   6.531  0.0470 -0.0650  0.0084
  927PNCE   AM1 8363   1.113   0.259   4.003  0.0615 -0.0585 -0.0312
  927PNCE   AM2 8364   1.118   0.510   4.129  0.0213  0.2408  0.2107
  927PNCE   T1A 8365   1.023  -0.050   4.355 -0.2500 -0.0048  0.1668
  927PNCE   C2A 8366   0.927  -0.007   4.770 -0.2181  0.0295  0.1818
  927PNCE   C3A 8367   1.024   0.083   5.093  0.1442 -0.1050 -0.1595
  927PNCE   C1B 8368   1.036   0.726   4.453  0.1767 -0.1592  0.1378
  927PNCE   C2B 8369   1.290   0.916   4.820  0.0025  0.1034 -0.2050
  927PNCE   C3B 8370   1.703   0.929   5.125  0.0249 -0.0139  0.2603
  927PNCE   D4B 8371   2.135   0.913   5.274  0.0204 -0.2323 -0.2745
  927PNCE   C5B 8372   2.487   1.087   5.421  0.0774 -0.0746 -0.0003
  927PNCE   C6B 8373   2.796   1.020   5.525  0.0135 -0.3213  0.1590
  928CHOL   ROH 8374   5.175   9.028   8.636 -0.1997  0.0957 -0.0227
  928CHOL    R1 8375   5.156   9.153   8.382 -0.4173  0.1474  0.0172
  928CHOL    R2 8376   5.258   9.039   8.152 -0.0089  0.4891  0.0178
  928CHOL    R3 8377   5.005   9.077   8.060 -0.0867 -0.1388 -0.0786
  928CHOL    R4 8378   5.154   8.979   7.828  0.3310  0.4533 -0.0881
  928CHOL    R5 8379   5.035   9.161   7.838 -0.1914  0.1297  0.0021
  928CHOL    C1 8380   4.857   8.981   7.553  0.4558 -0.1569 -0.2401
  928CHOL    C2 8381   4.609   9.018   7.140  0.2615  0.2679 -0.0241
  929CHOL   ROH 8382   3.592   2.219   7.823  0.0054 -0.0534  0.0150
  929CHOL    R1 8383   3.612   2.296   7.551 -0.1996 -0.0533 -0.0009
  929CHOL    R2 8384   3.431   2.466   7.431 -0.0524  0.2908  0.2543
  929CHOL    R3 8385   3.655   2.606   7.366  0.1263 -0.0983 -0.0074
  929CHOL    R4 8386   3.464   2.667   7.152 -0.1853  0.5510  0.4214
  929CHOL    R5 8387   3.667   2.591   7.127 -0.3732  0.1467 -0.0611
  929CHOL    C1 8388   3.693   2.916   6.928 -0.0949  0.3373  0.2731
  929CHOL    C2 8389   3.777   2.828   6.575  0.1431 -0.0707  0.0884
  930CHOL   ROH 8390   1.560   0.253   4.201  0.2838  0.1459 -0.0205
  930CHOL    R1 8391   1.505   0.372   4.452  0.2539  0.0699  0.0091
  930CHOL    R2 8392   1.255   0.363   4.569  0.1839  0.2234 -0.1249
  930CHOL    R3 8393   1.392   0.257   4.779 -0.0121  0.0038 -0.1035
  930CHOL    R4 8394   1.218   0.460   4.899  0.2102  0.2080 -0.1175
  930CHOL    R5 8395   1.434   0.444   4.923  0.1861 -0.0750 -0.0553
  930CHOL    C1 8396   1.325   0.418   5.288  0.0416 -0.0073 -0.0931
  930CHOL    C2 8397   1.284   0.776   5.382  0.2386 -0.1341 -0.2193
  931CHOL   ROH 8398   1.570  13.193   5.721  0.1160 -0.0441  0.0217
  931CHOL    R1 8399   1.364  13.301   5.882  0.2373  0.0819  0.0946
  931CHOL    R2 8400   1.127  13.167   5.930  0.0914  0.3077  0.0176
  931CHOL    R3 8401   1.194  13.209   6.190  0.1472  0.0748  0.0434
  931CHOL    R4 8402   0.941  13.061   6.201 -0.0110  0.3290 -0.0439
  931CHOL    R5 8403   0.984  13.251   6.299  0.1920  0.2253  0.0755
  931CHOL    C1 8404   0.895  13.039   6.603 -0.0182  0.1227 -0.0555
  931CHOL    C2 8405   0.693  13.146   6.742 -0.2337 -0.3831 -0.0370
  932XCA    COO 8406   4.673   2.699   8.766 -0.3524 -0.2162 -0.1083
  932XCA     C1 8407   5.000   2.819   8.414  0.0546 -0.0940  0.0132
  932XCA     C2 8408   5.217   2.872   7.945  0.2466 -0.1044 -0.1448
  932XCA     C3 8409   5.249   2.768   7.510  0.0693  0.2457 -0.3610
  932XCA     C4 8410   4.895   2.829   7.271  0.1368 -0.1719 -0.0251
  932XCA     C5 8411   4.421   2.825   7.280 -0.0370  0.0155  0.0325
  932XCA     C6 8412   3.988   2.906   7.306 -0.6028 -0.0610  0.1836
  933XCA    COO 8413   3.471   3.651   8.769  0.0417  0.3701  0.0686
  933XCA     C1 8414   3.382   3.539   8.298  0.1014  0.0762 -0.0730
  933XCA     C2 8415   3.209   3.513   7.882 -0.3572 -0.2127 -0.1108
  933XCA     C3 8416   2.985   3.707   7.659 -0.0843 -0.4884  0.1379
  933XCA     C4 8417   2.659   3.881   7.464 -0.1807 -0.2200  0.0768
  933XCA     C5 8418   2.356   4.180   7.392  0.0135  0.0146  0.1680
  933XCA     C6 8419   1.908   4.248   7.211  0.0651  0.0208  0.0482
  934CHOL   ROH 8420   3.477   6.249   5.883 -0.2550  0.0428  0.2094
  934CHOL    R1 8421   3.566   6.302   6.146  0.0571 -0.0785  0.1331
  934CHOL    R2 8422   3.834   6.319   6.212  0.1413  0.1705 -0.2336
  934CHOL    R3 8423   3.761   6.561   6.312 -0.0032  0.0079  0.0689
  934CHOL    R4 8424   4.012   6.496   6.449  0.1454  0.0783 -0.1678
  934CHOL    R5 8425   3.823   6.551   6.543  0.1592 -0.1807  0.0190
  934CHOL    C1 8426   4.048   6.827   6.681  0.0122 -0.1280  0.1545
  934CHOL    C2 8427   4.006   7.239   6.728 -0.5622  0.0862 -0.3103
  935PNCE   AM1 8428  15.439  11.350   4.545  0.1831  0.1084  0.1036
  935PNCE   AM2 8429  15.444  11.690   4.323  0.1570 -0.0793 -0.0449
  935PNCE   T1A 8430  15.294  11.659   4.813 -0.0331  0.0589 -0.3509
  935PNCE   C2A 8431  15.381  11.679   5.201  0.1258 -0.3134 -0.1010
  935PNCE   C3A 8432  15.635  11.917   5.453  0.2030  0.3464  0.3548
  935PNCE   C1B 8433  15.521  12.016   4.554  0.1708  0.0084  0.2225
  935PNCE   C2B 8434  15.582  12.138   4.985 -0.2540  0.3029 -0.0539
  935PNCE   C3B 8435  15.789  12.447   5.373  0.0353  0.0354 -0.1116
  935PNCE   D4B 8436  16.115  12.538   5.705  0.1086  0.1682  0.2680
  935PNCE   C5B 8437  15.955  12.758   6.116  0.0478 -0.1293  0.2760
  935PNCE   C6B 8438  15.589  12.799   6.444  0.2556  0.3672 -0.1109
  936CHOL   ROH 8439  11.475   6.523   8.580  0.1489 -0.3099 -0.1134
  936CHOL    R1 8440  11.546   6.685   8.358  0.0642 -0.1277 -0.0105
  936CHOL    R2 8441  11.637   6.578   8.120  0.0250  0.0692 -0.1153
  936CHOL    R3 8442  11.434   6.726   8.014 -0.0288  0.1134  0.0465
  936CHOL    R4 8443  11.555   6.589   7.784 -0.2285  0.1019 -0.0544
  936CHOL    R5 8444  11.520   6.803   7.804 -0.1727  0.1078 -0.0162
  936CHOL    C1 8445  11.317   6.733   7.490 -0.4265  0.1624  0.1330
  936CHOL    C2 8446  11.659   6.750   7.268  0.0500  0.1565  0.1621
  937PNCE   AM1 8447   3.939  11.678   4.510 -0.3273 -0.2923  0.0429
  937PNCE   AM2 8448   3.870  11.969   4.249 -0.0048 -0.0066  0.1388
  937PNCE   T1A 8449   3.956  11.488   4.886  0.1474 -0.1825  0.2275
  937PNCE   C2A 8450   3.864  11.606   5.318  0.3237  0.3124  0.0142
  937PNCE   C3A 8451   3.611  11.830   5.688  0.2102  0.3127  0.0107
  937PNCE   C1B 8452   3.933  12.386   4.660 -0.0216  0.0565  0.2769
  937PNCE   C2B 8453   3.904  12.560   5.111 -0.0524 -0.2048 -0.0778
  937PNCE   C3B 8454   3.888  12.794   5.526 -0.0590 -0.2530  0.1092
  937PNCE   D4B 8455   3.752  13.126   5.822 -0.0834 -0.3744  0.2376
  937PNCE   C5B 8456   4.046  13.447   5.815 -0.3139 -0.2864  0.0642
  937PNCE   C6B 8457   4.395  13.568   6.162  0.0615 -0.0411 -0.0465
  938XCA    COO 8458   6.161  10.174   5.188 -0.1020 -0.0085  0.3055
  938XCA     C1 8459   6.279  10.004   5.526 -0.0132  0.0632  0.2151
  938XCA     C2 8460   6.359   9.994   5.928 -0.1282 -0.2062 -0.0306
  938XCA     C3 8461   6.702  10.055   6.170 -0.0662 -0.0052 -0.1683
  938XCA     C4 8462   7.045   9.985   6.189 -0.1445  0.1365 -0.2770
  938XCA     C5 8463   7.374   9.915   6.489 -0.2062  0.0247 -0.1537
  938XCA     C6 8464   7.892   9.881   6.538  0.0479  0.0506  0.1976
  939CHOL   ROH 8465   5.578   0.719   7.707 -0.1200  0.0005  0.0938
  939CHOL    R1 8466   5.763   0.644   7.506 -0.1028  0.0589  0.0883
  939CHOL    R2 8467   5.776   0.770   7.261 -0.1031  0.1083  0.1168
  939CHOL    R3 8468   6.038   0.802   7.326 -0.1078  0.1203  0.1325
  939CHOL    R4 8469   6.031   0.819   7.034 -0.0733 -0.0404  0.1164
  939CHOL    R5 8470   6.156   0.686   7.153 -0.0985  0.0114  0.2071
  939CHOL    C1 8471   6.426   0.878   6.963 -0.0602 -0.1158  0.1309
  939CHOL    C2 8472   6.701   0.869   6.622  0.2196 -0.0228  0.1452
  940CHOL   ROH 8473   2.990   7.366   8.927  0.2318 -0.0300 -0.1813
  940CHOL    R1 8474   2.945   7.314   8.653  0.0036  0.0165 -0.1553
  940CHOL    R2 8475   2.771   7.464   8.499 -0.0078  0.1444 -0.0257
  940CHOL    R3 8476   2.988   7.493   8.339 -0.0966  0.0091 -0.1724
  940CHOL    R4 8477   2.760   7.559   8.167 -0.1671  0.1575 -0.0170
  940CHOL    R5 8478   2.916   7.413   8.125 -0.2894  0.0608 -0.1261
  940CHOL    C1 8479   2.959   7.642   7.824 -0.3432  0.0382 -0.1497
  940CHOL    C2 8480   2.994   7.956   7.534 -0.0465 -0.1897  0.2045
  941CHOL   ROH 8481   5.193  15.118   7.899 -0.1402 -0.0175 -0.0030
  941CHOL    R1 8482   5.466  15.124   7.825 -0.1195 -0.0528  0.0669
  941CHOL    R2 8483   5.589  14.915   7.693 -0.1030 -0.0835  0.1228
  941CHOL    R3 8484   5.657  15.109   7.515 -0.0430 -0.1097  0.1175
  941CHOL    R4 8485   5.819  14.878   7.437 -0.0780 -0.1389  0.1537
  941CHOL    R5 8486   5.891  15.079   7.480 -0.0470 -0.1531  0.1475
  941CHOL    C1 8487   6.016  15.039   7.122 -0.0072 -0.1958  0.1668
  941CHOL    C2 8488   6.379  14.823   7.129 -0.2419 -0.1430  0.1187
  942PNCE   AM1 8489   0.962   7.543   4.963 -0.1355 -0.3010  0.2578
  942PNCE   AM2 8490   0.740   7.240   4.905 -0.0341 -0.2807  0.1507
  942PNCE   T1A 8491   1.279   7.705   5.399  0.1438  0.1980 -0.2777
  942PNCE   C2A 8492   1.410   7.603   5.795 -0.0635  0.1923 -0.0051
  942PNCE   C3A 8493   1.448   7.293   6.101 -0.3006  0.5101  0.0761
  942PNCE   C1B 8494   0.999   7.001   5.097  0.1890  0.0327  0.1688
  942PNCE   C2B 8495   1.207   6.797   5.473  0.1426  0.0191  0.0345
  942PNCE   C3B 8496   1.179   6.683   5.935 -0.2464 -0.1084 -0.0996
  942PNCE   D4B 8497   0.934   6.433   6.314 -0.0203 -0.1833  0.1419
  942PNCE   C5B 8498   1.182   6.143   6.491  0.0011 -0.1477 -0.1134
  942PNCE   C6B 8499   1.706   5.994   6.573  0.1075 -0.0236 -0.0326
  943PNCE   AM1 8500  10.330   9.408   8.596 -0.1811 -0.1261 -0.2377
  943PNCE   AM2 8501  10.094   9.525   8.547 -0.1283  0.1274 -0.2702
  943PNCE   T1A 8502  10.532   9.541   8.281 -0.0649 -0.0710 -0.0244
  943PNCE   C2A 8503  10.736   9.383   7.861 -0.3794 -0.0336 -0.0495
  943PNCE   C3A 8504  11.029   9.186   7.558 -0.1575 -0.2181  0.0153
  943PNCE   C1B 8505  10.123   9.779   8.107  0.0280 -0.0445 -0.0397
  943PNCE   C2B 8506  10.003   9.800   7.641  0.0005  0.0280  0.0848
  943PNCE   C3B 8507  10.320   9.943   7.298  0.0476  0.1614  0.0098
  943PNCE   D4B 8508  10.570  10.127   6.859 -0.0096  0.0443 -0.0685
  943PNCE   C5B 8509  10.839  10.468   6.969 -0.0343 -0.1700  0.0431
  943PNCE   C6B 8510  11.049  10.863   6.991 -0.0061  0.1743  0.1073
  944PNCE   AM1 8511   3.040   8.665   4.494  0.1071  0.2205  0.0072
  944PNCE   AM2 8512   3.408   8.612   4.535 -0.2461 -0.0509 -0.1762
  944PNCE   T1A 8513   2.659   8.616   4.695 -0.0110 -0.3990 -0.0773
  944PNCE   C2A 8514   2.260   8.927   4.850  0.0826 -0.0658 -0.0133
  944PNCE   C3A 8515   1.966   9.265   5.016 -0.1817  0.3501  0.2984
  944PNCE   C1B 8516   3.179   8.671   4.966  0.1896  0.0121  0.2498
  944PNCE   C2B 8517   3.277   8.808   5.365 -0.1313 -0.2762  0.0989
  944PNCE   C3B 8518   3.236   8.648   5.801  0.1237  0.2736 -0.3383
  944PNCE   D4B 8519   3.332   8.596   6.300 -0.1553 -0.1983  0.2030
  944PNCE   C5B 8520   3.639   8.411   6.517  0.0379  0.1050 -0.2325
  944PNCE   C6B 8521   3.878   8.096   6.497 -0.2398 -0.1707  0.0576
  945CHOL   ROH 8522  14.675   0.968   4.263 -0.2190  0.2488 -0.1560
  945CHOL    R1 8523  14.663   1.116   4.504 -0.0329  0.2594 -0.1514
  945CHOL    R2 8524  14.643   0.995   4.752 -0.2449  0.2745 -0.1562
  945CHOL    R3 8525  14.863   1.144   4.807 -0.0250 -0.0508 -0.1261
  945CHOL    R4 8526  14.763   1.060   5.069 -0.2319  0.1755 -0.1402
  945CHOL    R5 8527  14.806   1.264   5.006  0.1051  0.0931 -0.1784
  945CHOL    C1 8528  15.040   1.239   5.305 -0.0178 -0.1876 -0.1025
  945CHOL    C2 8529  15.047   1.478   5.633  0.2222  0.0006  0.3284
  946CHOL   ROH 8530   0.972  15.394   4.335  0.0669 -0.1425 -0.2755
  946CHOL    R1 8531   0.848  15.536   4.546  0.1027 -0.1354 -0.2595
  946CHOL    R2 8532   0.663  15.420   4.715  0.2133 -0.1604 -0.1555
  946CHOL    R3 8533   0.831  15.510   4.909  0.2604 -0.0526 -0.2453
  946CHOL    R4 8534   0.585  15.436   5.052  0.3339 -0.0823 -0.1307
  946CHOL    R5 8535   0.688  15.628   5.061  0.2819 -0.0484 -0.2275
  946CHOL    C1 8536   0.698  15.530   5.429  0.4484  0.0643 -0.2004
  946CHOL    C2 8537   0.688  15.630   5.821 -0.0914  0.1288 -0.1958
  947XCA    COO 8538   7.099   7.735   5.217  0.0087  0.2813  0.1292
  947XCA     C1 8539   6.782   7.686   5.528  0.0112 -0.1279 -0.0887
  947XCA     C2 8540   6.647   7.788   5.885 -0.0042  0.0795  0.1907
  947XCA     C3 8541   6.607   7.894   6.318  0.0631  0.0649 -0.1509
  947XCA     C4 8542   6.544   7.941   6.751  0.2047  0.0156  0.1558
  947XCA     C5 8543   6.384   8.313   7.057 -0.0286 -0.1827 -0.1897
  947XCA     C6 8544   6.155   8.217   7.410  0.1920  0.1004  0.2542
  948PNCE   AM1 8545  11.329   5.622   4.205 -0.1234 -0.0542 -0.1028
  948PNCE   AM2 8546  11.148   5.914   4.231  0.2185 -0.0747 -0.0180
  948PNCE   T1A 8547  11.398   5.692   4.628  0.1263 -0.2686  0.0706
  948PNCE   C2A 8548  11.604   5.683   5.005  0.1996 -0.1786  0.0574
  948PNCE   C3A 8549  11.750   6.057   5.027 -0.0146  0.1016  0.1915
  948PNCE   C1B 8550  11.430   6.196   4.540  0.0693  0.2893 -0.0782
  948PNCE   C2B 8551  11.348   6.446   5.000  0.0122  0.0442  0.2923
  948PNCE   C3B 8552  11.512   6.315   5.417 -0.3295 -0.0175  0.0946
  948PNCE   D4B 8553  11.796   5.961   5.522 -0.1084 -0.2079 -0.2687
  948PNCE   C5B 8554  11.860   5.851   5.926 -0.0112 -0.1956 -0.0564
  948PNCE   C6B 8555  12.049   5.677   6.264  0.0188  0.2551 -0.0006
  949XCA    COO 8556   3.561   0.850   7.708 -0.0526  0.0760 -0.0663
  949XCA     C1 8557   3.739   0.830   7.323 -0.0032 -0.0743 -0.1658
  949XCA     C2 8558   3.608   0.558   6.937  0.0156 -0.2928 -0.3257
  949XCA     C3 8559   3.600   0.276   6.685  0.0533  0.0039  0.0374
  949XCA     C4 8560   3.496  -0.129   6.557  0.1130  0.1158  0.2424
  949XCA     C5 8561   3.461  -0.513   6.604 -0.3120  0.0402  0.0759
  949XCA     C6 8562   3.125  -0.733   6.746  0.0204 -0.1972 -0.2092
  950CHOL   ROH 8563  11.560   1.170   4.954 -0.4330 -0.0768  0.1429
  950CHOL    R1 8564  11.702   1.231   5.191 -0.2020 -0.0840  0.0086
  950CHOL    R2 8565  11.596   1.189   5.443 -0.0765  0.1860  0.1067
  950CHOL    R3 8566  11.825   1.048   5.481 -0.2016 -0.0408  0.0369
  950CHOL    R4 8567  11.770   1.170   5.741  0.1518  0.2664 -0.0183
  950CHOL    R5 8568  11.956   1.184   5.628  0.0789 -0.0459 -0.1941
  950CHOL    C1 8569  12.086   1.026   5.950  0.1672  0.1002 -0.1567
  950CHOL    C2 8570  12.445   0.952   6.111  0.0700  0.0234 -0.1082
  951CHOL   ROH 8571  13.482  12.918   4.990 -0.1712  0.1640 -0.0831
  951CHOL    R1 8572  13.507  12.723   5.194 -0.2982  0.0660 -0.1592
  951CHOL    R2 8573  13.614  12.781   5.443  0.0495 -0.1722 -0.2432
  951CHOL    R3 8574  13.379  12.676   5.532 -0.0511  0.2017 -0.0441
  951CHOL    R4 8575  13.569  12.629   5.750  0.0813 -0.1650 -0.2350
  951CHOL    R5 8576  13.444  12.479   5.653 -0.2670  0.0628 -0.1512
  951CHOL    C1 8577  13.323  12.442   6.012  0.0053  0.1901 -0.0432
  951CHOL    C2 8578  13.667  12.361   6.097 -0.1683 -0.0630 -0.1797
  952XCA    COO 8579   2.453  15.135   3.993 -0.3961  0.0437  0.0268
  952XCA     C1 8580   2.718  14.915   4.260  0.0561  0.0512 -0.2573
  952XCA     C2 8581   3.113  15.013   4.523 -0.0852 -0.1140  0.1420
  952XCA     C3 8582   3.392  15.087   4.912 -0.1880  0.1000  0.2265
  952XCA     C4 8583   3.342  15.375   5.354 -0.2148  0.4287 -0.0806
  952XCA     C5 8584   3.128  15.803   5.506 -0.5669  0.2681  0.1035
  952XCA     C6 8585   3.236  16.126   5.704 -0.0067  0.0019 -0.2241
  953CHOL   ROH 8586   0.763   7.950   5.400 -0.3076  0.3184 -0.1364
  953CHOL    R1 8587   0.852   7.934   5.668 -0.2286  0.2865 -0.1645
  953CHOL    R2 8588   0.708   7.803   5.866 -0.1642  0.2552 -0.1416
  953CHOL    R3 8589   0.942   7.670   5.902 -0.1481  0.2600 -0.2236
  953CHOL    R4 8590   0.797   7.634   6.153 -0.0755  0.2408 -0.1772
  953CHOL    R5 8591   1.000   7.710   6.130 -0.0813  0.2499 -0.2357
  953CHOL    C1 8592   1.069   7.409   6.355 -0.0087  0.2367 -0.2749
  953CHOL    C2 8593   1.045   7.230   6.687  0.0233 -0.0799  0.2965
  954PNCE   AM1 8594  10.806   5.545   4.122 -0.4561  0.0281  0.2023
  954PNCE   AM2 8595  11.000   5.274   4.077  0.1733 -0.0184  0.1412
  954PNCE   T1A 8596  10.867   5.655   4.543 -0.0126 -0.2254  0.0308
  954PNCE   C2A 8597  11.059   5.458   4.894 -0.3104 -0.1215  0.0037
  954PNCE   C3A 8598  11.402   5.246   5.187 -0.0668  0.1868  0.1518
  954PNCE   C1B 8599  11.279   5.233   4.548 -0.2141 -0.0961  0.2692
  954PNCE   C2B 8600  11.696   5.289   4.740  0.2410 -0.1025  0.0951
  954PNCE   C3B 8601  11.975   5.382   5.146  0.0849  0.0313 -0.3202
  954PNCE   D4B 8602  11.728   5.489   5.558  0.2141 -0.0054  0.2133
  954PNCE   C5B 8603  11.715   5.373   5.900 -0.2134  0.2853  0.0540
  954PNCE   C6B 8604  11.365   5.184   6.156  0.0907 -0.0705 -0.2486
  955XCA    COO 8605   1.077   4.157   8.346 -0.2822 -0.4796 -0.2035
  955XCA     C1 8606   0.911   4.057   7.909  0.0276 -0.0957 -0.1739
  955XCA     C2 8607   0.988   4.002   7.505  0.3523 -0.0906  0.0415
  955XCA     C3 8608   1.009   3.933   7.055 -0.0832 -0.0065  0.1769
  955XCA     C4 8609   0.958   4.209   6.685  0.1444 -0.1207  0.0042
  955XCA     C5 8610   1.208   4.550   6.641 -0.1760 -0.1962 -0.3363
  955XCA     C6 8611   1.424   4.702   6.290 -0.1845  0.1460 -0.3435
  956PNCE   AM1 8612   2.962   3.170   4.682 -0.0615 -0.0910 -0.2138
  956PNCE   AM2 8613   2.908   3.566   4.793 -0.1398 -0.0444 -0.0874
  956PNCE   T1A 8614   3.332   3.165   4.830 -0.2313  0.2251  0.4058
  956PNCE   C2A 8615   3.636   3.206   5.169  0.1413  0.1788  0.0661
  956PNCE   C3A 8616   3.770   3.304   5.538 -0.2599 -0.0761  0.0768
  956PNCE   C1B 8617   3.222   3.532   5.115  0.0262 -0.0917  0.0429
  956PNCE   C2B 8618   3.477   3.734   5.495 -0.0006 -0.1091  0.0682
  956PNCE   C3B 8619   3.398   4.040   5.817  0.0304  0.2333 -0.2333
  956PNCE   D4B 8620   3.422   4.070   6.232 -0.2072  0.0820 -0.0722
  956PNCE   C5B 8621   3.818   3.979   6.517 -0.0193  0.0305  0.3829
  956PNCE   C6B 8622   4.209   3.952   6.755  0.0314  0.2531  0.1672
  957CHOL   ROH 8623  15.214   0.328   5.906  0.3124 -0.0099 -0.2314
  957CHOL    R1 8624  14.959   0.336   5.783  0.2095 -0.0333 -0.0218
  957CHOL    R2 8625  14.925   0.351   5.509 -0.0159  0.0760  0.0124
  957CHOL    R3 8626  14.771   0.131   5.549  0.0793  0.0127  0.0395
  957CHOL    R4 8627  14.634   0.281   5.337 -0.0344 -0.0170  0.0803
  957CHOL    R5 8628  14.546   0.211   5.523  0.0402 -0.0654  0.1034
  957CHOL    C1 8629  14.320   0.033   5.273  0.0442 -0.1306  0.1453
  957CHOL    C2 8630  14.214  -0.107   5.016 -0.4685 -0.2621 -0.0441
  958PNCE   AM1 8631  12.364   4.279   4.711 -0.2261 -0.1096 -0.1675
  958PNCE   AM2 8632  12.234   4.584   4.797 -0.0488  0.0750 -0.2614
  958PNCE   T1A 8633  12.072   4.059   4.993 -0.1880 -0.3808 -0.2055
  958PNCE   C2A 8634  11.737   3.874   5.149  0.0792  0.0966  0.2132
  958PNCE   C3A 8635  11.630   3.693   5.542  0.3034  0.1365  0.2668
  958PNCE   C1B 8636  12.469   4.730   5.104  0.0972  0.0971  0.0401
  958PNCE   C2B 8637  12.517   4.733   5.616  0.1455  0.0061 -0.1296
  958PNCE   C3B 8638  12.254   4.819   5.942 -0.2217  0.3041  0.2238
  958PNCE   D4B 8639  12.233   5.182   6.047 -0.0027 -0.1895  0.0984
  958PNCE   C5B 8640  12.295   5.189   6.509  0.0410  0.3066 -0.0013
  958PNCE   C6B 8641  12.399   4.918   6.865  0.2108 -0.0664  0.2546
  959CHOL   ROH 8642   9.120   5.651   6.895 -0.1607  0.1023 -0.3116
  959CHOL    R1 8643   8.939   5.437   6.929 -0.1740  0.0995 -0.3939
  959CHOL    R2 8644   8.875   5.262   6.725  0.1330 -0.0696 -0.3550
  959CHOL    R3 8645   8.951   5.074   6.905 -0.0763  0.0817 -0.1005
  959CHOL    R4 8646   8.814   4.923   6.693  0.0379 -0.0839 -0.0525
  959CHOL    R5 8647   8.771   4.916   6.907 -0.1323  0.1491 -0.0790
  959CHOL    C1 8648   8.852   4.549   6.844 -0.2139  0.0499  0.3625
  959CHOL    C2 8649   8.701   4.443   6.458 -0.0065  0.0530 -0.2197
  960CHOL   ROH 8650  14.537  12.141   7.818 -0.0246 -0.1039 -0.0345
  960CHOL    R1 8651  14.393  12.169   7.577  0.0013 -0.0308 -0.0422
  960CHOL    R2 8652  14.517  12.191   7.331  0.0247 -0.2346 -0.0510
  960CHOL    R3 8653  14.358  11.981   7.267 -0.1929 -0.0928  0.0162
  960CHOL    R4 8654  14.449  12.086   7.009 -0.0830 -0.2640 -0.0186
  960CHOL    R5 8655  14.242  12.051   7.069 -0.1212 -0.0339 -0.0058
  960CHOL    C1 8656  14.260  11.826   6.761 -0.3498 -0.1481  0.0634
  960CHOL    C2 8657  14.175  11.427   6.658  0.1685  0.0222 -0.1511
  961PNCE   AM1 8658   6.414   3.706   4.322  0.1019  0.0282  0.0348
  961PNCE   AM2 8659   6.673   3.985   4.278 -0.2774  0.1473 -0.1802
  961PNCE   T1A 8660   6.285   3.704   4.754 -0.0936  0.3040 -0.3185
  961PNCE   C2A 8661   6.391   3.925   5.127 -0.0896 -0.2843 -0.1007
  961PNCE   C3A 8662   6.498   3.982   5.504  0.2474  0.0162 -0.0671
  961PNCE   C1B 8663   6.776   3.819   4.731  0.0107 -0.2096  0.0770
  961PNCE   C2B 8664   6.622   3.499   5.050 -0.0877 -0.3155 -0.2530
  961PNCE   C3B 8665   6.408   3.507   5.414 -0.2104  0.1118 -0.2828
  961PNCE   D4B 8666   6.125   3.328   5.610  0.0019  0.2806  0.0940
  961PNCE   C5B 8667   6.256   3.459   5.947  0.1729  0.1593  0.1867
  961PNCE   C6B 8668   6.450   3.766   5.934  0.0934 -0.4851  0.0766
  962CHOL   ROH 8669   3.246   1.116   4.057  0.1308  0.0312 -0.0819
  962CHOL    R1 8670   3.321   0.923   4.250  0.1815  0.0934 -0.0387
  962CHOL    R2 8671   3.457   0.989   4.481 -0.0110  0.2101  0.0449
  962CHOL    R3 8672   3.250   0.860   4.602  0.0251  0.0326 -0.0804
  962CHOL    R4 8673   3.489   0.772   4.749  0.0016  0.3364  0.1464
  962CHOL    R5 8674   3.339   0.644   4.656  0.2120  0.1436  0.0660
  962CHOL    C1 8675   3.314   0.525   5.018  0.0429  0.2432  0.0878
  962CHOL    C2 8676   3.435   0.135   5.184  0.0981  0.1341  0.0001
  963PNCE   AM1 8677  13.367   4.194   5.774 -0.2089  0.3344  0.0003
  963PNCE   AM2 8678  13.236   4.012   5.550 -0.1036  0.0605  0.2032
  963PNCE   T1A 8679  13.017   4.205   6.073 -0.1024  0.0659  0.0524
  963PNCE   C2A 8680  12.626   4.092   6.307 -0.0281  0.1172 -0.0346
  963PNCE   C3A 8681  12.264   4.034   6.558 -0.0640  0.0976  0.0258
  963PNCE   C1B 8682  13.274   3.721   6.031  0.2959 -0.3307  0.0955
  963PNCE   C2B 8683  13.151   3.439   6.414  0.2265 -0.2643  0.0388
  963PNCE   C3B 8684  13.061   2.992   6.646  0.3371  0.0236  0.0510
  963PNCE   D4B 8685  13.084   2.772   7.065 -0.4433  0.1559 -0.5217
  963PNCE   C5B 8686  13.499   2.661   7.327 -0.0983  0.2819  0.1288
  963PNCE   C6B 8687  13.800   2.653   7.617 -0.3089  0.0232 -0.1192
  964CHOL   ROH 8688   9.252  15.640   5.528 -0.1527 -0.1737  0.0383
  964CHOL    R1 8689   9.256  15.448   5.736  0.0496 -0.1904  0.0221
  964CHOL    R2 8690   9.460  15.264   5.765  0.1623 -0.0892 -0.0920
  964CHOL    R3 8691   9.473  15.365   6.016  0.2324 -0.1006 -0.0917
  964CHOL    R4 8692   9.645  15.128   6.023 -0.1178 -0.3582 -0.0283
  964CHOL    R5 8693   9.479  15.172   6.158 -0.0978 -0.1098 -0.0833
  964CHOL    C1 8694   9.764  15.144   6.410 -0.2153 -0.5257  0.0092
  964CHOL    C2 8695   9.678  14.818   6.456 -0.1263 -0.0737 -0.0097
  965XCA    COO 8696   7.792   6.760   4.864  0.1809  0.4705  0.4965
  965XCA     C1 8697   7.729   6.712   5.404  0.4779 -0.1068 -0.0287
  965XCA     C2 8698   7.650   6.794   5.859 -0.3834 -0.2537  0.2172
  965XCA     C3 8699   7.383   7.023   6.168  0.0727  0.1504 -0.3019
  965XCA     C4 8700   6.941   7.051   6.470 -0.1517 -0.0885  0.0899
  965XCA     C5 8701   6.694   7.071   6.855 -0.0550  0.2212 -0.0154
  965XCA     C6 8702   6.511   7.105   7.260  0.1733 -0.1629  0.0877
  966XCA    COO 8703  14.318   7.316   7.259  0.0227 -0.0238  0.3010
  966XCA     C1 8704  14.023   7.175   7.412 -0.1403  0.3636  0.1949
  966XCA     C2 8705  13.639   7.105   7.384 -0.0989  0.0071 -0.2724
  966XCA     C3 8706  13.401   7.070   7.517  0.1281  0.2906 -0.2992
  966XCA     C4 8707  12.927   7.326   7.368  0.0854 -0.2623 -0.0741
  966XCA     C5 8708  12.840   7.728   7.101  0.0211  0.2343  0.0304
  966XCA     C6 8709  13.080   7.972   6.936  0.1811  0.0130  0.0739
  967PNCE   AM1 8710   6.733   2.968   4.179  0.2473 -0.0623  0.3825
  967PNCE   AM2 8711   6.876   3.307   4.297 -0.1243  0.0426 -0.0117
  967PNCE   T1A 8712   6.471   3.066   4.521 -0.1735 -0.1314 -0.0287
  967PNCE   C2A 8713   6.270   3.178   4.777 -0.1177 -0.0159  0.0957
  967PNCE   C3A 8714   6.262   3.104   5.148  0.1817  0.1094 -0.1658
  967PNCE   C1B 8715   7.051   3.449   4.748 -0.0793  0.0299  0.2584
  967PNCE   C2B 8716   7.297   3.389   5.135  0.5100  0.2211 -0.1899
  967PNCE   C3B 8717   7.478   3.429   5.558  0.1459 -0.2190  0.1361
  967PNCE   D4B 8718   7.310   3.698   5.894 -0.0466  0.1171  0.2149
  967PNCE   C5B 8719   7.251   3.590   6.339 -0.3373  0.1779 -0.3210
  967PNCE   C6B 8720   7.600   3.404   6.578 -0.0639 -0.0912  0.3837
  968PNCE   AM1 8721  10.410   0.046   5.794 -0.2384 -0.0548 -0.3197
  968PNCE   AM2 8722  10.327   0.360   5.886  0.3144  0.0755  0.0740
  968PNCE   T1A 8723  10.236  -0.094   6.214 -0.0206 -0.2547 -0.0298
  968PNCE   C2A 8724   9.952   0.075   6.509  0.0396 -0.3301  0.1345
  968PNCE   C3A 8725   9.801   0.298   6.818  0.2757 -0.0792  0.0013
  968PNCE   C1B 8726  10.086   0.467   6.150  0.1298  0.3146 -0.4092
  968PNCE   C2B 8727   9.896   0.683   6.492 -0.0741 -0.2786 -0.0293
  968PNCE   C3B 8728   9.918   0.740   7.054  0.2019  0.1987 -0.0559
  968PNCE   D4B 8729  10.117   0.738   7.405 -0.2957  0.0121  0.0066
  968PNCE   C5B 8730  10.405   0.492   7.613 -0.2853 -0.0671 -0.2490
  968PNCE   C6B 8731  10.742   0.336   7.576 -0.3580  0.0472 -0.0548
  969PNCE   AM1 8732   2.252   0.703   4.027 -0.2729  0.1242 -0.0532
  969PNCE   AM2 8733   2.480   1.039   4.065  0.0349 -0.1588  0.1718
  969PNCE   T1A 8734   2.401   0.675   4.462  0.1119  0.1538 -0.1686
  969PNCE   C2A 8735   2.666   0.847   4.745  0.0183  0.0264 -0.0377
  969PNCE   C3A 8736   2.966   0.828   5.043  0.0447  0.2244  0.1853
  969PNCE   C1B 8737   2.308   1.150   4.371  0.0145 -0.0531  0.0684
  969PNCE   C2B 8738   2.276   1.232   4.818 -0.0079 -0.5163  0.0418
  969PNCE   C3B 8739   2.324   1.477   5.166  0.0017 -0.1658 -0.1971
  969PNCE   D4B 8740   2.245   1.532   5.656  0.1451  0.0144  0.1261
  969PNCE   C5B 8741   2.110   1.058   5.821 -0.2670  0.1566  0.2582
  969PNCE   C6B 8742   1.974   0.680   5.978  0.0304 -0.0236 -0.0984
  970CHOL   ROH 8743   2.279   6.656   6.949  0.0361 -0.0161  0.1249
  970CHOL    R1 8744   2.015   6.573   7.007 -0.0123  0.0707  0.0351
  970CHOL    R2 8745   1.821   6.549   6.813  0.0883 -0.0241 -0.0590
  970CHOL    R3 8746   1.798   6.297   6.913 -0.0077  0.0463  0.0981
  970CHOL    R4 8747   1.528   6.365   6.820  0.0483  0.0401 -0.0639
  970CHOL    R5 8748   1.583   6.295   7.019 -0.0539  0.1599  0.0061
  970CHOL    C1 8749   1.336   6.022   6.919 -0.0651  0.1436  0.0807
  970CHOL    C2 8750   0.957   5.943   7.076 -0.0268  0.2504 -0.1803
  971PNCE   AM1 8751   5.602   4.000   4.744  0.0422 -0.0773  0.2228
  971PNCE   AM2 8752   5.357   3.809   4.548  0.0620  0.1966  0.1252
  971PNCE   T1A 8753   5.892   4.007   4.964 -0.1605  0.3965 -0.3491
  971PNCE   C2A 8754   6.160   4.354   5.095 -0.0151  0.0779 -0.0385
  971PNCE   C3A 8755   6.317   4.723   4.933 -0.2278  0.1037  0.0976
  971PNCE   C1B 8756   5.108   4.010   4.906 -0.0898  0.2151 -0.3027
  971PNCE   C2B 8757   4.807   3.960   5.192  0.1148 -0.1831  0.2030
  971PNCE   C3B 8758   4.631   3.786   5.457  0.0316  0.0091  0.2184
  971PNCE   D4B 8759   4.483   3.621   5.856  0.1884 -0.0957  0.0654
  971PNCE   C5B 8760   4.167   3.330   5.871 -0.1241  0.1065  0.0395
  971PNCE   C6B 8761   3.831   3.150   6.142 -0.1607  0.0462 -0.0229
  972CHOL   ROH 8762   5.893   4.510   4.729  0.5480  0.1691  0.2215
  972CHOL    R1 8763   5.835   4.631   4.978  0.3772  0.1294  0.2026
  972CHOL    R2 8764   5.587   4.614   5.098  0.2591  0.2093 -0.0261
  972CHOL    R3 8765   5.731   4.519   5.309  0.0271  0.0891  0.0828
  972CHOL    R4 8766   5.483   4.621   5.428  0.0999  0.4777 -0.0786
  972CHOL    R5 8767   5.686   4.674   5.486  0.1492  0.2215  0.0006
  972CHOL    C1 8768   5.558   4.536   5.817 -0.2105  0.5213 -0.0068
  972CHOL    C2 8769   5.547   4.370   6.212 -0.0088 -0.1472  0.0652
  973PNCE   AM1 8770   9.536   1.888   4.448  0.2207  0.1448 -0.1337
  973PNCE   AM2 8771   9.629   2.296   4.391  0.4575  0.1963 -0.0624
  973PNCE   T1A 8772   9.234   1.857   4.735 -0.2642  0.0424 -0.3209
  973PNCE   C2A 8773   9.050   1.565   5.034  0.0820 -0.2562  0.1686
  973PNCE   C3A 8774   8.873   1.771   5.419 -0.1806 -0.1513  0.0618
  973PNCE   C1B 8775   9.361   2.382   4.705 -0.1870  0.0171 -0.2494
  973PNCE   C2B 8776   9.400   2.494   5.159  0.2238  0.0912  0.1015
  973PNCE   C3B 8777   9.487   2.745   5.457 -0.0727 -0.0940 -0.2353
  973PNCE   D4B 8778   9.695   3.103   5.607 -0.1601  0.1578  0.0637
  973PNCE   C5B 8779   9.632   3.402   5.939  0.0758  0.1291  0.4458
  973PNCE   C6B 8780   9.837   3.733   6.173 -0.0537  0.2492 -0.2392
  974XCA    COO 8781   9.598   2.919   4.790  0.2721  0.2392  0.2547
  974XCA     C1 8782   9.880   2.874   5.168 -0.1822 -0.1107  0.0916
  974XCA     C2 8783  10.059   2.652   5.510  0.1283  0.0200  0.0410
  974XCA     C3 8784  10.190   2.813   5.794  0.1584  0.1340  0.1965
  974XCA     C4 8785  10.476   3.144   5.950  0.0398  0.2844 -0.1296
  974XCA     C5 8786  10.384   3.635   5.974  0.3564  0.3821  0.0172
  974XCA     C6 8787  10.426   4.182   6.078  0.1995  0.0205 -0.0585
  975CHOL   ROH 8788   4.262   1.536   7.999  0.1254 -0.2772 -0.1577
  975CHOL    R1 8789   4.343   1.530   7.728  0.1699 -0.1400 -0.1476
  975CHOL    R2 8790   4.163   1.506   7.520  0.2177 -0.1969 -0.1793
  975CHOL    R3 8791   4.284   1.732   7.431  0.0801 -0.0873 -0.0954
  975CHOL    R4 8792   4.089   1.667   7.223  0.1319 -0.1446 -0.1305
  975CHOL    R5 8793   4.302   1.701   7.194  0.1146  0.0017 -0.1064
  975CHOL    C1 8794   4.160   1.973   6.967 -0.0473 -0.0112 -0.0233
  975CHOL    C2 8795   3.948   1.894   6.596 -0.0067  0.1087 -0.1295
  976XCA    COO 8796  15.808   0.088   7.089 -0.0670 -0.0735  0.0809
  976XCA     C1 8797  15.731   0.330   6.764  0.2015 -0.3073  0.0478
  976XCA     C2 8798  15.544   0.495   6.443 -0.3653 -0.2306  0.1021
  976XCA     C3 8799  15.643   0.396   6.005  0.1623  0.3174  0.0209
  976XCA     C4 8800  15.865   0.485   5.753 -0.0752 -0.1216  0.4641
  976XCA     C5 8801  16.311   0.580   5.685 -0.2084  0.2114 -0.2803
  976XCA     C6 8802  16.520   0.757   5.390 -0.1218  0.1475 -0.0343
  977PNCE   AM1 8803   3.953   0.685   3.776 -0.1065 -0.1518 -0.1901
  977PNCE   AM2 8804   3.916   1.036   3.744 -0.1141 -0.0330  0.1851
  977PNCE   T1A 8805   3.674   0.629   4.084  0.1696 -0.0703  0.2302
  977PNCE   C2A 8806   3.441   0.343   4.275  0.2711  0.2728 -0.0017
  977PNCE   C3A 8807   3.418   0.156   4.666  0.1830 -0.1364  0.0214
  977PNCE   C1B 8808   3.806   1.085   4.130 -0.2805  0.3715  0.2322
  977PNCE   C2B 8809   3.902   1.045   4.522 -0.0514  0.0319  0.0809
  977PNCE   C3B 8810   3.862   1.104   4.929 -0.0504 -0.0877  0.0145
  977PNCE   D4B 8811   3.828   1.251   5.327  0.0754 -0.1869  0.0422
  977PNCE   C5B 8812   4.040   1.592   5.463  0.0019 -0.0021 -0.0723
  977PNCE   C6B 8813   4.256   1.953   5.474 -0.1671  0.0465  0.0557
  978XCA    COO 8814  14.892   3.583   8.212 -0.0691  0.2528  0.1237
  978XCA     C1 8815  14.979   3.768   7.834 -0.3193 -0.2442  0.1914
  978XCA     C2 8816  15.135   4.192   7.737 -0.1668  0.1993 -0.0625
  978XCA     C3 8817  15.253   4.584   7.644 -0.3029  0.3583  0.1044
  978XCA     C4 8818  15.295   5.043   7.565 -0.2087 -0.0138 -0.2708
  978XCA     C5 8819  15.547   5.443   7.673 -0.1230  0.1548 -0.2153
  978XCA     C6 8820  15.744   5.663   8.033  0.0458 -0.1700 -0.2613
  979PNCE   AM1 8821  13.382  11.508   4.414  0.0920  0.2024  0.0577
  979PNCE   AM2 8822  13.064  11.709   4.569 -0.1656 -0.2700  0.0356
  979PNCE   T1A 8823  13.683  11.473   4.794 -0.4936  0.2436 -0.0501
  979PNCE   C2A 8824  13.915  11.523   5.086  0.2323  0.0249 -0.3149
  979PNCE   C3A 8825  14.217  11.463   5.451 -0.1261 -0.0469  0.0347
  979PNCE   C1B 8826  13.199  11.666   4.936 -0.0077  0.4033  0.0017
  979PNCE   C2B 8827  13.154  11.431   5.286  0.0336 -0.0047 -0.3607
  979PNCE   C3B 8828  13.071  11.222   5.735  0.4847 -0.2432  0.1813
  979PNCE   D4B 8829  13.193  10.917   6.098 -0.0910  0.0048 -0.0662
  979PNCE   C5B 8830  13.414  10.877   6.419 -0.3636  0.1888  0.2818
  979PNCE   C6B 8831  13.367  10.890   6.818  0.0352  0.0858  0.2646
  980PNCE   AM1 8832   1.134   6.616   4.656 -0.3910 -0.0216  0.1130
  980PNCE   AM2 8833   1.149   6.253   4.711  0.0730  0.1813  0.0248
  980PNCE   T1A 8834   1.390   6.716   5.009  0.2197  0.3002  0.1085
  980PNCE   C2A 8835   1.635   6.457   5.369 -0.3466 -0.0952 -0.1568
  980PNCE   C3A 8836   1.734   6.523   5.863  0.1951 -0.2890 -0.0191
  980PNCE   C1B 8837   1.195   6.262   5.143 -0.1053  0.1663  0.1032
  980PNCE   C2B 8838   1.244   5.944   5.436 -0.1779  0.1386  0.0208
  980PNCE   C3B 8839   1.265   5.497   5.639 -0.1431 -0.1160 -0.3000
  980PNCE   D4B 8840   1.161   5.070   5.829  0.2044 -0.1376 -0.1454
  980PNCE   C5B 8841   1.294   4.584   5.634 -0.0837  0.2222 -0.1438
  980PNCE   C6B 8842   1.723   4.479   5.335 -0.0411 -0.0045 -0.1942
  981PNCE   AM1 8843   4.481   2.802   4.052 -0.0576  0.2762 -0.3993
  981PNCE   AM2 8844   4.792   2.955   4.279 -0.1941 -0.0825  0.3816
  981PNCE   T1A 8845   4.635   2.454   4.163 -0.0046  0.1225 -0.0838
  981PNCE   C2A 8846   4.843   2.130   4.377 -0.0716  0.2381 -0.1307
  981PNCE   C3A 8847   5.081   1.889   4.342  0.2033  0.1540 -0.0502
  981PNCE   C1B 8848   4.900   2.902   4.668  0.2714  0.3731 -0.1407
  981PNCE   C2B 8849   4.877   2.894   5.153  0.0067  0.2335 -0.0691
  981PNCE   C3B 8850   4.964   2.785   5.516 -0.0760 -0.4591  0.0483
  981PNCE   D4B 8851   4.942   2.765   5.970  0.2979 -0.0454  0.0504
  981PNCE   C5B 8852   4.556   2.530   5.925  0.0089  0.1577  0.2033
  981PNCE   C6B 8853   4.198   2.310   5.870  0.1135  0.3139 -0.0336
  982CHOL   ROH 8854   1.714   5.575   8.323 -0.0023  0.0471  0.1808
  982CHOL    R1 8855   1.661   5.637   8.052  0.0431  0.1014  0.1838
  982CHOL    R2 8856   1.678   5.449   7.850  0.1183  0.1506  0.1415
  982CHOL    R3 8857   1.424   5.530   7.798  0.1147  0.1182  0.1103
  982CHOL    R4 8858   1.492   5.351   7.576  0.1194  0.0350  0.1816
  982CHOL    R5 8859   1.417   5.555   7.560  0.1106  0.0239  0.1013
  982CHOL    C1 8860   1.145   5.371   7.367  0.1167 -0.0627  0.1757
  982CHOL    C2 8861   0.939   5.055   7.199  0.0871  0.1398  0.6169
  983PNCE   AM1 8862   8.076  14.369   4.761 -0.0445 -0.2821  0.0235
  983PNCE   AM2 8863   8.094  14.120   4.528 -0.2778 -0.0928  0.1688
  983PNCE   T1A 8864   8.292  14.287   5.150  0.0539 -0.1359  0.0212
  983PNCE   C2A 8865   8.255  14.112   5.640  0.1300  0.2380  0.2329
  983PNCE   C3A 8866   8.327  14.165   6.098  0.1379  0.0947 -0.0054
  983PNCE   C1B 8867   8.140  13.836   4.883 -0.2428  0.2322 -0.1469
  983PNCE   C2B 8868   8.509  13.719   5.286 -0.0092 -0.0161  0.0968
  983PNCE   C3B 8869   8.652  13.747   5.722 -0.0204  0.1795 -0.0020
  983PNCE   D4B 8870   8.895  13.589   6.015  0.0668 -0.0442 -0.0480
  983PNCE   C5B 8871   9.036  13.655   6.452  0.4066 -0.3159  0.3909
  983PNCE   C6B 8872   9.055  13.516   6.792 -0.3123  0.0337 -0.0416
  984XCA    COO 8873  13.940   8.854   5.167 -0.0646  0.2513 -0.1285
  984XCA     C1 8874  14.069   8.866   5.610 -0.2766 -0.1818  0.2472
  984XCA     C2 8875  14.014   9.155   5.970  0.0829  0.2764 -0.1653
  984XCA     C3 8876  13.918   9.168   6.471  0.1347 -0.0140 -0.2563
  984XCA     C4 8877  13.567   9.321   6.588 -0.2327 -0.1302  0.1361
  984XCA     C5 8878  13.482   9.259   7.058 -0.1963 -0.2694 -0.3133
  984XCA     C6 8879  13.178   9.298   7.477  0.5760  0.0736  0.0093
  985CHOL   ROH 8880   0.899   5.111   6.745 -0.0401 -0.1492  0.1953
  985CHOL    R1 8881   1.165   5.203   6.779 -0.0680 -0.0154  0.0688
  985CHOL    R2 8882   1.228   5.420   6.937 -0.0840 -0.0904  0.1857
  985CHOL    R3 8883   1.397   5.243   7.057  0.1066 -0.0837 -0.0671
  985CHOL    R4 8884   1.500   5.508   7.131 -0.0732 -0.0851  0.1677
  985CHOL    R5 8885   1.613   5.346   7.038  0.0178  0.1033 -0.0469
  985CHOL    C1 8886   1.818   5.393   7.356  0.1120 -0.0757 -0.0802
  985CHOL    C2 8887   1.915   5.678   7.472  0.2288  0.0265 -0.0858
  986CHOL   ROH 8888  10.935  14.740   5.466 -0.0107  0.1285  0.1346
  986CHOL    R1 8889  10.838  14.532   5.631 -0.0424  0.1268  0.1147
  986CHOL    R2 8890  10.991  14.312   5.699 -0.1211  0.0231 -0.0220
  986CHOL    R3 8891  10.927  14.386   5.953  0.0328 -0.0152  0.0284
  986CHOL    R4 8892  10.999  14.103   5.975 -0.1608 -0.0637 -0.0862
  986CHOL    R5 8893  10.815  14.196   6.044 -0.0632  0.0408  0.0159
  986CHOL    C1 8894  10.943  14.052   6.373 -0.0394 -0.1500 -0.0762
  986CHOL    C2 8895  11.133  13.873   6.647 -0.1236 -0.2759 -0.1528
  987XCA    COO 8896   3.730  14.602   3.914  0.0064  0.2537 -0.1418
  987XCA     C1 8897   3.907  14.575   4.398  0.2102 -0.3339 -0.0614
  987XCA     C2 8898   4.027  14.689   4.741 -0.2086 -0.2979 -0.2301
  987XCA     C3 8899   4.071  14.835   5.232 -0.1536  0.0728  0.1314
  987XCA     C4 8900   3.846  15.194   5.418 -0.0150 -0.1277  0.0948
  987XCA     C5 8901   3.672  15.294   5.854  0.0909  0.0241 -0.1492
  987XCA     C6 8902   3.824  15.454   6.260 -0.0101  0.0312 -0.0165
  988PNCE   AM1 8903  14.871  10.106   4.617  0.0718  0.2497 -0.0003
  988PNCE   AM2 8904  15.062  10.361   4.668  0.0089 -0.3207  0.2042
  988PNCE   T1A 8905  14.948  10.074   5.042 -0.1721 -0.0113 -0.1001
  988PNCE   C2A 8906  14.856  10.100   5.451  0.0894 -0.0622  0.4202
  988PNCE   C3A 8907  14.871  10.229   5.794 -0.1984  0.0602 -0.0220
  988PNCE   C1B 8908  15.413  10.365   4.771 -0.1950 -0.2055  0.3492
  988PNCE   C2B 8909  15.753  10.520   4.950  0.0750 -0.2814 -0.0660
  988PNCE   C3B 8910  15.727  10.716   5.302  0.1296 -0.2490 -0.0343
  988PNCE   D4B 8911  15.657  10.947   5.773 -0.2155  0.1029  0.0438
  988PNCE   C5B 8912  15.280  11.065   5.801  0.1287 -0.1567 -0.0171
  988PNCE   C6B 8913  14.871  11.296   5.821  0.4463 -0.0895 -0.1379
  989CHOL   ROH 8914   3.833   3.897   7.302  0.0679 -0.0152  0.0080
  989CHOL    R1 8915   3.681   3.954   7.070  0.0778 -0.0498 -0.0066
  989CHOL    R2 8916   3.623   3.762   6.879  0.1254 -0.0660 -0.0021
  989CHOL    R3 8917   3.367   3.839   6.926  0.1080 -0.1064 -0.0288
  989CHOL    R4 8918   3.375   3.780   6.639  0.1950  0.0658 -0.0661
  989CHOL    R5 8919   3.306   3.965   6.731  0.1596  0.0090  0.0267
  989CHOL    C1 8920   2.990   3.862   6.543  0.2192  0.1045 -0.1284
  989CHOL    C2 8921   2.994   3.777   6.183  0.0074 -0.4516 -0.1035
  990CHOL   ROH 8922   4.594   1.905   4.027  0.1201 -0.0840  0.0956
  990CHOL    R1 8923   4.553   1.667   4.175  0.2357 -0.1226  0.0667
  990CHOL    R2 8924   4.761   1.516   4.275  0.3072  0.0531  0.1844
  990CHOL    R3 8925   4.629   1.547   4.510  0.1425 -0.0644  0.1099
  990CHOL    R4 8926   4.731   1.273   4.519  0.3267 -0.0016  0.1327
  990CHOL    R5 8927   4.524   1.335   4.549  0.2620 -0.1438  0.0170
  990CHOL    C1 8928   4.590   1.161   4.882  0.1835 -0.1437  0.0325
  990CHOL    C2 8929   4.354   1.086   5.160  0.1637  0.0016 -0.3644
  991CHOL   ROH 8930  10.983   4.668   7.784 -0.0992 -0.2282  0.0836
  991CHOL    R1 8931  10.888   4.785   7.545 -0.0247 -0.1080  0.1124
  991CHOL    R2 8932  11.024   4.764   7.305 -0.0227 -0.1085  0.1160
  991CHOL    R3 8933  10.786   4.668   7.216 -0.0686  0.0428  0.0709
  991CHOL    R4 8934  10.860   4.875   7.022  0.0959  0.0092  0.0922
  991CHOL    R5 8935  10.672   4.861   7.131  0.0660  0.1207  0.0605
  991CHOL    C1 8936  10.541   4.849   6.773  0.1218  0.2198  0.0361
  991CHOL    C2 8937  10.425   5.098   6.505  0.0090  0.0580 -0.0280
  992CHOL   ROH 8938  14.848  11.884   8.050 -0.1448 -0.1927  0.0653
  992CHOL    R1 8939  14.660  11.741   7.894 -0.0585 -0.2344 -0.0008
  992CHOL    R2 8940  14.637  11.775   7.621 -0.0500 -0.1517  0.0116
  992CHOL    R3 8941  14.671  11.506   7.617  0.0839 -0.1351 -0.0824
  992CHOL    R4 8942  14.556  11.570   7.355 -0.3699 -0.1419  0.0977
  992CHOL    R5 8943  14.480  11.424   7.498 -0.0725 -0.2081  0.2023
  992CHOL    C1 8944  14.540  11.197   7.197 -0.4303 -0.1206  0.0595
  992CHOL    C2 8945  14.556  11.075   6.922  0.1699 -0.0412 -0.2352
  993CHOL   ROH 8946   2.481   6.481   5.219  0.0766 -0.0271  0.1891
  993CHOL    R1 8947   2.476   6.338   5.463  0.1452  0.0058  0.2114
  993CHOL    R2 8948   2.404   6.456   5.703  0.1513  0.0259  0.2121
  993CHOL    R3 8949   2.226   6.250   5.713  0.1997 -0.0122  0.2562
  993CHOL    R4 8950   2.213   6.373   5.979  0.1138  0.0703  0.1986
  993CHOL    R5 8951   2.249   6.163   5.935  0.1712  0.0711  0.2853
  993CHOL    C1 8952   1.935   6.132   6.149  0.1375  0.0603  0.2321
  993CHOL    C2 8953   1.546   6.459   6.399  0.2734  0.0505 -0.0294
  994CHOL   ROH 8954   3.753   9.010   9.160  0.2702 -0.0477 -0.0905
  994CHOL    R1 8955   3.676   8.946   8.896  0.1903 -0.0675 -0.0627
  994CHOL    R2 8956   3.412   8.926   8.818  0.1659  0.1820 -0.0416
  994CHOL    R3 8957   3.488   9.106   8.628  0.3461  0.0311 -0.1156
  994CHOL    R4 8958   3.300   8.928   8.491 -0.0983  0.3510  0.0464
  994CHOL    R5 8959   3.502   8.977   8.427 -0.0490 -0.0223 -0.1194
  994CHOL    C1 8960   3.306   9.097   8.123 -0.0829  0.3077  0.0283
  994CHOL    C2 8961   3.034   9.275   7.856 -0.0466  0.0205  0.1242
  995PNCE   AM1 8962  10.145  13.840   5.662 -0.3781 -0.1000  0.0054
  995PNCE   AM2 8963  10.010  14.009   5.457  0.4843 -0.1038  0.0838
  995PNCE   T1A 8964  10.277  13.981   6.064  0.2057  0.2676 -0.1735
  995PNCE   C2A 8965  10.463  14.170   6.476  0.1354  0.1624  0.1286
  995PNCE   C3A 8966  10.784  14.355   6.720  0.3136 -0.1455 -0.0670
  995PNCE   C1B 8967   9.858  14.231   5.781  0.2542  0.3309 -0.1277
  995PNCE   C2B 8968   9.979  14.474   6.207 -0.0150  0.1412  0.2077
  995PNCE   C3B 8969  10.222  14.566   6.476  0.2955 -0.0772  0.1336
  995PNCE   D4B 8970  10.091  14.483   6.842  0.0746  0.2950 -0.0954
  995PNCE   C5B 8971  10.045  14.810   7.134  0.2033  0.1748  0.0125
  995PNCE   C6B 8972  10.197  14.914   7.547 -0.2106 -0.0814 -0.0197
  996CHOL   ROH 8973  13.225   1.515   6.867  0.3131 -0.2068  0.0194
  996CHOL    R1 8974  13.034   1.398   6.694  0.2453 -0.1300  0.0421
  996CHOL    R2 8975  13.021   1.126   6.650  0.1364 -0.1226  0.0372
  996CHOL    R3 8976  12.761   1.159   6.724  0.1572 -0.0272  0.0713
  996CHOL    R4 8977  12.758   0.933   6.536  0.0454 -0.0004  0.0364
  996CHOL    R5 8978  12.637   1.114   6.523  0.1168  0.0526  0.0767
  996CHOL    C1 8979  12.361   0.851   6.539  0.0120  0.1602  0.0680
  996CHOL    C2 8980  12.215   0.520   6.591 -0.3954  0.1620 -0.3459
  997PNCE   AM1 8981  13.680   8.510   5.469  0.3980  0.0962  0.1089
  997PNCE   AM2 8982  13.502   8.739   5.388  0.0530  0.0381 -0.0834
  997PNCE   T1A 8983  13.645   8.631   5.852 -0.0530  0.1926 -0.0216
  997PNCE   C2A 8984  13.716   8.667   6.359 -0.0146  0.1462 -0.0056
  997PNCE   C3A 8985  13.864   8.349   6.719 -0.3976 -0.0621  0.1041
  997PNCE   C1B 8986  13.221   8.439   5.718 -0.1083 -0.0818 -0.1049
  997PNCE   C2B 8987  13.067   8.201   6.060 -0.1625  0.0106  0.2884
  997PNCE   C3B 8988  12.827   8.174   6.396 -0.0649  0.1813 -0.0810
  997PNCE   D4B 8989  12.441   8.402   6.441 -0.0890  0.0766  0.1724
  997PNCE   C5B 8990  12.161   8.401   6.857 -0.0090 -0.2999 -0.3784
  997PNCE   C6B 8991  12.017   8.019   7.092 -0.0548 -0.0343 -0.1428
  998PNCE   AM1 8992   0.526   7.616   5.145 -0.0437 -0.0867 -0.1698
  998PNCE   AM2 8993   0.294   7.811   5.103 -0.0682 -0.1049 -0.3405
  998PNCE   T1A 8994   0.609   7.432   5.460  0.1859  0.1365  0.0775
  998PNCE   C2A 8995   1.027   7.316   5.561  0.0729  0.3300 -0.0415
  998PNCE   C3A 8996   0.983   7.138   5.932  0.0079  0.1850  0.0035
  998PNCE   C1B 8997   0.321   7.799   5.550 -0.0855  0.0736 -0.2769
  998PNCE   C2B 8998   0.242   7.645   5.993  0.0558  0.1112 -0.2010
  998PNCE   C3B 8999   0.151   7.868   6.472  0.2330  0.0040 -0.0690
  998PNCE   D4B 9000   0.304   8.166   6.743  0.0410 -0.1299  0.1910
  998PNCE   C5B 9001   0.695   8.076   6.858  0.0200 -0.3472 -0.4463
  998PNCE   C6B 9002   1.032   8.223   7.030  0.0428 -0.0772  0.0584
  999CHOL   ROH 9003   2.204   5.720   8.245  0.0195  0.0855  0.1159
  999CHOL    R1 9004   2.307   5.865   8.025  0.0391  0.0832  0.1233
  999CHOL    R2 9005   2.266   5.787   7.763  0.0486  0.0885  0.1184
  999CHOL    R3 9006   2.171   6.040   7.736  0.0627  0.0937  0.1193
  999CHOL    R4 9007   2.261   5.964   7.467  0.0526  0.0923  0.1208
  999CHOL    R5 9008   2.320   6.142   7.579  0.0635  0.0871  0.1184
  999CHOL    C1 9009   2.169   6.306   7.269  0.0680  0.0995  0.1229
  999CHOL    C2 9010   2.423   6.235   6.977  0.0096  0.1326  0.1413
 1000CHOL   ROH 9011   0.167   6.024   8.419  0.0666 -0.0748 -0.1183
 1000CHOL    R1 9012   0.097   6.179   8.193 -0.0713 -0.0182 -0.0379
 1000CHOL    R2 9013   0.285   6.279   8.017 -0.1688  0.1419 -0.0508
 1000CHOL    R3 9014   0.134   6.150   7.832 -0.1584  0.1431 -0.0607
 1000CHOL    R4 9015   0.313   6.320   7.675 -0.1070  0.1016 -0.0508
 1000CHOL    R5 9016   0.096   6.314   7.661 -0.1073  0.1315 -0.0846
 1000CHOL    C1 9017   0.188   6.223   7.302 -0.0613  0.0793 -0.0602
 1000CHOL    C2 9018   0.028   6.180   6.933  0.1626 -0.3390 -0.2988
 1001XCA    COO 9019  15.298   9.811   8.751 -0.1673  0.0548  0.0180
 1001XCA     C1 9020  15.151  10.008   8.320 -0.0762  0.0529 -0.2687
 1001XCA     C2 9021  14.998  10.007   7.978  0.0459 -0.5150  0.0586
 1001XCA     C3 9022  14.992  10.055   7.502 -0.0002 -0.2029 -0.1236
 1001XCA     C4 9023  14.897   9.693   7.283 -0.2756 -0.1855 -0.2365
 1001XCA     C5 9024  14.543   9.492   7.151 -0.0301 -0.0171 -0.0127
 1001XCA     C6 9025  14.297   9.214   6.858 -0.0806 -0.0903  0.3173
 1002CHOL   ROH 9026   5.126   3.496   6.161 -0.1237 -0.1649  0.0872
 1002CHOL    R1 9027   4.881   3.416   6.045 -0.1297 -0.1747  0.1080
 1002CHOL    R2 9028   4.846   3.393   5.772 -0.2307  0.0945  0.0968
 1002CHOL    R3 9029   4.763   3.142   5.836 -0.0704 -0.0218 -0.1323
 1002CHOL    R4 9030   4.678   3.179   5.558 -0.2280  0.2419 -0.0561
 1002CHOL    R5 9031   4.552   3.118   5.726 -0.1157 -0.0055 -0.0536
 1002CHOL    C1 9032   4.503   2.819   5.495 -0.0758  0.2186 -0.3602
 1002CHOL    C2 9033   4.197   2.914   5.301  0.1652 -0.4218 -0.1039
 1003PNCE   AM1 9034   9.238  12.630   5.077 -0.2432 -0.4083 -0.0510
 1003PNCE   AM2 9035   9.559  12.794   5.047 -0.0799  0.2741  0.3213
 1003PNCE   T1A 9036   9.402  12.233   5.188 -0.1326  0.0382  0.2617
 1003PNCE   C2A 9037   9.557  11.885   5.388 -0.2196  0.1697  0.0325
 1003PNCE   C3A 9038   9.652  11.582   5.724  0.2635  0.2777  0.1050
 1003PNCE   C1B 9039   9.590  12.525   5.549  0.0031 -0.0372  0.2352
 1003PNCE   C2B 9040   9.284  12.663   5.926  0.0129  0.3421 -0.0786
 1003PNCE   C3B 9041   9.133  12.628   6.326  0.0204 -0.2684  0.1908
 1003PNCE   D4B 9042   8.801  12.498   6.635  0.1724  0.0927 -0.1965
 1003PNCE   C5B 9043   8.774  12.792   6.997 -0.2356  0.1669  0.1200
 1003PNCE   C6B 9044   8.804  13.234   7.146 -0.1583 -0.2752  0.2293
 1004CHOL   ROH 9045   3.630   2.974   4.405 -0.1918  0.1546  0.0072
 1004CHOL    R1 9046   3.624   2.785   4.616 -0.0544  0.1213 -0.0190
 1004CHOL    R2 9047   3.851   2.707   4.752  0.0093  0.2218 -0.0742
 1004CHOL    R3 9048   3.707   2.781   4.970  0.0116  0.1117 -0.0334
 1004CHOL    R4 9049   3.919   2.610   5.076  0.1343  0.2108 -0.1024
 1004CHOL    R5 9050   3.705   2.587   5.109  0.1498  0.0867 -0.0608
 1004CHOL    C1 9051   3.823   2.622   5.470  0.2092  0.1010 -0.0805
 1004CHOL    C2 9052   4.122   2.843   5.787 -0.0097  0.0232  0.1141
 1005PNCE   AM1 9053   0.835  13.237   8.025 -0.1115 -0.3069  0.1762
 1005PNCE   AM2 9054   1.074  13.139   7.932  0.0195 -0.2407  0.0294
 1005PNCE   T1A 9055   0.766  12.814   8.024  0.2402 -0.0328  0.0422
 1005PNCE   C2A 9056   0.865  12.409   7.894  0.2150 -0.7660  0.1501
 1005PNCE   C3A 9057   0.836  12.057   7.554 -0.0997  0.2247 -0.1409
 1005PNCE   C1B 9058   1.152  13.067   7.493 -0.0787  0.1057  0.3273
 1005PNCE   C2B 9059   1.049  13.232   7.118 -0.1390  0.1233  0.3555
 1005PNCE   C3B 9060   0.789  13.572   7.023 -0.3128 -0.0413  0.3224
 1005PNCE   D4B 9061   0.680  14.073   6.947  0.2219  0.2351  0.0327
 1005PNCE   C5B 9062   0.470  14.026   6.515  0.0638 -0.1002  0.0174
 1005PNCE   C6B 9063   0.554  14.029   6.118 -0.2962 -0.2117 -0.2866
 1006PNCE   AM1 9064   0.167   7.095   4.966 -0.0697 -0.0018 -0.3861
 1006PNCE   AM2 9065   0.001   7.386   4.859  0.2161  0.0308  0.2097
 1006PNCE   T1A 9066   0.460   7.003   5.239  0.0459  0.1999 -0.1135
 1006PNCE   C2A 9067   0.727   6.917   5.515  0.1706 -0.1471  0.0732
 1006PNCE   C3A 9068   0.666   6.714   5.960  0.0262  0.1294 -0.0100
 1006PNCE   C1B 9069   0.003   7.494   5.289 -0.1040  0.2823  0.0341
 1006PNCE   C2B 9070  -0.120   7.652   5.676  0.1637 -0.1157  0.1748
 1006PNCE   C3B 9071  -0.283   7.695   6.114 -0.0121  0.0647  0.1507
 1006PNCE   D4B 9072  -0.361   8.115   6.242  0.1018  0.3828 -0.2196
 1006PNCE   C5B 9073  -0.455   8.370   5.873  0.3621  0.1830 -0.1727
 1006PNCE   C6B 9074  -0.649   8.532   5.437 -0.2439  0.1132 -0.0724
 1007PNCE   AM1 9075   9.567   8.681   5.088 -0.0672 -0.0257 -0.1293
 1007PNCE   AM2 9076   9.611   8.989   5.172  0.3271 -0.1289  0.0147
 1007PNCE   T1A 9077   9.950   8.670   5.434 -0.1756  0.1472  0.2412
 1007PNCE   C2A 9078  10.206   8.926   5.760 -0.0395 -0.2788 -0.2363
 1007PNCE   C3A 9079  10.690   8.888   5.905  0.1098 -0.1228  0.0045
 1007PNCE   C1B 9080   9.221   9.208   5.411  0.0772 -0.1915 -0.1303
 1007PNCE   C2B 9081   8.853   9.108   5.745 -0.3292 -0.2701  0.0136
 1007PNCE   C3B 9082   8.870   9.182   6.239 -0.3038 -0.0916 -0.1085
 1007PNCE   D4B 9083   8.594   9.177   6.586 -0.4447 -0.2830 -0.4180
 1007PNCE   C5B 9084   8.403   9.151   6.944 -0.1248  0.0786 -0.0017
 1007PNCE   C6B 9085   8.330   8.985   7.276 -0.0910 -0.0490  0.0840
 1008CHOL   ROH 9086   9.543   2.572   8.742 -0.1582 -0.0974  0.0254
 1008CHOL    R1 9087   9.470   2.365   8.564 -0.2280 -0.0440 -0.0077
 1008CHOL    R2 9088   9.250   2.383   8.397 -0.0543  0.1811 -0.2154
 1008CHOL    R3 9089   9.433   2.327   8.204  0.0651 -0.0601 -0.0392
 1008CHOL    R4 9090   9.181   2.213   8.104 -0.0421  0.4066 -0.3515
 1008CHOL    R5 9091   9.372   2.109   8.126 -0.2347  0.0656 -0.1806
 1008CHOL    C1 9092   9.313   2.062   7.752  0.0770  0.3113 -0.2654
 1008CHOL    C2 9093   9.384   1.828   7.392  0.0075  0.2158 -0.3167
 1009CHOL   ROH 9094   4.118   3.828   5.446 -0.0451  0.1433 -0.0016
 1009CHOL    R1 9095   3.992   3.677   5.649 -0.0011  0.0680 -0.0302
 1009CHOL    R2 9096   3.967   3.769   5.909 -0.1504  0.0712 -0.0473
 1009CHOL    R3 9097   3.704   3.717   5.868 -0.1020 -0.1247 -0.1240
 1009CHOL    R4 9098   3.748   3.655   6.150 -0.1927  0.1800 -0.0336
 1009CHOL    R5 9099   3.659   3.524   6.001 -0.0464 -0.0234  0.0492
 1009CHOL    C1 9100   3.372   3.540   6.252 -0.1720  0.0595 -0.0977
 1009CHOL    C2 9101   3.061   3.431   6.547  0.0016  0.0255 -0.1899
 1010CHOL   ROH 9102   3.819  13.075   6.805  0.0985  0.1784  0.1445
 1010CHOL    R1 9103   3.553  13.017   6.880  0.0415  0.1703 -0.0578
 1010CHOL    R2 9104   3.352  12.974   6.695  0.2243 -0.0359 -0.2135
 1010CHOL    R3 9105   3.318  12.743   6.834  0.1587  0.0687 -0.0528
 1010CHOL    R4 9106   3.051  12.861   6.820  0.1504  0.0243 -0.3355
 1010CHOL    R5 9107   3.155  12.796   7.000  0.0331  0.1801 -0.2091
 1010CHOL    C1 9108   2.843  12.578   7.024  0.0458  0.1576 -0.2556
 1010CHOL    C2 9109   2.489  12.507   6.992 -0.1288  0.1851  0.1047
 1011XCA    COO 9110   7.685   3.781   4.496  0.0042  0.3449 -0.0233
 1011XCA     C1 9111   7.454   3.750   4.873  0.0414 -0.1352  0.0570
 1011XCA     C2 9112   7.386   3.835   5.268 -0.1237  0.0866  0.1742
 1011XCA     C3 9113   7.562   4.098   5.522 -0.0148 -0.2022 -0.1362
 1011XCA     C4 9114   7.657   4.320   5.886  0.0386  0.2366 -0.1934
 1011XCA     C5 9115   7.506   4.165   6.263 -0.1112 -0.3385  0.0411
 1011XCA     C6 9116   7.487   3.964   6.625  0.1050  0.0807  0.1643
 1012PNCE   AM1 9117   5.599   5.572   4.835 -0.1021 -0.1940  0.0302
 1012PNCE   AM2 9118   5.771   5.390   4.631 -0.0324  0.0859  0.0968
 1012PNCE   T1A 9119   5.590   5.419   5.133  0.0413 -0.0691 -0.0718
 1012PNCE   C2A 9120   5.515   5.100   5.417 -0.0963 -0.0085 -0.0358
 1012PNCE   C3A 9121   5.421   5.005   5.777 -0.0507  0.0317  0.3902
 1012PNCE   C1B 9122   5.982   5.142   5.023 -0.2111 -0.1017 -0.1281
 1012PNCE   C2B 9123   6.104   4.913   5.314 -0.2193  0.0782 -0.0527
 1012PNCE   C3B 9124   6.647   4.833   5.329 -0.0211  0.0202  0.1382
 1012PNCE   D4B 9125   6.947   4.865   5.661 -0.0365 -0.1633  0.0910
 1012PNCE   C5B 9126   6.814   4.508   5.831 -0.0695 -0.1076 -0.1395
 1012PNCE   C6B 9127   6.454   4.296   5.960  0.2389 -0.0426 -0.0376
 1013CHOL   ROH 9128  10.946   7.606   5.562 -0.0434 -0.0127  0.1722
 1013CHOL    R1 9129  10.954   7.499   5.825 -0.0058  0.0264  0.1879
 1013CHOL    R2 9130  11.172   7.530   5.992  0.0144  0.0652  0.1600
 1013CHOL    R3 9131  10.986   7.630   6.162  0.0263  0.0807  0.1629
 1013CHOL    R4 9132  11.186   7.506   6.336  0.1272  0.2641  0.1703
 1013CHOL    R5 9133  10.972   7.468   6.338  0.1469  0.1749  0.2579
 1013CHOL    C1 9134  11.020   7.586   6.697  0.2039  0.3945  0.1790
 1013CHOL    C2 9135  10.814   7.799   6.961  0.2009 -0.4462 -0.1867
 1014PNCE   AM1 9136   2.687   3.351   4.299  0.0244 -0.0038 -0.1043
 1014PNCE   AM2 9137   2.409   3.156   4.333 -0.0141  0.6310 -0.0966
 1014PNCE   T1A 9138   2.448   3.491   4.673  0.0579 -0.0659 -0.1914
 1014PNCE   C2A 9139   2.113   3.535   4.923  0.0663 -0.1461  0.3318
 1014PNCE   C3A 9140   1.731   3.511   5.099 -0.2150 -0.1652 -0.0461
 1014PNCE   C1B 9141   2.429   3.014   4.682  0.2485  0.0412  0.0264
 1014PNCE   C2B 9142   2.437   2.946   5.136 -0.2731  0.0557 -0.1749
 1014PNCE   C3B 9143   2.499   2.858   5.627  0.1765  0.2252 -0.0963
 1014PNCE   D4B 9144   2.970   2.952   5.694 -0.1067  0.0579 -0.0929
 1014PNCE   C5B 9145   3.188   2.541   5.763  0.0250 -0.0767  0.2426
 1014PNCE   C6B 9146   3.552   2.411   5.875 -0.0252 -0.2137  0.1019
 1015XCA    COO 9147   5.922   7.468   5.263 -0.0469 -0.1796  0.1279
 1015XCA     C1 9148   5.896   7.319   5.592 -0.1967  0.1771 -0.0921
 1015XCA     C2 9149   5.866   7.385   5.941 -0.4679  0.2536  0.3207
 1015XCA     C3 9150   5.936   7.149   6.365  0.3456 -0.0863  0.0369
 1015XCA     C4 9151   5.727   6.953   6.562 -0.0152 -0.1918  0.0479
 1015XCA     C5 9152   5.296   6.819   6.712 -0.2231 -0.0617  0.1093
 1015XCA     C6 9153   4.821   6.748   6.671  0.1678 -0.0668  0.0682
 1016CHOL   ROH 9154   4.438   9.686   9.059 -0.2073 -0.1425 -0.0551
 1016CHOL    R1 9155   4.565   9.710   8.807 -0.1841 -0.0349 -0.0339
 1016CHOL    R2 9156   4.523   9.530   8.601  0.0640 -0.1188 -0.0160
 1016CHOL    R3 9157   4.460   9.754   8.461 -0.1700 -0.2103 -0.0612
 1016CHOL    R4 9158   4.446   9.539   8.264  0.0176 -0.2669 -0.0098
 1016CHOL    R5 9159   4.562   9.722   8.247 -0.1629 -0.1585 -0.0640
 1016CHOL    C1 9160   4.342   9.755   7.937 -0.2291 -0.4391 -0.0485
 1016CHOL    C2 9161   4.433   9.845   7.585  0.0245  0.2085 -0.3629
 1017XCA    COO 9162  12.352   4.624   8.454 -0.0797 -0.0581  0.0930
 1017XCA     C1 9163  12.617   4.615   8.067  0.1060  0.2305 -0.0752
 1017XCA     C2 9164  12.739   4.607   7.681  0.2869  0.0757  0.0340
 1017XCA     C3 9165  12.754   4.861   7.262 -0.1020 -0.1764 -0.0233
 1017XCA     C4 9166  12.823   5.258   6.970 -0.0616 -0.2809 -0.1510
 1017XCA     C5 9167  12.978   5.693   7.053  0.0004  0.3496  0.1589
 1017XCA     C6 9168  13.071   5.964   7.382 -0.3408 -0.1311  0.2079
 1018CHOL   ROH 9169   0.506   7.161   8.503  0.0383  0.2817  0.0721
 1018CHOL    R1 9170   0.301   7.240   8.325  0.1407  0.2163 -0.0783
 1018CHOL    R2 9171   0.352   7.377   8.091  0.2921 -0.0123 -0.1878
 1018CHOL    R3 9172   0.212   7.173   7.978  0.2471 -0.0540 -0.0556
 1018CHOL    R4 9173   0.293   7.342   7.752  0.1271 -0.1247 -0.1475
 1018CHOL    R5 9174   0.090   7.276   7.799  0.1553 -0.1194 -0.0287
 1018CHOL    C1 9175   0.127   7.129   7.449 -0.0113 -0.2293  0.0002
 1018CHOL    C2 9176   0.136   7.240   7.015 -0.2533  0.0430 -0.0620
 1019PNCE   AM1 9177  10.418   0.544   9.130  0.2137  0.3180 -0.0051
 1019PNCE   AM2 9178  10.655   0.840   8.992  0.2137 -0.1848 -0.1552
 1019PNCE   T1A 9179  10.219   0.235   8.797  0.0161  0.0027  0.2684
 1019PNCE   C2A 9180  10.147  -0.069   8.448 -0.0444  0.1936  0.1579
 1019PNCE   C3A 9181  10.078  -0.173   8.028 -0.0394  0.1990 -0.1512
 1019PNCE   C1B 9182  10.567   0.647   8.559 -0.4374  0.0576 -0.0766
 1019PNCE   C2B 9183  10.526   0.731   8.081 -0.1802  0.1585  0.0216
 1019PNCE   C3B 9184  10.384   1.049   7.755 -0.0093 -0.2543 -0.0766
 1019PNCE   D4B 9185  10.486   1.487   7.932  0.3427  0.0954 -0.0867
 1019PNCE   C5B 9186  10.548   1.621   8.358 -0.1216 -0.3335  0.1534
 1019PNCE   C6B 9187  10.922   1.883   8.571  0.1452  0.1874 -0.1604
 1020XCA    COO 9188   4.681   4.089   8.237 -0.2513  0.1135 -0.1126
 1020XCA     C1 9189   4.905   4.250   7.929  0.0353  0.2836  0.2242
 1020XCA     C2 9190   5.007   4.613   7.710  0.2512 -0.3164 -0.1947
 1020XCA     C3 9191   4.990   4.867   7.302 -0.1296  0.0205 -0.3965
 1020XCA     C4 9192   4.804   5.055   6.982  0.1537 -0.3295 -0.0756
 1020XCA     C5 9193   4.902   5.013   6.527 -0.4982  0.1253 -0.2191
 1020XCA     C6 9194   5.119   4.807   6.170 -0.0972  0.2072  0.2643
 1021PNCE   AM1 9195  13.881   5.056   4.949 -0.0218 -0.1507 -0.1617
 1021PNCE   AM2 9196  13.877   5.015   4.649  0.1349 -0.0430  0.0387
 1021PNCE   T1A 9197  13.814   4.827   5.259 -0.1469 -0.2527 -0.0113
 1021PNCE   C2A 9198  14.131   4.674   5.556  0.1136  0.0144 -0.2228
 1021PNCE   C3A 9199  14.417   4.464   5.794  0.1088  0.1330 -0.0189
 1021PNCE   C1B 9200  14.357   4.924   4.760 -0.1340  0.0009  0.3253
 1021PNCE   C2B 9201  14.396   4.635   4.748 -0.1495 -0.0725  0.1116
 1021PNCE   C3B 9202  14.455   4.503   5.118  0.2987 -0.2528 -0.0378
 1021PNCE   D4B 9203  14.712   4.356   5.421  0.3079  0.0298  0.0010
 1021PNCE   C5B 9204  14.503   3.962   5.721  0.1820  0.2104  0.1932
 1021PNCE   C6B 9205  14.319   3.783   6.169 -0.3857  0.0456  0.1515
 1022XCA    COO 9206   0.347   8.614   8.735  0.2882  0.1861 -0.0349
 1022XCA     C1 9207   0.132   8.484   8.306  0.3012 -0.0775  0.0001
 1022XCA     C2 9208   0.020   8.238   7.952 -0.0129 -0.4067  0.0669
 1022XCA     C3 9209   0.050   8.437   7.599 -0.2325 -0.1099  0.2091
 1022XCA     C4 9210   0.008   8.525   7.243  0.1122 -0.1117  0.1061
 1022XCA     C5 9211  -0.163   8.527   6.872 -0.0911  0.0905  0.3061
 1022XCA     C6 9212  -0.301   8.564   6.442 -0.3674 -0.0607  0.2834
 1023CHOL   ROH 9213   4.454  13.212   4.608 -0.3535  0.1717 -0.2483
 1023CHOL    R1 9214   4.571  13.260   4.862 -0.0896  0.1360 -0.3585
 1023CHOL    R2 9215   4.556  13.505   4.989 -0.1856  0.0517 -0.1931
 1023CHOL    R3 9216   4.454  13.357   5.193  0.2088 -0.1809 -0.1545
 1023CHOL    R4 9217   4.613  13.565   5.324 -0.2667  0.2250 -0.2105
 1023CHOL    R5 9218   4.630  13.350   5.355  0.2622  0.2620 -0.1872
 1023CHOL    C1 9219   4.549  13.462   5.711  0.0563  0.1075 -0.1846
 1023CHOL    C2 9220   4.704  13.154   5.963 -0.1561 -0.2047 -0.0331
 1024XCA    COO 9221   6.254   0.631   4.466 -0.0996  0.0139 -0.1607
 1024XCA     C1 9222   6.445   0.544   4.890 -0.0321 -0.0261 -0.0276
 1024XCA     C2 9223   6.735   0.396   5.158 -0.0964 -0.1114 -0.3234
 1024XCA     C3 9224   6.822   0.262   5.663  0.2665  0.1000  0.0210
 1024XCA     C4 9225   6.939   0.183   6.132 -0.0969 -0.0580 -0.2017
 1024XCA     C5 9226   7.102   0.466   6.414 -0.0610 -0.1937 -0.2009
 1024XCA     C6 9227   7.224   0.717   6.818  0.0106  0.0831 -0.0756
 1025CHOL   ROH 9228   6.685   1.983   8.458  0.1186  0.1188 -0.0721
 1025CHOL    R1 9229   6.862   1.955   8.239  0.0446  0.1021 -0.1298
 1025CHOL    R2 9230   6.981   1.715   8.174  0.0602  0.1098 -0.1202
 1025CHOL    R3 9231   6.872   1.765   7.930 -0.0334  0.0383 -0.0941
 1025CHOL    R4 9232   7.104   1.594   7.874  0.0090  0.1032 -0.1389
 1025CHOL    R5 9233   7.060   1.788   7.784 -0.0831  0.0783 -0.1555
 1025CHOL    C1 9234   7.072   1.571   7.470 -0.1088  0.0322 -0.1252
 1025CHOL    C2 9235   6.957   1.611   7.074  0.0565 -0.0178  0.2293
 1026CHOL   ROH 9236   8.733   3.231   5.084  0.0161  0.0739 -0.2333
 1026CHOL    R1 9237   8.565   3.158   5.300  0.1644  0.0185 -0.1357
 1026CHOL    R2 9238   8.574   3.283   5.546  0.2456  0.0399 -0.1513
 1026CHOL    R3 9239   8.308   3.318   5.502  0.2055 -0.0758 -0.0068
 1026CHOL    R4 9240   8.337   3.315   5.795  0.4027  0.1899 -0.0179
 1026CHOL    R5 9241   8.203   3.190   5.676  0.3573  0.0440  0.1790
 1026CHOL    C1 9242   7.949   3.366   5.899  0.4566  0.1685  0.1956
 1026CHOL    C2 9243   7.643   3.326   6.097 -0.1322 -0.1960 -0.1655
 1027PNCE   AM1 9244   1.365  11.226   4.571 -0.4983  0.3203 -0.2291
 1027PNCE   AM2 9245   1.620  11.509   4.496  0.1563 -0.2437  0.0423
 1027PNCE   T1A 9246   1.094  11.214   4.845  0.0944 -0.1102  0.0274
 1027PNCE   C2A 9247   1.060  11.039   5.271 -0.1628 -0.0023 -0.1034
 1027PNCE   C3A 9248   0.940  10.997   5.688 -0.4004 -0.1161  0.1223
 1027PNCE   C1B 9249   1.701  11.333   4.947 -0.0407  0.0373  0.1612
 1027PNCE   C2B 9250   1.903  11.485   5.395  0.4664 -0.0681 -0.0798
 1027PNCE   C3B 9251   1.729  11.695   5.703  0.1062  0.2547  0.2819
 1027PNCE   D4B 9252   1.612  12.110   5.993  0.1182  0.1619  0.4363
 1027PNCE   C5B 9253   1.595  12.478   5.869  0.1916  0.0752 -0.2034
 1027PNCE   C6B 9254   1.590  12.944   6.105  0.0489  0.0742 -0.1217
 1028CHOL   ROH 9255   2.740   4.158   4.784 -0.0655  0.2991  0.0576
 1028CHOL    R1 9256   2.636   4.250   5.031 -0.1624  0.0169  0.1262
 1028CHOL    R2 9257   2.575   4.079   5.240  0.2171 -0.1815  0.0842
 1028CHOL    R3 9258   2.739   4.244   5.380 -0.0385  0.0759  0.0909
 1028CHOL    R4 9259   2.572   4.117   5.584  0.1304 -0.1657  0.0819
 1028CHOL    R5 9260   2.602   4.331   5.556 -0.1862 -0.1179  0.0733
 1028CHOL    C1 9261   2.724   4.293   5.915 -0.1600  0.0852  0.0869
 1028CHOL    C2 9262   3.021   4.331   6.065 -0.0412 -0.0387  0.0327
 1029PNCE   AM1 9263  11.478   2.403   4.819  0.2220 -0.0040  0.0460
 1029PNCE   AM2 9264  11.454   2.195   4.644  0.2552  0.0987 -0.0426
 1029PNCE   T1A 9265  11.601   2.229   5.205 -0.3411 -0.1284  0.0012
 1029PNCE   C2A 9266  11.711   2.332   5.541  0.1106  0.0025  0.2403
 1029PNCE   C3A 9267  12.043   2.208   5.871  0.2917  0.1876  0.0213
 1029PNCE   C1B 9268  10.906   2.257   4.567 -0.1670 -0.2631 -0.1378
 1029PNCE   C2B 9269  10.502   2.523   4.673 -0.1154  0.3495  0.1265
 1029PNCE   C3B 9270  10.285   2.558   5.016  0.0815 -0.2972 -0.3015
 1029PNCE   D4B 9271  10.038   2.275   5.187  0.1812 -0.0334 -0.1686
 1029PNCE   C5B 9272  10.279   2.198   5.528 -0.1983 -0.1859 -0.0809
 1029PNCE   C6B 9273  10.236   2.300   5.946  0.1004 -0.2342 -0.1378
 1030XCA    COO 9274  11.422   7.685   5.588 -0.1354 -0.2898 -0.2089
 1030XCA     C1 9275  11.641   7.703   5.956  0.0799 -0.0850 -0.2170
 1030XCA     C2 9276  11.651   7.567   6.423  0.0086 -0.1592 -0.1634
 1030XCA     C3 9277  11.439   7.645   6.753 -0.0957 -0.3551  0.0275
 1030XCA     C4 9278  11.568   7.869   7.050 -0.0198 -0.1121  0.0110
 1030XCA     C5 9279  11.590   7.893   7.463 -0.0608 -0.2494 -0.0006
 1030XCA     C6 9280  12.108   8.129   7.526 -0.0100  0.1234 -0.4106
 1031CHOL   ROH 9281   0.766  13.264   7.469 -0.1990 -0.3635 -0.2531
 1031CHOL    R1 9282   0.525  13.223   7.327 -0.2432 -0.1256 -0.2517
 1031CHOL    R2 9283   0.305  13.388   7.357 -0.1283  0.0168 -0.1510
 1031CHOL    R3 9284   0.325  13.409   7.086 -0.1361  0.1339 -0.1423
 1031CHOL    R4 9285   0.040  13.440   7.141 -0.1304  0.1200 -0.1233
 1031CHOL    R5 9286   0.131  13.299   7.003 -0.1404  0.1787 -0.1863
 1031CHOL    C1 9287  -0.095  13.490   6.762 -0.1390  0.2901 -0.0989
 1031CHOL    C2 9288  -0.320  13.383   6.486  0.1866  0.0808  0.2048
 1032PNCE   AM1 9289  12.145  14.690   4.948 -0.2988 -0.0195  0.0155
 1032PNCE   AM2 9290  12.270  14.466   4.817  0.1260 -0.1598  0.1766
 1032PNCE   T1A 9291  12.035  14.234   5.153 -0.1129  0.0550 -0.0782
 1032PNCE   C2A 9292  11.894  13.815   5.217  0.3295 -0.0337  0.2040
 1032PNCE   C3A 9293  11.705  13.346   5.190  0.1755  0.0735  0.5633
 1032PNCE   C1B 9294  12.530  14.399   5.273  0.2112 -0.0121 -0.0743
 1032PNCE   C2B 9295  12.586  14.419   5.766 -0.2295  0.0764 -0.3669
 1032PNCE   C3B 9296  12.718  14.156   6.132 -0.0855 -0.1710  0.0276
 1032PNCE   D4B 9297  12.978  13.687   6.104 -0.0843 -0.0927  0.0823
 1032PNCE   C5B 9298  13.133  13.477   5.812 -0.3639  0.3415  0.0275
 1032PNCE   C6B 9299  13.353  13.116   5.866  0.1892  0.0572 -0.1667
 1033PNCE   AM1 9300   3.063   5.320   8.231 -0.1899 -0.0082 -0.3625
 1033PNCE   AM2 9301   2.900   5.024   8.128  0.0138 -0.0821  0.2880
 1033PNCE   T1A 9302   3.125   5.651   7.883 -0.0485  0.0480  0.1472
 1033PNCE   C2A 9303   3.337   5.705   7.427  0.1240  0.1897  0.0282
 1033PNCE   C3A 9304   3.067   5.755   7.093  0.0384  0.1222 -0.0473
 1033PNCE   C1B 9305   2.785   5.071   7.762 -0.4067  0.0402 -0.1212
 1033PNCE   C2B 9306   2.645   4.987   7.331  0.0729 -0.1122  0.1191
 1033PNCE   C3B 9307   2.197   5.086   7.144  0.1765 -0.2195 -0.2705
 1033PNCE   D4B 9308   2.108   5.297   6.804 -0.0153  0.1288 -0.2707
 1033PNCE   C5B 9309   2.488   5.433   6.647 -0.1163 -0.2703 -0.1527
 1033PNCE   C6B 9310   2.839   5.721   6.590  0.0701 -0.5918  0.2842
 1034PNCE   AM1 9311   8.508  10.520   4.470  0.2610 -0.2557  0.3197
 1034PNCE   AM2 9312   8.544  10.810   4.464 -0.0409  0.1635 -0.1261
 1034PNCE   T1A 9313   8.342  10.505   4.930 -0.3627 -0.0827 -0.0737
 1034PNCE   C2A 9314   8.237  10.535   5.337 -0.1829 -0.0250  0.1781
 1034PNCE   C3A 9315   8.218  10.960   5.717  0.1264 -0.2070  0.2565
 1034PNCE   C1B 9316   8.566  10.966   4.851  0.0259  0.4949  0.1518
 1034PNCE   C2B 9317   8.600  10.914   5.320  0.1254 -0.0172  0.3311
 1034PNCE   C3B 9318   8.552  10.603   5.722  0.0851 -0.0881  0.1212
 1034PNCE   D4B 9319   8.298  10.700   6.123 -0.0135  0.2579  0.0334
 1034PNCE   C5B 9320   8.541  10.623   6.416  0.1200 -0.1597 -0.3629
 1034PNCE   C6B 9321   8.606  10.470   6.913 -0.3262 -0.0175 -0.0745
 1035CHOL   ROH 9322   0.858   3.454   4.306  0.2188 -0.3662 -0.0040
 1035CHOL    R1 9323   0.903   3.345   4.563  0.2711 -0.1310  0.0903
 1035CHOL    R2 9324   1.042   3.481   4.761  0.0814  0.1670  0.0348
 1035CHOL    R3 9325   0.817   3.433   4.906  0.0889  0.0357  0.0015
 1035CHOL    R4 9326   1.031   3.450   5.105  0.0667 -0.0465  0.0151
 1035CHOL    R5 9327   0.889   3.287   5.081  0.1033 -0.0538 -0.0863
 1035CHOL    C1 9328   0.814   3.386   5.441  0.0652 -0.2941 -0.0276
 1035CHOL    C2 9329   0.793   3.526   5.868 -0.2180 -0.3057 -0.0397
 1036PNCE   AM1 9330  15.468   0.168   4.262  0.0273 -0.2332 -0.0427
 1036PNCE   AM2 9331  15.434  -0.049   4.059 -0.2131 -0.2632 -0.1236
 1036PNCE   T1A 9332  15.458   0.349   4.654 -0.2203  0.1269 -0.0943
 1036PNCE   C2A 9333  15.340   0.430   4.991  0.1183  0.2533 -0.2217
 1036PNCE   C3A 9334  15.398   0.500   5.453  0.1494 -0.2771 -0.2419
 1036PNCE   C1B 9335  15.338  -0.144   4.598  0.2642  0.4127 -0.1616
 1036PNCE   C2B 9336  15.395  -0.047   5.154  0.0223  0.1676  0.0072
 1036PNCE   C3B 9337  15.217   0.021   5.515 -0.1577 -0.2010 -0.1792
 1036PNCE   D4B 9338  15.003  -0.173   5.786 -0.6077 -0.1243 -0.0119
 1036PNCE   C5B 9339  15.100  -0.567   5.999  0.2215 -0.3384  0.0094
 1036PNCE   C6B 9340  15.409  -0.853   6.037  0.0935 -0.2257 -0.2779
 1037XCA    COO 9341   7.328   8.976   8.079 -0.0649 -0.1203  0.0540
 1037XCA     C1 9342   7.100   9.190   7.770 -0.2298 -0.1087 -0.3137
 1037XCA     C2 9343   7.318   9.329   7.520 -0.0851  0.0012  0.1470
 1037XCA     C3 9344   7.419   9.334   7.203 -0.0743  0.0375  0.1049
 1037XCA     C4 9345   7.644   9.055   6.871  0.1521 -0.0433  0.1656
 1037XCA     C5 9346   7.866   9.005   6.588  0.2783 -0.1533 -0.1182
 1037XCA     C6 9347   8.220   8.931   6.220  0.2505  0.1779  0.0253
 1038PNCE   AM1 9348  11.806   4.075   8.313  0.1767 -0.2478 -0.1701
 1038PNCE   AM2 9349  12.044   3.822   8.441  0.1101 -0.2560  0.0988
 1038PNCE   T1A 9350  11.866   4.250   7.967  0.0285 -0.0650 -0.0192
 1038PNCE   C2A 9351  11.892   4.619   7.503 -0.1259 -0.0075  0.1600
 1038PNCE   C3A 9352  12.117   4.807   7.251  0.0325  0.0551 -0.0322
 1038PNCE   C1B 9353  12.074   3.837   7.907  0.1398  0.2304 -0.0648
 1038PNCE   C2B 9354  12.213   3.815   7.541 -0.0572 -0.1361 -0.2502
 1038PNCE   C3B 9355  12.627   3.966   7.362  0.0534 -0.3230 -0.1000
 1038PNCE   D4B 9356  12.881   3.954   7.036 -0.0513 -0.1898  0.1508
 1038PNCE   C5B 9357  12.799   3.753   6.615 -0.2129 -0.0344  0.0156
 1038PNCE   C6B 9358  12.565   3.398   6.591 -0.3107 -0.0315 -0.2437
 1039CHOL   ROH 9359  10.459   6.660   7.440 -0.1584  0.0181 -0.1278
 1039CHOL    R1 9360  10.694   6.758   7.316 -0.2176  0.1261 -0.1586
 1039CHOL    R2 9361  10.929   6.613   7.306  0.0238  0.4479  0.3054
 1039CHOL    R3 9362  10.909   6.658   7.039  0.1243 -0.1250  0.1888
 1039CHOL    R4 9363  11.190   6.585   7.081  0.1675  0.2336  0.4954
 1039CHOL    R5 9364  11.116   6.764   6.981  0.0470 -0.0429  0.0806
 1039CHOL    C1 9365  11.323   6.611   6.699  0.3455 -0.4290  0.4965
 1039CHOL    C2 9366  11.594   6.556   6.687  0.1207  0.1093 -0.1554
 1040CHOL   ROH 9367  15.081  13.099   7.951  0.1025  0.1246 -0.1104
 1040CHOL    R1 9368  14.873  13.170   7.773 -0.0477  0.1117  0.0550
 1040CHOL    R2 9369  14.876  13.100   7.505 -0.0970  0.3915 -0.0280
 1040CHOL    R3 9370  14.633  12.993   7.563  0.0335  0.0916 -0.0187
 1040CHOL    R4 9371  14.615  13.066   7.281 -0.2023  0.4324  0.0887
 1040CHOL    R5 9372  14.478  13.126   7.439 -0.1655  0.1044  0.2432
 1040CHOL    C1 9373  14.235  12.947   7.205 -0.1411  0.1748  0.1653
 1040CHOL    C2 9374  13.849  13.109   7.040  0.2523 -0.0052  0.1772
 1041CHOL   ROH 9375   7.831   5.075   8.172 -0.3728  0.0112 -0.1537
 1041CHOL    R1 9376   7.775   4.989   7.907 -0.2384 -0.0429 -0.1657
 1041CHOL    R2 9377   7.757   5.165   7.695 -0.2820 -0.0686 -0.1855
 1041CHOL    R3 9378   7.944   5.001   7.585 -0.1446  0.0389 -0.1141
 1041CHOL    R4 9379   7.808   5.122   7.356 -0.1048 -0.0153 -0.1657
 1041CHOL    R5 9380   7.837   4.909   7.391 -0.0081 -0.0028 -0.1703
 1041CHOL    C1 9381   8.014   4.944   7.055  0.1272  0.1165 -0.0873
 1041CHOL    C2 9382   8.374   4.689   6.832 -0.1040 -0.0821  0.1091
 1042PNCE   AM1 9383  13.115  15.827   4.611 -0.0519 -0.0799 -0.0207
 1042PNCE   AM2 9384  13.187  16.156   4.597 -0.0195 -0.0975 -0.2487
 1042PNCE   T1A 9385  13.337  15.894   5.104 -0.0840 -0.1045 -0.2027
 1042PNCE   C2A 9386  13.273  16.043   5.562  0.0852 -0.0615  0.1600
 1042PNCE   C3A 9387  13.338  16.217   6.017  0.2214  0.2191 -0.0377
 1042PNCE   C1B 9388  13.262  16.397   4.850 -0.1888  0.0596  0.2010
 1042PNCE   C2B 9389  13.423  16.417   5.188  0.2558  0.1121  0.1310
 1042PNCE   C3B 9390  13.657  16.451   5.620  0.2022 -0.1750  0.2151
 1042PNCE   D4B 9391  14.052  16.649   5.862  0.1574 -0.0900 -0.0712
 1042PNCE   C5B 9392  13.856  16.922   6.227 -0.0612 -0.2172 -0.1606
 1042PNCE   C6B 9393  13.443  17.079   6.456  0.1802 -0.3544  0.2363
 1043PNCE   AM1 9394   0.553  15.623   4.117  0.0081 -0.0858 -0.0976
 1043PNCE   AM2 9395   0.393  15.755   4.066  0.1975 -0.0350 -0.0322
 1043PNCE   T1A 9396   0.437  15.766   4.628  0.2119 -0.0640  0.2282
 1043PNCE   C2A 9397   0.213  15.826   5.036  0.1708 -0.3054 -0.1915
 1043PNCE   C3A 9398   0.161  15.651   5.459 -0.0854  0.1373 -0.1372
 1043PNCE   C1B 9399   0.553  16.144   4.288  0.1321  0.0879  0.1632
 1043PNCE   C2B 9400   0.751  16.334   4.640 -0.2022 -0.3006  0.1896
 1043PNCE   C3B 9401   0.843  16.636   4.978  0.2224 -0.0932  0.0618
 1043PNCE   D4B 9402   0.982  17.013   5.116  0.0941  0.1871  0.0024
 1043PNCE   C5B 9403   0.651  17.247   5.378  0.0175  0.1299 -0.2808
 1043PNCE   C6B 9404   0.367  17.353   5.632 -0.0590  0.2484 -0.0924
 1044PNCE   AM1 9405  10.769   3.810   4.356 -0.3240  0.0249  0.0669
 1044PNCE   AM2 9406  10.436   3.918   4.374  0.1634  0.1338  0.1768
 1044PNCE   T1A 9407  10.773   3.915   4.817  0.0904 -0.0341 -0.0802
 1044PNCE   C2A 9408  10.696   4.062   5.221  0.0470  0.3773 -0.2291
 1044PNCE   C3A 9409  10.709   3.961   5.769  0.0163  0.1698  0.0458
 1044PNCE   C1B 9410  10.262   4.127   4.747  0.0601  0.2184  0.1014
 1044PNCE   C2B 9411  10.215   4.422   5.089  0.0135 -0.2029  0.2094
 1044PNCE   C3B 9412  10.043   4.445   5.524 -0.3454 -0.4346 -0.0858
 1044PNCE   D4B 9413  10.087   4.560   6.003  0.0548  0.1336 -0.0395
 1044PNCE   C5B 9414  10.476   4.731   6.025 -0.0815  0.2369 -0.0155
 1044PNCE   C6B 9415  10.686   4.600   6.406  0.1258  0.2630  0.0705
 1045CHOL   ROH 9416   9.481   5.808   5.028  0.0020  0.0379 -0.0707
 1045CHOL    R1 9417   9.405   5.764   5.297  0.0803 -0.0641 -0.0657
 1045CHOL    R2 9418   9.165   5.855   5.400  0.1890  0.0415  0.0811
 1045CHOL    R3 9419   9.133   5.594   5.470  0.0324  0.0237 -0.0501
 1045CHOL    R4 9420   9.008   5.746   5.688  0.1000  0.0046  0.0193
 1045CHOL    R5 9421   9.162   5.593   5.708  0.0155 -0.1007 -0.0426
 1045CHOL    C1 9422   8.885   5.438   5.921 -0.0988 -0.0336 -0.1397
 1045CHOL    C2 9423   8.735   5.283   6.272  0.2373  0.1047  0.0584
 1046CHOL   ROH 9424  13.702   4.447   8.517  0.0945 -0.0236  0.1493
 1046CHOL    R1 9425  13.694   4.347   8.253  0.1382 -0.0901  0.1728
 1046CHOL    R2 9426  13.662   4.511   8.032 -0.1680 -0.1751  0.1489
 1046CHOL    R3 9427  13.890   4.388   7.949 -0.0229  0.1203  0.0950
 1046CHOL    R4 9428  13.809   4.556   7.723 -0.2677  0.0581  0.1334
 1046CHOL    R5 9429  13.851   4.343   7.717 -0.0012  0.1083  0.0940
 1046CHOL    C1 9430  14.109   4.467   7.464 -0.1897  0.4713  0.0740
 1046CHOL    C2 9431  14.306   4.667   7.192  0.2044  0.0159 -0.4296
 1047PNCE   AM1 9432  15.561   9.337   4.874 -0.0706  0.0234 -0.3461
 1047PNCE   AM2 9433  15.819   9.065   4.831 -0.3226  0.2330 -0.0358
 1047PNCE   T1A 9434  15.589   9.330   5.328 -0.1728 -0.0722  0.2611
 1047PNCE   C2A 9435  15.773   9.398   5.652 -0.3422  0.0382  0.0301
 1047PNCE   C3A 9436  15.689   9.727   5.861 -0.2010  0.1870  0.1243
 1047PNCE   C1B 9437  15.990   9.044   5.220 -0.0257 -0.1257  0.2200
 1047PNCE   C2B 9438  16.192   9.193   5.540 -0.3541 -0.1797  0.2050
 1047PNCE   C3B 9439  16.289   9.282   5.943  0.4227  0.3130  0.0015
 1047PNCE   D4B 9440  16.226   9.175   6.264  0.2400 -0.2730  0.2235
 1047PNCE   C5B 9441  15.724   9.306   6.178  0.3270  0.0937  0.1117
 1047PNCE   C6B 9442  15.497   9.715   6.327  0.2640 -0.1771  0.0029
 1048CHOL   ROH 9443  11.969   3.362   6.258  0.1924 -0.1224 -0.0647
 1048CHOL    R1 9444  12.053   3.100   6.194  0.0456 -0.1698 -0.0744
 1048CHOL    R2 9445  11.891   2.919   6.061 -0.0177 -0.0391 -0.1931
 1048CHOL    R3 9446  12.102   2.905   5.890  0.0583 -0.1378 -0.0901
 1048CHOL    R4 9447  11.957   2.654   5.849 -0.1252  0.0134 -0.2918
 1048CHOL    R5 9448  12.169   2.675   5.896 -0.1376 -0.1920 -0.1731
 1048CHOL    C1 9449  12.193   2.486   5.566 -0.1163 -0.0489 -0.2526
 1048CHOL    C2 9450  12.136   2.124   5.414 -0.0096 -0.0682 -0.0679
 1049CHOL   ROH 9451   2.341   9.026   6.963 -0.0613  0.1217 -0.1935
 1049CHOL    R1 9452   2.251   9.178   7.185 -0.0988  0.0087 -0.1308
 1049CHOL    R2 9453   2.041   9.096   7.345 -0.0201 -0.1534 -0.1097
 1049CHOL    R3 9454   2.223   9.130   7.544  0.0032 -0.1099 -0.1379
 1049CHOL    R4 9455   1.964   9.118   7.682 -0.0014  0.1204 -0.1203
 1049CHOL    R5 9456   2.114   9.275   7.701  0.0820  0.0572 -0.2342
 1049CHOL    C1 9457   2.091   9.161   8.064  0.0313  0.3206 -0.1528
 1049CHOL    C2 9458   1.827   8.970   8.377 -0.0607 -0.1504 -0.1818
 1050CHOL   ROH 9459  15.346  12.421   4.304  0.1330 -0.0054  0.0161
 1050CHOL    R1 9460  15.326  12.599   4.523  0.2843  0.3340 -0.2378
 1050CHOL    R2 9461  15.390  12.526   4.781 -0.3508  0.4442 -0.0342
 1050CHOL    R3 9462  15.552  12.744   4.769  0.3208 -0.0218 -0.0541
 1050CHOL    R4 9463  15.497  12.707   5.055 -0.3683  0.5323 -0.0837
 1050CHOL    R5 9464  15.467  12.890   4.940  0.3843  0.4804 -0.4250
 1050CHOL    C1 9465  15.711  13.017   5.204  0.2521  0.1464 -0.1312
 1050CHOL    C2 9466  15.845  12.961   5.572  0.4833 -0.1873 -0.1370
 1051CHOL   ROH 9467   7.349   7.213   5.738 -0.0194  0.0949  0.0433
 1051CHOL    R1 9468   7.243   7.397   5.925 -0.0514  0.0602  0.0601
 1051CHOL    R2 9469   6.973   7.449   5.946 -0.0568  0.0557  0.0249
 1051CHOL    R3 9470   7.014   7.384   6.207 -0.0986  0.0061  0.0190
 1051CHOL    R4 9471   6.744   7.499   6.201 -0.0417  0.1351  0.0226
 1051CHOL    R5 9472   6.909   7.561   6.329 -0.0181  0.0411  0.0357
 1051CHOL    C1 9473   6.650   7.468   6.594 -0.0721  0.1347  0.0156
 1051CHOL    C2 9474   6.251   7.500   6.689  0.2331 -0.1273 -0.0681
 1052CHOL   ROH 9475   0.755   8.744   8.560  0.0185 -0.0185 -0.0674
 1052CHOL    R1 9476   0.770   8.668   8.288  0.0041 -0.1153 -0.0425
 1052CHOL    R2 9477   0.554   8.565   8.151 -0.0025 -0.1765  0.0061
 1052CHOL    R3 9478   0.609   8.767   7.977 -0.0227 -0.2331 -0.0653
 1052CHOL    R4 9479   0.400   8.610   7.845 -0.1586 -0.1723  0.0852
 1052CHOL    R5 9480   0.593   8.666   7.761 -0.1872 -0.2657 -0.0365
 1052CHOL    C1 9481   0.361   8.826   7.504 -0.2684 -0.2229  0.0641
 1052CHOL    C2 9482   0.434   8.757   7.152 -0.2392  0.4716 -0.0620
 1053CHOL   ROH 9483  11.375   4.836   4.421  0.1369  0.1227 -0.1095
 1053CHOL    R1 9484  11.255   4.766   4.668  0.0638  0.1498 -0.1381
 1053CHOL    R2 9485  11.398   4.748   4.903  0.0186  0.0428 -0.1219
 1053CHOL    R3 9486  11.210   4.922   4.994  0.0936  0.1264 -0.1219
 1053CHOL    R4 9487  11.332   4.811   5.237 -0.0930 -0.0848 -0.1184
 1053CHOL    R5 9488  11.119   4.815   5.188 -0.0710  0.0851 -0.2175
 1053CHOL    C1 9489  11.117   5.010   5.516 -0.0874 -0.0805 -0.1163
 1053CHOL    C2 9490  11.037   4.925   5.879  0.2491 -0.1237  0.0528
 1054PNCE   AM1 9491   4.516  13.694   4.592 -0.0381 -0.0629  0.0301
 1054PNCE   AM2 9492   4.836  13.662   4.580  0.2647  0.1082 -0.0328
 1054PNCE   T1A 9493   4.224  13.844   4.909  0.0410  0.0996 -0.3367
 1054PNCE   C2A 9494   4.270  13.873   5.377 -0.0225 -0.1247  0.2174
 1054PNCE   C3A 9495   4.308  13.877   5.775  0.0459 -0.0789  0.0610
 1054PNCE   C1B 9496   5.070  13.726   4.905 -0.2012  0.0125 -0.0287
 1054PNCE   C2B 9497   5.166  13.454   5.248 -0.3688 -0.0021 -0.3446
 1054PNCE   C3B 9498   5.210  13.042   5.215 -0.0915  0.0040 -0.0407
 1054PNCE   D4B 9499   5.545  12.719   5.428  0.1671  0.2193  0.3373
 1054PNCE   C5B 9500   5.477  12.416   5.654 -0.1790 -0.0685 -0.0228
 1054PNCE   C6B 9501   5.854  12.307   5.853  0.3091  0.0870  0.0687
 1055CHOL   ROH 9502  15.851   5.584   4.269 -0.1614 -0.0370  0.0630
 1055CHOL    R1 9503  15.967   5.425   4.472 -0.0748 -0.0298  0.0198
 1055CHOL    R2 9504  15.979   5.505   4.736 -0.0894 -0.0809  0.0357
 1055CHOL    R3 9505  15.856   5.267   4.781  0.0193 -0.1454 -0.0040
 1055CHOL    R4 9506  16.012   5.318   5.025 -0.1734 -0.0034  0.0957
 1055CHOL    R5 9507  16.018   5.138   4.901  0.0171 -0.0257  0.1324
 1055CHOL    C1 9508  15.915   4.986   5.236 -0.1201 -0.0189  0.0935
 1055CHOL    C2 9509  15.608   4.973   5.460  0.1057 -0.0524 -0.0956
 1056PNCE   AM1 9510   1.833  12.781   7.872 -0.0305  0.0491 -0.0147
 1056PNCE   AM2 9511   1.777  12.484   7.928 -0.1301 -0.1643 -0.0577
 1056PNCE   T1A 9512   1.635  13.028   7.522  0.0538  0.5052 -0.2455
 1056PNCE   C2A 9513   1.543  12.843   7.152  0.2499  0.0932  0.1404
 1056PNCE   C3A 9514   1.201  12.772   6.961  0.2394 -0.1698 -0.0379
 1056PNCE   C1B 9515   1.765  12.479   7.493 -0.3296 -0.0033 -0.0036
 1056PNCE   C2B 9516   1.671  12.321   7.131 -0.0494 -0.0812 -0.0371
 1056PNCE   C3B 9517   1.612  12.485   6.801 -0.1115 -0.2168  0.0519
 1056PNCE   D4B 9518   1.720  12.792   6.529 -0.1186  0.5679  0.3565
 1056PNCE   C5B 9519   2.186  12.911   6.384 -0.3228 -0.1491  0.0566
 1056PNCE   C6B 9520   2.562  12.962   6.724  0.0106  0.0930  0.0664
 1057CHOL   ROH 9521   0.122  15.483   4.345  0.0161 -0.1057  0.1231
 1057CHOL    R1 9522   0.163  15.307   4.562  0.1039  0.0437  0.2303
 1057CHOL    R2 9523   0.244  15.394   4.811 -0.0688  0.2510  0.2200
 1057CHOL    R3 9524   0.023  15.260   4.895  0.0242  0.0857  0.2022
 1057CHOL    R4 9525   0.160  15.339   5.142 -0.1784  0.3939  0.2163
 1057CHOL    R5 9526   0.097  15.138   5.087  0.0518  0.2923  0.3234
 1057CHOL    C1 9527  -0.097  15.181   5.413 -0.1549  0.3219  0.1973
 1057CHOL    C2 9528  -0.157  15.012   5.687  0.1081  0.1586 -0.2018
 1058PNCE   AM1 9529  14.200   7.555   5.143 -0.3707 -0.0107  0.1671
 1058PNCE   AM2 9530  13.917   7.816   5.078  0.2436 -0.3613 -0.1971
 1058PNCE   T1A 9531  14.087   7.726   5.611  0.4240 -0.0071 -0.1025
 1058PNCE   C2A 9532  14.069   7.747   5.939  0.2190  0.0299 -0.1013
 1058PNCE   C3A 9533  13.867   8.024   6.325  0.1214  0.2980 -0.1188
 1058PNCE   C1B 9534  13.717   7.989   5.427 -0.1841  0.0010 -0.2539
 1058PNCE   C2B 9535  13.957   8.173   5.774  0.0582  0.1916 -0.0788
 1058PNCE   C3B 9536  14.101   8.438   6.163  0.0399  0.1796  0.0500
 1058PNCE   D4B 9537  14.141   8.767   6.523 -0.0111 -0.0417  0.2048
 1058PNCE   C5B 9538  14.293   8.673   6.893 -0.1156 -0.2996  0.0972
 1058PNCE   C6B 9539  14.380   8.924   7.256 -0.1009 -0.1684 -0.4636
 1059CHOL   ROH 9540  14.828  11.775   4.815 -0.3136  0.0128 -0.0038
 1059CHOL    R1 9541  14.842  11.751   5.097 -0.1058  0.0422 -0.0099
 1059CHOL    R2 9542  14.707  11.922   5.267 -0.1515 -0.0695  0.0664
 1059CHOL    R3 9543  14.607  11.691   5.369  0.1263 -0.1568  0.1504
 1059CHOL    R4 9544  14.538  11.895   5.567 -0.2760 -0.1321 -0.0082
 1059CHOL    R5 9545  14.644  11.708   5.605 -0.0243  0.0398  0.1616
 1059CHOL    C1 9546  14.346  11.662   5.838 -0.0879 -0.2505  0.0273
 1059CHOL    C2 9547  14.100  11.359   6.148 -0.0304  0.2104  0.1989
 1060PNCE   AM1 9548  10.793   3.925   8.176  0.4414 -0.1266  0.0225
 1060PNCE   AM2 9549  10.520   3.941   8.094 -0.0775  0.2324  0.0867
 1060PNCE   T1A 9550  10.844   3.701   7.750 -0.2419 -0.2989  0.2440
 1060PNCE   C2A 9551  10.876   3.843   7.338 -0.1358  0.1400 -0.0424
 1060PNCE   C3A 9552  10.696   3.843   6.828  0.0637  0.0928  0.0812
 1060PNCE   C1B 9553  10.497   4.098   7.630 -0.3268  0.1123  0.0167
 1060PNCE   C2B 9554  10.602   4.243   7.153 -0.1680 -0.2778 -0.2735
 1060PNCE   C3B 9555  10.863   4.389   6.836  0.2101 -0.2228  0.0895
 1060PNCE   D4B 9556  11.268   4.456   6.717  0.0956  0.0202  0.1230
 1060PNCE   C5B 9557  11.555   4.907   6.641  0.4228  0.0718 -0.0295
 1060PNCE   C6B 9558  11.954   4.796   6.391 -0.2016 -0.1943  0.1461
 1061PNCE   AM1 9559  13.171   5.482   4.916  0.1224 -0.1971  0.2590
 1061PNCE   AM2 9560  13.393   5.300   5.066  0.0256 -0.2388  0.1702
 1061PNCE   T1A 9561  12.896   5.533   5.210 -0.1864  0.1343 -0.0407
 1061PNCE   C2A 9562  12.546   5.351   5.296 -0.2227 -0.0447 -0.0700
 1061PNCE   C3A 9563  12.168   5.126   5.499 -0.2221 -0.3304  0.1755
 1061PNCE   C1B 9564  13.370   5.233   5.505  0.1802 -0.0299 -0.3182
 1061PNCE   C2B 9565  13.474   5.550   5.801 -0.1442 -0.0516 -0.0479
 1061PNCE   C3B 9566  13.413   5.529   6.208  0.2800  0.1580 -0.0140
 1061PNCE   D4B 9567  13.555   5.746   6.467 -0.2111  0.2792  0.0402
 1061PNCE   C5B 9568  13.893   6.045   6.489  0.2598 -0.2200 -0.2153
 1061PNCE   C6B 9569  14.114   6.397   6.644 -0.3500 -0.2952 -0.0177
 1062CHOL   ROH 9570   4.612   8.598   6.621  0.0570  0.0951 -0.1005
 1062CHOL    R1 9571   4.584   8.610   6.339  0.0149  0.0711 -0.0980
 1062CHOL    R2 9572   4.784   8.530   6.166  0.0223  0.1333 -0.1229
 1062CHOL    R3 9573   4.587   8.373   6.063  0.0634  0.0574 -0.0849
 1062CHOL    R4 9574   4.704   8.509   5.831 -0.0493  0.1139 -0.1042
 1062CHOL    R5 9575   4.493   8.505   5.886 -0.0326  0.0242 -0.0564
 1062CHOL    C1 9576   4.472   8.350   5.538 -0.0524  0.0313 -0.0576
 1062CHOL    C2 9577   4.187   8.349   5.180  0.1403  0.0513 -0.0317
 1063PNCE   AM1 9578  14.976   4.855   3.955 -0.1516 -0.3191 -0.1432
 1063PNCE   AM2 9579  15.085   4.728   3.616 -0.3790 -0.2518  0.0408
 1063PNCE   T1A 9580  14.955   5.160   4.224  0.0770  0.0054 -0.0552
 1063PNCE   C2A 9581  14.777   5.339   4.588  0.2975  0.0995 -0.3615
 1063PNCE   C3A 9582  14.671   5.322   5.023  0.2114 -0.0583  0.0610
 1063PNCE   C1B 9583  15.018   4.368   3.872  0.0032  0.4702 -0.0354
 1063PNCE   C2B 9584  15.029   4.338   4.205 -0.1805 -0.1912 -0.0457
 1063PNCE   C3B 9585  15.261   4.221   4.601  0.3189 -0.0430 -0.1164
 1063PNCE   D4B 9586  15.312   3.918   4.924 -0.2525 -0.0209  0.0202
 1063PNCE   C5B 9587  15.130   4.032   5.340 -0.0743  0.0455 -0.0368
 1063PNCE   C6B 9588  15.062   3.734   5.760 -0.1328 -0.1673 -0.1104
 1064CHOL   ROH 9589  15.411   8.972   5.611  0.0453 -0.1323  0.1079
 1064CHOL    R1 9590  15.459   9.048   5.879  0.1812 -0.1271  0.0815
 1064CHOL    R2 9591  15.258   9.067   6.067  0.2534  0.0491  0.1357
 1064CHOL    R3 9592  15.417   8.898   6.208  0.1707 -0.0449  0.1193
 1064CHOL    R4 9593  15.179   8.933   6.376  0.1775  0.0602  0.1219
 1064CHOL    R5 9594  15.386   8.963   6.437  0.1979 -0.0472  0.1277
 1064CHOL    C1 9595  15.282   8.696   6.688  0.0557 -0.0215  0.0985
 1064CHOL    C2 9596  15.230   8.478   6.955 -0.0207 -0.2911  0.0710
 1065PNCE   AM1 9597  14.223  15.190   4.028  0.3570  0.0681 -0.0827
 1065PNCE   AM2 9598  14.239  15.557   4.171 -0.0219 -0.1275 -0.0104
 1065PNCE   T1A 9599  14.654  14.887   4.153  0.0915  0.0414  0.0154
 1065PNCE   C2A 9600  15.079  14.945   4.369  0.1267 -0.2028  0.2427
 1065PNCE   C3A 9601  15.316  15.212   4.642 -0.0771 -0.2068  0.1646
 1065PNCE   C1B 9602  14.298  15.569   4.592 -0.0381  0.0348  0.2475
 1065PNCE   C2B 9603  14.168  15.204   4.826 -0.2120  0.5323 -0.1417
 1065PNCE   C3B 9604  14.138  15.159   5.313 -0.2245  0.1937 -0.1824
 1065PNCE   D4B 9605  14.356  15.195   5.689 -0.0213  0.0889  0.1099
 1065PNCE   C5B 9606  14.236  15.069   6.146 -0.1003 -0.1104 -0.1595
 1065PNCE   C6B 9607  13.811  15.102   6.281 -0.0134  0.2950  0.1092
 1066XCA    COO 9608  14.679   9.982   8.567 -0.1277 -0.1572 -0.1138
 1066XCA     C1 9609  14.709   9.725   8.217  0.0480  0.3685 -0.1031
 1066XCA     C2 9610  14.363   9.443   8.000  0.0651  0.1995  0.1691
 1066XCA     C3 9611  14.219   9.483   7.632 -0.1902  0.0333 -0.0403
 1066XCA     C4 9612  14.074   9.279   7.329 -0.0823  0.0672  0.4239
 1066XCA     C5 9613  13.886   8.959   7.056  0.1829 -0.1189 -0.4343
 1066XCA     C6 9614  13.684   8.816   6.773  0.0403 -0.0995 -0.1656
 1067PNCE   AM1 9615   7.287   8.809   8.538  0.2036 -0.1057 -0.0999
 1067PNCE   AM2 9616   6.987   8.673   8.593 -0.1339  0.0463 -0.1996
 1067PNCE   T1A 9617   7.640   8.635   8.331  0.1692  0.0602  0.0511
 1067PNCE   C2A 9618   7.680   8.528   7.866  0.0096  0.0657 -0.1443
 1067PNCE   C3A 9619   7.470   8.365   7.519  0.2064 -0.2576  0.1699
 1067PNCE   C1B 9620   6.971   8.618   8.094  0.1881  0.3031  0.3765
 1067PNCE   C2B 9621   7.063   8.576   7.704  0.2481  0.0487  0.0574
 1067PNCE   C3B 9622   7.019   8.518   7.311 -0.1968 -0.3264 -0.1019
 1067PNCE   D4B 9623   7.376   8.784   7.200  0.0399 -0.0838 -0.1993
 1067PNCE   C5B 9624   7.636   8.927   7.526 -0.2479  0.0115  0.1997
 1067PNCE   C6B 9625   7.698   9.206   7.861  0.2094 -0.0753  0.1408
 1068PNCE   AM1 9626  12.533   1.169   4.515 -0.1362  0.0123 -0.2304
 1068PNCE   AM2 9627  12.871   1.114   4.414 -0.3811 -0.1771  0.0968
 1068PNCE   T1A 9628  12.443   1.415   4.727 -0.0044  0.0046 -0.1681
 1068PNCE   C2A 9629  12.185   1.548   4.963  0.5333 -0.1730 -0.1311
 1068PNCE   C3A 9630  12.176   1.250   5.235  0.1106 -0.1936  0.2211
 1068PNCE   C1B 9631  13.100   1.019   4.853 -0.0214 -0.1968  0.0168
 1068PNCE   C2B 9632  13.327   1.010   5.251  0.0457  0.0154 -0.0499
 1068PNCE   C3B 9633  13.698   0.986   5.452  0.1320  0.0425 -0.0217
 1068PNCE   D4B 9634  14.171   1.031   5.495  0.0665  0.2524 -0.1327
 1068PNCE   C5B 9635  14.334   1.169   5.138  0.2557 -0.1254 -0.1724
 1068PNCE   C6B 9636  14.142   1.321   4.745  0.1236  0.1264  0.3882
 1069PNCE   AM1 9637   1.630   9.014   4.706  0.2032 -0.0359  0.2772
 1069PNCE   AM2 9638   1.792   9.198   4.490  0.0751  0.1535  0.1689
 1069PNCE   T1A 9639   1.539   9.126   5.169 -0.3709 -0.3028 -0.2622
 1069PNCE   C2A 9640   1.483   9.105   5.642  0.4406  0.4667  0.0032
 1069PNCE   C3A 9641   1.774   9.047   5.884 -0.1828 -0.0542 -0.2068
 1069PNCE   C1B 9642   2.164   9.248   4.528 -0.3880  0.1691 -0.0590
 1069PNCE   C2B 9643   2.472   9.553   4.586 -0.0608 -0.0804 -0.0899
 1069PNCE   C3B 9644   2.532   9.882   4.910 -0.0215  0.0635 -0.1140
 1069PNCE   D4B 9645   2.549  10.100   5.339  0.1919 -0.0396 -0.0722
 1069PNCE   C5B 9646   2.578  10.035   5.717 -0.0314  0.2500 -0.0307
 1069PNCE   C6B 9647   2.477  10.219   6.047 -0.0659  0.0779  0.3684
 1070PNCE   AM1 9648  11.959   0.084   5.522 -0.1226  0.3584 -0.1473
 1070PNCE   AM2 9649  11.960   0.313   5.247  0.2082  0.0351 -0.1400
 1070PNCE   T1A 9650  12.164  -0.086   5.944  0.3522 -0.0853 -0.1855
 1070PNCE   C2A 9651  12.213  -0.464   6.217 -0.0722  0.1608 -0.2459
 1070PNCE   C3A 9652  11.993  -0.781   6.098  0.2127  0.0541 -0.2907
 1070PNCE   C1B 9653  12.173   0.728   5.456 -0.0407 -0.0897 -0.0901
 1070PNCE   C2B 9654  12.397   1.002   5.531 -0.0117 -0.0504 -0.2842
 1070PNCE   C3B 9655  12.431   1.335   5.753 -0.0231  0.3020 -0.0440
 1070PNCE   D4B 9656  12.646   1.474   6.064  0.0171 -0.1697  0.1606
 1070PNCE   C5B 9657  12.970   1.245   6.183  0.4860 -0.1385 -0.3127
 1070PNCE   C6B 9658  13.194   1.641   6.332 -0.0165 -0.1559  0.0728
 1071CHOL   ROH 9659  15.879  12.012   7.768  0.1120  0.0886  0.0586
 1071CHOL    R1 9660  15.762  12.077   7.518  0.0859  0.0906  0.0711
 1071CHOL    R2 9661  15.891  12.232   7.329  0.1392 -0.0554 -0.0131
 1071CHOL    R3 9662  15.840  12.020   7.167 -0.0505 -0.0712  0.0650
 1071CHOL    R4 9663  15.836  12.252   6.989  0.1123 -0.1194 -0.0123
 1071CHOL    R5 9664  15.679  12.102   7.010 -0.0075  0.0089  0.0592
 1071CHOL    C1 9665  15.755  12.065   6.638 -0.0815 -0.1715  0.0615
 1071CHOL    C2 9666  15.314  12.197   6.594  0.0896  0.2630  0.0955
 1072PNCE   AM1 9667   2.764  11.383   4.363  0.2134  0.0811 -0.2034
 1072PNCE   AM2 9668   2.984  11.092   4.456  0.0219  0.2742 -0.1220
 1072PNCE   T1A 9669   2.898  11.783   4.523  0.2703  0.1253 -0.0655
 1072PNCE   C2A 9670   3.034  12.170   4.621 -0.5370 -0.0087 -0.0631
 1072PNCE   C3A 9671   3.071  12.530   4.756  0.2556 -0.1603 -0.1254
 1072PNCE   C1B 9672   3.011  11.389   4.871  0.1284 -0.0706 -0.0609
 1072PNCE   C2B 9673   2.868  11.698   5.042  0.1669 -0.2918 -0.1723
 1072PNCE   C3B 9674   2.614  11.782   5.398  0.2689  0.1155 -0.0432
 1072PNCE   D4B 9675   2.335  11.900   5.730 -0.0346 -0.0634 -0.2319
 1072PNCE   C5B 9676   2.286  12.171   6.047  0.1405  0.1232  0.1207
 1072PNCE   C6B 9677   1.994  12.465   6.152 -0.0041 -0.0948 -0.1394
 1073XCA    COO 9678   2.848   4.587   4.323 -0.2730  0.1969 -0.2601
 1073XCA     C1 9679   3.061   4.459   4.631 -0.0924 -0.0848 -0.5934
 1073XCA     C2 9680   3.119   4.437   5.083 -0.1244 -0.3305  0.0437
 1073XCA     C3 9681   3.173   4.374   5.442 -0.0285  0.1862  0.1150
 1073XCA     C4 9682   3.400   4.629   5.681  0.0275  0.2497 -0.3073
 1073XCA     C5 9683   3.232   4.793   6.045  0.1315 -0.0216 -0.2465
 1073XCA     C6 9684   3.314   4.759   6.425 -0.0074  0.0054  0.2835
 1074XCA    COO 9685  11.516  15.819   5.302  0.4142 -0.0777  0.0618
 1074XCA     C1 9686  11.287  15.570   5.570 -0.3160  0.0282  0.1369
 1074XCA     C2 9687  11.339  15.132   5.675  0.1428 -0.1043  0.2620
 1074XCA     C3 9688  11.806  14.988   5.723 -0.0475 -0.1650 -0.0348
 1074XCA     C4 9689  12.106  14.684   6.041 -0.0209 -0.0333  0.1727
 1074XCA     C5 9690  12.305  14.548   6.434 -0.0095  0.0464 -0.2815
 1074XCA     C6 9691  12.198  14.590   6.909 -0.1915  0.1277  0.0732
 1075XCA    COO 9692   5.920   0.387   8.490  0.0687 -0.1320 -0.0150
 1075XCA     C1 9693   6.224   0.629   8.439 -0.0100  0.2317 -0.0295
 1075XCA     C2 9694   6.587   0.630   8.283 -0.0264  0.0607  0.2558
 1075XCA     C3 9695   6.557   0.460   7.960  0.0621  0.1520  0.1055
 1075XCA     C4 9696   6.677   0.626   7.472 -0.0184  0.1655 -0.0262
 1075XCA     C5 9697   6.877   0.882   7.084  0.1057 -0.1410  0.0370
 1075XCA     C6 9698   7.190   1.238   6.867 -0.3585  0.2153 -0.2370
 1076PNCE   AM1 9699  10.950   0.877   5.904 -0.0732 -0.0039 -0.1157
 1076PNCE   AM2 9700  10.805   0.556   5.828  0.0970 -0.0199  0.3488
 1076PNCE   T1A 9701  10.822   1.212   6.185  0.0451 -0.1768  0.3816
 1076PNCE   C2A 9702  10.567   1.548   6.137 -0.1105  0.1995  0.0104
 1076PNCE   C3A 9703  10.285   1.819   5.925  0.0125  0.0196 -0.3418
 1076PNCE   C1B 9704  10.473   0.774   6.136 -0.0767  0.2654 -0.1559
 1076PNCE   C2B 9705  10.258   0.981   6.506 -0.2619 -0.0103  0.1275
 1076PNCE   C3B 9706   9.999   1.257   6.833 -0.0963  0.2500  0.0194
 1076PNCE   D4B 9707   9.864   1.677   6.817 -0.0432  0.1058 -0.3022
 1076PNCE   C5B 9708   9.768   2.014   7.093  0.1325  0.0760 -0.3358
 1076PNCE   C6B 9709   9.597   2.260   7.474 -0.0758  0.0768  0.4348
 1077CHOL   ROH 9710  14.764   1.178   6.424 -0.2616  0.0648  0.0661
 1077CHOL    R1 9711  14.786   0.941   6.578 -0.0849  0.0697  0.0493
 1077CHOL    R2 9712  14.586   0.751   6.588  0.0020 -0.0113  0.1444
 1077CHOL    R3 9713  14.787   0.583   6.515  0.0348  0.0695  0.0426
 1077CHOL    R4 9714  14.571   0.406   6.607  0.0657 -0.0262 -0.0437
 1077CHOL    R5 9715  14.778   0.406   6.677  0.0728 -0.0227 -0.0495
 1077CHOL    C1 9716  14.752   0.048   6.550  0.1335  0.0409 -0.2487
 1077CHOL    C2 9717  14.821   0.048   6.911 -0.1870 -0.1992 -0.3922
 1078CHOL   ROH 9718  10.118   6.069   6.877 -0.0048  0.1368  0.0344
 1078CHOL    R1 9719   9.898   6.030   6.702  0.0087  0.3112 -0.0229
 1078CHOL    R2 9720   9.670   5.895   6.778  0.1272 -0.0394 -0.2671
 1078CHOL    R3 9721   9.546   6.122   6.695 -0.0707  0.0382  0.2115
 1078CHOL    R4 9722   9.350   5.909   6.648  0.1458 -0.0587 -0.3160
 1078CHOL    R5 9723   9.421   6.055   6.503  0.0462  0.3460  0.0216
 1078CHOL    C1 9724   9.047   6.132   6.496 -0.0290  0.0029  0.1049
 1078CHOL    C2 9725   8.714   6.315   6.418 -0.1253 -0.0964 -0.3360
 1079XCA    COO 9726   5.853  15.162   4.419 -0.1571  0.0331 -0.2628
 1079XCA     C1 9727   5.748  15.365   4.828  0.2639 -0.2684  0.0152
 1079XCA     C2 9728   5.661  15.672   5.106 -0.4511  0.1279  0.0020
 1079XCA     C3 9729   5.597  15.727   5.517  0.0660  0.2170  0.2754
 1079XCA     C4 9730   5.526  15.946   6.031  0.1991  0.0957 -0.0126
 1079XCA     C5 9731   5.596  15.765   6.523  0.0634  0.1445  0.2417
 1079XCA     C6 9732   5.733  15.790   6.979 -0.4179 -0.0286 -0.0044
 1080PNCE   AM1 9733   7.372   8.074   5.367  0.0027  0.0272 -0.1099
 1080PNCE   AM2 9734   7.499   8.398   5.451 -0.1050 -0.0463 -0.0774
 1080PNCE   T1A 9735   7.207   7.788   5.709  0.2526 -0.0480 -0.1737
 1080PNCE   C2A 9736   7.237   7.780   6.135  0.0290  0.0925  0.0353
 1080PNCE   C3A 9737   7.456   7.581   6.395 -0.0126 -0.1753 -0.1445
 1080PNCE   C1B 9738   7.582   8.824   5.730  0.0613  0.2970 -0.0530
 1080PNCE   C2B 9739   7.770   8.864   6.122 -0.0152  0.1496 -0.0743
 1080PNCE   C3B 9740   7.553   9.165   6.184  0.2853  0.3497 -0.0416
 1080PNCE   D4B 9741   7.341   9.562   6.158  0.1659  0.0529 -0.1762
 1080PNCE   C5B 9742   6.927   9.592   5.963  0.1118 -0.1522  0.0363
 1080PNCE   C6B 9743   6.541   9.559   6.120 -0.2737 -0.0251  0.0164
 1081CHOL   ROH 9744   5.700  11.924   5.131 -0.0556 -0.1013 -0.2089
 1081CHOL    R1 9745   5.494  12.070   5.260 -0.0076 -0.0842 -0.1495
 1081CHOL    R2 9746   5.449  12.338   5.211 -0.0456 -0.0950 -0.1899
 1081CHOL    R3 9747   5.196  12.252   5.158 -0.0628 -0.1246 -0.0600
 1081CHOL    R4 9748   5.159  12.506   5.298 -0.0196 -0.0865 -0.1216
 1081CHOL    R5 9749   5.069  12.315   5.350  0.0126 -0.0744 -0.0278
 1081CHOL    C1 9750   4.754  12.522   5.298 -0.0206 -0.1095  0.0402
 1081CHOL    C2 9751   4.367  12.391   5.184  0.0194 -0.1647 -0.0460
 1082PNCE   AM1 9752   8.380   3.066   4.539 -0.1409  0.0482  0.2531
 1082PNCE   AM2 9753   8.143   2.831   4.384  0.0195  0.0684  0.1571
 1082PNCE   T1A 9754   8.412   2.703   4.811 -0.1185  0.1111 -0.0209
 1082PNCE   C2A 9755   8.543   2.672   5.268 -0.2750 -0.1541  0.2293
 1082PNCE   C3A 9756   8.570   2.675   5.664 -0.0827 -0.2355 -0.0901
 1082PNCE   C1B 9757   7.872   2.509   4.585 -0.0728 -0.0255 -0.0349
 1082PNCE   C2B 9758   7.593   2.335   5.062 -0.0524  0.1747  0.0675
 1082PNCE   C3B 9759   7.454   2.448   5.493  0.0652 -0.2458 -0.2829
 1082PNCE   D4B 9760   7.662   2.536   5.845 -0.0557 -0.0719 -0.0693
 1082PNCE   C5B 9761   8.125   2.496   5.893  0.0773 -0.0634 -0.0869
 1082PNCE   C6B 9762   8.428   2.130   5.903 -0.3195 -0.1370  0.0914
 1083CHOL   ROH 9763   0.020   9.563   7.097 -0.3027 -0.0048  0.0366
 1083CHOL    R1 9764  -0.196   9.429   6.972 -0.2990  0.0276 -0.0087
 1083CHOL    R2 9765  -0.437   9.553   6.919 -0.2838  0.0598 -0.0384
 1083CHOL    R3 9766  -0.388   9.466   6.666 -0.2447  0.0774 -0.0350
 1083CHOL    R4 9767  -0.680   9.498   6.679 -0.2580 -0.1051 -0.0260
 1083CHOL    R5 9768  -0.571   9.319   6.617 -0.1523 -0.0370 -0.0215
 1083CHOL    C1 9769  -0.776   9.385   6.302 -0.2062 -0.1846 -0.0157
 1083CHOL    C2 9770  -0.665   9.482   5.923  0.0336 -0.4542 -0.2326
 1084XCA    COO 9771   5.862   4.853   8.564  0.2052 -0.1666 -0.1478
 1084XCA     C1 9772   5.748   5.010   8.104 -0.1502 -0.2974 -0.3134
 1084XCA     C2 9773   5.890   5.192   7.674  0.1217  0.1221 -0.1356
 1084XCA     C3 9774   6.014   5.405   7.249 -0.1303 -0.1008  0.0377
 1084XCA     C4 9775   5.917   5.395   6.823  0.1208  0.1919 -0.0283
 1084XCA     C5 9776   5.769   5.040   6.629  0.0245 -0.1824 -0.2295
 1084XCA     C6 9777   5.614   5.033   6.227  0.1923  0.0272 -0.0681
 1085PNCE   AM1 9778  15.686  12.516   4.037  0.0389 -0.1264  0.1390
 1085PNCE   AM2 9779  15.821  12.179   4.158 -0.1068 -0.1348 -0.1813
 1085PNCE   T1A 9780  15.793  12.814   4.357 -0.3554  0.1363 -0.0340
 1085PNCE   C2A 9781  15.963  12.979   4.842  0.2677 -0.1169  0.0697
 1085PNCE   C3A 9782  16.059  13.388   5.061  0.1794  0.4239  0.0058
 1085PNCE   C1B 9783  15.882  12.337   4.548  0.0344 -0.1560 -0.0962
 1085PNCE   C2B 9784  15.905  12.501   4.886  0.1158  0.2230  0.0855
 1085PNCE   C3B 9785  16.211  12.692   5.217 -0.2120  0.2354  0.1089
 1085PNCE   D4B 9786  16.643  12.820   5.335 -0.0992  0.2839 -0.0577
 1085PNCE   C5B 9787  16.979  12.468   5.283 -0.0914 -0.2525  0.0105
 1085PNCE   C6B 9788  17.127  12.223   5.008 -0.1117 -0.0922 -0.3709
 1086PNCE   AM1 9789  12.846   4.200   4.835 -0.0489  0.1854  0.2491
 1086PNCE   AM2 9790  13.229   4.125   4.851 -0.2910  0.0974 -0.0333
 1086PNCE   T1A 9791  12.707   4.248   5.247  0.0832  0.3483  0.0257
 1086PNCE   C2A 9792  12.377   4.214   5.426  0.4122  0.1628 -0.1923
 1086PNCE   C3A 9793  11.954   4.504   5.522 -0.0007  0.2116  0.0885
 1086PNCE   C1B 9794  12.991   3.765   5.104 -0.2770 -0.1909 -0.3226
 1086PNCE   C2B 9795  12.710   3.785   5.506  0.0990 -0.0756 -0.0140
 1086PNCE   C3B 9796  12.438   3.882   5.864 -0.1500  0.0827  0.1467
 1086PNCE   D4B 9797  12.341   3.614   6.200 -0.1154  0.6331  0.0074
 1086PNCE   C5B 9798  12.476   3.190   6.096 -0.0434 -0.1086  0.0934
 1086PNCE   C6B 9799  12.841   3.024   6.121 -0.2876  0.0979 -0.1827
 1087CHOL   ROH 9800   0.852   1.562   7.153 -0.0698 -0.1536 -0.2474
 1087CHOL    R1 9801   0.887   1.786   6.983 -0.0825 -0.0720 -0.1446
 1087CHOL    R2 9802   0.862   1.769   6.708  0.0352  0.0287 -0.1644
 1087CHOL    R3 9803   0.683   1.970   6.744 -0.0542 -0.0531 -0.1531
 1087CHOL    R4 9804   0.714   1.948   6.453 -0.0122  0.0086 -0.1503
 1087CHOL    R5 9805   0.737   2.129   6.573 -0.1033 -0.0021 -0.1195
 1087CHOL    C1 9806   0.459   2.242   6.338 -0.1238 -0.0799 -0.1317
 1087CHOL    C2 9807   0.405   2.610   6.161  0.1011  0.1185  0.2259
 1088CHOL   ROH 9808   1.885  11.047   7.725  0.0746 -0.0226 -0.0335
 1088CHOL    R1 9809   2.119  11.019   7.569  0.0976  0.1220 -0.0261
 1088CHOL    R2 9810   2.125  10.873   7.334  0.2117  0.0675  0.0119
 1088CHOL    R3 9811   2.223  11.104   7.230  0.0318  0.1190 -0.0479
 1088CHOL    R4 9812   2.249  10.909   7.014  0.3680  0.0239  0.0667
 1088CHOL    R5 9813   2.407  11.036   7.094  0.1903  0.2356  0.1005
 1088CHOL    C1 9814   2.414  11.148   6.730  0.2902  0.0469  0.0424
 1088CHOL    C2 9815   2.726  11.274   6.550  0.1085 -0.0791 -0.0994
 1089XCA    COO 9816   0.701   6.070   5.034  0.1811 -0.0749 -0.2713
 1089XCA     C1 9817   0.435   5.962   5.322  0.1851 -0.1037 -0.0695
 1089XCA     C2 9818   0.432   5.926   5.796 -0.1663  0.1173 -0.1719
 1089XCA     C3 9819   0.628   5.747   6.219  0.0854 -0.1922 -0.1845
 1089XCA     C4 9820   0.903   5.583   6.532  0.2853  0.1640  0.0429
 1089XCA     C5 9821   1.258   5.659   6.561 -0.0300  0.2385 -0.0077
 1089XCA     C6 9822   1.677   5.532   6.637 -0.1515  0.0302 -0.0729
 1090CHOL   ROH 9823   6.608   4.911   4.509  0.1142 -0.4431  0.0142
 1090CHOL    R1 9824   6.711   4.917   4.773  0.0802 -0.3739  0.0267
 1090CHOL    R2 9825   6.901   4.738   4.862  0.2607 -0.1900  0.0213
 1090CHOL    R3 9826   7.036   4.964   4.928  0.0171 -0.0556  0.0684
 1090CHOL    R4 9827   7.090   4.778   5.149  0.1791 -0.0284  0.0529
 1090CHOL    R5 9828   7.011   4.981   5.166 -0.0345 -0.1104  0.0667
 1090CHOL    C1 9829   7.327   5.014   5.378 -0.0971  0.1918  0.1155
 1090CHOL    C2 9830   7.476   5.078   5.756 -0.1224  0.2451  0.1248
 1091XCA    COO 9831   4.199  10.414   9.279  0.2287 -0.1799  0.2651
 1091XCA     C1 9832   4.194  10.038   8.940 -0.0885 -0.0773  0.0878
 1091XCA     C2 9833   4.161  10.068   8.437  0.1247 -0.1018 -0.0739
 1091XCA     C3 9834   4.133  10.249   7.986 -0.1477 -0.1031  0.1787
 1091XCA     C4 9835   4.041  10.119   7.573 -0.2045  0.1705  0.1023
 1091XCA     C5 9836   4.142  10.184   7.200  0.1108  0.0316 -0.0968
 1091XCA     C6 9837   4.425  10.267   6.770 -0.1597 -0.2017  0.0783
 1092CHOL   ROH 9838   1.610   8.052   4.623  0.1509 -0.2155  0.1307
 1092CHOL    R1 9839   1.687   8.226   4.833  0.1575 -0.0146 -0.0355
 1092CHOL    R2 9840   1.636   8.171   5.099 -0.0271  0.3389  0.0104
 1092CHOL    R3 9841   1.904   8.210   5.124 -0.0119  0.1811  0.1042
 1092CHOL    R4 9842   1.805   8.195   5.400 -0.1300  0.3228  0.0695
 1092CHOL    R5 9843   1.925   8.355   5.314  0.0028  0.2234  0.0695
 1092CHOL    C1 9844   2.154   8.247   5.599 -0.1757  0.1653  0.1920
 1092CHOL    C2 9845   2.544   8.076   5.692 -0.0490 -0.3625 -0.1717
 1093XCA    COO 9846   3.405   1.947   8.137 -0.2237  0.1015 -0.0774
 1093XCA     C1 9847   3.372   1.714   7.807 -0.0034 -0.0313 -0.1854
 1093XCA     C2 9848   3.228   1.761   7.431 -0.0879  0.0984  0.1912
 1093XCA     C3 9849   3.173   1.432   7.167 -0.0219  0.0227  0.0895
 1093XCA     C4 9850   3.397   1.156   7.176  0.2822  0.0980 -0.0572
 1093XCA     C5 9851   3.651   1.042   6.877 -0.1095  0.3417 -0.1099
 1093XCA     C6 9852   4.053   0.926   6.842 -0.1035  0.0751  0.1533
 1094PNCE   AM1 9853   5.267   0.587   3.903  0.0099 -0.0906 -0.1935
 1094PNCE   AM2 9854   4.983   0.506   4.006 -0.3858  0.0192  0.2286
 1094PNCE   T1A 9855   5.368   0.947   4.084 -0.0391 -0.2095 -0.1036
 1094PNCE   C2A 9856   5.583   0.981   4.528  0.0955  0.0586  0.1744
 1094PNCE   C3A 9857   5.312   0.892   4.814 -0.0351 -0.0528  0.1598
 1094PNCE   C1B 9858   4.776   0.424   4.350  0.1963 -0.2377 -0.1802
 1094PNCE   C2B 9859   4.617   0.258   4.762  0.0260  0.0461  0.3111
 1094PNCE   C3B 9860   4.550   0.056   5.146  0.0195 -0.0332  0.1681
 1094PNCE   D4B 9861   4.229  -0.174   5.470 -0.0032 -0.2693 -0.0847
 1094PNCE   C5B 9862   4.282  -0.374   5.799  0.0101 -0.0676 -0.1585
 1094PNCE   C6B 9863   4.186  -0.827   5.849  0.0358 -0.1573 -0.3318
 1095XCA    COO 9864   4.072  12.532   7.933  0.0228 -0.1844  0.3093
 1095XCA     C1 9865   4.099  12.108   7.971 -0.3636 -0.1120 -0.0098
 1095XCA     C2 9866   4.217  11.940   7.573  0.1207  0.0825  0.0464
 1095XCA     C3 9867   4.436  11.579   7.412  0.0594 -0.0162 -0.1556
 1095XCA     C4 9868   4.416  11.448   7.062 -0.1625 -0.2281 -0.0268
 1095XCA     C5 9869   4.201  11.097   6.808  0.2559 -0.1197 -0.2437
 1095XCA     C6 9870   3.816  11.082   6.524 -0.0940 -0.0110 -0.2091
 1096XCA    COO 9871   3.981   8.074   9.270 -0.0422 -0.0083  0.0416
 1096XCA     C1 9872   3.568   8.341   8.926  0.1464 -0.0863 -0.1876
 1096XCA     C2 9873   3.707   8.602   8.573  0.0491  0.0548  0.1344
 1096XCA     C3 9874   3.936   8.690   8.285 -0.3662 -0.1931 -0.0444
 1096XCA     C4 9875   3.824   8.847   7.995  0.3702  0.0714  0.0987
 1096XCA     C5 9876   3.469   8.864   7.766 -0.0151  0.1215  0.0576
 1096XCA     C6 9877   3.268   9.034   7.412  0.0604 -0.3061 -0.0803
 1097PNCE   AM1 9878  10.570   7.325   4.877  0.0429  0.0791  0.1496
 1097PNCE   AM2 9879  10.330   7.475   4.962  0.2011 -0.0105 -0.0517
 1097PNCE   T1A 9880  10.745   7.296   5.319 -0.0096 -0.0849  0.0376
 1097PNCE   C2A 9881  10.691   7.018   5.725  0.2279 -0.2171 -0.1103
 1097PNCE   C3A 9882  10.716   6.713   6.108  0.1351  0.0397  0.3418
 1097PNCE   C1B 9883  10.519   7.781   5.272  0.0037  0.0935  0.1640
 1097PNCE   C2B 9884  10.559   7.875   5.656 -0.1326  0.0273  0.2009
 1097PNCE   C3B 9885  10.536   7.652   6.082 -0.0999  0.2352  0.0657
 1097PNCE   D4B 9886  10.477   7.631   6.542 -0.1296  0.1758  0.1855
 1097PNCE   C5B 9887  10.277   7.962   6.841 -0.1307 -0.0872  0.0174
 1097PNCE   C6B 9888  10.057   7.828   7.244  0.0616  0.0724 -0.1893
 1098PNCE   AM1 9889   5.496  15.796   4.340  0.0034 -0.1805 -0.0342
 1098PNCE   AM2 9890   5.776  15.740   4.432  0.0193 -0.0219  0.2178
 1098PNCE   T1A 9891   5.205  16.053   4.520  0.1078 -0.0239 -0.0467
 1098PNCE   C2A 9892   5.114  16.277   4.846  0.0248 -0.0363 -0.1870
 1098PNCE   C3A 9893   5.197  16.480   5.216 -0.0335 -0.0516  0.0193
 1098PNCE   C1B 9894   5.638  16.041   4.754 -0.2225  0.0433  0.0933
 1098PNCE   C2B 9895   5.516  16.114   5.143 -0.0773 -0.0458  0.0593
 1098PNCE   C3B 9896   5.428  16.246   5.579  0.0737 -0.0086 -0.1803
 1098PNCE   D4B 9897   5.008  16.321   5.766 -0.3268  0.1307  0.3321
 1098PNCE   C5B 9898   4.608  16.111   5.646  0.1698 -0.0678 -0.3471
 1098PNCE   C6B 9899   4.204  16.130   5.890  0.0519 -0.0912  0.0044
 1099PNCE   AM1 9900  11.121  13.149   4.726  0.0828  0.1993 -0.3371
 1099PNCE   AM2 9901  11.003  13.429   4.875 -0.2998 -0.0855  0.2705
 1099PNCE   T1A 9902  10.987  12.802   5.029  0.1484 -0.1139  0.0890
 1099PNCE   C2A 9903  11.146  12.604   5.289 -0.1521 -0.0319 -0.0822
 1099PNCE   C3A 9904  11.686  12.446   5.271  0.1690 -0.0057  0.0386
 1099PNCE   C1B 9905  11.178  13.193   5.261  0.2555 -0.2937 -0.4052
 1099PNCE   C2B 9906  11.264  13.386   5.728  0.0499  0.1176  0.3882
 1099PNCE   C3B 9907  11.367  13.203   6.044  0.0509  0.1060 -0.0377
 1099PNCE   D4B 9908  11.351  13.039   6.543 -0.0464  0.0906  0.0715
 1099PNCE   C5B 9909  11.430  12.688   6.760  0.0461  0.3207  0.1965
 1099PNCE   C6B 9910  11.432  12.292   6.647  0.1537 -0.0235 -0.0660
 1100CHOL   ROH 9911   2.456  13.897   4.631 -0.1578  0.2014 -0.0449
 1100CHOL    R1 9912   2.361  14.069   4.834 -0.2737  0.0818  0.0051
 1100CHOL    R2 9913   2.147  14.003   4.996 -0.1429 -0.1748  0.0917
 1100CHOL    R3 9914   2.324  14.055   5.196 -0.1124  0.0088  0.0178
 1100CHOL    R4 9915   2.062  14.120   5.310 -0.1102 -0.1590  0.0937
 1100CHOL    R5 9916   2.237  14.250   5.304 -0.2141 -0.0329  0.0005
 1100CHOL    C1 9917   2.178  14.236   5.681 -0.0624  0.0226  0.0255
 1100CHOL    C2 9918   2.119  14.417   6.005  0.1523  0.4517 -0.1663
 1101XCA    COO 9919  14.322  15.870   7.207 -0.2659 -0.0944  0.4645
 1101XCA     C1 9920  14.339  15.919   6.758  0.1057 -0.3017 -0.3975
 1101XCA     C2 9921  14.290  16.024   6.352  0.2816 -0.1445  0.1502
 1101XCA     C3 9922  14.199  16.035   5.790 -0.2875 -0.0930 -0.1262
 1101XCA     C4 9923  14.084  16.418   5.447  0.0209  0.0898  0.1085
 1101XCA     C5 9924  14.017  16.687   5.126  0.2916 -0.2022 -0.0718
 1101XCA     C6 9925  14.153  16.782   4.840  0.1572 -0.1376  0.0625
 1102PNCE   AM1 9926   7.399   4.148   4.491  0.0381  0.1063  0.1004
 1102PNCE   AM2 9927   7.104   4.269   4.487  0.2249 -0.3481 -0.0110
 1102PNCE   T1A 9928   7.425   4.592   4.754  0.3479 -0.0874 -0.1708
 1102PNCE   C2A 9929   7.550   4.816   5.058 -0.0961  0.0152  0.1020
 1102PNCE   C3A 9930   7.758   5.085   5.361 -0.1258 -0.1480 -0.3449
 1102PNCE   C1B 9931   7.120   4.120   4.903  0.1011  0.2651  0.0552
 1102PNCE   C2B 9932   6.881   3.835   5.234  0.2347  0.1069  0.0966
 1102PNCE   C3B 9933   6.950   3.594   5.499  0.3767  0.3056 -0.0547
 1102PNCE   D4B 9934   6.737   3.355   5.806  0.1388  0.1976 -0.2264
 1102PNCE   C5B 9935   6.870   3.219   6.130  0.2180  0.0373 -0.3155
 1102PNCE   C6B 9936   6.815   2.888   6.307 -0.0430 -0.2224  0.0044
 1103CHOL   ROH 9937   7.966   4.202   8.518  0.0889 -0.1654 -0.1642
 1103CHOL    R1 9938   7.759   4.239   8.329  0.1286 -0.1175 -0.1987
 1103CHOL    R2 9939   7.806   4.254   8.057  0.1648 -0.2530 -0.2004
 1103CHOL    R3 9940   7.623   4.053   8.047  0.0468 -0.1497 -0.1385
 1103CHOL    R4 9941   7.544   4.237   7.832  0.1693 -0.1816 -0.2113
 1103CHOL    R5 9942   7.417   4.164   7.993  0.1146 -0.0477 -0.1923
 1103CHOL    C1 9943   7.220   4.039   7.692  0.0611 -0.0430 -0.1596
 1103CHOL    C2 9944   6.962   3.849   7.848  0.0429  0.0262  0.0022
 1104XCA    COO 9945  10.355   5.905   8.415  0.0884  0.0121  0.0524
 1104XCA     C1 9946  10.438   5.622   8.142  0.2392  0.1139 -0.0313
 1104XCA     C2 9947  10.449   5.625   7.793 -0.2451  0.1273 -0.0817
 1104XCA     C3 9948  10.746   5.779   7.438 -0.1535  0.0276 -0.1261
 1104XCA     C4 9949  11.048   6.157   7.377  0.0904  0.0458 -0.1065
 1104XCA     C5 9950  11.464   6.291   7.423  0.1934 -0.2341  0.2361
 1104XCA     C6 9951  11.730   6.312   7.116 -0.0988  0.2282  0.0331
 1105CHOL   ROH 9952   3.587   3.994   7.922  0.1201  0.1952 -0.0082
 1105CHOL    R1 9953   3.378   3.937   7.740  0.1474  0.0660  0.0018
 1105CHOL    R2 9954   3.209   4.132   7.642  0.1303 -0.0160 -0.1161
 1105CHOL    R3 9955   3.288   4.034   7.401  0.1608 -0.1310 -0.0616
 1105CHOL    R4 9956   3.041   4.182   7.344  0.1621 -0.1444 -0.1575
 1105CHOL    R5 9957   3.083   3.975   7.291  0.1656 -0.1771 -0.0570
 1105CHOL    C1 9958   3.017   4.119   6.944  0.2091 -0.3272 -0.1303
 1105CHOL    C2 9959   2.698   4.026   6.893  0.3172  0.0180 -0.0744
 1106PNCE   AM1 9960   4.066  13.344   4.405 -0.2104 -0.2310 -0.1310
 1106PNCE   AM2 9961   3.790  13.533   4.415  0.0050 -0.0473  0.0022
 1106PNCE   T1A 9962   4.100  13.334   4.858  0.0339  0.0630 -0.0178
 1106PNCE   C2A 9963   4.017  13.476   5.314  0.0580  0.0763 -0.3585
 1106PNCE   C3A 9964   3.785  13.742   5.539 -0.2071  0.1329  0.1552
 1106PNCE   C1B 9965   3.669  13.712   4.912  0.2486 -0.3569 -0.0984
 1106PNCE   C2B 9966   3.249  13.812   5.196 -0.1390  0.1028 -0.5724
 1106PNCE   C3B 9967   2.984  13.716   5.468  0.0528  0.1290 -0.0048
 1106PNCE   D4B 9968   2.885  13.505   5.862  0.5352  0.1411  0.0283
 1106PNCE   C5B 9969   2.728  13.740   6.220 -0.1241  0.0187 -0.1056
 1106PNCE   C6B 9970   2.749  13.839   6.613  0.0439 -0.1687  0.0668
 1107CHOL   ROH 9971   5.612  10.024   7.125  0.1237  0.2698  0.1178
 1107CHOL    R1 9972   5.755  10.231   6.995  0.1277  0.1960  0.0042
 1107CHOL    R2 9973   5.917  10.185   6.777  0.0179  0.0945 -0.0543
 1107CHOL    R3 9974   5.764  10.377   6.662  0.0263  0.1124 -0.0366
 1107CHOL    R4 9975   6.035  10.431   6.564  0.0269  0.0818 -0.0646
 1107CHOL    R5 9976   5.902  10.573   6.663  0.0511  0.0974 -0.0481
 1107CHOL    C1 9977   5.959  10.755   6.333  0.0399  0.0914 -0.0540
 1107CHOL    C2 9978   6.261  10.897   6.035  0.2613  0.1979 -0.4268
 1108CHOL   ROH 9979  11.002   7.278   4.815 -0.1073  0.2643  0.1801
 1108CHOL    R1 9980  10.934   7.057   4.978 -0.0912  0.2148  0.1210
 1108CHOL    R2 9981  11.120   6.871   5.063 -0.0950  0.1499 -0.0099
 1108CHOL    R3 9982  11.025   6.935   5.309 -0.0018  0.0756  0.0459
 1108CHOL    R4 9983  11.196   6.702   5.354 -0.0165  0.0367 -0.0953
 1108CHOL    R5 9984  10.989   6.724   5.416  0.0076  0.0427 -0.0160
 1108CHOL    C1 9985  11.152   6.664   5.756  0.1166 -0.0989 -0.0927
 1108CHOL    C2 9986  11.265   6.313   5.842 -0.0057  0.0710  0.0048
 1109CHOL   ROH 9987   4.109   1.464   4.239 -0.0856  0.0008  0.0749
 1109CHOL    R1 9988   4.118   1.601   4.486 -0.1990 -0.0213  0.0923
 1109CHOL    R2 9989   4.034   1.487   4.723 -0.0434 -0.1472  0.0919
 1109CHOL    R3 9990   4.283   1.557   4.807 -0.1025  0.1104  0.0605
 1109CHOL    R4 9991   4.154   1.445   5.045  0.1707 -0.3688 -0.0130
 1109CHOL    R5 9992   4.250   1.640   5.029 -0.1189 -0.2079  0.1782
 1109CHOL    C1 9993   4.457   1.487   5.311  0.2398 -0.2560 -0.1035
 1109CHOL    C2 9994   4.397   1.432   5.721 -0.2553  0.0977  0.0188
 1110PNCE   AM1 9995   7.008   2.724   4.682  0.1370  0.0619 -0.1105
 1110PNCE   AM2 9996   6.794   2.524   4.452 -0.2628  0.1186 -0.0139
 1110PNCE   T1A 9997   6.806   2.999   4.965 -0.0045  0.1737 -0.1266
 1110PNCE   C2A 9998   6.715   2.995   5.368 -0.2346 -0.1308  0.0331
 1110PNCE   C3A 9999   6.832   2.865   5.750 -0.0189 -0.0372 -0.1452
 1110PNCE   C1B10000   6.547   2.604   4.829 -0.0976 -0.1420 -0.1917
 1110PNCE   C2B10001   6.562   2.521   5.240  0.0668 -0.1648  0.0418
 1110PNCE   C3B10002   6.376   2.667   5.623 -0.3210  0.2245 -0.0906
 1110PNCE   D4B10003   6.333   2.486   6.038 -0.1541  0.1221  0.1103
 1110PNCE   C5B10004   6.280   2.688   6.409 -0.2332  0.0520 -0.1641
 1110PNCE   C6B10005   6.105   2.843   6.844  0.4462  0.0243  0.2171
 1111XCA    COO10006   4.146   5.505   8.434  0.1356  0.3344  0.1625
 1111XCA     C110007   4.403   5.690   8.135 -0.1360 -0.0885 -0.0083
 1111XCA     C210008   4.655   5.744   7.662 -0.2759  0.2503 -0.2853
 1111XCA     C310009   4.807   5.959   7.300  0.2029 -0.0836 -0.0985
 1111XCA     C410010   4.849   6.190   6.987 -0.0013 -0.1164  0.1715
 1111XCA     C510011   5.096   6.347   6.581 -0.4737 -0.1418 -0.0869
 1111XCA     C610012   5.103   6.645   6.322 -0.0040  0.1193  0.1443
 1112CHOL   ROH10013  13.914   1.686   6.023  0.0756 -0.1627  0.4399
 1112CHOL    R110014  13.738   1.469   6.069 -0.1990  0.0186  0.2744
 1112CHOL    R210015  13.488   1.454   5.952 -0.0181  0.1622 -0.1652
 1112CHOL    R310016  13.578   1.212   5.867 -0.0648  0.0295  0.1548
 1112CHOL    R410017  13.287   1.195   5.843 -0.0476  0.1405 -0.0570
 1112CHOL    R510018  13.416   1.056   5.950 -0.1990  0.1888  0.1869
 1112CHOL    C110019  13.254   0.816   5.701 -0.1089  0.0034  0.3063
 1112CHOL    C210020  13.106   0.557   5.666  0.2528  0.3302 -0.0929
 1113CHOL   ROH10021  11.572   3.864   4.685  0.0182  0.2882  0.1960
 1113CHOL    R110022  11.384   3.942   4.882 -0.1314  0.0272  0.1615
 1113CHOL    R210023  11.174   3.780   4.960  0.1271 -0.3077  0.1848
 1113CHOL    R310024  11.277   3.821   5.208  0.0440 -0.0720  0.1834
 1113CHOL    R410025  11.030   3.671   5.254  0.1640 -0.2650  0.2189
 1113CHOL    R510026  11.086   3.860   5.346 -0.0200 -0.1593  0.1214
 1113CHOL    C110027  11.042   3.646   5.658  0.1075 -0.0190  0.2374
 1113CHOL    C210028  11.047   3.680   6.004 -0.0855  0.1731  0.0611
 1114XCA    COO10029   4.807   8.744   5.369 -0.1087  0.0099  0.0739
 1114XCA     C110030   4.748   8.949   5.776 -0.1188 -0.0936  0.0226
 1114XCA     C210031   4.734   9.035   6.205  0.0675 -0.0532 -0.2311
 1114XCA     C310032   4.573   9.123   6.566  0.0394  0.3547  0.1926
 1114XCA     C410033   4.246   9.042   6.819 -0.2711 -0.0662  0.4495
 1114XCA     C510034   3.897   9.228   6.771 -0.2700 -0.0083  0.0034
 1114XCA     C610035   3.633   9.608   6.678  0.1494  0.0713 -0.1045
 1115CHOL   ROH10036   7.660   1.905   8.779 -0.2553  0.2854 -0.1953
 1115CHOL    R110037   7.675   1.845   8.503 -0.1100  0.1792 -0.1658
 1115CHOL    R210038   7.912   1.775   8.379 -0.0834 -0.1108  0.0323
 1115CHOL    R310039   7.769   1.558   8.300 -0.2544  0.0115  0.0020
 1115CHOL    R410040   7.903   1.651   8.057 -0.1487 -0.0901  0.0263
 1115CHOL    R510041   7.689   1.615   8.082 -0.1801  0.0862 -0.0036
 1115CHOL    C110042   7.763   1.374   7.795 -0.3475  0.0368 -0.0055
 1115CHOL    C210043   7.502   1.392   7.541  0.0064  0.1958  0.1149
 1116XCA    COO10044   8.159   0.579   4.596  0.2590  0.2851  0.2483
 1116XCA     C110045   8.218   0.989   4.971 -0.1917 -0.0022 -0.0395
 1116XCA     C210046   8.095   1.190   5.341 -0.0746  0.4227 -0.2444
 1116XCA     C310047   7.958   1.432   5.630 -0.0131  0.1883 -0.2430
 1116XCA     C410048   8.003   1.536   5.996  0.0451  0.1422  0.1484
 1116XCA     C510049   8.191   1.653   6.386  0.1209  0.2261  0.0808
 1116XCA     C610050   8.184   1.519   6.790  0.0576  0.4002 -0.0075
 1117PNCE   AM110051   6.520   8.198   5.106  0.1068  0.1122  0.3327
 1117PNCE   AM210052   6.497   7.905   5.034  0.0364 -0.2867  0.1497
 1117PNCE   T1A10053   6.557   8.209   5.611  0.2259 -0.1449 -0.2351
 1117PNCE   C2A10054   6.538   8.313   6.102  0.0816  0.1525 -0.1626
 1117PNCE   C3A10055   6.450   8.470   6.544 -0.1349 -0.0206  0.1258
 1117PNCE   C1B10056   6.218   7.821   5.421  0.1752  0.0184  0.2747
 1117PNCE   C2B10057   6.114   8.056   5.847  0.0993  0.0459  0.0315
 1117PNCE   C3B10058   6.052   8.342   6.157 -0.2451  0.2721 -0.3122
 1117PNCE   D4B10059   6.002   8.361   6.629  0.4408  0.1608  0.1220
 1117PNCE   C5B10060   5.891   8.790   6.810  0.1121  0.0744 -0.0793
 1117PNCE   C6B10061   5.737   9.231   7.118  0.0618  0.2089 -0.0848
 1118PNCE   AM110062   6.576  11.557   4.305 -0.0749 -0.2267  0.0456
 1118PNCE   AM210063   6.556  11.162   4.330 -0.2483  0.0215 -0.1413
 1118PNCE   T1A10064   6.440  11.471   4.694 -0.2941  0.0895 -0.2692
 1118PNCE   C2A10065   6.242  11.133   4.902 -0.0979  0.2589 -0.2336
 1118PNCE   C3A10066   6.267  10.970   5.399 -0.0318  0.1912  0.0142
 1118PNCE   C1B10067   6.667  11.003   4.697 -0.1163 -0.2087  0.1672
 1118PNCE   C2B10068   6.624  11.237   5.159  0.1482  0.0132 -0.1231
 1118PNCE   C3B10069   6.877  11.438   5.438 -0.1040  0.2653 -0.3461
 1118PNCE   D4B10070   7.113  11.689   5.509  0.0038  0.1200  0.0810
 1118PNCE   C5B10071   7.096  11.958   5.784 -0.2191 -0.1275 -0.0346
 1118PNCE   C6B10072   6.742  12.249   5.991  0.2763 -0.3230 -0.2774
 1119PNCE   AM110073  15.788   8.450   4.873  0.1193  0.0932 -0.0263
 1119PNCE   AM210074  16.067   8.229   5.005 -0.2285  0.1843  0.2755
 1119PNCE   T1A10075  15.809   8.531   5.295  0.0794 -0.3202  0.2895
 1119PNCE   C2A10076  15.839   8.869   5.666  0.4210 -0.0049 -0.0231
 1119PNCE   C3A10077  15.948   8.834   6.065  0.0123  0.0596 -0.3862
 1119PNCE   C1B10078  16.242   8.261   5.445  0.0428  0.3527  0.1122
 1119PNCE   C2B10079  16.462   8.194   5.897 -0.1204  0.0944  0.0683
 1119PNCE   C3B10080  16.535   8.021   6.320  0.1246 -0.2269 -0.0729
 1119PNCE   D4B10081  16.556   7.623   6.569 -0.2549  0.0993  0.3052
 1119PNCE   C5B10082  16.347   7.640   6.977 -0.1902  0.0522  0.1495
 1119PNCE   C6B10083  16.226   7.630   7.371 -0.0171 -0.0238 -0.2869
 1120PNCE   AM110084  11.777   4.697   4.703  0.1258 -0.1055  0.0487
 1120PNCE   AM210085  11.780   4.401   4.704  0.2967 -0.2624 -0.0927
 1120PNCE   T1A10086  11.783   4.907   5.099  0.0905 -0.2062 -0.2125
 1120PNCE   C2A10087  11.658   4.926   5.576  0.0688 -0.4407  0.0467
 1120PNCE   C3A10088  11.741   4.793   5.980  0.0961  0.1051 -0.0403
 1120PNCE   C1B10089  11.712   4.409   5.130  0.0057  0.2464  0.0245
 1120PNCE   C2B10090  11.567   4.175   5.492 -0.3154  0.0038 -0.0454
 1120PNCE   C3B10091  11.288   4.030   5.722  0.0229 -0.0995 -0.2298
 1120PNCE   D4B10092  10.971   4.202   6.099  0.1665 -0.2889  0.0615
 1120PNCE   C5B10093  10.747   3.923   6.349  0.2596  0.0409 -0.0190
 1120PNCE   C6B10094  10.299   3.819   6.483  0.0810  0.2185 -0.0308
 1121PNCE   AM110095  11.954  12.130   5.028 -0.1706  0.0644  0.3753
 1121PNCE   AM210096  12.069  11.905   4.850  0.0770 -0.2142  0.2550
 1121PNCE   T1A10097  11.475  12.078   5.038 -0.0538  0.1167  0.1316
 1121PNCE   C2A10098  11.163  11.977   5.282 -0.1272 -0.1233  0.1842
 1121PNCE   C3A10099  11.129  12.216   5.696  0.0114  0.1721  0.3681
 1121PNCE   C1B10100  12.133  11.721   5.319 -0.2276 -0.0692  0.0512
 1121PNCE   C2B10101  12.120  11.892   5.722  0.1514  0.0958 -0.0805
 1121PNCE   C3B10102  12.146  11.983   6.134 -0.1202  0.0055 -0.0292
 1121PNCE   D4B10103  12.337  12.208   6.306 -0.0228  0.1103 -0.0012
 1121PNCE   C5B10104  12.198  12.649   6.502 -0.1644  0.0013 -0.0501
 1121PNCE   C6B10105  11.796  12.865   6.303 -0.1238  0.1096 -0.0934
 1122CHOL   ROH10106   6.791   5.539   8.171  0.4335  0.0132 -0.1213
 1122CHOL    R110107   6.890   5.291   8.074  0.2588 -0.0654 -0.1053
 1122CHOL    R210108   6.728   5.104   7.950  0.0933 -0.0285  0.0384
 1122CHOL    R310109   6.914   5.124   7.752 -0.0076 -0.1704 -0.0709
 1122CHOL    R410110   6.785   4.865   7.707 -0.0192 -0.2011  0.1806
 1122CHOL    R510111   6.998   4.902   7.728 -0.0147 -0.1821  0.0450
 1122CHOL    C110112   6.993   4.744   7.380 -0.1796 -0.4348  0.1607
 1122CHOL    C210113   6.928   4.567   6.969 -0.1137  0.2541 -0.1890
 1123CHOL   ROH10114  13.096  15.575   5.508 -0.2945  0.1320  0.0162
 1123CHOL    R110115  13.046  15.702   5.756 -0.2107  0.1682  0.0152
 1123CHOL    R210116  13.095  15.578   5.999 -0.1659  0.1895  0.0157
 1123CHOL    R310117  13.242  15.802   6.046 -0.1205  0.1728 -0.0461
 1123CHOL    R410118  13.201  15.685   6.310  0.0252  0.1394 -0.0308
 1123CHOL    R510119  13.155  15.889   6.251  0.0044  0.1532  0.0187
 1123CHOL    C110120  13.400  15.957   6.535  0.1791  0.0946 -0.1161
 1123CHOL    C210121  13.372  16.156   6.763  0.1216  0.1586 -0.2103
 1124XCA    COO10122   8.280   8.191   8.953 -0.1876  0.1437  0.0456
 1124XCA     C110123   8.175   8.066   8.586 -0.1444 -0.2970 -0.1587
 1124XCA     C210124   8.283   7.840   8.181  0.1673 -0.1926  0.1886
 1124XCA     C310125   8.148   7.402   8.020 -0.2275  0.0916  0.2366
 1124XCA     C410126   8.010   7.019   7.799 -0.2146  0.0335 -0.1627
 1124XCA     C510127   7.849   6.849   7.440  0.1456  0.1798  0.1374
 1124XCA     C610128   7.521   6.945   7.178 -0.3326 -0.2367 -0.1933
 1125CHOL   ROH10129  11.778   5.229   6.371  0.1456  0.0946 -0.0532
 1125CHOL    R110130  11.612   5.398   6.527  0.1498  0.0363  0.0129
 1125CHOL    R210131  11.443   5.586   6.414 -0.0833 -0.1411  0.0727
 1125CHOL    R310132  11.254   5.458   6.561  0.1288 -0.2139  0.2904
 1125CHOL    R410133  11.188   5.742   6.586 -0.1331 -0.2421  0.0932
 1125CHOL    R510134  11.219   5.602   6.750  0.1059 -0.0871  0.1978
 1125CHOL    C110135  10.862   5.713   6.825  0.0369 -0.3693  0.3096
 1125CHOL    C210136  10.789   6.035   6.902 -0.3563  0.4068 -0.0729
 1126PNCE   AM110137  11.399   8.509   4.896  0.3858  0.0891  0.0494
 1126PNCE   AM210138  11.562   8.842   5.070 -0.2430  0.0257 -0.1956
 1126PNCE   T1A10139  11.390   8.427   5.428 -0.2217 -0.2083 -0.0516
 1126PNCE   C2A10140  11.493   8.234   5.792  0.2643  0.0612 -0.2182
 1126PNCE   C3A10141  11.341   7.936   6.223  0.0536 -0.2325 -0.0526
 1126PNCE   C1B10142  11.677   8.807   5.570 -0.1215  0.1783  0.1173
 1126PNCE   C2B10143  11.691   8.623   5.995  0.1383  0.0054  0.0388
 1126PNCE   C3B10144  11.824   8.330   6.321  0.0155  0.1217  0.3022
 1126PNCE   D4B10145  11.811   8.007   6.610  0.0867  0.3181 -0.1959
 1126PNCE   C5B10146  12.067   7.672   6.690 -0.1593  0.1733  0.2042
 1126PNCE   C6B10147  12.084   7.307   6.597 -0.1434  0.0178  0.0388
 1127CHOL   ROH10148   5.122   1.331   8.109 -0.1667 -0.1089  0.0159
 1127CHOL    R110149   4.984   1.287   7.866 -0.0011 -0.1481 -0.0712
 1127CHOL    R210150   4.799   1.466   7.765 -0.1326 -0.2962 -0.0822
 1127CHOL    R310151   4.956   1.454   7.543 -0.0127 -0.0405 -0.0164
 1127CHOL    R410152   4.693   1.537   7.444 -0.1021 -0.4033 -0.1176
 1127CHOL    R510153   4.811   1.368   7.373  0.1775 -0.2302 -0.0918
 1127CHOL    C110154   4.778   1.567   7.049  0.0283 -0.2257 -0.0765
 1127CHOL    C210155   4.649   2.004   7.113 -0.1364  0.0439 -0.0254
 1128PNCE   AM110156   3.592  12.271   8.038  0.0898  0.1094 -0.3718
 1128PNCE   AM210157   3.502  12.500   7.889  0.0557  0.0317 -0.1620
 1128PNCE   T1A10158   3.808  12.287   7.569 -0.0177  0.0493  0.1806
 1128PNCE   C2A10159   3.686  12.040   7.233 -0.1677  0.3746 -0.1801
 1128PNCE   C3A10160   3.301  11.799   7.072  0.0094  0.1043  0.0475
 1128PNCE   C1B10161   3.312  12.422   7.492 -0.0217  0.0658  0.1394
 1128PNCE   C2B10162   3.241  12.293   7.159 -0.1197 -0.0287 -0.0498
 1128PNCE   C3B10163   3.143  12.320   6.759  0.1790 -0.0557  0.0477
 1128PNCE   D4B10164   2.972  12.558   6.389  0.1782  0.0892 -0.3568
 1128PNCE   C5B10165   2.917  12.949   6.364 -0.0075 -0.3539  0.0556
 1128PNCE   C6B10166   3.104  13.321   6.410 -0.1170  0.0841 -0.0506
 1129CHOL   ROH10167   1.055  15.946   7.744  0.2052 -0.2961  0.0635
 1129CHOL    R110168   1.169  15.846   7.506  0.2367 -0.1804  0.0307
 1129CHOL    R210169   1.017  15.754   7.295  0.2672 -0.1028 -0.0201
 1129CHOL    R310170   1.163  15.934   7.153  0.2625 -0.0290  0.0658
 1129CHOL    R410171   1.059  15.746   6.952  0.1937  0.1054 -0.0357
 1129CHOL    R510172   1.268  15.803   6.981  0.2113  0.0607 -0.0400
 1129CHOL    C110173   1.221  15.911   6.619  0.1465  0.2959  0.0359
 1129CHOL    C210174   1.438  15.963   6.242 -0.1130 -0.0811  0.1885
 1130PNCE   AM110175   0.556  11.417   8.173 -0.0635 -0.2454  0.0668
 1130PNCE   AM210176   0.661  11.743   8.176 -0.1235 -0.1682  0.2153
 1130PNCE   T1A10177   0.637  11.417   7.757 -0.0654 -0.1853  0.0110
 1130PNCE   C2A10178   0.415  11.402   7.414  0.1636  0.2195 -0.1284
 1130PNCE   C3A10179   0.065  11.152   7.261  0.1215  0.1637  0.1265
 1130PNCE   C1B10180   0.458  11.920   7.786 -0.0466  0.0211  0.2476
 1130PNCE   C2B10181   0.379  11.920   7.282  0.0770 -0.1521 -0.1378
 1130PNCE   C3B10182   0.263  12.011   6.891  0.1836 -0.0242 -0.0030
 1130PNCE   D4B10183   0.212  12.294   6.580  0.3720  0.1601 -0.0058
 1130PNCE   C5B10184   0.014  12.510   6.646 -0.2304  0.5081 -0.1403
 1130PNCE   C6B10185  -0.421  12.596   6.881  0.0524  0.1108  0.0424
 1131PNCE   AM110186   7.546  13.806   4.552 -0.1889  0.2122  0.0123
 1131PNCE   AM210187   7.667  14.069   4.749  0.2222  0.1186 -0.1564
 1131PNCE   T1A10188   7.804  13.483   4.748  0.1886  0.1286 -0.0225
 1131PNCE   C2A10189   7.787  13.016   4.857 -0.0744 -0.2353  0.0235
 1131PNCE   C3A10190   8.050  12.870   5.273 -0.0230 -0.2646 -0.2190
 1131PNCE   C1B10191   7.701  14.233   5.132  0.1467 -0.1350 -0.0244
 1131PNCE   C2B10192   7.392  14.140   5.564 -0.0129 -0.3747 -0.1007
 1131PNCE   C3B10193   7.371  14.145   5.979 -0.0700 -0.0217 -0.0664
 1131PNCE   D4B10194   7.188  14.023   6.322  0.0796  0.0584 -0.1650
 1131PNCE   C5B10195   6.726  14.146   6.289 -0.1273  0.2573  0.0534
 1131PNCE   C6B10196   6.392  14.133   6.379  0.0217  0.0978 -0.1667
 1132PNCE   AM110197   8.002   5.559   4.679 -0.3817 -0.0114  0.4648
 1132PNCE   AM210198   8.350   5.398   4.716  0.1861  0.3775  0.1330
 1132PNCE   T1A10199   8.100   5.687   5.160 -0.1282 -0.1053  0.1519
 1132PNCE   C2A10200   8.052   5.820   5.556  0.0204 -0.2696  0.1342
 1132PNCE   C3A10201   7.854   5.915   5.968  0.0152 -0.2097  0.1733
 1132PNCE   C1B10202   8.249   5.214   5.189  0.0146 -0.1753  0.0653
 1132PNCE   C2B10203   8.221   4.966   5.503 -0.1874  0.0233 -0.4315
 1132PNCE   C3B10204   8.330   5.011   5.911 -0.1233  0.2778  0.1429
 1132PNCE   D4B10205   8.501   4.877   6.298 -0.2380  0.1795  0.2645
 1132PNCE   C5B10206   8.412   5.199   6.669 -0.3458 -0.0841  0.0652
 1132PNCE   C6B10207   8.491   5.527   7.027 -0.1641  0.1948  0.0779
 1133PNCE   AM110208  12.193  13.173   4.514  0.2706  0.2120 -0.2500
 1133PNCE   AM210209  12.015  13.381   4.740 -0.0197  0.4757 -0.7330
 1133PNCE   T1A10210  12.465  13.077   4.840 -0.0321 -0.1835  0.3457
 1133PNCE   C2A10211  12.528  13.109   5.260 -0.4227 -0.0423  0.0073
 1133PNCE   C3A10212  12.594  13.146   5.731 -0.1172 -0.1287 -0.2315
 1133PNCE   C1B10213  12.189  13.428   5.088  0.1693  0.2351 -0.0618
 1133PNCE   C2B10214  12.187  13.501   5.531 -0.3330 -0.0042  0.1548
 1133PNCE   C3B10215  12.158  13.567   5.920 -0.0535  0.5492 -0.0839
 1133PNCE   D4B10216  12.478  13.694   6.077  0.0084 -0.1252  0.2675
 1133PNCE   C5B10217  12.629  13.585   6.435 -0.1500  0.0741 -0.0053
 1133PNCE   C6B10218  12.709  13.296   6.796  0.2430  0.3790 -0.2964
 1134PNCE   AM110219   4.808   3.710   4.630  0.0007 -0.0980 -0.0747
 1134PNCE   AM210220   4.499   3.654   4.576  0.0053  0.1262 -0.1756
 1134PNCE   T1A10221   5.028   3.424   4.673 -0.0606 -0.1174  0.0347
 1134PNCE   C2A10222   5.288   3.156   4.943  0.1153 -0.1113 -0.2048
 1134PNCE   C3A10223   5.644   3.110   4.962 -0.0869  0.0459  0.1833
 1134PNCE   C1B10224   4.393   3.823   4.954 -0.2768 -0.0313  0.2577
 1134PNCE   C2B10225   4.309   4.135   5.280  0.0745 -0.0997  0.1090
 1134PNCE   C3B10226   4.304   4.095   5.787 -0.0273 -0.2894  0.1822
 1134PNCE   D4B10227   4.284   3.884   6.262 -0.2277  0.1165  0.2494
 1134PNCE   C5B10228   4.088   3.464   6.423 -0.1637  0.0038 -0.1298
 1134PNCE   C6B10229   3.653   3.348   6.598 -0.0820  0.0937 -0.2680
 1135CHOL   ROH10230   5.279   8.741   5.156 -0.1022  0.2394 -0.0500
 1135CHOL    R110231   5.251   8.653   5.424 -0.0857  0.1460 -0.0774
 1135CHOL    R210232   5.436   8.711   5.620 -0.0319  0.0161 -0.0794
 1135CHOL    R310233   5.219   8.808   5.751  0.0160  0.0351 -0.0169
 1135CHOL    R410234   5.437   8.825   5.946  0.1037  0.2059 -0.1455
 1135CHOL    R510235   5.245   8.728   5.975  0.1506  0.1761  0.0139
 1135CHOL    C110236   5.234   8.982   6.259  0.2277  0.3343 -0.1252
 1135CHOL    C210237   5.544   9.029   6.553  0.4390  0.1767  0.0982
 1136PNCE   AM110238   5.382   7.320   5.473  0.3527 -0.0725  0.2462
 1136PNCE   AM210239   5.150   7.678   5.526 -0.1227 -0.1965  0.0070
 1136PNCE   T1A10240   5.312   7.269   5.818 -0.3367  0.0136  0.0408
 1136PNCE   C2A10241   5.294   7.176   6.218  0.0409 -0.0166 -0.4250
 1136PNCE   C3A10242   5.282   7.385   6.556  0.1466 -0.1865 -0.2308
 1136PNCE   C1B10243   5.081   7.671   5.987 -0.0678 -0.2462 -0.0097
 1136PNCE   C2B10244   4.852   7.681   6.241  0.0765  0.0747 -0.0101
 1136PNCE   C3B10245   4.655   7.744   6.717 -0.4100  0.0336  0.1988
 1136PNCE   D4B10246   4.383   7.690   7.045 -0.0057  0.0416 -0.0310
 1136PNCE   C5B10247   3.942   7.626   6.992 -0.2480 -0.1503  0.0353
 1136PNCE   C6B10248   3.541   7.773   7.274  0.3266  0.0336  0.0042
 1137CHOL   ROH10249   7.177  15.007   5.040 -0.1295  0.2371 -0.0651
 1137CHOL    R110250   7.031  14.978   5.281 -0.0523  0.1905 -0.0238
 1137CHOL    R210251   6.887  15.185   5.392 -0.0698  0.1504  0.0280
 1137CHOL    R310252   6.683  15.005   5.384 -0.0289  0.1015  0.0793
 1137CHOL    R410253   6.625  15.173   5.618  0.0018  0.0722  0.1077
 1137CHOL    R510254   6.639  14.955   5.614  0.0536  0.0759  0.0899
 1137CHOL    C110255   6.282  14.997   5.742  0.0818 -0.0191  0.2023
 1137CHOL    C210256   6.105  14.987   6.163 -0.0425  0.1421 -0.3139
 1138PNCE   AM110257  10.802  15.717   5.578 -0.0381 -0.1588 -0.0479
 1138PNCE   AM210258  10.941  15.988   5.631  0.0577 -0.2623  0.0831
 1138PNCE   T1A10259  10.755  15.201   5.630  0.0998 -0.2500 -0.1936
 1138PNCE   C2A10260  10.846  14.943   5.982 -0.3008  0.1122  0.0663
 1138PNCE   C3A10261  11.189  14.702   6.076  0.0689  0.1555 -0.1803
 1138PNCE   C1B10262  11.184  16.159   5.852  0.2927 -0.0243  0.2136
 1138PNCE   C2B10263  11.265  16.521   6.014  0.2594 -0.0115  0.0683
 1138PNCE   C3B10264  11.359  16.704   6.420 -0.2936 -0.0200  0.1138
 1138PNCE   D4B10265  11.444  16.840   6.824  0.1747 -0.2992  0.3703
 1138PNCE   C5B10266  11.457  17.250   6.794  0.0210 -0.3100  0.0916
 1138PNCE   C6B10267  11.703  17.577   7.027  0.2047 -0.1737  0.1665
 1139PNCE   AM110268   1.200   2.056   7.223  0.0625  0.0269 -0.0448
 1139PNCE   AM210269   1.264   2.247   7.446  0.1827 -0.0560 -0.0972
 1139PNCE   T1A10270   1.379   2.031   6.804 -0.0938  0.2502  0.1535
 1139PNCE   C2A10271   1.507   2.141   6.339 -0.2452  0.0102 -0.1471
 1139PNCE   C3A10272   1.359   2.025   5.876 -0.0892  0.1017  0.2443
 1139PNCE   C1B10273   1.419   2.598   7.115  0.4266  0.0470  0.0372
 1139PNCE   C2B10274   1.368   2.588   6.690 -0.2727 -0.1264  0.0015
 1139PNCE   C3B10275   1.465   2.630   6.247  0.1771  0.1300 -0.0024
 1139PNCE   D4B10276   1.422   2.500   5.818 -0.1342  0.1268  0.2302
 1139PNCE   C5B10277   1.814   2.361   5.756  0.3812 -0.1961 -0.1873
 1139PNCE   C6B10278   2.289   2.381   5.667 -0.2788  0.2796 -0.0020
 1140XCA    COO10279   0.885   8.435   8.885 -0.0304  0.1160  0.1309
 1140XCA     C110280   1.121   8.386   8.449 -0.0896 -0.1292  0.0436
 1140XCA     C210281   1.382   8.490   8.090  0.2195  0.2145 -0.2534
 1140XCA     C310282   1.623   8.794   7.890 -0.2899 -0.1253 -0.0846
 1140XCA     C410283   1.631   8.908   7.424 -0.2174 -0.2042  0.0272
 1140XCA     C510284   1.677   9.058   7.032 -0.3856  0.0876 -0.0331
 1140XCA     C610285   1.969   9.362   6.834  0.0142  0.0944 -0.0800
 1141CHOL   ROH10286  10.529   9.758   5.316  0.1758  0.2162  0.0782
 1141CHOL    R110287  10.527   9.603   5.553  0.1730  0.0862 -0.0059
 1141CHOL    R210288  10.399   9.686   5.783  0.1915 -0.0278  0.0460
 1141CHOL    R310289  10.276   9.444   5.762  0.1683 -0.0057 -0.0810
 1141CHOL    R410290  10.217   9.534   6.035  0.1292 -0.1184 -0.0526
 1141CHOL    R510291  10.306   9.343   5.977  0.1181 -0.1031 -0.1194
 1141CHOL    C110292   9.996   9.219   6.162  0.0711 -0.1505 -0.2292
 1141CHOL    C210293   9.897   9.426   6.505  0.1285  0.0237  0.0125
 1142PNCE   AM110294   1.620  12.623   4.260  0.2234 -0.1320 -0.0945
 1142PNCE   AM210295   1.937  12.771   4.155  0.1657  0.0870 -0.5241
 1142PNCE   T1A10296   1.585  12.813   4.606 -0.1843  0.0814 -0.0095
 1142PNCE   C2A10297   1.760  12.896   4.979  0.1523  0.1945 -0.1227
 1142PNCE   C3A10298   2.035  13.089   5.337  0.2378  0.1763  0.1210
 1142PNCE   C1B10299   2.034  13.124   4.542  0.0130  0.0950  0.0268
 1142PNCE   C2B10300   1.776  13.403   4.841  0.0397 -0.2901  0.1861
 1142PNCE   C3B10301   1.511  13.707   4.959  0.1222 -0.1535  0.0769
 1142PNCE   D4B10302   1.526  13.951   5.351  0.1318 -0.2101  0.1125
 1142PNCE   C5B10303   1.758  14.001   5.678  0.0895  0.2498  0.1394
 1142PNCE   C6B10304   1.775  14.005   6.155  0.1413 -0.3035 -0.2473
 1143PNCE   AM110305   7.936   8.192   5.301  0.1572 -0.0232  0.2042
 1143PNCE   AM210306   8.047   7.883   5.259 -0.0602 -0.3109  0.1420
 1143PNCE   T1A10307   8.110   8.061   5.773  0.1349 -0.0913 -0.2347
 1143PNCE   C2A10308   8.388   7.798   6.077  0.0472 -0.1808 -0.1777
 1143PNCE   C3A10309   8.398   7.640   6.505  0.1598 -0.0645  0.1224
 1143PNCE   C1B10310   8.058   7.422   5.254  0.3643 -0.0256  0.0069
 1143PNCE   C2B10311   7.729   7.229   5.549  0.1087  0.3673  0.1659
 1143PNCE   C3B10312   7.731   7.310   5.940  0.0935 -0.2040  0.2359
 1143PNCE   D4B10313   7.986   7.377   6.346 -0.0889 -0.0933  0.3070
 1143PNCE   C5B10314   7.999   7.501   6.795  0.0167 -0.1435 -0.0927
 1143PNCE   C6B10315   8.065   7.336   7.221  0.2758 -0.0443  0.0893
 1144CHOL   ROH10316   4.323  12.786   6.488 -0.1102  0.1518 -0.1705
 1144CHOL    R110317   4.514  12.978   6.571 -0.0376  0.1164 -0.2609
 1144CHOL    R210318   4.634  13.155   6.395 -0.2863  0.2605 -0.2733
 1144CHOL    R310319   4.542  13.341   6.570 -0.0896  0.1257 -0.0172
 1144CHOL    R410320   4.747  13.481   6.414 -0.3444  0.2815 -0.2565
 1144CHOL    R510321   4.737  13.466   6.631 -0.0196  0.1425 -0.2326
 1144CHOL    C110322   4.728  13.845   6.590 -0.1937  0.1671 -0.0063
 1144CHOL    C210323   4.542  14.181   6.428 -0.1206  0.0853 -0.1662
 1145CHOL   ROH10324  15.043  15.740   6.300 -0.0145  0.1084  0.0244
 1145CHOL    R110325  14.911  15.540   6.450 -0.1414  0.0809 -0.1228
 1145CHOL    R210326  14.843  15.572   6.715 -0.1162 -0.0714 -0.0992
 1145CHOL    R310327  14.594  15.506   6.626 -0.1619  0.1508 -0.1444
 1145CHOL    R410328  14.563  15.541   6.916 -0.0692 -0.3062 -0.0673
 1145CHOL    R510329  14.505  15.366   6.799 -0.1565 -0.1050 -0.3403
 1145CHOL    C110330  14.167  15.460   6.949 -0.0848 -0.2343 -0.0913
 1145CHOL    C210331  13.713  15.393   6.906  0.1364 -0.0536 -0.0086
 1146PNCE   AM110332  14.461   8.758   4.804 -0.0394  0.0956  0.1218
 1146PNCE   AM210333  14.231   8.552   4.872  0.2775 -0.0348 -0.0948
 1146PNCE   T1A10334  14.283   9.213   4.984 -0.1732  0.1836 -0.1723
 1146PNCE   C2A10335  14.264   9.579   5.154 -0.0339 -0.0119 -0.0324
 1146PNCE   C3A10336  14.385   9.806   5.560  0.2300 -0.1095 -0.0728
 1146PNCE   C1B10337  13.931   8.380   5.043  0.2030  0.1324  0.1355
 1146PNCE   C2B10338  13.518   8.241   4.939 -0.0404 -0.1204 -0.0254
 1146PNCE   C3B10339  13.248   8.213   5.267 -0.0603  0.1578  0.2027
 1146PNCE   D4B10340  13.153   7.938   5.612  0.1203 -0.2023  0.0320
 1146PNCE   C5B10341  12.912   7.684   5.853  0.0806 -0.0827 -0.0364
 1146PNCE   C6B10342  12.553   7.557   6.066  0.5526  0.0788  0.1531
 1147CHOL   ROH10343  15.485  10.349   8.523 -0.0485  0.0488 -0.0690
 1147CHOL    R110344  15.531  10.406   8.250 -0.0454  0.0779 -0.0618
 1147CHOL    R210345  15.401  10.272   8.045 -0.0539  0.1111 -0.0753
 1147CHOL    R310346  15.333  10.523   7.967 -0.0375  0.1246 -0.0489
 1147CHOL    R410347  15.265  10.354   7.738  0.0875  0.1690 -0.1242
 1147CHOL    R510348  15.390  10.532   7.735  0.0759  0.1826 -0.0212
 1147CHOL    C110349  15.121  10.637   7.487  0.1852  0.2155 -0.1279
 1147CHOL    C210350  15.214  10.814   7.202  0.2270 -0.1134  0.4967
 1148CHOL   ROH10351   8.782  11.117   7.839  0.0078  0.0839 -0.0780
 1148CHOL    R110352   8.868  11.355   7.713 -0.0527  0.0829 -0.1231
 1148CHOL    R210353   9.128  11.392   7.626 -0.0562  0.1388 -0.1180
 1148CHOL    R310354   9.006  11.449   7.390 -0.0624  0.0531 -0.1351
 1148CHOL    R410355   9.241  11.624   7.396 -0.0383  0.0194 -0.2305
 1148CHOL    R510356   9.034  11.685   7.364 -0.0289  0.0359 -0.2436
 1148CHOL    C110357   9.193  11.813   7.041 -0.0337 -0.1307 -0.3120
 1148CHOL    C210358   9.322  11.846   6.648  0.1676 -0.2394 -0.0027
 1149XCA    COO10359   8.083  11.763   7.898 -0.2650  0.2809  0.1255
 1149XCA     C110360   7.882  11.519   7.540 -0.3259  0.0767 -0.1535
 1149XCA     C210361   7.876  11.414   7.172 -0.2502 -0.0266  0.0054
 1149XCA     C310362   7.787  11.645   6.760 -0.0255  0.1698  0.1130
 1149XCA     C410363   8.174  11.692   6.489 -0.0758  0.1146  0.0191
 1149XCA     C510364   8.559  11.731   6.276 -0.0002  0.4014  0.1371
 1149XCA     C610365   8.931  11.768   6.250  0.0829 -0.2819 -0.2862
 1150PNCE   AM110366   1.215   5.570   4.681 -0.0739 -0.2248 -0.0820
 1150PNCE   AM210367   1.369   5.168   4.630 -0.0651  0.4139  0.1690
 1150PNCE   T1A10368   1.084   5.722   5.019  0.2295 -0.2084  0.2558
 1150PNCE   C2A10369   0.810   5.735   5.452  0.1709 -0.0462 -0.3868
 1150PNCE   C3A10370   0.768   5.517   5.846  0.1287  0.1691 -0.2240
 1150PNCE   C1B10371   0.974   5.237   4.967  0.0980  0.0939  0.0290
 1150PNCE   C2B10372   0.865   5.239   5.411  0.2544  0.2429 -0.1808
 1150PNCE   C3B10373   0.697   5.036   5.681 -0.3066  0.0207  0.1178
 1150PNCE   D4B10374   0.905   4.695   5.966 -0.0883 -0.1216 -0.2697
 1150PNCE   C5B10375   0.756   4.337   6.256  0.0434 -0.3713 -0.1775
 1150PNCE   C6B10376   0.656   3.990   6.256  0.1767 -0.1934 -0.1408
 1151XCA    COO10377  13.412   7.349   8.678  0.1496 -0.1279 -0.1459
 1151XCA     C110378  13.235   7.484   8.243  0.0836  0.1842  0.0691
 1151XCA     C210379  13.276   7.866   7.936 -0.1694 -0.2739 -0.3108
 1151XCA     C310380  13.159   8.174   7.649 -0.1000  0.2755  0.0351
 1151XCA     C410381  13.255   8.372   7.268 -0.1267 -0.0490  0.1376
 1151XCA     C510382  13.401   8.803   7.214  0.0191 -0.0764 -0.1807
 1151XCA     C610383  13.546   8.947   7.586  0.0969 -0.0958  0.0570
 1152CHOL   ROH10384   8.280  10.537   8.002 -0.0043 -0.0861  0.0001
 1152CHOL    R110385   8.274  10.458   7.730  0.1137  0.0025 -0.0295
 1152CHOL    R210386   8.057  10.508   7.566  0.0889 -0.1475 -0.0449
 1152CHOL    R310387   8.244  10.624   7.407  0.0042  0.0906  0.0252
 1152CHOL    R410388   8.030  10.545   7.224  0.1191 -0.0731 -0.0392
 1152CHOL    R510389   8.241  10.494   7.207  0.1760  0.1457 -0.0144
 1152CHOL    C110390   8.191  10.675   6.875  0.0572  0.1937  0.0298
 1152CHOL    C210391   8.044  10.755   6.544 -0.1832  0.0580 -0.1041
 1153PNCE   AM110392   9.826   0.646   5.060  0.0414  0.4294  0.2971
 1153PNCE   AM210393   9.608   0.879   4.840  0.0276  0.2401 -0.5011
 1153PNCE   T1A10394   9.711   0.802   5.475 -0.2815 -0.0744  0.0185
 1153PNCE   C2A10395   9.354   0.975   5.764 -0.3255  0.0816  0.0203
 1153PNCE   C3A10396   8.930   1.005   5.873  0.1370  0.2479  0.0005
 1153PNCE   C1B10397   9.539   1.245   5.292  0.3221 -0.1434  0.2656
 1153PNCE   C2B10398   9.453   1.482   5.687  0.0239 -0.1605  0.0602
 1153PNCE   C3B10399   9.441   1.712   6.087  0.1572  0.2007 -0.0483
 1153PNCE   D4B10400   9.725   1.598   6.351 -0.1078  0.1107 -0.1445
 1153PNCE   C5B10401  10.144   1.476   6.422 -0.0009 -0.2106 -0.1946
 1153PNCE   C6B10402  10.485   1.479   6.663  0.0693  0.3224 -0.1543
 1154XCA    COO10403   8.117   2.497   9.053 -0.2855  0.0793  0.0708
 1154XCA     C110404   8.079   2.176   8.639  0.0248  0.1230 -0.2105
 1154XCA     C210405   7.946   2.165   8.156  0.1677  0.0261  0.1409
 1154XCA     C310406   8.106   1.991   7.688  0.1365 -0.1309  0.1621
 1154XCA     C410407   8.003   1.653   7.395  0.0621 -0.0185  0.1862
 1154XCA     C510408   7.991   1.158   7.389  0.1247 -0.3772  0.0733
 1154XCA     C610409   8.209   0.703   7.462  0.1234 -0.2435 -0.1893
 1155CHOL   ROH10410   6.178  14.399   7.232 -0.1339 -0.0985 -0.0028
 1155CHOL    R110411   6.420  14.262   7.181 -0.1368 -0.0969 -0.0226
 1155CHOL    R210412   6.498  14.185   6.928 -0.1709 -0.1242 -0.0264
 1155CHOL    R310413   6.724  14.323   6.990 -0.1673 -0.1089 -0.0743
 1155CHOL    R410414   6.796  14.164   6.754 -0.2275 -0.0452 -0.1338
 1155CHOL    R510415   6.902  14.168   6.945 -0.1623 -0.0742 -0.1703
 1155CHOL    C110416   7.182  14.280   6.711 -0.2570  0.0151 -0.2413
 1155CHOL    C210417   7.412  14.413   6.484 -0.1124 -0.3627  0.0903
 1156CHOL   ROH10418   2.484  15.270   5.820 -0.0882 -0.2922 -0.0869
 1156CHOL    R110419   2.372  15.104   6.020 -0.0213 -0.1477  0.0731
 1156CHOL    R210420   2.421  14.832   6.032 -0.0632 -0.1493  0.2201
 1156CHOL    R310421   2.498  14.890   6.287  0.0699 -0.0018  0.1486
 1156CHOL    R410422   2.271  14.706   6.317  0.0516  0.0531  0.3736
 1156CHOL    R510423   2.292  14.902   6.409  0.1299  0.1090  0.2412
 1156CHOL    C110424   2.255  14.686   6.721  0.2434  0.3094  0.3958
 1156CHOL    C210425   2.184  14.610   7.104  0.1853  0.2692  0.1130
 1157CHOL   ROH10426   1.384   3.969   7.789  0.0027 -0.1494 -0.1072
 1157CHOL    R110427   1.487   4.164   7.611  0.0255 -0.2739 -0.2321
 1157CHOL    R210428   1.415   4.175   7.345 -0.4587 -0.0645 -0.1016
 1157CHOL    R310429   1.351   4.432   7.405  0.1115  0.0432  0.1110
 1157CHOL    R410430   1.429   4.440   7.123 -0.4693 -0.0400 -0.0735
 1157CHOL    R510431   1.510   4.564   7.283  0.0955 -0.2074 -0.1986
 1157CHOL    C110432   1.377   4.835   7.051  0.0598  0.0753  0.1426
 1157CHOL    C210433   1.609   4.962   6.676 -0.0137 -0.5023  0.2407
 1158PNCE   AM110434   6.719   5.768   4.862  0.3094  0.0677  0.2553
 1158PNCE   AM210435   7.036   5.993   4.842  0.2440  0.0962 -0.4287
 1158PNCE   T1A10436   6.359   5.959   5.203  0.2131  0.2192  0.0659
 1158PNCE   C2A10437   6.087   6.073   5.491  0.1747  0.0390 -0.2539
 1158PNCE   C3A10438   5.666   6.288   5.569  0.2005  0.0062  0.0227
 1158PNCE   C1B10439   7.029   5.801   5.216  0.0962  0.0095 -0.0934
 1158PNCE   C2B10440   7.073   5.444   5.298  0.1194  0.1602  0.3180
 1158PNCE   C3B10441   7.089   5.382   5.691 -0.2159 -0.3888  0.0944
 1158PNCE   D4B10442   7.263   5.458   6.039  0.0904 -0.0311 -0.1069
 1158PNCE   C5B10443   7.638   5.419   6.068  0.0593 -0.0901 -0.0797
 1158PNCE   C6B10444   7.978   5.335   5.778 -0.0471 -0.0018 -0.2354
 1159CHOL   ROH10445   5.559   3.610   4.963 -0.1665  0.0041  0.0402
 1159CHOL    R110446   5.378   3.577   5.178 -0.2861  0.1444 -0.0375
 1159CHOL    R210447   5.458   3.590   5.443 -0.3409 -0.1636 -0.0067
 1159CHOL    R310448   5.262   3.778   5.459 -0.0518  0.1425  0.0651
 1159CHOL    R410449   5.271   3.656   5.726 -0.3074 -0.0670 -0.0065
 1159CHOL    R510450   5.095   3.677   5.599 -0.2503  0.3004 -0.0456
 1159CHOL    C110451   4.979   3.871   5.906 -0.0164  0.2766  0.0611
 1159CHOL    C210452   4.784   3.829   6.277  0.3723  0.1710  0.0222
 1160XCA    COO10453   6.800  14.673   4.981 -0.0471 -0.3865  0.0870
 1160XCA     C110454   6.776  14.229   5.262  0.2048 -0.4354  0.4774
 1160XCA     C210455   6.499  14.078   5.603  0.1373 -0.0151  0.2312
 1160XCA     C310456   6.350  13.816   5.846  0.0929  0.2641 -0.0570
 1160XCA     C410457   5.910  13.552   5.862 -0.2519 -0.0622  0.3089
 1160XCA     C510458   5.964  13.134   5.740 -0.0061 -0.0935  0.0428
 1160XCA     C610459   6.088  12.703   5.625 -0.3771 -0.0044  0.2954
 1161CHOL   ROH10460   3.638  14.958   8.104 -0.2259  0.0543 -0.0645
 1161CHOL    R110461   3.635  14.953   7.821 -0.2933 -0.0068 -0.0631
 1161CHOL    R210462   3.800  14.787   7.673 -0.1487  0.1400 -0.0707
 1161CHOL    R310463   3.565  14.707   7.562 -0.0936 -0.1391  0.0060
 1161CHOL    R410464   3.771  14.605   7.381 -0.0301  0.2752 -0.1676
 1161CHOL    R510465   3.600  14.728   7.326 -0.2457  0.0604 -0.0015
 1161CHOL    C110466   3.534  14.424   7.106  0.0907  0.0918 -0.1520
 1161CHOL    C210467   3.703  14.515   6.818 -0.1482  0.0968 -0.2180
 1162CHOL   ROH10468   8.208   2.971   8.332  0.1256  0.1722  0.0340
 1162CHOL    R110469   8.343   3.073   8.104  0.2388  0.0488  0.0448
 1162CHOL    R210470   8.604   3.005   8.044  0.1524 -0.2687  0.0129
 1162CHOL    R310471   8.496   2.935   7.804  0.0458 -0.0859  0.0060
 1162CHOL    R410472   8.776   2.994   7.744 -0.0307  0.1845 -0.1188
 1162CHOL    R510473   8.602   3.080   7.646 -0.1616  0.1684  0.0895
 1162CHOL    C110474   8.775   2.921   7.345 -0.2374  0.6199 -0.2019
 1162CHOL    C210475   8.552   2.909   6.987  0.0584  0.0668 -0.2658
 1163CHOL   ROH10476   4.227   5.069   8.283 -0.0834 -0.2588 -0.0442
 1163CHOL    R110477   4.358   5.167   8.052 -0.0493 -0.2290 -0.0144
 1163CHOL    R210478   4.265   5.118   7.796 -0.0159 -0.1941 -0.0405
 1163CHOL    R310479   4.276   5.388   7.775 -0.0122 -0.1923  0.0060
 1163CHOL    R410480   4.204   5.295   7.506 -0.0525 -0.1339  0.0055
 1163CHOL    R510481   4.370   5.427   7.558 -0.0460 -0.1510  0.0034
 1163CHOL    C110482   4.179   5.653   7.317 -0.0703 -0.0971  0.0760
 1163CHOL    C210483   3.999   5.677   6.884  0.0749 -0.1648  0.1603
 1164CHOL   ROH10484   9.948   3.305   6.719  0.0246  0.4334 -0.0307
 1164CHOL    R110485   9.730   3.387   6.558  0.0029  0.2925 -0.0738
 1164CHOL    R210486   9.601   3.214   6.384  0.0148  0.1547  0.0524
 1164CHOL    R310487   9.380   3.295   6.520  0.0127  0.2185  0.0110
 1164CHOL    R410488   9.296   3.288   6.240  0.0475  0.1870  0.0001
 1164CHOL    R510489   9.277   3.456   6.376  0.0613  0.2138 -0.0300
 1164CHOL    C110490   8.911   3.407   6.283  0.0644  0.2657 -0.0692
 1164CHOL    C210491   8.795   3.538   5.932 -0.1439  0.3956  0.1084
 1165CHOL   ROH10492  12.131  13.057   5.681  0.1185  0.1576 -0.2489
 1165CHOL    R110493  12.101  13.069   5.962 -0.0202  0.0314 -0.2563
 1165CHOL    R210494  12.303  13.000   6.137 -0.1065 -0.0558 -0.1842
 1165CHOL    R310495  12.258  13.248   6.237 -0.1474 -0.0982 -0.0988
 1165CHOL    R410496  12.263  13.073   6.472 -0.1235 -0.1707 -0.1611
 1165CHOL    R510497  12.105  13.213   6.418 -0.1419 -0.1797 -0.1140
 1165CHOL    C110498  12.197  13.349   6.762 -0.1719 -0.2776 -0.0676
 1165CHOL    C210499  11.949  13.674   7.027  0.0330  0.1338  0.0423
 1166PNCE   AM110500  13.077  14.339   5.034  0.3172  0.2410 -0.1021
 1166PNCE   AM210501  13.301  14.181   4.883  0.2207 -0.0697  0.0014
 1166PNCE   T1A10502  12.972  14.261   5.472 -0.0699 -0.2909 -0.1846
 1166PNCE   C2A10503  12.957  13.894   5.661 -0.0898  0.1268 -0.0172
 1166PNCE   C3A10504  12.709  13.579   5.532 -0.0673 -0.0684  0.1024
 1166PNCE   C1B10505  13.430  14.140   5.324 -0.1615  0.4048  0.0564
 1166PNCE   C2B10506  13.673  13.936   5.564 -0.2726  0.0932 -0.3273
 1166PNCE   C3B10507  13.627  13.568   5.838  0.0908  0.1067  0.0784
 1166PNCE   D4B10508  13.727  13.251   6.145  0.0210 -0.1388  0.2824
 1166PNCE   C5B10509  13.728  13.240   6.573  0.2087  0.4344  0.0999
 1166PNCE   C6B10510  13.719  13.589   6.913 -0.1261 -0.0995  0.1228
 1167XCA    COO10511  15.766  10.909   4.522  0.0980 -0.1435 -0.0527
 1167XCA     C110512  16.091  11.064   4.772 -0.0652  0.0726  0.2186
 1167XCA     C210513  16.219  11.040   5.184  0.3325 -0.0884 -0.0611
 1167XCA     C310514  16.443  11.166   5.538 -0.0628 -0.0693 -0.0716
 1167XCA     C410515  16.423  10.994   5.963 -0.0706  0.1794  0.3118
 1167XCA     C510516  16.363  11.102   6.440 -0.0487  0.1014  0.0703
 1167XCA     C610517  16.171  11.238   6.806  0.1374 -0.0695 -0.0161
 1168PNCE   AM110518   7.243  10.633   8.225 -0.0500 -0.2770 -0.2850
 1168PNCE   AM210519   7.359  10.849   8.250 -0.0506  0.0442  0.2010
 1168PNCE   T1A10520   7.040  10.732   7.827 -0.3166 -0.0062 -0.1239
 1168PNCE   C2A10521   7.119  10.688   7.424 -0.2430 -0.2867 -0.0769
 1168PNCE   C3A10522   7.068  10.937   7.136 -0.1737  0.1662 -0.1121
 1168PNCE   C1B10523   7.495  11.038   7.731  0.4917 -0.3161 -0.3421
 1168PNCE   C2B10524   7.579  10.940   7.288 -0.0444 -0.1570 -0.2251
 1168PNCE   C3B10525   7.812  10.930   6.910 -0.0811 -0.0766 -0.0895
 1168PNCE   D4B10526   7.833  11.216   6.494 -0.0161 -0.1126  0.2035
 1168PNCE   C5B10527   7.490  11.462   6.445 -0.3025  0.0232 -0.2117
 1168PNCE   C6B10528   7.253  11.606   6.106  0.1048 -0.1696 -0.3008
 1169PNCE   AM110529   4.582   6.214   5.028 -0.1312  0.1869 -0.2187
 1169PNCE   AM210530   4.824   6.377   4.842  0.0231  0.0839  0.1149
 1169PNCE   T1A10531   4.913   6.192   5.331 -0.5349  0.1534  0.1035
 1169PNCE   C2A10532   5.176   6.391   5.567  0.2380  0.0914  0.0802
 1169PNCE   C3A10533   5.163   6.777   5.819  0.0100  0.0081  0.0610
 1169PNCE   C1B10534   4.811   6.711   5.213 -0.1850  0.0946  0.1474
 1169PNCE   C2B10535   4.701   6.646   5.594  0.0680 -0.1330  0.0128
 1169PNCE   C3B10536   4.593   6.689   6.068 -0.1729 -0.1668 -0.2070
 1169PNCE   D4B10537   4.526   6.378   6.354 -0.0156  0.1313 -0.0326
 1169PNCE   C5B10538   4.773   6.056   6.361  0.1123  0.1089 -0.1828
 1169PNCE   C6B10539   4.818   5.628   6.480 -0.0390 -0.0286  0.0568
 1170XCA    COO10540   7.581   7.603   5.265  0.0013 -0.1244  0.2323
 1170XCA     C110541   7.709   7.759   5.617  0.0597 -0.3030 -0.0658
 1170XCA     C210542   7.777   7.808   6.093  0.1572  0.1615  0.1255
 1170XCA     C310543   7.951   7.923   6.412  0.2204 -0.0917 -0.1302
 1170XCA     C410544   7.670   7.928   6.739 -0.2281 -0.0623  0.4242
 1170XCA     C510545   7.419   8.174   6.953 -0.0915 -0.2919  0.1095
 1170XCA     C610546   7.195   8.002   7.234  0.0941 -0.1470 -0.2960
 1171CHOL   ROH10547   5.842   6.852   5.276  0.0009 -0.2417 -0.1400
 1171CHOL    R110548   5.844   6.802   5.554 -0.0621 -0.0719 -0.1081
 1171CHOL    R210549   5.693   6.950   5.732 -0.0155  0.1124 -0.2181
 1171CHOL    R310550   5.601   6.705   5.807 -0.1455  0.2019 -0.0798
 1171CHOL    R410551   5.645   6.848   6.059 -0.0723  0.3220 -0.1599
 1171CHOL    R510552   5.725   6.653   6.005 -0.1748  0.2479 -0.0492
 1171CHOL    C110553   5.531   6.560   6.320 -0.2276  0.5279  0.0037
 1171CHOL    C210554   5.553   6.179   6.626  0.2194 -0.2201 -0.2070
 1172CHOL   ROH10555  15.832   8.253   8.702  0.0490 -0.1636 -0.0714
 1172CHOL    R110556  15.824   8.134   8.445 -0.0807 -0.1295 -0.0853
 1172CHOL    R210557  15.665   7.917   8.386 -0.1508 -0.0954 -0.0499
 1172CHOL    R310558  15.573   8.077   8.187 -0.2013 -0.0458  0.0146
 1172CHOL    R410559  15.503   7.805   8.102  0.0049 -0.0368 -0.1613
 1172CHOL    R510560  15.615   7.953   7.987 -0.0634  0.1002 -0.0439
 1172CHOL    C110561  15.323   7.892   7.749  0.0482  0.0437 -0.1656
 1172CHOL    C210562  15.013   7.782   7.510  0.4448 -0.1356  0.3391
 1173PNCE   AM110563  14.041  12.881   4.276 -0.2743 -0.0897 -0.0001
 1173PNCE   AM210564  13.915  12.926   4.534  0.1143 -0.1688 -0.0259
 1173PNCE   T1A10565  14.499  12.677   4.253  0.0542  0.2021 -0.0719
 1173PNCE   C2A10566  14.708  12.520   4.640 -0.0775 -0.4387  0.4063
 1173PNCE   C3A10567  14.565  12.312   5.012 -0.1602  0.1575 -0.2188
 1173PNCE   C1B10568  14.305  12.694   4.864 -0.0419  0.0601  0.0389
 1173PNCE   C2B10569  14.624  12.750   5.252  0.0824 -0.2397  0.0378
 1173PNCE   C3B10570  14.760  12.442   5.442  0.0390  0.3458 -0.0998
 1173PNCE   D4B10571  14.934  12.093   5.722  0.0387  0.3068 -0.0462
 1173PNCE   C5B10572  15.348  12.123   5.787  0.0688  0.3703 -0.2888
 1173PNCE   C6B10573  15.787  12.149   5.942  0.1680  0.3028 -0.0087
 1174CHOL   ROH10574   6.555   6.972   8.549  0.0209  0.1073 -0.0925
 1174CHOL    R110575   6.405   7.153   8.392  0.0185  0.0846 -0.1155
 1174CHOL    R210576   6.454   7.195   8.124 -0.0381 -0.0135 -0.1377
 1174CHOL    R310577   6.190   7.135   8.099 -0.0569  0.0319 -0.0589
 1174CHOL    R410578   6.260   7.275   7.850 -0.0799 -0.0494 -0.1192
 1174CHOL    R510579   6.097   7.326   7.987 -0.0412  0.0236 -0.0929
 1174CHOL    C110580   5.898   7.266   7.667 -0.1218 -0.0276 -0.0345
 1174CHOL    C210581   5.667   7.096   7.526 -0.1161  0.0070 -0.1174
 1175CHOL   ROH10582  11.220   0.030   8.615 -0.1107  0.2100 -0.0634
 1175CHOL    R110583  11.376   0.006   8.379  0.0825  0.1830  0.0649
 1175CHOL    R210584  11.263  -0.042   8.131  0.2911  0.0715 -0.0095
 1175CHOL    R310585  11.402   0.181   8.061  0.2792  0.0919  0.0298
 1175CHOL    R410586  11.309   0.069   7.807 -0.0829  0.3723  0.0325
 1175CHOL    R510587  11.515   0.120   7.859  0.0031  0.2485 -0.1770
 1175CHOL    C110588  11.466   0.342   7.552 -0.3117  0.5666  0.0938
 1175CHOL    C210589  11.572   0.627   7.299 -0.1648 -0.2876 -0.0643
 1176XCA    COO10590  12.962   5.008   5.449 -0.2491 -0.2135  0.0492
 1176XCA     C110591  12.672   5.160   5.776  0.0177 -0.2152 -0.0723
 1176XCA     C210592  12.647   5.393   6.136 -0.0130 -0.0760  0.2861
 1176XCA     C310593  12.862   5.471   6.475 -0.0387 -0.1724  0.2227
 1176XCA     C410594  13.084   5.740   6.527 -0.3301  0.0119 -0.1629
 1176XCA     C510595  13.301   6.008   6.779 -0.1625 -0.0097 -0.1025
 1176XCA     C610596  13.623   6.123   6.926 -0.1378  0.1607 -0.0855
 1177XCA    COO10597  12.860   5.930   8.343 -0.1117  0.0492  0.0433
 1177XCA     C110598  12.870   6.089   7.985  0.0182 -0.0825  0.0054
 1177XCA     C210599  12.658   6.285   7.598  0.3504  0.0866  0.2217
 1177XCA     C310600  12.471   6.591   7.309  0.0085  0.1452 -0.1576
 1177XCA     C410601  12.891   6.707   7.000 -0.1166  0.0146  0.0790
 1177XCA     C510602  13.262   6.541   6.821 -0.1104  0.1197 -0.3267
 1177XCA     C610603  13.664   6.506   6.619  0.1037  0.0235 -0.1412
 1178XCA    COO10604   0.004   7.117   8.985 -0.1851 -0.0124  0.0865
 1178XCA     C110605   0.216   6.871   8.665 -0.2176 -0.1039  0.1374
 1178XCA     C210606   0.322   6.727   8.304  0.0098  0.2154 -0.2900
 1178XCA     C310607   0.177   6.766   7.857 -0.2685  0.0362 -0.0397
 1178XCA     C410608   0.272   6.712   7.395  0.0264  0.1483 -0.0772
 1178XCA     C510609   0.469   6.675   6.972  0.1284  0.1398  0.0280
 1178XCA     C610610   0.839   6.770   6.752  0.0483  0.2384 -0.0746
 1179XCA    COO10611   0.297  13.011   4.167  0.0545  0.0443 -0.2444
 1179XCA     C110612   0.025  13.287   4.433  0.0680  0.0317 -0.1513
 1179XCA     C210613  -0.339  13.288   4.703 -0.0849  0.0679  0.3272
 1179XCA     C310614  -0.397  13.458   5.196  0.1222  0.4164 -0.1326
 1179XCA     C410615  -0.161  13.469   5.588 -0.1555 -0.0554 -0.0763
 1179XCA     C510616  -0.191  13.850   5.807  0.1994 -0.0601 -0.4892
 1179XCA     C610617  -0.391  14.051   6.124  0.0382 -0.4045 -0.2442
 1180CHOL   ROH10618   0.719   8.368   5.421 -0.0549 -0.0840 -0.0849
 1180CHOL    R110619   0.882   8.388   5.652 -0.1084 -0.1111 -0.0456
 1180CHOL    R210620   1.133   8.502   5.647 -0.0642 -0.2170 -0.0012
 1180CHOL    R310621   1.032   8.655   5.848 -0.0489 -0.1384 -0.0492
 1180CHOL    R410622   1.318   8.720   5.841 -0.0793  0.0333 -0.2605
 1180CHOL    R510623   1.204   8.654   6.015  0.0543  0.0796 -0.1430
 1180CHOL    C110624   1.332   8.990   6.143 -0.0736  0.2529 -0.4565
 1180CHOL    C210625   1.623   9.146   6.357 -0.1544  0.2964 -0.0707
 1181PNCE   AM110626   9.095   0.680   9.322  0.0566 -0.2328 -0.0727
 1181PNCE   AM210627   8.867   0.454   9.366 -0.1863 -0.3324  0.1549
 1181PNCE   T1A10628   9.416   0.515   9.011 -0.1622 -0.0516  0.1307
 1181PNCE   C2A10629   9.695   0.403   8.624 -0.2771 -0.2028  0.2393
 1181PNCE   C3A10630   9.733   0.188   8.221  0.1167 -0.0136  0.0743
 1181PNCE   C1B10631   9.042   0.171   8.999 -0.1419 -0.0169 -0.2126
 1181PNCE   C2B10632   9.258  -0.175   8.854 -0.0916  0.0831 -0.0671
 1181PNCE   C3B10633   9.268  -0.480   8.500  0.0638 -0.0880 -0.2593
 1181PNCE   D4B10634   9.136  -0.870   8.294  0.0165  0.1816  0.0214
 1181PNCE   C5B10635   9.466  -0.877   7.924 -0.1012 -0.1939 -0.2683
 1181PNCE   C6B10636   9.500  -0.852   7.468 -0.0116 -0.0131 -0.3203
 1182CHOL   ROH10637  10.414   6.912   5.013 -0.1559  0.0344  0.0927
 1182CHOL    R110638  10.549   6.851   5.254 -0.1159  0.0682  0.0803
 1182CHOL    R210639  10.419   6.748   5.476 -0.0720  0.0439  0.1019
 1182CHOL    R310640  10.608   6.554   5.456 -0.0345  0.0846  0.0777
 1182CHOL    R410641  10.509   6.531   5.730  0.1122  0.1487  0.1266
 1182CHOL    R510642  10.717   6.553   5.669  0.0715  0.1789  0.0198
 1182CHOL    C110643  10.739   6.223   5.859  0.2546  0.2479  0.1181
 1182CHOL    C210644  10.849   6.245   6.202 -0.2848 -0.0684  0.0877
 1183PNCE   AM110645  13.135  15.303   4.777  0.0878 -0.0347 -0.0635
 1183PNCE   AM210646  13.336  15.310   4.515  0.1320  0.1731  0.1701
 1183PNCE   T1A10647  13.256  15.365   5.103  0.1552  0.0889  0.0502
 1183PNCE   C2A10648  13.503  15.472   5.589 -0.2100 -0.0693  0.1545
 1183PNCE   C3A10649  13.592  15.432   5.964 -0.1482  0.0396 -0.1147
 1183PNCE   C1B10650  13.624  15.100   4.777 -0.3889  0.0811  0.2326
 1183PNCE   C2B10651  13.638  15.036   5.291 -0.1503 -0.1795 -0.1295
 1183PNCE   C3B10652  13.827  15.093   5.724 -0.2262 -0.4324 -0.1679
 1183PNCE   D4B10653  13.483  14.928   5.899 -0.0147 -0.3930 -0.0347
 1183PNCE   C5B10654  13.283  15.192   6.215 -0.2898 -0.2064  0.0706
 1183PNCE   C6B10655  12.897  15.154   6.145 -0.0340 -0.0915 -0.2767
 1184PNCE   AM110656  13.064   4.551   5.529 -0.1081 -0.1156 -0.0621
 1184PNCE   AM210657  13.336   4.711   5.615 -0.0548 -0.1878 -0.0160
 1184PNCE   T1A10658  12.952   4.745   5.899 -0.2460 -0.1524  0.2102
 1184PNCE   C2A10659  12.740   4.590   6.218  0.1656 -0.2417 -0.1464
 1184PNCE   C3A10660  12.434   4.595   6.470 -0.2304 -0.4782 -0.3227
 1184PNCE   C1B10661  13.495   4.709   6.113 -0.2037  0.2338 -0.0123
 1184PNCE   C2B10662  13.375   4.418   6.364 -0.0080  0.1581  0.0670
 1184PNCE   C3B10663  12.994   4.333   6.703  0.1120 -0.0501  0.0108
 1184PNCE   D4B10664  12.540   4.280   6.879  0.4982 -0.0921 -0.4925
 1184PNCE   C5B10665  12.095   4.495   6.811  0.0234 -0.1309  0.0225
 1184PNCE   C6B10666  11.790   4.494   6.997  0.0131 -0.1127  0.1741
 1185PNCE   AM110667   6.313  14.919   4.576  0.0982  0.0175  0.2197
 1185PNCE   AM210668   6.516  14.809   4.572  0.1322  0.0433 -0.1971
 1185PNCE   T1A10669   6.207  15.230   4.777 -0.1242  0.2522  0.1289
 1185PNCE   C2A10670   6.138  15.660   4.899 -0.0107 -0.1548  0.1191
 1185PNCE   C3A10671   6.154  16.055   5.093 -0.0687  0.0243  0.4346
 1185PNCE   C1B10672   6.307  14.866   5.105  0.0960 -0.1695 -0.0386
 1185PNCE   C2B10673   6.027  14.814   5.397  0.0277  0.0404 -0.1414
 1185PNCE   C3B10674   5.847  14.748   5.808  0.0528 -0.2705 -0.0500
 1185PNCE   D4B10675   5.534  14.752   6.211 -0.0959  0.0409 -0.1905
 1185PNCE   C5B10676   5.094  14.608   6.315  0.1738  0.2538  0.1602
 1185PNCE   C6B10677   4.636  14.712   6.467 -0.1675  0.3251 -0.0723
 1186XCA    COO10678   8.201   9.100   5.159 -0.1118  0.1105  0.0129
 1186XCA     C110679   8.324   9.136   5.657  0.0856 -0.3138  0.0966
 1186XCA     C210680   8.510   9.419   6.009 -0.1174 -0.1086  0.1238
 1186XCA     C310681   8.641   9.664   6.329  0.0047 -0.0477  0.0721
 1186XCA     C410682   8.353   9.945   6.484  0.0182 -0.2176 -0.2005
 1186XCA     C510683   8.141  10.083   6.919 -0.1313 -0.3140 -0.3430
 1186XCA     C610684   8.007  10.033   7.273  0.0047  0.0450 -0.0929
 1187CHOL   ROH10685  13.301  14.773   6.353  0.1537  0.1295 -0.0489
 1187CHOL    R110686  13.516  14.588   6.367  0.1193  0.0812 -0.1334
 1187CHOL    R210687  13.740  14.609   6.207  0.1310  0.1166 -0.1203
 1187CHOL    R310688  13.871  14.601   6.445  0.1186 -0.0211 -0.1183
 1187CHOL    R410689  14.082  14.574   6.244  0.1814  0.5499 -0.1344
 1187CHOL    R510690  14.045  14.441   6.413  0.3522  0.2684 -0.3183
 1187CHOL    C110691  14.404  14.546   6.490  0.1992  0.6732 -0.1408
 1187CHOL    C210692  14.723  14.518   6.670 -0.1480  0.1911  0.0557
 1188XCA    COO10693   1.396   8.397   8.905 -0.0069 -0.0194 -0.0137
 1188XCA     C110694   1.294   8.780   8.650  0.0147  0.0598  0.0529
 1188XCA     C210695   1.154   8.911   8.260  0.2186  0.4665  0.0003
 1188XCA     C310696   1.225   9.190   7.845 -0.0324  0.0949  0.1344
 1188XCA     C410697   1.225   9.179   7.318 -0.0516 -0.4469  0.2929
 1188XCA     C510698   1.075   9.044   6.902 -0.3827 -0.0874  0.0477
 1188XCA     C610699   0.878   8.688   6.797  0.1267  0.0545  0.1533
 1189XCA    COO10700  12.140  13.845   4.718 -0.2258 -0.1380  0.1373
 1189XCA     C110701  12.411  13.885   5.203 -0.1737 -0.1911 -0.1096
 1189XCA     C210702  12.395  13.954   5.682 -0.1094 -0.0312 -0.1801
 1189XCA     C310703  12.232  14.158   6.104  0.4024  0.2542  0.2395
 1189XCA     C410704  11.870  14.160   6.270  0.1740  0.1249 -0.0996
 1189XCA     C510705  11.589  13.941   6.585  0.0540  0.0276 -0.2523
 1189XCA     C610706  11.462  13.488   6.728  0.0364  0.0126 -0.1478
 1190PNCE   AM110707   3.174   7.831   4.591  0.1110 -0.4360  0.2525
 1190PNCE   AM210708   3.375   7.677   4.803 -0.0897 -0.2987 -0.0269
 1190PNCE   T1A10709   2.871   8.160   4.786  0.2665  0.0187  0.0169
 1190PNCE   C2A10710   2.890   8.306   5.136 -0.2416  0.0906 -0.2413
 1190PNCE   C3A10711   2.826   8.450   5.507  0.0000  0.0740 -0.0328
 1190PNCE   C1B10712   3.383   7.809   5.176 -0.0728  0.2059 -0.1578
 1190PNCE   C2B10713   3.079   7.991   5.517  0.0719 -0.0214  0.0517
 1190PNCE   C3B10714   3.096   8.095   5.861 -0.0632  0.0782 -0.0070
 1190PNCE   D4B10715   2.888   8.367   6.026  0.1313 -0.0495  0.0251
 1190PNCE   C5B10716   2.851   8.608   6.372 -0.0014 -0.0570  0.0758
 1190PNCE   C6B10717   2.540   8.818   6.549 -0.1946 -0.0988 -0.1231
 1191PNCE   AM110718  12.752  10.927   8.076  0.0338  0.0227  0.3065
 1191PNCE   AM210719  12.891  10.566   8.094  0.1830 -0.1386  0.1947
 1191PNCE   T1A10720  12.952  11.111   7.769  0.2527 -0.0250  0.2267
 1191PNCE   C2A10721  13.074  11.165   7.384  0.2041  0.0131 -0.1834
 1191PNCE   C3A10722  13.321  11.340   7.010 -0.1768 -0.0294  0.1344
 1191PNCE   C1B10723  12.678  10.546   7.764  0.1214 -0.2595  0.1367
 1191PNCE   C2B10724  12.525  10.467   7.256  0.0085 -0.1845  0.1900
 1191PNCE   C3B10725  12.669  10.486   6.751  0.0918 -0.2620 -0.1666
 1191PNCE   D4B10726  13.005  10.615   6.478  0.3359 -0.1759  0.2429
 1191PNCE   C5B10727  13.211  10.368   6.183  0.0683 -0.1264  0.0862
 1191PNCE   C6B10728  13.507  10.338   5.890 -0.0210 -0.0076  0.1901
 1192CHOL   ROH10729   9.740   5.301   4.254 -0.2224  0.1508  0.1226
 1192CHOL    R110730   9.751   5.275   4.535 -0.2680  0.1154  0.1206
 1192CHOL    R210731   9.555   5.144   4.680 -0.1470 -0.1565  0.0415
 1192CHOL    R310732   9.766   5.001   4.774  0.0086  0.0893  0.0769
 1192CHOL    R410733   9.591   5.034   5.006 -0.0396 -0.0579  0.0645
 1192CHOL    R510734   9.802   5.085   4.996 -0.0912  0.1716  0.0637
 1192CHOL    C110735   9.809   4.835   5.284  0.1689  0.2302  0.1112
 1192CHOL    C210736   9.723   4.816   5.705 -0.0392  0.0806 -0.3980
 1193PNCE   AM110737   1.920   1.058   3.979  0.0985  0.1702  0.0611
 1193PNCE   AM210738   1.717   1.251   3.787  0.0770 -0.2643  0.0253
 1193PNCE   T1A10739   1.837   1.250   4.339 -0.3773  0.2212  0.0719
 1193PNCE   C2A10740   1.791   1.348   4.740  0.3132 -0.0724 -0.3189
 1193PNCE   C3A10741   1.437   1.350   5.060  0.2528 -0.3058 -0.1029
 1193PNCE   C1B10742   1.450   1.419   4.039  0.2027 -0.1348 -0.1188
 1193PNCE   C2B10743   1.336   1.288   4.486 -0.0290 -0.2381 -0.0726
 1193PNCE   C3B10744   0.945   1.235   4.682  0.1689  0.1439  0.3225
 1193PNCE   D4B10745   0.532   1.623   4.793  0.0860  0.0938 -0.1317
 1193PNCE   C5B10746   0.169   1.561   5.058  0.2061 -0.1231  0.2708
 1193PNCE   C6B10747  -0.192   1.303   5.045  0.1108 -0.0476 -0.0751
 1194CHOL   ROH10748   4.273   0.635   5.872 -0.0157  0.0259 -0.0100
 1194CHOL    R110749   4.137   0.609   6.119  0.0112  0.1968  0.0237
 1194CHOL    R210750   4.014   0.823   6.245 -0.0918  0.2588 -0.1786
 1194CHOL    R310751   3.797   0.659   6.240 -0.0087  0.1409 -0.0082
 1194CHOL    R410752   3.730   0.867   6.436 -0.1182  0.3216 -0.2316
 1194CHOL    R510753   3.724   0.652   6.468 -0.0084  0.3499  0.0013
 1194CHOL    C110754   3.361   0.739   6.544 -0.0555  0.2474 -0.1025
 1194CHOL    C210755   3.155   0.885   6.808 -0.2076 -0.0526  0.1166
 1195CHOL   ROH10756   1.399  15.356   4.475 -0.0146  0.1130 -0.0402
 1195CHOL    R110757   1.288  15.356   4.735  0.0811 -0.0377  0.0025
 1195CHOL    R210758   1.432  15.433   4.958  0.0662  0.1552 -0.0475
 1195CHOL    R310759   1.222  15.602   4.995 -0.1504 -0.1225  0.0246
 1195CHOL    R410760   1.345  15.577   5.260  0.1193  0.2299 -0.0682
 1195CHOL    R510761   1.136  15.543   5.210  0.1225 -0.1070  0.1384
 1195CHOL    C110762   1.098  15.820   5.471 -0.0532  0.0128 -0.0125
 1195CHOL    C210763   1.154  15.961   5.760  0.1261 -0.0156  0.3401
 1196CHOL   ROH10764  10.164   3.042   4.747  0.1966  0.0762  0.0021
 1196CHOL    R110765  10.343   3.114   4.954  0.1538 -0.0145  0.0714
 1196CHOL    R210766  10.292   3.062   5.220  0.1342 -0.2022  0.0320
 1196CHOL    R310767  10.535   2.941   5.210  0.1658 -0.1356 -0.0191
 1196CHOL    R410768  10.504   3.020   5.490  0.2253 -0.1037 -0.0232
 1196CHOL    R510769  10.672   3.068   5.360  0.1739 -0.0759 -0.0779
 1196CHOL    C110770  10.856   2.882   5.637  0.3078  0.0163 -0.1033
 1196CHOL    C210771  10.938   3.204   5.855 -0.0266 -0.1386  0.2657
 1197CHOL   ROH10772   1.294   1.304   6.287 -0.2050  0.1089  0.1429
 1197CHOL    R110773   1.193   1.077   6.151 -0.1270  0.1395  0.0308
 1197CHOL    R210774   1.115   0.847   6.283 -0.0250  0.0349 -0.0833
 1197CHOL    R310775   0.882   0.887   6.149 -0.0521  0.0181 -0.0402
 1197CHOL    R410776   0.856   0.619   6.265 -0.1016  0.1028  0.1371
 1197CHOL    R510777   0.830   0.673   6.056 -0.1465 -0.0245  0.1121
 1197CHOL    C110778   0.486   0.525   6.128 -0.1715  0.1265  0.3060
 1197CHOL    C210779   0.099   0.673   6.135  0.0610  0.2553 -0.0443
 1198PNCE   AM110780   5.165  14.097   4.614 -0.1215 -0.1379 -0.3671
 1198PNCE   AM210781   5.442  14.164   4.798  0.0707  0.0580  0.1522
 1198PNCE   T1A10782   4.756  14.112   4.800 -0.0283  0.2215 -0.2790
 1198PNCE   C2A10783   4.750  13.977   5.183  0.0309 -0.0355 -0.0819
 1198PNCE   C3A10784   4.852  13.873   5.596 -0.1184  0.1158 -0.2552
 1198PNCE   C1B10785   5.358  14.598   5.025  0.4436 -0.0208 -0.1926
 1198PNCE   C2B10786   5.191  14.686   5.525 -0.0568 -0.0560  0.4216
 1198PNCE   C3B10787   5.163  14.906   5.860 -0.1491  0.2517 -0.3737
 1198PNCE   D4B10788   5.129  15.098   6.213 -0.0426 -0.1087 -0.1910
 1198PNCE   C5B10789   5.061  15.630   6.273 -0.1038  0.0865 -0.3036
 1198PNCE   C6B10790   5.026  16.107   6.300 -0.1411  0.4158 -0.1911
 1199PNCE   AM110791  14.067  10.175   8.745  0.2849  0.0717 -0.0368
 1199PNCE   AM210792  13.972   9.782   8.786  0.0273  0.2942 -0.0000
 1199PNCE   T1A10793  13.902  10.664   8.564  0.1537  0.0589 -0.1518
 1199PNCE   C2A10794  13.693  10.980   8.294  0.2134  0.0521 -0.1631
 1199PNCE   C3A10795  13.445  11.038   7.859 -0.0128 -0.2035 -0.2082
 1199PNCE   C1B10796  14.169   9.812   8.353  0.2731  0.3040  0.1986
 1199PNCE   C2B10797  14.292   9.920   8.065  0.0000 -0.1721  0.3580
 1199PNCE   C3B10798  14.466  10.251   7.748  0.0678  0.1246 -0.0962
 1199PNCE   D4B10799  14.770  10.425   7.635  0.1534  0.1763 -0.1577
 1199PNCE   C5B10800  14.897  10.570   7.992  0.2497 -0.2528  0.2402
 1199PNCE   C6B10801  15.055  10.965   8.237  0.1113  0.0316  0.1506
 1200CHOL   ROH10802   3.188   3.238   5.408  0.0706  0.1460  0.0881
 1200CHOL    R110803   2.933   3.358   5.434  0.0561  0.1339  0.0158
 1200CHOL    R210804   2.735   3.330   5.244  0.0643  0.0189  0.0170
 1200CHOL    R310805   2.588   3.245   5.456  0.0688  0.1069  0.0541
 1200CHOL    R410806   2.393   3.367   5.275  0.0456 -0.0974 -0.0504
 1200CHOL    R510807   2.422   3.415   5.486 -0.0026  0.0576 -0.0825
 1200CHOL    C110808   2.056   3.309   5.493  0.0390 -0.0827 -0.0547
 1200CHOL    C210809   1.670   3.263   5.556  0.2368 -0.2351  0.0147
 1201CHOL   ROH10810  14.645   6.711   5.655  0.3118  0.1024  0.1457
 1201CHOL    R110811  14.618   6.953   5.800  0.2291  0.1095  0.1178
 1201CHOL    R210812  14.584   6.960   6.074  0.1123  0.1250  0.0988
 1201CHOL    R310813  14.800   7.124   6.065  0.1002  0.1469  0.1847
 1201CHOL    R410814  14.662   7.196   6.314  0.0131  0.0941  0.1625
 1201CHOL    R510815  14.720   7.332   6.154  0.0477  0.1270  0.1951
 1201CHOL    C110816  14.910   7.487   6.446 -0.0558  0.0967  0.2802
 1201CHOL    C210817  14.853   7.480   6.838 -0.0492 -0.0329 -0.0804
 1202XCA    COO10818   5.113  10.024   4.370 -0.0356  0.0742  0.2267
 1202XCA     C110819   5.136  10.103   4.872  0.3264  0.0233  0.0976
 1202XCA     C210820   5.138  10.333   5.256 -0.0297 -0.2449  0.0299
 1202XCA     C310821   5.254  10.401   5.601 -0.2867  0.1509  0.0986
 1202XCA     C410822   5.467  10.528   5.796 -0.0688 -0.0628  0.1735
 1202XCA     C510823   5.584  10.823   6.047  0.0295  0.0491 -0.2554
 1202XCA     C610824   5.417  11.241   6.240 -0.2262 -0.1135 -0.0163
 1203PNCE   AM110825   9.674   4.492   9.171 -0.0971 -0.1354  0.1986
 1203PNCE   AM210826   9.554   4.697   9.363  0.1860  0.0856  0.0488
 1203PNCE   T1A10827   9.498   4.719   8.743 -0.3479  0.0654  0.0271
 1203PNCE   C2A10828   9.276   4.612   8.408  0.1563  0.1418 -0.2838
 1203PNCE   C3A10829   9.342   4.307   8.202  0.0886  0.1957  0.0111
 1203PNCE   C1B10830   9.200   4.461   9.167 -0.1664 -0.0401  0.2481
 1203PNCE   C2B10831   8.886   4.634   8.830  0.0055  0.3501 -0.0206
 1203PNCE   C3B10832   8.854   4.829   8.378 -0.1363 -0.0981  0.1263
 1203PNCE   D4B10833   9.034   4.756   8.003 -0.0980 -0.2850  0.0456
 1203PNCE   C5B10834   9.130   4.457   7.818 -0.3598 -0.0695  0.1094
 1203PNCE   C6B10835   9.137   4.256   7.382 -0.1114  0.3226  0.0696
 1204CHOL   ROH10836   5.000   0.614   8.181 -0.0813 -0.0177  0.0860
 1204CHOL    R110837   4.895   0.450   7.976 -0.0108 -0.0583  0.0819
 1204CHOL    R210838   4.761   0.552   7.757 -0.0805 -0.1116  0.0979
 1204CHOL    R310839   4.946   0.409   7.618 -0.0143 -0.0060  0.0756
 1204CHOL    R410840   4.756   0.502   7.415 -0.0671 -0.0799  0.0932
 1204CHOL    R510841   4.819   0.296   7.449  0.0362 -0.0519  0.0692
 1204CHOL    C110842   4.927   0.338   7.086  0.0028  0.0377  0.0694
 1204CHOL    C210843   4.867   0.411   6.702 -0.3171  0.1609  0.3372
 1205CHOL   ROH10844  14.937  10.896   4.746 -0.3807 -0.2054  0.2550
 1205CHOL    R110845  14.887  11.022   4.995 -0.2220 -0.0889  0.2292
 1205CHOL    R210846  15.086  11.066   5.182 -0.1111 -0.0420  0.1012
 1205CHOL    R310847  14.999  11.323   5.166 -0.0747 -0.0334  0.0385
 1205CHOL    R410848  15.147  11.311   5.419 -0.0488  0.0152  0.0268
 1205CHOL    R510849  14.942  11.381   5.391 -0.0418  0.0379  0.0292
 1205CHOL    C110850  15.100  11.694   5.541  0.0215  0.0568 -0.0753
 1205CHOL    C210851  15.251  11.631   5.828 -0.0614  0.4341  0.1165
 1206PNCE   AM110852  12.330  10.361   4.944 -0.1413 -0.0293  0.0389
 1206PNCE   AM210853  12.475   9.994   4.942  0.0788  0.1840  0.4349
 1206PNCE   T1A10854  12.191  10.551   5.322 -0.0453  0.3808  0.1621
 1206PNCE   C2A10855  12.045  10.844   5.681  0.0815  0.4737 -0.3122
 1206PNCE   C3A10856  11.770  10.987   5.938 -0.0664 -0.4580 -0.1358
 1206PNCE   C1B10857  12.846  10.107   5.264 -0.1154  0.1749 -0.0055
 1206PNCE   C2B10858  12.643  10.243   5.656 -0.0762  0.0873 -0.0685
 1206PNCE   C3B10859  12.302  10.482   5.876  0.2165  0.4802 -0.1988
 1206PNCE   D4B10860  12.245  10.760   6.159 -0.0074 -0.2077 -0.0350
 1206PNCE   C5B10861  12.224  10.463   6.489  0.2374 -0.0244 -0.2813
 1206PNCE   C6B10862  12.451  10.025   6.672 -0.0432  0.1751  0.0516
 1207CHOL   ROH10863   6.922   3.494   8.127 -0.2374  0.2711 -0.0159
 1207CHOL    R110864   6.949   3.316   7.908 -0.1207  0.0617  0.1653
 1207CHOL    R210865   6.912   3.396   7.646 -0.2211 -0.2430  0.0884
 1207CHOL    R310866   7.160   3.291   7.612 -0.1385 -0.0781  0.1619
 1207CHOL    R410867   7.048   3.303   7.342 -0.1237 -0.2521  0.1338
 1207CHOL    R510868   7.132   3.128   7.439 -0.0075 -0.1632  0.2123
 1207CHOL    C110869   7.360   3.151   7.133  0.0105 -0.1025  0.2291
 1207CHOL    C210870   7.484   2.975   6.811 -0.1625  0.1975  0.0454
 1208PNCE   AM110871   2.234   6.541   8.148 -0.2582 -0.0689 -0.0820
 1208PNCE   AM210872   1.946   6.489   7.954 -0.2139  0.1179 -0.3393
 1208PNCE   T1A10873   2.557   6.325   7.999  0.1328  0.0133  0.2205
 1208PNCE   C2A10874   3.006   6.191   7.869  0.0004 -0.0287 -0.0706
 1208PNCE   C3A10875   3.356   6.202   7.533  0.1717 -0.0450  0.1348
 1208PNCE   C1B10876   1.783   6.816   7.726 -0.2882 -0.1159  0.1858
 1208PNCE   C2B10877   1.741   7.070   7.357 -0.3468 -0.1230 -0.0174
 1208PNCE   C3B10878   1.621   7.262   7.059 -0.0955 -0.0112 -0.3749
 1208PNCE   D4B10879   1.473   7.547   6.802 -0.1342 -0.1521  0.1287
 1208PNCE   C5B10880   1.529   7.705   6.333 -0.4239 -0.1634  0.2590
 1208PNCE   C6B10881   1.508   8.087   6.169 -0.0580 -0.0117 -0.0798
 1209XCA    COO10882   8.858  10.439   4.797 -0.0778  0.1084 -0.1492
 1209XCA     C110883   8.753  10.065   4.849  0.1488 -0.1700 -0.2984
 1209XCA     C210884   8.372   9.974   5.056 -0.0484  0.0891  0.1646
 1209XCA     C310885   8.180   9.718   5.247 -0.3954  0.3679  0.1077
 1209XCA     C410886   8.251   9.632   5.585 -0.3557 -0.0894 -0.0360
 1209XCA     C510887   8.195   9.840   5.949 -0.2044  0.3728  0.0808
 1209XCA     C610888   8.459  10.171   6.054  0.1994  0.0686 -0.3034
 1210PNCE   AM110889   4.040   4.908   5.043 -0.0677  0.0019 -0.2521
 1210PNCE   AM210890   4.347   4.710   5.059 -0.1166  0.3619  0.2748
 1210PNCE   T1A10891   4.079   5.029   5.482  0.0481  0.0816 -0.1423
 1210PNCE   C2A10892   3.980   5.118   5.883  0.1169 -0.0320 -0.0806
 1210PNCE   C3A10893   4.170   5.123   6.194 -0.0462 -0.0839 -0.1960
 1210PNCE   C1B10894   4.627   4.506   5.396 -0.1270 -0.3356  0.0341
 1210PNCE   C2B10895   4.774   4.210   5.647  0.0646  0.0706  0.2418
 1210PNCE   C3B10896   4.722   4.276   6.087 -0.3901 -0.2546  0.2254
 1210PNCE   D4B10897   4.540   4.231   6.506  0.1531  0.0752  0.0741
 1210PNCE   C5B10898   4.200   4.468   6.765 -0.1228  0.2012  0.0771
 1210PNCE   C6B10899   3.893   4.601   7.027  0.0029  0.2716  0.1302
 1211PNCE   AM110900   4.756   4.962   4.918  0.0689  0.1863 -0.0497
 1211PNCE   AM210901   4.614   5.197   5.128 -0.2368  0.0426  0.1612
 1211PNCE   T1A10902   5.088   4.726   5.122  0.0093  0.2218 -0.2020
 1211PNCE   C2A10903   5.112   4.388   5.301  0.1895  0.2239 -0.0073
 1211PNCE   C3A10904   5.442   4.123   5.245 -0.1040  0.1458  0.0927
 1211PNCE   C1B10905   4.754   5.005   5.445 -0.0842 -0.0299 -0.2271
 1211PNCE   C2B10906   5.048   4.710   5.644 -0.2189  0.0753  0.1827
 1211PNCE   C3B10907   5.299   4.194   5.720 -0.1153  0.1900 -0.1967
 1211PNCE   D4B10908   5.499   3.858   6.071  0.0438  0.1166  0.2660
 1211PNCE   C5B10909   5.701   3.512   5.883 -0.1970 -0.1842  0.2333
 1211PNCE   C6B10910   5.848   3.098   6.025  0.0309 -0.1067 -0.0385
 1212CHOL   ROH10911  12.059   5.096   8.513  0.3532 -0.3526 -0.0395
 1212CHOL    R110912  11.971   5.276   8.313  0.2901 -0.1359  0.1773
 1212CHOL    R210913  12.136   5.468   8.204  0.3481 -0.2113  0.1223
 1212CHOL    R310914  12.061   5.353   7.969 -0.0228  0.0076  0.1255
 1212CHOL    R410915  12.225   5.584   7.890  0.4880 -0.3537  0.1092
 1212CHOL    R510916  12.023   5.539   7.822  0.3461  0.1324  0.1821
 1212CHOL    C110917  12.208   5.543   7.488  0.2211 -0.2312  0.1045
 1212CHOL    C210918  12.125   5.607   7.237  0.2146  0.0698  0.1164
 1213PNCE   AM110919   1.414  13.344   3.904  0.0141 -0.3493  0.1437
 1213PNCE   AM210920   1.621  13.532   3.980 -0.0004 -0.2040  0.2271
 1213PNCE   T1A10921   1.187  13.628   4.178  0.0189 -0.0754 -0.1004
 1213PNCE   C2A10922   0.841  13.850   4.436  0.0431  0.2204 -0.0033
 1213PNCE   C3A10923   0.515  14.020   4.725  0.0337  0.0275  0.0091
 1213PNCE   C1B10924   1.760  13.600   4.355  0.1339  0.0765 -0.1044
 1213PNCE   C2B10925   1.895  13.980   4.584  0.1183  0.1663 -0.0700
 1213PNCE   C3B10926   1.696  14.133   4.963  0.1520  0.1343 -0.1399
 1213PNCE   D4B10927   1.748  14.496   5.217 -0.0601 -0.0648 -0.3956
 1213PNCE   C5B10928   1.674  14.474   5.643 -0.1883  0.3023 -0.1813
 1213PNCE   C6B10929   1.504  14.488   6.079 -0.5873  0.0733  0.1084
 1214PNCE   AM110930  12.120  12.688   4.969  0.1458 -0.1006 -0.0667
 1214PNCE   AM210931  12.033  12.944   5.062  0.1261 -0.3121  0.0746
 1214PNCE   T1A10932  12.171  12.643   5.404 -0.1630 -0.1744 -0.2560
 1214PNCE   C2A10933  12.502  12.705   5.551  0.0636  0.1306 -0.1503
 1214PNCE   C3A10934  12.894  12.739   5.703  0.1408 -0.2548  0.0376
 1214PNCE   C1B10935  11.729  12.857   5.451  0.0535 -0.1301 -0.0940
 1214PNCE   C2B10936  11.763  12.585   5.798  0.0762 -0.1327  0.0398
 1214PNCE   C3B10937  12.177  12.516   5.990  0.1985 -0.1467 -0.0093
 1214PNCE   D4B10938  12.679  12.513   6.125  0.1474  0.1367 -0.4248
 1214PNCE   C5B10939  12.701  12.670   6.410 -0.2735  0.1061  0.2276
 1214PNCE   C6B10940  12.726  13.055   6.327  0.3217 -0.3875  0.0629
 1215XCA    COO10941   8.692   6.244   4.729 -0.0061 -0.0569  0.2381
 1215XCA     C110942   8.983   6.199   5.137  0.1251 -0.1674  0.2370
 1215XCA     C210943   9.040   6.212   5.627 -0.0470 -0.1613  0.0959
 1215XCA     C310944   9.064   6.249   6.027 -0.0824 -0.1728  0.1263
 1215XCA     C410945   9.397   6.409   6.200 -0.0047 -0.0986  0.2043
 1215XCA     C510946   9.781   6.279   6.238 -0.0191 -0.1063 -0.0022
 1215XCA     C610947  10.149   5.947   6.356  0.0266 -0.1737  0.0413
 1216CHOL   ROH10948   8.034  10.006   4.723 -0.0115  0.1867 -0.0775
 1216CHOL    R110949   8.001  10.173   4.949  0.0017  0.1786 -0.0691
 1216CHOL    R210950   7.805  10.367   4.963 -0.0680  0.1064 -0.0067
 1216CHOL    R310951   7.739  10.238   5.194  0.0582  0.0841  0.0172
 1216CHOL    R410952   7.622  10.505   5.222 -0.0601  0.0297  0.0397
 1216CHOL    R510953   7.756  10.407   5.363  0.0266  0.0983  0.0055
 1216CHOL    C110954   7.454  10.465   5.589  0.0631 -0.0359  0.0892
 1216CHOL    C210955   7.193  10.235   5.763  0.2932 -0.1269 -0.1382
 1217CHOL   ROH10956   2.137   2.528   7.880  0.0394  0.0741 -0.0135
 1217CHOL    R110957   2.329   2.705   7.769  0.0617  0.0330 -0.0429
 1217CHOL    R210958   2.504   2.628   7.570  0.0400 -0.0154 -0.0496
 1217CHOL    R310959   2.401   2.844   7.441  0.0616 -0.0131 -0.0612
 1217CHOL    R410960   2.662   2.798   7.314  0.0396 -0.0540 -0.0748
 1217CHOL    R510961   2.591   2.985   7.401  0.0723 -0.0409 -0.0881
 1217CHOL    C110962   2.657   3.101   7.043  0.0597 -0.0744 -0.1003
 1217CHOL    C210963   2.826   3.066   6.828 -0.0108  0.1398  0.1370
 1218CHOL   ROH10964   5.555   4.475   8.544 -0.2126 -0.2372  0.0326
 1218CHOL    R110965   5.750   4.355   8.377 -0.1580 -0.2333  0.0927
 1218CHOL    R210966   5.723   4.100   8.274 -0.1859 -0.1840 -0.0294
 1218CHOL    R310967   5.764   4.226   8.037 -0.0117 -0.0973  0.0462
 1218CHOL    R410968   5.734   3.943   7.967 -0.2075 -0.0384 -0.1047
 1218CHOL    R510969   5.900   4.073   7.912 -0.0893 -0.1387  0.0146
 1218CHOL    C110970   5.780   3.970   7.565 -0.0566  0.1277 -0.0777
 1218CHOL    C210971   5.977   3.718   7.332  0.1085 -0.2936 -0.1081
 1219CHOL   ROH10972   6.562  11.490   7.987 -0.0240  0.1727 -0.0197
 1219CHOL    R110973   6.436  11.333   7.787 -0.1000  0.1738  0.0264
 1219CHOL    R210974   6.202  11.412   7.662 -0.0770  0.2403  0.0168
 1219CHOL    R310975   6.349  11.373   7.436 -0.1006  0.1233  0.0221
 1219CHOL    R410976   6.073  11.323   7.354 -0.1139  0.2055  0.0426
 1219CHOL    R510977   6.242  11.189   7.326 -0.1691  0.1367  0.0732
 1219CHOL    C110978   6.135  11.235   6.963 -0.1575  0.0755  0.0626
 1219CHOL    C210979   5.915  11.218   6.717  0.2970 -0.3146  0.2429
 1220XCA    COO10980   5.284   4.162   8.804  0.1712 -0.1627 -0.1694
 1220XCA     C110981   5.194   4.271   8.387  0.3456 -0.1549  0.0323
 1220XCA     C210982   5.368   4.388   8.066  0.0761  0.0488 -0.2549
 1220XCA     C310983   5.561   4.567   7.796  0.1905  0.0665 -0.1370
 1220XCA     C410984   5.572   4.398   7.381 -0.0184 -0.0776  0.1406
 1220XCA     C510985   5.440   4.734   7.146 -0.2689  0.2888  0.1945
 1220XCA     C610986   5.296   5.091   6.884 -0.1480  0.0295 -0.1818
 1221CHOL   ROH10987   9.529  12.697   7.430  0.0269  0.1918  0.0172
 1221CHOL    R110988   9.715  12.730   7.219 -0.0620  0.1528 -0.0678
 1221CHOL    R210989   9.903  12.537   7.156 -0.0632  0.1598 -0.0840
 1221CHOL    R310990   9.794  12.559   6.908 -0.1636  0.0692 -0.0491
 1221CHOL    R410991  10.067  12.465   6.860 -0.1459  0.1481 -0.1276
 1221CHOL    R510992   9.973  12.640   6.771 -0.2381  0.0993 -0.1326
 1221CHOL    C110993  10.060  12.444   6.455 -0.2883  0.0562 -0.1202
 1221CHOL    C210994  10.372  12.609   6.248 -0.0802  0.0958  0.2530
 1222PNCE   AM110995   8.813  12.641   4.737 -0.0363 -0.0293  0.0550
 1222PNCE   AM210996   9.088  12.868   4.594 -0.2460  0.1099 -0.1755
 1222PNCE   T1A10997   8.570  12.660   5.149 -0.0100  0.1403 -0.0593
 1222PNCE   C2A10998   8.577  12.721   5.656  0.2334  0.0122 -0.1012
 1222PNCE   C3A10999   8.594  12.810   6.037  0.1680 -0.2104 -0.4890
 1222PNCE   C1B11000   8.865  13.093   4.965  0.0393 -0.0467  0.3282
 1222PNCE   C2B11001   8.522  13.195   5.311 -0.2075  0.0798  0.2774
 1222PNCE   C3B11002   8.543  13.230   5.674  0.2502  0.1227  0.3496
 1222PNCE   D4B11003   8.491  13.314   6.190 -0.2284 -0.0582 -0.1641
 1222PNCE   C5B11004   8.520  13.712   6.252  0.0168 -0.2016  0.1238
 1222PNCE   C6B11005   8.725  14.107   6.357 -0.2438 -0.0696  0.0296
 1223PNCE   AM111006   8.064   0.041   4.903  0.0892 -0.2885 -0.0896
 1223PNCE   AM211007   7.718   0.181   4.784  0.1612 -0.0199 -0.0334
 1223PNCE   T1A11008   8.189  -0.312   5.083  0.0255 -0.0013 -0.0713
 1223PNCE   C2A11009   8.398  -0.431   5.421 -0.1062  0.2831  0.2238
 1223PNCE   C3A11010   8.299  -0.342   5.846 -0.0315 -0.1677  0.0310
 1223PNCE   C1B11011   7.710   0.318   5.226 -0.0440 -0.1653 -0.1689
 1223PNCE   C2B11012   7.762   0.403   5.684 -0.3434 -0.1040  0.0547
 1223PNCE   C3B11013   7.908   0.614   6.068  0.1087  0.2796 -0.3297
 1223PNCE   D4B11014   7.593   0.689   6.333  0.1490  0.2831 -0.1112
 1223PNCE   C5B11015   7.751   0.783   6.664 -0.2407  0.1678 -0.1613
 1223PNCE   C6B11016   8.079   0.876   6.937  0.1617 -0.3232 -0.0373
 1224PNCE   AM111017   6.930  13.628   4.581 -0.1420  0.2861  0.0096
 1224PNCE   AM211018   7.208  13.454   4.513  0.2515  0.0017 -0.0225
 1224PNCE   T1A11019   6.860  13.348   4.936  0.0851 -0.4592 -0.1699
 1224PNCE   C2A11020   6.871  12.971   5.196 -0.2336  0.0425 -0.1866
 1224PNCE   C3A11021   6.952  12.585   5.160  0.2491 -0.1534  0.2770
 1224PNCE   C1B11022   7.337  13.445   4.922 -0.1889  0.0652  0.0807
 1224PNCE   C2B11023   7.465  13.233   5.297 -0.2530 -0.1218  0.0177
 1224PNCE   C3B11024   7.652  13.099   5.676 -0.3091  0.0189 -0.0171
 1224PNCE   D4B11025   8.133  13.041   5.817  0.1750 -0.2242 -0.2737
 1224PNCE   C5B11026   8.121  12.934   6.286 -0.1178  0.0406  0.1166
 1224PNCE   C6B11027   7.973  13.119   6.630  0.1653 -0.2276 -0.1322
 1225XCA    COO11028  13.947   3.721   4.336  0.6809 -0.3237  0.0450
 1225XCA     C111029  14.259   3.758   4.713  0.2315 -0.0659  0.3697
 1225XCA     C211030  14.519   3.511   5.053 -0.2365 -0.0497 -0.0619
 1225XCA     C311031  14.772   3.600   5.373  0.2041  0.0888 -0.0482
 1225XCA     C411032  15.193   3.519   5.247  0.2084  0.0147  0.2387
 1225XCA     C511033  15.366   3.371   4.882 -0.0563 -0.2166  0.0603
 1225XCA     C611034  15.300   3.574   4.483 -0.1592 -0.4259  0.0814
 1226CHOL   ROH11035   2.351  11.556   4.724 -0.1494  0.0645 -0.1082
 1226CHOL    R111036   2.455  11.530   4.986 -0.2771  0.1677 -0.0464
 1226CHOL    R211037   2.305  11.433   5.197 -0.2639 -0.1295 -0.1708
 1226CHOL    R311038   2.512  11.259   5.222  0.0076  0.1944 -0.0797
 1226CHOL    R411039   2.423  11.308   5.497 -0.4147 -0.1826 -0.1324
 1226CHOL    R511040   2.626  11.330   5.420 -0.3469  0.2271  0.1230
 1226CHOL    C111041   2.686  11.072   5.695 -0.2475  0.0905 -0.0245
 1226CHOL    C211042   2.816  11.187   5.965  0.1502 -0.3596  0.0544
 1227CHOL   ROH11043   7.478  15.368   5.021 -0.0091 -0.0664 -0.0617
 1227CHOL    R111044   7.500  15.336   5.301 -0.0109 -0.0016 -0.0535
 1227CHOL    R211045   7.461  15.544   5.479 -0.1195  0.0181 -0.0941
 1227CHOL    R311046   7.282  15.373   5.590 -0.0477 -0.0462 -0.0774
 1227CHOL    R411047   7.372  15.541   5.813 -0.1824  0.0539 -0.1104
 1227CHOL    R511048   7.373  15.323   5.806 -0.0657  0.0579 -0.0499
 1227CHOL    C111049   7.152  15.378   6.111 -0.1518  0.0145 -0.1041
 1227CHOL    C211050   7.234  15.149   6.375  0.2004 -0.1201 -0.0271
 1228XCA    COO11051   2.293  12.551   7.662  0.2198 -0.0108 -0.1203
 1228XCA     C111052   2.250  12.225   7.345  0.3263  0.2882  0.0120
 1228XCA     C211053   2.216  12.029   6.989 -0.0052 -0.0375 -0.5117
 1228XCA     C311054   2.286  11.830   6.646  0.0568  0.0547 -0.0969
 1228XCA     C411055   2.354  11.513   6.407 -0.0845 -0.1358  0.0104
 1228XCA     C511056   2.426  11.479   5.992 -0.1758 -0.2067 -0.2373
 1228XCA     C611057   2.143  11.447   5.839  0.0697  0.2148  0.2126
 1229CHOL   ROH11058   2.077   2.774   4.549  0.1340 -0.2005  0.1526
 1229CHOL    R111059   2.098   2.575   4.749  0.0379 -0.2705  0.0941
 1229CHOL    R211060   2.028   2.620   5.013  0.1368 -0.2887  0.1250
 1229CHOL    R311061   1.871   2.402   4.975 -0.0344 -0.1638  0.1030
 1229CHOL    R411062   1.998   2.359   5.237 -0.0008 -0.3328  0.0561
 1229CHOL    R511063   1.998   2.221   5.068 -0.1458 -0.2853  0.0182
 1229CHOL    C111064   1.832   2.002   5.332 -0.2417 -0.2412 -0.0047
 1229CHOL    C211065   1.795   1.825   5.689 -0.0142  0.1299 -0.0417
 1230CHOL   ROH11066   9.732   2.201   5.525  0.0074 -0.0315  0.1580
 1230CHOL    R111067   9.453   2.216   5.574  0.0187  0.1440  0.1786
 1230CHOL    R211068   9.303   1.996   5.647 -0.1790  0.1581 -0.1546
 1230CHOL    R311069   9.230   2.156   5.855 -0.0315 -0.0863  0.0914
 1230CHOL    R411070   9.031   1.940   5.854 -0.1916  0.0565 -0.1990
 1230CHOL    R511071   8.990   2.154   5.850 -0.0342  0.0978  0.1182
 1230CHOL    C111072   8.805   2.058   6.169 -0.0604 -0.2321  0.0060
 1230CHOL    C211073   8.681   1.736   6.236 -0.1643 -0.1501 -0.0371
 1231CHOL   ROH11074  13.530   7.098   8.277 -0.0973 -0.0934  0.2195
 1231CHOL    R111075  13.569   6.916   8.064 -0.0713 -0.0192  0.1621
 1231CHOL    R211076  13.443   6.670   8.054 -0.0419 -0.0227  0.0791
 1231CHOL    R311077  13.361   6.758   7.810 -0.0432  0.0384  0.0999
 1231CHOL    R411078  13.311   6.470   7.804 -0.0741  0.0311  0.0512
 1231CHOL    R511079  13.426   6.584   7.659 -0.0631  0.0533  0.0642
 1231CHOL    C111080  13.158   6.436   7.430 -0.0941  0.1198  0.0544
 1231CHOL    C211081  12.946   6.247   7.052  0.2838  0.1343  0.1984
 1232XCA    COO11082  10.100   6.035   8.936  0.2925 -0.2135 -0.0382
 1232XCA     C111083  10.105   6.279   8.643 -0.1583  0.2866  0.3809
 1232XCA     C211084   9.840   6.180   8.212 -0.3054 -0.0304  0.2638
 1232XCA     C311085   9.648   6.439   7.844  0.1397  0.0401  0.0406
 1232XCA     C411086   9.478   6.278   7.542 -0.0271  0.1753  0.1352
 1232XCA     C511087   9.453   6.480   7.106 -0.0792 -0.3828 -0.0088
 1232XCA     C611088   9.392   6.856   6.920 -0.1571 -0.2480 -0.1759
 1233PNCE   AM111089   2.324   4.580   4.883 -0.2085  0.2082 -0.2131
 1233PNCE   AM211090   1.956   4.667   4.906 -0.1998  0.3291  0.2770
 1233PNCE   T1A11091   2.262   4.476   5.277  0.0156 -0.1634 -0.0716
 1233PNCE   C2A11092   2.127   4.238   5.628  0.2835  0.2834 -0.3326
 1233PNCE   C3A11093   2.004   4.078   6.049 -0.2069  0.1124  0.2263
 1233PNCE   C1B11094   1.496   4.602   4.871 -0.0476  0.0496 -0.1168
 1233PNCE   C2B11095   1.134   4.667   5.044 -0.0617 -0.1153  0.2156
 1233PNCE   C3B11096   0.840   4.693   5.322 -0.3023  0.0155  0.0316
 1233PNCE   D4B11097   0.739   4.284   5.582 -0.0271  0.2572 -0.2300
 1233PNCE   C5B11098   1.034   4.152   5.871  0.2838  0.0511 -0.0645
 1233PNCE   C6B11099   1.228   4.090   6.321 -0.2954  0.2924 -0.1243
 1234PNCE   AM111100   2.112  14.055   3.974  0.2811  0.2223 -0.2158
 1234PNCE   AM211101   2.161  13.747   4.071 -0.0956  0.1629 -0.0426
 1234PNCE   T1A11102   2.292  14.193   4.343  0.2106  0.0599  0.2285
 1234PNCE   C2A11103   2.543  14.451   4.542  0.0052 -0.0881  0.1287
 1234PNCE   C3A11104   2.624  14.883   4.753  0.1449  0.0850  0.0135
 1234PNCE   C1B11105   2.268  13.542   4.507 -0.0443  0.1483  0.0898
 1234PNCE   C2B11106   2.260  13.456   4.943  0.0431 -0.0543  0.2750
 1234PNCE   C3B11107   2.323  13.664   5.405  0.0258  0.1167 -0.0446
 1234PNCE   D4B11108   2.291  13.573   5.815  0.0991 -0.5276  0.1075
 1234PNCE   C5B11109   2.047  13.190   5.892  0.1156  0.2128  0.3094
 1234PNCE   C6B11110   1.934  12.831   5.761  0.0167  0.0132  0.2845
 1235PNCE   AM111111  12.738  11.451   4.890  0.0136 -0.1840  0.0712
 1235PNCE   AM211112  12.611  11.738   4.807 -0.0236  0.0496  0.2004
 1235PNCE   T1A11113  12.586  11.301   5.367 -0.0744 -0.1649  0.0371
 1235PNCE   C2A11114  12.229  11.342   5.669 -0.0682  0.1651  0.0334
 1235PNCE   C3A11115  11.731  11.487   5.846 -0.0454 -0.1494 -0.1397
 1235PNCE   C1B11116  12.778  11.806   5.193  0.1729 -0.0070 -0.0651
 1235PNCE   C2B11117  12.847  11.718   5.556  0.0074  0.1111 -0.1700
 1235PNCE   C3B11118  12.590  11.596   5.860  0.1691 -0.2814  0.3184
 1235PNCE   D4B11119  12.524  11.712   6.326  0.1337 -0.0833  0.3784
 1235PNCE   C5B11120  12.920  11.754   6.613 -0.1400  0.1223  0.4401
 1235PNCE   C6B11121  13.270  11.809   6.620  0.1798 -0.0160  0.3683
 1236PNCE   AM111122   0.807   9.906   4.516 -0.0062 -0.0205  0.3899
 1236PNCE   AM211123   0.647   9.671   4.483 -0.4818 -0.0076 -0.0546
 1236PNCE   T1A11124   0.767   9.999   4.988  0.1316 -0.0525 -0.2067
 1236PNCE   C2A11125   1.032  10.261   5.208  0.2361  0.0615 -0.1538
 1236PNCE   C3A11126   1.282  10.630   5.460 -0.2385  0.1443 -0.3136
 1236PNCE   C1B11127   0.457   9.604   4.802  0.0506  0.0542  0.0873
 1236PNCE   C2B11128   0.427   9.789   5.263 -0.1257 -0.3848 -0.0421
 1236PNCE   C3B11129   0.723   9.993   5.507 -0.1590 -0.0810  0.2217
 1236PNCE   D4B11130   1.144  10.094   5.749 -0.0972  0.0843 -0.0466
 1236PNCE   C5B11131   1.479   9.908   5.827 -0.0237 -0.0952  0.0455
 1236PNCE   C6B11132   1.924  10.038   5.767 -0.1300  0.1829  0.1758
 1237CHOL   ROH11133   3.084  14.054   7.757 -0.0318 -0.1220 -0.0424
 1237CHOL    R111134   2.883  13.979   7.572  0.1302 -0.1686 -0.2012
 1237CHOL    R211135   2.651  14.125   7.536 -0.1105 -0.4922 -0.0113
 1237CHOL    R311136   2.729  14.125   7.276 -0.0478  0.0485 -0.0062
 1237CHOL    R411137   2.447  14.203   7.268 -0.1742 -0.3737  0.0703
 1237CHOL    R511138   2.539  14.041   7.157  0.1053 -0.0593 -0.1798
 1237CHOL    C111139   2.402  14.248   6.868 -0.1524  0.2029  0.1225
 1237CHOL    C211140   2.544  14.332   6.431 -0.0506  0.0215 -0.0152
 1238XCA    COO11141   7.593   5.947   4.777  0.0944  0.1986  0.2501
 1238XCA     C111142   7.549   6.004   5.291 -0.0145  0.0915  0.2197
 1238XCA     C211143   7.629   6.243   5.698 -0.1580  0.0118  0.0330
 1238XCA     C311144   7.664   6.330   6.129 -0.0926 -0.0708 -0.2587
 1238XCA     C411145   7.753   6.106   6.409  0.0661  0.0172  0.3962
 1238XCA     C511146   7.891   5.727   6.414  0.1998  0.2076 -0.0300
 1238XCA     C611147   8.072   5.295   6.299 -0.1075  0.1348  0.1728
 1239XCA    COO11148   1.258   7.957   4.883 -0.1052  0.1281 -0.2336
 1239XCA     C111149   1.178   8.164   5.297  0.2794 -0.0955  0.1290
 1239XCA     C211150   1.374   8.141   5.681  0.1240  0.0130 -0.2009
 1239XCA     C311151   1.019   8.200   6.049  0.4247  0.4261 -0.3278
 1239XCA     C411152   0.840   8.534   6.263  0.0792 -0.2316  0.1118
 1239XCA     C511153   0.745   8.935   6.365  0.0106 -0.4883  0.0579
 1239XCA     C611154   1.016   9.200   6.425 -0.0852  0.0741 -0.0644
 1240PNCE   AM111155  13.197  10.915   8.355 -0.1320 -0.4053 -0.2187
 1240PNCE   AM211156  13.087  11.252   8.244 -0.2171  0.0764  0.1827
 1240PNCE   T1A11157  13.382  10.600   8.208 -0.0379  0.1588 -0.0092
 1240PNCE   C2A11158  13.498  10.204   8.410 -0.2617 -0.0209  0.1669
 1240PNCE   C3A11159  13.652   9.772   8.377 -0.0435 -0.0774 -0.0353
 1240PNCE   C1B11160  13.298  11.517   7.901 -0.2476 -0.0438  0.0716
 1240PNCE   C2B11161  13.411  11.706   7.468 -0.5238  0.3825  0.3443
 1240PNCE   C3B11162  13.062  11.771   7.078 -0.1361 -0.1243  0.2339
 1240PNCE   D4B11163  12.798  12.049   7.024  0.1255  0.0050  0.2436
 1240PNCE   C5B11164  12.478  11.917   7.257  0.1081 -0.1162  0.0687
 1240PNCE   C6B11165  12.377  11.848   7.673  0.0309 -0.0597  0.0394
 1241CHOL   ROH11166   4.241   1.994   8.160 -0.2084  0.0076 -0.0102
 1241CHOL    R111167   4.215   2.000   7.878 -0.1665  0.0204 -0.0136
 1241CHOL    R211168   4.045   2.174   7.748 -0.0690  0.0975 -0.0361
 1241CHOL    R311169   4.270   2.242   7.613 -0.0196 -0.0037 -0.0060
 1241CHOL    R411170   4.051   2.306   7.429  0.0256  0.1892  0.0025
 1241CHOL    R511171   4.224   2.180   7.386 -0.0501  0.0919 -0.0271
 1241CHOL    C111172   4.266   2.446   7.115  0.1272  0.1476  0.0531
 1241CHOL    C211173   4.074   2.524   6.866 -0.0432 -0.1736 -0.1317
 1242PNCE   AM111174   8.458   7.469   8.839 -0.1726 -0.2119 -0.0070
 1242PNCE   AM211175   8.322   7.630   8.639  0.0253  0.2707 -0.0407
 1242PNCE   T1A11176   8.424   6.967   8.845  0.1262 -0.4539 -0.1498
 1242PNCE   C2A11177   8.174   6.635   8.689  0.1464 -0.0376  0.1411
 1242PNCE   C3A11178   8.307   6.251   8.521 -0.1355  0.0434  0.0645
 1242PNCE   C1B11179   7.923   7.623   8.419  0.2364 -0.0396  0.3331
 1242PNCE   C2B11180   7.685   7.513   8.055  0.3324 -0.0649 -0.2695
 1242PNCE   C3B11181   7.622   7.274   7.630  0.4041  0.0764  0.1743
 1242PNCE   D4B11182   7.292   7.111   7.638  0.0061  0.1039 -0.1578
 1242PNCE   C5B11183   7.243   6.739   7.852 -0.4305  0.0506 -0.2382
 1242PNCE   C6B11184   7.286   6.601   8.352 -0.1384 -0.7132  0.1676
 1243XCA    COO11185  13.939   0.552   8.578  0.3053 -0.2250 -0.0668
 1243XCA     C111186  14.177   0.423   8.236  0.3516 -0.2415  0.3615
 1243XCA     C211187  14.173   0.241   7.841  0.1283  0.1148  0.3244
 1243XCA     C311188  13.994   0.246   7.434  0.0267  0.1227 -0.1262
 1243XCA     C411189  13.828   0.105   6.979  0.0783  0.0027 -0.1614
 1243XCA     C511190  13.878   0.017   6.595 -0.2654 -0.0868  0.2310
 1243XCA     C611191  13.706  -0.307   6.368  0.4281  0.1212 -0.1381
 1244PNCE   AM111192   0.042   4.079   4.115 -0.1096 -0.0265  0.0027
 1244PNCE   AM211193   0.006   3.975   3.684  0.1945  0.1165  0.0998
 1244PNCE   T1A11194   0.288   3.730   4.360  0.0413 -0.2963  0.1516
 1244PNCE   C2A11195   0.377   3.479   4.707  0.0166  0.2337  0.0838
 1244PNCE   C3A11196   0.362   3.257   5.096 -0.1781  0.0944  0.1565
 1244PNCE   C1B11197  -0.086   3.620   4.036 -0.1193 -0.1019 -0.0220
 1244PNCE   C2B11198  -0.125   3.430   4.426  0.4737  0.2426 -0.3731
 1244PNCE   C3B11199   0.019   3.132   4.733  0.1777  0.1860  0.1269
 1244PNCE   D4B11200   0.097   2.782   5.129 -0.0773  0.1234  0.0151
 1244PNCE   C5B11201  -0.152   2.696   5.513  0.0239  0.0659 -0.2392
 1244PNCE   C6B11202  -0.043   2.855   5.969 -0.1641  0.1593  0.0713
 1245PNCE   AM111203   7.596  11.235   4.341  0.0621 -0.0140 -0.1096
 1245PNCE   AM211204   7.804  11.051   4.478  0.1514 -0.3158  0.1102
 1245PNCE   T1A11205   7.441  11.456   4.675  0.0955  0.0204 -0.1189
 1245PNCE   C2A11206   7.185  11.788   4.912 -0.0462 -0.2276 -0.2255
 1245PNCE   C3A11207   7.018  12.086   5.148  0.0181 -0.1122  0.0598
 1245PNCE   C1B11208   8.093  10.921   4.834  0.4658  0.4834 -0.0810
 1245PNCE   C2B11209   8.102  10.995   5.195  0.2017  0.1619  0.2358
 1245PNCE   C3B11210   7.888  11.337   5.456 -0.1712  0.3921  0.2046
 1245PNCE   D4B11211   7.578  11.668   5.662  0.2416  0.0501 -0.1486
 1245PNCE   C5B11212   7.731  11.759   6.131 -0.2443 -0.1652 -0.0034
 1245PNCE   C6B11213   7.699  12.015   6.426  0.2116 -0.0619  0.4339
 1246PNCE   AM111214   7.766   2.043   4.514  0.1684  0.1261  0.2012
 1246PNCE   AM211215   7.523   1.855   4.405  0.1642 -0.3985 -0.1527
 1246PNCE   T1A11216   7.894   1.966   4.894 -0.1131  0.1282  0.0469
 1246PNCE   C2A11217   8.142   1.806   5.314 -0.1875 -0.0878  0.2418
 1246PNCE   C3A11218   8.417   1.689   5.640 -0.0376 -0.1776 -0.2465
 1246PNCE   C1B11219   7.395   1.861   4.888 -0.1640  0.1722 -0.0356
 1246PNCE   C2B11220   7.150   1.867   5.260  0.2935  0.0666  0.2747
 1246PNCE   C3B11221   7.241   2.014   5.764  0.1253 -0.0635 -0.0463
 1246PNCE   D4B11222   7.344   2.234   6.111  0.0599  0.1259 -0.2464
 1246PNCE   C5B11223   7.226   2.698   6.050  0.0684 -0.2138  0.2734
 1246PNCE   C6B11224   7.282   3.088   6.320  0.2544 -0.1362  0.2568
 1247CHOL   ROH11225  14.872   4.606   7.321 -0.1963 -0.0547  0.1315
 1247CHOL    R111226  14.861   4.621   7.039 -0.1209 -0.1052  0.1255
 1247CHOL    R211227  14.753   4.421   6.883 -0.1626 -0.0926  0.1384
 1247CHOL    R311228  14.602   4.623   6.784 -0.0580 -0.0514  0.0614
 1247CHOL    R411229  14.630   4.436   6.560 -0.0727 -0.1043  0.1034
 1247CHOL    R511230  14.677   4.649   6.558  0.0111 -0.1225  0.0759
 1247CHOL    C111231  14.417   4.635   6.279  0.0779 -0.0724  0.0107
 1247CHOL    C211232  14.086   4.755   6.077  0.1017  0.0370 -0.0800
 1248XCA    COO11233  13.601  11.325   6.571  0.2095  0.4258 -0.1775
 1248XCA     C111234  13.928  11.008   6.530  0.0782  0.0298  0.0123
 1248XCA     C211235  14.362  11.019   6.475  0.2097 -0.1714  0.0218
 1248XCA     C311236  14.755  10.831   6.350 -0.0165 -0.3661  0.0595
 1248XCA     C411237  14.850  10.775   5.917 -0.2521  0.0150 -0.0489
 1248XCA     C511238  14.969  10.800   5.502  0.0568 -0.0571  0.2058
 1248XCA     C611239  15.071  10.592   5.124  0.0468 -0.0873 -0.1322
 1249XCA    COO11240   9.227  14.038   4.924 -0.0396 -0.1457 -0.0462
 1249XCA     C111241   8.993  13.832   5.243 -0.0386 -0.0250 -0.3535
 1249XCA     C211242   9.004  13.365   5.456 -0.1413 -0.1588  0.2101
 1249XCA     C311243   8.963  13.119   5.854 -0.1846 -0.4242 -0.2777
 1249XCA     C411244   8.937  13.088   6.241  0.0143 -0.0220  0.0216
 1249XCA     C511245   8.599  12.949   6.513 -0.1722  0.1509 -0.2277
 1249XCA     C611246   8.290  12.725   6.718  0.2205 -0.1468  0.0726
 1250CHOL   ROH11247   5.747  12.004   4.634  0.2079  0.0068 -0.2833
 1250CHOL    R111248   5.860  12.236   4.751 -0.0476 -0.0463  0.0832
 1250CHOL    R211249   5.874  12.273   5.024  0.0463 -0.5329  0.1487
 1250CHOL    R311250   6.138  12.313   4.972 -0.0291 -0.0724  0.0711
 1250CHOL    R411251   6.095  12.436   5.235 -0.0641 -0.6580  0.3661
 1250CHOL    R511252   6.184  12.531   5.060 -0.2821 -0.1733  0.4942
 1250CHOL    C111253   6.471  12.569   5.308 -0.1991 -0.2986  0.4199
 1250CHOL    C211254   6.738  12.579   5.586 -0.0390  0.0599  0.3026
 1251XCA    COO11255  14.351   5.584   5.367  0.5108 -0.1443 -0.1609
 1251XCA     C111256  14.301   5.816   5.771  0.2078 -0.2814 -0.0872
 1251XCA     C211257  14.175   6.180   6.027 -0.1731 -0.1268 -0.0209
 1251XCA     C311258  14.204   6.565   5.974 -0.2922  0.2058 -0.0238
 1251XCA     C411259  14.079   6.884   6.125 -0.1786 -0.0447  0.1420
 1251XCA     C511260  13.834   6.957   6.417 -0.0780  0.0716  0.0260
 1251XCA     C611261  13.821   6.938   6.875 -0.4416 -0.0787 -0.3145
 1252CHOL   ROH11262  11.089  14.332   8.489 -0.0212 -0.0789 -0.0465
 1252CHOL    R111263  11.244  14.316   8.253 -0.0518  0.0403 -0.0759
 1252CHOL    R211264  11.291  14.077   8.122  0.1144  0.0734 -0.0804
 1252CHOL    R311265  11.191  14.211   7.908 -0.0351 -0.0092 -0.0631
 1252CHOL    R411266  11.239  13.941   7.808  0.1898  0.0366 -0.0771
 1252CHOL    R511267  11.313  14.126   7.721  0.0140  0.1039 -0.0823
 1252CHOL    C111268  11.115  13.988   7.425  0.0935 -0.0623 -0.0590
 1252CHOL    C211269  11.484  13.911   7.053  0.1199 -0.1213 -0.1354
 1253CHOL   ROH11270   1.129  10.619   8.236 -0.1189 -0.3664  0.0610
 1253CHOL    R111271   1.001  10.686   7.993 -0.1968 -0.2467  0.1347
 1253CHOL    R211272   1.055  10.555   7.756 -0.1272 -0.0005  0.0151
 1253CHOL    R311273   0.786  10.518   7.752 -0.1031 -0.1953  0.0131
 1253CHOL    R411274   0.875  10.449   7.481 -0.0189 -0.3758  0.0820
 1253CHOL    R511275   0.719  10.593   7.534 -0.1295 -0.4349 -0.0654
 1253CHOL    C111276   0.516  10.353   7.317  0.0668 -0.7773  0.1189
 1253CHOL    C211277   0.355  10.620   7.004 -0.1512  0.1643  0.0384
 1254XCA    COO11278   5.625  14.611   4.609  0.1750  0.2946  0.2256
 1254XCA     C111279   5.834  14.897   4.922  0.1687  0.2688 -0.1916
 1254XCA     C211280   5.916  15.272   5.256 -0.1316 -0.0056  0.0325
 1254XCA     C311281   5.870  15.275   5.770 -0.0500 -0.0344  0.1542
 1254XCA     C411282   5.921  15.734   6.008 -0.3527 -0.0921  0.1034
 1254XCA     C511283   5.971  16.109   6.268 -0.0341 -0.0549 -0.1539
 1254XCA     C611284   5.797  16.489   6.368 -0.1862  0.3557 -0.1907
 1255PNCE   AM111285  10.453   8.277   5.070  0.1087 -0.1531  0.1718
 1255PNCE   AM211286  10.732   8.323   4.950  0.1136  0.0230  0.0161
 1255PNCE   T1A11287  10.327   8.388   5.502  0.0849 -0.1712  0.0734
 1255PNCE   C2A11288  10.478   8.418   5.916 -0.1278  0.0249  0.1072
 1255PNCE   C3A11289  10.366   8.108   6.229 -0.2814 -0.3233 -0.3258
 1255PNCE   C1B11290  10.937   8.159   5.305  0.0824 -0.1105  0.0081
 1255PNCE   C2B11291  11.059   8.058   5.647  0.2073 -0.1636  0.0966
 1255PNCE   C3B11292  10.874   8.081   5.955 -0.0265  0.2061  0.1913
 1255PNCE   D4B11293  10.808   8.136   6.380 -0.4610 -0.0101  0.0040
 1255PNCE   C5B11294  10.635   8.488   6.426  0.0188  0.4808 -0.0536
 1255PNCE   C6B11295  10.780   8.830   6.492 -0.0131 -0.2102 -0.0833
 1256CHOL   ROH11296  15.520   1.072   3.917 -0.5415 -0.2068 -0.0872
 1256CHOL    R111297  15.540   1.070   4.199 -0.5093 -0.4044 -0.0900
 1256CHOL    R211298  15.489   0.844   4.350 -0.0090 -0.6516 -0.2748
 1256CHOL    R311299  15.738   0.895   4.449 -0.0978 -0.1982 -0.2611
 1256CHOL    R411300  15.578   0.823   4.684 -0.0066 -0.4123 -0.2584
 1256CHOL    R511301  15.698   1.003   4.658 -0.3083 -0.2068 -0.2927
 1256CHOL    C111302  15.863   0.859   4.970 -0.0885  0.1526 -0.2359
 1256CHOL    C211303  15.886   0.703   5.308 -0.0861  0.0691 -0.3793
 1257XCA    COO11304  12.355   9.537   5.093  0.4332 -0.1520 -0.1307
 1257XCA     C111305  12.509   9.709   5.507 -0.0559  0.0482 -0.2480
 1257XCA     C211306  12.734   9.533   5.893  0.0215 -0.1162  0.0763
 1257XCA     C311307  12.600   9.648   6.371 -0.1057 -0.0491  0.0399
 1257XCA     C411308  12.540   9.507   6.789  0.1178 -0.0589  0.1161
 1257XCA     C511309  12.643   9.108   7.061  0.1352 -0.1670 -0.1263
 1257XCA     C611310  12.914   8.849   7.380 -0.0395 -0.1334  0.1748
 1258PNCE   AM111311   4.971  14.738   3.758  0.0071  0.3661  0.2783
 1258PNCE   AM211312   4.884  15.104   3.772 -0.0788 -0.3937 -0.0817
 1258PNCE   T1A11313   4.741  14.796   4.144 -0.2487 -0.0587  0.3499
 1258PNCE   C2A11314   4.417  14.806   4.447 -0.1168  0.0752  0.3668
 1258PNCE   C3A11315   4.454  14.876   4.908 -0.0281  0.1554  0.1564
 1258PNCE   C1B11316   4.512  15.244   4.149 -0.0213  0.0892  0.2789
 1258PNCE   C2B11317   4.352  15.336   4.573  0.3776  0.1063 -0.1125
 1258PNCE   C3B11318   4.337  15.384   4.993 -0.0551 -0.2440 -0.1824
 1258PNCE   D4B11319   4.427  15.272   5.402 -0.1140 -0.0863  0.1535
 1258PNCE   C5B11320   4.594  14.829   5.478 -0.0683  0.0236 -0.1827
 1258PNCE   C6B11321   4.774  14.342   5.549  0.1576 -0.0371 -0.1161
 1259CHOL   ROH11322   9.747   2.039   5.924  0.2026 -0.0919  0.2179
 1259CHOL    R111323   9.667   2.309   5.957  0.1258 -0.1257  0.3121
 1259CHOL    R211324   9.752   2.463   6.170  0.3028 -0.0942  0.2207
 1259CHOL    R311325   9.832   2.633   5.973  0.0089 -0.0562  0.1300
 1259CHOL    R411326   9.865   2.786   6.221  0.1067 -0.0021  0.0834
 1259CHOL    R511327   9.753   2.848   6.044 -0.0916 -0.1058  0.1699
 1259CHOL    C111328  10.005   3.133   6.065 -0.2835  0.0872 -0.0817
 1259CHOL    C211329  10.150   3.345   6.344 -0.1840  0.0789 -0.2976
 1260XCA    COO11330   4.673   9.289   5.213 -0.0272  0.2139 -0.2375
 1260XCA     C111331   4.736   9.389   5.477 -0.0125  0.0528  0.0368
 1260XCA     C211332   4.437   9.357   5.760 -0.1264 -0.0193 -0.2410
 1260XCA     C311333   4.558   9.537   6.113 -0.0335  0.2102 -0.0201
 1260XCA     C411334   4.514   9.937   6.364  0.2111  0.1017  0.0444
 1260XCA     C511335   4.469  10.393   6.263 -0.2526 -0.2729 -0.3092
 1260XCA     C611336   4.547  10.685   6.588  0.2433 -0.1204  0.3830
 1261XCA    COO11337  10.441   0.584   5.436 -0.1680 -0.0442  0.0169
 1261XCA     C111338  10.102   0.754   5.722 -0.3297 -0.1194 -0.1255
 1261XCA     C211339   9.943   0.943   6.009 -0.0152  0.1516 -0.3807
 1261XCA     C311340   9.598   1.191   6.101 -0.1033  0.1319 -0.0464
 1261XCA     C411341   9.435   1.150   6.525  0.0328 -0.0312  0.0431
 1261XCA     C511342   9.450   1.476   6.813  0.0518  0.2881 -0.0062
 1261XCA     C611343   9.580   1.981   6.594 -0.1336  0.0073 -0.2894
 1262PNCE   AM111344  12.494   1.908   4.952  0.0270  0.0384  0.1371
 1262PNCE   AM211345  12.764   2.051   4.710 -0.1958  0.0208 -0.3007
 1262PNCE   T1A11346  12.432   1.742   5.420 -0.0697 -0.0613 -0.3133
 1262PNCE   C2A11347  12.429   1.822   5.849  0.2067 -0.0188  0.3291
 1262PNCE   C3A11348  12.278   1.903   6.281  0.0359  0.0027 -0.0318
 1262PNCE   C1B11349  12.922   2.367   5.002  0.2791 -0.0702 -0.0603
 1262PNCE   C2B11350  13.171   2.417   5.364  0.1425  0.0154  0.1076
 1262PNCE   C3B11351  13.058   2.185   5.680 -0.1772 -0.0268  0.3475
 1262PNCE   D4B11352  13.174   2.435   6.090 -0.0138 -0.0135  0.0451
 1262PNCE   C5B11353  12.880   2.586   6.418 -0.0025 -0.0221 -0.1115
 1262PNCE   C6B11354  12.420   2.721   6.358 -0.2808 -0.1814  0.0080
 1263XCA    COO11355   8.788   6.983   5.495  0.0551 -0.0108 -0.1302
 1263XCA     C111356   8.701   7.189   5.886 -0.2398  0.0902 -0.1207
 1263XCA     C211357   8.516   7.159   6.352  0.1757 -0.0780 -0.2753
 1263XCA     C311358   8.136   6.988   6.653  0.0618  0.1065  0.0844
 1263XCA     C411359   7.874   6.694   6.885  0.2305 -0.2030  0.2773
 1263XCA     C511360   7.840   6.289   6.823  0.1137 -0.0674  0.0911
 1263XCA     C611361   7.674   5.796   6.857  0.1295  0.0410 -0.1834
 1264XCA    COO11362   4.230  15.680   8.089  0.0232 -0.0347 -0.1792
 1264XCA     C111363   4.535  15.554   7.785  0.1695 -0.1139 -0.0820
 1264XCA     C211364   4.721  15.448   7.442 -0.2092  0.1327 -0.0374
 1264XCA     C311365   4.828  15.183   6.987  0.1006 -0.1647 -0.1591
 1264XCA     C411366   4.767  15.163   6.550  0.4793 -0.1072  0.1244
 1264XCA     C511367   4.512  15.425   6.246  0.2828  0.1338  0.1132
 1264XCA     C611368   4.629  15.800   6.072 -0.0878 -0.1956  0.3305
 1265WN      WN11369  11.277  12.810  11.923  0.1979  0.1524  0.0157
 1266WN      WN11370  11.223   4.197   2.360  0.1473  0.0411  0.0006
 1267WN      WN11371  10.911  14.216  11.248 -0.1487  0.1374 -0.0823
 1268WN      WN11372   4.727   2.912   2.965 -0.0684  0.0057 -0.0657
 1269WN      WN11373   2.742  13.787   9.580  0.0311  0.2900  0.0473
 1270WN      WN11374  10.732  15.481   3.272  0.3852 -0.2083 -0.3318
 1271WN      WN11375   9.967   6.011   0.972 -0.0532  0.1500 -0.1411
 1272WN      WN11376  11.543  14.850   9.637  0.1490 -0.2608  0.2977
 1273WN      WN11377  13.356  13.229   0.774 -0.2814  0.2781  0.1291
 1274WN      WN11378  13.069   2.597   2.812  0.1582  0.3216 -0.0898
 1275WN      WN11379  13.703   9.211   3.230  0.1490  0.2519 -0.1928
 1276WN      WN11380   5.293   4.272   9.275  0.1514  0.3564 -0.1706
 1277WN      WN11381   9.185   8.991  12.927 -0.3042  0.2356  0.1510
 1278WN      WN11382  12.430  11.844   2.700 -0.2137  0.2659  0.2387
 1279WN      WN11383   6.363  13.477  13.400 -0.0078  0.2123 -0.0596
 1280WN      WN11384  13.377  13.210  11.256  0.6482  0.1710  0.4898
 1281WN      WN11385  10.272   0.365  13.138  0.2463  0.1499  0.2026
 1282WN      WN11386  15.882  12.636  11.195  0.0325  0.0333 -0.0803
 1283WN      WN11387  11.747   1.175  10.684  0.1576  0.2321  0.0823
 1284WN      WN11388   4.775   0.999  13.371 -0.0478 -0.2247 -0.1243
 1285WN      WN11389   1.048  13.160   8.459  0.0132 -0.2138 -0.0332
 1286WN      WN11390  15.445  11.845   0.930  0.0028  0.2425  0.1359
 1287WN      WN11391   1.149   1.603   0.057  0.0888 -0.1942 -0.2456
 1288WN      WN11392  12.524  14.149   2.251 -0.1281  0.4533  0.1427
 1289WN      WN11393   3.109   8.173  13.001 -0.2964 -0.0561  0.3771
 1290WN      WN11394   8.320  12.234   8.699  0.0782 -0.1142  0.1638
 1291WN      WN11395   9.469   8.026  12.801  0.3040 -0.1281  0.3088
 1292WN      WN11396   6.510   2.505   3.898  0.0549 -0.2276  0.0599
 1293WN      WN11397   2.211  12.720   2.180 -0.0782  0.0943 -0.0101
 1294WN      WN11398  15.275   4.988   2.449 -0.2408  0.3148  0.0080
 1295WN      WN11399   0.968   4.108  10.923 -0.0810  0.0470  0.1827
 1296WN      WN11400   9.190   6.769  13.320 -0.6132 -0.0028 -0.1761
 1297WN      WN11401  12.297   5.269   3.352  0.1890 -0.0950 -0.3310
 1298WN      WN11402   0.587   0.081   9.649  0.0431  0.1163 -0.1726
 1299WN      WN11403   9.619  14.045  11.483  0.0771  0.1662 -0.2075
 1300WN      WN11404  15.022  13.543   1.709  0.0151  0.0183 -0.1517
 1301WN      WN11405  12.596   8.930   0.141 -0.1497 -0.0353 -0.3910
 1302WN      WN11406  14.157   8.257   3.364 -0.0300 -0.0481 -0.1842
 1303WN      WN11407   6.321   1.103   9.724 -0.1024  0.0689 -0.0074
 1304WN      WN11408  14.889   7.047  10.376  0.0041 -0.1360 -0.2197
 1305WN      WN11409   8.423  12.033   9.263 -0.1955  0.0712 -0.0275
 1306WN      WN11410  14.764  13.175  12.681 -0.0917  0.0880 -0.0771
 1307WN      WN11411  10.401   9.814  10.726  0.1617  0.2950 -0.3861
 1308WN      WN11412  11.837  10.226   3.311  0.0803  0.2077  0.1115
 1309WN      WN11413  14.890   7.245   4.623 -0.0557 -0.1550  0.0892
 1310WN      WN11414  10.643   4.719  12.121  0.1676  0.1795 -0.3688
 1311WN      WN11415   4.570   0.772   3.010 -0.2876  0.3704  0.2699
 1312WN      WN11416  11.922   8.693   9.381  0.0541  0.0491 -0.0574
 1313WN      WN11417   9.234  11.459   1.860 -0.2272  0.2015  0.2480
 1314WN      WN11418  10.298   6.628   4.289 -0.0458  0.1021  0.1841
 1315WN      WN11419   9.214   7.493   1.522  0.0481  0.0429 -0.2312
 1316WN      WN11420   1.828   7.084  12.279 -0.0369  0.0421  0.0794
 1317WN      WN11421   0.269  12.371   9.811 -0.0805  0.0268 -0.0193
 1318WN      WN11422  15.023   0.776  13.098  0.2369 -0.2595  0.0019
 1319WN      WN11423   4.587  10.209  11.228 -0.2405  0.0011 -0.0572
 1320WN      WN11424  15.674   7.009   4.523  0.0193 -0.3635  0.0539
 1321WN      WN11425   4.748   2.399  12.501  0.0901  0.2812  0.2894
 1322WN      WN11426  11.335  15.488  10.187 -0.3019  0.0862 -0.0972
 1323WN      WN11427   4.446   5.502   9.401  0.2245 -0.0538 -0.2736
 1324WN      WN11428   5.021  11.299  13.133  0.0263  0.2871 -0.3470
 1325WN      WN11429   9.140   0.379  12.620 -0.3171  0.4340 -0.1918
 1326WN      WN11430   6.971  12.440   0.665 -0.2323  0.0228  0.1047
 1327WN      WN11431  14.591   3.883  11.250  0.0889 -0.1693 -0.1304
 1328WN      WN11432   7.694   2.714  10.245  0.1926  0.0876  0.1627
 1329WN      WN11433   2.066   4.708  12.234 -0.3332  0.0756 -0.0761
 1330WN      WN11434   6.872   5.350  12.379 -0.0475 -0.0265  0.1568
 1331WN      WN11435   4.165   5.214   2.616  0.1434 -0.2326 -0.3153
 1332WN      WN11436   5.028   7.750   1.412 -0.1540 -0.3930  0.1510
 1333WN      WN11437   3.508   6.212  11.548 -0.2866  0.1860 -0.0008
 1334WN      WN11438  13.008   9.775  12.728 -0.2096  0.0275 -0.2794
 1335WN      WN11439  13.410   4.314   1.196  0.1307  0.0209 -0.3759
 1336WN      WN11440   9.956  11.825  11.242 -0.1190 -0.1619  0.0617
 1337WN      WN11441  12.262   5.447  12.343  0.2043 -0.0136 -0.0270
 1338WN      WN11442  12.512  14.374  10.037 -0.2309  0.4635 -0.0182
 1339WN      WN11443   0.439  15.765   2.483  0.0101 -0.1803  0.0593
 1340WN      WN11444   5.182   3.803   9.105 -0.0087 -0.1017  0.0560
 1341WN      WN11445  15.117   9.556   2.321 -0.0073 -0.0603 -0.2618
 1342WN      WN11446   8.072   9.623   1.786  0.0883 -0.0085  0.3195
 1343WN      WN11447   6.474  11.346  12.339 -0.0016  0.0750 -0.2497
 1344WN      WN11448  14.137   0.229   1.880 -0.1038  0.2886  0.0262
 1345WN      WN11449   8.456   9.740   0.490 -0.0467  0.2124  0.1081
 1346WN      WN11450  11.667   3.600   0.329 -0.0528  0.0858  0.2710
 1347WN      WN11451   1.266  11.965  10.224 -0.0348 -0.1239 -0.0405
 1348WN      WN11452   5.397  13.614   9.297 -0.0297 -0.0503 -0.2098
 1349WN      WN11453  15.396   8.253   1.179 -0.1864  0.1786 -0.0375
 1350WN      WN11454   6.970   7.061   4.280 -0.3292 -0.0737  0.0837
 1351WN      WN11455  15.114  14.125   9.729  0.1450  0.0172  0.0959
 1352WN      WN11456  12.633   8.855  10.582 -0.3522  0.0362 -0.3133
 1353WN      WN11457   1.609   7.779  12.778 -0.0440 -0.2852  0.0276
 1354WN      WN11458  15.793   6.114   0.973  0.0422  0.0805 -0.1631
 1355WN      WN11459  12.673   0.359  12.709  0.2584  0.1958 -0.1687
 1356WN      WN11460   1.896   1.987   8.312 -0.3094  0.1860  0.1288
 1357WN      WN11461   9.051  13.688   1.347  0.1648  0.2194  0.2541
 1358WN      WN11462  11.657   7.592   3.116 -0.1017 -0.0568 -0.0218
 1359WN      WN11463   8.465   4.880   3.339  0.1994 -0.0467  0.0460
 1360WN      WN11464  12.110   8.713   0.854  0.1307  0.2126  0.3628
 1361WN      WN11465   3.472   5.166  10.961  0.2547 -0.0444 -0.2556
 1362WN      WN11466  15.702  12.555   9.835  0.3501 -0.1124  0.4037
 1363WN      WN11467   6.183  11.502   0.395 -0.2078  0.2416 -0.0899
 1364WN      WN11468  13.192   6.172   1.998 -0.1210 -0.0691  0.1460
 1365WN      WN11469  13.000  13.132  12.192 -0.4182  0.2869 -0.1713
 1366WN      WN11470  10.823  12.514   2.216  0.1150 -0.2131  0.0867
 1367WN      WN11471   9.336   3.935   9.465  0.1962 -0.1661 -0.0013
 1368WN      WN11472   9.523   4.886  11.527 -0.5176 -0.2708  0.2687
 1369WN      WN11473   5.246  14.573   0.371  0.2545 -0.2427 -0.0196
 1370WN      WN11474  10.518   5.757   2.154  0.0282 -0.0509 -0.0079
 1371WN      WN11475  12.828   4.187  12.347  0.0508  0.0867 -0.3559
 1372WN      WN11476   9.045   1.523   9.567  0.0239 -0.4460 -0.0980
 1373WN      WN11477  10.658   0.451  12.318 -0.0384  0.2574  0.0173
 1374WN      WN11478  11.275  10.175   9.007  0.0816  0.0096  0.2088
 1375WN      WN11479  15.241   6.387   9.779  0.1337 -0.0419  0.2211
 1376WN      WN11480   8.806  14.282  12.586 -0.1313 -0.0035  0.1913
 1377WN      WN11481   9.692   4.196   1.228  0.0847  0.1791  0.0499
 1378WN      WN11482  14.557  12.565  11.089  0.1003  0.0355 -0.0738
 1379WN      WN11483   5.212   3.671   3.663 -0.2424 -0.2028  0.1604
 1380WN      WN11484  11.069  10.108  12.792  0.0278 -0.1364  0.1898
 1381WN      WN11485  10.951  13.168   3.099 -0.0201 -0.0352  0.2149
 1382WN      WN11486  11.301  12.676   2.009 -0.2683  0.1005 -0.1365
 1383WN      WN11487   0.537  11.514   9.231 -0.1524 -0.1156  0.2147
 1384WN      WN11488   3.482   6.336  12.193  0.0420 -0.3372  0.1761
 1385WN      WN11489   1.491  15.306   0.695 -0.3850  0.1184 -0.3089
 1386WN      WN11490  12.323   4.319   4.145  0.0555  0.0052  0.1931
 1387WN      WN11491   6.602   7.598   2.010 -0.0667  0.1652  0.2899
 1388WN      WN11492   8.860   1.891   9.955 -0.2417 -0.1562  0.4318
 1389WN      WN11493  11.718   6.741  12.937  0.0883  0.3696  0.0528
 1390WN      WN11494  12.327  15.001  10.778  0.0932 -0.3402  0.1574
 1391WN      WN11495   7.325   0.061   3.964 -0.1925 -0.0318 -0.1123
 1392WN      WN11496   5.201   3.022  12.489  0.1270  0.0095  0.1772
 1393WN      WN11497   8.162   3.228   3.648 -0.2480 -0.0803 -0.2871
 1394WN      WN11498   4.158   1.053  11.945  0.0263  0.2527  0.2023
 1395WN      WN11499  15.302  14.067   8.897  0.0157 -0.1508 -0.0067
 1396WN      WN11500   4.400   3.425  10.664  0.3619 -0.1977 -0.1862
 1397WN      WN11501  13.165  11.809   0.217 -0.1025 -0.0890  0.1143
 1398WN      WN11502   0.326   9.717   2.324  0.0109 -0.0781  0.1696
 1399WN      WN11503   6.036   8.901  10.310  0.1188  0.0930  0.1125
 1400WN      WN11504   2.110  13.385  12.184  0.1842 -0.2089 -0.0507
 1401WN      WN11505   5.173   0.489   1.237 -0.0228  0.0396  0.0707
 1402WN      WN11506  12.406   5.039   8.794  0.0310 -0.1577 -0.0480
 1403WN      WN11507   4.389   4.984  11.585  0.1539 -0.1649 -0.0163
 1404WN      WN11508   9.848   6.685  10.155 -0.1363  0.1666  0.2573
 1405WN      WN11509   0.003   9.369   2.041  0.3078  0.3865  0.2508
 1406WN      WN11510  11.748  13.181   2.598 -0.0483  0.1091  0.1535
 1407WN      WN11511   6.971  14.321  13.318  0.0878  0.0439 -0.1980
 1408WN      WN11512  12.122  14.666   2.371 -0.1450 -0.0705 -0.2224
 1409WN      WN11513  11.275   8.671   3.929 -0.1003 -0.0907  0.1093
 1410WN      WN11514  11.057  15.519   4.244  0.2530  0.0806  0.3482
 1411WN      WN11515   9.564   6.825  10.610 -0.1878  0.1111 -0.2501
 1412WN      WN11516  15.302   9.352   0.138 -0.2880 -0.0710  0.1511
 1413WN      WN11517   6.464  15.264   3.091  0.5198  0.1859  0.0789
 1414WN      WN11518   2.006   9.327   1.971 -0.0852 -0.0387  0.1802
 1415WN      WN11519   7.637  10.295   0.419 -0.1204  0.1303  0.1494
 1416WN      WN11520  13.023  12.657   3.543 -0.2028 -0.0198 -0.0360
 1417WN      WN11521  14.888   4.146  11.534  0.1369 -0.1296 -0.0586
 1418WN      WN11522  13.982   3.117   2.307 -0.1736  0.2064  0.0675
 1419WN      WN11523   2.185   2.976   0.793  0.0281  0.3458  0.1105
 1420WN      WN11524   6.475  12.243   3.035 -0.2228 -0.0728 -0.1709
 1421WN      WN11525   1.231   4.728   2.367  0.2174 -0.0270  0.1095
 1422WN      WN11526   5.253  11.417   8.831  0.3518  0.0524  0.0250
 1423WN      WN11527   4.440   7.613   1.980  0.0362 -0.0598 -0.5749
 1424WN      WN11528  12.660  10.586  10.560  0.1520  0.0858 -0.0991
 1425WN      WN11529  15.883   6.816  11.534 -0.0402  0.0484  0.0724
 1426WN      WN11530   2.594  12.147   0.937  0.2238 -0.2869 -0.4218
 1427WN      WN11531   0.747  15.858   0.566 -0.0099  0.1600  0.3546
 1428WN      WN11532  10.631   7.806   9.448 -0.1568  0.0133  0.2008
 1429WN      WN11533   9.837   6.636  11.733  0.1112 -0.1694  0.4086
 1430WN      WN11534  10.624   4.130   9.150  0.1511  0.1205  0.0377
 1431WN      WN11535   9.634   7.734   9.289  0.1113  0.0071  0.5801
 1432WN      WN11536  10.739  14.263   9.752  0.2466 -0.1028  0.3208
 1433WN      WN11537   7.745  13.106   9.262 -0.1275 -0.0219 -0.0395
 1434WN      WN11538   5.339   2.920   9.598 -0.1207  0.2660  0.2247
 1435WN      WN11539  13.196   4.136   0.727  0.2062  0.0487 -0.2434
 1436WN      WN11540   1.618   1.706   1.462 -0.1157  0.0409  0.0070
 1437WN      WN11541  14.835  11.509   3.190 -0.0752 -0.0497 -0.4694
 1438WN      WN11542   1.283  15.606   1.990  0.2137  0.4710 -0.3056
 1439WN      WN11543   3.765   4.142  11.690  0.2682 -0.0354  0.3067
 1440WN      WN11544  13.176  15.161   0.667  0.1542 -0.0154 -0.0372
 1441WN      WN11545   9.954   7.045   2.359  0.0672  0.2445  0.2023
 1442WN      WN11546  10.372   6.083   1.300  0.2012 -0.0283  0.1326
 1443WN      WN11547  10.369  15.177  11.854 -0.1298 -0.5056 -0.0705
 1444WN      WN11548  15.340   4.099  10.136  0.0215  0.0071  0.2426
 1445WN      WN11549  10.041   8.709   1.462 -0.1495  0.1726  0.1815
 1446WN      WN11550   5.528   6.686   1.456  0.1072 -0.0029 -0.6029
 1447WN      WN11551  10.524  15.256   1.623 -0.0508  0.0214  0.1326
 1448WN      WN11552   7.109  14.391   9.266  0.0229 -0.0539 -0.2972
 1449WN      WN11553   5.162  12.728   9.282 -0.1947 -0.2407 -0.0884
 1450WN      WN11554   2.921   8.461  10.338  0.1367 -0.0594 -0.0036
 1451WN      WN11555   3.719  12.746  12.237  0.0189  0.4649  0.1386
 1452WN      WN11556   9.019   7.536  11.355 -0.1037 -0.0966 -0.0524
 1453WN      WN11557   3.847   3.131   0.959  0.2200 -0.0396 -0.1627
 1454WN      WN11558   9.581   8.652  13.396  0.0258  0.0967 -0.0276
 1455WN      WN11559   1.198   1.644   9.650 -0.0227  0.1958  0.0347
 1456WN      WN11560  13.403   5.743   0.488  0.2169  0.1208  0.0212
 1457WN      WN11561  12.547   7.375   3.088  0.2198 -0.1195 -0.0516
 1458WN      WN11562   6.756   5.060   1.981 -0.1155 -0.0743 -0.0909
 1459WN      WN11563   6.234   5.180   9.743 -0.2311 -0.5880  0.0774
 1460WN      WN11564   2.402   6.234   2.821 -0.1176  0.0417  0.0998
 1461WN      WN11565  12.762  10.459   1.602  0.3018  0.2272 -0.0665
 1462WN      WN11566   5.428   1.373   2.505  0.0007 -0.1360  0.3046
 1463WN      WN11567  11.736   9.475  10.000 -0.1074  0.0951  0.1412
 1464WN      WN11568  14.491   1.366   8.678 -0.0935 -0.0665  0.1141
 1465WN      WN11569  14.295  14.813   1.239 -0.2042 -0.1419  0.1731
 1466WN      WN11570  15.122   0.724   8.753  0.1054  0.1179  0.1322
 1467WN      WN11571   8.025  10.921   2.237 -0.0864 -0.0899  0.3660
 1468WN      WN11572  13.999   4.487   8.917 -0.2064  0.2290 -0.2092
 1469WN      WN11573   5.986   1.564  13.083 -0.0464  0.4358  0.1906
 1470WN      WN11574   2.413   5.306   4.411 -0.2479  0.4192  0.0798
 1471WN      WN11575   7.773   2.151   0.899  0.1432 -0.0541  0.1763
 1472WN      WN11576  11.960   7.097   0.105 -0.2935 -0.2149  0.1789
 1473WN      WN11577  10.684   3.376   4.026 -0.2515 -0.5348 -0.0337
 1474WN      WN11578   6.717   6.390   3.125  0.2119 -0.1454 -0.0482
 1475WN      WN11579   8.032   3.022   9.335  0.0395 -0.2641 -0.0931
 1476WN      WN11580   2.159   8.809  12.538  0.2514  0.0908  0.0254
 1477WN      WN11581  12.464   6.283   8.845  0.2258  0.2969  0.3595
 1478WN      WN11582   7.695   1.716   0.350  0.2252 -0.0526  0.1657
 1479WN      WN11583  13.344   1.133  12.137  0.3034 -0.1211 -0.3950
 1480WN      WN11584  15.907  13.502   3.376 -0.0992 -0.1863 -0.0813
 1481WN      WN11585  12.591   7.182   9.530  0.1827 -0.1994 -0.1095
 1482WN      WN11586  11.604   5.741  12.923  0.1058 -0.0112 -0.2318
 1483WN      WN11587   2.222   8.647   2.525 -0.1104 -0.1414 -0.0899
 1484WN      WN11588  10.132  13.557  12.481  0.1077  0.0197  0.2802
 1485WN      WN11589   4.530  11.078  13.063 -0.0592 -0.2441 -0.0020
 1486WN      WN11590   6.716  14.798   9.373  0.1836 -0.1401 -0.0026
 1487WN      WN11591   3.815  14.068  10.115  0.1806 -0.2812 -0.0050
 1488WN      WN11592  10.083  11.819   9.983 -0.0945 -0.1182 -0.1367
 1489WN      WN11593   4.065  10.773  12.187  0.0910 -0.4321  0.2333
 1490WN      WN11594   1.869  11.561   9.324 -0.0170  0.0616  0.0144
 1491WN      WN11595  10.427   7.462  10.349 -0.1315 -0.3059  0.0973
 1492WN      WN11596   2.791  14.160   9.907  0.0272 -0.0164 -0.0960
 1493WN      WN11597  12.645  15.008   1.506 -0.0010 -0.1545  0.1494
 1494WN      WN11598  11.762   5.888   0.343 -0.0716  0.1627  0.0565
 1495WN      WN11599  10.837   9.414   9.449  0.1920 -0.1655 -0.0750
 1496WN      WN11600  13.618   7.726   2.920 -0.1384 -0.1567  0.1923
 1497WN      WN11601   5.922   6.588  10.998  0.0430  0.2934 -0.2432
 1498WN      WN11602   8.098   2.752   3.830  0.2130  0.0587 -0.0154
 1499WN      WN11603   8.128  13.143  12.175 -0.2169  0.1264  0.0002
 1500WN      WN11604   0.865  15.071  11.957  0.0211 -0.3507 -0.2600
 1501WN      WN11605  13.964   5.193   0.197  0.1803 -0.1851  0.1490
 1502WN      WN11606   9.489  12.218   2.411  0.1088 -0.1946  0.1666
 1503WN      WN11607   6.725  15.371  13.221 -0.1468 -0.0863 -0.3020
 1504WN      WN11608   4.101   5.417   3.145 -0.0105  0.0319  0.0021
 1505WN      WN11609  14.710   7.605   9.393  0.2168 -0.2479 -0.3283
 1506WN      WN11610   8.588   9.273   8.782 -0.3206  0.1925 -0.0116
 1507WN      WN11611   5.448   5.123  11.347  0.3331  0.4884  0.0864
 1508WN      WN11612   2.130   8.244   1.721 -0.1520  0.1392 -0.2801
 1509WN      WN11613   8.521   8.294   9.968  0.0146  0.2179  0.0930
 1510WN      WN11614   6.616   1.083   2.386  0.1552  0.0779 -0.0536
 1511WN      WN11615   0.002   3.072   3.080 -0.1083 -0.0910 -0.0633
 1512WN      WN11616   1.904   8.343   2.154  0.1598  0.0125  0.1000
 1513WN      WN11617  12.758   8.279  12.350 -0.1462  0.0058 -0.1286
 1514WN      WN11618   1.963   4.345  11.869 -0.3221 -0.2529  0.1992
 1515WN      WN11619   4.979   6.412   1.090 -0.4287 -0.1560 -0.0827
 1516WN      WN11620   6.064  10.493  10.144 -0.0199  0.1788  0.0937
 1517WN      WN11621   0.175   5.572   3.792 -0.0617  0.2336  0.1062
 1518WN      WN11622  11.431  11.117  10.319 -0.0422  0.0312  0.0220
 1519WN      WN11623   5.381  15.297  12.938 -0.0777 -0.0144  0.1191
 1520WN      WN11624  14.748  14.745   2.983  0.1480  0.0089 -0.0810
 1521WN      WN11625   0.083   7.625   0.095 -0.3147 -0.0361 -0.1713
 1522WN      WN11626   2.438  14.212  10.242  0.0774  0.0857  0.2323
 1523WN      WN11627   8.389   2.388  12.637 -0.0278 -0.2250 -0.3248
 1524WN      WN11628   5.057  12.506  12.390  0.0243  0.2827 -0.0666
 1525WN      WN11629   8.281   3.201  10.044  0.1151  0.1690  0.0898
 1526WN      WN11630   6.722  13.845  12.040 -0.1575  0.0565  0.2566
 1527WN      WN11631   0.640   1.449   0.130 -0.0703  0.1179  0.0914
 1528WN      WN11632   4.536  13.243   1.752 -0.1366  0.4370 -0.1616
 1529WN      WN11633  14.755   5.876   0.226 -0.0957 -0.0966  0.3414
 1530WN      WN11634   8.243   4.285   2.048 -0.2966 -0.0004  0.1919
 1531WN      WN11635   3.550   6.119   0.364 -0.2236 -0.3259  0.1333
 1532WN      WN11636   1.924   4.562  10.574  0.2031  0.4087 -0.2723
 1533WN      WN11637  15.528  12.255   9.416 -0.0622 -0.0178 -0.0428
 1534WN      WN11638   4.907   0.732   3.531  0.1307  0.1983  0.0643
 1535WN      WN11639   5.066  13.377   1.583 -0.1396  0.0606  0.0507
 1536WN      WN11640   3.994   9.975  10.065 -0.2373 -0.0555  0.2121
 1537WN      WN11641   4.412  14.479   3.287 -0.3216  0.1215 -0.1116
 1538WN      WN11642   0.576  13.666   8.241  0.0393 -0.3485  0.1650
 1539WN      WN11643   2.259   7.103   0.224 -0.0971 -0.0901  0.0931
 1540WN      WN11644   8.956  11.994   3.083 -0.2099 -0.2589 -0.3604
 1541WN      WN11645   5.884   7.211   4.640  0.1031  0.0486  0.2413
 1542WN      WN11646   9.824   4.029   0.299  0.1249  0.2432 -0.0105
 1543WN      WN11647   5.226   0.384   8.989  0.0138 -0.1877  0.1193
 1544WN      WN11648   2.908  10.643  12.786  0.1737  0.0724  0.1518
 1545WN      WN11649   6.101  13.783   1.186 -0.0913  0.1156  0.1517
 1546WN      WN11650   6.335   2.627   0.970 -0.3418  0.1568 -0.2183
 1547WN      WN11651   0.453   7.215  10.614  0.1730 -0.0819  0.1699
 1548WN      WN11652  14.770  11.481  13.357 -0.4358 -0.4503  0.1054
 1549WN      WN11653  10.528   9.256   1.333 -0.2449  0.1118 -0.0124
 1550WN      WN11654   0.207  10.525  12.655  0.3862 -0.2127  0.1586
 1551WN      WN11655  14.108   9.641  11.827  0.1012 -0.2897 -0.0278
 1552WN      WN11656   3.626   9.824   2.324  0.1248  0.0774  0.1785
 1553WN      WN11657   9.521  14.542   4.737 -0.0023  0.0168  0.1268
 1554WN      WN11658  11.535  12.144   8.186 -0.0325 -0.3480  0.5109
 1555WN      WN11659  12.102   3.481   1.421  0.1378 -0.0167 -0.0954
 1556WN      WN11660  14.757   7.250   9.909  0.2567 -0.0501 -0.0736
 1557WN      WN11661  14.429   3.627   9.099  0.1017  0.4098 -0.1161
 1558WN      WN11662   8.126  14.168   0.618 -0.1624  0.0966  0.0474
 1559WN      WN11663   4.754   8.148  12.273 -0.3154 -0.0706 -0.2769
 1560WN      WN11664   4.081   2.454   2.664 -0.1055  0.0678  0.3155
 1561WN      WN11665   3.931  15.507  11.576  0.2208 -0.0849 -0.0076
 1562WN      WN11666   6.854  14.801  12.032  0.1266  0.2026  0.0431
 1563WN      WN11667   5.353   6.151   0.873 -0.1169  0.0376 -0.2196
 1564WN      WN11668   7.188  15.163  11.086  0.0216 -0.0803 -0.1217
 1565WN      WN11669  15.481  12.893   2.538 -0.0647 -0.1611 -0.1075
 1566WN      WN11670   4.029   2.871  11.396  0.1364 -0.1907 -0.0243
 1567WN      WN11671   2.673   3.040   2.281 -0.1510 -0.2328  0.0087
 1568WN      WN11672   9.985  12.319  12.078  0.0124 -0.1950 -0.1494
 1569WN      WN11673  14.295  10.980   2.777  0.2288 -0.1902  0.2586
 1570WN      WN11674   3.728   0.145   1.459 -0.1549  0.2412  0.1368
 1571WN      WN11675   5.646   2.544   3.682  0.2626  0.2196  0.0147
 1572WN      WN11676  12.244   1.118   2.509 -0.1023  0.0384 -0.1187
 1573WN      WN11677  12.059   1.043   4.804  0.1093 -0.1316 -0.0177
 1574WN      WN11678  10.313   5.641  10.853  0.0340 -0.0308  0.1066
 1575WN      WN11679  10.335  11.048   0.588 -0.0056 -0.2815  0.3217
 1576WN      WN11680   6.566   6.532  13.163 -0.3698  0.1415 -0.0246
 1577WN      WN11681   6.202   2.218   8.917 -0.1215  0.1937  0.2231
 1578WN      WN11682  10.744   8.908   2.638 -0.3677  0.3842 -0.0684
 1579WN      WN11683   6.732   1.281   1.306 -0.1700  0.0768 -0.3118
 1580WN      WN11684  15.821   0.314  11.238 -0.3023 -0.2299 -0.1740
 1581WN      WN11685   2.999  15.916  10.527  0.0217  0.0339  0.1670
 1582WN      WN11686   0.944  11.806   8.994 -0.2317  0.1409  0.0961
 1583WN      WN11687   3.601   0.186  11.897 -0.1823  0.0787  0.1447
 1584WN      WN11688  11.574   2.651   2.688 -0.3364  0.2532  0.1351
 1585WN      WN11689   6.835   3.185  12.587  0.2600 -0.1687  0.0181
 1586WN      WN11690   0.017   5.669   9.806 -0.1181 -0.0231 -0.0700
 1587WN      WN11691   1.278   5.313  10.290 -0.2651  0.2811 -0.0488
 1588WN      WN11692   6.062   6.126  10.383  0.0993  0.0525  0.1805
 1589WN      WN11693  13.957   3.000   1.646  0.0760 -0.1150  0.0274
 1590WN      WN11694  12.867   5.492  11.245 -0.1036 -0.0455  0.0314
 1591WN      WN11695  14.636  14.820  10.717 -0.0015  0.1878  0.0899
 1592WN      WN11696  14.607  13.622   8.557  0.0255  0.0804  0.0147
 1593WN      WN11697   9.742  11.184  10.546 -0.0580  0.2480 -0.2905
 1594WN      WN11698  12.418   9.930  12.291  0.0711  0.1060 -0.1060
 1595WN      WN11699   5.081   0.083   9.907  0.1898  0.0043  0.1377
 1596WN      WN11700   0.251   0.835   2.419  0.1668  0.1943 -0.0805
 1597WN      WN11701   5.022   6.541  10.000 -0.2655  0.0927  0.3858
 1598WN      WN11702  15.808  12.351   2.069 -0.1392  0.0696 -0.3105
 1599WN      WN11703   9.442   6.434   3.619 -0.0394  0.3999  0.0609
 1600WN      WN11704  10.998  12.831  10.116 -0.1888 -0.3799  0.2554
 1601WN      WN11705  12.304   8.157   4.410 -0.1911 -0.1232  0.1386
 1602WN      WN11706  14.160   2.840   3.410  0.2936  0.1237 -0.0459
 1603WN      WN11707  11.496   4.564  11.575 -0.1790 -0.0152 -0.3967
 1604WN      WN11708  13.018   6.868   0.086 -0.2581  0.1351  0.2179
 1605WN      WN11709   5.633   9.567  12.567  0.0446  0.4953  0.2112
 1606WN      WN11710   9.796  12.809  12.818 -0.2589  0.2786  0.0770
 1607WN      WN11711  13.486  12.006   1.651  0.1302 -0.2316  0.0105
 1608WN      WN11712   0.662   3.080  10.718 -0.0939  0.1435  0.4129
 1609WN      WN11713  13.069   7.619  12.267  0.1062 -0.1010 -0.3631
 1610WN      WN11714   8.791  12.277   4.052  0.3359  0.1137 -0.0583
 1611WN      WN11715   9.047   5.097   2.981  0.2142 -0.2642  0.3041
 1612WN      WN11716   4.311   5.434  11.217  0.2527 -0.0302 -0.0816
 1613WN      WN11717  14.072   6.916   9.429  0.0165  0.1758 -0.0203
 1614WN      WN11718   4.581  12.238   0.953  0.0316  0.0134 -0.1007
 1615WN      WN11719   1.411  15.136   2.496  0.2961 -0.0713  0.0186
 1616WN      WN11720  15.518   6.452  11.416 -0.2808  0.4134 -0.1817
 1617WN      WN11721   8.897   9.513  10.642  0.0710  0.3564  0.1619
 1618WN      WN11722   0.999   0.450   3.536 -0.2288  0.3142  0.0225
 1619WN      WN11723  12.464  13.090   9.700  0.2077 -0.1820 -0.5131
 1620WN      WN11724   4.701   2.290   9.997 -0.0394  0.1005  0.2469
 1621WN      WN11725   5.515   0.278   1.600  0.1526  0.0254  0.0563
 1622WN      WN11726  14.245   9.721  10.559  0.0515  0.2161  0.4062
 1623WN      WN11727   8.829  15.114   2.874  0.1143  0.0660 -0.0310
 1624WN      WN11728   2.896   3.841   1.013  0.4273 -0.1916  0.1348
 1625WN      WN11729   0.752  12.487   1.498 -0.1716 -0.3900 -0.0157
 1626WN      WN11730   9.462   4.210  12.352 -0.1057  0.0961 -0.3143
 1627WN      WN11731  14.424   7.518   3.844  0.1258 -0.0620 -0.0887
 1628WN      WN11732   0.712   7.981   4.031 -0.0046  0.4146 -0.1720
 1629WN      WN11733   6.927   8.654   3.858 -0.0096  0.1237  0.3167
 1630WN      WN11734   2.476  11.649   9.366 -0.0439 -0.2144  0.1105
 1631WN      WN11735  15.844   0.519   8.028 -0.1547 -0.2165  0.1093
 1632WN      WN11736   9.646  14.934   0.060  0.2937 -0.2151  0.2255
 1633WN      WN11737   8.936  11.001  13.368 -0.0183  0.0696 -0.2040
 1634WN      WN11738  12.555  11.269   1.477 -0.0438  0.1715  0.1228
 1635WN      WN11739  10.457  10.799   4.778 -0.2235 -0.0489 -0.4292
 1636WN      WN11740   1.007  13.188   0.426  0.1737 -0.2410 -0.1448
 1637WN      WN11741   3.609  15.609   3.168  0.1275 -0.1940  0.0578
 1638WN      WN11742   7.509   4.449   2.446  0.0758 -0.2039 -0.0895
 1639WN      WN11743   4.903   0.813   1.465  0.1436 -0.0684 -0.3277
 1640WN      WN11744   3.141  15.504  11.992  0.1037  0.0683 -0.1220
 1641WN      WN11745  13.877   0.092  12.506 -0.0681  0.0652  0.1849
 1642WN      WN11746  15.222   4.622   0.542  0.1042 -0.0884  0.2903
 1643WN      WN11747   0.146  10.842   9.230 -0.1462  0.1056  0.1337
 1644WN      WN11748   3.194  13.457   2.648  0.2572  0.0365  0.0156
 1645WN      WN11749  13.029  13.694  13.376 -0.3132 -0.2095  0.0484
 1646WN      WN11750   0.602  13.652  12.630 -0.3282 -0.2947 -0.2160
 1647WN      WN11751  10.912  13.954   2.375  0.3211  0.4166 -0.0227
 1648WN      WN11752  14.069   0.421   2.453  0.1343  0.0561 -0.1939
 1649WN      WN11753  10.477  14.671   5.066 -0.1536  0.1879  0.1093
 1650WN      WN11754   4.802   8.561   0.754 -0.6291  0.0591 -0.2832
 1651WN      WN11755   9.868  12.314  12.564 -0.1247 -0.1320  0.1350
 1652WN      WN11756   3.506  14.410  11.573 -0.0232 -0.1885  0.3208
 1653WN      WN11757  14.761  13.810   9.711  0.0570  0.1236 -0.0828
 1654WN      WN11758  15.895   0.865   8.430 -0.0389 -0.1037 -0.0801
 1655WN      WN11759   3.207  15.258   2.295 -0.1370 -0.0003 -0.3851
 1656WN      WN11760  11.707   5.558   9.567 -0.2795  0.1613  0.0569
 1657WN      WN11761  12.073   7.380   2.104  0.1233 -0.1215  0.5677
 1658WN      WN11762  10.729  10.026   9.730 -0.5519 -0.3383  0.2495
 1659WN      WN11763   3.670   9.630  10.088  0.0897 -0.2016  0.5169
 1660WN      WN11764   1.865   9.739  11.910  0.1278 -0.1127  0.0002
 1661WN      WN11765  14.106   8.823  10.263 -0.1033 -0.0635 -0.0077
 1662WN      WN11766   1.665   0.473   1.731 -0.1386  0.3498  0.2211
 1663WN      WN11767   5.975   0.432  12.552  0.1294 -0.0809  0.0047
 1664WN      WN11768  12.878  12.644  12.472  0.1357  0.0587  0.3432
 1665WN      WN11769   8.608  15.063   0.860  0.0826  0.0011 -0.0272
 1666WN      WN11770   0.003   5.852  11.700 -0.1040 -0.0328  0.0036
 1667WN      WN11771   1.590  13.867   1.319  0.2604  0.0620  0.0468
 1668WN      WN11772  10.144   4.811  10.861 -0.4113 -0.0104  0.1211
 1669WN      WN11773  13.972   5.975   1.780 -0.2350 -0.1667 -0.1264
 1670WN      WN11774   9.244   7.664   0.667 -0.0490  0.1439 -0.1030
 1671WN      WN11775   5.484  13.563  13.042 -0.0527  0.0969  0.4334
 1672WN      WN11776   9.894   0.486   9.116 -0.3306  0.0409 -0.3309
 1673WN      WN11777   1.489   5.970   1.631  0.1041 -0.2424  0.0436
 1674WN      WN11778   5.310  11.393   1.447  0.0375  0.2644 -0.1434
 1675WN      WN11779  10.080   9.423   0.113  0.0690  0.1440  0.4508
 1676WN      WN11780   0.574   8.995   1.530 -0.2854 -0.4723 -0.1442
 1677WN      WN11781   4.104   9.794   2.079  0.3804  0.1346  0.2893
 1678WN      WN11782  12.511   8.586  11.104 -0.2025  0.1192  0.2159
 1679WN      WN11783   3.800   5.639  12.469  0.2090  0.3138 -0.2730
 1680WN      WN11784  13.078   6.693   1.506  0.2948  0.2825  0.2709
 1681WN      WN11785   1.702  10.585   2.447  0.2395  0.0410  0.3792
 1682WN      WN11786   1.414  13.239  11.159 -0.1316 -0.0122  0.0684
 1683WN      WN11787   3.211   2.726  10.853  0.0969  0.1591  0.4894
 1684WN      WN11788  13.743   9.170  12.313 -0.1379 -0.1287  0.0964
 1685WN      WN11789   1.980  10.404  12.998 -0.0376  0.1005  0.0326
 1686WN      WN11790   2.653  13.429  12.592  0.0208  0.0766 -0.0307
 1687WN      WN11791   9.198   8.947   3.831  0.0044 -0.1734 -0.1414
 1688WN      WN11792  15.622  15.462   1.346  0.0172  0.0480 -0.0473
 1689WN      WN11793   7.830  10.574   2.685 -0.2002 -0.3618  0.1323
 1690WN      WN11794  13.473   5.156   0.385  0.0458  0.1803  0.0237
 1691WN      WN11795   1.801  13.437  10.904 -0.1945  0.0499 -0.0096
 1692WN      WN11796   6.949   7.890  10.801 -0.0125 -0.0797  0.3443
 1693WN      WN11797   5.890   5.424  11.643  0.0302  0.0200  0.1011
 1694WN      WN11798  11.080  13.658  12.879  0.1553 -0.2666  0.2815
 1695WN      WN11799   9.251  10.189   0.409  0.2964  0.0546 -0.0964
 1696WN      WN11800  11.142   2.079  12.279 -0.0496 -0.0730 -0.1726
 1697WN      WN11801   1.045  13.214  10.791 -0.1564 -0.3805  0.0983
 1698WN      WN11802   8.815   7.175   9.037 -0.0859 -0.1175 -0.1163
 1699WN      WN11803  13.981  12.115   0.778 -0.1838  0.0829 -0.1786
 1700WN      WN11804   8.659  14.250   0.666  0.0769 -0.1005  0.0337
 1701WN      WN11805   5.314   7.210   4.594 -0.0545  0.2755 -0.1143
 1702WN      WN11806   2.458  12.043   1.805 -0.1143 -0.0234  0.0337
 1703WN      WN11807   6.146   5.077   4.027  0.0043  0.2689 -0.2956
 1704WN      WN11808   6.641   2.458   0.649  0.1355 -0.2025 -0.0316
 1705WN      WN11809  15.051   2.245   2.435  0.0956  0.1970 -0.0372
 1706WN      WN11810   4.748   9.322  11.240 -0.2090  0.1600 -0.0214
 1707WN      WN11811  12.043   7.241  12.054  0.0651 -0.1345 -0.2968
 1708WN      WN11812  13.889   3.553  13.017 -0.3215  0.0071  0.0223
 1709WN      WN11813   1.270  11.950   2.554  0.0882 -0.1230 -0.1313
 1710WN      WN11814   8.503   9.046  10.429  0.1298  0.0818 -0.1913
 1711WN      WN11815  14.915  14.649   9.459  0.1770 -0.1743 -0.1472
 1712WN      WN11816  14.062   3.161   2.760  0.1667  0.3263 -0.1813
 1713WN      WN11817   7.484   3.836   1.385 -0.1753 -0.1285  0.2578
 1714WN      WN11818   7.223   8.123   4.205 -0.0417 -0.1738  0.0264
 1715WN      WN11819  11.191  14.014   9.591 -0.3142 -0.0556 -0.0186
 1716WN      WN11820   2.752   5.851   8.217 -0.2838  0.2109  0.2176
 1717WN      WN11821   4.475   5.182   3.425  0.2673 -0.2842  0.1161
 1718WN      WN11822   2.192   9.319  11.805 -0.1031 -0.2244 -0.0352
 1719WN      WN11823   9.965  11.504  10.851 -0.1291  0.1811  0.2831
 1720WN      WN11824  11.422  10.458  12.625  0.0238 -0.2800 -0.1712
 1721WN      WN11825  12.081  11.898  11.479 -0.1791  0.2212  0.1212
 1722WN      WN11826  14.855  13.486  10.670  0.1455  0.2502 -0.0955
 1723WN      WN11827  10.011   3.137   9.428  0.2552  0.1473  0.2487
 1724WN      WN11828   2.452   8.981   3.124  0.1787 -0.0932  0.0569
 1725WN      WN11829   9.586  10.007   0.762 -0.0281  0.0935  0.2421
 1726WN      WN11830  15.361   3.236   1.234  0.1133 -0.0466  0.0828
 1727WN      WN11831   9.478   4.073   2.943  0.0860 -0.2063  0.2647
 1728WN      WN11832  10.605  10.196  10.617 -0.1197 -0.0856  0.2314
 1729WN      WN11833  10.736   7.897  12.883 -0.1632 -0.2856 -0.2350
 1730WN      WN11834   7.597   8.087   4.920 -0.1927  0.0586  0.2662
 1731WN      WN11835  14.476  11.368   9.636 -0.0137  0.2868  0.2848
 1732WN      WN11836   1.249   1.960   0.665 -0.1373 -0.0428  0.2213
 1733WN      WN11837   7.043   1.206   0.331 -0.0440 -0.3744 -0.3035
 1734WN      WN11838   5.263   3.702   3.101 -0.1629 -0.2798  0.2734
 1735WN      WN11839   8.447  10.166  11.957 -0.0014 -0.3752 -0.0855
 1736WN      WN11840   1.616   6.766   9.042 -0.0747 -0.2028 -0.2643
 1737WN      WN11841   4.729  10.522  12.630  0.2982  0.0595 -0.0740
 1738WN      WN11842   8.660   6.313  12.994 -0.0020 -0.3602  0.1161
 1739WN      WN11843  13.937  11.469  12.867  0.0163  0.0793  0.0025
 1740WN      WN11844   2.010  15.669  10.377 -0.1715 -0.2107  0.0229
 1741WN      WN11845   3.797  13.749   0.749  0.2373  0.1442 -0.2010
 1742WN      WN11846   0.506   3.146   9.007  0.1054  0.2482  0.1808
 1743WN      WN11847   3.605   5.526   3.742  0.2656  0.0867 -0.0015
 1744WN      WN11848   1.967   5.919  12.759  0.1394 -0.0143 -0.0299
 1745WN      WN11849   9.947   4.043  11.324  0.2204 -0.1722 -0.2334
 1746WN      WN11850   1.356  10.493   1.414  0.1284  0.2750 -0.1525
 1747WN      WN11851   9.600  10.888  11.387 -0.0244  0.2204  0.1980
 1748WN      WN11852   5.606  10.269  10.014  0.1104  0.1033 -0.1139
 1749WN      WN11853  10.819   8.713   3.632 -0.2218 -0.0889 -0.0707
 1750WN      WN11854   0.134  12.199   1.647  0.0102  0.0691 -0.1634
 1751WN      WN11855   1.982  14.655  12.704  0.2179 -0.2596  0.1153
 1752WN      WN11856   5.078  12.742   2.065  0.0186  0.0108 -0.0100
 1753WN      WN11857  11.860   0.656   0.081  0.4657  0.2279 -0.3230
 1754WN      WN11858  13.044  10.067   4.759  0.2998 -0.0762 -0.1024
 1755WN      WN11859   7.384  13.053  10.458 -0.2190 -0.1604  0.0441
 1756WN      WN11860   1.569  10.976  11.133 -0.1871 -0.0784  0.0124
 1757WN      WN11861   4.581   0.765  11.204 -0.5912 -0.2542 -0.0359
 1758WN      WN11862  15.636   9.520   3.994 -0.0584 -0.1060  0.3564
 1759WN      WN11863  12.920   4.374   1.600 -0.1648 -0.0936  0.2313
 1760WN      WN11864   7.244  15.555  10.772 -0.1168  0.1115 -0.0531
 1761WN      WN11865   4.005   4.604   1.835  0.3299 -0.0113 -0.0418
 1762WN      WN11866   6.625   8.520   8.933 -0.0970 -0.1301 -0.2749
 1763WN      WN11867  15.321  12.230   1.287  0.1546  0.0636 -0.0444
 1764WN      WN11868  11.759   2.484   3.154 -0.3519  0.0929 -0.0180
 1765WN      WN11869   7.176   2.120  10.864 -0.0519  0.1619  0.0064
 1766WN      WN11870   1.598   7.907   3.059 -0.0184 -0.2651 -0.0562
 1767WN      WN11871  11.453  12.548  12.308  0.3571  0.2604 -0.1018
 1768WN      WN11872   7.117  15.543   1.045 -0.1851 -0.2747  0.0480
 1769WN      WN11873  12.223  14.707  12.955  0.0679 -0.2382  0.2274
 1770WN      WN11874  12.507  12.417   0.470  0.0101  0.3303 -0.3534
 1771WN      WN11875  11.328  11.278   4.353  0.1278 -0.1622 -0.2331
 1772WN      WN11876  15.443   3.260   3.231  0.3391  0.1948 -0.0687
 1773WN      WN11877  15.459  15.001  13.343 -0.0619 -0.1246 -0.1227
 1774WN      WN11878   3.265   0.533  10.311 -0.0680  0.0605 -0.2847
 1775WN      WN11879  12.463   8.702   2.687 -0.4826  0.2050  0.0990
 1776WN      WN11880   5.663   7.932   1.209  0.5430  0.1284  0.0708
 1777WN      WN11881   1.843  13.262   2.943  0.2973  0.0052  0.2265
 1778WN      WN11882   3.405   1.178  13.202 -0.0334  0.0107  0.1567
 1779WN      WN11883   0.369   3.596   3.789 -0.4568  0.0936  0.0537
 1780WN      WN11884   4.994   9.295   0.917  0.0375  0.1442  0.1568
 1781WN      WN11885   1.979  14.173  12.839  0.4503 -0.0040  0.0863
 1782WN      WN11886   7.276  14.071   0.838 -0.2328 -0.3118  0.0837
 1783WN      WN11887  10.868  15.267   3.848  0.3082  0.1532 -0.2044
 1784WN      WN11888   8.589  10.686   2.206  0.1415 -0.1190  0.3292
 1785WN      WN11889   4.384   2.607   9.277  0.2884  0.3985 -0.2677
 1786WN      WN11890   3.703  10.247   1.959 -0.1615 -0.0717  0.0825
 1787WN      WN11891  12.450   8.332  12.822  0.3037  0.1596  0.0343
 1788WN      WN11892  15.499   3.506  10.133  0.0177  0.2731  0.1971
 1789WN      WN11893  13.673   1.617   1.667  0.3957  0.0534 -0.0234
 1790WN      WN11894   6.735  12.998   0.078 -0.1591 -0.0726  0.2629
 1791WN      WN11895   8.158   5.652   2.132 -0.1534  0.0205  0.2488
 1792WN      WN11896   0.234   7.580   4.060  0.2866  0.0664  0.1004
 1793WN      WN11897   9.913   8.788   2.666 -0.1414 -0.0500  0.1699
 1794WN      WN11898   7.080  12.381   2.035 -0.1137 -0.2430  0.1496
 1795WN      WN11899  12.681  15.576   4.552  0.4429 -0.0475  0.1129
 1796WN      WN11900  12.822   8.521   1.873  0.0959  0.0805 -0.0649
 1797WN      WN11901   0.904   5.745  10.192 -0.1980 -0.0087 -0.3269
 1798WN      WN11902   0.486   9.838  10.516 -0.0775  0.0326  0.2252
 1799WN      WN11903  10.113  13.690   4.882  0.1053 -0.1164  0.1595
 1800WN      WN11904  12.727   0.234   1.776  0.0406  0.4226  0.1341
 1801WN      WN11905  13.619   0.876  13.014  0.1586 -0.2312  0.1882
 1802WN      WN11906   1.011   7.839   0.971  0.2616 -0.0172 -0.0643
 1803WN      WN11907   1.201  14.912   8.436 -0.1613  0.0908 -0.1045
 1804WN      WN11908  12.360   0.952   1.192  0.0862 -0.0169  0.3399
 1805WN      WN11909  10.289   9.173   2.625 -0.3003 -0.1364  0.4609
 1806WN      WN11910   2.147   5.763  13.236  0.3162 -0.0784  0.0183
 1807WN      WN11911   4.343   3.040   0.779  0.3954  0.1624  0.2675
 1808WN      WN11912   7.123  12.139  11.154  0.1151  0.2017 -0.0061
 1809WN      WN11913  13.511  14.753  12.379 -0.1709  0.0937  0.1002
 1810WN      WN11914   9.102  14.927  13.297  0.1114 -0.3555 -0.0740
 1811WN      WN11915  12.653   2.146   4.201  0.0386 -0.2518  0.3049
 1812WN      WN11916  11.689  10.081   8.674  0.2437 -0.1350 -0.0686
 1813WN      WN11917   3.541  13.894   2.589  0.0006  0.3389 -0.0758
 1814WN      WN11918   7.208   4.587  11.265 -0.1034 -0.0395  0.0029
 1815WN      WN11919   0.448   9.177  12.799 -0.0342 -0.1133 -0.3082
 1816WN      WN11920   7.892   4.765  10.787 -0.1364  0.4274 -0.2765
 1817WN      WN11921   2.648   5.029   4.016  0.0281 -0.1225  0.2509
 1818WN      WN11922   9.696  13.645  11.011  0.0266 -0.1879  0.0745
 1819WN      WN11923   2.368   9.515   2.267 -0.1418 -0.3808  0.3089
 1820WN      WN11924  13.616   5.890   2.142 -0.1267  0.2128 -0.0034
 1821WN      WN11925   6.989   8.885   9.081  0.1909  0.1687 -0.0044
 1822WN      WN11926   3.821   6.815   9.470 -0.1270 -0.2354  0.0809
 1823WN      WN11927   1.209   5.530  11.338  0.0890  0.2619  0.1014
 1824WN      WN11928   4.972   4.722   2.780 -0.1092  0.1164 -0.1505
 1825WN      WN11929  10.564   3.513   3.211  0.2169 -0.1044 -0.0838
 1826WN      WN11930   3.507   8.647  12.248 -0.1339 -0.1634 -0.0724
 1827WN      WN11931  11.708   2.793   0.034  0.1434  0.2410  0.1828
 1828WN      WN11932   0.766   8.324  10.122 -0.0093 -0.0067  0.1892
 1829WN      WN11933   0.371  14.684   0.022  0.2537 -0.1003  0.2439
 1830WN      WN11934   0.595   5.263  13.293  0.0330  0.2195  0.0763
 1831WN      WN11935  15.024   8.254   4.635 -0.0357 -0.4146 -0.1692
 1832WN      WN11936   8.436  11.036   2.549 -0.0568  0.1010 -0.0717
 1833WN      WN11937  10.425   5.797   3.965  0.2396  0.1283 -0.2767
 1834WN      WN11938  12.706  14.238   0.829 -0.2862  0.1645  0.1344
 1835WN      WN11939   0.870  15.642   2.737 -0.0587 -0.2226  0.0461
 1836WN      WN11940  10.842   0.680   1.521 -0.4182 -0.0912  0.2972
 1837WN      WN11941  13.541   4.378   5.293 -0.0740  0.0211 -0.1701
 1838WN      WN11942   1.030   3.399   0.892 -0.1740  0.0320 -0.1285
 1839WN      WN11943  13.512   7.010   4.648 -0.1206  0.0611  0.2615
 1840WN      WN11944  12.117  15.421   2.972  0.2576  0.3840 -0.3592
 1841WN      WN11945  11.263   3.936   1.177  0.1212  0.0922  0.3917
 1842WN      WN11946  14.272   8.672   0.654 -0.0347 -0.1271  0.0255
 1843WN      WN11947   5.768  15.175   8.805 -0.0418  0.1955  0.1554
 1844WN      WN11948   8.791  10.361  12.329  0.1179 -0.2398 -0.3756
 1845WN      WN11949   5.731  11.461   3.058 -0.2041  0.0240  0.2561
 1846WN      WN11950   4.965  10.348   2.319 -0.0164  0.0273 -0.1559
 1847WN      WN11951  12.102   2.343   9.697 -0.0182 -0.0803 -0.1747
 1848WN      WN11952  10.367   9.006   3.863 -0.1079 -0.2051  0.0995
 1849WN      WN11953   8.639  10.472   1.472  0.1057  0.4938  0.1469
 1850WN      WN11954  13.438   4.856   2.178  0.2775 -0.1084  0.2867
 1851WN      WN11955   2.750   4.415  10.821  0.3707 -0.0779 -0.3319
 1852WN      WN11956   6.511  15.119   1.511 -0.1704 -0.0234  0.0396
 1853WN      WN11957   7.203   8.642   1.436  0.2543  0.0201 -0.1478
 1854WN      WN11958   1.475   9.931   4.364 -0.0113 -0.4587 -0.1796
 1855WN      WN11959  13.853  12.917   3.327 -0.0419  0.0062 -0.1408
 1856WN      WN11960   4.459   1.813   0.528  0.1052 -0.1144 -0.0455
 1857WN      WN11961   6.237  14.554   3.808 -0.1217 -0.2292 -0.0590
 1858WN      WN11962   4.507  10.779   0.561  0.0251 -0.2415 -0.2449
 1859WN      WN11963  15.011  15.199  10.603  0.0786  0.2875 -0.1094
 1860WN      WN11964   4.695  14.547   2.439 -0.1676 -0.0782 -0.0102
 1861WN      WN11965   7.466  13.023   1.971  0.2360  0.0101 -0.0407
 1862WN      WN11966  13.722   6.515  12.037  0.0961 -0.1010 -0.2252
 1863WN      WN11967   0.258   8.399  11.052 -0.0836 -0.2560 -0.1390
 1864WN      WN11968   9.473   1.937   2.119  0.0709  0.2198  0.0747
 1865WN      WN11969   6.199   8.014   0.969 -0.0185  0.1730 -0.1659
 1866WN      WN11970  13.475   2.315   9.433  0.1277  0.1914 -0.0629
 1867WN      WN11971   5.312  13.044   8.931  0.0077  0.1024  0.0895
 1868WN      WN11972  12.521   0.094  10.816  0.2385 -0.3446 -0.0496
 1869WN      WN11973   1.624   6.785   3.811  0.5625  0.1581 -0.0682
 1870WN      WN11974  10.934   2.694   1.104 -0.1077  0.1686 -0.0023
 1871WN      WN11975   3.294   9.571  12.519 -0.1428  0.0087  0.2694
 1872WN      WN11976  14.911   6.747   1.859  0.3624  0.0057  0.2146
 1873WN      WN11977  10.234   6.012  12.763 -0.2496 -0.1831 -0.1911
 1874WN      WN11978   1.574   5.649   0.802  0.1184 -0.1689  0.3845
 1875WN      WN11979   2.353  12.397  12.367 -0.1892 -0.0349  0.0173
 1876WN      WN11980   1.944   3.161   0.397 -0.1659 -0.1622 -0.0363
 1877WN      WN11981   0.456   6.738   9.051 -0.2377 -0.0944  0.1954
 1878WN      WN11982   1.325   9.758  10.782  0.1131 -0.2900  0.0653
 1879WN      WN11983  14.260  12.219  11.332 -0.2169  0.3242  0.0944
 1880WN      WN11984  10.981  11.893  11.313 -0.3426  0.3120  0.0251
 1881WN      WN11985   5.724   2.278  11.357 -0.1088  0.2331 -0.0141
 1882WN      WN11986   1.037   3.367   3.856  0.0704 -0.0264  0.0492
 1883WN      WN11987   3.307   8.473  11.638 -0.3363  0.0646  0.1850
 1884WN      WN11988   9.946   4.093  12.529  0.1064 -0.0551 -0.0602
 1885WN      WN11989   7.199   6.276   1.400  0.1855 -0.2011  0.2146
 1886WN      WN11990  11.360   6.609   0.994  0.1176 -0.2528  0.2321
 1887WN      WN11991  11.315   6.774   0.042 -0.2364 -0.3049 -0.2709
 1888WN      WN11992   8.021   7.771   3.593 -0.1509 -0.0317 -0.2296
 1889WN      WN11993   6.418  10.976   2.822  0.1183  0.1616  0.3318
 1890WN      WN11994   9.123   7.590  12.167 -0.3397  0.2730 -0.1282
 1891WN      WN11995  12.635   8.226   4.007 -0.2385  0.1024 -0.1385
 1892WN      WN11996   1.825   7.328  12.735  0.3781  0.3325  0.0994
 1893WN      WN11997  13.803   0.669   0.664  0.4066 -0.1820 -0.0520
 1894WN      WN11998  15.631   5.994   9.267 -0.2220  0.0559 -0.2360
 1895WN      WN11999  14.432   4.048   2.598 -0.3740  0.0877 -0.0841
 1896WN      WN12000   0.528  13.212  10.735 -0.1604 -0.0078  0.0815
 1897WN      WN12001   6.160  11.453   9.736 -0.1976 -0.2476  0.2630
 1898WN      WN12002   1.379   0.071   3.635 -0.1650 -0.2017 -0.4985
 1899WN      WN12003  13.264   5.448   2.504  0.0202 -0.1365  0.1498
 1900WN      WN12004  11.121   7.232   9.083  0.0531 -0.2478 -0.4224
 1901WN      WN12005   5.772  10.163  13.151  0.3116  0.3296 -0.0123
 1902WN      WN12006  12.704   6.736   3.859  0.1483  0.3269  0.0950
 1903WN      WN12007   6.930   3.364   3.242 -0.0826 -0.1110  0.2856
 1904WN      WN12008   4.249  13.786   4.153 -0.2842 -0.1345 -0.0889
 1905WN      WN12009   5.186   6.103   9.207  0.0926  0.0072  0.2355
 1906WN      WN12010   2.963  10.155   0.601 -0.0300  0.1813  0.1047
 1907WN      WN12011   8.782   9.800  11.868 -0.0307  0.1813  0.0660
 1908WN      WN12012   0.366  13.128   3.620  0.0249 -0.1180 -0.0274
 1909WN      WN12013   2.789   1.524   1.732 -0.0389 -0.5110 -0.1246
 1910WN      WN12014  14.254  12.389  12.167 -0.0355 -0.2431  0.1181
 1911WN      WN12015   3.486   6.588   0.531  0.2554 -0.2831  0.2155
 1912WN      WN12016   6.707   8.146  10.242  0.2017  0.5429 -0.0641
 1913WN      WN12017  11.986   2.426   1.587  0.0945  0.1981  0.0385
 1914WN      WN12018  10.535   5.889  10.344 -0.2754 -0.2274  0.0857
 1915WN      WN12019   2.924   2.260  10.911 -0.0804 -0.1101  0.0019
 1916WN      WN12020   4.039   8.053   3.952  0.0005  0.4727  0.0374
 1917WN      WN12021   2.884   2.218  10.052 -0.0280  0.0539  0.0841
 1918WN      WN12022   8.243  11.469   8.353 -0.0602 -0.0615 -0.2840
 1919WN      WN12023  10.573  10.863  12.544  0.1311  0.4410  0.2411
 1920WN      WN12024   9.020   8.774   9.390  0.0114 -0.0714 -0.0200
 1921WN      WN12025  12.572  15.501  10.828  0.2097 -0.0049 -0.0469
 1922WN      WN12026   6.190   3.858   0.732  0.0576  0.0422 -0.0742
 1923WN      WN12027   5.227   7.006   4.141 -0.0922  0.1278  0.0705
 1924WN      WN12028   1.795   8.926   2.762 -0.1076  0.0111  0.3052
 1925WN      WN12029  12.851  15.246  12.242 -0.0083 -0.1059  0.0638
 1926WN      WN12030   9.828  12.631   2.496 -0.2887 -0.2272  0.0014
 1927WN      WN12031  14.729  11.740  11.622 -0.1678 -0.0789  0.0207
 1928WN      WN12032  14.659   9.463  13.356  0.1227  0.0666 -0.1265
 1929WN      WN12033  14.870   1.579   9.148  0.2135  0.0876 -0.0828
 1930WN      WN12034   1.450   3.025   0.272  0.1130  0.0488  0.1617
 1931WN      WN12035   3.705   7.847   0.488 -0.2477  0.1506  0.2344
 1932WN      WN12036   5.301  14.048   0.015  0.1466  0.1298 -0.2682
 1933WN      WN12037  13.255   5.683   1.385 -0.2703  0.0719  0.3600
 1934WN      WN12038  10.505   5.728   3.104  0.0405 -0.0256  0.0390
 1935WN      WN12039   2.592   8.657  13.088 -0.0290  0.1281  0.3945
 1936WN      WN12040   1.406   8.144   2.629  0.3612  0.0742 -0.1716
 1937WN      WN12041   4.454  14.028   1.033  0.0946 -0.0536 -0.1358
 1938WN      WN12042   5.763   2.129   9.234  0.0348 -0.3116 -0.1254
 1939WN      WN12043  13.265   0.934   3.878 -0.0382  0.1350 -0.1028
 1940WN      WN12044  12.432   2.930   1.685  0.0308  0.0313 -0.2358
 1941WN      WN12045   3.412  13.603   3.885 -0.0342  0.0185  0.2259
 1942WN      WN12046   0.293  13.184   3.055  0.1213 -0.1869  0.0376
 1943WN      WN12047   2.047   1.698   3.057  0.0491  0.3041  0.1788
 1944WN      WN12048  10.287  12.103   4.937  0.3474  0.1628  0.3206
 1945WN      WN12049  10.387   0.520   4.973  0.1133  0.0984 -0.2137
 1946WN      WN12050   7.285  14.102  12.086 -0.1031 -0.1839  0.0144
 1947WN      WN12051  11.183   8.105  13.176 -0.0460  0.2146  0.0328
 1948WN      WN12052   5.482  10.126   3.391 -0.1206  0.0288  0.1074
 1949WN      WN12053   4.892  12.545   0.596  0.0798 -0.0853  0.1639
 1950WN      WN12054   0.634  10.339   1.041  0.1614 -0.1535  0.1502
 1951WN      WN12055   4.749  15.520   8.858 -0.3554 -0.2584 -0.5405
 1952WN      WN12056  10.811   2.208   3.201 -0.1334 -0.2235  0.2602
 1953WN      WN12057  13.109   3.298  11.505  0.2148 -0.0550 -0.0534
 1954WN      WN12058   4.026  14.336   2.996 -0.2269 -0.4175 -0.0257
 1955WN      WN12059   4.768   7.040   0.549 -0.1818 -0.1813 -0.1486
 1956WN      WN12060   1.797  14.380   3.644 -0.2456 -0.0958 -0.0349
 1957WN      WN12061   4.839   0.628  10.731 -0.0598 -0.2313 -0.2394
 1958WN      WN12062  15.079  10.747   9.541  0.1743  0.1737  0.3509
 1959WN      WN12063  11.793  14.374  12.820  0.0347 -0.3369  0.0849
 1960WN      WN12064  14.797   3.760   9.421 -0.1835 -0.0228  0.0082
 1961WN      WN12065   5.166   0.608   2.567 -0.3177 -0.0924 -0.2477
 1962WN      WN12066   3.392   4.367   4.199  0.3690 -0.0718 -0.0780
 1963WN      WN12067   2.100   4.005   9.952 -0.1916  0.0327  0.0628
 1964WN      WN12068   2.930  11.037   0.792 -0.0066  0.2101 -0.0952
 1965WN      WN12069  12.317   3.504  12.024  0.1333  0.2702 -0.0713
 1966WN      WN12070  15.665   4.934   2.890  0.0376 -0.0528  0.0984
 1967WN      WN12071   8.364   9.013   9.473 -0.0367 -0.1743 -0.1482
 1968WN      WN12072  11.879   7.625   0.180 -0.1028  0.3075  0.0967
 1969WN      WN12073   4.637   5.388   2.379 -0.1335 -0.0188 -0.2576
 1970WN      WN12074   6.615  12.044  11.244 -0.3782 -0.1075 -0.3670
 1971WN      WN12075  10.537  13.676  12.992 -0.1579 -0.1782  0.0048
 1972WN      WN12076   7.834   4.886   0.253  0.0709  0.2166 -0.1344
 1973WN      WN12077  10.402  10.647  11.134  0.0937 -0.0962 -0.0920
 1974WN      WN12078  10.684   0.773   3.827  0.0594 -0.3436 -0.0896
 1975WN      WN12079  10.115   2.582   8.847 -0.0316 -0.2763  0.2215
 1976WN      WN12080   7.827  15.916   0.523  0.1200  0.1552 -0.2539
 1977WN      WN12081   9.491   5.924  10.950  0.2966 -0.0849  0.0682
 1978WN      WN12082  10.344   6.451  11.169 -0.0714 -0.1866 -0.1701
 1979WN      WN12083  13.754   4.169   1.610 -0.2065  0.1609  0.1153
 1980WN      WN12084   1.184  12.165   3.480  0.3110  0.1545  0.0041
 1981WN      WN12085  12.448   9.042   3.910 -0.1898  0.1620 -0.0008
 1982WN      WN12086   5.977  12.180   9.108  0.0549  0.2028 -0.1808
 1983WN      WN12087   1.721  10.685   4.061 -0.0758  0.0732  0.3345
 1984WN      WN12088   4.473   2.201   2.350  0.0503  0.0220  0.1384
 1985WN      WN12089   8.024   8.393   9.976  0.0510 -0.0389  0.1841
 1986WN      WN12090   1.805   9.536  11.443 -0.0444  0.1059 -0.0599
 1987WN      WN12091  10.019   6.615  10.635 -0.0725  0.1889  0.0465
 1988WN      WN12092   5.052   5.630   4.342 -0.1444  0.0178  0.1467
 1989WN      WN12093   7.165  15.611  13.160  0.1797 -0.2361 -0.3169
 1990WN      WN12094   6.240   1.138   2.931 -0.0896  0.5911  0.0743
 1991WN      WN12095   3.027  10.268  11.330 -0.4150 -0.0491 -0.0630
 1992WN      WN12096   0.994  14.970   3.548  0.3565 -0.1557  0.1809
 1993WN      WN12097   7.043  12.363   8.378 -0.1543 -0.2137 -0.1423
 1994WN      WN12098   8.914   8.043  11.193 -0.0196  0.0499 -0.2381
 1995WN      WN12099  14.467  12.759   0.716  0.2032  0.2260  0.1044
 1996WN      WN12100  10.173   7.945  12.846 -0.1478 -0.2411  0.0010
 1997WN      WN12101  10.834   1.836   1.770  0.0908  0.0849 -0.2559
 1998WN      WN12102  15.760   2.266  12.352  0.0991  0.1998  0.0947
 1999WN      WN12103   2.366  10.437   1.628  0.0347 -0.1955  0.1827
 2000WN      WN12104  15.399  10.127  11.239 -0.2066 -0.0693 -0.0386
 2001WN      WN12105   7.816  15.509   3.402 -0.1061  0.2717  0.0938
 2002WN      WN12106   3.692   6.562  12.653  0.3804  0.0517  0.1296
 2003WN      WN12107   1.058  11.166   8.904 -0.1470 -0.1076  0.1325
 2004WN      WN12108   0.959   0.007   3.314 -0.0650 -0.1901 -0.2398
 2005WN      WN12109   6.608   7.901   9.644  0.0056 -0.2776 -0.1970
 2006WN      WN12110  12.032  14.972  11.749  0.0551 -0.2727 -0.0349
 2007WN      WN12111   4.311  12.002   4.727 -0.1446 -0.3454  0.1441
 2008WN      WN12112  12.612  15.286   9.576 -0.1203  0.3300  0.2310
 2009WN      WN12113   5.214   1.354   0.186  0.0214  0.1678 -0.3068
 2010WN      WN12114   0.562   3.368  12.990 -0.0340  0.1486 -0.0409
 2011WN      WN12115   9.944  12.564   9.798  0.2364  0.0613  0.1868
 2012WN      WN12116  11.419  15.063   1.301 -0.1417 -0.1180 -0.1819
 2013WN      WN12117   0.354  12.646   2.948 -0.3004  0.0456  0.1403
 2014WN      WN12118  13.127   6.829   4.055 -0.1588 -0.2118  0.1572
 2015WN      WN12119   8.221  15.110   3.432 -0.2117 -0.1724  0.1124
 2016WN      WN12120  11.945  14.691   4.443  0.0091 -0.0993  0.4335
 2017WN      WN12121   1.377  13.066   2.686  0.1249 -0.3852 -0.0783
 2018WN      WN12122   1.097  10.091   0.523  0.2219  0.1120  0.2817
 2019WN      WN12123   5.971   0.172  10.669  0.0574 -0.1614  0.0029
 2020WN      WN12124   1.091  11.566   8.571 -0.2655 -0.2592  0.1977
 2021WN      WN12125   3.343  11.011   0.355  0.0583 -0.0506  0.4549
 2022WN      WN12126   6.868   8.078   4.580 -0.0659 -0.1993  0.2050
 2023WN      WN12127  12.047  10.221  12.485  0.1214 -0.0741 -0.1754
 2024WN      WN12128   8.646   9.476   4.845  0.0028  0.1763  0.4401
 2025WN      WN12129  14.431   0.326   1.433  0.0573  0.1790  0.5452
 2026WN      WN12130   6.026   8.272   0.497 -0.1576 -0.3524 -0.0701
 2027WN      WN12131  14.754  12.535  10.486  0.1097  0.1526 -0.1586
 2028WN      WN12132   4.560   6.969  12.599 -0.0549 -0.0303 -0.0914
 2029WN      WN12133   1.640   1.910   7.565 -0.0479 -0.1136  0.0278
 2030WN      WN12134  10.919   7.424   9.569  0.1304  0.2120  0.0035
 2031WN      WN12135  14.532  13.961  11.232  0.0860 -0.0339 -0.1351
 2032WN      WN12136   7.438  11.344   2.807 -0.1426 -0.0235 -0.1165
 2033WN      WN12137  12.974  15.670   4.181 -0.3078 -0.0508  0.0199
 2034WN      WN12138  15.493   6.933   9.088 -0.0342  0.3733  0.0711
 2035WN      WN12139   6.677  10.140  12.588  0.2025  0.0891 -0.0366
 2036WN      WN12140  14.812  10.839  13.301 -0.0750 -0.0488  0.0984
 2037WN      WN12141  10.252  10.005   2.265  0.2097  0.0311 -0.1323
 2038WN      WN12142   3.566   9.220   0.453  0.1976  0.0701  0.1305
 2039WN      WN12143   4.729   6.571   0.681 -0.4080 -0.1245 -0.1996
 2040WN      WN12144   2.017   7.170   1.510 -0.1499  0.0600  0.0071
 2041WN      WN12145   7.340   5.071  13.296  0.3954 -0.0056 -0.1493
 2042WN      WN12146  13.500   7.168  12.620  0.0782 -0.0201 -0.1345
 2043WN      WN12147   5.073   0.062   8.188  0.1573  0.0402  0.0123
 2044WN      WN12148  15.480   5.593   0.644  0.1233  0.0651 -0.0623
 2045WN      WN12149   8.749  15.732  12.167 -0.0767 -0.1135 -0.2306
 2046WN      WN12150  13.719   8.277   9.322  0.1739  0.3569 -0.0266
 2047WN      WN12151   0.610  12.708   9.382  0.2149  0.0565 -0.1986
 2048WN      WN12152   3.703  11.239   3.342 -0.1571 -0.2529  0.1099
 2049WN      WN12153   7.974  10.815  13.082  0.4217  0.1064  0.0285
 2050WN      WN12154   9.680  11.971  10.858 -0.0057 -0.1832  0.0221
 2051WN      WN12155  14.899  14.042   0.825  0.4211  0.3073  0.0936
 2052WN      WN12156   3.261   6.883  12.311  0.1238 -0.1662  0.3305
 2053WN      WN12157   5.444  13.004  13.221  0.0525  0.0087 -0.0304
 2054WN      WN12158   1.433   0.462   2.200  0.3247 -0.0903  0.2104
 2055WN      WN12159   0.921  11.520  12.849  0.0947  0.0194  0.1832
 2056WN      WN12160  11.435  14.438   9.844  0.1318  0.1957 -0.0698
 2057WN      WN12161   7.225   4.812  10.694  0.1689 -0.2429 -0.1503
 2058WN      WN12162   3.370   0.444   3.211 -0.0208 -0.0031 -0.2507
 2059WN      WN12163   7.233   5.695   2.759  0.1401  0.0801  0.3570
 2060WN      WN12164   0.896   4.736   3.835 -0.0078  0.0615 -0.0030
 2061WN      WN12165   6.229  12.575   9.368 -0.1391  0.1755 -0.0108
 2062WN      WN12166  12.898   8.547  13.273 -0.0206  0.0843 -0.2969
 2063WN      WN12167  12.426  11.155   0.179  0.2375 -0.0852 -0.0268
 2064WN      WN12168   4.690  13.850  10.573 -0.3622  0.5291 -0.1051
 2065WN      WN12169   8.591  13.051  11.864  0.1866 -0.4039  0.1955
 2066WN      WN12170  12.198   2.250  10.821  0.0561  0.1427  0.2261
 2067WN      WN12171  14.450   9.802  11.516  0.2854  0.0393 -0.0111
 2068WN      WN12172   8.257  10.378   1.865  0.1090  0.0059  0.2103
 2069WN      WN12173   4.375   7.473  12.089  0.0135  0.0737 -0.1711
 2070WN      WN12174  15.297  10.138   0.417 -0.0287  0.0792 -0.1483
 2071WN      WN12175   6.676   9.307   2.384  0.4306 -0.0278 -0.1635
 2072WN      WN12176   1.593   3.675   8.679  0.3650 -0.2411 -0.3627
 2073WN      WN12177  10.084   7.137   9.914 -0.1012 -0.1561 -0.0475
 2074WN      WN12178  13.753   2.251  11.757  0.0031  0.0046  0.0137
 2075WN      WN12179   6.464   3.379   8.933 -0.0450  0.2278 -0.0158
 2076WN      WN12180   9.095   9.351  12.541  0.0015  0.0402  0.0853
 2077WN      WN12181   3.392   9.258   9.882 -0.4257  0.2201 -0.0865
 2078WN      WN12182  11.348   2.253   3.429  0.5406 -0.1522 -0.0676
 2079WN      WN12183   7.440  11.766   8.731  0.0463  0.2263 -0.2815
 2080WN      WN12184   7.594   3.432  11.517  0.2035  0.2404  0.0815
 2081WN      WN12185  10.116   6.926   1.016  0.0510  0.3083 -0.1698
 2082WN      WN12186  12.853   3.623   0.446 -0.1598 -0.2168  0.0347
 2083WN      WN12187  10.993   2.615   9.383  0.3291 -0.0937  0.1769
 2084WN      WN12188   1.200   0.663   1.849  0.0698 -0.1286 -0.0729
 2085WN      WN12189   1.140  10.197   3.686 -0.1498  0.1380 -0.3486
 2086WN      WN12190   8.133  12.706   9.070 -0.2270 -0.0511 -0.1306
 2087WN      WN12191   7.363  11.982  12.210  0.0994 -0.0930 -0.0645
 2088WN      WN12192  12.174   7.194  12.974  0.3321  0.0492 -0.0482
 2089WN      WN12193   7.190   1.392  12.619  0.2337 -0.4341 -0.1126
 2090WN      WN12194   2.740  14.128   2.259  0.0278 -0.2632  0.3120
 2091WN      WN12195   3.314   0.400   2.534 -0.1639  0.2786  0.0238
 2092WN      WN12196  11.292  12.362   3.660 -0.0679  0.3040 -0.0131
 2093WN      WN12197   9.531  11.782   9.906 -0.0553 -0.0013  0.4643
 2094WN      WN12198   6.200   9.111  11.447 -0.0339  0.0618 -0.0196
 2095WN      WN12199   0.658  11.612   2.032 -0.2168  0.2247 -0.2164
 2096WN      WN12200   2.551  13.551  12.092 -0.1348 -0.0126 -0.0636
 2097WN      WN12201  14.693   1.584  13.092  0.0738 -0.1700  0.0753
 2098WN      WN12202   9.234   8.252   9.486 -0.0017  0.0759 -0.2580
 2099WN      WN12203  13.523   3.866   4.023 -0.0693 -0.0601  0.1167
 2100WN      WN12204  11.557   0.234   4.925 -0.2339 -0.1529 -0.1078
 2101WN      WN12205  10.101   1.102   2.339 -0.0674 -0.1088 -0.0606
 2102WN      WN12206  11.929   8.548   2.777 -0.2339  0.1675 -0.1100
 2103WN      WN12207   2.592   4.074  11.145  0.0946  0.2563 -0.0374
 2104WN      WN12208   9.827   4.941  10.376 -0.1105 -0.2114  0.0029
 2105WN      WN12209  14.272  10.956  11.663  0.1458  0.0132 -0.1534
 2106WN      WN12210  13.847  10.818   2.660  0.2834 -0.0342 -0.1046
 2107WN      WN12211   3.389   2.876  11.349  0.2545 -0.2177 -0.1450
 2108WN      WN12212   5.072   5.994   2.201 -0.0976 -0.0597  0.1893
 2109WN      WN12213   8.931  11.708   1.288  0.2250 -0.3717  0.2757
 2110WN      WN12214   0.236  14.452   0.434 -0.0922  0.0559  0.1930
 2111WN      WN12215  15.886   1.265   2.817 -0.2146 -0.2981  0.1500
 2112WN      WN12216  12.840  15.156  10.510 -0.1061 -0.2311 -0.2735
 2113WN      WN12217  10.530   0.727   3.224 -0.1258 -0.0433  0.0733
 2114WN      WN12218  13.852  15.426  13.185  0.2347 -0.0772  0.1588
 2115WN      WN12219  11.855  12.422   0.905 -0.0212 -0.4014  0.1669
 2116WN      WN12220   8.276   5.562   4.218 -0.1276 -0.3444  0.3434
 2117WN      WN12221  11.994  11.665   8.869  0.0743 -0.0387 -0.0203
 2118WN      WN12222  14.637   1.201   1.589 -0.0002 -0.2408 -0.0352
 2119WN      WN12223  12.828   0.188  11.256 -0.2458  0.0240 -0.0828
 2120WN      WN12224  15.838   8.499   1.266  0.0463 -0.0788 -0.0874
 2121WN      WN12225   8.192   8.842   3.842 -0.1627 -0.0412 -0.2404
 2122WN      WN12226  14.022  10.512  12.065 -0.0542  0.3413  0.0900
 2123WN      WN12227   2.453  11.950   8.459  0.1467  0.2380  0.0092
 2124WN      WN12228   1.698   3.407   9.479 -0.0995  0.0645  0.2426
 2125WN      WN12229  13.362   0.640  12.052  0.2154  0.2961 -0.1108
 2126WN      WN12230   2.883   8.765  11.401  0.1300 -0.1957  0.1659
 2127WN      WN12231   7.809  15.714   9.025  0.2289 -0.0002 -0.0123
 2128WN      WN12232   1.155  13.754   1.636  0.1178  0.0396 -0.0224
 2129WN      WN12233  12.430  15.500  12.178 -0.2833 -0.1997 -0.0296
 2130WN      WN12234  12.479   3.162  11.182 -0.0160 -0.3846  0.1203
 2131WN      WN12235  15.647   1.714  11.091 -0.3571  0.3158 -0.2164
 2132WN      WN12236   9.320   4.876  10.256 -0.0864  0.0379  0.4264
 2133WN      WN12237   5.649   2.969   9.247  0.0481 -0.0368  0.2895
 2134WN      WN12238  13.654   7.120  10.844 -0.2619 -0.1797  0.4585
 2135WN      WN12239  14.264  14.567  13.289  0.0134 -0.0646 -0.1040
 2136WN      WN12240   1.663  11.125  13.251 -0.3200 -0.0323 -0.4086
 2137WN      WN12241   4.251  13.619   1.153 -0.1199 -0.0214  0.0158
 2138WN      WN12242   6.477  14.754   9.910  0.0912 -0.1148 -0.0190
 2139WN      WN12243   5.736  13.254   9.197  0.0484 -0.1261 -0.0445
 2140WN      WN12244   9.778   7.253   9.531  0.0914  0.5476 -0.1505
 2141WN      WN12245  12.806   5.329   2.401  0.0968  0.0440 -0.1907
 2142WN      WN12246  14.760  12.036   1.285  0.1427 -0.0113  0.0992
 2143WN      WN12247   2.965  14.676  10.276 -0.3326 -0.0265 -0.2323
 2144WN      WN12248   3.925   2.911  13.001 -0.1723  0.0967  0.0298
 2145WN      WN12249   0.299   4.984   2.254  0.1835 -0.2429 -0.0322
 2146WN      WN12250   2.710   2.112   0.524 -0.1584  0.3607  0.4316
 2147WN      WN12251   1.851  12.981  11.980  0.1921 -0.0648  0.0794
 2148WN      WN12252   5.436   5.017   0.757  0.2304 -0.1789  0.2759
 2149WN      WN12253  12.404   6.861  10.766 -0.0568  0.1762 -0.1028
 2150WN      WN12254   4.982  10.943   1.272 -0.0698 -0.3691 -0.0436
 2151WN      WN12255   4.209  12.746   0.235 -0.3018  0.4307 -0.0397
 2152WN      WN12256  12.951   4.796   1.326 -0.1905  0.1552  0.1355
 2153WN      WN12257  10.152   0.557  12.512 -0.2059 -0.0282  0.1093
 2154WN      WN12258   6.192   9.502   2.964 -0.1217 -0.3388 -0.1549
 2155WN      WN12259  13.333   6.309   4.304  0.0385  0.1470 -0.1354
 2156WN      WN12260  13.664   1.843   0.754 -0.0868  0.1091  0.0202
 2157WN      WN12261  10.588  13.834   9.389  0.2777  0.0775 -0.1612
 2158WN      WN12262   8.294   6.705  12.929  0.0540 -0.1559 -0.3716
 2159WN      WN12263   7.565   4.272  13.172 -0.1329  0.3041  0.1079
 2160WN      WN12264   7.687  13.334  12.488  0.2519 -0.2063 -0.0577
 2161WN      WN12265  14.908   0.361   9.007  0.1402  0.0022 -0.0034
 2162WN      WN12266   4.924  13.173   2.726  0.0594 -0.0837 -0.0036
 2163WN      WN12267   2.737  12.652   9.613  0.1701  0.3257  0.1093
 2164WN      WN12268  12.820   1.477  10.643 -0.0199  0.2190 -0.1880
 2165WN      WN12269  10.146  14.581   2.168  0.1000 -0.1709  0.2330
 2166WN      WN12270   3.450   6.662   1.038  0.3344 -0.0058 -0.1196
 2167WN      WN12271   2.424   4.924   2.066  0.3267 -0.1238 -0.1232
 2168WN      WN12272   2.302   2.803   3.158 -0.3791  0.0672 -0.2709
 2169WN      WN12273   3.672  11.396  11.216  0.0681  0.2294 -0.0556
 2170WN      WN12274   2.820   8.741   0.203  0.3585 -0.0973 -0.2120
 2171WN      WN12275  14.461   3.080  12.867 -0.0516  0.1513  0.0170
 2172WN      WN12276  12.410   5.312   1.635 -0.1039  0.1117  0.1280
 2173WN      WN12277  12.168   3.249   2.012  0.0613 -0.0789  0.1322
 2174WN      WN12278   3.654   5.276   3.302  0.2532 -0.0121  0.1684
 2175WN      WN12279   3.514   0.247   0.582 -0.0163 -0.1477  0.0232
 2176WN      WN12280   8.384   1.171  11.054 -0.2060  0.0093  0.1510
 2177WN      WN12281   2.661   9.220   0.127 -0.1758  0.2592  0.1885
 2178WN      WN12282   7.668   7.223   1.873 -0.1325 -0.0987 -0.0366
 2179WN      WN12283  12.820  10.878   1.278  0.0983  0.1360  0.0535
 2180WN      WN12284   4.764   5.875  13.028 -0.0777 -0.0787 -0.0522
 2181WN      WN12285  15.172  12.253   0.799  0.3332 -0.0618  0.0856
 2182WN      WN12286  10.987   8.883  10.429 -0.1565  0.0505 -0.0521
 2183WN      WN12287   8.642   7.615   2.828 -0.0042 -0.0709  0.1380
 2184WN      WN12288   8.203  10.849   4.128  0.0281  0.1922 -0.1745
 2185WN      WN12289   2.857  10.305   1.421 -0.1377 -0.0700  0.3081
 2186WN      WN12290  14.766   6.273   9.987  0.1034  0.0673  0.1356
 2187WN      WN12291  13.735   6.724   4.236  0.0584 -0.0750 -0.1330
 2188WN      WN12292   4.204   3.001  13.368 -0.1502 -0.2176  0.0147
 2189WN      WN12293   8.209   7.042  10.925  0.0433  0.0572  0.4349
 2190WN      WN12294   1.948   5.867   2.838 -0.1090  0.1750  0.2672
 2191WN      WN12295  11.655   8.320   9.878 -0.3252 -0.0174  0.1488
 2192WN      WN12296   3.556  11.904  13.305  0.0429 -0.1977 -0.0667
 2193WN      WN12297   6.778   8.638  11.475 -0.0404 -0.0194  0.4047
 2194WN      WN12298   5.255   6.863   1.053 -0.1139 -0.0769  0.0837
 2195WN      WN12299   3.374   3.722   3.241 -0.2695 -0.2887 -0.0831
 2196WN      WN12300   9.103   4.127  11.042 -0.0527  0.0981 -0.2094
 2197WN      WN12301  10.386   4.466   0.270  0.0175 -0.2596  0.0590
 2198WN      WN12302   9.048  12.303   2.095 -0.0510  0.1615 -0.2964
 2199WN      WN12303   3.055  12.348   0.875 -0.0459  0.1289  0.0941
 2200WN      WN12304  12.218   5.114  10.371  0.1505  0.0931 -0.0734
 2201WN      WN12305   0.654  15.563   3.561 -0.0905 -0.2330 -0.1259
 2202WN      WN12306   4.417   4.909  12.299 -0.0756  0.1115 -0.1469
 2203WN      WN12307   0.543   8.680   9.790 -0.3315 -0.2768 -0.0967
 2204WN      WN12308  15.931   4.962   3.631 -0.0626 -0.0400 -0.0410
 2205WN      WN12309  10.287  13.947   9.750  0.2553 -0.2703 -0.1407
 2206WN      WN12310  11.924  11.083   8.892 -0.2089  0.0460  0.0745
 2207WN      WN12311   0.199  12.583   1.332 -0.1281 -0.0874  0.0256
 2208WN      WN12312  15.774   7.077  10.469 -0.2557  0.0538 -0.1195
 2209WN      WN12313  10.927   8.196   9.653  0.4184 -0.0308  0.2465
 2210WN      WN12314  14.984   8.767  12.432 -0.0122  0.3111  0.0068
 2211WN      WN12315   8.220   2.716  10.207  0.0340  0.1324  0.2063
 2212WN      WN12316   1.874   8.156   3.480 -0.0673  0.0256 -0.3203
 2213WN      WN12317   8.224   5.092   1.467  0.1567  0.4303 -0.1184
 2214WN      WN12318  13.864   1.685   2.186 -0.4752 -0.1435 -0.0122
 2215WN      WN12319  12.721  11.650   1.842  0.3348 -0.0385  0.1036
 2216WN      WN12320   9.355   6.847  10.153  0.0604 -0.0870  0.0274
 2217WN      WN12321   2.602   8.534   9.839  0.1182 -0.2587  0.0516
 2218WN      WN12322   1.109  11.356  12.376  0.4089  0.0035 -0.1906
 2219WN      WN12323  11.889  15.456  10.187 -0.0108  0.4008  0.4644
 2220WN      WN12324  15.926  14.009   3.543  0.0855  0.1909 -0.0375
 2221WN      WN12325   1.281  14.022  10.579  0.0899 -0.2218  0.0014
 2222WN      WN12326  12.543  12.939   1.758 -0.1450  0.5083 -0.1669
 2223WN      WN12327   4.955  13.846  11.218  0.0100 -0.0207  0.1770
 2224WN      WN12328   2.076   8.684  11.164  0.0821  0.1816  0.1023
 2225WN      WN12329  13.033   4.364   3.307 -0.0131 -0.4134  0.1387
 2226WN      WN12330  13.653  11.122  13.157 -0.0039  0.2455 -0.2566
 2227WN      WN12331   3.829   7.619   1.767  0.0395  0.2597 -0.2098
 2228WN      WN12332  13.720   9.027  10.065  0.1948 -0.0141  0.1093
 2229WN      WN12333  10.442   0.365   0.806  0.1324 -0.2078  0.0249
 2230WN      WN12334  13.635   5.350   2.174  0.0002 -0.3081 -0.2161
 2231WN      WN12335  12.093  10.737  12.095  0.2131 -0.1525  0.4620
 2232WN      WN12336  15.395   6.797   9.587  0.4479  0.1735 -0.1996
 2233WN      WN12337  13.006  15.306   2.865  0.1440  0.0524 -0.0186
 2234WN      WN12338   2.696   1.317   0.244 -0.1886  0.0058 -0.1603
 2235WN      WN12339  11.045   9.248  13.345  0.0777 -0.3585  0.0305
 2236WN      WN12340  10.922   9.659   1.470  0.2019 -0.0600  0.2984
 2237WN      WN12341   2.315   3.051  10.663  0.1296  0.0733 -0.0583
 2238WN      WN12342  15.214   3.746   8.704 -0.1969  0.1879  0.1696
 2239WN      WN12343   3.787   6.252   4.053  0.1453  0.1474 -0.0355
 2240WN      WN12344   8.150   8.674  11.704  0.1984 -0.1197 -0.1707
 2241WN      WN12345  12.710   8.566   3.668  0.0838  0.0853  0.1684
 2242WN      WN12346  11.008  15.159   9.847 -0.1573 -0.1399 -0.1308
 2243WN      WN12347   3.273  14.392   3.322  0.0525  0.2505 -0.0781
 2244WN      WN12348   0.578   0.622   9.250  0.6722  0.1280 -0.0252
 2245WN      WN12349   4.155   5.338  12.274 -0.1901 -0.2731  0.0899
 2246WN      WN12350  13.831  10.008   9.187 -0.2011 -0.0183 -0.0803
 2247WN      WN12351  12.196  12.965   2.384  0.1206 -0.0974  0.0528
 2248WN      WN12352   1.303   2.890  10.116 -0.0755  0.0961 -0.1592
 2249WN      WN12353   8.313   4.762   0.345 -0.0049 -0.0864 -0.0172
 2250WN      WN12354   7.178   7.423  11.906 -0.0174 -0.0395 -0.0417
 2251WN      WN12355   9.468  14.217   9.373  0.1148 -0.3343  0.1565
 2252WN      WN12356  12.935   0.707   3.088  0.1480 -0.1727  0.1800
 2253WN      WN12357  15.229   8.211   1.647 -0.0369 -0.0312  0.3497
 2254WN      WN12358   5.435  13.032   1.830 -0.0794  0.0241  0.2598
 2255WN      WN12359   8.529   3.296   9.391  0.0576 -0.1684 -0.4657
 2256WN      WN12360   7.061   2.461   2.378 -0.1192  0.1021 -0.0552
 2257WN      WN12361   9.839  14.783  12.538  0.1305  0.2964  0.0194
 2258WN      WN12362  13.390   0.128  12.116 -0.3755  0.0910 -0.1497
 2259WN      WN12363   5.271   0.813   9.368 -0.0395 -0.0925  0.2657
 2260WN      WN12364   4.179  10.400  10.381 -0.6013 -0.1345 -0.0871
 2261WN      WN12365   8.188  14.082   2.829  0.0735  0.3102  0.3785
 2262WN      WN12366   2.536  15.725   1.919  0.1090 -0.0280  0.0143
 2263WN      WN12367   2.094   9.737  12.515 -0.2330  0.1748 -0.0031
 2264WN      WN12368  14.335  11.945  11.854  0.1060  0.3699  0.0333
 2265WN      WN12369  15.693   9.402  13.196 -0.3670  0.0446 -0.1185
 2266WN      WN12370   5.826   8.973  12.515 -0.1110 -0.0573  0.2122
 2267WN      WN12371  13.469   0.865   2.351 -0.2104 -0.0501  0.0356
 2268WN      WN12372   1.918  11.533  12.373 -0.0354  0.0947  0.1307
 2269WN      WN12373   4.691  10.489   3.275  0.0715 -0.0692  0.3242
 2270WN      WN12374   5.823   6.241   3.499  0.0185 -0.0714  0.0221
 2271WN      WN12375   0.451   8.082  12.949  0.0571  0.0643  0.1256
 2272WN      WN12376   1.078   9.043   3.352 -0.2285  0.1736 -0.2174
 2273WN      WN12377  11.853   2.120   3.585  0.0174 -0.0994  0.1355
 2274WN      WN12378  12.834  12.572   3.102  0.2596 -0.2560 -0.1896
 2275WN      WN12379  15.263   4.950   9.129  0.7855 -0.1980  0.1666
 2276WN      WN12380  15.019  14.352   8.440 -0.0749 -0.1639  0.3201
 2277WN      WN12381  12.991   3.701   8.575  0.7938  0.2090 -0.0150
 2278WN      WN12382   9.922   8.761  12.440 -0.0871  0.0988 -0.3264
 2279WN      WN12383  12.417   8.119   2.790 -0.0200 -0.1526  0.1367
 2280WN      WN12384   1.349   6.532   0.532 -0.1174 -0.2293 -0.2142
 2281WN      WN12385   6.532  13.967   1.487 -0.2033 -0.0175 -0.0440
 2282WN      WN12386  12.971   9.420   3.749 -0.3060  0.2430 -0.4939
 2283WN      WN12387  12.763  10.601   4.070 -0.0190 -0.2383  0.2692
 2284WN      WN12388   7.180  10.092  12.659  0.0792 -0.0713 -0.0122
 2285WN      WN12389  11.816   2.567   3.839 -0.0068 -0.0338  0.3455
 2286WN      WN12390  13.357   8.773   2.000  0.2315  0.3662  0.4211
 2287WN      WN12391   9.653  10.501   3.878  0.2063  0.2637 -0.1535
 2288WN      WN12392  14.551   9.655   0.599 -0.1857 -0.2873 -0.1722
 2289WN      WN12393  14.908   1.997  12.644  0.1226 -0.1738  0.1082
 2290WN      WN12394   6.188  13.656   8.794  0.2651 -0.5101  0.0527
 2291WN      WN12395   8.190   1.853   4.281 -0.1431 -0.3190 -0.1972
 2292WN      WN12396   9.035  11.965   8.967  0.1434  0.0211 -0.0661
 2293WN      WN12397   3.498   8.263   9.464  0.0903 -0.0198  0.0888
 2294WN      WN12398  15.691  15.016   9.203 -0.0314  0.3736 -0.0442
 2295WN      WN12399   7.032  15.307  12.292  0.0739 -0.1182 -0.1536
 2296WN      WN12400   7.153   4.219   8.897  0.4030 -0.3946 -0.2863
 2297WN      WN12401   2.639  10.522   2.731  0.0715  0.1818 -0.0124
 2298WN      WN12402  13.352   7.461   3.901 -0.0925 -0.1982 -0.3549
 2299WN      WN12403   3.354   7.156   3.811 -0.0225  0.0959  0.1700
 2300WN      WN12404   7.937  15.283   3.825 -0.1746  0.0860 -0.1621
 2301WN      WN12405   2.968   4.439  12.609  0.0487 -0.1797  0.0619
 2302WN      WN12406   1.324  10.248   2.654 -0.0986  0.1930 -0.1287
 2303WN      WN12407   8.261  15.823   2.407 -0.0189 -0.1045 -0.3122
 2304WN      WN12408  14.652   3.320  10.847 -0.3312  0.0688  0.2843
 2305WN      WN12409   9.587  10.929  10.037  0.0684 -0.1918  0.0282
 2306WN      WN12410  10.665   9.398   2.270  0.2310 -0.2926 -0.1577
 2307WN      WN12411  13.012   1.462   9.671 -0.2509  0.1994 -0.1835
 2308WN      WN12412   6.387   6.365   2.722  0.0306  0.3071  0.1386
 2309WN      WN12413   2.905   8.142   3.657  0.2129 -0.1982  0.2249
 2310WN      WN12414  13.900   1.874   3.339 -0.0362  0.1428 -0.0976
 2311WN      WN12415  10.423   3.313   2.786 -0.0868 -0.1426 -0.2245
 2312WN      WN12416  11.793   7.559  12.418  0.0722 -0.2096  0.1132
 2313WN      WN12417  13.940   5.795   0.719 -0.2535 -0.2790 -0.2458
 2314WN      WN12418  13.428  11.980  10.588  0.0394 -0.1732 -0.1140
 2315WN      WN12419  13.705   0.355   1.610 -0.3344  0.0167  0.0602
 2316WN      WN12420   2.331  13.793  10.477  0.2851 -0.0779 -0.0752
 2317WN      WN12421  12.843  14.904   0.192 -0.2061 -0.0491  0.0681
 2318WN      WN12422   1.985   9.029  10.830 -0.0434  0.0512  0.0243
 2319WN      WN12423   5.657   7.602   2.742 -0.0573 -0.1072 -0.0986
 2320WN      WN12424   0.884  11.698   1.553 -0.2069  0.1542 -0.1980
 2321WN      WN12425  13.622  15.778  12.896 -0.2245 -0.2102 -0.2354
 2322WN      WN12426   8.038   0.885   4.150 -0.1541 -0.1691 -0.2463
 2323WN      WN12427  10.287   8.010  12.351 -0.3072 -0.0082 -0.0531
 2324WN      WN12428  15.218  13.247   2.239 -0.2387  0.1514  0.0892
 2325WN      WN12429  10.344   8.331  13.203 -0.1056  0.0510  0.1952
 2326WN      WN12430   8.293   3.825   9.228 -0.4066  0.1432 -0.0863
 2327WN      WN12431   9.885   4.507  11.664  0.1914 -0.1167 -0.0727
 2328WN      WN12432   5.341   8.410   0.892  0.1111 -0.0967  0.0064
 2329WN      WN12433   8.507  14.640  12.649 -0.1186 -0.3026 -0.0075
 2330WN      WN12434   9.729  14.678   3.025  0.0610 -0.0005  0.1493
 2331WN      WN12435   6.357  11.165   3.596  0.0617 -0.2821  0.0000
 2332WN      WN12436   4.744   4.485   9.513 -0.0720 -0.0069 -0.2569
 2333WN      WN12437  11.483   2.057   3.926  0.0747 -0.2636 -0.2702
 2334WN      WN12438  13.765   6.091  10.163  0.0468  0.2203 -0.0149
 2335WN      WN12439   4.680   7.909  12.948 -0.0139  0.0981  0.1796
 2336WN      WN12440   4.778   0.697  12.850 -0.1552  0.3353  0.2850
 2337WN      WN12441   7.452   6.370   1.892 -0.0473  0.2345 -0.4256
 2338WN      WN12442  14.615   2.030  11.247  0.0697 -0.1700  0.2395
 2339WN      WN12443   8.567   6.334   3.777 -0.1118 -0.0951 -0.1043
 2340WN      WN12444  15.559   5.363   2.516 -0.1119 -0.0141 -0.0907
 2341WN      WN12445  10.779  11.127   4.352  0.1413 -0.0600  0.0879
 2342WN      WN12446   1.775   9.443  12.294 -0.0714  0.0852 -0.0994
 2343WN      WN12447  14.236   1.642  11.896 -0.0501  0.2319 -0.1943
 2344WN      WN12448   3.038   8.484   0.626  0.0067  0.0539  0.1055
 2345WN      WN12449   6.994  13.264   8.619  0.1791  0.5099  0.0440
 2346WN      WN12450   5.175  14.174   9.800  0.2686 -0.2262 -0.1804
 2347WN      WN12451   3.106  15.840   1.948  0.3304  0.0439 -0.1579
 2348WN      WN12452  12.918  11.257   4.393 -0.3334  0.0695  0.2084
 2349WN      WN12453  14.633  15.332  10.968  0.2883 -0.3161  0.0083
 2350WN      WN12454   6.783   7.630   0.757 -0.3416  0.2602  0.2873
 2351WN      WN12455  12.957   7.993   9.983  0.1628 -0.0540 -0.2838
 2352WN      WN12456   3.267  11.331   3.566 -0.0094 -0.2468  0.0139
 2353WN      WN12457  12.089   1.937  11.164  0.0877 -0.2281  0.1782
 2354PP      PP12458   6.159  13.982   8.376 -0.0589  0.1590 -0.1906
 2355PP      PP12459  12.701   8.419   0.423 -0.3190 -0.1400 -0.1483
 2356PP      PP12460   8.115  12.321  12.964 -0.2001  0.0790  0.3437
 2357PP      PP12461   2.950   0.256   2.264  0.1999  0.2774 -0.1729
 2358PP      PP12462  12.120  13.222  11.379  0.2224 -0.1402 -0.0017
 2359PP      PP12463  11.483   2.807   3.555  0.2853  0.0970  0.0902
 2360PP      PP12464   9.625   1.902  12.155 -0.2664 -0.2205 -0.2231
 2361PP      PP12465  15.128   6.718   8.787 -0.0489 -0.2518 -0.1825
 2362PP      PP12466  13.461  14.487  10.449  0.2969  0.2304 -0.1840
 2363PP      PP12467  14.058   7.589   2.585 -0.1429 -0.1046  0.2826
 2364PP      PP12468  14.236  15.599  10.984 -0.2540 -0.1074 -0.0942
 2365PP      PP12469   0.074   9.826   1.813  0.0853 -0.2345  0.1477
 2366PP      PP12470  15.903  13.861   1.955  0.0193  0.3142  0.1017
 2367PP      PP12471  11.051  15.692   5.133  0.1039 -0.1721  0.1221
 2368PP      PP12472   4.186   9.867   0.501  0.3272  0.0813 -0.1093
 2369PP      PP12473  12.445   2.526   2.109  0.0478  0.1351 -0.2004
 2370PP      PP12474  15.090  11.187   3.491  0.3366 -0.2436  0.0019
 2371PP      PP12475  11.870   7.171   2.517 -0.0937  0.1814  0.2090
 2372PP      PP12476  11.288   8.981   0.891 -0.1479 -0.1635  0.0874
 2373PP      PP12477  14.650  15.209   3.248 -0.1528  0.3146  0.1191
 2374PP      PP12478   1.761  15.735  10.898 -0.2091  0.0061 -0.2042
 2375PP      PP12479   8.114   5.643   9.367 -0.2225 -0.0901 -0.2703
 2376PP      PP12480   9.124   4.663  11.132  0.3190  0.2057  0.2140
 2377PP      PP12481  15.937   2.569  13.129 -0.0108 -0.0587  0.0694
 2378PP      PP12482   2.572   8.169   2.512  0.0999 -0.0206 -0.0849
 2379PP      PP12483  12.645  15.070   8.657  0.0297 -0.0548 -0.0804
 2380PP      PP12484  10.230   2.744  10.328  0.0994  0.0643  0.0760
 2381PP      PP12485  15.385   0.984  10.209 -0.0665 -0.0950  0.0857
 2382PP      PP12486  12.103   3.119  10.220  0.1173  0.3490 -0.2794
 2383PP      PP12487   2.959   5.486   1.652 -0.0883 -0.2355 -0.0727
 2384PP      PP12488   8.519  15.734   2.836  0.2814  0.3372 -0.0743
 2385PP      PP12489  15.285   5.376   1.527 -0.0740 -0.0874 -0.1839
 2386PP      PP12490  11.313  11.401   3.165  0.3755 -0.0563 -0.2183
 2387PP      PP12491  14.324  14.853   3.170  0.0844 -0.0060 -0.0920
 2388PP      PP12492   2.037  14.679   9.318  0.0887 -0.0307 -0.1967
 2389PP      PP12493  14.984   2.172   1.253 -0.1433  0.2391  0.3770
 2390PP      PP12494  14.750   8.917  11.528  0.0434  0.0374  0.0876
 2391PP      PP12495  14.739   1.905   2.822 -0.1559  0.3459 -0.1287
 2392PP      PP12496   6.080   2.867   9.557 -0.0221 -0.2472  0.3065
 2393PP      PP12497   4.226   1.449   1.075 -0.2625 -0.0829  0.1291
 2394PP      PP12498   5.814  14.150  12.568 -0.1875  0.0213  0.2185
 2395PP      PP12499   7.950  12.750   9.587 -0.0680 -0.0126  0.2983
 2396PP      PP12500   4.683   6.407   9.085  0.1007  0.0958 -0.1663
 2397PP      PP12501   2.488   8.958  10.931  0.0166  0.1194  0.0355
 2398PP      PP12502   1.887   1.190   8.871  0.0499 -0.2871  0.0746
 2399PP      PP12503  10.003   3.916   2.813 -0.0503 -0.3053 -0.0364
 2400PP      PP12504   7.281   6.919  11.156 -0.0348  0.2263 -0.0877
 2401PP      PP12505   8.814   8.844  11.326  0.2568  0.0588 -0.0418
 2402PP      PP12506   4.427  11.970   3.357 -0.0251 -0.0233  0.2275
 2403PP      PP12507   5.598  14.576  10.796 -0.0458  0.1270 -0.0849
 2404PP      PP12508  11.402   9.993   3.214  0.4417  0.0432 -0.0156
 2405PP      PP12509  13.309   3.997   2.586 -0.0795  0.0183  0.0707
 2406PP      PP12510  15.611   9.930   9.793  0.1963  0.1703 -0.0581
 2407PP      PP12511   2.505  14.793   1.429 -0.0141 -0.2165  0.2173
 2408PP      PP12512   8.798  10.159   2.650  0.0854  0.2039  0.1412
 2409PP      PP12513   0.021   3.546   8.080 -0.0469 -0.0145 -0.2399
 2410PP      PP12514  14.225  10.041   2.851 -0.1171  0.1991 -0.0670
 2411PP      PP12515   3.756   6.273  10.554 -0.0353 -0.3388  0.3881
 2412PP      PP12516   5.737  12.541   9.402  0.0177  0.2764 -0.0992
 2413PP      PP12517   6.738   3.046  10.584  0.1475 -0.0842  0.3272
 2414PP      PP12518  11.342   6.464   3.255 -0.2166 -0.0393 -0.1323
 2415PP      PP12519  12.021   8.058   0.266 -0.1103 -0.0540  0.3035
 2416PP      PP12520   7.782   4.920  10.319  0.1563 -0.3201  0.2813
 2417PP      PP12521   2.316  11.051  10.566 -0.2419 -0.3516 -0.0059
 2418PP      PP12522  14.683  10.035  12.597 -0.4866  0.1690 -0.0076
 2419PP      PP12523   4.415   9.629   3.650 -0.2948 -0.1432  0.2149
 2420PP      PP12524  10.459  10.193   3.424 -0.0573  0.0412 -0.0882
 2421PP      PP12525  14.464   5.493  12.795 -0.0967  0.4172  0.1617
 2422PP      PP12526  12.704   3.477   4.610 -0.3213  0.2361 -0.0715
 2423PP      PP12527  15.897  11.725   3.168  0.0141 -0.0712  0.1185
 2424PP      PP12528  15.521   5.344  12.245 -0.0401  0.0877  0.3191
 2425PP      PP12529   8.316  14.911  10.050 -0.0471  0.1021  0.2781
 2426PP      PP12530   5.775  14.454   0.794 -0.0561 -0.1916  0.2439
 2427PP      PP12531   7.537  15.920   0.948 -0.2312  0.0507 -0.1225
 2428PP      PP12532  10.007   1.053  10.811  0.0361  0.1718 -0.1627
 2429PP      PP12533   7.212   5.925  11.541  0.0988  0.0986  0.0702
 2430PP      PP12534   7.901   8.686  12.567  0.0952 -0.0961  0.3969
 2431PP      PP12535  14.717  14.221   1.713 -0.2306 -0.0108  0.2994
 2432PP      PP12536   9.468   2.355  12.040 -0.1236 -0.1240  0.1166
 2433PP      PP12537   8.456   9.937   1.633 -0.3350 -0.2241  0.2419
 2434PP      PP12538   2.595  14.315   0.544  0.2251  0.0599 -0.0184
 2435PP      PP12539   5.346   8.380   3.688 -0.1092 -0.0643 -0.2975
 2436PP      PP12540  11.822   3.631   9.089  0.1328 -0.1615 -0.1733
 2437PP      PP12541  15.444  11.851  10.159 -0.1275 -0.0882 -0.2131
 2438PP      PP12542   6.542   8.573   3.278 -0.0495  0.0953  0.1329
 2439PP      PP12543   4.722  11.400   8.712 -0.2716 -0.1454 -0.3201
 2440PP      PP12544   9.593   2.097   2.955  0.0727  0.0355 -0.0416
 2441PP      PP12545  11.307   5.517   8.907 -0.0007 -0.0814 -0.2420
 2442PP      PP12546   0.844   8.386  12.866  0.1074 -0.2018 -0.0384
 2443PP      PP12547   0.889   8.146   3.001 -0.3264 -0.2494 -0.0405
 2444PP      PP12548   3.078  12.910   4.433  0.0360 -0.1390  0.1899
 2445PP      PP12549   4.010  11.016   1.778 -0.3208  0.0775  0.1435
 2446PP      PP12550   0.200   0.429  12.542  0.1484  0.1953 -0.2056
 2447PP      PP12551   6.136   4.979  12.950  0.2236 -0.2238 -0.1838
 2448PP      PP12552   7.930  15.259  12.162  0.0406 -0.1672  0.2767
 2449PP      PP12553   0.643   1.773  12.590  0.0837 -0.3736  0.3279
 2450PP      PP12554   2.679   6.684   2.833  0.2094 -0.0271 -0.0239
 2451PP      PP12555  12.721   9.715   9.315  0.0979 -0.1998 -0.1507
 2452PP      PP12556  11.780  12.774  12.016 -0.3073  0.1641  0.1218
 2453PP      PP12557   8.997  10.830   3.257  0.0517 -0.2558 -0.1663
 2454PP      PP12558  10.025   9.767   8.994 -0.2270  0.0007 -0.2907
 2455PP      PP12559  15.362   8.098  12.032 -0.1258  0.0217 -0.0876
 2456PP      PP12560  13.350   1.331  12.720  0.0432  0.0945 -0.0604
 2457PP      PP12561  14.540   7.288   2.042  0.1160 -0.0912  0.0579
 2458PP      PP12562  15.719   2.907   3.602  0.0117  0.1453 -0.0368
 2459PP      PP12563  12.657   3.421   3.032  0.0951  0.0712 -0.1111
 2460PP      PP12564   2.102   1.156  11.320  0.0183  0.1811  0.1439
 2461PP      PP12565  11.691   0.729  13.024 -0.0507 -0.0647  0.1178
 2462PP      PP12566   7.124   7.916   3.178  0.4655 -0.2720 -0.0532
 2463PP      PP12567  12.239  15.277   5.059 -0.0355  0.2800 -0.1371
 2464PP      PP12568  15.771   1.626   2.278  0.4926  0.0650  0.2734
 2465PP      PP12569   2.477  11.779  11.725  0.1883 -0.1179 -0.0411
 2466PP      PP12570  15.058   4.606  11.840  0.0049  0.2463 -0.0040
 2467PP      PP12571  13.535   7.984  11.239  0.0753  0.2026  0.0559
 2468PP      PP12572   1.181   1.283   8.907  0.0115 -0.0820  0.0171
 2469PP      PP12573   0.403   6.696   3.713  0.2364  0.0512  0.3608
 2470PP      PP12574   6.728   3.644   3.918 -0.1959 -0.2794  0.2317
 2471PP      PP12575  14.250  12.096   1.234 -0.2128 -0.0702  0.0932
 2472PP      PP12576  10.032  13.008   1.130  0.4278  0.2052  0.3724
 2473PP      PP12577  13.152  14.706  12.096  0.0212 -0.1750 -0.2817
 2474PP      PP12578   6.275   9.093   3.322 -0.0256 -0.4657 -0.0128
 2475PP      PP12579  13.118   4.737   3.592 -0.0129 -0.1060  0.1407
 2476PP      PP12580   3.975  14.512   1.181  0.3599  0.3106 -0.1167
 2477PP      PP12581  14.648   7.052   9.410 -0.1558 -0.0606 -0.2770
 2478PP      PP12582  11.962   0.024   3.855  0.2382  0.2471 -0.1139
 2479PP      PP12583   0.444   1.662  10.092  0.0824  0.1604  0.2016
 2480PP      PP12584   1.168   7.742   0.340 -0.0737 -0.0891  0.0101
 2481PP      PP12585   3.653   3.526   0.664  0.1897 -0.0244 -0.1046
 2482PP      PP12586   9.649   9.559  12.171 -0.1565  0.0447  0.1173
 2483PP      PP12587  12.825  14.340   2.569  0.3396  0.0465  0.1797
 2484PP      PP12588  14.821   5.791   9.887 -0.3082 -0.1556 -0.0489
 2485PP      PP12589  13.691  11.118  11.691  0.0344  0.1092 -0.1273
 2486PP      PP12590   0.693  10.189   2.418  0.0492 -0.1582 -0.2147
 2487PP      PP12591   8.709  11.270  10.251  0.0748 -0.0048 -0.0200
 2488PP      PP12592   6.104  10.867   3.221 -0.0812 -0.0308  0.0847
 2489PP      PP12593   5.060   6.878  10.494 -0.4463  0.1974 -0.0540
 2490PP      PP12594  13.261   8.112  10.428  0.0968  0.0646 -0.0882
 2491PP      PP12595   7.047   4.801   4.375  0.1548  0.0636  0.0805
 2492PP      PP12596  15.014  10.967   1.251 -0.2075  0.3711  0.2328
 2493PP      PP12597   5.122   1.647   9.614 -0.0812  0.0331  0.2662
 2494PP      PP12598  13.871   6.112  11.823  0.3054 -0.2475  0.1939
 2495PP      PP12599  11.350  11.187  11.674  0.1465 -0.0106 -0.1665
 2496PP      PP12600  15.452  14.725  12.470 -0.0760 -0.4525  0.0268
 2497PP      PP12601   8.918   1.713   0.710 -0.0708 -0.1090 -0.0711
 2498PP      PP12602  12.675  10.068   0.585 -0.0514 -0.0760 -0.0852
 2499PP      PP12603  12.576   1.066   3.289 -0.1345  0.0710  0.0073
 2500PP      PP12604   8.255  13.873  13.243 -0.0566 -0.1756  0.0881
 2501PP      PP12605  15.104   2.500  12.931  0.3718 -0.1981 -0.1768
 2502PP      PP12606   9.269   2.297   2.496  0.2821 -0.0198 -0.0483
 2503PP      PP12607   9.093   2.297  13.299  0.0587  0.2496  0.0492
 2504PP      PP12608  12.159  11.709   9.431  0.0839 -0.3655  0.0283
 2505PP      PP12609  15.646   6.849  12.823  0.2626 -0.2185 -0.3342
 2506PP      PP12610   9.257   9.105   1.761  0.0481  0.2882  0.3563
 2507PP      PP12611   2.932   4.496  13.267  0.4375  0.3051  0.0048
 2508PP      PP12612  14.853   0.951   9.937 -0.0296 -0.2939  0.0237
 2509PP      PP12613   0.355  10.218   0.110  0.3606 -0.1495  0.2447
 2510PP      PP12614  10.956  15.538  13.343  0.1441 -0.1265 -0.0690
 2511PP      PP12615  12.019   0.644   2.310 -0.0648  0.0574  0.2414
 2512PP      PP12616   3.222   1.006   1.670 -0.0005 -0.1661  0.0741
 2513PP      PP12617  14.098   3.373   1.370  0.0820 -0.0250 -0.2559
 2514PP      PP12618  12.464  15.856  11.802 -0.0932  0.2112  0.0939
 2515PP      PP12619  10.719   0.460   1.981 -0.2305  0.0420  0.4413
 2516PP      PP12620  10.216   9.165  12.709  0.0306 -0.1142  0.0694
 2517PP      PP12621  15.072   2.983   8.897  0.1502 -0.3425  0.1784
 2518PP      PP12622  11.441   4.090  11.140 -0.0905  0.1580 -0.0984
 2519PP      PP12623   7.055   6.112   9.789 -0.1578 -0.0734 -0.0841
 2520PP      PP12624   7.667   0.020  12.538 -0.0362 -0.0207  0.1425
 2521PP      PP12625   3.661   3.892  12.856 -0.1720  0.3589 -0.1056
 2522PP      PP12626  15.706   5.296   3.365 -0.1559 -0.1830 -0.6187
 2523PP      PP12627  13.565   8.110   0.123 -0.0336  0.0889  0.1344
 2524PP      PP12628   9.250   7.422   9.102 -0.0782 -0.1862 -0.1307
 2525PP      PP12629  12.587   8.644  10.101 -0.0433  0.2171 -0.3750
 2526PP      PP12630   7.976  11.766   3.656  0.1123  0.1281 -0.0803
 2527PP      PP12631  13.897   9.294   4.197  0.1860  0.0443  0.0974
 2528PP      PP12632   3.046   4.265  10.452  0.3362 -0.0604  0.2981
 2529PP      PP12633   8.923   0.923   1.511 -0.0109  0.0433  0.1187
 2530PP      PP12634   9.792   1.769   3.627  0.1895  0.0298  0.2400
 2531PP      PP12635  13.736   5.272  11.861 -0.4914 -0.1141  0.0535
 2532PP      PP12636  15.482  15.485   9.996 -0.0829  0.1307  0.1507
 2533PP      PP12637   8.323   7.196   3.725  0.1336  0.3091 -0.1671
 2534PP      PP12638  13.800  12.150   0.317  0.0217 -0.0402 -0.2934
 2535PP      PP12639   3.099   6.516   4.991  0.0167  0.0845 -0.0852
 2536PP      PP12640  14.581   4.918   4.307 -0.0928  0.0553 -0.0826
 2537PP      PP12641  15.895   3.710  13.221  0.0900  0.0704 -0.0226
 2538PP      PP12642  12.377   6.848   0.186 -0.0419  0.0266 -0.2834
 2539PP      PP12643   4.872   7.379   1.108 -0.3573 -0.2509 -0.1291
 2540PP      PP12644   2.441   0.907   3.030 -0.1050 -0.1234  0.0337
 2541PP      PP12645   2.969   7.812  13.357  0.1700 -0.2774  0.0069
 2542PP      PP12646   9.853   5.556   3.830  0.0908  0.4261  0.0897
 2543PP      PP12647   3.327  10.631   1.189  0.0393  0.0433 -0.0697
 2544PP      PP12648   5.828   5.674   2.808  0.1881 -0.0013 -0.0978
 2545PP      PP12649  11.323  12.793   3.306  0.0843 -0.0119 -0.2470
 2546PP      PP12650   7.643   0.125   2.545 -0.1638 -0.1690 -0.3650
 2547PP      PP12651  15.923   3.900   9.299  0.0662 -0.0855 -0.3530
 2548PP      PP12652   2.851  13.595   1.309  0.0114 -0.0373 -0.2515
 2549PP      PP12653   4.877  12.501  11.177 -0.1200  0.1154 -0.2677
 2550PP      PP12654   9.501   5.821  10.327  0.1702  0.3539 -0.0150
 2551PP      PP12655   9.365  11.629   9.053  0.1524  0.2869 -0.1910
 2552PP      PP12656   7.409   3.833   9.106  0.0736  0.0528 -0.1536
 2553PP      PP12657   5.080  15.652   0.826  0.2726 -0.0246 -0.1791
 2554PP      PP12658   3.144   5.364   4.002  0.1886 -0.3518 -0.5082
 2555PP      PP12659   2.150   4.835   9.605  0.0093 -0.1198 -0.0615
 2556PP      PP12660   0.616   8.338   0.809  0.0820 -0.2319 -0.2380
 2557PP      PP12661  12.911   5.269   4.461 -0.1637 -0.2470 -0.1315
 2558PP      PP12662   0.415  12.413  11.125  0.2096  0.0218  0.0917
 2559PP      PP12663   4.102   3.638  13.061  0.1441  0.1956  0.0452
 2560PP      PP12664   6.585   3.664   9.704 -0.1186  0.0177 -0.0182
 2561PP      PP12665   3.787   8.895   1.177 -0.1141 -0.0062  0.2205
 2562PP      PP12666  11.363   1.582  11.324 -0.1402 -0.0761  0.2278
 2563PP      PP12667   8.888   6.949   4.305  0.1174 -0.0678 -0.0365
 2564PP      PP12668   5.328   9.361   3.260  0.1073  0.0986 -0.0747
 2565PP      PP12669  15.143   0.377   7.832 -0.0484 -0.2381 -0.2234
 2566PP      PP12670   1.433  14.851   1.491  0.0040 -0.3934 -0.2974
 2567PP      PP12671  15.517   9.294   8.840 -0.0095 -0.1820 -0.0928
 2568PP      PP12672   8.315   6.978  12.119 -0.3467 -0.1283 -0.1456
 2569PP      PP12673   7.048  12.363   4.168 -0.1702  0.0121  0.0141
 2570PP      PP12674  15.815  10.296   0.163  0.1480  0.1129 -0.2456
 2571PP      PP12675   7.324   2.530  11.088 -0.1636  0.0778 -0.0818
 2572PP      PP12676   5.627   1.738   3.130 -0.0653 -0.2558  0.2272
 2573PP      PP12677   7.758   7.175   1.272  0.0594 -0.1934 -0.0712
 2574PP      PP12678   1.710   4.112   0.172  0.0062 -0.1981 -0.1092
 2575PP      PP12679  14.176   5.276  10.803 -0.1307  0.1284  0.0235
 2576PP      PP12680  10.844  12.691  11.232 -0.1157  0.1570 -0.0187
 2577PP      PP12681   6.572   0.839  10.533  0.0071 -0.1219  0.2731
 2578PP      PP12682  11.133   1.651   1.358  0.0250 -0.3049 -0.2771
 2579PP      PP12683  15.309  15.414   3.319  0.1642  0.0254 -0.0968
 2580PP      PP12684  14.796   8.674  10.955 -0.2072  0.0748  0.5479
 2581PP      PP12685  12.830  12.119   8.685  0.0998 -0.2971  0.3271
 2582PP      PP12686   3.232  11.257  12.439  0.0224  0.0324  0.0489
 2583PP      PP12687   1.666   3.769  10.104 -0.3522  0.2495  0.2916
 2584PP      PP12688  12.846  10.316   0.119  0.1339 -0.0917  0.0108
 2585PP      PP12689   5.750  10.307  11.104 -0.3467  0.1148  0.1085
 2586PP      PP12690   5.770   0.860  12.720 -0.2018  0.2409 -0.0349
 2587PP      PP12691   1.480   8.673   3.612 -0.0619  0.1028  0.2939
 2588PP      PP12692  11.418   3.822   9.265 -0.0473  0.1401 -0.1737
 2589PP      PP12693  14.227   1.352   1.280 -0.1934 -0.0382  0.2331
 2590PP      PP12694   9.926   8.644  10.382 -0.1185  0.0676 -0.0578
 2591PP      PP12695   5.345  13.159  12.707 -0.2558 -0.0251  0.0616
 2592PP      PP12696   7.455  11.269  11.496  0.1833 -0.3086  0.0118
 2593PP      PP12697   0.692   9.598   8.682  0.0916 -0.2710  0.1849
 2594PP      PP12698   1.563   6.085   3.103  0.0038  0.0091 -0.1831
 2595PP      PP12699   1.181   8.262   4.479 -0.0867 -0.1795 -0.1359
 2596PP      PP12700  11.325  10.769   0.573  0.0269 -0.0173  0.2146
 2597PP      PP12701  11.509  15.528   2.184  0.0398  0.0815 -0.2433
 2598PP      PP12702   4.532  15.860   2.729 -0.3015 -0.0929  0.0168
 2599PP      PP12703   5.818  14.345   9.290 -0.1730  0.1776  0.0742
 2600PP      PP12704   1.906   9.669  10.021  0.2894  0.1981 -0.0767
 2601PP      PP12705  11.277   3.241   2.082 -0.1676  0.0955  0.0901
 2602PP      PP12706   6.254   3.672  13.066  0.0212  0.0657 -0.2261
 2603PP      PP12707   9.302   2.556   0.306  0.0323  0.1355  0.0257
 2604PP      PP12708  13.798   0.218  10.725 -0.0533  0.2821  0.0283
 2605PP      PP12709   0.051  12.835   9.028 -0.0434  0.2718  0.2479
 2606PP      PP12710  15.344   0.661   8.228  0.0321 -0.0958  0.0222
 2607PP      PP12711   7.522   8.779   9.166 -0.4749  0.0577  0.0264
 2608PP      PP12712   0.305   7.591  13.048  0.2793 -0.0364 -0.3968
 2609PP      PP12713  14.098  10.736  12.642  0.0044  0.1567  0.0201
 2610PP      PP12714   0.414   6.723   0.118  0.0365 -0.0942 -0.1867
 2611PP      PP12715   0.800   7.089  11.971  0.3041 -0.3144  0.1357
 2612PP      PP12716   7.526   6.123  13.355  0.0595 -0.0573 -0.0117
 2613PP      PP12717  13.194   6.820   3.532  0.0222  0.0091 -0.2099
 2614PP      PP12718  10.231  10.638   9.346  0.3625  0.1143  0.0792
 2615PP      PP12719   7.517   7.627   1.003  0.0122  0.0761 -0.0337
 2616PP      PP12720   7.460   5.338   1.684  0.4563  0.0004  0.1206
 2617PP      PP12721   5.379   9.813  13.109  0.1290 -0.1033  0.1611
 2618PP      PP12722   4.889  11.670  12.776  0.0226 -0.0805  0.2772
 2619PP      PP12723   0.516   2.318   3.378 -0.0703 -0.2510  0.1868
 2620PP      PP12724   3.329   3.240   3.462 -0.1590  0.1247 -0.0768
 2621PP      PP12725   6.199  15.802   1.169  0.0604  0.1151  0.0761
 2622PP      PP12726   6.908   5.055   0.322 -0.0951  0.2874 -0.1203
 2623PP      PP12727  10.567   3.160  10.545 -0.1379  0.0271  0.1736
 2624PP      PP12728   8.257   9.216   4.702 -0.1030 -0.1548  0.0032
 2625PP      PP12729   0.995   4.864   2.913  0.3121 -0.1822  0.3944
 2626PP      PP12730  13.905   7.418   1.125  0.4971 -0.0849 -0.1566
 2627PP      PP12731  12.396   5.859   0.091  0.0750  0.1114 -0.3253
 2628PP      PP12732  11.739  10.519   9.598 -0.0683 -0.1324  0.1997
 2629PP      PP12733  12.996   3.931  12.740 -0.0987 -0.2908  0.0670
 2630PP      PP12734   3.057   6.298   3.891 -0.2155  0.1327  0.1103
 2631PP      PP12735  13.212   2.657   3.274  0.0795  0.3165 -0.0683
 2632PP      PP12736   6.005  15.698   3.888 -0.0294 -0.2578  0.0885
 2633PP      PP12737   5.098  11.771   9.191 -0.1790 -0.1174 -0.0415
 2634PP      PP12738   2.926   2.881   1.040 -0.0268 -0.2105  0.1253
 2635PP      PP12739   6.340   9.024   1.647  0.0890 -0.4756 -0.0050
 2636PP      PP12740   5.776  13.291   8.668  0.0176  0.0307 -0.2437
 2637PP      PP12741  14.647   4.302   2.145 -0.1106  0.0392 -0.1871
 2638PP      PP12742  10.274   5.965   9.924  0.1695  0.0657 -0.1434
 2639PP      PP12743   3.816   3.342   9.774 -0.0126 -0.1621 -0.2140
 2640PP      PP12744   0.544  14.580   0.796 -0.0092 -0.0023  0.2591
 2641PP      PP12745  14.309   7.296   9.208 -0.0031  0.0600  0.0032
 2642PP      PP12746   8.577   9.295  11.439 -0.3354 -0.1031  0.1150
 2643PP      PP12747   8.197  11.340  10.065 -0.0032  0.1677  0.2892
 2644PP      PP12748   8.868   6.366   3.342 -0.4337 -0.0687 -0.3057
 2645PP      PP12749  13.817   8.673  12.607 -0.2115  0.1204  0.2923
 2646PP      PP12750  15.069   5.090  12.447 -0.0844 -0.1651 -0.0512
 2647PP      PP12751   2.875   6.318   9.773 -0.0873 -0.3277 -0.0131
 2648PP      PP12752   6.619  12.833   3.974  0.1282  0.0553 -0.2236
 2649PP      PP12753  12.607  14.055   1.741  0.2599  0.0700 -0.0195
 2650PP      PP12754  10.485   1.570   4.168 -0.0755  0.1537  0.1796
 2651PP      PP12755   8.824   2.055  12.500  0.1272  0.1000  0.0622
 2652PP      PP12756   0.437  10.779   1.559  0.2137  0.2006  0.1073
 2653PP      PP12757  12.868   0.743  11.343  0.1992 -0.1339  0.1382
 2654PP      PP12758   4.332   8.384  12.193 -0.0675  0.1389 -0.1352
 2655PP      PP12759   9.281  14.666   9.218  0.0458 -0.1089  0.1360
 2656PP      PP12760   7.641  11.182  12.057  0.1015  0.0915  0.2186
 2657PP      PP12761   2.933   6.391   9.260 -0.2474 -0.2815 -0.1257
 2658PP      PP12762   4.426   7.973  11.990  0.0289  0.0906 -0.0175
 2659PP      PP12763   5.700  13.405   2.632  0.0596 -0.0025 -0.0956
 2660PP      PP12764   6.314   4.672   1.996 -0.1051 -0.1456  0.1936
 2661PP      PP12765  13.842   3.288   9.855  0.0235 -0.0622  0.0344
 2662PP      PP12766  15.313  12.211   0.288 -0.0427 -0.1807  0.2514
 2663PP      PP12767  15.720   0.561  13.374  0.0385  0.1471 -0.3377
 2664PP      PP12768  15.316   0.187   3.552 -0.2466 -0.1306  0.0339
 2665PP      PP12769   2.764  11.209  10.858  0.0103  0.2114 -0.2115
 2666PP      PP12770   9.831   0.220  13.337 -0.1437  0.2466  0.0554
 2667PP      PP12771  13.354   5.356   4.227  0.0693 -0.2393 -0.2631
 2668PP      PP12772   6.627  15.866  11.364 -0.0792  0.1957 -0.0915
 2669PP      PP12773  12.078   9.323   2.666 -0.1701 -0.2685  0.0263
 2670PP      PP12774   0.956  10.863  10.631 -0.2821  0.1207 -0.0661
 2671PP      PP12775   8.186   6.167   8.990 -0.0045  0.0426 -0.2486
 2672PP      PP12776   9.688   9.308   1.777  0.0875 -0.0577 -0.2452
 2673PP      PP12777   8.565   4.915   9.214 -0.2543  0.2462  0.1598
 2674PP      PP12778   3.605   3.436   2.099 -0.0254  0.2124  0.1431
 2675PP      PP12779   9.007   5.950   4.345  0.3197 -0.0962 -0.3066
 2676PP      PP12780   8.060   6.108  10.723 -0.0277  0.3732 -0.1569
 2677PP      PP12781   6.362   6.869   2.530  0.0365  0.1723  0.0869
 2678PP      PP12782   3.132  13.444  12.403  0.2014  0.1442  0.0978
 2679PP      PP12783   6.776  11.567  11.931  0.1736  0.0750  0.0685
 2680PP      PP12784  13.493  14.999   1.496 -0.1931  0.0349  0.1368
 2681PP      PP12785   8.984   2.912   1.223  0.0486  0.1109 -0.1833
 2682PP      PP12786   3.601   9.354  11.445 -0.1402  0.1607  0.2009
 2683PP      PP12787   9.986   6.494   1.245 -0.1212  0.0634  0.1794
 2684PP      PP12788   2.980   4.717   0.337  0.0052  0.0991 -0.2443
 2685PP      PP12789   1.220   3.010   1.683  0.2153 -0.0760 -0.0198
 2686PP      PP12790   0.056   9.570   9.853  0.1102  0.1332  0.1431
 2687PP      PP12791  11.937   9.349   1.745  0.0853  0.3933  0.1118
 2688PP      PP12792  13.698   8.230   8.644 -0.0654 -0.1283  0.3216
 2689PP      PP12793   8.907   5.928  11.656  0.0058  0.1053  0.1577
 2690PP      PP12794  14.145   7.726  10.588  0.1295 -0.0784 -0.2657
 2691PP      PP12795  12.957   0.407  12.313  0.0952  0.0199 -0.0710
 2692PP      PP12796   3.943   4.564   1.252 -0.2167 -0.0753 -0.2375
 2693PP      PP12797   6.193   9.349   4.332  0.0253 -0.1957  0.0014
 2694PP      PP12798   9.840  14.171   4.930  0.0408 -0.1243  0.0625
 2695PP      PP12799  12.167  15.551   3.722 -0.2867 -0.0344  0.3335
 2696PP      PP12800   0.645   2.309   9.443  0.3480  0.0948  0.1603
 2697PP      PP12801   6.149   5.799  10.950 -0.3942 -0.3075 -0.1082
 2698PP      PP12802   9.677  10.507   0.586 -0.2956  0.2403  0.0419
 2699PP      PP12803  10.046  11.344   0.081  0.3207  0.1343  0.2470
 2700PP      PP12804  10.169  15.682   4.138 -0.1001 -0.0398  0.0966
 2701PP      PP12805   9.491  14.124   2.376  0.0347  0.1747  0.2745
 2702PP      PP12806   1.142  12.636   3.443 -0.1138  0.2918 -0.0860
 2703PP      PP12807  14.133   3.922   9.485 -0.0367  0.2543  0.0420
 2704PP      PP12808   6.557   5.564   9.675 -0.1117 -0.0987 -0.2884
 2705PP      PP12809   0.591   8.587   9.232  0.0860 -0.0169 -0.0428
 2706PP      PP12810  12.339   0.396   0.280  0.2437  0.1599 -0.1766
 2707PP      PP12811   0.176   8.715  13.357  0.0612 -0.0014  0.2017
 2708PP      PP12812   9.719  14.005  11.982 -0.0777 -0.1012  0.2004
 2709PP      PP12813  13.143   7.686   9.583 -0.0349  0.1261 -0.1274
 2710PP      PP12814   8.325   4.184   0.076 -0.2926 -0.1132 -0.3410
 2711PP      PP12815   8.457   2.138   1.307  0.1518  0.1476  0.0275
 2712PP      PP12816   1.766   4.761   3.297  0.0964 -0.0885 -0.1118
 2713PP      PP12817   8.333   8.000   0.905  0.1249 -0.1202 -0.1512
 2714PP      PP12818   8.172   5.849   3.207 -0.2949  0.0090  0.1709
 2715PP      PP12819  12.484   0.605   2.065  0.0227 -0.1353  0.1138
 2716PP      PP12820   8.814  15.031   3.427  0.1061 -0.1779 -0.1603
 2717PP      PP12821  15.777  14.958   3.599  0.1260 -0.3729 -0.2667
 2718PP      PP12822   3.916  15.727  10.380 -0.0322 -0.1866  0.0722
 2719PP      PP12823  14.007   0.458   9.094 -0.1548  0.1065  0.0818
 2720PP      PP12824   9.567   3.729  11.279 -0.1993  0.1433  0.1910
 2721PP      PP12825   7.930  12.560   8.600 -0.2314  0.2113  0.0341
 2722PP      PP12826  13.546   8.272   1.739 -0.0914 -0.1482  0.1863
 2723PP      PP12827   3.861   2.826  12.508  0.0045 -0.1816 -0.2709
 2724PP      PP12828  13.037  13.949   3.983  0.1469  0.0530 -0.1865
 2725PP      PP12829  13.484   3.471   8.950 -0.0460  0.1520 -0.1311
 2726PP      PP12830  11.317   9.781   0.235 -0.0133  0.1658 -0.0645
 2727PP      PP12831  12.060   5.666   3.580  0.2962  0.0917 -0.0361
 2728PP      PP12832   5.932   5.798   3.299 -0.1966  0.0225  0.2137
 2729PP      PP12833   1.965  14.008   2.214  0.0328  0.0797 -0.1979
 2730PP      PP12834   3.205   7.916   0.426 -0.0436 -0.1292  0.0535
 2731PP      PP12835  15.234  10.275   9.627  0.2863  0.1205 -0.2538
 2732PP      PP12836  10.412   7.483   4.356  0.2314 -0.0768 -0.2683
 2733PP      PP12837  12.526   3.136   9.148  0.1059 -0.1161 -0.0034
 2734PP      PP12838   4.712  15.919   8.519  0.0542  0.0911 -0.0908
 2735PP      PP12839  11.214   0.002  10.407  0.1811  0.1855 -0.1585
 2736PP      PP12840   3.808  15.215  10.198 -0.1307  0.1784  0.3529
 2737PP      PP12841  12.115   4.659  10.989 -0.0837 -0.0867  0.0625
 2738PP      PP12842   4.250   6.923  10.517  0.1082 -0.2252  0.3664
 2739PP      PP12843   3.976   8.051   0.965  0.2638 -0.0876 -0.2954
 2740PP      PP12844   7.453  13.393  11.581 -0.1510  0.1871 -0.0945
 2741PP      PP12845   9.672  14.815   9.892 -0.0344 -0.1852  0.1708
 2742PP      PP12846  11.431   5.089   9.559 -0.0116  0.4136 -0.0010
 2743PP      PP12847  11.640  15.844   9.272 -0.1510 -0.0641 -0.1861
 2744PP      PP12848  12.166  14.004   4.025 -0.0867  0.0859  0.1679
 2745PP      PP12849  14.035   9.121   1.597 -0.1381 -0.0050 -0.0119
 2746PP      PP12850  14.042   3.907  10.039  0.0790 -0.2311  0.0549
 2747PP      PP12851   3.148   7.570   3.938  0.3313  0.0603 -0.1182
 2748PP      PP12852   7.225   2.026   4.007  0.1715  0.0770  0.1959
 2749PP      PP12853   9.048   4.043   3.262  0.0341  0.2539 -0.0599
 2750PP      PP12854   3.915   7.766  10.168  0.1531  0.1800 -0.1854
 2751PP      PP12855  11.840  14.266   4.687  0.1311  0.2097 -0.2794
 2752PP      PP12856   6.536   0.190   9.288 -0.1085  0.0809  0.1753
 2753PP      PP12857   3.377  14.100  12.318  0.3395 -0.2156  0.1037
 2754PP      PP12858  11.912  15.397  12.365  0.5153  0.0138 -0.1263
 2755PP      PP12859  14.805  11.076   1.831 -0.0108 -0.2235 -0.2904
 2756PP      PP12860   1.600   1.941   2.013 -0.0989  0.1492  0.1225
 2757PP      PP12861   5.919  15.111   2.121  0.2477 -0.2811 -0.5993
 2758PP      PP12862   7.927   0.354  13.300  0.0722 -0.0201  0.0486
 2759PP      PP12863   2.831   6.513  11.681 -0.0615  0.0453 -0.0507
 2760PP      PP12864   3.751   8.303  10.893  0.1611 -0.0423 -0.0382
 2761PP      PP12865  10.352  12.822   3.145  0.2934 -0.0244 -0.1043
 2762PP      PP12866   5.554   3.096   1.491  0.2067 -0.1819 -0.0071
 2763PP      PP12867   1.720  14.895   3.792  0.1173  0.0030 -0.1755
 2764PP      PP12868   5.637  10.800  10.144 -0.2574  0.1932 -0.0720
 2765PP      PP12869  15.578  10.633  12.627  0.0089  0.1820  0.0093
 2766PP      PP12870  14.115  12.601   3.881  0.3290 -0.0057  0.2012
 2767PP      PP12871  13.743  13.510  11.085 -0.1038 -0.2640 -0.0188
 2768PP      PP12872  10.209   9.894  13.271  0.0151 -0.0790  0.2220
 2769PP      PP12873  15.231   7.664   9.373  0.0610 -0.0430  0.1564
 2770PP      PP12874   5.824   0.880   9.636  0.2291 -0.1710  0.0231
 2771PP      PP12875   5.093   7.048  12.682  0.3035  0.4081  0.0718
 2772PP      PP12876   8.044   5.139   9.205  0.0723  0.0520 -0.0527
 2773PP      PP12877   5.989  10.541  11.995  0.0334  0.0123  0.1174
 2774PP      PP12878   7.577   8.391   0.481  0.2312  0.0832 -0.0204
 2775PP      PP12879   2.361   0.125   3.585  0.1724 -0.0907  0.1120
 2776PP      PP12880  15.292   7.646   4.136  0.0825 -0.0226  0.1184
 2777PP      PP12881   3.268  11.227   1.776 -0.2275 -0.0897  0.1273
 2778PP      PP12882   1.338   4.559   9.038 -0.0969 -0.0382  0.1184
 2779PP      PP12883  13.870  15.632   3.711  0.1765 -0.2004 -0.0953
 2780PP      PP12884   9.909  11.092   9.359 -0.1881 -0.0088  0.1942
 2781PP      PP12885  10.743   6.187  10.022  0.0708 -0.2142  0.3545
 2782PP      PP12886  13.021  10.362   2.073  0.2655 -0.0536 -0.2484
 2783PP      PP12887   5.132  13.345  10.345  0.0189 -0.0859 -0.0352
 2784PP      PP12888   1.246  10.337  10.732 -0.0831  0.0024  0.3298
 2785PP      PP12889  10.427   3.303   3.602 -0.0564  0.4435 -0.1682
 2786PP      PP12890   6.754  12.604   4.458 -0.0785 -0.0267 -0.1949
 2787PP      PP12891   8.109   7.444  10.078 -0.0701 -0.2030  0.2548
 2788PP      PP12892  11.428   9.117   0.440  0.0661 -0.1840  0.2153
 2789PP      PP12893  15.551  14.256   9.882  0.0862  0.1328 -0.0989
 2790PP      PP12894   4.243  10.818  10.109  0.0162 -0.1209  0.2622
 2791PP      PP12895   9.779  13.225   4.758  0.0537  0.0031  0.2256
 2792PP      PP12896   8.272  14.659   4.367 -0.0984  0.2275 -0.3125
 2793PP      PP12897   9.561   3.608   0.175  0.1158  0.2687  0.0010
 2794PP      PP12898  15.530   7.297   9.666  0.4143  0.2887 -0.1971
 2795PP      PP12899   2.564   8.478   2.929  0.2203 -0.1272 -0.0626
 2796PP      PP12900   7.250   9.530  12.150  0.0499  0.0579 -0.0373
 2797PP      PP12901   1.114   2.137  11.193  0.0535 -0.1414 -0.2573
 2798PP      PP12902   2.329   8.620   0.109  0.0425  0.0102  0.1293
 2799PP      PP12903   8.895   5.305  12.124  0.0317  0.3246 -0.0757
 2800PP      PP12904   3.909  13.182   1.571  0.1717 -0.2839 -0.1556
 2801PP      PP12905   3.225   9.852  12.872  0.1046 -0.2707 -0.1012
 2802PP      PP12906   1.945  13.116  12.649 -0.1110  0.0784  0.0604
 2803PP      PP12907   4.152   5.491   0.169 -0.1826 -0.0684 -0.0310
 2804PP      PP12908   1.776   7.551  11.969 -0.0063 -0.2298 -0.1226
 2805PP      PP12909   4.169  10.606   1.582 -0.1185  0.3713  0.0698
 2806PP      PP12910   6.674   9.730   9.235  0.0122 -0.2273 -0.1626
 2807PP      PP12911  15.397  14.748  10.937 -0.0033  0.1522 -0.1429
 2808PP      PP12912   3.603   7.985  10.508  0.0340  0.0777 -0.2158
 2809PP      PP12913   1.849  10.297   3.121 -0.1371 -0.0502 -0.0301
 2810PP      PP12914   5.533  10.682  12.628 -0.0319  0.2241  0.1282
 2811PP      PP12915  14.616  12.544   0.035  0.1051 -0.0758 -0.3818
 2812PP      PP12916   9.379   5.491   2.801  0.1502  0.2462  0.0263
 2813PP      PP12917   4.157  12.139   0.741  0.4388  0.0372  0.1050
 2814PP      PP12918   3.368   6.396   4.253 -0.1929  0.1745 -0.2399
 2815PP      PP12919   9.718   2.393  12.497 -0.0143  0.3316  0.2538
 2816PP      PP12920   1.633  11.642  13.381  0.3277 -0.4668 -0.0168
 2817PP      PP12921   0.224   0.606  13.055 -0.1064  0.4157 -0.1584
 2818PP      PP12922   4.786   4.533   1.889  0.0320  0.1140  0.1709
 2819PP      PP12923  12.201   2.042   3.106 -0.4364  0.0579  0.1636
 2820PP      PP12924  13.679  14.965  11.473 -0.0390 -0.4221 -0.1329
 2821PP      PP12925   4.207   2.306   3.882 -0.1933 -0.0242  0.1037
 2822PP      PP12926   0.352   0.632  11.878  0.0850  0.0039  0.1503
 2823PP      PP12927   5.549   6.602   3.322  0.2060  0.0221 -0.0860
 2824PP      PP12928   8.982   4.439  13.190 -0.1324  0.0832  0.1672
 2825PP      PP12929   8.274   8.382   4.720 -0.2155 -0.0115  0.0482
 2826PP      PP12930   5.241  12.412   3.079 -0.0651  0.0163 -0.0275
 2827PP      PP12931   0.228  13.336   2.328 -0.0664  0.0884  0.0045
 2828PP      PP12932   4.039   2.482   8.051 -0.2401 -0.0686 -0.0962
 2829PP      PP12933  12.197   9.533  13.133 -0.0822 -0.1074  0.1486
 2830PP      PP12934   0.768   4.782   8.446  0.0765  0.0869  0.1610
 2831PP      PP12935   9.972   1.958   0.363 -0.0278 -0.1163 -0.0711
 2832PP      PP12936  10.262   2.663   2.240 -0.0064 -0.1503  0.0352
 2833PP      PP12937   1.437   7.592  10.975 -0.0945  0.2025 -0.5283
 2834PP      PP12938   9.257   9.630   4.896 -0.2131 -0.1215 -0.0017
 2835PP      PP12939   8.254  12.671   0.636  0.2006 -0.2811  0.0937
 2836PP      PP12940   3.721   7.073  12.523 -0.1728  0.1025  0.2999
 2837PP      PP12941   4.592   4.959  10.421  0.0146 -0.0853 -0.0677
 2838PP      PP12942   2.898  12.044   2.062  0.1763  0.1499  0.2795
 2839PP      PP12943  13.268  13.767  10.970  0.0356  0.1200 -0.0440
 2840PP      PP12944   8.344   3.516   2.708  0.1855 -0.1092 -0.2577
 2841PP      PP12945  14.512   3.905   9.870 -0.2503  0.0767  0.1066
 2842PP      PP12946  15.800   1.559   1.255 -0.0973  0.0881  0.0004
 2843PP      PP12947   9.835   1.278   1.780 -0.0629  0.0243  0.1630
 2844PP      PP12948   6.114   7.651  13.300 -0.1084  0.1224  0.1419
 2845PP      PP12949  12.808   0.900  12.316 -0.2470 -0.1718  0.1085
 2846PP      PP12950   0.938   8.564   2.666  0.1586  0.2998  0.0611
 2847PP      PP12951   0.174  12.039   8.572 -0.1255 -0.1672 -0.0749
 2848PP      PP12952   6.685   2.167   8.933 -0.3573  0.1754  0.1369
 2849PP      PP12953  12.685   6.372  12.672  0.1860 -0.0851  0.3142
 2850PP      PP12954   4.363  13.810   0.538 -0.1613 -0.2019 -0.3183
 2851PP      PP12955   0.229   2.589  12.616  0.0625 -0.0554  0.0028
 2852PP      PP12956   8.687  13.729  13.386 -0.0450 -0.0838 -0.0210
 2853PP      PP12957   8.857   4.753   1.076  0.3415  0.1541  0.3038
 2854PP      PP12958  14.109   6.070   4.569  0.0688  0.3037 -0.1639
 2855PP      PP12959   7.631   3.471  10.561  0.0148 -0.1225  0.1766
 2856PP      PP12960   3.873   5.621   1.590 -0.0068  0.0077 -0.1324
 2857PP      PP12961   6.228   8.776   8.786 -0.1951 -0.1030 -0.0872
 2858PP      PP12962  10.393   3.291   8.808  0.0638  0.0675 -0.1464
 2859PP      PP12963   4.518   2.430  11.548  0.0412  0.0408  0.0462
 2860PP      PP12964  13.742   4.392  11.220  0.3167  0.1394  0.0186
 2861PP      PP12965   2.052   2.840  12.165 -0.2652 -0.0124  0.1030
 2862PP      PP12966  10.545  13.886  11.415  0.3504  0.1017 -0.2405
 2863PP      PP12967  14.899   7.521  10.444  0.3916  0.1711  0.0498
 2864PP      PP12968  12.456  10.545  12.382 -0.4221 -0.0659 -0.2869
 2865PP      PP12969   2.717   0.607   2.510  0.0340 -0.0280  0.0818
 2866PP      PP12970   7.798  15.908   3.041  0.2384 -0.0986 -0.3011
 2867PP      PP12971   1.625  14.540  13.147  0.2344 -0.1061  0.0363
 2868PP      PP12972  10.887  10.925  11.064 -0.3275 -0.2725 -0.0735
 2869PP      PP12973  10.683  13.448   1.730 -0.0658 -0.0997 -0.0210
 2870PP      PP12974   8.618  12.145  10.733  0.0325 -0.1060 -0.0670
 2871PP      PP12975   5.264   2.396  13.226 -0.1529  0.1444  0.0736
 2872PP      PP12976   3.078   3.912   8.875  0.1358  0.1423 -0.0666
 2873PP      PP12977  11.007   0.849   4.209 -0.1290 -0.0361  0.0880
 2874PP      PP12978   0.739   7.410   2.137 -0.0825 -0.0585  0.4654
 2875PP      PP12979   0.795   4.005  10.467  0.1820  0.0295 -0.0700
 2876PP      PP12980   9.221  10.713  11.716  0.3140 -0.3044 -0.1841
 2877PP      PP12981  12.435  12.613   0.033 -0.1475 -0.1582  0.2730
 2878PP      PP12982   6.386  15.747  12.900 -0.0799  0.3936 -0.1298
 2879PP      PP12983   8.465  13.363  13.125 -0.2160 -0.2630 -0.0344
 2880PP      PP12984   4.875   4.599   4.175  0.0355 -0.0674 -0.0139
 2881PP      PP12985   9.465  12.143   9.190 -0.2275  0.1585 -0.2656
 2882PP      PP12986   0.139  13.103   1.186 -0.0320  0.1331  0.0300
 2883PP      PP12987   2.516  14.967  12.438 -0.4062  0.0210 -0.2285
 2884PP      PP12988   8.823  10.526  13.082 -0.2966 -0.0386 -0.0027
 2885PP      PP12989   1.308   3.945  10.488  0.1308 -0.1504  0.0104
 2886PP      PP12990   5.310   5.639  12.942 -0.2592  0.0632  0.1718
 2887PP      PP12991   5.432  13.362   7.355  0.1284  0.3576  0.0991
 2888PP      PP12992   2.434  10.195   3.123  0.0480 -0.0139 -0.1629
 2889PP      PP12993   1.970   4.575   0.116 -0.2284  0.2437  0.0022
 2890PP      PP12994   1.045  14.433   3.526  0.4541 -0.0047  0.0688
 2891PP      PP12995   5.058   8.431   4.784  0.1171 -0.1294  0.1307
 2892PP      PP12996  15.723   3.977   0.877 -0.1930  0.2971 -0.0386
 2893PP      PP12997   2.088  12.278   8.666 -0.0284 -0.0530 -0.0114
 2894PP      PP12998   2.702  15.834  11.908  0.1591  0.0852 -0.0052
 2895PP      PP12999  15.628   3.926  12.752 -0.0695  0.1039  0.0008
 2896PP      PP13000  13.496   3.359  12.119  0.2166 -0.2623 -0.2775
 2897PP      PP13001  15.569   3.850   9.624 -0.0234 -0.1126 -0.0199
 2898PP      PP13002  12.359  13.211  13.259  0.0741  0.0550  0.0476
 2899PP      PP13003   0.524   2.220  12.947 -0.0779 -0.2560  0.2758
 2900PP      PP13004  12.924   0.189  10.440  0.0031  0.2373  0.0186
 2901PP      PP13005   8.434  11.709  13.190  0.1109 -0.2549  0.0094
 2902PP      PP13006  15.048   0.544   2.248  0.0540  0.1918 -0.2959
 2903PP      PP13007  13.963  13.992   0.349 -0.0027  0.1172  0.1092
 2904PP      PP13008   7.096  15.850   4.354 -0.1179  0.0250  0.1072
 2905PP      PP13009   8.777   8.719   0.435  0.1666  0.0838  0.1856
 2906PP      PP13010  11.240   6.652  11.928  0.0201 -0.0117  0.1507
 2907PP      PP13011   6.698   8.815  13.380  0.0247  0.3885  0.0492
 2908PP      PP13012   4.400   6.286   0.859  0.0612 -0.0736 -0.0433
 2909PP      PP13013   8.227   6.919  10.372 -0.1616  0.0263 -0.1138
 2910PP      PP13014   5.260   3.192  10.599 -0.1845  0.0885 -0.3593
 2911PP      PP13015  10.192   6.639  12.062  0.1274  0.0801 -0.0609
 2912PP      PP13016   2.695   6.324   2.381  0.0864  0.1550 -0.1318
 2913PP      PP13017  13.196   8.451  11.321 -0.1995 -0.1777 -0.0090
 2914PP      PP13018  13.777   7.926  10.267 -0.1149  0.0782  0.3061
 2915PP      PP13019  15.727  10.183   1.753  0.1849 -0.0114  0.1360
 2916PP      PP13020  14.607  12.370  11.790 -0.1358 -0.3111  0.1707
 2917PP      PP13021   6.626   3.350  11.808  0.0602  0.0086  0.0052
 2918PP      PP13022   5.787  14.690   4.103  0.0110  0.2370 -0.2549
 2919PP      PP13023   4.635   6.112   0.470  0.1810 -0.0021  0.1664
 2920PP      PP13024   4.894   9.685   9.582  0.2087  0.0880 -0.2044
 2921PP      PP13025  12.369   1.500   3.062 -0.0136  0.1808 -0.2780
 2922PP      PP13026   7.741   9.606  10.839 -0.1282  0.0406 -0.2741
 2923PP      PP13027  15.041  13.617   9.297  0.0911 -0.1713 -0.3711
 2924PP      PP13028   7.660  12.671  11.749 -0.1064 -0.2708 -0.0010
 2925PP      PP13029  11.293   7.661   0.051 -0.2005  0.1705  0.0323
 2926PP      PP13030  11.953   6.203   3.661 -0.0680  0.2285 -0.1307
 2927PP      PP13031  11.548   9.344  11.493  0.0647 -0.2384  0.1971
 2928PP      PP13032  12.391   2.191  12.421 -0.0433  0.0692  0.3194
 2929PP      PP13033  10.565   2.397   9.938  0.1299 -0.2335  0.2909
 2930PP      PP13034   2.878  12.291  11.007  0.1320 -0.1568 -0.2092
 2931PP      PP13035   7.646   2.685  13.148 -0.1880  0.1008 -0.1747
 2932PP      PP13036   2.092  13.002   8.458  0.0880  0.3646  0.1310
 2933PP      PP13037   9.028  15.066   2.053  0.5634  0.1840  0.1626
 2934PP      PP13038   4.412  11.208  11.578 -0.1202  0.0251 -0.1186
 2935PP      PP13039   1.773   9.583   0.273 -0.0064  0.0450  0.0180
 2936PP      PP13040   2.822   8.909   0.943  0.0506  0.0463  0.0435
 2937PP      PP13041   6.387   5.901   1.437  0.0444 -0.0793 -0.1551
 2938PP      PP13042  12.113   9.147   4.852 -0.0592  0.1174 -0.1792
 2939PP      PP13043   7.447  15.616   1.389  0.0588  0.1000 -0.1803
 2940PP      PP13044   1.389  14.752  11.375  0.1328 -0.0826 -0.0125
 2941PP      PP13045   4.805  11.165  12.619  0.2417  0.0840  0.0729
 2942PP      PP13046   3.917   1.043  11.507  0.0890 -0.1537 -0.1113
 2943PP      PP13047  11.522  12.258  12.829 -0.2060 -0.0599  0.0977
 2944PP      PP13048  14.679   6.550  12.373 -0.3302  0.0597  0.0504
 2945PP      PP13049  11.030   2.945  11.584  0.1340 -0.1237  0.2777
 2946PP      PP13050   4.305   5.484  11.736 -0.0116  0.4759  0.1690
 2947PP      PP13051   1.242  15.276   1.157 -0.1090 -0.1582 -0.1201
 2948PP      PP13052   1.064   0.418  12.499  0.0588 -0.0611  0.0561
 2949PP      PP13053   6.917   7.568   0.151  0.0675  0.0194 -0.2515
 2950PP      PP13054   2.579  10.392   9.642 -0.0975  0.0426  0.0506
 2951PP      PP13055  11.854  11.401  11.569 -0.0719 -0.2197 -0.2416
 2952PP      PP13056   4.917  12.144   8.768  0.0244 -0.4864  0.1661
 2953PP      PP13057   1.135  12.820   9.561  0.1976  0.0056  0.0487
 2954PP      PP13058   9.117   5.260   0.479  0.2269 -0.0422  0.1388
 2955PP      PP13059   4.337  14.967  10.698  0.1840 -0.0153 -0.1334
 2956PP      PP13060   8.147  12.969   1.452  0.2285 -0.0765  0.0943
 2957PP      PP13061   6.696   6.584  10.006 -0.0359  0.0952 -0.0532
 2958PP      PP13062  15.431  11.145  12.763 -0.2568 -0.0289 -0.0871
 2959PP      PP13063   0.399  12.496   0.607 -0.0795  0.0490 -0.2827
 2960PP      PP13064  10.579   3.769   2.787  0.1429 -0.1485 -0.3248
 2961PP      PP13065   0.063   3.520   0.692 -0.0185 -0.2172  0.0390
 2962PP      PP13066   3.915   1.366  12.425 -0.0856 -0.2553  0.0508
 2963PP      PP13067  15.744   5.460   0.248  0.1556 -0.0004 -0.0429
 2964PP      PP13068  13.773  14.602   3.641 -0.0229 -0.2153  0.1008
 2965PP      PP13069   1.834   9.679   9.552  0.0744 -0.1965 -0.0348
 2966PP      PP13070   0.562  14.399   9.412 -0.0033 -0.1099 -0.0062
 2967PP      PP13071  14.023   9.044   0.318  0.0049 -0.0864 -0.2390
 2968PP      PP13072   9.613  15.827   0.193  0.1951  0.2370 -0.4201
 2969PP      PP13073   6.804  12.882  10.215  0.0970 -0.3642 -0.0951
 2970PP      PP13074  14.686   1.013   2.155  0.1018 -0.3225 -0.2377
 2971PP      PP13075   1.782   0.313   2.728 -0.0974  0.0612 -0.1302
 2972PP      PP13076  11.102   3.625   1.618  0.1077  0.0092  0.1492
 2973PP      PP13077  13.999  14.496   2.156 -0.2212  0.0709  0.1552
 2974PP      PP13078   3.760  14.588  12.155 -0.2175  0.0513  0.0860
 2975PP      PP13079   6.885  14.870   3.237  0.1742  0.0946 -0.2337
 2976PP      PP13080   4.202  13.174  11.279 -0.3254 -0.1339 -0.0263
 2977PP      PP13081  14.265  14.750   0.416  0.0600  0.0134  0.0450
 2978PP      PP13082   6.901  11.105  12.697 -0.0660  0.1034  0.0396
 2979PP      PP13083   1.906   4.203   1.323  0.0425  0.5752  0.1405
 2980PP      PP13084   2.647  10.456   3.538  0.3807  0.2453  0.1652
 2981PP      PP13085   5.708   4.383   3.846 -0.0946  0.3805  0.2869
 2982PP      PP13086  12.666   9.304  13.031 -0.0667  0.1594  0.2303
 2983PP      PP13087  15.181   9.088  11.364  0.1278  0.2140  0.1627
 2984PP      PP13088  10.564   4.652   3.126 -0.2395 -0.0425  0.1779
 2985PP      PP13089   7.688   7.729  10.316  0.0207 -0.0118  0.0054
 2986PP      PP13090   3.001  15.796  11.073 -0.0708 -0.1105  0.1408
 2987PP      PP13091  15.225   1.019   2.255  0.5933  0.5969 -0.0379
 2988PP      PP13092   2.095   3.617   2.492 -0.0405 -0.2195 -0.2785
 2989PP      PP13093  10.435  15.659   2.907 -0.0612 -0.0219  0.2458
 2990PP      PP13094   6.848   8.443  10.939  0.0746 -0.2409  0.1096
 2991PP      PP13095   3.881   2.040   1.808 -0.2228  0.2407 -0.1042
 2992PP      PP13096  12.571   6.901   3.302 -0.0855 -0.0511 -0.0568
 2993PP      PP13097  12.058   3.201   9.296 -0.0451  0.0743  0.1083
 2994PP      PP13098   5.380   8.026   9.921  0.3362  0.1112 -0.0639
 2995PP      PP13099   8.770   0.813   1.058 -0.0918 -0.1419 -0.0486
 2996PP      PP13100   7.551   7.988   3.466 -0.1420  0.1551 -0.0716
 2997PP      PP13101   5.006   8.431   9.834  0.1780 -0.2547 -0.0194
 2998PP      PP13102   9.266   9.652  11.289 -0.1064  0.0254  0.0747
 2999PP      PP13103   8.324   4.223   8.822 -0.0514 -0.3123  0.2355
 3000PP      PP13104   1.653   2.892  12.437 -0.0382  0.2430  0.2334
 3001PP      PP13105   6.911   7.603  10.087 -0.1549 -0.1112 -0.1307
 3002PP      PP13106   2.313   5.135   1.526 -0.1711  0.2476 -0.2030
 3003PP      PP13107   3.040   7.339   0.088  0.3203  0.0290  0.2124
 3004PP      PP13108   6.037   4.434  11.340  0.2534  0.2451  0.0393
 3005PP      PP13109   9.387  12.285   3.722  0.0268 -0.2225  0.0036
 3006PP      PP13110  10.748   6.980   1.630  0.1050  0.3031  0.1837
 3007PP      PP13111  15.139  14.017  11.780  0.1238  0.0878  0.1138
 3008PP      PP13112   0.730  10.175   8.889 -0.0714  0.0164  0.0399
 3009PP      PP13113   2.899   1.393   1.159 -0.3267  0.1326  0.1305
 3010PP      PP13114   2.238  13.699   9.514  0.0493  0.1165 -0.0699
 3011PP      PP13115   7.099  10.709   3.164  0.0915 -0.0395 -0.2001
 3012PP      PP13116   3.133   3.170   1.437  0.1061  0.0830 -0.3169
 3013PP      PP13117   2.666   2.694   0.683  0.1921  0.2078  0.2607
 3014PP      PP13118  15.129   7.580   9.857  0.1161  0.2995  0.2663
 3015PP      PP13119   9.311  14.550  10.711  0.2829  0.2485  0.2030
 3016PP      PP13120   9.904  14.816   1.734 -0.0546 -0.3496  0.3046
 3017PP      PP13121  14.407   6.864   9.959 -0.0306 -0.2561  0.1501
 3018PP      PP13122   6.621   1.963  12.172 -0.4675  0.0039  0.2143
 3019PP      PP13123   1.023   6.673  10.360 -0.0276  0.0279 -0.1914
 3020PP      PP13124  13.746  14.925   3.306 -0.0886 -0.0633 -0.0738
 3021PP      PP13125   9.799   2.934   3.781  0.1374 -0.2599  0.0142
 3022PP      PP13126   1.135   7.251   1.863 -0.0305 -0.2031  0.0309
 3023PP      PP13127  10.702  10.686   9.187  0.0920  0.2614  0.0394
 3024PP      PP13128   4.269  10.387  10.928 -0.0700 -0.1100  0.1238
 3025PP      PP13129  12.003  15.380  10.709  0.1904  0.0036 -0.0844
 3026PP      PP13130   7.529  14.916  11.398 -0.2713  0.2536  0.0911
 3027PP      PP13131   8.018  14.927  11.223  0.2800  0.0748 -0.0100
 3028PP      PP13132  12.268   5.369   2.354  0.0790 -0.1392  0.2409
 3029PP      PP13133   1.426  13.502   8.553  0.0354  0.2101  0.0937
 3030PP      PP13134  12.267   7.460   0.399 -0.1289  0.0294  0.2831
 3031PP      PP13135   2.036  10.405   0.610 -0.1669  0.2079  0.1716
 3032PP      PP13136   2.084   1.873   1.218  0.0581  0.0672 -0.3607
 3033PP      PP13137  10.849   0.362   4.129 -0.2998  0.0229  0.1327
 3034PP      PP13138   1.522   8.734   9.611  0.1201  0.0639 -0.0196
 3035PP      PP13139   5.012   7.742  12.117 -0.0607  0.2803  0.1498
 3036PP      PP13140  12.907   9.994   8.781 -0.0031 -0.1226 -0.3247
 3037PP      PP13141   7.517   9.893  11.240 -0.2045 -0.0451 -0.1306
 3038PP      PP13142   2.981   0.369   2.880  0.2366 -0.3726 -0.1199
 3039PP      PP13143   0.845   6.012   1.423  0.0146 -0.4427 -0.1017
 3040PP      PP13144   4.976   4.918  12.347 -0.0613 -0.2991  0.1808
 3041PP      PP13145  11.818  15.766   2.754  0.0209 -0.0751  0.1331
 3042PP      PP13146   3.811   2.670   9.200  0.2338  0.2218 -0.0904
 3043PP      PP13147   5.860   7.922   5.068 -0.1023  0.2755  0.1714
 3044PP      PP13148   9.063  13.960   9.152  0.2464  0.1083  0.1395
 3045PP      PP13149  14.959   3.996   2.393 -0.1452 -0.2888  0.0776
 3046PP      PP13150  12.566   5.691   3.212  0.0534  0.0261  0.1485
 3047PP      PP13151  14.596   6.213   4.502 -0.1280  0.0707  0.0517
 3048PP      PP13152  10.145   1.848  10.911  0.2759  0.3041  0.0265
 3049PP      PP13153   2.337   9.052   1.628  0.0618 -0.1008  0.1100
 3050PP      PP13154   7.964   5.198   3.051 -0.0369  0.2058 -0.1795
 3051PP      PP13155   2.001   0.203   1.424 -0.0989 -0.1615  0.0470
 3052PP      PP13156   7.952  11.606  12.850 -0.3952  0.0890  0.1686
 3053PP      PP13157   1.420  13.971   9.490  0.0679 -0.1541 -0.0108
 3054PP      PP13158  14.623  14.859   8.594  0.0759 -0.0954 -0.0402
 3055PP      PP13159   4.764   2.046  10.498 -0.0395 -0.0495  0.0574
 3056PP      PP13160   0.746   4.869   9.044 -0.1013 -0.0029  0.1534
 3057PP      PP13161   3.334   0.215   9.675  0.0184 -0.0255  0.0543
 3058PP      PP13162  10.826  12.769   1.642  0.1682  0.0200 -0.2252
 3059PP      PP13163  10.164   6.918   9.475  0.0207  0.0708 -0.1070
 3060PP      PP13164  15.933   5.876   2.072 -0.0510 -0.1761  0.4658
 3061PP      PP13165   6.553   8.967  10.984 -0.0635  0.0839 -0.2450
 3062PP      PP13166   6.838   9.271   0.960 -0.1255 -0.2293 -0.3760
 3063PP      PP13167   1.347  11.385   0.994 -0.4359  0.0650  0.0585
 3064PP      PP13168   5.655  14.097   8.088  0.3838 -0.1154  0.2379
 3065PP      PP13169   8.093   5.844   1.204  0.2599  0.5784  0.2416
 3066PP      PP13170   8.171  12.956  10.894  0.0550  0.0454  0.0036
 3067PP      PP13171  15.071   2.839  12.246 -0.2892 -0.2288 -0.0382
 3068PP      PP13172   7.291   0.880   0.646 -0.3934  0.1986  0.0404
 3069PP      PP13173   9.964  15.334  13.390 -0.0852  0.0683  0.0169
 3070PP      PP13174   2.840  11.233   9.136  0.0465 -0.0797 -0.0741
 3071PP      PP13175  14.175  12.392   3.432 -0.0378 -0.2073 -0.0480
 3072PP      PP13176   0.624   5.694  13.081 -0.0631 -0.1211 -0.1692
 3073PP      PP13177   0.974  11.533   2.453 -0.1065 -0.0631 -0.1320
 3074PP      PP13178   4.467   7.029   2.198  0.2522 -0.0157 -0.0271
 3075PP      PP13179   4.842   2.388  11.982  0.0602  0.2313  0.2763
 3076PP      PP13180   6.835   0.747   0.311  0.0977 -0.0232  0.1295
 3077PP      PP13181   6.590   1.938   2.251 -0.0596 -0.0369  0.0815
 3078PP      PP13182  14.019   6.376   1.485 -0.1598  0.1110 -0.0220
 3079PP      PP13183   3.533   2.881   1.811  0.0720 -0.0906 -0.0971
 3080PP      PP13184  15.707  13.151   8.695 -0.0921  0.3487  0.1617
 3081PP      PP13185   5.262   4.124   0.121  0.0792 -0.0090 -0.0530
 3082PP      PP13186  12.293   3.584   2.378 -0.1909 -0.0578  0.0595
 3083PP      PP13187   3.284   9.909  10.280 -0.1337 -0.1447  0.1027
 3084PP      PP13188  10.213  11.500  11.744 -0.0719 -0.0270  0.1652
 3085PP      PP13189  11.950   5.874  12.135 -0.0040 -0.0410  0.1088
 3086PP      PP13190  10.372   7.203   1.394 -0.1436  0.0857  0.0834
 3087PP      PP13191  10.996  14.414   2.093 -0.2178  0.1572  0.2312
 3088PP      PP13192   1.313  12.516   1.251  0.1789  0.0555 -0.0179
 3089PP      PP13193  14.581  10.886   9.668 -0.1650  0.0918  0.0850
 3090PP      PP13194   6.445   7.700   0.329 -0.0638  0.2577 -0.2203
 3091PP      PP13195   4.990  11.581  12.287 -0.2585  0.1773 -0.2201
 3092PP      PP13196  14.962  14.759  13.321 -0.3523 -0.3323 -0.1440
 3093PP      PP13197   1.788  11.558   9.933  0.0388 -0.0450 -0.1386
 3094PP      PP13198   2.686  15.398  11.081 -0.0551 -0.0289 -0.0624
 3095PP      PP13199   2.845   6.789  12.883  0.0786  0.0203  0.0773
 3096PP      PP13200   2.914  10.385   3.148  0.0957 -0.0768  0.1711
 3097PP      PP13201   9.748   2.757  10.138 -0.0038  0.1895 -0.0468
 3098PP      PP13202   1.856  15.197   1.041  0.0003 -0.0338  0.1424
 3099PP      PP13203   8.775   0.697   0.173  0.1953  0.0158 -0.2655
 3100PP      PP13204   9.913  12.534   0.737  0.1811  0.2553  0.0085
 3101PP      PP13205   9.108   8.576   8.849  0.0098  0.0579  0.0009
 3102PP      PP13206  11.637  11.390  12.356 -0.0229  0.1429 -0.0517
 3103PP      PP13207   2.073   8.758  13.083 -0.0526 -0.2630 -0.1986
 3104PP      PP13208  15.259  13.816  12.283  0.0440  0.3529 -0.1775
 3105PP      PP13209   3.864  12.843   4.096 -0.0552 -0.1161  0.2198
 3106PP      PP13210  13.022   3.800   4.380  0.3150 -0.2147  0.0230
 3107PP      PP13211  13.717  12.675   0.709 -0.1874 -0.1012  0.0918
 3108PP      PP13212   5.339  15.674   0.119 -0.1794  0.0038  0.1838
 3109PP      PP13213  14.463   7.771   8.990  0.0835 -0.4461 -0.1682
 3110PP      PP13214   6.021   2.189  10.915 -0.1833 -0.1061 -0.2676
 3111PP      PP13215   2.797   8.438  12.692 -0.0335 -0.1486  0.1074
 3112PP      PP13216   9.099   6.838   0.928 -0.0351 -0.1114  0.2462
 3113PP      PP13217  14.222  10.519  11.469  0.0567  0.0253  0.0038
 3114PP      PP13218  11.396   4.740  12.321  0.0696  0.0092  0.1519
 3115PP      PP13219   7.763  11.002   3.824 -0.2615  0.2817  0.0069
 3116PP      PP13220  15.428   3.477   2.347  0.2779 -0.3235 -0.3742
 3117PP      PP13221   5.671  12.392  12.451 -0.2145 -0.2864 -0.0097
 3118PP      PP13222   2.758   5.152   0.321  0.1450  0.0971 -0.0716
 3119PP      PP13223   3.622   4.148  10.733 -0.1222  0.1839 -0.2583
 3120PP      PP13224   2.107   0.438  12.693  0.0897  0.0109 -0.2394
 3121PP      PP13225  11.213  10.137  10.486  0.2349 -0.0488  0.1799
 3122PP      PP13226   3.909  11.399  11.619  0.1579  0.0071 -0.1694
 3123PP      PP13227  10.106   5.588  10.261 -0.1932 -0.2112 -0.1568
 3124PP      PP13228   5.099  12.571   8.827 -0.1729 -0.0386 -0.2540
 3125PP      PP13229  14.386   8.730   3.444  0.1534  0.0112 -0.1489
 3126PP      PP13230   0.805  14.285  12.133 -0.1358 -0.0042 -0.0599
 3127PP      PP13231   2.186  15.397  11.231  0.2106 -0.1035  0.0269
 3128PP      PP13232  14.474   5.695   9.224 -0.0281  0.0464 -0.1832
 3129PP      PP13233   7.802   8.021  11.253  0.2987 -0.1214  0.2667
 3130PP      PP13234  14.670  12.988   0.325  0.2539  0.0044  0.1692
 3131PP      PP13235   7.973   5.137   4.376  0.1934 -0.2226 -0.0401
 3132PP      PP13236   4.447   5.703   0.909 -0.0247 -0.2733  0.0698
 3133PP      PP13237  12.007  11.114   2.659 -0.1290  0.1473 -0.1835
 3134PP      PP13238  15.048  11.811   1.651  0.1077 -0.1509  0.0096
 3135PP      PP13239  10.124   0.708   0.514 -0.0119 -0.2753 -0.3344
 3136PP      PP13240  10.772   8.261   3.270 -0.0821 -0.0875  0.0998
 3137PP      PP13241   1.164  12.798  12.886 -0.2625 -0.2241  0.1119
 3138PP      PP13242  12.996  15.779  10.968  0.0370 -0.2814 -0.2743
 3139PP      PP13243   7.384  13.834  11.119  0.0725  0.1973  0.2243
 3140PP      PP13244  15.325  11.182  11.822  0.0154 -0.1656  0.2143
 3141PP      PP13245   9.922   2.639  10.716  0.1368 -0.0307  0.0841
 3142PP      PP13246  14.056   9.572   9.286 -0.0819 -0.0500 -0.0752
 3143PP      PP13247   3.197  12.133  12.971 -0.1808 -0.0794  0.1919
 3144PP      PP13248  11.735   2.995   8.697  0.2740  0.4097 -0.0346
 3145PP      PP13249   6.167   9.919   9.278  0.3481  0.0230  0.2480
 3146PP      PP13250   0.149   2.884   3.992 -0.0839 -0.2352 -0.3516
 3147PP      PP13251  10.843   7.794  12.430 -0.0164  0.0121 -0.0031
 3148PP      PP13252   2.702  13.880   8.612 -0.1164  0.0865  0.4643
 3149PP      PP13253  14.167   9.521   4.549 -0.1585 -0.1542  0.0239
 3150PP      PP13254   6.137   5.230   3.151  0.1034 -0.1742 -0.1219
 3151PP      PP13255  13.556   3.459  13.340  0.1653  0.0376  0.2134
 3152PP      PP13256   0.433   1.700   8.109  0.2915  0.0618  0.3683
 3153PP      PP13257   9.933  13.461   9.803  0.0995  0.1350  0.1321
 3154PP      PP13258   5.214   1.153   1.739 -0.0203  0.0497  0.0669
 3155PP      PP13259   3.180   2.438  12.301 -0.2468  0.0757  0.1548
 3156PP      PP13260   1.235   4.682   1.251 -0.0238 -0.0345  0.1999
 3157PP      PP13261   1.790   8.978   3.360  0.1464  0.4033  0.1576
 3158PP      PP13262   8.805   5.599   0.250 -0.1056 -0.0196 -0.0714
 3159PP      PP13263  15.646  14.869   2.164  0.1099 -0.0991 -0.3385
 3160PP      PP13264   7.959  10.482  11.100  0.0682 -0.3690 -0.4206
 3161PP      PP13265   7.346  10.259   9.552 -0.2263  0.2105 -0.1993
 3162PP      PP13266  11.230  13.275   0.817  0.2639  0.0842 -0.0932
 3163PP      PP13267   9.590  13.582  12.176  0.2045  0.4232 -0.1560
 3164PP      PP13268   7.805   2.498   0.183  0.4786 -0.2155 -0.2112
 3165PP      PP13269  13.287   0.986   2.831 -0.0459  0.1886  0.0083
 3166PP      PP13270  10.706   3.603   0.546  0.3646 -0.0087  0.2288
 3167PP      PP13271  10.338  14.674  12.435  0.0887 -0.2209  0.3847
 3168PP      PP13272   9.258  10.944   1.072  0.1371  0.1779 -0.0934
 3169PP      PP13273  15.471   7.385  10.776 -0.0589 -0.1485 -0.0013
 3170PP      PP13274   1.643  15.882   1.620  0.0417  0.1393  0.0636
 3171PP      PP13275   4.395  14.759   0.614 -0.1649 -0.0230 -0.0053
 3172PP      PP13276  11.807   7.514   9.309  0.0271  0.0766  0.0217
 3173PP      PP13277  15.038  11.324  12.546  0.1024  0.0092  0.0433
 3174PP      PP13278   7.548   3.928  10.758  0.0627 -0.0249 -0.0789
 3175PP      PP13279   8.108   5.235  11.814  0.1988 -0.0144  0.2865
 3176PP      PP13280   6.205  11.929   8.787  0.0233  0.1242 -0.0405
 3177PP      PP13281   3.911  15.152  12.104 -0.0391  0.1216 -0.1772
 3178PP      PP13282   4.098   2.420  11.818 -0.0798  0.3020  0.4509
 3179PP      PP13283   2.468  15.308  10.594 -0.0729  0.1366 -0.1081
 3180PP      PP13284   4.595   2.974  10.491  0.0259  0.2195 -0.3417
 3181PP      PP13285  13.671  15.662  12.297  0.1970 -0.1516 -0.0498
 3182PP      PP13286   2.475  10.881  11.208  0.3896  0.3038 -0.3043
 3183PP      PP13287  14.057   5.972  10.632  0.0502 -0.3921  0.1251
 3184PP      PP13288   9.602   8.586   4.598  0.0062  0.1970  0.1090
 3185PP      PP13289   8.956  12.881  12.286 -0.2200 -0.1765 -0.1364
 3186PP      PP13290  10.864   9.353   2.723 -0.1102  0.0279 -0.1478
 3187PP      PP13291  13.770  12.714   0.146 -0.1010  0.0921  0.0763
 3188PP      PP13292   5.050  14.808   2.605  0.1226 -0.1196 -0.2498
 3189PP      PP13293   6.605   3.212   9.446 -0.2178 -0.0837  0.0363
 3190PP      PP13294   4.888   7.574  11.155 -0.0846 -0.0097 -0.2057
 3191PP      PP13295  12.191   4.878  12.792 -0.1815  0.2381  0.1108
 3192PP      PP13296   3.281  12.787  12.997 -0.0404  0.0132  0.0080
 3193PP      PP13297   8.260   4.568   1.247  0.4331 -0.0805  0.0988
 3194PP      PP13298  11.148  11.365   9.442  0.2033 -0.0620 -0.0432
 3195PP      PP13299  14.039  10.672  10.030 -0.2262  0.2898 -0.0562
 3196PP      PP13300   4.095   1.501   3.779  0.2675 -0.0237  0.0597
 3197PP      PP13301   8.777   6.534   0.630 -0.0898 -0.0711 -0.2158
 3198PP      PP13302   6.477   1.059   0.446 -0.0109 -0.0755 -0.2507
 3199PP      PP13303  15.009  14.497  12.880  0.1766  0.1019 -0.2298
 3200PP      PP13304  14.553   8.179   4.518  0.1680  0.0384 -0.1534
 3201PP      PP13305   4.203   9.069  12.486  0.0619 -0.3512  0.1645
 3202PP      PP13306   0.507   1.662   8.900  0.1011 -0.4928 -0.1159
 3203PP      PP13307   6.501  11.777   3.829 -0.0529  0.3224 -0.2184
 3204PP      PP13308   6.343   6.192  12.710 -0.1851 -0.0462 -0.0033
 3205PP      PP13309  14.905  11.896   0.300 -0.2265  0.2882  0.0366
 3206PP      PP13310  10.198   7.790   0.575 -0.0379 -0.0856  0.0785
 3207PP      PP13311   1.591   2.163   3.725  0.3591  0.1789 -0.1348
 3208PP      PP13312  11.186   4.731   2.274  0.0038  0.0726  0.5192
 3209PP      PP13313  12.749   5.025   0.271  0.2251  0.1047  0.1359
 3210PP      PP13314  15.517  11.780   3.562 -0.1671  0.0212 -0.3190
 3211PP      PP13315  12.747   3.273   3.641  0.2295 -0.3661 -0.1164
 3212PP      PP13316   6.529   4.817  10.657 -0.0337  0.0682 -0.0809
 3213PP      PP13317   4.676  13.128  11.167  0.0496  0.3043 -0.0681
 3214PP      PP13318  11.717   4.236   1.525 -0.2632 -0.3226 -0.0646
 3215PP      PP13319   8.870  14.079   2.852  0.2276 -0.2812 -0.5703
 3216PP      PP13320   3.907   0.684  12.398 -0.0242 -0.0448 -0.1371
 3217PP      PP13321  12.055  10.131  11.087  0.0282  0.0540  0.2037
 3218PP      PP13322  12.199  10.199   3.002 -0.2252 -0.2748  0.0559
 3219PP      PP13323   1.776  15.599   9.369 -0.1662 -0.0853  0.3341
 3220PP      PP13324   9.329   3.397   1.170 -0.0053  0.0606 -0.1224
 3221PP      PP13325   7.193   0.398   8.880  0.2178 -0.1270  0.2469
 3222PP      PP13326  11.084   5.560   9.513  0.0373 -0.0592  0.1634
 3223PP      PP13327  11.874  10.685   4.917  0.1513 -0.1515 -0.2452
 3224PP      PP13328  13.816  12.394   1.489 -0.0121  0.1233  0.0421
 3225PP      PP13329  13.236   4.777   0.258  0.1620  0.1567 -0.1834
 3226PP      PP13330   4.572  14.359   8.113 -0.0837 -0.3026 -0.1075
 3227PP      PP13331   5.423   0.424  11.288 -0.1509 -0.2705  0.0480
 3228PP      PP13332   6.168  13.752  12.297 -0.0808 -0.0061 -0.4027
 3229PP      PP13333  11.904   4.176   3.894 -0.0172 -0.0455  0.0067
 3230PP      PP13334  15.172  10.900  11.372 -0.0423  0.0097 -0.0357
 3231PP      PP13335   0.030  11.397   2.291 -0.2659 -0.1350 -0.1765
 3232PP      PP13336   1.576   8.159  11.718  0.3093 -0.0310 -0.1063
 3233PP      PP13337   7.064   4.225  10.494  0.2596 -0.2470 -0.3354
 3234PP      PP13338   2.937   6.613   0.883 -0.0761 -0.3569 -0.4420
 3235PP      PP13339  15.707   8.970   9.794 -0.2508 -0.0423 -0.2681
 3236PP      PP13340   6.235  12.969   0.280 -0.0873 -0.3027 -0.2765
 3237PP      PP13341   9.524  11.358   9.561 -0.0593 -0.2425 -0.1963
 3238PP      PP13342   7.512   1.947  11.741  0.1070 -0.0594  0.1005
 3239PP      PP13343   6.581   4.719  12.003 -0.0701 -0.2618 -0.1380
 3240PP      PP13344  10.077   5.488   9.332 -0.1396  0.0036 -0.7922
 3241PP      PP13345  10.920   9.277   4.475 -0.1388  0.3470  0.0334
 3242PP      PP13346  15.184   1.768   2.599 -0.1290 -0.1543  0.0590
 3243PP      PP13347   5.259   1.997  10.000  0.0725 -0.2477  0.0692
 3244PP      PP13348   0.012   6.585   2.716 -0.0883 -0.0095  0.1920
 3245PP      PP13349   5.265   8.896  13.348 -0.2965  0.3945  0.0668
 3246PP      PP13350   3.196   3.393  11.019 -0.0785 -0.0946  0.0483
 3247PP      PP13351   9.892   0.767   1.966  0.2953  0.0175 -0.1534
 3248PP      PP13352   3.923   3.356  12.626 -0.0274  0.2097 -0.1935
 3249PP      PP13353   7.792   0.878  10.079 -0.1088 -0.2623 -0.0099
 3250PP      PP13354  13.282   9.295  10.136 -0.3011 -0.1267  0.2048
 3251PP      PP13355  10.780   6.843  12.647 -0.2999  0.1842 -0.0415
 3252PP      PP13356  10.087   0.252   1.973 -0.1152 -0.2422  0.1192
 3253PP      PP13357  14.911   8.991   9.197  0.0615  0.0591 -0.0367
 3254PP      PP13358  13.169   6.845   2.650 -0.3486  0.1730 -0.0293
 3255PP      PP13359  11.732   5.834   1.284 -0.1303 -0.2611  0.0993
 3256PP      PP13360  10.996  10.123   3.898  0.0906 -0.1349 -0.4294
 3257PP      PP13361  13.595   7.297  13.139 -0.0572 -0.3980 -0.2113
 3258PP      PP13362   9.227   1.048   9.666 -0.2006  0.2920 -0.1848
 3259PP      PP13363   4.317   7.023   4.460 -0.0739 -0.0914  0.0046
 3260PP      PP13364  11.319   5.002  11.069  0.0892  0.2401  0.0103
 3261PP      PP13365   3.077   2.324   8.936  0.0411 -0.2736 -0.2245
 3262PP      PP13366  13.122   6.665   1.999 -0.1349 -0.2058 -0.1745
 3263PP      PP13367   4.120  14.065   1.697 -0.0143  0.0229  0.2162
 3264PP      PP13368   5.784  10.679   2.696  0.0363  0.1813  0.2340
 3265PP      PP13369   7.073  12.874   3.739 -0.2780  0.1062  0.0082
 3266PP      PP13370   4.330   5.942  10.522  0.1144 -0.0026  0.0992
 3267PP      PP13371   7.001   7.530   1.174 -0.0186 -0.0116 -0.1730
 3268PP      PP13372  12.072   8.070   1.560  0.0081 -0.1808  0.0690
 3269PP      PP13373   0.440   4.187   1.906 -0.0753 -0.0882 -0.0707
 3270PP      PP13374  10.129  14.916   4.213 -0.4174  0.1221  0.0049
 3271PP      PP13375  11.345  10.456   4.041 -0.1530 -0.1233  0.0918
 3272PP      PP13376   0.917   5.220  11.149 -0.0276 -0.1929  0.1063
 3273PP      PP13377  12.342   1.209  12.557  0.2029  0.0644 -0.2269
 3274PP      PP13378   0.256  11.195   1.816 -0.1114 -0.1570 -0.1456
 3275PP      PP13379   6.057   3.976   9.397 -0.0516  0.0270  0.2928
 3276PP      PP13380  11.605  10.284  10.724 -0.0070 -0.0438 -0.1979
 3277PP      PP13381   2.902  14.747  12.676 -0.2847 -0.0228  0.1624
 3278PP      PP13382   2.778  10.798   9.441 -0.0863  0.1007  0.0804
 3279PP      PP13383  14.094  14.879  11.168 -0.2353 -0.0172 -0.0561
 3280PP      PP13384   7.238  11.218  10.528  0.3356 -0.3380 -0.2355
 3281PP      PP13385   2.040   5.274   2.017  0.2020 -0.2047 -0.0741
 3282PP      PP13386  14.291  11.640   9.254 -0.0309  0.0968 -0.0989
 3283PP      PP13387  12.622  10.728   0.316 -0.0336  0.1150  0.1313
 3284PP      PP13388  11.318   2.767   9.055 -0.2625 -0.1902  0.3011
 3285PP      PP13389  12.599  12.877   2.699 -0.0050  0.0287 -0.3236
 3286PP      PP13390  15.080  15.827   8.630 -0.0172 -0.0440 -0.1362
 3287PP      PP13391   6.028   2.941   3.084 -0.2895  0.1412  0.0366
 3288PP      PP13392  15.725   7.450   9.234  0.1877  0.4121  0.0037
 3289PP      PP13393  15.372   5.194  11.304  0.0737 -0.0465 -0.0936
 3290PP      PP13394  12.899  12.077  10.376  0.2290  0.0500  0.0195
 3291PP      PP13395   9.474   9.741   4.375  0.2286  0.1412  0.2250
 3292PP      PP13396   3.406  10.873   4.736 -0.0091 -0.3160 -0.0856
 3293PP      PP13397   0.432   3.507  10.053 -0.2151 -0.0589 -0.0792
 3294PP      PP13398   3.249   7.306   1.851 -0.0494 -0.0281  0.1349
 3295PP      PP13399   0.446   0.672  11.125 -0.0236 -0.1521  0.2056
 3296PP      PP13400  10.964  15.454  12.814 -0.1454  0.1434  0.2647
 3297PP      PP13401  11.026   8.792   0.486  0.0783 -0.0631  0.3430
 3298PP      PP13402  13.608   4.925  13.247 -0.2578  0.4891  0.2277
 3299PP      PP13403  10.831   5.570  13.382  0.2199 -0.1888  0.0756
 3300PP      PP13404   7.407   8.228   2.244 -0.1402  0.0640  0.1077
 3301PP      PP13405   1.459   1.347  13.104  0.2063 -0.1886  0.0720
 3302PP      PP13406   5.708  12.338   8.642 -0.1116  0.0729  0.0218
 3303PP      PP13407   2.304  11.680  12.641 -0.0111 -0.1705 -0.0717
 3304PP      PP13408   7.514  14.448   8.915 -0.3418 -0.0573  0.2578
 3305PP      PP13409   8.150  11.464  12.404  0.3685 -0.2396  0.0940
 3306PP      PP13410  15.233   5.903   1.631 -0.4909 -0.0043 -0.1755
 3307PP      PP13411   5.910  14.463  12.894  0.1341  0.0214 -0.0291
 3308PP      PP13412   4.088  11.367   2.815 -0.0636 -0.3274 -0.2671
 3309PP      PP13413   7.213  10.216  13.168  0.1465  0.3930 -0.0395
 3310PP      PP13414   3.877   8.580   1.726  0.1528 -0.0977 -0.1227
 3311PP      PP13415  13.092   2.845   1.423 -0.1536 -0.1221 -0.0868
 3312PP      PP13416   0.790  15.340   3.119 -0.2470  0.0512  0.2343
 3313PP      PP13417   1.199  12.938   4.140  0.2117  0.2703 -0.0224
 3314PP      PP13418   4.997  13.850   8.566 -0.0487  0.2659  0.3450
 3315PP      PP13419  14.901   7.710   0.729 -0.2708 -0.0678 -0.2866
 3316PP      PP13420  12.976   6.005  12.137 -0.0601  0.1224 -0.0552
 3317PP      PP13421   0.960   2.347   8.528  0.2200 -0.1761 -0.1829
 3318PP      PP13422   0.084   0.981  13.322  0.2616  0.0167  0.1751
 3319PP      PP13423  15.427  10.446   4.319 -0.1792 -0.1647  0.2686
 3320PP      PP13424   9.715   3.245   1.439 -0.0093  0.0505 -0.1621
 3321PP      PP13425  13.696  11.120  12.639 -0.3985 -0.1204 -0.0187
 3322PP      PP13426   4.397  10.685   3.621  0.0368  0.0892 -0.2144
 3323PP      PP13427  11.500   0.761  10.783  0.1605 -0.1412  0.0390
 3324PP      PP13428   2.200   3.075   2.411  0.0125  0.0487 -0.0907
 3325PP      PP13429  11.774  14.480   1.683  0.0500 -0.1165 -0.0811
 3326PP      PP13430   9.884   8.256   2.252  0.0303 -0.3061  0.2926
 3327PP      PP13431   7.426   0.103   2.106  0.1203  0.3681  0.1558
 3328PP      PP13432   6.777   4.587   1.672 -0.0435  0.2791  0.0538
 3329PP      PP13433   1.459  11.688   9.549 -0.0815 -0.1407  0.1220
 3330PP      PP13434  12.284  14.208   2.638 -0.4730 -0.2781  0.0525
 3331PP      PP13435  10.190   0.009   0.306 -0.2078 -0.1132  0.2526
 3332PP      PP13436  11.546  13.423  12.945  0.1881  0.4882  0.1319
 3333PP      PP13437   3.620  14.691   3.046  0.0784  0.3338 -0.3575
 3334PP      PP13438  13.089   6.252   8.783 -0.0932  0.0878 -0.3337
 3335PP      PP13439   9.779   1.420  10.246  0.4570  0.0624  0.1324
 3336PP      PP13440   8.524   7.234  13.209 -0.0958 -0.2281 -0.0559
 3337PP      PP13441  15.422   2.768  10.367 -0.0637  0.1216  0.1989
 3338PP      PP13442   0.163   6.586  10.130  0.1751 -0.0558  0.1785
 3339PP      PP13443  14.333   7.812   0.119  0.0280  0.2846  0.3897
 3340PP      PP13444   9.893   7.227   5.076 -0.1210  0.3523  0.0607
 3341PP      PP13445  10.827   2.266   0.815  0.2716 -0.2129 -0.0552
 3342PP      PP13446  12.436  12.187  10.639 -0.1736  0.2997  0.2605
 3343PP      PP13447   2.878  13.918  12.725  0.0616 -0.1763 -0.0015
 3344PP      PP13448   7.254   8.665  11.067 -0.0523 -0.0883 -0.2190
 3345PP      PP13449   4.058   9.299   0.212  0.0038 -0.2415  0.2718
 3346PP      PP13450  13.578   0.788   9.346  0.3652  0.2848  0.1236
 3347PP      PP13451   9.679  13.364   1.526 -0.1731  0.1267 -0.0820
 3348PP      PP13452   7.431   3.178  13.319 -0.1188  0.1145  0.2893
 3349PP      PP13453  15.098   8.949  13.367 -0.1859  0.3060 -0.4962
 3350PP      PP13454   1.119   5.409   9.065 -0.0176 -0.1175  0.1492
 3351PP      PP13455  11.420  10.166   2.718 -0.2510 -0.1827  0.1435
 3352PP      PP13456   5.137   3.056   1.732  0.0447  0.0197  0.2226
 3353PP      PP13457   7.382  11.856  12.747  0.4204  0.0376 -0.0043
 3354PP      PP13458  15.726   8.554   1.833  0.1860  0.0791  0.0593
 3355PP      PP13459   8.770  10.151   9.565 -0.5673 -0.0823 -0.1068
 3356PP      PP13460  12.632   2.396   9.875  0.0334  0.1311  0.0698
 3357PP      PP13461  12.632   2.664  11.410 -0.4016 -0.1573 -0.1005
 3358PP      PP13462   2.465  10.506  10.247 -0.0733  0.0480 -0.0031
 3359PP      PP13463   6.919   1.036  12.044  0.0034 -0.0169  0.0907
 3360PP      PP13464  13.907   1.827  11.187 -0.1225  0.1493 -0.3010
 3361PP      PP13465   8.270   6.549   0.018 -0.1169  0.1808 -0.2132
 3362PP      PP13466  14.321   2.005   8.103  0.0162  0.2959  0.2281
 3363PP      PP13467  10.800  14.952  12.223 -0.1773  0.3705 -0.3073
 3364PP      PP13468  12.662   7.183   0.504  0.2541 -0.1998 -0.0240
 3365PP      PP13469  15.815  10.560  13.103 -0.0290 -0.0311 -0.1180
 3366PP      PP13470   9.244  12.904  10.930  0.1876  0.0277 -0.0020
 3367PP      PP13471  13.444   1.623  11.256  0.0298 -0.1631  0.0491
 3368PP      PP13472  11.323   9.565   4.412 -0.2750  0.3117 -0.0240
 3369PP      PP13473   3.749  14.852  13.365  0.1595  0.0283  0.1621
 3370PP      PP13474   4.039   1.859  13.394 -0.1800 -0.0541  0.4328
 3371PP      PP13475  14.146   2.415   2.316 -0.0007 -0.0815  0.0549
 3372PP      PP13476   9.211  13.716  11.363  0.2689  0.0577 -0.1750
 3373PP      PP13477   3.254  10.035   2.101  0.0294 -0.2753  0.0204
 3374PP      PP13478   1.235  12.266   2.099 -0.0642 -0.2930 -0.3432
 3375PP      PP13479   6.496   2.198   9.831  0.2419  0.3037 -0.3951
 3376PP      PP13480  11.901  11.677  12.682 -0.4687 -0.1221 -0.0508
 3377PP      PP13481  15.088   5.621   3.378  0.2154 -0.0380 -0.0166
 3378PP      PP13482  13.808  13.379   4.190 -0.1098  0.1967  0.0733
 3379PP      PP13483  14.701   3.207   2.041 -0.1374  0.4846  0.1328
 3380PP      PP13484   8.717  14.588   0.230 -0.0859 -0.4863  0.4839
 3381PP      PP13485   8.411  13.542   1.584  0.0063 -0.1584 -0.1477
 3382PP      PP13486   4.972   4.641  10.181  0.1279  0.1980  0.0068
 3383PP      PP13487   9.220   6.088   1.562 -0.3754 -0.2344 -0.3453
 3384PP      PP13488   4.225  14.029   3.326 -0.2017  0.0890  0.0309
 3385PP      PP13489   3.575   1.230   2.914  0.1430  0.0705  0.0385
 3386PP      PP13490  15.401   1.468   0.871 -0.0703 -0.0361 -0.1091
 3387PP      PP13491   8.384  15.463   3.754 -0.3262 -0.0559 -0.3022
 3388PP      PP13492  10.336   0.183   3.814  0.2847  0.1850  0.0210
 3389PP      PP13493  13.201  11.352  12.944  0.2755  0.0305  0.0951
 3390PP      PP13494  12.951  13.216   1.916 -0.0297  0.2183 -0.3737
 3391PP      PP13495  12.509   4.544   0.062 -0.1051 -0.1749  0.0811
 3392PP      PP13496   4.181  15.380   2.142  0.0008 -0.1547 -0.0285
 3393PP      PP13497   4.624   5.549  10.860 -0.0791 -0.1408 -0.1439
 3394PP      PP13498  10.963  13.816   0.812  0.0257  0.0802 -0.0547
 3395PP      PP13499  15.068   6.494   3.751  0.0269  0.3302  0.0313
 3396PP      PP13500   6.622  15.858   2.461 -0.0370  0.2060  0.0880
 3397PP      PP13501   2.412   4.104   1.694  0.0476  0.1279 -0.0057
 3398PP      PP13502   5.838  15.561   1.738 -0.0178 -0.1139  0.2069
 3399PP      PP13503  12.803   4.215  11.680  0.0999  0.0978  0.1916
 3400PP      PP13504  12.286   3.146   2.588 -0.1205 -0.1741  0.0294
 3401PP      PP13505  10.315  15.342  12.990  0.3703 -0.2987 -0.3400
 3402PP      PP13506   7.185   1.269   8.887 -0.0405  0.2802 -0.0641
 3403PP      PP13507  10.596   1.780   3.043 -0.0927 -0.0470  0.0004
 3404PP      PP13508   6.397  15.653  10.581 -0.2178  0.0913 -0.2408
 3405PP      PP13509   6.294  15.361  12.628  0.1975  0.3081 -0.2382
 3406PP      PP13510  11.158   0.264   2.159  0.0623  0.0435  0.1420
 3407PP      PP13511  11.401  14.473   3.629  0.0390  0.2485 -0.1690
 3408PP      PP13512   5.228  15.893   1.347 -0.0351 -0.1285 -0.0548
 3409PP      PP13513  10.542   5.058  11.182 -0.1314  0.2438  0.0954
 3410PP      PP13514   9.971   6.489   9.258  0.0551  0.1356 -0.0984
 3411PP      PP13515   5.981  11.153   4.320 -0.2715  0.4300  0.0200
 3412PP      PP13516  12.467  15.643  13.099 -0.2691  0.5543 -0.3247
 3413PP      PP13517  14.403  15.178  12.499 -0.2699  0.1747 -0.0948
 3414PP      PP13518   4.255   5.883   1.799 -0.3387 -0.0577 -0.2656
 3415PP      PP13519  15.920   3.579   2.466 -0.1362 -0.2280 -0.5570
 3416PP      PP13520   7.950   1.377   9.406 -0.0536 -0.1615  0.1244
 3417PP      PP13521   0.620  12.067   1.745 -0.1348 -0.0457 -0.0038
 3418PP      PP13522  13.486   8.838   4.243  0.2351  0.3461 -0.0488
 3419PP      PP13523  12.194   9.982  12.923  0.0333 -0.1476  0.0831
 3420PP      PP13524   2.722   2.701   9.485  0.0522 -0.2300  0.0131
 3421PP      PP13525   7.574   5.433   0.790 -0.0848 -0.2326  0.1131
 3422PP      PP13526   5.293  11.730   8.053 -0.1926 -0.3835 -0.0853
 3423PP      PP13527  14.480  12.215   4.087 -0.0231  0.0231 -0.0477
 3424PP      PP13528   5.876   9.488   1.882 -0.0406  0.0118 -0.0662
 3425PP      PP13529  12.699   0.720  11.852  0.0385  0.0308 -0.1794
 3426PP      PP13530  11.771  12.840   2.183 -0.1679  0.2248  0.0788
 3427PP      PP13531  14.568  15.437   0.294  0.1839 -0.3663 -0.0722
 3428PP      PP13532   0.539   7.211   0.993 -0.1554 -0.3044 -0.1244
 3429PP      PP13533  13.696   4.133  10.322 -0.2234 -0.0594 -0.1637
 3430PP      PP13534   6.043  11.692  11.064 -0.0983  0.1072 -0.1821
 3431PP      PP13535  13.026   2.008  11.275  0.2569 -0.2576 -0.0241
 3432PP      PP13536  12.688   1.111  10.923 -0.0713 -0.1104 -0.0396
 3433PP      PP13537   7.498   4.410   3.398 -0.1555 -0.1247  0.3121
 3434PP      PP13538  12.901   5.043   2.844  0.2070  0.0086  0.2256
 3435PP      PP13539  10.185   1.249  12.225 -0.0887 -0.0179  0.1846
 3436PP      PP13540   2.888   6.912  11.324 -0.2721  0.0741 -0.0803
 3437PP      PP13541   1.988  14.924  10.256 -0.0258 -0.2628  0.0298
 3438PP      PP13542   5.927  11.485   2.236  0.1706 -0.2582  0.0648
 3439PP      PP13543  15.565  13.470   0.288  0.0596  0.2009  0.1099
 3440PP      PP13544  12.343   5.373   4.240  0.1285 -0.1848  0.1369
 3441PP      PP13545  12.075  14.476  12.453  0.0819 -0.0988  0.3243
 3442PP      PP13546  11.588   5.662  11.742 -0.2606 -0.2135 -0.2468
 3443PP      PP13547  12.288   2.440   4.468  0.0122 -0.1130  0.1115
 3444PP      PP13548  15.308   6.234   0.229 -0.0043 -0.0502 -0.0043
 3445PP      PP13549  14.030   1.429   0.745  0.1361  0.0571  0.2457
 3446PP      PP13550   7.848  10.557   8.931 -0.1450 -0.2685 -0.0659
 3447PP      PP13551   7.036  11.121  11.689 -0.0261 -0.2198  0.3442
 3448PP      PP13552  14.234   9.197   9.941  0.0786 -0.3230 -0.0193
 3449PP      PP13553   5.706   0.946  11.302 -0.1502 -0.0950 -0.0667
 3450PP      PP13554   4.542  10.015  12.635  0.3915 -0.1190 -0.2900
 3451PP      PP13555  10.313   5.759  12.041  0.1350  0.0225  0.1814
 3452PP      PP13556   6.692   4.411   8.998  0.0988  0.0334 -0.1687
 3453PP      PP13557   3.235  13.333  10.409  0.1206  0.1267 -0.1100
 3454PP      PP13558   4.090  11.227  10.381  0.0303 -0.0901  0.1546
 3455PP      PP13559  15.446   3.100   0.296  0.0235 -0.0562 -0.0799
 3456PP      PP13560  14.009   8.049  11.419 -0.1986  0.0868 -0.2521
 3457PP      PP13561  13.651  11.688   0.823  0.0661 -0.1890 -0.3882
 3458PP      PP13562   9.048   8.849  10.750 -0.0665  0.1914  0.1777
 3459PP      PP13563  12.446   1.724   3.913 -0.3272  0.4316 -0.3763
 3460PP      PP13564  14.652   5.191  10.591 -0.2046  0.1585 -0.3377
 3461PP      PP13565  15.886   7.764   4.357 -0.2074 -0.1593 -0.1424
 3462PP      PP13566   8.051  14.557  12.446 -0.0810 -0.1306 -0.1188
 3463PP      PP13567   7.495   7.370  10.906  0.0026  0.0326  0.0965
 3464PP      PP13568   1.720   1.799   9.724 -0.0746  0.1236 -0.2585
 3465PP      PP13569   3.316  13.007  12.030  0.0175 -0.4028 -0.2872
 3466PP      PP13570  14.915   5.000   2.785  0.2341 -0.1122  0.4488
 3467PP      PP13571   6.325   1.686  10.077  0.3270  0.2335  0.2172
 3468PP      PP13572   7.791   8.873   0.566  0.0630 -0.2680 -0.0805
 3469PP      PP13573  15.826  13.216  11.512  0.3155 -0.1285  0.0724
 3470PP      PP13574   6.488  13.050   9.533 -0.3551 -0.0247  0.3084
 3471PP      PP13575   6.624   5.970  11.206  0.0512  0.0500 -0.3108
 3472PP      PP13576   6.500  12.952   1.360  0.3175  0.0904 -0.1090
 3473PP      PP13577  14.116   6.378   9.726 -0.0188  0.0554 -0.1102
 3474PP      PP13578  15.605   2.314  11.020 -0.0090 -0.0865 -0.0805
 3475PP      PP13579  10.208   2.772  11.946 -0.2390  0.3744  0.0762
 3476PP      PP13580   0.719  14.987   8.661 -0.0107  0.0915 -0.1977
 3477PP      PP13581   6.718   9.125  11.739 -0.0151  0.0514 -0.0862
 3478PP      PP13582   2.016   6.512   9.231 -0.2306  0.1067 -0.0689
 3479PP      PP13583   4.615   6.615   2.420 -0.0019 -0.1172  0.0524
 3480PP      PP13584  11.910   9.978  10.389  0.1855  0.1374  0.4071
 3481PP      PP13585  14.323  10.126   2.354  0.2057 -0.3218  0.3808
 3482PP      PP13586   7.538   7.617   3.043 -0.3601 -0.0329  0.2550
 3483PP      PP13587  12.749   1.710  13.398  0.0069  0.2950 -0.0824
 3484PP      PP13588   7.388  14.293  10.888 -0.4084 -0.0709 -0.2383
 3485PP      PP13589   1.160   9.918   2.310 -0.0856 -0.0381  0.2655
 3486PP      PP13590   2.626   8.096  10.045 -0.5554 -0.0461 -0.0295
 3487PP      PP13591  14.708   7.814   1.625  0.0498 -0.0106 -0.2166
 3488PP      PP13592  14.365   2.792   2.530  0.1451  0.1207  0.0087
 3489PP      PP13593   3.669  13.168  10.621  0.3399 -0.1465  0.0700
 3490PP      PP13594   7.031  10.399   2.317 -0.2421  0.1683 -0.1893
 3491PP      PP13595  15.172   4.396  13.293  0.2451 -0.1143 -0.0288
 3492PP      PP13596   7.131   3.218   0.361 -0.2415  0.0030  0.2767
 3493PP      PP13597  13.209   2.387   9.818  0.1517 -0.2192  0.1491
 3494PP      PP13598  15.438   2.295   0.984  0.0283 -0.0397 -0.0409
 3495PP      PP13599   3.074   4.815  11.749  0.0234  0.1363  0.1494
 3496PP      PP13600   3.394   6.371  13.037  0.2457  0.0661  0.0270
 3497PP      PP13601   5.992  15.901  12.615 -0.2336  0.0822 -0.3042
 3498PP      PP13602   4.937   3.662  13.357 -0.0036 -0.3254 -0.0714
 3499PP      PP13603   4.950   2.219  11.376  0.3630 -0.1106  0.2542
 3500PP      PP13604  12.911   5.245  12.224 -0.0442 -0.2925 -0.3113
 3501PP      PP13605  15.845  13.372   0.866 -0.0622  0.2380 -0.3794
 3502PP      PP13606  14.216   4.269   3.533  0.0212 -0.1324  0.2742
 3503PP      PP13607   4.697  13.910   4.139  0.0073  0.0195  0.0868
 3504PP      PP13608   1.530   7.771   9.380 -0.1817  0.2410  0.0700
 3505PP      PP13609   3.448  13.609   2.110  0.0917 -0.3406 -0.0214
 3506PP      PP13610   2.782   5.179  10.216 -0.2290  0.1154 -0.0043
 3507PP      PP13611   9.597   2.944   9.612 -0.0615 -0.2869  0.0373
 3508PP      PP13612   3.257  11.026  10.117 -0.1416 -0.3103 -0.1281
 3509PP      PP13613  10.752   0.850   4.920 -0.0162  0.0844 -0.0787
 3510PP      PP13614   6.975  11.624  12.582 -0.1775 -0.1776 -0.2310
 3511PP      PP13615   4.951  11.679   0.123  0.0912 -0.1543  0.1566
 3512PP      PP13616  13.014   5.748   3.620 -0.1781 -0.1138  0.2520
 3513PP      PP13617   4.014   5.661   4.087  0.0675  0.3556  0.0173
 3514PP      PP13618   2.106   8.607  10.039  0.0285  0.0096 -0.1499
 3515PP      PP13619  11.433  11.815   2.504 -0.0498 -0.3124  0.0384
 3516PP      PP13620   8.132   5.759   2.612 -0.1059 -0.2387  0.2379
 3517PP      PP13621  12.418   5.446  10.091 -0.0805  0.2249  0.0893
 3518PP      PP13622   1.146   5.566   1.647  0.6086 -0.2838  0.1392
 3519PP      PP13623  11.378   2.982   1.012  0.1852 -0.1144 -0.1255
 3520PP      PP13624   1.162   1.583   1.406 -0.1613  0.1390  0.0321
 3521PP      PP13625  15.535  14.427   8.617  0.3760  0.0004 -0.1170
 3522PP      PP13626   8.439   5.198  12.666  0.1506 -0.0210  0.1275
 3523PP      PP13627   6.730  11.829  10.445 -0.0030 -0.0966 -0.0151
 3524PP      PP13628   3.293  12.099   3.205 -0.1043  0.2405  0.0183
 3525PP      PP13629   3.194   6.340   0.113  0.1797 -0.2383  0.2635
 3526PP      PP13630  15.644   9.880  13.253  0.2084  0.1039  0.2205
 3527PP      PP13631   4.060   3.142   1.400 -0.2458 -0.0761 -0.1304
 3528PP      PP13632   5.501   8.980  11.406 -0.0652 -0.2846  0.0237
 3529PP      PP13633  14.796   2.122  13.154  0.0330  0.2510  0.0000
 3530PP      PP13634   3.880   4.348  12.618 -0.0038  0.1766  0.0976
 3531PP      PP13635   3.729   2.965   2.949 -0.1165  0.2673 -0.0340
 3532PP      PP13636   2.637  12.280   9.971  0.0117 -0.0021  0.0384
 3533PP      PP13637   7.287   9.275  12.853  0.1593 -0.1745 -0.3989
 3534PP      PP13638   0.077  10.343   9.184 -0.2734 -0.0685 -0.4397
 3535PP      PP13639   9.642   1.360  12.316 -0.2188  0.1927  0.1376
 3536PP      PP13640  14.150   7.047   3.957 -0.0116 -0.1396 -0.0184
 3537PP      PP13641  12.877   6.399  11.742 -0.0681  0.1752 -0.1164
 3538PP      PP13642   7.030   6.418  13.300 -0.5148 -0.3184  0.3737
 3539PP      PP13643   4.616   8.540  11.438  0.1532  0.0090  0.1457
 3540PP      PP13644  15.070  14.738   0.778  0.0209 -0.0893  0.2598
 3541PP      PP13645   7.005   9.234   9.391  0.2028 -0.1443  0.1083
 3542PP      PP13646   5.674  15.928   2.705 -0.1221 -0.0539 -0.0566
 3543PP      PP13647   4.744   9.876   0.628 -0.0231  0.0854 -0.2128
 3544PP      PP13648   4.803   5.908   1.753 -0.0487  0.1401 -0.4878
 3545PP      PP13649  11.212   6.323  11.490 -0.1162  0.2491  0.0283
 3546PP      PP13650  12.916   0.144   3.863  0.1711  0.1651  0.0144
 3547PP      PP13651   6.436   0.307   0.217  0.4126 -0.2227  0.0551
 3548PP      PP13652   6.555  10.749   9.194  0.1519  0.1470 -0.1758
 3549PP      PP13653   7.078   5.598  12.853  0.1412  0.0283 -0.0228
 3550PP      PP13654   5.467   6.946   8.900  0.1383  0.1243  0.1130
 3551PP      PP13655   1.279  15.174   9.785  0.1453  0.0544 -0.1122
 3552PP      PP13656   6.882  15.264   9.080 -0.2199  0.1615  0.0793
 3553PP      PP13657  11.217   1.558   8.751  0.1087 -0.0660  0.1963
 3554PP      PP13658  11.435   9.748  10.267  0.0573  0.0673 -0.1541
 3555PP      PP13659   9.445   6.273   9.874 -0.0953 -0.2333 -0.2210
 3556PP      PP13660  10.920  11.690   9.100  0.1164  0.1245  0.0315
 3557PP      PP13661   2.025   5.071  10.771 -0.0201 -0.1315 -0.3330
 3558PP      PP13662  14.586   6.834   3.651 -0.1413 -0.1790  0.0882
 3559PP      PP13663   8.279   9.693   8.725 -0.1124  0.0295  0.1201
 3560PP      PP13664   7.390   3.102  12.831  0.2601  0.0386  0.0913
 3561PP      PP13665   5.064  15.486   8.454 -0.1267 -0.0010 -0.1701
 3562PP      PP13666   8.403   0.161  10.673  0.4872  0.0954 -0.0210
 3563PP      PP13667  11.917  13.493   9.968 -0.1310  0.1987 -0.2003
 3564PP      PP13668   4.331   1.932  10.129 -0.0243  0.1218 -0.0580
 3565PP      PP13669   2.138   9.385   1.242  0.3630 -0.1281 -0.3387
 3566PP      PP13670   2.927   1.137   0.689  0.2829  0.1017  0.1754
 3567PP      PP13671   8.328   8.907  12.883 -0.4407  0.2766 -0.0836
 3568PP      PP13672   2.640  12.661   0.991 -0.1041 -0.0110 -0.0209
 3569PP      PP13673   6.365   6.547  11.250  0.1318  0.1888 -0.5025
 3570PP      PP13674   3.989   3.682   1.745  0.2600 -0.2974 -0.0079
 3571PP      PP13675   6.768   9.896  11.312  0.2176 -0.2295 -0.0250
 3572PP      PP13676  10.961   8.713   8.894  0.2210  0.0032 -0.2256
 3573PP      PP13677   9.070   9.270   2.732  0.3744 -0.1762  0.1725
 3574PP      PP13678  12.827   7.374  12.649  0.2143  0.3367 -0.2907
 3575PP      PP13679   8.087   0.150   0.998  0.0078 -0.1218  0.0503
 3576PP      PP13680  11.481   8.487  10.371 -0.0463  0.2293  0.5556
 3577PP      PP13681  14.310  13.806  12.246 -0.3512 -0.0280 -0.2239
 3578PP      PP13682   5.629   3.980   1.044  0.4370 -0.1177 -0.5357
 3579PP      PP13683   2.411   9.724  12.896  0.1536 -0.0774  0.1683
 3580PP      PP13684   3.206  13.374   9.194 -0.0188 -0.0467  0.1856
 3581PP      PP13685  11.617   0.802  10.126 -0.5073  0.1625  0.2867
 3582PP      PP13686  15.543   8.598   9.486  0.0203 -0.1899  0.0286
 3583PP      PP13687  10.253   1.868  11.942 -0.0867  0.3013 -0.0151
 3584PP      PP13688   9.626  12.260   1.540 -0.1002  0.3949 -0.0740
 3585PP      PP13689   8.741   3.799  11.329 -0.0777  0.1827 -0.1486
 3586PP      PP13690   0.439  10.192   1.550 -0.2631  0.0913 -0.1050
 3587PP      PP13691  14.294  10.962   3.738  0.0450  0.4944 -0.1310
 3588PP      PP13692   7.234   6.681   2.320  0.1577  0.0475  0.1236
 3589PP      PP13693   1.839   1.719   2.462 -0.2207 -0.1116 -0.0316
 3590PP      PP13694   8.361   6.409   3.243  0.2687 -0.2568 -0.0576
 3591PP      PP13695   4.309   8.884   2.510  0.0807  0.0691 -0.1038
 3592PP      PP13696  12.206  13.352   3.479  0.1561  0.2752 -0.1122
 3593PP      PP13697  13.230   2.836   9.544  0.1681 -0.0757  0.0643
 3594PP      PP13698   7.660   0.111  11.264  0.1898 -0.1428  0.2964
 3595PP      PP13699  13.041   6.831   0.635 -0.0553  0.1120  0.1874
 3596PP      PP13700   4.906  12.133  12.034 -0.1532  0.2147  0.1860
 3597PP      PP13701   4.301   0.386  11.069 -0.3488 -0.0226 -0.1343
 3598PP      PP13702   1.572   4.407   1.035  0.0785 -0.0968 -0.0847
 3599PP      PP13703  14.466  15.619   3.770 -0.3706 -0.2442  0.2038
 3600PP      PP13704  13.357   4.118   9.456 -0.1469  0.0717 -0.1497
 3601PP      PP13705   3.729  14.253  12.666  0.1613  0.1735  0.0322
 3602PP      PP13706  13.069   1.146   2.310 -0.2102  0.0509  0.0912
 3603PP      PP13707   3.256   8.601  12.771 -0.1995 -0.2582 -0.0675
 3604PP      PP13708   2.819  14.246  13.110 -0.2466  0.1294 -0.1499
 3605PP      PP13709  13.906  12.118  12.693 -0.2201  0.1927 -0.3579
 3606PP      PP13710  15.046   4.740   2.045  0.1639 -0.0580 -0.1495
 3607PP      PP13711  13.176  12.720  10.158 -0.1179 -0.3578 -0.1307
 3608PP      PP13712  11.588   1.264   9.810  0.2376 -0.0344 -0.2679
 3609PP      PP13713  11.129   1.014   0.955 -0.0442 -0.0095  0.0873
 3610PP      PP13714   6.195  12.155  12.127  0.3267 -0.0021 -0.0378
 3611PP      PP13715  15.086  15.859   2.484  0.1742 -0.1119  0.3043
 3612PP      PP13716   7.515   9.053   3.903 -0.0577 -0.2288  0.2129
 3613PP      PP13717  11.419   6.654  11.136 -0.1111  0.3600  0.1045
 3614PP      PP13718   1.631   9.955   9.169 -0.0811 -0.0738 -0.2220
 3615PP      PP13719  12.411   5.023   9.842  0.2694  0.1294  0.1395
 3616PP      PP13720  14.474   7.253   1.270 -0.3857  0.1019  0.2500
 3617PP      PP13721   1.449  12.942   1.390  0.2847 -0.1174  0.0275
 3618PP      PP13722  13.212   7.853   2.620 -0.2378  0.3088  0.1457
 3619PP      PP13723   0.058   6.664  12.060 -0.1290 -0.0341  0.0374
 3620PP      PP13724  11.543   6.414  12.307 -0.3580  0.1598  0.3360
 3621PP      PP13725   2.500  10.145  12.160 -0.0828  0.0399  0.1562
 3622PP      PP13726  13.025  13.029   9.591 -0.0252  0.2434 -0.1156
 3623PP      PP13727  10.669   3.073  11.038 -0.2523 -0.0908 -0.1446
 3624PP      PP13728   9.218   5.116   2.512  0.0872  0.0635 -0.0731
 3625PP      PP13729  15.404  11.542   8.861  0.0091 -0.2744  0.0095
 3626PP      PP13730  14.388  10.429   1.829  0.0054  0.2853  0.2872
 3627PP      PP13731  10.366  11.813   0.347  0.2245 -0.0440 -0.0714
 3628PP      PP13732   4.868   8.823   9.532  0.2129 -0.0689  0.2435
 3629PP      PP13733  11.505   1.493  12.502  0.1033 -0.2188 -0.4121
 3630PP      PP13734  14.489  11.712   4.129 -0.0292  0.0862  0.1371
 3631PP      PP13735   8.875  15.498  10.405  0.2649  0.0820  0.0593
 3632PP      PP13736   7.747   6.440   2.561  0.2722 -0.1813 -0.1401
 3633PP      PP13737  10.877   5.188  12.017 -0.1851  0.0925 -0.0772
 3634PP      PP13738   1.189   1.177   1.798  0.0677  0.2856 -0.1698
 3635PP      PP13739   0.500   1.899   3.986  0.0100  0.2848 -0.0811
 3636PP      PP13740  13.111   8.285   3.591 -0.1471 -0.0733  0.1028
 3637PP      PP13741   3.479   5.882  10.738 -0.1667  0.1529 -0.0050
 3638PP      PP13742   2.733   4.267   1.363 -0.2125 -0.2752 -0.0026
 3639PP      PP13743  11.154   2.972   2.594 -0.2281 -0.1154  0.0269
 3640PP      PP13744  12.711   3.087  11.684  0.0832 -0.0171  0.2408
 3641PP      PP13745   7.264   1.829   2.131 -0.1643  0.0769  0.3659
 3642PP      PP13746  13.297   2.849  10.073  0.1192 -0.0418 -0.3005
 3643PP      PP13747   7.368  11.728  11.309  0.1055  0.1602  0.0475
 3644PP      PP13748   3.303   3.760   0.024  0.0564  0.0568 -0.1711
 3645PP      PP13749   7.056   0.250   0.037 -0.0032  0.0157 -0.2929
 3646PP      PP13750  15.708   3.519   0.287 -0.1852 -0.0034  0.0522
 3647PP      PP13751  12.569   9.732   2.301 -0.0638 -0.0374  0.0485
 3648PP      PP13752   5.052   9.964   0.231 -0.1439  0.3403 -0.2216
 3649PP      PP13753   8.114   5.265   0.419  0.1254 -0.1120 -0.0535
 3650PP      PP13754   7.658   3.625   4.006  0.0906 -0.1184  0.2636
 3651PP      PP13755  10.515  11.193  11.432  0.0091  0.3569 -0.0710
 3652PP      PP13756   0.614   6.354   2.134  0.1760 -0.0516 -0.1204
 3653PP      PP13757   7.680   4.687  12.171  0.3190  0.3289  0.0119
 3654PP      PP13758  13.614   6.078   0.209  0.1156  0.2615  0.1563
 3655PP      PP13759   9.314  10.500  12.166  0.3987 -0.1894 -0.0004
 3656PP      PP13760   0.786  13.565  11.775 -0.0057 -0.1757  0.1089
 3657PP      PP13761  11.442  13.465   2.932  0.1747  0.2090  0.1329
 3658PP      PP13762  12.270   4.469  12.382  0.2874 -0.1328 -0.0357
 3659PP      PP13763   6.830   2.938   9.026  0.3030  0.2628  0.1469
 3660PP      PP13764  15.409   6.841   2.142  0.0359 -0.0663 -0.1660
 3661PP      PP13765  15.204   2.348  12.459 -0.1072 -0.1898  0.0599
 3662PP      PP13766   8.080  15.061   2.305 -0.0150 -0.2097  0.1257
 3663PP      PP13767   5.838  14.194   8.670 -0.1087  0.0846  0.0649
 3664PP      PP13768   1.892  11.436   0.601 -0.1063 -0.0368 -0.0505
 3665PP      PP13769   6.932   1.470   2.239 -0.0524  0.3164 -0.0405
 3666PP      PP13770  10.156   6.132   4.268 -0.0774 -0.0647  0.0295
 3667PP      PP13771  14.332   2.069   0.044 -0.0945  0.0571 -0.0466
 3668PP      PP13772  11.520   2.760   4.465 -0.0184  0.3616  0.1950
 3669PP      PP13773   0.954  10.189   9.459 -0.3048 -0.0894 -0.1231
 3670PP      PP13774  11.969   6.963   9.218 -0.1494 -0.1340 -0.3353
 3671PP      PP13775   8.113   1.938   1.565 -0.3723  0.0761 -0.4244
 3672PP      PP13776   6.786   2.296   1.969 -0.1597 -0.2870 -0.1780
 3673PP      PP13777   2.338   0.128   9.496 -0.1680 -0.2098  0.0834
 3674PP      PP13778   3.509   5.636  11.153 -0.3901  0.1519  0.2101
 3675PP      PP13779   1.776  11.896  10.329  0.1171 -0.0211  0.0345
 3676PP      PP13780  14.724   2.548  13.330  0.1584  0.0246  0.2931
 3677PP      PP13781   3.056   7.510   0.715 -0.0736  0.0187 -0.2315
 3678PP      PP13782   3.469   0.868   3.753  0.0978 -0.0147  0.1791
 3679PP      PP13783  14.356   6.844  12.672 -0.2806 -0.1362  0.3384
 3680PP      PP13784  11.864   1.727   3.877 -0.0330 -0.0809  0.0903
 3681PP      PP13785   7.689  11.524   1.975  0.0593  0.3072  0.4331
 3682PP      PP13786   8.342   0.404   1.866  0.2345  0.0083  0.0741
 3683PP      PP13787   9.002   0.494  13.160  0.4432  0.3340  0.2941
 3684PP      PP13788   0.461  14.088   1.059 -0.0142 -0.0596 -0.0031
 3685PP      PP13789  12.643  10.271   4.492 -0.2282  0.0010  0.2044
 3686PP      PP13790  11.772   9.334   9.233  0.1482  0.0882 -0.1863
 3687PP      PP13791   0.074   9.162   3.205  0.0791 -0.1730  0.0680
 3688PP      PP13792  13.934  13.476   1.218 -0.0463  0.0257 -0.0609
 3689PP      PP13793   8.003   7.649   9.030 -0.2551 -0.1336  0.1024
 3690PP      PP13794   8.237  13.030  11.442 -0.1284 -0.1038  0.2268
 3691PP      PP13795  11.842   1.830  13.133  0.1576  0.1832 -0.2105
 3692PP      PP13796   3.071   2.898   3.731  0.0664 -0.0930  0.0723
 3693PP      PP13797   5.282   9.404   1.788  0.0348 -0.0446 -0.7130
 3694PP      PP13798  15.324  15.480   8.059  0.0171 -0.1158  0.2908
 3695PP      PP13799  11.727   1.323  12.944 -0.1316  0.1636 -0.3040
 3696PP      PP13800   9.255   8.800   4.301 -0.0334 -0.0677 -0.1435
 3697PP      PP13801   1.690   4.603   9.692 -0.1191 -0.0970 -0.1042
 3698PP      PP13802   6.239  12.359  10.814  0.1251 -0.0432 -0.0029
 3699PP      PP13803  14.612  15.326  10.363  0.0002  0.1983 -0.0228
 3700PP      PP13804  12.217   9.496   4.066 -0.2320  0.0358 -0.1710
 3701PP      PP13805  14.745   0.698   3.080  0.1342  0.2212  0.1767
 3702PP      PP13806   0.500   3.204   9.639 -0.1664 -0.2758 -0.0349
 3703PP      PP13807   7.823  14.451   9.396  0.1222 -0.0718 -0.1512
 3704PP      PP13808  14.599  11.982  13.278  0.0375 -0.0967 -0.3105
 3705PP      PP13809  11.377  13.375  11.436 -0.3595  0.2465 -0.0984
 3706PP      PP13810   4.711   2.752   2.480  0.2094 -0.1169 -0.2763
 3707PP      PP13811  14.996  11.712  12.935  0.2014  0.1017 -0.2866
 3708PP      PP13812  15.701   0.014  13.217  0.1093 -0.4166 -0.1405
 3709PP      PP13813   9.148  11.239   9.285 -0.0310  0.1847  0.2527
 3710PP      PP13814   0.372   6.165   3.009 -0.1261 -0.2347  0.1700
 3711PP      PP13815  13.795   9.392   9.681  0.0394 -0.0637 -0.0692
 3712PP      PP13816  14.818   2.737   0.920  0.1522 -0.0858  0.0664
 3713PP      PP13817  12.171   3.769  10.069 -0.0553 -0.0672  0.0026
 3714PP      PP13818  14.613   1.701  12.359 -0.0035 -0.1030  0.0591
 3715PP      PP13819   3.694   3.333  13.110  0.1557 -0.0589 -0.1421
 3716PP      PP13820  15.035   5.869  10.358  0.2146  0.4177 -0.0427
 3717PP      PP13821  10.374  11.668  13.172 -0.1788  0.0795  0.1269
 3718PP      PP13822  12.913  13.906  12.162 -0.0407 -0.0391 -0.1140
 3719PP      PP13823   6.308   0.182  11.667 -0.0300  0.1284 -0.0538
 3720PP      PP13824   0.644   2.340   3.828 -0.0369 -0.0318  0.1288
 3721PP      PP13825  11.706   5.375   2.886  0.3626  0.3680 -0.0813
 3722PP      PP13826  13.599  14.665   8.834 -0.1857 -0.0509  0.1664
 3723PP      PP13827   8.457  11.590   0.735  0.0494 -0.2975  0.2079
 3724PP      PP13828   3.073   8.819  11.942 -0.3749 -0.1068  0.3108
 3725PP      PP13829   4.915  15.407   1.874 -0.1433  0.3835 -0.0710
 3726PP      PP13830  15.703  13.730  10.719 -0.2538  0.0609 -0.3187
 3727PP      PP13831   2.192  10.646   3.156 -0.1891 -0.2749 -0.0102
 3728PP      PP13832   7.419  12.424  10.814  0.0736  0.2042 -0.3896
 3729PP      PP13833   4.929   8.679   8.416 -0.0044 -0.0912 -0.0259
 3730PP      PP13834   2.902   8.155  11.328 -0.2611  0.1113  0.1041
 3731PP      PP13835   0.895   0.436   3.033  0.1526 -0.0541 -0.1873
 3732PP      PP13836   4.060   2.542  13.371 -0.0429  0.2761  0.2221
 3733PP      PP13837   7.251   1.428  11.735 -0.2646  0.0245  0.0818
 3734PP      PP13838  10.631  14.559   3.453  0.2096 -0.0055 -0.1868
 3735PP      PP13839   7.699   9.499   2.817  0.3110 -0.0037  0.2644
 3736PP      PP13840   2.604   5.648   0.474  0.1495  0.2522 -0.0992
 3737PP      PP13841  12.063  10.670   9.204 -0.0607  0.0290  0.1888
 3738PP      PP13842  11.200  11.181   9.007  0.0769  0.3143 -0.5831
 3739PP      PP13843   8.613   6.063   2.991 -0.0067  0.1456 -0.0057
 3740PP      PP13844  15.621   5.532   3.854 -0.1673 -0.2177 -0.4708
 3741PP      PP13845  13.853   5.893   1.255  0.2640  0.2908 -0.0939
 3742PP      PP13846  10.072   3.774  12.219 -0.4100 -0.0160 -0.0590
 3743PP      PP13847  12.218   4.980   0.555 -0.1967  0.2711 -0.1898
 3744PP      PP13848   8.344  10.622   0.429  0.0338 -0.2005  0.2702
 3745PP      PP13849   7.931   0.654   0.784 -0.0944  0.0934  0.0858
 3746PP      PP13850  10.877   3.919   0.882 -0.1844  0.1404  0.0991
 3747PP      PP13851   9.304   2.043   3.428  0.0106 -0.3061  0.1363
 3748PP      PP13852  14.331  10.020   9.210 -0.0523  0.1021  0.1531
 3749PP      PP13853   6.232   2.494  12.880 -0.1156  0.1431 -0.2303
 3750PP      PP13854  15.342  10.694  10.449  0.2149 -0.1225  0.2216
 3751PP      PP13855   2.600   0.488   8.728 -0.0691 -0.2490 -0.1045
 3752PP      PP13856   7.696   7.673  12.150 -0.1462 -0.2114  0.0886
 3753PP      PP13857   9.749   1.915  10.017 -0.1657  0.1269  0.0310
 3754PP      PP13858   9.834  12.349   2.017 -0.0301 -0.3208 -0.0715
 3755PP      PP13859   9.090   2.325   4.311 -0.1689  0.0599 -0.0197
 3756PP      PP13860   6.440   6.539   3.708 -0.2773 -0.0689  0.0668
 3757PP      PP13861  12.465  10.546  11.006 -0.1011  0.3953  0.2819
 3758PP      PP13862   3.415   0.429  11.479  0.0075  0.2881  0.1146
 3759PP      PP13863   4.668   0.107  10.163  0.4601 -0.1870 -0.1055
 3760PP      PP13864   8.926   3.568  12.847 -0.0668 -0.1116 -0.1179
 3761PP      PP13865  12.404  14.783   3.727 -0.1374 -0.0726  0.1173
 3762PP      PP13866   0.560   9.477  11.396  0.1443 -0.2414 -0.0982
 3763PP      PP13867   7.393  13.199   3.517  0.1603 -0.1415 -0.0366
 3764PP      PP13868   0.760   7.935   2.329 -0.2143  0.0463  0.2212
 3765PP      PP13869   0.546   9.279  10.466 -0.0567 -0.2124 -0.1467
 3766PP      PP13870  10.414   0.460   2.784  0.0179  0.4824  0.2490
 3767PP      PP13871  11.699  11.542   2.936  0.1341  0.0745  0.1288
 3768PP      PP13872   9.570  10.560   1.526 -0.0345  0.2137  0.0332
 3769PP      PP13873   1.950  11.707   8.405  0.1822 -0.1107  0.0988
 3770PP      PP13874   9.769   0.819   1.444 -0.2392  0.0069  0.1984
 3771PP      PP13875   5.288  14.470   2.347  0.0429  0.1066  0.3091
 3772PP      PP13876   9.043  12.908   3.349 -0.0135 -0.1480 -0.4570
 3773PP      PP13877   5.679   1.612   0.148 -0.2354  0.2001  0.1216
 3774PP      PP13878   3.574  14.162   3.001 -0.0872 -0.4110 -0.0934
 3775PP      PP13879   8.441  13.885  10.888  0.0769  0.0815 -0.1259
 3776PP      PP13880   5.717  14.268   3.266 -0.3635 -0.0569  0.0511
 3777PP      PP13881   0.899  13.297   3.859 -0.0828 -0.3070  0.1129
 3778PP      PP13882   3.088   5.745   3.666  0.0843  0.1830  0.4089
 3779PP      PP13883  12.827   7.551   9.262  0.1106  0.0157  0.1203
 3780PP      PP13884   8.501   3.044   2.565  0.2935 -0.2047 -0.0227
 3781PP      PP13885  10.416   0.796  11.006 -0.2877  0.3032  0.0674
 3782PP      PP13886  11.280  12.853   3.811  0.0042  0.1593  0.0024
 3783PP      PP13887   1.428  14.453   8.553  0.0364  0.1927 -0.4405
 3784PP      PP13888  14.496  14.811   9.630  0.0953  0.3460 -0.2968
 3785PP      PP13889  10.047   2.954   0.078  0.1505  0.0142 -0.1569
 3786PP      PP13890   0.574   2.569   1.601  0.2724  0.3633  0.1186
 3787PP      PP13891  12.551  13.585   0.188 -0.0980 -0.3849  0.0295
 3788PP      PP13892  13.400  12.806  12.279 -0.1328 -0.2593  0.2364
 3789PP      PP13893   6.763   6.352   4.443  0.0194 -0.4270 -0.2154
 3790PP      PP13894  11.327   2.407   1.685 -0.0870  0.0675  0.1149
 3791PP      PP13895   7.235   1.569   9.576  0.1057 -0.0361  0.0371
 3792PP      PP13896   6.309   8.194   9.929 -0.2282 -0.1571  0.0548
 3793PP      PP13897   6.491   1.169   9.207 -0.0650  0.2213 -0.2956
 3794PP      PP13898   1.878   5.059   4.465  0.2754  0.1518  0.1871
 3795PP      PP13899   9.504  15.153   2.015  0.0993  0.0984  0.4198
 3796PP      PP13900   1.435   2.399   2.965 -0.1456  0.4037 -0.0593
 3797PP      PP13901  10.249  11.408   9.176 -0.1415 -0.1132  0.0874
 3798PP      PP13902  10.529   2.938   1.817  0.4149 -0.2233 -0.0932
 3799PP      PP13903   4.254  15.574   9.948 -0.2070 -0.0945  0.1802
 3800PP      PP13904   6.207   8.378   2.405  0.3956 -0.0369 -0.1382
 3801PP      PP13905   5.753   4.963   2.219  0.3217 -0.0476  0.2181
 3802PP      PP13906   1.911  11.113   1.313 -0.1392  0.3032 -0.3082
 3803PP      PP13907   1.192   3.127  11.054 -0.2473  0.1844  0.2546
 3804PP      PP13908  15.321   0.015  11.117 -0.2740 -0.0246  0.1882
 3805PP      PP13909   3.230   8.974  11.130 -0.3784  0.0052  0.2605
 3806PP      PP13910   5.899  14.769   3.581  0.4336 -0.1747 -0.1383
 3807PP      PP13911  13.137   5.854   0.092  0.1480 -0.1169  0.4749
 3808PP      PP13912   1.801  12.477  10.309 -0.3242  0.0087 -0.0165
 3809PP      PP13913  10.884   7.705   8.905 -0.1573 -0.1776 -0.1952
 3810PP      PP13914  15.830   4.107   8.335 -0.0848 -0.1437 -0.2573
 3811PP      PP13915   4.347   9.965   1.729  0.0267  0.0431  0.0876
 3812PP      PP13916  13.350   3.930   3.154  0.1315 -0.4550 -0.3449
 3813PP      PP13917   2.227   4.283   0.454  0.1119 -0.0705  0.1983
 3814PP      PP13918  13.438  11.014   1.042 -0.0567  0.2807 -0.2360
 3815PP      PP13919  14.067  14.337   3.157 -0.0581  0.3051 -0.0987
 3816PP      PP13920   4.702   7.535   9.360  0.1959 -0.1578 -0.0085
 3817PP      PP13921   2.349  14.170   9.663 -0.0742 -0.1415  0.2160
 3818PP      PP13922   9.327  15.223   3.717  0.1888  0.2991 -0.1177
 3819PP      PP13923   7.287   7.535   0.456  0.0152 -0.2554  0.0700
 3820PP      PP13924   4.506  10.292   0.309 -0.1314  0.1805  0.0151
 3821PP      PP13925  11.423   4.302   3.223 -0.2225 -0.2544  0.2874
 3822PP      PP13926   0.044   5.633   3.192 -0.0840 -0.1038  0.1334
 3823PP      PP13927   0.828   3.856   4.055  0.0250  0.3410  0.1088
 3824PP      PP13928  13.380   2.282   1.061  0.1332  0.0119 -0.0497
 3825PP      PP13929   9.750   9.821  11.685 -0.0701 -0.1192  0.1439
 3826PP      PP13930  15.626  14.646   9.529 -0.2796 -0.1018  0.1585
 3827PP      PP13931   2.153   0.156  13.169 -0.0281 -0.1529  0.1491
 3828PP      PP13932  13.319  12.499   1.596 -0.1576  0.3202  0.3273
 3829PP      PP13933  15.095   1.613  11.445 -0.0674 -0.2193  0.0066
 3830PP      PP13934   3.412   5.684   1.198 -0.0523 -0.1678 -0.0400
 3831PP      PP13935  15.564  14.275  12.820 -0.0900  0.0949 -0.1902
 3832PP      PP13936  12.969  13.252   1.135 -0.3043 -0.1330 -0.0633
 3833PP      PP13937  12.744   5.310  11.679  0.1944 -0.1276 -0.2086
 3834PP      PP13938   8.556   7.462   2.278  0.0220 -0.0901  0.0220
 3835PP      PP13939   8.406   5.448   3.428 -0.0644 -0.0367 -0.1490
 3836PP      PP13940   1.958   4.772   1.764  0.4835  0.0890  0.0253
 3837PP      PP13941   7.422  14.302  11.511 -0.2077 -0.2047  0.0579
 3838PP      PP13942  13.283   7.586  12.909  0.3199  0.1676  0.1205
 3839PP      PP13943   1.992   8.606  10.507 -0.3791  0.0577 -0.4990
 3840PP      PP13944   8.872  14.145   0.184 -0.0912  0.1570  0.1399
 3841PP      PP13945   4.554   1.485  10.350  0.1017  0.1107 -0.1219
 3842PP      PP13946   6.393  15.860   4.146 -0.2107  0.0964 -0.1994
 3843PP      PP13947   4.661  14.812  10.360 -0.3016 -0.1824  0.3283
 3844PP      PP13948   9.792   0.564  12.884 -0.0939  0.1276  0.4115
 3845PP      PP13949   5.248   7.486  11.796 -0.0148 -0.0140  0.1456
 3846PP      PP13950  11.934  13.656  10.817 -0.0635 -0.2084  0.1211
 3847PP      PP13951   9.271   5.520   4.125  0.1666 -0.2991  0.2331
 3848PP      PP13952   1.391   2.112  11.975  0.0922 -0.2544  0.0491
 3849PP      PP13953   8.301   1.119   3.747  0.1385 -0.3056 -0.0674
 3850PP      PP13954   1.384   8.302   3.257  0.0087  0.0640 -0.1443
 3851PP      PP13955   4.664   2.968  11.091 -0.1571  0.2834 -0.0887
 3852PP      PP13956   5.975   5.091   0.826 -0.0979 -0.0314 -0.0344
 3853PP      PP13957  14.530   8.614  10.484 -0.1720 -0.0748 -0.2702
 3854PP      PP13958  15.357  14.646   9.004  0.0044 -0.3955 -0.3023
 3855PP      PP13959   0.328  10.395  11.470  0.0537  0.0348 -0.1230
 3856PP      PP13960   6.160  12.183   8.306  0.0263 -0.1361 -0.2293
 3857PP      PP13961  15.531   0.120   7.994 -0.0674  0.1055 -0.2529
 3858PP      PP13962   9.401   2.535  10.530  0.2185 -0.0578 -0.0210
 3859PP      PP13963  14.520  14.650   2.147 -0.2016  0.1826 -0.0067
 3860PP      PP13964   5.701   7.680  11.671  0.0836  0.1383 -0.2973
 3861PP      PP13965   1.096   9.419   2.052  0.2256 -0.1715  0.0656
 3862PP      PP13966  11.032   2.328  10.337 -0.0515 -0.0352  0.1000
 3863PP      PP13967   1.922  15.296  10.805 -0.1973  0.3975  0.0492
 3864PP      PP13968  12.564   8.141  11.799 -0.1206  0.0947  0.0554
 3865PP      PP13969  12.388   3.369   9.792  0.1042  0.0080 -0.2523
 3866PP      PP13970   7.518   5.000   4.036  0.2259  0.0438 -0.0098
 3867PP      PP13971  10.381   6.481  12.502  0.2640 -0.1971 -0.0428
 3868PP      PP13972   8.392   0.907   2.330 -0.1675 -0.0592  0.1111
 3869PP      PP13973   8.027  11.243   1.735  0.0133 -0.0468 -0.1896
 3870PP      PP13974   2.525  14.605   9.461 -0.5141  0.1428 -0.1782
 3871PP      PP13975   3.819   8.660   0.317  0.2012  0.0887  0.0276
 3872PP      PP13976  15.221   7.310   0.596  0.2585  0.1311 -0.2855
 3873PP      PP13977  13.255   0.871  12.588  0.0722  0.6232 -0.2828
 3874PP      PP13978   3.594   8.154  10.070 -0.0176  0.2362  0.0866
 3875PP      PP13979   9.155   6.273  13.050  0.1022 -0.1885 -0.1155
 3876PP      PP13980   8.748  13.324   8.865 -0.1443  0.0755  0.1915
 3877PP      PP13981   1.096   7.509   9.224 -0.1632 -0.0087  0.3071
 3878PP      PP13982   8.975  14.135   3.372 -0.0617  0.0214 -0.2942
 3879PP      PP13983   7.938  10.788   0.208 -0.2983  0.0768 -0.3997
 3880PP      PP13984   5.905   0.260   3.615  0.0603 -0.0189 -0.0209
 3881PP      PP13985   0.310   1.064   7.008  0.0949  0.0342 -0.3822
 3882PP      PP13986   3.038   4.367   3.819  0.0437 -0.0751  0.2320
 3883PP      PP13987   7.756  15.294  11.688  0.0394 -0.0306  0.0968
 3884PP      PP13988   5.605   4.467  12.362  0.0351 -0.2696  0.1303
 3885PP      PP13989   6.938   7.064   2.669  0.1322 -0.0496 -0.1712
 3886PP      PP13990   8.669  11.077   9.334 -0.0671 -0.2687 -0.2082
 3887PP      PP13991   0.457   2.647   9.727  0.0688 -0.0923  0.0778
 3888PP      PP13992  15.388   7.546  10.313  0.2332  0.0747 -0.1428
 3889PP      PP13993  13.197   3.968   8.994 -0.0456  0.2236 -0.5403
 3890PP      PP13994   5.780  10.673   1.955 -0.2092 -0.2548  0.0535
 3891PP      PP13995  12.747   0.214   4.336 -0.1067 -0.2269 -0.0857
 3892PP      PP13996  13.695   9.343  13.224 -0.1035 -0.0794  0.1424
 3893PP      PP13997   3.705  11.930  11.377  0.1702 -0.3433  0.5187
 3894PP      PP13998  12.191  14.158  12.087 -0.2269 -0.0960 -0.0014
 3895PP      PP13999   9.588  12.728   4.555  0.3632  0.2797  0.0108
 3896PP      PP14000   3.888   6.265   2.693 -0.1263 -0.1420  0.0940
 3897PP      PP14001   8.297   0.672   9.412  0.2366  0.1091  0.0268
 3898PP      PP14002   4.914  14.576  12.700 -0.0188  0.2052 -0.2517
 3899PP      PP14003   6.449   9.224   9.982 -0.0502  0.0308  0.0044
 3900PP      PP14004   1.207   1.827  10.159  0.1320  0.0439 -0.0826
 3901PP      PP14005   8.260   2.320   2.389 -0.2818 -0.0732 -0.0417
 3902PP      PP14006   0.917   5.388   2.870 -0.3748 -0.1350 -0.0950
 3903PP      PP14007  11.749  15.228  11.368  0.1139  0.1366  0.0619
 3904PP      PP14008   8.455   5.029  12.072  0.0451  0.2744 -0.1854
 3905PP      PP14009   5.616   3.516  12.641  0.0844  0.4294  0.1156
 3906PP      PP14010  10.126   2.143   9.522  0.0634 -0.2116  0.3472
 3907PP      PP14011   4.134   4.995   0.435 -0.0609  0.1959 -0.0242
 3908PP      PP14012  15.253   0.937   9.605  0.2291 -0.0782 -0.0124
 3909PP      PP14013   9.305  13.281   5.001 -0.0694  0.0706  0.1786
 3910PP      PP14014   7.891   5.493   3.443  0.0706 -0.1029 -0.0598
 3911PP      PP14015  15.786   9.751   1.299 -0.1460 -0.3665 -0.2134
 3912PP      PP14016   7.517  12.742   1.077 -0.2403  0.1379  0.0559
 3913PP      PP14017   4.016   5.904   9.073  0.0229  0.0740 -0.1275
 3914PP      PP14018   2.525   3.150   3.412  0.2173 -0.1052 -0.1254
 3915PP      PP14019   5.897  13.776   3.050  0.2149  0.1761 -0.1855
 3916PP      PP14020   6.735   6.039   2.693 -0.0507 -0.1453 -0.2296
 3917PP      PP14021   6.917   1.078   3.506 -0.2170  0.3049 -0.2260
 3918PP      PP14022   8.555   5.975   2.462  0.2754  0.1443 -0.0061
 3919PP      PP14023   7.027  13.828  12.551  0.0751  0.1424  0.0687
 3920PP      PP14024   5.284   0.829   0.082  0.1103 -0.0281  0.1865
 3921PP      PP14025   8.781  15.353   1.686 -0.0987 -0.0183  0.4231
 3922PP      PP14026   6.185   2.029   3.083  0.1636 -0.3103 -0.2854
 3923PP      PP14027  15.542   2.629   0.628 -0.0257 -0.3317 -0.1139
 3924PP      PP14028  15.093   3.100   2.833 -0.0218 -0.2090 -0.0011
 3925PP      PP14029   4.529   1.763   0.064  0.1248  0.1604  0.0431
 3926PP      PP14030   3.830  15.159   2.881  0.2063 -0.1237  0.0862
 3927PP      PP14031   3.447   5.835  13.304  0.1605  0.2244 -0.0071
 3928PP      PP14032   7.758   9.949   3.176 -0.1417 -0.2598  0.1202
 3929PP      PP14033   7.842  12.099   1.180  0.2062  0.0779 -0.0475
 3930PP      PP14034   9.095   8.531   4.772  0.0043  0.1314 -0.2448
 3931PP      PP14035   9.622   9.679   1.199 -0.3120  0.1861  0.3747
 3932PP      PP14036   3.873   9.012   4.058  0.2542 -0.2477  0.2131
 3933PP      PP14037   1.654   3.023  10.769  0.1795 -0.5038 -0.5625
 3934PP      PP14038   8.157   0.944   3.306  0.1196  0.1824  0.3604
 3935PP      PP14039  11.550  12.159   2.864  0.0040  0.2399 -0.0521
 3936PP      PP14040   5.946   7.815   0.325 -0.2215  0.0393 -0.1965
 3937PP      PP14041   8.184   1.072  12.615  0.2150  0.0244 -0.2236
 3938PP      PP14042  10.930  15.088   1.326  0.4478  0.1986  0.0215
 3939PP      PP14043   5.951  12.811   2.596 -0.0678 -0.1925 -0.3898
 3940PP      PP14044  14.144   4.703  13.189 -0.0649 -0.3775  0.2592
 3941PP      PP14045   7.973   5.725  11.699  0.1243  0.2840  0.0278
 3942PP      PP14046   3.247  12.454  12.095 -0.1734  0.1365  0.0248
 3943PP      PP14047   4.722   8.772   4.815 -0.2533  0.0991  0.2168
 3944PP      PP14048   7.164   5.942  11.043  0.0953 -0.2786  0.0383
 3945PP      PP14049   8.340   0.638   1.345 -0.0154 -0.2418 -0.1088
 3946PP      PP14050  15.853   8.076  12.261 -0.0343  0.1782 -0.0257
 3947PP      PP14051   4.693   7.366   4.867  0.0137  0.1469 -0.0802
 3948PP      PP14052   7.798  10.285   9.390  0.2092  0.0325 -0.1196
 3949PP      PP14053  12.712   5.072  10.348 -0.0047 -0.1467 -0.0385
 3950PP      PP14054   3.553   2.902   1.281 -0.0899  0.1261  0.2078
 3951PP      PP14055   7.655   3.150   1.509  0.2019 -0.1566  0.0926
 3952PP      PP14056   9.703   3.816   3.419 -0.1687  0.0656 -0.0121
 3953PP      PP14057   1.386  10.958   2.234 -0.0901  0.2343 -0.0494
 3954PP      PP14058   3.902   6.342  11.277 -0.0577  0.0481 -0.0610
 3955PP      PP14059   1.061   8.616   9.828  0.2963  0.1282  0.4018
 3956PP      PP14060   0.912   2.484  13.148  0.0465 -0.3046  0.3533
 3957PP      PP14061   7.251   5.783  10.562 -0.1625 -0.0179  0.0120
 3958PP      PP14062   1.333   0.575  10.042 -0.0773  0.0067  0.2631
 3959PP      PP14063   0.627   2.229   0.090  0.0291  0.0688  0.0399
 3960PP      PP14064   3.788   5.158   9.393 -0.1791 -0.1396 -0.0603
 3961PP      PP14065  12.399  10.185  10.671  0.0365  0.0769 -0.0512
 3962PP      PP14066   3.228  10.320  13.004  0.3532 -0.0590 -0.0523
 3963PP      PP14067   0.020   1.069   1.480  0.1705  0.3217  0.1677
 3964PP      PP14068  15.742   7.332   4.142  0.4372  0.1330 -0.1798
 3965PP      PP14069   1.680   6.844   3.038 -0.0876 -0.0463  0.2439
 3966PP      PP14070  15.719  14.918   1.208 -0.3254  0.3781  0.3288
 3967PP      PP14071   1.162  14.933  10.248 -0.1927 -0.2039  0.0172
 3968PP      PP14072  11.979  11.629   2.545  0.2136 -0.1116 -0.1987
 3969PP      PP14073  15.583  10.418   2.721  0.4099  0.0155  0.0197
 3970PP      PP14074  11.307   6.364  12.775 -0.0773 -0.0895  0.1112
 3971PP      PP14075   9.176   0.451   2.197 -0.2011 -0.2211  0.2512
 3972PP      PP14076  15.605   7.805   9.625  0.1399 -0.0228  0.0383
 3973PP      PP14077   7.224  11.722   9.177 -0.0237 -0.5741  0.0725
 3974PP      PP14078  14.139   9.866  11.045 -0.0560  0.0076  0.0790
 3975PP      PP14079   3.924   1.766   8.876  0.1077 -0.0674  0.1226
 3976PP      PP14080   8.500  14.292   3.141  0.3148 -0.0082 -0.1121
 3977PP      PP14081   0.158  14.752   2.727 -0.0300 -0.0805 -0.1048
 3978PP      PP14082  10.907   2.897   2.127  0.2261  0.3043  0.0857
 3979PP      PP14083   4.108  11.849   2.913  0.2102  0.2151 -0.1914
 3980PP      PP14084  14.701   9.427   1.074  0.0686 -0.0361  0.0648
 3981PP      PP14085   1.752   5.804  10.775  0.0134  0.0420  0.2351
 3982PP      PP14086   6.981  14.897  11.501  0.2022 -0.1094  0.2255
 3983PP      PP14087   3.988  13.973   2.640  0.0010  0.0746 -0.2026
 3984PP      PP14088  12.082   4.181   8.819 -0.2375  0.4214  0.0792
 3985PP      PP14089  10.538   7.105   4.057  0.1053  0.1044  0.0482
 3986PP      PP14090   6.079  10.261   3.216  0.0048  0.1074  0.0386
 3987PP      PP14091   7.925  13.655   4.188  0.1850 -0.4568  0.2286
 3988PP      PP14092  11.442  13.920  12.619 -0.3117  0.5393 -0.0203
 3989PP      PP14093  10.487   9.783   8.786  0.0991  0.0170 -0.1875
 3990PP      PP14094  12.578   7.654   0.815  0.3184  0.0476 -0.1026
 3991PP      PP14095   9.779   8.220  12.451  0.1067  0.0228  0.1125
 3992PP      PP14096  15.507   6.824   2.624 -0.3175  0.2461 -0.1964
 3993PP      PP14097   8.148   9.874  10.646 -0.0425 -0.0455 -0.3905
 3994PP      PP14098   9.517   6.343  10.542  0.0334  0.1817 -0.2504
 3995PP      PP14099   9.904   8.407   3.226  0.4280  0.1577 -0.1581
 3996PP      PP14100  13.746  12.471   4.286 -0.0071  0.0003  0.1206
 3997PP      PP14101   6.718   8.263   9.327  0.0433  0.1807  0.1136
 3998PP      PP14102   7.896  12.507  10.972  0.0700  0.1147  0.0778
 3999PP      PP14103   7.872   7.607   4.877  0.1231 -0.1495  0.1301
 4000PP      PP14104   2.859   6.819   9.977 -0.1325  0.0085 -0.0656
 4001PP      PP14105   8.171  13.021   9.973 -0.0597  0.0001 -0.0878
 4002PP      PP14106  10.231  10.483  10.304 -0.1673 -0.1484 -0.0790
 4003PP      PP14107   2.155  10.217   3.524  0.0707 -0.1218  0.3327
 4004PP      PP14108  11.244  12.323   4.633 -0.0473  0.1389  0.0822
 4005PP      PP14109   4.667  12.732   9.604  0.4300 -0.2994 -0.1871
 4006PP      PP14110   6.785  11.897   2.049  0.0962 -0.1724  0.2337
 4007PP      PP14111  10.621  15.439   1.110  0.0401  0.3960 -0.0563
 4008PP      PP14112   8.679  12.949   9.177  0.2651 -0.1232  0.2830
 4009PP      PP14113   2.232   5.965  11.058  0.0037  0.1514  0.0722
 4010PP      PP14114   3.780   1.128   2.442  0.2169 -0.3101 -0.2630
 4011PP      PP14115   4.858  15.461   0.362 -0.1236 -0.0918 -0.0320
 4012PP      PP14116  11.787   1.884   4.327  0.0254  0.1159  0.1283
 4013PP      PP14117  10.305   3.296  11.797  0.1206 -0.1421  0.1201
 4014PP      PP14118   9.299  15.436   4.766  0.1638 -0.1195 -0.0205
 4015PP      PP14119  11.923  12.958  10.476  0.0413  0.0625  0.1935
 4016PP      PP14120  10.867  10.391  11.164 -0.0084  0.2122  0.2751
 4017PP      PP14121   1.568   1.799  12.860  0.1290 -0.1793 -0.0178
 4018PP      PP14122   9.632   5.399   0.177  0.1790  0.0343  0.1118
 4019PP      PP14123  10.785   4.085   1.331 -0.0588  0.1466 -0.0956
 4020PP      PP14124  12.939   2.107   3.209  0.0352  0.0324  0.3848
 4021PP      PP14125   1.716  13.558   9.389 -0.0736  0.1749 -0.3272
 4022PP      PP14126   4.459   7.358  11.344 -0.1283 -0.2365  0.1659
 4023PP      PP14127   8.356   2.508   3.328  0.0572  0.3410 -0.1862
 4024PP      PP14128   1.716  12.103  13.215  0.3370 -0.1737  0.2176
 4025PP      PP14129   7.918  15.217   9.311  0.0149 -0.1424  0.2298
 4026PP      PP14130   0.271  13.634  10.571 -0.1571 -0.1483  0.1099
 4027PP      PP14131   6.103  10.302   4.055  0.1251 -0.0789 -0.0087
 4028PP      PP14132   5.294  13.755   8.161 -0.1265 -0.1652  0.1506
 4029PP      PP14133   7.039  11.639  10.890  0.1013 -0.1607  0.4408
 4030PP      PP14134  10.524   2.326  12.117  0.0473 -0.4557  0.0687
 4031PP      PP14135   8.960   6.647   4.778 -0.1447  0.0512 -0.0544
 4032PP      PP14136   5.276   8.587  11.705  0.1131 -0.2905  0.0294
 4033PP      PP14137   1.372  15.737  13.072 -0.1951  0.3659  0.0951
 4034PP      PP14138  15.102  11.140   4.016  0.1250 -0.2582 -0.0304
 4035PP      PP14139   7.983   3.933  11.418  0.2229 -0.1118 -0.0342
 4036PP      PP14140   2.420  10.192  13.156 -0.1636  0.1661  0.0132
 4037PP      PP14141   9.725   6.692   2.081 -0.2365 -0.0204  0.0531
 4038PP      PP14142  12.897  12.259  10.927  0.0897  0.0240 -0.0334
 4039PP      PP14143   3.978  15.688   1.717  0.1496  0.0900 -0.1373
 4040PP      PP14144  11.967   3.162  11.155  0.1770 -0.2777  0.0224
 4041PP      PP14145   6.236   4.648   0.806 -0.2892 -0.1052 -0.1460
 4042PP      PP14146   2.786   5.791  11.927 -0.1545 -0.2603 -0.0351
 4043PP      PP14147   6.404   1.970   0.501 -0.0418 -0.0111  0.2788
 4044PP      PP14148   1.985   3.216  12.504 -0.1654 -0.1263  0.0707
 4045PP      PP14149   8.529   4.612  13.279  0.1074 -0.1750  0.0103
 4046PP      PP14150   1.893   4.183   1.968  0.0755  0.4328 -0.0165
 4047PP      PP14151   6.712   0.799   4.588 -0.1502 -0.1797  0.0406
 4048PP      PP14152  14.056  14.432  10.978 -0.0624  0.0178  0.1764
 4049PP      PP14153  10.302  11.467   2.032  0.2283 -0.2340  0.0936
 4050PP      PP14154   2.832  12.988   9.085 -0.0647  0.2774  0.0161
 4051PP      PP14155  13.791   8.518   0.245  0.1467 -0.0987  0.0937
 4052PP      PP14156   9.173   0.642   4.577  0.1296  0.1187 -0.0956
 4053PP      PP14157   9.928  11.354  10.002  0.2616  0.3000 -0.1278
 4054PP      PP14158  13.588   7.968   3.952 -0.1329 -0.3729  0.1607
 4055PP      PP14159   6.542   2.240  10.818  0.2130  0.0524  0.3884
 4056PP      PP14160   3.787  10.975   0.091 -0.1686 -0.0882  0.1292
 4057PP      PP14161  10.864  11.021   0.418 -0.1109 -0.1288 -0.3633
 4058PP      PP14162   8.688   6.865   9.342 -0.2655 -0.0201  0.1393
 4059PP      PP14163   0.315   7.055   9.893 -0.1348 -0.1483 -0.0756
 4060PP      PP14164   1.081   8.877   3.909  0.1465  0.0999  0.1007
 4061PP      PP14165   4.754   5.322   1.137  0.1837  0.2167 -0.0645
 4062PP      PP14166   4.795   4.713  11.835 -0.2423 -0.0618  0.1292
 4063PP      PP14167  11.070  14.704  11.294 -0.0466  0.0139  0.0342
 4064PP      PP14168   8.677   5.625  10.158  0.0938  0.1407 -0.1352
 4065PP      PP14169   7.635  11.397   3.489  0.1077 -0.2758 -0.1388
 4066PP      PP14170   4.912   3.212   3.860 -0.0854  0.0723  0.0997
 4067PP      PP14171  11.945   3.178   0.343  0.0141 -0.1975  0.0822
 4068PP      PP14172   3.357  11.763  12.607  0.4338 -0.3281 -0.0654
 4069PP      PP14173   9.916  10.396   9.967  0.2061  0.0547  0.0829
 4070PP      PP14174   5.412  15.395   1.571 -0.2137 -0.2267  0.0371
 4071PP      PP14175   5.631   1.599   9.453 -0.1101 -0.0573  0.0440
 4072PP      PP14176   2.232  15.005   9.682  0.0838  0.1345 -0.0009
 4073PP      PP14177   6.563   8.998   4.058 -0.2476 -0.1081 -0.0356
 4074PP      PP14178  10.418  13.311   2.930  0.0765  0.1560  0.1397
 4075PP      PP14179  13.167   9.528   1.747 -0.1876  0.1234  0.0743
 4076PP      PP14180   6.757  14.091   9.651  0.1960 -0.1997 -0.3025
 4077PP      PP14181   0.426   4.219   3.745 -0.0142 -0.0298  0.1510
 4078PP      PP14182  12.357  10.743   1.594  0.1820  0.2082  0.0682
 4079PP      PP14183  10.301   2.118   3.319 -0.0209 -0.0395 -0.0533
 4080PP      PP14184  15.264   4.641   1.211 -0.0432  0.1441  0.1337
 4081PP      PP14185  12.317   3.197  10.747  0.4179 -0.1181  0.0110
 4082PP      PP14186   4.592   8.684   3.905  0.0141  0.2273 -0.0026
 4083PP      PP14187  15.722   5.663  11.221  0.4019 -0.2449  0.2585
 4084PP      PP14188  14.530   2.006   2.050 -0.2065 -0.2396  0.0507
 4085PP      PP14189  10.695  13.260  10.129 -0.1598 -0.0717 -0.0878
 4086PP      PP14190   5.644   6.365   0.146  0.1706 -0.0587 -0.2967
 4087PP      PP14191   7.255   8.445  11.680 -0.1056 -0.4769  0.0895
 4088PP      PP14192   3.511   7.849   1.390 -0.1308 -0.0035 -0.0042
 4089PP      PP14193  12.358   9.472   0.845  0.0226  0.0599  0.1847
 4090PP      PP14194   7.388   1.661  12.182 -0.0329  0.0385 -0.2136
 4091PP      PP14195   5.150  14.439   3.383  0.3733  0.3234  0.1163
 4092PP      PP14196  13.815  10.315   2.980 -0.2378 -0.1958 -0.0752
 4093PP      PP14197  14.800   2.628   1.461  0.0518  0.1632  0.1451
 4094PP      PP14198  14.659   6.404  10.978  0.0857 -0.1340 -0.1391
 4095PP      PP14199   9.921  12.804  12.291 -0.2593  0.1224 -0.2849
 4096PP      PP14200   0.736  11.031  12.874  0.0624 -0.2869  0.2712
 4097PP      PP14201  13.566  14.496  11.293 -0.0601  0.4621  0.1587
 4098PP      PP14202  15.690   9.533   3.495  0.0835  0.0073 -0.0575
 4099PP      PP14203  10.723   5.097   0.877  0.3021 -0.2274  0.2016
 4100PP      PP14204   4.034  15.333   3.308 -0.0523 -0.0047 -0.0935
 4101PP      PP14205  13.787  14.793   2.456  0.1771  0.2674  0.1500
 4102PP      PP14206  10.221  12.985   9.479 -0.2151 -0.4435 -0.0586
 4103PP      PP14207  10.853   3.587  11.109  0.0561  0.1883  0.2121
 4104PP      PP14208   6.400   1.458   0.948  0.1554 -0.3765 -0.1910
 4105PP      PP14209   1.883   3.709  12.350 -0.0660 -0.0346  0.0109
 4106PP      PP14210   3.271   4.281  11.673 -0.2916  0.0601 -0.0697
 4107PP      PP14211  15.275   0.267  12.551  0.0403 -0.0008  0.2093
 4108PP      PP14212   5.322  13.435   0.154  0.0139  0.1352 -0.1953
 4109PP      PP14213   4.829   3.921   2.106  0.3509 -0.0741 -0.1008
 4110PP      PP14214   4.818   4.993   9.617 -0.2357 -0.3738 -0.1352
 4111PP      PP14215   8.459   5.968  12.186  0.0472  0.0293 -0.0759
 4112PP      PP14216   8.858   7.824  12.518 -0.3551 -0.1596  0.1203
 4113PP      PP14217   0.145   5.188   2.983  0.1333  0.1522  0.1511
 4114PP      PP14218   8.992   5.808  12.182 -0.1035  0.0720 -0.0449
 4115PP      PP14219   3.453   1.191   9.790 -0.2592 -0.1411 -0.1209
 4116PP      PP14220   0.595   9.864   9.371  0.1791 -0.1989  0.0187
 4117PP      PP14221   5.032   5.396   0.478 -0.3194 -0.1042  0.2143
 4118PP      PP14222   2.745   5.816   9.138  0.1599  0.1938  0.2980
 4119PP      PP14223   9.989   6.328  13.084 -0.3054  0.1400 -0.1550
 4120PP      PP14224   3.001   3.431   3.961 -0.0175 -0.1032  0.4005
 4121PP      PP14225   1.320   8.601  12.632  0.1412  0.0715  0.1098
 4122PP      PP14226  14.481   5.227   0.968  0.2623 -0.1568  0.1251
 4123PP      PP14227   1.267  11.092   1.515  0.0746  0.0107  0.1320
 4124PP      PP14228   1.662   1.639   0.519 -0.1547 -0.0038 -0.0040
 4125PP      PP14229   4.788   6.928   1.066  0.1101 -0.0607  0.0199
 4126PP      PP14230   7.861  15.818   0.037  0.0409  0.0377  0.1636
 4127PP      PP14231  10.708   5.278   2.667 -0.1274 -0.0084  0.1353
 4128PP      PP14232  13.685  12.507   9.917 -0.2287  0.3325 -0.0342
 4129PP      PP14233   1.410   6.782   1.007 -0.1418  0.0212  0.1919
 4130PP      PP14234   3.269  15.101  10.389 -0.0026  0.1655  0.0027
 4131PP      PP14235  11.108   0.985   9.323 -0.2068  0.1588 -0.0244
 4132PP      PP14236  12.956   9.323   2.210  0.1829 -0.2177 -0.0811
 4133PP      PP14237  10.081   4.799   3.116 -0.0043 -0.2405 -0.1472
 4134PP      PP14238   3.431   3.991   0.718 -0.0821  0.0056 -0.2984
 4135PP      PP14239  12.642   9.722   0.188 -0.1919  0.1446 -0.3692
 4136PP      PP14240  15.559   9.437   3.038 -0.0320  0.3733 -0.0437
 4137PP      PP14241   0.380   3.528  10.618  0.1044 -0.2609  0.5317
 4138PP      PP14242  13.370   9.418   9.415 -0.0545 -0.0112 -0.0457
 4139PP      PP14243   2.192  10.274   1.059 -0.1213 -0.2468 -0.1150
 4140PP      PP14244  11.477  11.152   3.603 -0.3865  0.1578 -0.0444
 4141PP      PP14245  12.901   0.252   0.419 -0.0878  0.1867  0.2602
 4142PP      PP14246   5.042  12.092  11.426  0.0271 -0.0924  0.1330
 4143PP      PP14247   7.342   1.102   9.364  0.1687  0.0943  0.1302
 4144PP      PP14248  15.182   9.569  11.927 -0.3658  0.1548 -0.0289
 4145PP      PP14249   2.965   1.844   1.369  0.1538  0.1532  0.1565
 4146PP      PP14250  14.612   4.649  11.625 -0.1982 -0.3429 -0.1681
 4147PP      PP14251   3.644  12.052  12.333 -0.1687 -0.1546  0.4402
 4148PP      PP14252   5.477   0.782  10.586 -0.0664  0.0652  0.0396
 4149PP      PP14253   9.370  11.114   2.918 -0.0505 -0.0566 -0.0991
 4150PP      PP14254   6.941  10.172   2.904 -0.1507  0.1279  0.0540
 4151PP      PP14255  11.871   5.063  11.096 -0.0181 -0.2131  0.2047
 4152PP      PP14256   9.887  10.771  10.976  0.0418 -0.2746 -0.3201
 4153PP      PP14257   8.007  14.624  12.956 -0.0563  0.1012 -0.0083
 4154PP      PP14258   5.764   6.872   0.214  0.2454 -0.1915  0.0925
 4155PP      PP14259   8.143   2.966   0.726  0.0603  0.1312  0.0749
 4156PP      PP14260  13.137  14.118   1.815  0.1096 -0.1649 -0.2558
 4157PP      PP14261   6.949   7.945   2.054  0.2026 -0.4103 -0.4784
 4158PP      PP14262   3.125  15.259   9.176  0.0410  0.5426 -0.0961
 4159PP      PP14263   8.755   4.717   9.669  0.0149  0.3427  0.0370
 4160PP      PP14264   3.591  13.297  12.355  0.1551  0.2253 -0.3680
 4161PP      PP14265   2.560   4.827  10.460 -0.1797  0.1610 -0.1487
 4162PP      PP14266  14.498   6.924   1.685  0.1637 -0.0557 -0.0953
 4163PP      PP14267   2.213   3.971   0.018 -0.1940  0.1552  0.2464
 4164PP      PP14268   6.285   8.187   3.603  0.1623  0.1144 -0.1610
 4165PP      PP14269   5.378   1.374  11.284  0.0556 -0.0396  0.3176
 4166PP      PP14270   4.473   6.031   9.412  0.1204  0.1491  0.2467
 4167PP      PP14271   9.906  13.117  11.470  0.1766 -0.4240 -0.1000
 4168PP      PP14272  15.110   0.260  11.590  0.0799  0.0252 -0.0566
 4169PP      PP14273  13.519   7.845   8.994 -0.2406  0.0041  0.1425
 4170PP      PP14274   7.426   5.515  11.700 -0.4031 -0.3018  0.1131
 4171PP      PP14275   1.659  10.506  11.060 -0.0043 -0.1762 -0.0930
 4172PP      PP14276  14.190  11.975   3.785 -0.0262 -0.2330 -0.1655
 4173PP      PP14277  13.182   9.936   0.371  0.0235  0.2426 -0.0790
 4174PP      PP14278  13.542   2.849  11.465 -0.0239  0.0459 -0.0155
 4175PP      PP14279   7.489  14.860  10.298  0.2537  0.1584  0.1624
 4176PP      PP14280   1.874  15.697  11.598  0.0482  0.0229  0.0811
 4177PP      PP14281  14.163   2.131  11.466  0.0710  0.1022 -0.1193
 4178PP      PP14282   8.390   4.751  10.870 -0.1402  0.1085 -0.0616
 4179PP      PP14283   3.000   1.577   0.661  0.0850  0.0358 -0.2165
 4180PP      PP14284  10.632   9.329  12.077 -0.1799 -0.0465 -0.1309
 4181PP      PP14285   8.224   7.365   0.538 -0.0632  0.0651  0.4162
 4182PP      PP14286   1.463  13.558  10.552  0.1319  0.1445 -0.0581
 4183PP      PP14287   2.891   1.070   8.463 -0.1235  0.4891  0.0700
 4184PP      PP14288  14.209   4.297   0.795 -0.3642  0.2288  0.2833
 4185PP      PP14289   4.718  13.146   7.826  0.2452  0.2829 -0.1964
 4186PP      PP14290   3.732  12.329  11.936  0.3591 -0.0578  0.2304
 4187PP      PP14291  14.224   7.115   3.404 -0.2550  0.0980 -0.0802
 4188PP      PP14292   8.956  10.631   4.248 -0.0707 -0.4390  0.1102
 4189PP      PP14293   9.939   0.837   0.041  0.2288  0.1039 -0.3795
 4190PP      PP14294   4.522  11.811   1.982 -0.1650  0.0226 -0.2837
 4191PP      PP14295   4.224  12.913  12.188 -0.1837 -0.2041  0.3179
 4192PP      PP14296   5.678   0.704   3.505 -0.1655  0.1177  0.1073
 4193PP      PP14297   9.934  13.027  13.284 -0.1433 -0.2677 -0.3166
 4194PP      PP14298   8.886   0.415   4.882  0.3216 -0.2164 -0.1787
 4195PP      PP14299   0.775   5.361   1.358 -0.0624  0.0901 -0.1143
 4196PP      PP14300   4.421   4.662   9.109  0.0454  0.5455  0.2118
 4197PP      PP14301  12.377   5.179  11.329 -0.0454 -0.0499 -0.1613
 4198PP      PP14302  11.066   8.165   4.655  0.0624 -0.0117  0.1688
 4199PP      PP14303  11.074  13.151   4.153  0.2164  0.0031 -0.0394
 4200PP      PP14304  13.840   5.053   3.114  0.0124  0.0281 -0.0467
 4201PP      PP14305   0.872  12.388   0.428 -0.0139  0.1939 -0.3194
 4202PP      PP14306  11.954   5.826   4.594  0.0121  0.1218 -0.3969
 4203PP      PP14307  12.343   5.714  11.672 -0.0555 -0.0049 -0.3141
 4204PP      PP14308   3.585  15.346  12.444  0.1752 -0.1983  0.1002
 4205PP      PP14309  12.715   6.092   2.177 -0.0916  0.3088  0.2609
 4206PP      PP14310   7.919   3.003   3.298  0.0015  0.1231  0.3674
 4207PP      PP14311   6.476  13.140   2.623  0.1415 -0.0575 -0.1261
 4208PP      PP14312   1.544  15.799  10.377 -0.0652  0.1444  0.2304
 4209PP      PP14313   2.640   3.178  13.292  0.0824  0.0688  0.1780
 4210PP      PP14314   7.363   2.795   0.268 -0.0171 -0.1096  0.0904
 4211PP      PP14315   8.033   2.926  10.599  0.0735 -0.0684  0.2129
 4212PP      PP14316   1.916  15.080   0.191  0.1174 -0.0503  0.1310
 4213PP      PP14317   1.604   2.007   3.245 -0.2515 -0.0818 -0.0965
 4214PP      PP14318   6.470   9.839  12.286  0.1612  0.2632 -0.3202
 4215PP      PP14319   0.194  14.298   8.839 -0.0354 -0.1269  0.0797
 4216PP      PP14320   5.330  13.371  12.188  0.2326  0.0966  0.1616
 4217PP      PP14321  10.270   1.970   1.542 -0.0339  0.4362  0.1086
 4218PP      PP14322  10.687  11.752   2.725 -0.2939 -0.3391  0.1196
 4219PP      PP14323  15.204  12.589   9.474  0.0985  0.1000  0.1194
 4220PP      PP14324  10.023  13.849   1.509 -0.1104  0.0490 -0.3018
 4221PP      PP14325  14.722   9.192  12.985 -0.4435  0.1816 -0.0357
 4222PP      PP14326   2.653   3.340   1.109 -0.2194  0.0627 -0.0732
 4223PP      PP14327   9.175   5.810  13.393 -0.0357 -0.4468  0.1833
 4224PP      PP14328  13.441  10.018  12.445 -0.1798  0.0751  0.0964
 4225PP      PP14329   8.746   0.577  10.836 -0.0706  0.0150 -0.1502
 4226PP      PP14330   7.126   0.838  10.337  0.0101 -0.0453  0.1798
 4227PP      PP14331  13.873  11.357   9.366  0.1739  0.1968  0.0831
 4228PP      PP14332   7.160   7.438   1.890  0.1086 -0.0660  0.1173
 4229PP      PP14333   4.481   8.920  12.951  0.3172 -0.1868 -0.1615
 4230PP      PP14334   0.055   0.152   2.733  0.0715  0.0532  0.1897
 4231PP      PP14335   8.196  13.250   3.477  0.2226 -0.1679  0.3346
 4232PP      PP14336  15.147   5.902   2.331  0.0018  0.0183  0.2108
 4233PP      PP14337   9.475   0.480   4.232 -0.2808  0.3273  0.1608
 4234PP      PP14338  12.361  14.715   2.835  0.0208 -0.0986 -0.0334
 4235PP      PP14339   2.237  13.213   2.608 -0.3016 -0.1443  0.3919
 4236PP      PP14340  15.689   8.921  10.466 -0.2761  0.1248 -0.1717
 4237PP      PP14341   2.235   3.994  11.619 -0.3290  0.0061  0.2408
 4238PP      PP14342  12.100   3.288   8.826  0.3695  0.0926  0.0216
 4239PP      PP14343   5.977  14.517   9.791 -0.3242 -0.0352 -0.1113
 4240PP      PP14344   0.474  10.016  12.556 -0.0729  0.0390  0.1905
 4241PP      PP14345   2.206  14.918   0.664  0.0257  0.1104  0.1635
 4242PP      PP14346   3.945   2.635  10.576 -0.2821  0.4365 -0.0725
 4243PP      PP14347   0.675   0.917   2.148 -0.0674  0.0663  0.0354
 4244PP      PP14348   3.230   5.138   3.566  0.0960  0.1445  0.0802
 4245PP      PP14349   0.410  14.082   2.147 -0.1002 -0.3380 -0.1394
 4246PP      PP14350  12.819  12.530  10.534 -0.3441  0.0179  0.1490
 4247PP      PP14351   6.225   9.525  11.857  0.2607 -0.2358  0.2710
 4248PP      PP14352   2.315   1.742  10.728  0.1457 -0.0410  0.2274
 4249PP      PP14353   8.596  13.785   1.086  0.0752 -0.0404 -0.4783
 4250PP      PP14354   8.578   6.887   1.688 -0.0779 -0.0790  0.2676
 4251PP      PP14355   4.513   5.403   1.866 -0.1933 -0.0866 -0.0641
 4252PP      PP14356  14.831   9.109   2.559  0.3529 -0.1268  0.0006
 4253PP      PP14357   3.908  13.026   9.743  0.0737  0.0914  0.0386
 4254PP      PP14358   5.606  14.072  13.049 -0.2845 -0.0283 -0.2007
 4255PP      PP14359  10.608   1.306   4.697 -0.0080 -0.2091 -0.2659
 4256PP      PP14360  10.263  15.529   3.386  0.3112 -0.0293 -0.0078
 4257PP      PP14361  12.125   8.592   9.845  0.2112  0.3961  0.0919
 4258PP      PP14362  11.124   1.731   3.829  0.0296 -0.1060 -0.1829
 4259PP      PP14363  10.578  13.837   2.719  0.0215  0.2046  0.0957
 4260PP      PP14364  11.576  14.825   4.055  0.0728  0.1732 -0.0763
 4261PP      PP14365  11.682   9.406   4.760 -0.3367 -0.1060 -0.0863
 4262PP      PP14366   7.520  10.528   3.552  0.0210 -0.0258 -0.2240
 4263PP      PP14367  15.922  11.850   2.666  0.1076 -0.4587 -0.0646
 4264PP      PP14368   8.544   4.895   2.050  0.0408  0.0331 -0.0183
 4265PP      PP14369  15.434   0.193   8.855  0.2471 -0.1166 -0.1343
 4266PP      PP14370   7.085   9.164   4.084 -0.0516 -0.0837 -0.0393
 4267PP      PP14371   1.015  14.052  11.730 -0.0409 -0.2227 -0.0386
 4268PP      PP14372   6.186   4.050   2.122  0.1628  0.1460 -0.0672
 4269PP      PP14373   1.970  10.672  10.469 -0.5451  0.2219 -0.2095
 4270PP      PP14374  11.029   1.638  12.609  0.1617  0.1296  0.0359
 4271PP      PP14375  12.965  12.201   0.578  0.0569 -0.1189 -0.3013
 4272PP      PP14376  12.995   0.456   0.834  0.0123  0.2745  0.3101
 4273PP      PP14377  10.190  10.417  11.943  0.0541  0.0460 -0.2356
 4274PP      PP14378   3.865  15.399   1.236  0.0945 -0.1031 -0.3767
 4275PP      PP14379  11.509   0.219  10.921 -0.0439 -0.0343  0.0423
 4276PP      PP14380  14.097   0.966  12.858  0.0930  0.1097 -0.0203
 4277PP      PP14381  14.662   9.039   1.737 -0.1722 -0.0421  0.1781
 4278PP      PP14382   5.657  15.399   2.588  0.3717  0.2706  0.0218
 4279PP      PP14383  14.047   4.803  11.896  0.1712  0.1822  0.3384
 4280PP      PP14384   6.819  12.684   9.464  0.0114  0.1429 -0.1220
 4281PP      PP14385   9.795   9.737   2.784 -0.2388  0.1325  0.0233
 4282PP      PP14386  12.500  11.148   1.010  0.2823  0.4134 -0.1122
 4283PP      PP14387   5.601   4.903  10.814 -0.2894 -0.0393  0.0998
 4284PP      PP14388  11.042   3.562  12.082  0.0001 -0.0591 -0.1305
 4285PP      PP14389   6.464   4.951   1.595 -0.0133 -0.1052  0.0954
 4286PP      PP14390  14.313  10.763   8.778 -0.0462 -0.2286 -0.1730
 4287PP      PP14391   3.158   6.471   2.209 -0.2213 -0.0854  0.0073
 4288PP      PP14392   9.218   3.986  12.794 -0.2347 -0.1338  0.2343
 4289PP      PP14393   2.515   5.308   2.385  0.0622  0.0838 -0.1208
 4290PP      PP14394  10.189  10.550   2.607  0.0709 -0.2868 -0.1318
 4291PP      PP14395   8.089   2.037   0.437  0.0652 -0.1343 -0.0320
 4292PP      PP14396   1.537   2.171   2.429  0.1070  0.2182 -0.0545
 4293PP      PP14397   6.848   8.152  11.441 -0.3273 -0.1239  0.0759
 4294PP      PP14398  15.076   0.896  11.981 -0.0199  0.3236 -0.0208
 4295PP      PP14399   5.903   3.259   2.643  0.2455  0.0934  0.0539
 4296PP      PP14400   5.278   2.727   3.381 -0.0608  0.1401  0.2962
 4297PP      PP14401   0.980  12.284  11.058  0.1543 -0.0931  0.2112
 4298PP      PP14402   7.613   3.984   2.713  0.2842  0.0399 -0.0213
 4299PP      PP14403   9.385  12.874   2.789 -0.1294  0.0952 -0.0738
 4300PP      PP14404  15.271   7.423   1.987 -0.1610 -0.0366  0.2256
 4301PP      PP14405  13.829   8.349   3.695  0.1345 -0.0746 -0.4783
 4302PP      PP14406   3.875   9.532   2.843  0.0365 -0.1214  0.1725
 4303PP      PP14407  14.682   8.730   4.067  0.0613 -0.0010 -0.1463
 4304PP      PP14408   0.077   6.897   4.095  0.0346  0.0505 -0.2898
 4305PP      PP14409   0.133  13.978   9.213  0.0843 -0.0657 -0.1759
 4306PP      PP14410  13.165   9.542   0.739 -0.2880 -0.0934  0.1601
 4307PP      PP14411   3.498   9.316   0.956  0.1181 -0.2358  0.0406
 4308PP      PP14412   9.430  13.971   3.558  0.1191  0.0024 -0.0377
 4309PP      PP14413   3.903   7.055   3.564  0.2134  0.0779  0.0566
 4310PP      PP14414   9.652   8.812   3.965  0.0452 -0.2912 -0.0597
 4311PP      PP14415   1.237  13.664  12.066  0.0348  0.1309  0.1166
 4312PP      PP14416  11.047  14.187  10.745  0.2360  0.2682  0.0769
 4313PP      PP14417   5.949   9.331   1.315  0.3812 -0.1914  0.0622
 4314PP      PP14418   2.683   6.075   3.687 -0.1493 -0.0186  0.1412
 4315PP      PP14419  14.013   9.276  10.459 -0.0133 -0.1038  0.2967
 4316PP      PP14420  15.450   4.832  12.272 -0.1921 -0.1780 -0.0130
 4317PP      PP14421  10.007  15.358   1.805  0.0249 -0.1135  0.0831
 4318PP      PP14422  14.448  14.387   0.705 -0.1945  0.0418 -0.0710
 4319PP      PP14423  12.422   4.830   2.021 -0.0658 -0.1334  0.2913
 4320PP      PP14424   6.001  15.005  11.750  0.1538 -0.2378  0.1925
 4321PP      PP14425   5.985  14.707   8.867  0.0765  0.2262  0.3078
 4322PP      PP14426  14.375   5.930  10.085 -0.2340 -0.1699  0.1892
 4323PP      PP14427   6.614   2.525  12.242  0.0741 -0.1887 -0.1918
 4324PP      PP14428   1.963  15.268   8.372 -0.0311 -0.2553  0.0814
 4325PP      PP14429   5.155   7.780   0.961  0.1419  0.2320 -0.0299
 4326PP      PP14430  12.385   8.812  12.437 -0.1152  0.0869 -0.2887
 4327PP      PP14431   7.143   4.272  12.126 -0.0757  0.1409  0.3176
 4328PP      PP14432  13.567  13.983   9.369  0.0525  0.4988 -0.1794
 4329PP      PP14433   7.990   1.776  11.582  0.2431  0.0143  0.5816
 4330PP      PP14434   5.661   2.056   2.060  0.2034 -0.1738  0.3881
 4331PP      PP14435  14.237   4.527   1.765 -0.1485  0.4745  0.0019
 4332PP      PP14436   0.917   3.052   0.012 -0.3527  0.2116  0.0006
 4333PP      PP14437  11.450   7.216   0.230  0.2717  0.0260 -0.1977
 4334PP      PP14438  11.440   9.543   9.475  0.3762 -0.1259 -0.3739
 4335PP      PP14439   0.603   8.467  11.652 -0.0644  0.0059 -0.0738
 4336PP      PP14440  13.673  14.140   0.760  0.0230  0.3290 -0.2925
 4337PP      PP14441   4.717   9.039   3.535 -0.0637 -0.3563  0.0787
 4338PP      PP14442   6.596  12.281   3.937  0.4343 -0.1066  0.0012
 4339PP      PP14443   5.699  13.714   8.481 -0.0316 -0.3135  0.0477
 4340PP      PP14444  12.816   5.867   1.607 -0.2710  0.3775  0.3364
 4341PP      PP14445   1.039   7.892   9.535 -0.0427  0.1489 -0.0067
 4342PP      PP14446   2.013   3.432   9.957 -0.0644 -0.4347  0.0049
 4343PP      PP14447  15.103   6.582   5.122 -0.0476 -0.1019 -0.3694
 4344PP      PP14448   2.833  15.872   9.609  0.1536 -0.3568 -0.2293
 4345PP      PP14449  10.856  13.975  13.164  0.2761  0.2726 -0.2840
 4346PP      PP14450   2.224   0.958   1.398 -0.4417  0.0019  0.0657
 4347PP      PP14451   3.417   1.999   0.547 -0.0882  0.2272  0.1417
 4348PP      PP14452   7.404   8.922  11.487  0.0323 -0.0954  0.3586
 4349PP      PP14453  12.133   9.724   9.410  0.1958  0.0083 -0.0470
 4350PP      PP14454  11.660   3.495   8.539  0.2546 -0.0588  0.2080
 4351PP      PP14455   5.720   7.364   8.805  0.0815 -0.1522  0.2256
 4352PP      PP14456   9.945   4.838  13.383 -0.1257 -0.0184  0.2405
 4353PP      PP14457   1.133  10.702   2.715  0.1309 -0.0155 -0.1437
 4354PP      PP14458   9.305   6.118  12.427  0.2439 -0.0684  0.2147
 4355PP      PP14459  11.966   9.115  11.487 -0.3210 -0.0971 -0.0055
 4356PP      PP14460   5.171   7.161   1.547 -0.2683 -0.1043 -0.1581
 4357PP      PP14461   3.794   4.998  12.484  0.1585  0.2325  0.2723
 4358PP      PP14462  10.106   4.218   8.964 -0.0107  0.0052  0.3587
 4359PP      PP14463  11.969  11.352   2.178  0.3499  0.5340 -0.0136
 4360PP      PP14464   2.795   2.989  10.886 -0.0059  0.3162  0.1568
 4361PP      PP14465   5.564  11.106  11.577  0.1988 -0.0692 -0.3524
 4362PP      PP14466  13.612  14.194   2.414 -0.5456 -0.1333  0.3581
 4363PP      PP14467   9.795   3.985   9.282 -0.3259 -0.1396  0.2700
 4364PP      PP14468  15.479   7.973  12.611  0.1361  0.0687  0.1592
 4365PP      PP14469   1.909   8.412   9.634  0.0198  0.2168 -0.2320
 4366PP      PP14470   3.194   0.928  10.627  0.0394 -0.0633 -0.0636
 4367PP      PP14471  15.461  15.478   2.488  0.1412 -0.0545  0.0264
 4368PP      PP14472   8.798  11.446   1.710 -0.0177  0.0708 -0.1788
 4369PP      PP14473   6.638  10.066  11.775 -0.0931 -0.0126 -0.1175
 4370PP      PP14474  15.408   8.991  12.219 -0.0551 -0.3069 -0.2523
 4371PP      PP14475   4.539  13.473   9.757  0.2952 -0.1592 -0.1231
 4372PP      PP14476   9.741  14.013  12.493  0.1978  0.2180  0.0497
 4373PP      PP14477  15.621  11.437   7.876  0.0819  0.1179 -0.0493
 4374PP      PP14478  12.260  13.239  10.251 -0.1386 -0.1028 -0.1595
 4375PP      PP14479   5.000   1.045   2.721 -0.0258 -0.0279  0.1519
 4376PP      PP14480   6.800   3.002  12.113  0.2340 -0.2766  0.3681
 4377PP      PP14481   2.479   1.442   3.016  0.0754  0.2018  0.1002
 4378PP      PP14482   6.882  15.309  11.785 -0.0370  0.1234  0.0351
 4379PP      PP14483  12.536   0.805   9.531  0.2767  0.0207 -0.2475
 4380PP      PP14484  10.109   6.733   2.790  0.1541 -0.0071 -0.1296
 4381PP      PP14485   1.966  14.975   1.454  0.1027 -0.0600 -0.2572
 4382PP      PP14486   3.341   1.964   3.409 -0.1395 -0.2479 -0.2335
 4383PP      PP14487   7.007   3.374   9.772 -0.0611 -0.3496  0.2286
 4384PP      PP14488   2.021  15.209  12.734  0.2469 -0.1367 -0.0191
 4385PP      PP14489   3.648  12.041   1.676  0.0956  0.0403 -0.1098
 4386PP      PP14490  10.692   0.367   3.530  0.1129 -0.3190  0.2091
 4387PP      PP14491   0.722   4.823   9.627 -0.0290  0.1873  0.1013
 4388PP      PP14492  12.876  14.155   1.317  0.0635 -0.0211  0.1381
 4389PP      PP14493   3.115   4.327   3.285 -0.0846 -0.1634 -0.0823
 4390PP      PP14494   2.206  14.881  11.995  0.1160  0.0069 -0.1385
 4391PP      PP14495  15.137   2.488   9.231 -0.0887 -0.1924 -0.1366
 4392PP      PP14496   0.498   4.137   9.428  0.3400 -0.0205  0.0279
 4393PP      PP14497  14.245   6.279   1.001 -0.1429 -0.2092  0.1717
 4394PP      PP14498  10.342   9.481   4.511  0.3203  0.1468 -0.0517
 4395PP      PP14499  11.121  13.283  10.445 -0.1446 -0.0522  0.1766
 4396PP      PP14500  12.944  10.688   2.716  0.1350  0.0104 -0.1278
 4397PP      PP14501   8.538   8.781   4.886 -0.0210  0.0857 -0.1243
 4398PP      PP14502   9.367  12.718   2.323  0.2491  0.0450  0.1897
 4399PP      PP14503  14.521   6.329   2.403  0.2379  0.2468 -0.1235
 4400PP      PP14504   2.793  15.612  10.143 -0.2821  0.2085  0.3662
 4401PP      PP14505   6.339   9.725   9.811  0.0137 -0.1494  0.2470
 4402PP      PP14506  13.481   6.934   3.074 -0.4022  0.0108  0.4676
 4403PP      PP14507   7.156  15.392   4.645 -0.0383 -0.0912 -0.1763
 4404PP      PP14508   3.732   9.249  12.458  0.3063  0.1767 -0.0324
 4405PP      PP14509  12.011   4.884  11.542 -0.0580  0.1312  0.0019
 4406PP      PP14510  15.114   3.739   0.961 -0.1381  0.0929 -0.4357
 4407PP      PP14511   6.782   6.404   2.173 -0.2955 -0.0343 -0.0312
 4408PP      PP14512   8.592   9.423  12.182 -0.0989  0.3969 -0.0978
 4409PP      PP14513  14.709   8.599  12.034  0.3152 -0.0189  0.0593
 4410PP      PP14514  14.913   3.903  10.272  0.0164 -0.1044 -0.0840
 4411PP      PP14515   2.343   2.416  12.065  0.0498 -0.0585  0.0048
 4412PP      PP14516  15.464  12.138   2.425  0.0915 -0.1249  0.0749
 4413PP      PP14517   0.831  12.369   3.106  0.1861 -0.0766  0.0136
 4414PP      PP14518   6.772   4.608   2.415  0.1314 -0.1944 -0.1840
 4415PP      PP14519   7.545  13.787   1.137 -0.0813 -0.1455 -0.2905
 4416PP      PP14520   4.664   4.613  11.377 -0.0628 -0.2841  0.2730
 4417PP      PP14521  11.204   1.109  11.270  0.1482 -0.0564 -0.0592
 4418PP      PP14522   2.820   9.298   2.290 -0.0669  0.2037 -0.0713
 4419PP      PP14523  14.997   3.307   3.566  0.2923 -0.0308  0.1237
 4420PP      PP14524  15.831   0.233   3.213 -0.2077  0.2519 -0.2823
 4421PP      PP14525   5.761   2.067   3.495 -0.0486 -0.0005  0.2614
 4422PP      PP14526   0.521  10.364  12.102 -0.1832 -0.2786  0.2618
 4423PP      PP14527  13.530   1.876   3.935  0.2355  0.0299 -0.2382
 4424PP      PP14528   6.769  15.737   0.230 -0.1953 -0.2157 -0.1121
 4425PP      PP14529   9.107  11.908   2.505 -0.5365 -0.2030 -0.0798
 4426PP      PP14530   2.648  12.006  12.631 -0.1626 -0.1958 -0.3328
 4427PP      PP14531   6.273  15.180  13.084  0.1640  0.0936 -0.0494
 4428PP      PP14532   1.111   3.837   8.808 -0.0722  0.4059  0.0801
 4429PP      PP14533  12.175   0.637  12.945 -0.1217 -0.3308  0.0749
 4430PP      PP14534   6.677   8.418   2.560 -0.2529  0.0022  0.1832
 4431PP      PP14535  10.826   2.411   1.789  0.2431  0.0385  0.1780
 4432PP      PP14536   2.999   5.518   3.202  0.0069 -0.6081 -0.2595
 4433PP      PP14537   7.276   9.081   1.738  0.0430  0.1962  0.0526
 4434PP      PP14538   0.593   2.439   8.194  0.0875 -0.0045 -0.1225
 4435PP      PP14539   8.204   4.681   1.740 -0.6179  0.1785 -0.2910
 4436PP      PP14540   5.249  10.194  10.408  0.0041 -0.1333 -0.0682
 4437PP      PP14541   8.674   0.293   0.389  0.1148 -0.2508 -0.1648
 4438PP      PP14542  15.000   9.051  11.907  0.1881  0.1635 -0.1196
 4439PP      PP14543   0.911   0.467   8.128 -0.0720  0.1328 -0.3425
 4440PP      PP14544   4.949   6.121   9.656  0.1380 -0.1676  0.0714
 4441PP      PP14545   8.115  10.202   0.226  0.2693  0.4055 -0.0305
 4442PP      PP14546   5.586  14.506  13.233 -0.0775  0.1582 -0.2457
 4443PP      PP14547  11.512   3.851  12.182  0.1996 -0.0109  0.0211
 4444PP      PP14548   7.634   1.074   1.717 -0.0929 -0.4061 -0.0494
 4445PP      PP14549   9.342   4.102   1.562  0.1806  0.1057 -0.3205
 4446PP      PP14550   4.832  14.927   1.562  0.0336  0.3481 -0.0822
 4447PP      PP14551   8.710  14.524   3.529 -0.2330  0.0812 -0.1537
 4448PP      PP14552   1.908  11.019   2.339  0.0243 -0.2444 -0.1278
 4449PP      PP14553   4.980   8.607   0.287  0.1417 -0.2361 -0.0743
 4450PP      PP14554  13.232   3.234  10.366 -0.0722 -0.1873 -0.1340
 4451PP      PP14555  15.402   8.106   4.385  0.3327 -0.1325  0.1886
 4452PP      PP14556   3.242   7.655  11.885  0.2091  0.0441  0.0890
 4453PP      PP14557  11.515   0.010   9.989  0.1657 -0.1619 -0.0113
 4454PP      PP14558  11.477   0.212   3.987 -0.0615 -0.2755 -0.1896
 4455PP      PP14559   0.581   6.308  10.266  0.0433  0.0869  0.0104
 4456PP      PP14560  10.921   9.748  10.629  0.3580  0.0089  0.2513
 4457PP      PP14561   7.141   2.609  12.187 -0.2019  0.1252  0.1259
 4458PP      PP14562  10.609   0.956   2.464  0.0857 -0.0248 -0.1021
 4459PP      PP14563   2.782   8.821   1.958  0.1761  0.2543  0.1473
 4460PP      PP14564   0.105  15.034   9.677 -0.1585 -0.2288 -0.0356
 4461PP      PP14565   7.761   2.933   2.765 -0.0331  0.1456 -0.2827
 4462PP      PP14566   7.321   1.064   1.234 -0.1431  0.1074  0.0038
 4463PP      PP14567   5.163   6.095  12.850  0.0086 -0.1363  0.0992
 4464PP      PP14568   8.368   8.034  11.242 -0.0355  0.4319  0.1984
 4465PP      PP14569  12.372   6.358  11.676 -0.2081 -0.1614 -0.0004
 4466PP      PP14570  13.222   9.128  11.517  0.0809 -0.2727 -0.1667
 4467PP      PP14571   3.456   8.386   3.382 -0.1989 -0.1189  0.2620
 4468PP      PP14572   3.943  10.562   2.925 -0.1548 -0.1815  0.0742
 4469PP      PP14573  13.114   0.575   1.427  0.2357 -0.0058 -0.1948
 4470PP      PP14574  14.930  12.372   1.670  0.1426  0.0949 -0.1709
 4471PP      PP14575   5.521   3.726  11.769 -0.1555  0.4229 -0.3073
 4472PP      PP14576   2.526   4.607   0.659 -0.3349 -0.0561 -0.0122
 4473PP      PP14577   6.135  15.630   2.220 -0.0833 -0.0284  0.0999
 4474PP      PP14578   0.050   5.621   9.283  0.0037  0.0087  0.1192
 4475PP      PP14579  11.933   9.616  11.217  0.1548 -0.2643 -0.1716
 4476PP      PP14580  14.907  12.507  11.404 -0.0667 -0.0535  0.0700
 4477PP      PP14581  15.786   6.715  11.011 -0.3190 -0.0321  0.3170
 4478PP      PP14582   1.521   0.573  11.916  0.2146 -0.1275 -0.0068
 4479PP      PP14583   9.686   1.757   8.850  0.0480  0.1168 -0.2333
 4480PP      PP14584   0.811   8.900  10.683  0.1585 -0.1370  0.3654
 4481PP      PP14585  14.339   5.287  10.120 -0.0685 -0.1049 -0.1649
 4482PP      PP14586   9.536  10.974   9.000  0.3138 -0.0750  0.2347
 4483PP      PP14587  12.139  11.610  11.920  0.1606  0.0277  0.0163
 4484PP      PP14588   7.113  14.523  10.438 -0.0523  0.4781  0.0711
 4485PP      PP14589   0.477  12.491   8.962 -0.1004  0.1824 -0.1662
 4486PP      PP14590  15.700   3.769  10.570  0.2882 -0.0575 -0.0856
 4487PP      PP14591   7.067   0.319  10.500  0.2506 -0.1464  0.0210
 4488PP      PP14592   9.195   9.818   9.710 -0.0945  0.1061  0.2134
 4489PP      PP14593   3.454   0.156   8.585 -0.3074 -0.1059  0.0723
 4490PP      PP14594  12.563   6.011  10.203  0.1370 -0.3169  0.0693
 4491PP      PP14595   9.946   5.052  11.297  0.2539 -0.1034  0.1548
 4492PP      PP14596  15.251  10.744   8.714  0.1878  0.0850  0.1752
 4493PP      PP14597  14.799   1.734   9.996 -0.0062  0.3352  0.1147
 4494PP      PP14598   6.144   2.389   9.531 -0.0201 -0.1948 -0.2785
 4495PP      PP14599   3.226  13.952   8.517  0.2729 -0.4867 -0.3351
 4496PP      PP14600   7.093  14.813   8.942  0.1104 -0.1231 -0.1213
 4497PP      PP14601   6.051  10.818   9.523 -0.1953 -0.0318 -0.1240
 4498PP      PP14602   9.632  15.309  11.559 -0.0236 -0.0137 -0.0015
 4499PP      PP14603   9.632   1.177  13.331 -0.0723 -0.4715  0.2621
 4500PP      PP14604   7.234  14.678   1.196 -0.0732 -0.2076 -0.3016
 4501PP      PP14605  12.665   4.504  10.132 -0.1431  0.0231 -0.1229
 4502PP      PP14606   5.844   2.895   0.938 -0.0199 -0.0980  0.2823
 4503PP      PP14607   9.693   2.163  10.658  0.3659 -0.3686 -0.0881
 4504PP      PP14608  11.652   9.584   3.911  0.2077 -0.0164  0.1747
 4505PP      PP14609  12.746   2.815   9.615  0.2532 -0.0389 -0.3694
 4506PP      PP14610   5.586   7.943   4.176  0.3212  0.0327 -0.3331
 4507PP      PP14611  15.230  15.603  12.352  0.0420  0.3767 -0.0491
 4508PP      PP14612   9.274  11.073   3.908  0.0497  0.1351  0.2823
 4509PP      PP14613   7.981  14.874   2.964  0.3838 -0.1202  0.0918
 4510PP      PP14614   0.430   5.814  10.065  0.4920  0.2759 -0.0058
 4511PP      PP14615   9.795   6.879  12.162  0.0299 -0.3311  0.0515
 4512PP      PP14616  13.342  14.543   1.444 -0.2262 -0.1143 -0.2189
 4513PP      PP14617  14.319   2.074   1.478 -0.2955 -0.1182 -0.0588
 4514PP      PP14618   1.810   3.074  10.304  0.2269  0.3343 -0.0218
 4515PP      PP14619   8.909   2.680  10.735  0.1215 -0.0319  0.0498
 4516PP      PP14620  13.363   2.547   1.794 -0.3787  0.3342  0.0293
 4517PP      PP14621  11.343   9.826  13.076 -0.0078 -0.3569  0.1929
 4518PP      PP14622   0.193   0.452   8.828 -0.1527 -0.1052 -0.0779
 4519PP      PP14623  11.108   5.266   1.840  0.1229 -0.1737 -0.0044
 4520PP      PP14624   1.238   2.930   2.972 -0.1215 -0.0809 -0.1063
 4521PP      PP14625  13.371   2.201   2.949  0.1623 -0.1798 -0.3075
 4522PP      PP14626   1.371   2.624  11.340  0.2826  0.0360  0.0291
 4523PP      PP14627   7.578   5.082  11.040 -0.3587 -0.1256  0.2887
 4524PP      PP14628  13.738   7.856   0.910  0.0872  0.1244  0.1586
 4525PP      PP14629  10.898   9.815   0.551  0.0469  0.0404 -0.0411
 4526PP      PP14630   7.975  13.836   0.269 -0.1639 -0.0985 -0.0631
 4527PP      PP14631  13.105   1.282  11.237 -0.3169 -0.1630 -0.1549
 4528PP      PP14632  12.049   2.748  10.666 -0.2819  0.1636 -0.2147
 4529PP      PP14633   0.275   3.515   1.162  0.1295  0.1989  0.0012
 4530PP      PP14634   4.932  12.979  12.403  0.1493 -0.2666  0.1470
 4531PP      PP14635   1.966   9.880   4.346 -0.0045 -0.2042  0.3613
 4532PP      PP14636  14.466  13.611   1.960  0.0794  0.0410 -0.2148
 4533PP      PP14637   6.397  13.880   2.476  0.1926  0.0106  0.0754
 4534PP      PP14638   7.630  14.058   4.126 -0.0160  0.0310  0.0301
 4535PP      PP14639   7.162   3.715   2.551  0.2332  0.1727 -0.2037
 4536PP      PP14640   3.313   4.256   9.382  0.1863  0.1555 -0.2854
 4537PP      PP14641   7.365  14.000   9.641  0.1273  0.0509  0.0325
 4538PP      PP14642   2.089  11.626  10.695 -0.1435 -0.4075  0.0751
 4539PP      PP14643  13.880  13.586   0.708  0.0425 -0.3169  0.0955
 4540PP      PP14644  12.478  10.797   3.661 -0.1948  0.1294 -0.0259
 4541PP      PP14645   3.369  15.759  12.796  0.4865 -0.1116 -0.2018
 4542PP      PP14646   8.703  13.940   9.454 -0.0814  0.0158 -0.1526
 4543PP      PP14647   2.422   7.196  12.799  0.0261 -0.1679  0.0264
 4544PP      PP14648   8.270   2.750  11.426 -0.3013  0.0126 -0.3364
 4545PP      PP14649  13.812   6.121  11.276 -0.0339  0.0818  0.1638
 4546PP      PP14650  12.448   3.768   3.374  0.0849  0.2487 -0.0992
 4547PP      PP14651   8.560   1.221   1.315  0.1434  0.1571  0.3578
 4548PP      PP14652  14.960  13.001  10.359  0.2137  0.0652  0.0769
 4549PP      PP14653  14.489   5.207   8.958  0.1929 -0.1023  0.2074
 4550PP      PP14654   3.364  15.010   9.519 -0.4073 -0.0249  0.0168
 4551PP      PP14655   2.574  15.375   0.685 -0.0113  0.2074  0.2435
 4552PP      PP14656  12.182   6.081   2.802 -0.2248  0.0853  0.2524
 4553PP      PP14657   3.686   0.255  10.110 -0.0627  0.2116  0.0625
 4554PP      PP14658   0.501  13.560   9.021 -0.1368  0.0162 -0.0740
 4555PP      PP14659  11.500   8.372   2.901 -0.1727 -0.0391 -0.1004
 4556PP      PP14660   0.477   2.425   0.586 -0.2640 -0.1312  0.2048
 4557PP      PP14661   9.309   7.317   3.633  0.2982  0.0908 -0.0243
 4558PP      PP14662  10.040   0.148  10.373  0.1793  0.0389 -0.1409
 4559PP      PP14663   2.865   9.674   3.940  0.0551 -0.2871 -0.1020
 4560PP      PP14664   1.047  11.285  10.339  0.1120  0.1236 -0.0179
 4561PP      PP14665   3.984   3.141   1.981 -0.1915  0.1656 -0.0640
 4562PP      PP14666   8.102  13.492  10.720  0.2303  0.3132 -0.1360
 4563PP      PP14667   2.003  10.174  12.169  0.0047 -0.0447 -0.1259
 4564PP      PP14668   4.767  11.474   0.585 -0.1270 -0.0628  0.0010
 4565PP      PP14669   9.247  15.458  13.292  0.1393 -0.0267 -0.0571
 4566PP      PP14670   8.394  11.324  12.822 -0.2125 -0.2342 -0.0831
 4567PP      PP14671   3.805  15.711   2.725 -0.0876 -0.2355 -0.2268
 4568PP      PP14672  14.243   9.140   3.223 -0.0964 -0.0493 -0.1717
 4569PP      PP14673  11.616  13.165   3.893 -0.4245  0.0094 -0.2114
 4570PP      PP14674  11.194  15.546  12.357 -0.1356 -0.3257  0.0210
 4571PP      PP14675  10.518  12.904   4.373 -0.4058  0.0551  0.1218
 4572PP      PP14676   5.110  14.916   1.962 -0.0373 -0.0241 -0.0951
 4573PP      PP14677   0.732  12.328   3.750  0.0843 -0.3337  0.0721
 4574PP      PP14678   2.815  11.058  12.347 -0.1815  0.2067  0.0924
 4575PP      PP14679   2.842   5.845   4.129 -0.2413  0.1424 -0.2885
 4576PP      PP14680   8.972   0.425   2.662  0.2635 -0.1485 -0.3116
 4577PP      PP14681  10.922  13.537   1.310 -0.2091  0.0408 -0.0772
 4578PP      PP14682   3.393  13.033   0.700  0.0312 -0.0698 -0.1247
 4579PP      PP14683   6.620  13.920   4.279  0.4074  0.1977  0.2005
 4580PP      PP14684   8.142   5.411  12.989 -0.2576 -0.1527 -0.0387
 4581PP      PP14685   6.639   4.624   3.478 -0.0186  0.1039 -0.1331
 4582PP      PP14686   1.752   5.312  11.154 -0.0182 -0.1272 -0.0608
 4583PP      PP14687  13.028  11.312   1.004  0.4335 -0.0828  0.1136
 4584PP      PP14688   3.854  12.275   1.232 -0.3305 -0.1017 -0.3890
 4585PP      PP14689   8.078   1.596   0.713  0.2032  0.2167 -0.1773
 4586PP      PP14690   7.681   8.059  13.091 -0.0827 -0.2794  0.2848
 4587PP      PP14691   4.637   9.196   9.438  0.2526 -0.1100  0.1928
 4588PP      PP14692   2.798   7.502  12.128 -0.2748 -0.0999 -0.5285
 4589PP      PP14693   9.333   5.468  12.464  0.1689  0.4238  0.1457
 4590PP      PP14694   8.857  10.191   0.763 -0.1074  0.0506  0.3086
 4591PP      PP14695  14.387  12.369   2.544 -0.0049  0.0053  0.0584
 4592PP      PP14696   8.321  15.161   9.624 -0.1833  0.0357  0.3319
 4593PP      PP14697  15.086   6.767  12.277  0.1479  0.0620 -0.0412
 4594PP      PP14698  12.068  12.733   1.808  0.2469 -0.0806  0.0945
 4595PP      PP14699  15.126   6.632   3.026 -0.4117 -0.0148 -0.0382
 4596PP      PP14700   6.577   0.283  12.744 -0.0502 -0.0553 -0.1969
 4597PP      PP14701  12.818  15.377  12.813 -0.0524 -0.0254  0.0274
 4598PP      PP14702   8.349   7.635  12.483  0.1080  0.2440  0.0058
 4599PP      PP14703  13.458   4.781   1.140 -0.0287 -0.3080  0.3120
 4600PP      PP14704  13.122  14.502  11.681  0.0209  0.2158  0.5043
 4601PP      PP14705  13.211  13.992   2.840  0.0206  0.2649  0.1019
 4602PP      PP14706  10.647  15.712  11.590 -0.0982 -0.0460 -0.3660
 4603PP      PP14707   6.686  10.282   0.642 -0.1812 -0.2919 -0.0174
 4604PP      PP14708  14.113   7.158   2.255  0.1895  0.1395 -0.0896
 4605PP      PP14709   2.915  13.070  12.872 -0.1637  0.0905  0.3978
 4606PP      PP14710   9.799   4.087  11.968 -0.0937  0.1065 -0.1275
 4607PP      PP14711  13.665   4.542   4.233  0.0669 -0.2432  0.0690
 4608PP      PP14712   5.646  15.902  10.296 -0.2117  0.2379 -0.1449
 4609PP      PP14713  13.233  14.818   3.618  0.4923 -0.0318 -0.0872
 4610PP      PP14714   0.387   5.184   1.674 -0.0363  0.3979 -0.0492
 4611PP      PP14715   6.030   7.593   1.318  0.1683  0.1365 -0.0356
 4612PP      PP14716   3.409  12.917  10.108 -0.0164  0.3302 -0.0736
 4613PP      PP14717   7.441   1.141  10.665 -0.2736  0.0559 -0.4052
 4614PP      PP14718  12.595   0.782   0.629 -0.0659  0.0309  0.0540
 4615PP      PP14719   9.670   2.023   1.182 -0.0817  0.4441 -0.1345
 4616PP      PP14720  13.718   4.012   3.564  0.0442  0.1528  0.2331
 4617PP      PP14721   5.051   9.180   0.329  0.2891  0.0977  0.2044
 4618PP      PP14722   8.696  10.696  10.544 -0.1395  0.0913  0.2764
 4619PP      PP14723  14.937  14.679  11.086 -0.0545  0.1339  0.3657
 4620PP      PP14724   6.217  11.132  13.343 -0.0644  0.0746  0.1727
 4621PP      PP14725   6.131  14.438  10.831 -0.0459 -0.1486 -0.1478
 4622PP      PP14726   6.471   4.234   2.672  0.0294  0.0038  0.0981
 4623PP      PP14727   8.613   2.595   2.694 -0.0403 -0.0198 -0.2049
 4624PP      PP14728  10.790  15.199  11.609  0.0794 -0.1757  0.0402
 4625PP      PP14729   8.960  12.878   8.810 -0.0185 -0.1125  0.0792
 4626PP      PP14730  14.230  14.499   2.669 -0.1291 -0.3282  0.0535
 4627PP      PP14731   4.901   3.680   4.117 -0.1136  0.0870  0.1757
 4628PP      PP14732   0.968   2.593   9.770 -0.2982 -0.3557  0.1947
 4629PP      PP14733   0.972  10.702   1.222  0.1396 -0.2124 -0.2628
 4630PP      PP14734  12.227  15.300   0.757 -0.0100  0.0142  0.3307
 4631PP      PP14735   2.827   7.126  12.496  0.3593 -0.0190 -0.1466
 4632PP      PP14736   4.057   8.256   0.521  0.0940 -0.1158  0.0579
 4633PP      PP14737   1.365   0.329   8.312 -0.0623 -0.1851  0.2591
 4634PP      PP14738   8.355   2.724   9.527 -0.0553 -0.2062 -0.3093
 4635PP      PP14739   3.483  10.448   4.370  0.1352 -0.2545  0.0721
 4636PP      PP14740   3.933   3.673  10.680 -0.0123 -0.2049 -0.2087
 4637PP      PP14741  13.719   8.976   9.401 -0.2121  0.2576  0.1638
 4638PP      PP14742  14.350  13.922   1.540 -0.0617  0.2473  0.0457
 4639PP      PP14743  11.851   7.904   1.998  0.0135 -0.1199 -0.1853
 4640PP      PP14744   6.817  13.718   1.762 -0.1129 -0.4349  0.1703
 4641PP      PP14745   6.067   1.673   1.948  0.0814 -0.0671  0.1641
 4642PP      PP14746   6.803  14.349   1.700 -0.0383 -0.1034  0.1502
 4643PP      PP14747   8.387   3.244   3.173  0.0053 -0.3555 -0.0081
 4644PP      PP14748  12.166   9.826   2.565 -0.1100  0.1101 -0.1697
 4645PP      PP14749  10.480   8.747  12.921  0.4190  0.2953 -0.1277
 4646PP      PP14750  11.907  14.251  11.194  0.0175 -0.2461  0.1528
 4647PP      PP14751   3.494   4.105   8.494 -0.0725  0.1515 -0.1159
 4648PP      PP14752  12.238   3.659  11.101 -0.1329  0.0442 -0.4312
 4649PP      PP14753  15.263  14.263  10.756 -0.3392 -0.0174  0.1594
 4650PP      PP14754   1.752   0.709   8.612 -0.2445  0.3092  0.0318
 4651PP      PP14755   9.113   6.701  10.587 -0.0521  0.0084 -0.0682
 4652PP      PP14756   0.289  12.075  10.731  0.1188  0.0947  0.2719
 4653PP      PP14757  13.436   9.553   2.513 -0.1706 -0.2130  0.4794
 4654PP      PP14758  10.796   3.769  13.008 -0.0625  0.0448 -0.0037
 4655PP      PP14759  12.728  12.597  11.951 -0.0397 -0.3995 -0.2861
 4656PP      PP14760   5.996   6.832   2.891 -0.1086  0.0404 -0.1003
 4657PP      PP14761  15.805   0.162   0.283 -0.0111 -0.2528 -0.0308
 4658PP      PP14762   3.914   5.627   9.474 -0.4516 -0.1258 -0.1319
 4659PP      PP14763  15.731  12.260  11.900  0.2280  0.0130 -0.3647
 4660PP      PP14764   1.015   9.296   0.508  0.0505  0.1811 -0.4107
 4661PP      PP14765  14.475  15.562   9.957  0.1314 -0.1349  0.2341
 4662PP      PP14766  10.928   7.549  13.163  0.2555  0.0628  0.0427
 4663PP      PP14767  11.711  12.070   3.789 -0.1143  0.1204  0.2319
 4664PP      PP14768   3.295  12.373   1.882  0.2705  0.0981  0.1685
 4665PP      PP14769   6.825   3.371  10.196  0.0160  0.0791 -0.3187
 4666PP      PP14770   8.289   9.806  12.185  0.0245 -0.3251  0.0275
 4667PP      PP14771   6.539   3.965  11.162  0.0758 -0.2680  0.1037
 4668PP      PP14772   4.265  10.957   9.573 -0.1840  0.1986  0.0223
 4669PP      PP14773   7.702   8.658   1.427  0.2115 -0.1348 -0.0157
 4670PP      PP14774   5.947   0.484   0.824  0.2557 -0.1876  0.1898
 4671PP      PP14775   3.215   1.599  11.839 -0.3499 -0.1760 -0.1234
 4672PP      PP14776  12.671   1.935   8.947 -0.2035  0.1561  0.1984
 4673PP      PP14777   4.588   3.281  13.270  0.3435  0.1754 -0.0624
 4674PP      PP14778  13.849  15.190  12.461 -0.2077  0.1128  0.0630
 4675PP      PP14779   0.433   5.232   3.418 -0.0290  0.4215 -0.1365
 4676PP      PP14780   9.954   8.707  13.080 -0.0609 -0.3028 -0.2389
 4677PP      PP14781  11.914   7.974   2.844 -0.1654  0.0755 -0.0447
 4678PP      PP14782   1.564   0.546   3.793 -0.0551 -0.1520 -0.2035
 4679PP      PP14783   7.764   4.831   2.618  0.1620  0.1618 -0.0639
 4680PP      PP14784   3.560   8.814   9.658  0.2074  0.0688  0.0536
 4681PP      PP14785   3.094   7.010   2.799 -0.0641  0.0459 -0.0123
 4682PP      PP14786   7.710   8.497   3.553 -0.1164  0.0389  0.1088
 4683PP      PP14787   2.005  12.614   3.519  0.1926  0.0478 -0.0093
 4684PP      PP14788   6.622  10.591   3.190  0.1931 -0.0952 -0.2385
 4685PP      PP14789  13.943  10.866   2.062 -0.0105 -0.2134  0.0861
 4686PP      PP14790   4.535   2.145   8.991 -0.2876  0.1283 -0.1869
 4687PP      PP14791   1.364  11.152   9.952 -0.1239  0.3808  0.0192
 4688PP      PP14792  12.028   4.281  12.791  0.3492  0.2205 -0.0151
 4689PP      PP14793   8.981   6.044   1.036 -0.3145 -0.4445 -0.0340
 4690PP      PP14794  15.523   1.158   8.123  0.0155 -0.1085 -0.0816
 4691PP      PP14795  15.556  15.019   1.660  0.1417  0.1857 -0.1957
 4692PP      PP14796  11.596   9.588   0.682 -0.0668  0.0077  0.0207
 4693PP      PP14797  11.329  10.610   9.907  0.5375 -0.0170  0.2331
 4694PP      PP14798  10.277   3.679  13.067  0.2609  0.0194  0.2322
 4695PP      PP14799   9.754   3.606  10.224 -0.1732  0.1673  0.0661
 4696PP      PP14800   4.401   8.982   4.410  0.0765 -0.0151 -0.0517
 4697PP      PP14801   9.215   4.478   3.014 -0.0546 -0.0204 -0.2372
 4698PP      PP14802   5.288  13.975   3.083 -0.1539 -0.0295  0.1111
 4699PP      PP14803   6.870  13.705  11.164  0.1706 -0.1645 -0.0844
 4700PP      PP14804   9.560   6.903  11.379 -0.1920  0.0930 -0.2441
 4701PP      PP14805   8.166   7.133  12.726  0.0300 -0.0962 -0.3089
 4702PP      PP14806   3.000   0.180  10.068  0.2684  0.2083  0.1382
 4703PP      PP14807   9.159   5.373  12.914 -0.0548 -0.2962  0.0727
 4704PP      PP14808   4.392   2.654  12.847  0.5133 -0.1331  0.1879
 4705PP      PP14809   0.354   4.435   1.322 -0.0887  0.1516  0.1232
 4706PP      PP14810   5.816   8.312  11.822  0.0376  0.0619  0.1971
 4707PP      PP14811  12.519  14.589   9.522  0.1558  0.1216  0.0508
 4708PP      PP14812  14.381   0.328  10.377 -0.2558  0.0667 -0.1072
 4709PP      PP14813   5.705   9.850   1.524  0.2577 -0.0208  0.0142
 4710PP      PP14814  13.695  10.425  11.513  0.1183 -0.2679  0.0633
 4711PP      PP14815  10.260   0.735   9.627 -0.1577  0.0304  0.0896
 4712PP      PP14816   0.844   2.238   1.262 -0.2194 -0.0002 -0.1478
 4713PP      PP14817   4.410   4.670   3.455 -0.0110 -0.0539 -0.0589
 4714PP      PP14818   1.621  14.123   1.829 -0.3487  0.1522 -0.0005
 4715PP      PP14819   6.379  10.974   8.742  0.3145  0.1379  0.1146
 4716PP      PP14820  12.919   4.819   2.338 -0.1119  0.0717 -0.1207
 4717PP      PP14821   3.000   1.322   2.902 -0.1194  0.2362  0.2552
 4718PP      PP14822  15.705   9.038   9.306  0.5184  0.2027  0.1426
 4719PP      PP14823   4.702   6.704   3.669  0.4887  0.0697 -0.1090
 4720PP      PP14824  10.418   7.962  10.316 -0.2641 -0.1109 -0.1035
 4721PP      PP14825  11.484   2.377  12.450 -0.1833 -0.0424 -0.1704
 4722PP      PP14826   3.994   6.484   1.139 -0.0986  0.1194  0.0793
 4723PP      PP14827   3.825  14.519   8.935  0.0783  0.3882  0.0787
 4724PP      PP14828  14.748   2.515  12.569 -0.0605 -0.1207 -0.0868
 4725PP      PP14829  14.125   6.426  12.844 -0.2810  0.2289 -0.0046
 4726PP      PP14830   4.356   2.156  13.119 -0.1497 -0.0115 -0.0571
 4727PP      PP14831  15.458  15.359   3.803  0.1262  0.0784 -0.1111
 4728PP      PP14832   1.829   9.028   1.077 -0.0556  0.0029 -0.2724
 4729PP      PP14833   0.708  14.402   0.300 -0.2162 -0.0837 -0.0634
 4730PP      PP14834  13.968   5.288  13.115 -0.1627 -0.0515 -0.2311
 4731PP      PP14835   4.840   6.643  10.950 -0.0201 -0.2892 -0.1548
 4732PP      PP14836   3.641   4.551   2.107  0.2637  0.1189  0.1121
 4733PP      PP14837  14.482  13.874  10.374 -0.0203  0.0432  0.0542
 4734PP      PP14838   9.272  11.376   1.328 -0.0840 -0.0541 -0.0067
 4735PP      PP14839   9.358   6.668  11.946  0.0323  0.1341 -0.0540
 4736PP      PP14840   8.305   3.792   9.835 -0.1459  0.2131  0.2032
 4737PP      PP14841   0.829   7.447   0.680  0.1758  0.0109 -0.1316
 4738PP      PP14842   2.584   0.574   9.262  0.1655 -0.0595 -0.1739
 4739PP      PP14843  13.178  11.150  12.482 -0.2547  0.0516 -0.1760
 4740PP      PP14844  12.233   7.958  12.525  0.2651 -0.0959 -0.1781
 4741PP      PP14845  14.489  12.022   9.616  0.1388 -0.0745 -0.0092
 4742PP      PP14846  10.410   7.032   0.142 -0.1451  0.1715 -0.0657
 4743PP      PP14847   7.047   0.698   2.205 -0.2248 -0.2828 -0.3656
 4744PP      PP14848  12.207   6.874   9.830 -0.0229 -0.0604  0.0010
 4745PP      PP14849   3.030   6.046  11.595  0.0419  0.3958 -0.0580
 4746PP      PP14850   1.374   3.310   2.064 -0.1632  0.0577 -0.0505
 4747PP      PP14851  10.078   7.909   1.970 -0.0930 -0.3358  0.0858
 4748PP      PP14852  12.767  10.784   4.594  0.0797 -0.1898 -0.0814
 4749PP      PP14853   2.194   9.141   3.562  0.0922 -0.1027 -0.0931
 4750PP      PP14854  15.364  11.526   3.195  0.0143  0.0220  0.0789
 4751PP      PP14855   5.896  10.209   1.777 -0.2418  0.0939  0.1706
 4752PP      PP14856   1.181   8.499  11.787  0.2768 -0.0590  0.1169
 4753PP      PP14857   4.930   4.129   3.906 -0.1397 -0.0135 -0.4720
 4754PP      PP14858   2.667   1.780   2.172  0.0024  0.2953  0.3228
 4755PP      PP14859   7.561  11.559  13.339  0.0086  0.0283 -0.0256
 4756PP      PP14860  11.759  13.557  11.658 -0.0908  0.3756  0.1084
 4757PP      PP14861   0.851   5.189   9.967 -0.2344 -0.0618  0.1904
 4758PP      PP14862   9.541  13.421  10.542 -0.0685  0.0073 -0.0072
 4759PP      PP14863   8.539   0.587  13.071  0.1017  0.0030  0.0823
 4760PP      PP14864   9.633   7.794   1.757  0.0549 -0.0039  0.1931
 4761PP      PP14865  12.684   1.585   3.455  0.2564  0.1400  0.0915
 4762PP      PP14866   7.339   3.132   2.933 -0.1421  0.1321 -0.1652
 4763PP      PP14867   5.443  10.320  12.278  0.2383 -0.2508 -0.0149
 4764PP      PP14868   3.220  11.993  11.213  0.1886  0.0346  0.1028
 4765PP      PP14869   8.174  15.088   8.686 -0.1054  0.1966  0.4466
 4766PP      PP14870  11.399  12.516   1.302  0.1153 -0.1103 -0.3287
 4767PP      PP14871   8.590  13.271  10.906 -0.0543  0.0999  0.1688
 4768PP      PP14872   3.034  11.157   2.876 -0.2422 -0.0704 -0.0851
 4769PP      PP14873   3.535   1.404   9.236  0.1261  0.1541 -0.2020
 4770PP      PP14874   4.713   9.594   0.247  0.3870  0.0465  0.0124
 4771PP      PP14875  14.539   4.838   9.802  0.0724  0.1289 -0.1829
 4772PP      PP14876   6.948   2.042   2.618  0.1725  0.1703 -0.1325
 4773PP      PP14877   4.461   8.290  11.054 -0.0783 -0.0776 -0.1101
 4774PP      PP14878  14.436   9.623  12.758 -0.3670  0.0801 -0.0361
 4775PP      PP14879   2.616   3.164   9.396 -0.2860  0.0062  0.2008
 4776PP      PP14880  14.075   2.343  10.358  0.1915 -0.3868 -0.2484
 4777PP      PP14881  10.297   1.532   8.977  0.2535 -0.2621  0.0492
 4778PP      PP14882   4.419  10.417   1.997  0.1987  0.1398 -0.2968
 4779PP      PP14883   3.870   0.956   9.753  0.0141 -0.1869 -0.0536
 4780PP      PP14884   1.385  12.583   1.757  0.3559  0.0488 -0.1355
 4781PP      PP14885   1.749   4.202  12.269  0.3103 -0.0456  0.2332
 4782PP      PP14886   7.375   0.097  12.133 -0.0898 -0.0345 -0.2171
 4783PP      PP14887   4.284  15.946   1.406  0.1469  0.2020 -0.0325
 4784PP      PP14888  12.377  11.766  13.041 -0.2061  0.0202 -0.0757
 4785PP      PP14889  15.748   6.681   1.790 -0.0493 -0.0470 -0.0914
 4786PP      PP14890   4.996  10.786  12.973  0.3684 -0.1338  0.1711
 4787PP      PP14891   0.830   5.228   0.426 -0.0342 -0.2641 -0.1010
 4788PP      PP14892  14.353  10.160  10.694 -0.4150 -0.0718 -0.0489
 4789PP      PP14893   8.017   9.462  11.265  0.1807  0.0699  0.1650
 4790PP      PP14894   4.640  14.440  10.814  0.2811  0.0250 -0.1164
 4791PP      PP14895  11.892  11.160   3.217 -0.1992  0.0837 -0.0966
 4792PP      PP14896   1.287   5.758   0.218 -0.0581  0.1012 -0.1768
 4793PP      PP14897  11.427   3.409  13.232 -0.0578 -0.1130 -0.1326
 4794PP      PP14898   9.099   8.460   3.807  0.1015 -0.0664  0.0730
 4795PP      PP14899   4.566   8.937   0.484  0.0136 -0.1895 -0.1590
 4796PP      PP14900   8.845  11.860  12.900  0.0883  0.0838 -0.0054
 4797PP      PP14901   0.163  12.029   9.454 -0.2201  0.1978 -0.1201
 4798PP      PP14902  13.788  14.324   1.348 -0.2237 -0.0892 -0.1458
 4799PP      PP14903  12.464  11.996   1.454  0.0884  0.0239 -0.3273
 4800PP      PP14904   4.304   0.109   8.869  0.0413 -0.1956  0.1497
 4801PP      PP14905  10.349   4.027   0.424 -0.2195  0.0043 -0.0678
 4802PP      PP14906   1.917  14.699   1.014 -0.0904 -0.1021 -0.2074
 4803PP      PP14907  10.065  12.279  11.060 -0.0738 -0.0692 -0.1028
 4804PP      PP14908   2.570   1.952   1.040 -0.0137  0.2417  0.1654
 4805PP      PP14909  13.330   7.181   0.329 -0.1552 -0.2050 -0.2273
 4806PP      PP14910   9.479   8.670   3.439 -0.2365  0.2474  0.0315
 4807PP      PP14911  10.703   1.151  11.249  0.0598 -0.2123 -0.0997
 4808PP      PP14912   9.082  11.805   0.445  0.2065  0.0218  0.1417
 4809PP      PP14913   2.731  11.371   9.637 -0.1027 -0.1156  0.0670
 4810PP      PP14914  14.000  13.894   8.800  0.1680 -0.1448  0.1556
 4811PP      PP14915   1.046   4.309   0.429 -0.0836  0.2487  0.0296
 4812PP      PP14916  12.002   8.333   3.273 -0.1223 -0.2031 -0.1025
 4813PP      PP14917  12.478  13.794  11.917  0.0983  0.0817 -0.1467
 4814PP      PP14918   5.320  14.958   8.943 -0.2150 -0.1575  0.1403
 4815PP      PP14919   8.788  15.203  11.729  0.1004 -0.3621 -0.2167
 4816PP      PP14920  13.344   8.364   4.130 -0.0853 -0.0575 -0.3968
 4817PP      PP14921  12.492   0.418   3.520 -0.0352 -0.4457 -0.2187
 4818PP      PP14922   2.786   5.910   1.464 -0.1708  0.0362 -0.1769
 4819PP      PP14923   0.541   6.541  12.810 -0.0497  0.2479  0.0178
 4820PP      PP14924  13.297   4.679  12.246 -0.1648  0.2154  0.1842
 4821PP      PP14925   6.013   8.723   0.249 -0.3245  0.2092 -0.1500
 4822PP      PP14926   3.757   4.144   0.266  0.1353 -0.0782 -0.2525
 4823PP      PP14927   3.652   8.774  11.431 -0.1498  0.3237  0.0183
 4824PP      PP14928   1.200  10.439   3.225 -0.0025 -0.2210  0.0498
 4825PP      PP14929  10.380  14.185   4.855 -0.2807 -0.0374  0.3655
 4826PP      PP14930  10.629  15.838   0.699 -0.0501 -0.0507 -0.0054
 4827PP      PP14931   1.403  12.055   9.151  0.0418 -0.2564  0.1480
 4828PP      PP14932  13.105   0.554   9.515  0.3241 -0.1551 -0.1204
 4829PP      PP14933   6.676  15.237   0.422  0.0464  0.0490 -0.2003
 4830PP      PP14934  11.528  13.180   0.413  0.3048  0.0226 -0.2286
 4831PP      PP14935   3.432  15.256   0.958 -0.3156  0.0272  0.0603
 4832PP      PP14936   9.353   7.500  12.679 -0.0344  0.0187 -0.0924
 4833PP      PP14937   0.340   1.210   8.092  0.3110 -0.1618  0.0409
 4834PP      PP14938  15.845  10.280  11.030 -0.0201  0.1926 -0.0895
 4835PP      PP14939   2.947   3.076   0.532  0.0064  0.3185  0.1408
 4836PP      PP14940   9.720  15.174   2.780  0.0413  0.1517 -0.0924
 4837PP      PP14941  13.321   8.978   9.742 -0.1312  0.0464 -0.0586
 4838PP      PP14942   3.453   7.744  13.283  0.0587 -0.1387  0.0943
 4839PP      PP14943   3.000   2.244   0.920  0.2560 -0.2601  0.1247
 4840PP      PP14944   7.360   7.178   2.354 -0.1720 -0.2930 -0.0611
 4841PP      PP14945  14.945   3.495   2.451  0.0239  0.0826 -0.1480
 4842PP      PP14946   6.293   3.926   0.202 -0.3128  0.0951  0.0588
 4843PP      PP14947  12.778  11.470  10.137  0.0965  0.0305 -0.1500
 4844PP      PP14948   9.178   2.026  12.915  0.1587 -0.1648  0.0173
 4845PP      PP14949   5.031  15.893  12.235 -0.5028 -0.1055  0.1064
 4846PP      PP14950  15.831  10.854   3.057  0.0530 -0.4229  0.0024
 4847PP      PP14951   2.312   9.699  11.213  0.0334 -0.0947 -0.1149
 4848PP      PP14952  12.515  10.980   4.224 -0.1917 -0.0255  0.0344
 4849PP      PP14953   8.955   2.621   2.311 -0.1735 -0.1169 -0.1361
 4850PP      PP14954   0.454  13.940   9.589 -0.1084 -0.0378  0.0061
 4851PP      PP14955   4.922   5.311  12.980 -0.2296 -0.2369  0.0735
 4852PP      PP14956  13.050   3.622   3.879 -0.0903  0.0772  0.3836
 4853PP      PP14957   4.762  15.652  10.404  0.3681  0.1717  0.0387
 4854PP      PP14958  12.047   5.999  11.446  0.1825 -0.0296  0.3787
 4855PP      PP14959  12.673  15.172   1.040  0.2290  0.1652  0.0522
 4856PP      PP14960   6.758  11.518   3.372  0.1299  0.0001 -0.4263
 4857PP      PP14961   4.059   5.270   9.830 -0.1374 -0.1208 -0.1272
 4858PP      PP14962   1.022  15.370   2.299 -0.4517  0.1426 -0.1755
 4859PP      PP14963   7.306  13.096   9.551 -0.1073  0.1786 -0.0847
 4860PP      PP14964   4.090   9.636   1.522 -0.0947  0.1950 -0.1432
 4861PP      PP14965   0.680  12.642  12.909 -0.2427  0.0862 -0.0301
 4862PP      PP14966   4.357  12.224  10.669  0.1350  0.3857  0.4079
 4863PP      PP14967   0.169  15.856  10.815  0.1424  0.0503 -0.0773
 4864PP      PP14968  14.487   3.468   0.500 -0.0920 -0.1152  0.3847
 4865PP      PP14969   1.533   9.661  12.699  0.1558  0.1412  0.0498
 4866PP      PP14970   8.875  13.004   0.508  0.2984 -0.2508 -0.0486
 4867PP      PP14971   8.188   5.799   3.702 -0.0605  0.2459  0.1054
 4868PP      PP14972   0.490  14.098  13.362  0.0748  0.2994  0.0827
 4869PP      PP14973   0.389   9.127   9.875  0.0812  0.3086  0.1689
 4870PP      PP14974   4.942   9.524  10.775  0.3684  0.3332 -0.2986
 4871PP      PP14975  12.315   6.817   1.442  0.0662 -0.0616  0.1707
 4872PP      PP14976  10.279   6.307  11.691 -0.1572  0.3394 -0.2075
 4873PP      PP14977  12.556   7.914  10.305 -0.1610  0.3832  0.1311
 4874PP      PP14978  10.926   8.017  11.119 -0.1655  0.0601  0.0175
 4875PP      PP14979   8.477  15.332   4.239  0.2630 -0.1353  0.0149
 4876PP      PP14980  12.096   9.952  11.555 -0.1027 -0.1824 -0.1333
 4877PP      PP14981   4.145   8.283  12.805 -0.2940 -0.1541  0.0950
 4878PP      PP14982  10.306  15.018   2.063  0.1960  0.0059 -0.2722
 4879PP      PP14983   8.676   7.209   1.037  0.0514 -0.1180 -0.0257
 4880PP      PP14984   2.395  10.999   2.589  0.1202  0.0126  0.3550
 4881PP      PP14985   4.222   3.975   1.194 -0.0360  0.3681  0.1524
 4882PP      PP14986   2.456   6.464   1.122  0.2149  0.2687 -0.0592
 4883PP      PP14987  11.751   3.884  12.750  0.0883  0.1411  0.2405
 4884PP      PP14988  11.926  14.562  10.787  0.4093  0.0863  0.1829
 4885PP      PP14989   3.003   3.898  11.453  0.3856  0.0846 -0.1610
 4886PP      PP14990  14.138   6.493  10.201  0.1868 -0.3261  0.2008
 4887PP      PP14991   7.752   4.146   0.937 -0.0480  0.2657 -0.1379
 4888PP      PP14992   9.771  10.485  12.981  0.0247  0.1937 -0.3074
 4889PP      PP14993   1.864   7.694   1.471 -0.0877 -0.1038  0.1392
 4890PP      PP14994   1.740   5.640   0.174  0.3159 -0.0766 -0.2672
 4891PP      PP14995   6.193   1.036  13.133  0.0499  0.2353  0.4792
 4892PP      PP14996   6.164  10.106  12.527  0.4070  0.0297  0.0567
 4893PP      PP14997   0.613   7.632   0.080 -0.0500 -0.0121  0.0040
 4894PP      PP14998  10.544  11.816  11.656 -0.5527 -0.0002  0.0594
 4895PP      PP14999   2.233   9.991  11.667  0.1600 -0.1929 -0.0544
 4896PP      PP15000  13.676   5.600   1.634 -0.0211 -0.1952 -0.0500
 4897PP      PP15001   5.988  10.023   1.177  0.0517  0.1125  0.0737
 4898PP      PP15002  12.979  12.711   1.940  0.0929  0.0862  0.4922
 4899PP      PP15003   6.099   3.001   2.212 -0.1670  0.0269 -0.0118
 4900PP      PP15004  13.391   8.820  12.428  0.4022  0.0365 -0.0916
 4901PP      PP15005   1.952  15.741   0.100 -0.2838 -0.5612  0.2372
 4902PP      PP15006   2.724  13.551   0.414  0.1580 -0.0837  0.3274
 4903PP      PP15007   3.212  10.143   1.089  0.0047  0.2359 -0.2083
 4904PP      PP15008   5.979   1.265   1.070 -0.0474  0.0068 -0.0427
 4905PP      PP15009   1.670  14.075  11.108  0.1559 -0.3504 -0.2173
 4906PP      PP15010   8.907  10.539   0.190  0.1158 -0.1543  0.0865
 4907PP      PP15011   3.909  11.732   0.516 -0.4212 -0.2040  0.0183
 4908PP      PP15012   3.518   3.294   4.108  0.1056 -0.2222 -0.1789
 4909PP      PP15013  12.833   7.445   2.017 -0.1849 -0.3413 -0.1608
 4910PP      PP15014   7.131   5.744   0.906 -0.1506  0.2177 -0.0948
 4911PP      PP15015   9.638   6.676   5.257  0.1905 -0.1031  0.0584
 4912PP      PP15016   6.341  14.661  12.263 -0.1878  0.4637  0.0234
 4913PP      PP15017   1.197  15.179  11.580  0.0665  0.0112 -0.1504
 4914PP      PP15018   9.045   3.563  11.930 -0.2962  0.1870 -0.1037
 4915PP      PP15019   2.803   4.936   9.318  0.2283 -0.0172 -0.3155
 4916PP      PP15020   9.599  12.189   1.027 -0.0339  0.1540  0.0338
 4917PP      PP15021   1.446  10.060  12.209  0.2532 -0.0721 -0.1254
 4918PP      PP15022  14.830  13.962   1.362 -0.2029 -0.0572  0.1378
 4919PP      PP15023  14.009  15.582   1.982  0.0883  0.0795  0.1185
 4920PP      PP15024  13.402   9.494  12.651 -0.1010  0.0459  0.0516
 4921PP      PP15025   6.044   3.766   3.252  0.1265 -0.1124  0.1167
 4922PP      PP15026   9.730  11.310   4.430 -0.0408  0.1437  0.1398
 4923PP      PP15027  14.291   4.593  12.315  0.2264  0.0344  0.2994
 4924PP      PP15028   5.854  11.666  11.603  0.0047  0.1586 -0.1919
 4925PP      PP15029  12.578   7.976   9.343  0.0450  0.3537 -0.0038
 4926PP      PP15030  11.976   1.163  12.185 -0.0927  0.1935  0.3160
 4927PP      PP15031   5.786  12.228  10.647 -0.1229 -0.0626  0.0484
 4928PP      PP15032  12.862  11.522  11.285  0.2550 -0.0848  0.1232
 4929PP      PP15033  10.633   1.724  10.642 -0.3308  0.0150 -0.0994
 4930PP      PP15034   9.978   7.910   3.252 -0.1700 -0.1467 -0.0468
 4931PP      PP15035  12.880   5.850  11.657 -0.1544  0.3772 -0.1248
 4932PP      PP15036  10.262  12.194   9.137 -0.0521 -0.3906  0.2962
 4933PP      PP15037   7.820   1.121   0.676 -0.2491  0.0599 -0.0210
 4934PP      PP15038  10.465   4.458  10.968 -0.3312 -0.2103 -0.1468
 4935PP      PP15039   0.649   8.916   2.351 -0.3013 -0.0092 -0.2029
 4936PP      PP15040  10.515   1.168   2.881 -0.1807 -0.4121 -0.3481
 4937PP      PP15041   8.023   9.495  13.003 -0.0153  0.1107 -0.0833
 4938PP      PP15042   1.082   8.142  11.404  0.2341 -0.4245 -0.1296
 4939PP      PP15043   2.216   2.621   0.378  0.1198 -0.2420 -0.3775
 4940PP      PP15044   0.558   3.133   3.707  0.0548 -0.0321  0.0861
 4941PP      PP15045   1.836   6.302   8.812  0.0266  0.0860 -0.0002
 4942PP      PP15046   7.862  14.833   9.688 -0.1778 -0.2111 -0.2067
 4943PP      PP15047   4.397   5.694   4.853 -0.1200 -0.1076 -0.2768
 4944PP      PP15048   4.152  13.904   9.450 -0.1306 -0.0062  0.0251
 4945PP      PP15049  12.174   6.681  13.116  0.1596 -0.0996  0.1061
 4946PP      PP15050  14.327  13.428  13.268 -0.1051 -0.0234 -0.0795
 4947PP      PP15051   5.493  14.452   8.941 -0.1576  0.0655  0.4734
 4948PP      PP15052   6.461   2.625   9.217 -0.1421  0.0400  0.2557
 4949PP      PP15053   6.940   7.920   2.634  0.3389 -0.0379  0.2185
 4950PP      PP15054   5.076   6.551   9.366  0.3036  0.0322  0.3706
 4951PP      PP15055   0.214   7.973  10.790  0.1102 -0.0772  0.0442
 4952PP      PP15056   5.718  14.940  13.030  0.1999  0.0340  0.7308
 4953PP      PP15057   3.953  14.709   2.676  0.0376 -0.2691  0.3546
 4954PP      PP15058   2.722  14.602  11.048  0.5674 -0.0325  0.1631
 4955PP      PP15059  10.257   5.320  11.614  0.0067  0.1519 -0.0613
 4956PP      PP15060  13.272  12.411   8.677  0.1035 -0.1293 -0.2596
 4957PP      PP15061  12.293  10.363   0.741 -0.0845  0.0082 -0.0284
 4958PP      PP15062   5.625  15.376   4.083 -0.2397  0.0495  0.0854
 4959PP      PP15063  11.811   7.195   3.737 -0.0384 -0.0319 -0.5795
 4960PP      PP15064  11.514   5.862  10.731 -0.0073  0.2757  0.0535
 4961PP      PP15065   4.113   5.498  10.307 -0.2197 -0.0663  0.0185
 4962PP      PP15066   8.744   9.865  12.452  0.1533 -0.0155 -0.0854
 4963PP      PP15067   3.652  12.902   0.204  0.2568 -0.0740 -0.1138
 4964PP      PP15068   1.292   9.107  13.371 -0.1513  0.1470 -0.0815
 4965PP      PP15069  10.661   7.972   0.009  0.1723  0.0120 -0.1653
 4966PP      PP15070   5.395   5.776   1.862  0.2948 -0.0785 -0.0977
 4967PP      PP15071   5.307   4.759  12.742  0.0892  0.1089  0.0299
 4968PP      PP15072  10.875  10.886  12.100 -0.0463  0.1233 -0.0086
 4969PP      PP15073  12.216   1.282  11.176  0.0171  0.0207 -0.0831
 4970PP      PP15074  12.151   9.846   1.994 -0.0859  0.0555  0.1332
 4971PP      PP15075  13.867  15.463  11.334  0.1158 -0.2372 -0.2382
 4972PP      PP15076   3.221   3.912   3.704 -0.3656 -0.1631  0.1316
 4973PP      PP15077   8.383   0.191   9.211 -0.0572 -0.0745 -0.1572
 4974PP      PP15078   9.639   7.729  13.263  0.1738 -0.0838  0.2156
 4975PP      PP15079  14.011  13.172  11.511  0.0730  0.2818 -0.1357
 4976PP      PP15080  13.879  15.303   2.419  0.1277 -0.0751  0.1977
 4977PP      PP15081   8.617   5.120   0.242 -0.0339  0.1182 -0.1520
 4978PP      PP15082   0.574  15.826   8.690 -0.0859  0.0763  0.2409
 4979PP      PP15083   6.629  10.193   2.530 -0.1034  0.0494  0.0457
 4980PP      PP15084  12.311  10.897  12.696  0.0880 -0.2626  0.1815
 4981PP      PP15085  11.401   3.813   8.083  0.1044  0.1539 -0.0665
 4982PP      PP15086   9.707   1.318   3.204 -0.0755 -0.3996 -0.2453
 4983PP      PP15087   9.713   2.219  11.638  0.2073 -0.1636 -0.0313
 4984PP      PP15088   7.935   9.038   9.120 -0.0330  0.1074 -0.0187
 4985PP      PP15089   5.793   1.780   3.901 -0.1567 -0.1632  0.3590
 4986PP      PP15090   4.075   3.250   3.880  0.0600  0.0123  0.2688
 4987PP      PP15091   2.452   0.016  12.511 -0.1447  0.1884 -0.1372
 4988PP      PP15092   2.082   4.069  12.680  0.4413  0.1449 -0.0597
 4989PP      PP15093  12.093  13.170  11.893  0.0020 -0.3655  0.1017
 4990PP      PP15094  10.505   7.223   2.976  0.0627 -0.2898  0.2124
 4991PP      PP15095   8.958   1.006  10.644 -0.0242  0.0395 -0.0855
 4992PP      PP15096  11.276   5.449  10.546  0.2536  0.1875  0.0827
 4993PP      PP15097   1.726  10.993  12.290 -0.0753  0.0883  0.0806
 4994PP      PP15098   5.380  12.013  13.358  0.1775  0.1975 -0.4139
 4995PP      PP15099   6.432   4.159   3.200  0.0170 -0.2443 -0.2865
 4996PP      PP15100  14.757   3.696  12.282 -0.3068  0.0687 -0.1357
 4997PP      PP15101   5.254   9.350  11.098 -0.0914  0.1249  0.0776
 4998PP      PP15102   9.929   6.217  10.184  0.1389  0.2693  0.1355
 4999PP      PP15103   8.156   9.931   9.160 -0.0834 -0.1268  0.1731
 5000PP      PP15104   0.500   6.430   2.576  0.1551  0.1879 -0.1868
 5001PP      PP15105   6.089  14.797   1.212  0.0650  0.1300  0.1328
 5002PP      PP15106   4.563   3.803  11.418 -0.0504 -0.1982 -0.0261
 5003PP      PP15107   4.963  13.102  13.376 -0.1925 -0.0793  0.0771
 5004PP      PP15108  15.717   5.993   3.713  0.0025  0.5874  0.3850
 5005PP      PP15109  13.997   2.353   1.037  0.0456  0.2135 -0.0345
 5006PP      PP15110  11.860  15.395   4.185 -0.2711  0.0162  0.1766
 5007PP      PP15111   1.282   4.882   3.512 -0.0533  0.3784  0.3157
 5008PP      PP15112  14.864   6.204   2.819 -0.0956 -0.1229 -0.0658
 5009PP      PP15113   0.864   6.733   2.624  0.0748  0.1109  0.0134
 5010PP      PP15114  14.482   8.759   2.363 -0.0913  0.1052 -0.2136
 5011PP      PP15115  14.591   2.957   3.036  0.1207 -0.2324 -0.1045
 5012PP      PP15116   3.543   3.177   9.054 -0.0778 -0.1811 -0.2531
 5013PP      PP15117  15.005   8.216   0.822 -0.1371 -0.1026 -0.1210
 5014PP      PP15118   9.900  13.640   3.527 -0.4292 -0.0814  0.1174
 5015PP      PP15119  13.888   4.441  10.766 -0.0456  0.4042  0.1972
 5016PP      PP15120  14.690  12.307   0.505  0.1619 -0.2407 -0.4342
 5017PP      PP15121  11.795   2.471  11.091 -0.0264 -0.0569 -0.1857
 5018PP      PP15122  13.434  13.277  10.697  0.1861 -0.1557  0.0380
 5019PP      PP15123   0.267   9.392  13.224  0.0030  0.1659  0.0484
 5020PP      PP15124  10.076  10.037   9.691  0.2076 -0.1313 -0.1882
 5021PP      PP15125   8.781   9.060   1.042  0.2003 -0.0049  0.0208
 5022PP      PP15126  10.502   3.159   0.416 -0.2722 -0.0834 -0.3366
 5023PP      PP15127  11.871  10.161   1.118  0.2064  0.1154 -0.1800
 5024PP      PP15128   9.003  15.855   1.548 -0.0023 -0.0088  0.1833
 5025PP      PP15129   6.393   6.702  10.771  0.1660  0.4645 -0.2312
 5026PP      PP15130   7.914  10.831  10.568 -0.1794  0.0997  0.0911
 5027PP      PP15131   6.073   4.996  10.895 -0.2941 -0.1152 -0.1772
 5028PP      PP15132   7.597   7.944   8.867 -0.0263  0.1152 -0.3290
 5029PP      PP15133  14.661  14.969  11.828 -0.1146 -0.3474 -0.1071
 5030PP      PP15134   3.835   7.115   4.649 -0.2163  0.0636 -0.3108
 5031PP      PP15135   9.961   0.677   3.015 -0.0000 -0.1737  0.0999
 5032PP      PP15136   9.432  15.307  11.048  0.2754  0.1935 -0.1261
 5033PP      PP15137   5.427  10.946   8.522 -0.0318 -0.1856 -0.2638
 5034PP      PP15138  11.406   3.821  11.698  0.3352 -0.0505 -0.0631
 5035PP      PP15139  15.453   4.958  11.766 -0.0420 -0.1222 -0.0940
 5036PP      PP15140   2.358  13.227  11.737 -0.1955 -0.3857 -0.0029
 5037PP      PP15141  12.743  11.239   3.916  0.1853  0.2545  0.0777
 5038PP      PP15142   1.595   6.481   2.302 -0.2751 -0.4055 -0.2588
 5039PP      PP15143   7.463   6.794  10.251  0.1204  0.3313 -0.0704
 5040PP      PP15144  14.654   7.541  13.236  0.0892 -0.2008 -0.1465
 5041PP      PP15145   3.486   0.069  11.058  0.1581 -0.0357 -0.0090
 5042PP      PP15146   4.957   0.816   8.949  0.0932 -0.0076 -0.0537
 5043PP      PP15147   3.908   3.458   8.784 -0.0001 -0.0096 -0.0275
 5044PP      PP15148   5.697  11.798   3.842  0.1345 -0.1199 -0.2657
 5045PP      PP15149  13.798   5.149   4.126 -0.2147 -0.0342 -0.1221
 5046PP      PP15150   4.235   8.560  10.689 -0.0248 -0.0314 -0.1347
 5047PP      PP15151  12.926   1.588  11.558 -0.0884 -0.2042 -0.0177
 5048PP      PP15152   0.353   0.012  13.164 -0.1069 -0.1710  0.1832
 5049PP      PP15153   7.899   9.653   9.918 -0.3513  0.0840  0.0018
 5050PP      PP15154   9.884   3.126   2.085  0.3559 -0.2164 -0.0396
 5051PP      PP15155   5.890   1.692   8.997  0.3574 -0.1256 -0.3896
 5052PP      PP15156  11.778  13.487  12.557 -0.2370  0.2157  0.4094
 5053PP      PP15157  14.653  10.328   2.703 -0.0906  0.0330 -0.1898
 5054PP      PP15158   3.293   7.648  12.805  0.1399 -0.2031 -0.1918
 5055PP      PP15159   9.334   5.130   3.761  0.0340  0.0851  0.0171
 5056PP      PP15160   7.396   0.565  10.746  0.0774 -0.1370  0.0080
 5057PP      PP15161   9.457   8.319   2.005 -0.2853 -0.0065 -0.2394
 5058PP      PP15162  12.375   5.035  11.898 -0.0172  0.0024 -0.0665
 5059PP      PP15163   8.710   8.146   3.604  0.2096 -0.2868 -0.2334
 5060PP      PP15164  15.205   6.538  10.313 -0.3759  0.3705 -0.2553
 5061PP      PP15165   8.427  14.737   9.388  0.3420 -0.1505  0.1472
 5062PP      PP15166   5.770  14.604  12.361  0.1870  0.1192  0.4615
 5063PP      PP15167   0.003   1.210  12.914 -0.0677 -0.1450 -0.0753
 5064PP      PP15168   4.271   0.848   3.389 -0.2363 -0.0726  0.0617
 5065PP      PP15169   2.453   5.505   1.911  0.3971  0.0625 -0.1514
 5066PP      PP15170   6.789   8.765   9.542  0.0115  0.0399 -0.1721
 5067PP      PP15171  14.427   3.375  12.143  0.0903  0.0235 -0.1987
 5068PP      PP15172   4.472   2.882  11.798  0.3725  0.2056  0.0421
 5069PP      PP15173   1.962  13.007  10.206  0.2759 -0.0080 -0.0559
 5070PP      PP15174   7.451   7.886  11.677 -0.0740 -0.1580 -0.0934
 5071PP      PP15175   1.720  15.527   2.294 -0.3329  0.0502 -0.5955
 5072PP      PP15176  13.085  14.394  12.526 -0.3496  0.0017  0.0001
 5073PP      PP15177  14.979   5.348   0.492 -0.0955  0.0917  0.0149
 5074PP      PP15178  14.200   9.470   1.178 -0.1892 -0.0216  0.1814
 5075PP      PP15179   3.229  10.311   0.141  0.1583  0.0757  0.1534
 5076PP      PP15180  11.759   4.567   3.481 -0.0029 -0.3719  0.2008
 5077PP      PP15181   2.867   8.086  10.723  0.1594  0.2354  0.1032
 5078PP      PP15182   9.106  13.812   9.698 -0.0958 -0.1978 -0.0370
 5079PP      PP15183  13.967   5.154  11.417  0.3874 -0.1723  0.3020
 5080PP      PP15184   4.152  11.404   2.093  0.0971 -0.1169 -0.1286
 5081PP      PP15185   9.125  13.468  10.951 -0.1867  0.0760 -0.0798
 5082PP      PP15186   8.960   2.226  10.339  0.1272 -0.0583  0.1762
 5083PP      PP15187   6.151   2.444  11.827  0.0795 -0.0673 -0.1904
 5084PP      PP15188  10.291  14.394  10.046 -0.0113 -0.1944  0.2760
 5085PP      PP15189  10.649   3.113   1.335 -0.0629 -0.0911 -0.2288
 5086PP      PP15190   3.738   3.304  11.616 -0.1004 -0.0915 -0.0009
 5087PP      PP15191  10.115  13.868  11.160  0.0793  0.1486 -0.0478
 5088PP      PP15192  14.165   4.073  12.512  0.0734  0.1661  0.0978
 5089PP      PP15193   3.198  12.855  11.282  0.0782  0.0853 -0.1427
 5090PP      PP15194  13.861  14.476   0.324 -0.1546  0.1234  0.2828
 5091PP      PP15195  12.641   0.836  12.895 -0.1456 -0.4320  0.0830
 5092PP      PP15196   5.704   3.619   9.946  0.1200 -0.2284  0.1854
 5093PP      PP15197   8.902   7.246   3.108  0.0466  0.1564 -0.0378
 5094PP      PP15198   9.167  14.678   3.318  0.0839 -0.1397  0.0003
 5095PP      PP15199  10.057   4.246   1.552  0.0966 -0.2191  0.0947
 5096PP      PP15200   7.205   3.670   0.051 -0.2901 -0.1348  0.6404
 5097PP      PP15201   6.365  12.033   1.195  0.1834  0.1017  0.0698
 5098PP      PP15202   6.990   7.543   2.366 -0.2642 -0.0351 -0.0202
 5099PP      PP15203   3.276  11.451  10.903 -0.2580  0.1187  0.4662
 5100PP      PP15204  13.300   4.197  12.990  0.1245  0.0789 -0.1124
 5101PP      PP15205   9.568  15.265  10.067 -0.3772 -0.3716 -0.0046
 5102PP      PP15206  11.891  12.997   0.687 -0.2241  0.0411 -0.1746
 5103PP      PP15207   1.255   0.387   9.014  0.2480 -0.0765  0.2689
 5104PP      PP15208   5.717   8.822   2.942  0.0578  0.0976 -0.0619
 5105PP      PP15209   1.872   4.599   9.162  0.2075  0.1845  0.0300
 5106PP      PP15210  10.282   0.185   4.512  0.2376 -0.0699 -0.0629
 5107PP      PP15211   9.149  13.032   9.717 -0.0491  0.1212 -0.1081
 5108PP      PP15212   5.531   0.447  10.216  0.0165  0.0071  0.0368
 5109PP      PP15213  13.088   3.183   8.665 -0.0544 -0.1035 -0.1667
 5110PP      PP15214   8.880   6.935  10.167 -0.3902  0.2997  0.2328
 5111PP      PP15215   0.204   1.133   0.377 -0.0649  0.0309  0.0963
 5112PP      PP15216   3.424   8.138  12.649 -0.0022 -0.1306 -0.0097
 5113PP      PP15217   4.065  11.519   4.043 -0.2856  0.1150 -0.0938
 5114PP      PP15218   7.409  10.062   1.121 -0.0002 -0.0339 -0.3786
 5115PP      PP15219   5.220  15.458   8.898 -0.0869  0.0408  0.0618
 5116PP      PP15220  15.910   8.656   2.381 -0.1751 -0.1947 -0.0462
 5117PP      PP15221   1.974  15.844  12.085 -0.1144 -0.3240 -0.2086
 5118PP      PP15222  15.663   2.970   9.227  0.0994  0.0524  0.2089
 5119PP      PP15223   7.979   6.751  12.372 -0.3641  0.0663 -0.1793
 5120PP      PP15224   2.711  10.551  12.360  0.1889  0.1156 -0.1196
 5121PP      PP15225   9.562  14.804   3.966  0.0152 -0.1183 -0.0112
 5122PP      PP15226  10.250   7.170  12.041  0.0478  0.1645  0.0247
 5123PP      PP15227   4.822  12.742   3.649  0.1076  0.2284  0.1091
 5124PP      PP15228  12.679  15.343   1.921  0.0001  0.3036 -0.4418
 5125PP      PP15229  14.499   8.247   1.152  0.3232 -0.1865 -0.0697
 5126PP      PP15230   8.526   4.218  10.632  0.1300  0.1177 -0.0130
 5127PP      PP15231   0.707   5.471   3.896 -0.1887  0.2544  0.2183
 5128PP      PP15232  10.875  12.263  10.989  0.2733 -0.1340 -0.0436
 5129PP      PP15233   2.062   3.678  13.063  0.0134  0.0346 -0.1819
 5130PP      PP15234   3.517  14.108   1.892  0.1696  0.2939  0.0348
 5131PP      PP15235   6.579   3.233  11.321 -0.1814 -0.0233  0.4151
 5132PP      PP15236  13.806   1.404  12.124 -0.3034  0.0756  0.1639
 5133PP      PP15237   3.471  14.820   0.642 -0.0430 -0.2934  0.0120
 5134PP      PP15238   3.354  14.826   3.573 -0.2728  0.1796  0.0162
 5135PP      PP15239  11.653   6.698   3.681  0.1538 -0.0117  0.1902
 5136PP      PP15240   3.578   6.946   0.167 -0.1679  0.1858 -0.0606
 5137PP      PP15241   8.636  13.154   2.889  0.1090 -0.0674  0.1070
 5138PP      PP15242  12.292   6.741   8.870  0.1647 -0.1803  0.0412
 5139PP      PP15243   0.485  14.416  11.419  0.3433 -0.3323  0.0042
 5140PP      PP15244   4.950   6.569  12.801 -0.0313  0.1222  0.0834
 5141PP      PP15245   6.883   0.705   0.844  0.0300  0.0053  0.1157
 5142PP      PP15246   2.982   9.258   0.626  0.1567 -0.2286  0.1864
 5143PP      PP15247   7.745  14.327   9.892 -0.1944 -0.0116 -0.1469
 5144PP      PP15248   4.462  15.412  10.818 -0.1858 -0.2073 -0.0009
 5145PP      PP15249   3.767  10.184   3.395  0.0166  0.5562 -0.0341
 5146PP      PP15250   0.670  12.304  12.379  0.2051 -0.4703 -0.0319
 5147PP      PP15251   4.368  11.254   0.671 -0.2300  0.1179 -0.1231
 5148PP      PP15252   2.958   9.180   3.952  0.0062  0.3168  0.1360
 5149PP      PP15253   3.022  12.783   1.831 -0.1743 -0.1324 -0.3009
 5150PP      PP15254   7.648   1.919   1.841  0.0449 -0.5502  0.4059
 5151PP      PP15255   7.723  10.903   3.228  0.0160 -0.0912  0.1406
 5152PP      PP15256  15.944   8.812  11.119 -0.0724  0.1100  0.2389
 5153PP      PP15257   9.260   2.481   1.408  0.0642  0.1691  0.1076
 5154PP      PP15258  15.926   3.351  10.313 -0.0438 -0.0217 -0.1898
 5155PP      PP15259   0.887   5.262   3.367 -0.3441  0.0256  0.2970
 5156PP      PP15260   3.095   3.266   0.086 -0.0102  0.0190 -0.2801
 5157PP      PP15261   0.872   0.977   8.186  0.1682  0.1303  0.0296
 5158PP      PP15262  14.580   3.717   2.178  0.3174  0.1806 -0.0788
 5159PP      PP15263   3.494  13.028   1.230  0.0418  0.1436 -0.1599
 5160PP      PP15264   0.190   2.258  10.886  0.2586  0.3256  0.1935
 5161PP      PP15265   3.946  15.813  10.881  0.0115 -0.2079 -0.0092
 5162PP      PP15266   5.929  10.823  10.978 -0.0054 -0.1242  0.3756
 5163PP      PP15267   1.640   3.535   0.244  0.0739  0.0333 -0.0647
 5164PP      PP15268  14.085   2.843   9.845 -0.1928 -0.1748 -0.0099
 5165PP      PP15269   8.139  13.872  11.725  0.1407  0.0656 -0.1577
 5166PP      PP15270  12.027   3.381   0.956  0.2599 -0.0412  0.0597
 5167PP      PP15271  14.842  12.917   9.766  0.2909  0.4875 -0.3122
 5168PP      PP15272  11.414   7.175   9.491  0.1891 -0.0859 -0.2590
 5169PP      PP15273  13.973  11.379   1.526  0.1294 -0.0728 -0.0521
 5170PP      PP15274   5.358   4.434   4.692  0.0677  0.3606 -0.2326
 5171PP      PP15275   1.283  10.784   3.589 -0.1126 -0.1361 -0.0548
 5172PP      PP15276   7.091   0.093  12.906 -0.2676  0.0604 -0.0252
 5173PP      PP15277   4.120   8.044   4.455 -0.0984 -0.0363  0.2769
 5174PP      PP15278  15.376   4.124   1.431  0.0025  0.0398  0.2527
 5175PP      PP15279   4.157  14.405   8.561 -0.3230 -0.0566  0.0209
 5176PP      PP15280  13.008   2.032   1.976 -0.1991  0.1469  0.3656
 5177PP      PP15281  14.168  12.285  13.367 -0.0588  0.0811  0.0137
 5178PP      PP15282   6.853   1.662   9.170 -0.0672  0.2885  0.0499
 5179PP      PP15283  15.400   9.981   2.085  0.1241 -0.1667  0.1034
 5180PP      PP15284   7.222   7.021  10.642 -0.1826 -0.1684 -0.0436
 5181PP      PP15285  14.610  14.946  11.317  0.0349  0.2523 -0.3159
 5182PP      PP15286  10.219  11.673   2.849  0.0502  0.2931 -0.0127
 5183PP      PP15287  15.839   1.033  10.378 -0.0966 -0.3473 -0.0490
 5184PP      PP15288   9.644   3.068  10.990  0.0485 -0.0243 -0.1143
 5185PP      PP15289   1.140   5.514   2.191  0.0044  0.2885  0.2281
 5186PP      PP15290  12.023   8.688  11.192  0.2221 -0.1176  0.1708
 5187PP      PP15291   1.364   0.065   2.837  0.3132  0.1961  0.1581
 5188PP      PP15292  13.289   4.566  11.025 -0.1659 -0.0360  0.4453
 5189PP      PP15293   4.462  10.664   4.267 -0.1130  0.1521  0.3450
 5190PP      PP15294  11.040  13.493   2.127  0.0761 -0.0849 -0.2746
 5191PP      PP15295   8.320  11.890  12.220 -0.1189  0.2197  0.1888
 5192PP      PP15296  11.680   1.712   2.291  0.0084 -0.0364 -0.3912
 5193PP      PP15297  15.887  10.477   4.048 -0.2201  0.0812  0.1303
 5194PP      PP15298   0.085   4.920   1.377  0.3445  0.2097 -0.0502
 5195PP      PP15299   2.063  10.232  10.305  0.0218  0.0250 -0.0463
 5196PP      PP15300  14.687   1.348  11.929  0.0314 -0.1943 -0.1159
 5197PP      PP15301  12.767   6.539  10.282 -0.0969  0.1554  0.0349
 5198PP      PP15302   2.486   3.125   0.426  0.0435 -0.0853  0.2394
 5199PP      PP15303   4.609  14.205  11.293 -0.1303 -0.1197  0.0181
 5200PP      PP15304  13.830   1.405  12.758 -0.1696 -0.0825  0.0101
 5201PP      PP15305   5.667   4.075   9.786 -0.0120  0.2924 -0.2492
 5202PP      PP15306  13.007  10.320  11.838  0.0027 -0.0009 -0.0061
 5203PP      PP15307  12.623  10.613  13.104  0.1514  0.2524 -0.1957
 5204PP      PP15308   4.794  14.458   2.946  0.4214  0.0178  0.1740
 5205PP      PP15309  15.654  12.921   9.420 -0.0715  0.2139 -0.0220
 5206PP      PP15310  13.642   5.889  10.857 -0.2911 -0.0572 -0.1850
 5207PP      PP15311   7.908  10.044   8.738  0.0049 -0.0418  0.1228
 5208PP      PP15312   0.193   7.401   2.393  0.3900  0.2042  0.0303
 5209PP      PP15313   0.086  14.497   3.489  0.0556  0.1101  0.1808
 5210PP      PP15314   2.029   8.706   3.790 -0.0779 -0.2054 -0.1317
 5211PP      PP15315   2.212  14.440  13.149 -0.2037 -0.1810 -0.2171
 5212PP      PP15316   2.402  14.921  12.907 -0.0354 -0.1378 -0.0010
 5213PP      PP15317   3.632   3.304   1.620 -0.2212  0.2798  0.2218
 5214PP      PP15318   8.760   6.776  11.968 -0.1942 -0.0569 -0.0578
 5215PP      PP15319  11.823  14.752   3.523  0.1754  0.0518 -0.1950
 5216PP      PP15320   2.988   2.007  12.567 -0.0114 -0.0257  0.0386
 5217PP      PP15321   7.921  12.878   2.009 -0.0033  0.0840  0.0500
 5218PP      PP15322  14.960  15.294   3.703 -0.0322  0.0720 -0.1898
 5219PP      PP15323   2.981  11.902  10.667  0.0328 -0.0546 -0.0021
 5220PP      PP15324   3.299   9.210   3.557 -0.2373  0.0705 -0.2551
 5221PP      PP15325   5.440  13.983   3.539 -0.2196 -0.2065  0.3226
 5222PP      PP15326  14.542   2.295   2.547  0.0063 -0.1201 -0.0975
 5223PP      PP15327   7.502  15.105   9.852 -0.2687  0.2414 -0.0193
 5224PP      PP15328  10.801   8.900   4.159 -0.2155 -0.0742  0.2060
 5225PP      PP15329   7.815  14.870   1.983 -0.2104 -0.3072 -0.0868
 5226PP      PP15330  10.080   4.910  12.319 -0.5551  0.0824  0.1457
 5227PP      PP15331   6.874  15.628   1.478  0.1267 -0.0581  0.1953
 5228PP      PP15332  10.959  10.892  12.913  0.1011  0.1149  0.0648
 5229PP      PP15333   5.321   9.138  12.298  0.1472 -0.1775 -0.4243
 5230PP      PP15334   4.409  13.001   9.957 -0.0631 -0.1222 -0.0504
 5231PP      PP15335   7.053   5.260   0.827 -0.0420  0.2615 -0.2237
 5232PP      PP15336   7.258   1.512   2.636 -0.0778  0.0293 -0.1009
 5233PP      PP15337  15.045  13.987  12.874  0.0083  0.0177  0.0842
 5234PP      PP15338  13.342  14.223  12.047 -0.2150 -0.1516 -0.3201
 5235PP      PP15339  13.443  11.321   9.131 -0.2012  0.1897  0.0579
 5236PP      PP15340   3.826  12.174   0.247 -0.3203 -0.1466 -0.2273
 5237PP      PP15341   8.149  15.274   0.994 -0.0314  0.0637  0.0283
 5238PP      PP15342  13.581  11.950   2.919 -0.3808  0.1222 -0.1910
 5239PP      PP15343  13.854   2.982   3.846 -0.2472 -0.1395  0.0018
 5240PP      PP15344  14.523   8.289   2.661 -0.1658 -0.0957 -0.0189
 5241PP      PP15345   3.069   5.377  11.175 -0.0245 -0.1043 -0.1224
 5242PP      PP15346   1.309   9.584   0.158  0.2898 -0.0103 -0.0999
 5243PP      PP15347   8.374  15.169  12.791  0.2252 -0.2227 -0.0148
 5244PP      PP15348   1.930   2.829  12.951 -0.0303 -0.2457  0.1782
 5245PP      PP15349   5.030   2.495  10.327  0.1327  0.1165  0.0975
 5246PP      PP15350   8.817   2.861   0.267 -0.2373  0.1104  0.0159
 5247PP      PP15351   1.209  11.858   1.164 -0.2281 -0.2736  0.1679
 5248PP      PP15352  14.281   6.051  11.062 -0.4586 -0.0794 -0.1055
 5249PP      PP15353   4.053  14.472  12.939  0.0456  0.0273  0.1133
 5250PP      PP15354   7.825  15.396   0.534  0.0067  0.0202 -0.0971
 5251PP      PP15355   6.840  13.276   1.011  0.0002 -0.2511 -0.4555
 5252PP      PP15356  15.562   3.620  11.023  0.0176  0.1980  0.0709
 5253PP      PP15357  13.093   4.643   9.332 -0.1452 -0.3101  0.0470
 5254PP      PP15358  12.470   3.993   1.964 -0.0098 -0.0335  0.1823
 5255PP      PP15359   9.628   9.062   1.356  0.1767  0.2340 -0.0932
 5256PP      PP15360   3.895   6.388  11.892  0.1500  0.2256 -0.1036
 5257PP      PP15361   2.599  11.606  10.649  0.1025 -0.0462  0.1471
 5258PP      PP15362   2.654  14.160  11.983 -0.0912  0.0529 -0.0685
 5259PP      PP15363   4.299  13.632   2.156 -0.2110 -0.0155  0.0122
 5260PP      PP15364   8.461   1.642  13.265 -0.0580 -0.3559 -0.0686
 5261PP      PP15365   2.803   9.685   0.420 -0.0762  0.0454 -0.0728
 5262PP      PP15366   7.386  15.830   0.295 -0.0220 -0.2391  0.0843
 5263PP      PP15367   7.425  10.087   2.474  0.1548 -0.1866  0.1646
 5264PP      PP15368   0.597   7.686  10.544  0.1031  0.0183  0.1295
 5265PP      PP15369   8.896   9.729   1.480 -0.0185 -0.0452 -0.0608
 5266PP      PP15370  15.898   9.780   3.110 -0.0804  0.0643  0.0221
 5267PP      PP15371   0.002  11.464   9.567 -0.1525 -0.1913  0.0503
 5268PP      PP15372  15.047   5.454   2.520 -0.1331  0.3520 -0.2284
 5269PP      PP15373   4.598   5.596   0.438 -0.2473 -0.1238 -0.2246
 5270PP      PP15374   5.504  15.394   2.056  0.0739  0.0233 -0.2583
 5271PP      PP15375   6.508   1.317  13.396 -0.1054 -0.0934 -0.2178
 5272PP      PP15376  14.847   3.356   0.835 -0.2413  0.0319  0.1472
 5273PP      PP15377  15.269   3.438  12.785 -0.1546  0.0436  0.0827
 5274PP      PP15378  15.452   2.589   1.975 -0.4226 -0.0799  0.0299
 5275PP      PP15379  11.168   2.415   9.844 -0.1739  0.4483  0.1509
 5276PP      PP15380   0.299   4.065  12.232  0.2960  0.2227  0.0337
 5277PP      PP15381   2.786  13.278   2.400  0.1385 -0.0022 -0.0010
 5278PP      PP15382   1.196  10.915  12.617 -0.6625  0.0204 -0.1376
 5279PP      PP15383   0.191  10.121   2.638 -0.1170  0.3104 -0.0453
 5280PP      PP15384  10.463  11.383   2.507  0.0573  0.2388  0.0137
 5281PP      PP15385   7.183  15.683   1.855  0.0131  0.1911  0.1958
 5282PP      PP15386   5.460  11.019   1.115 -0.0439 -0.1407  0.1530
 5283PP      PP15387   4.913   0.442   8.606 -0.2767 -0.1327 -0.1801
 5284PP      PP15388  12.694   2.679   3.524  0.2016 -0.0536  0.2145
 5285PP      PP15389   7.820   3.500  11.973 -0.0726  0.2879  0.0306
 5286PP      PP15390  10.699   8.420   0.609 -0.0857 -0.1397  0.0294
 5287PP      PP15391  13.087   6.522   9.675  0.1825  0.0381  0.1255
 5288PP      PP15392  13.115   9.124   1.453 -0.2022  0.0636 -0.0673
 5289PP      PP15393   4.752  10.304   4.143  0.2647 -0.0555 -0.1725
 5290PP      PP15394   7.330  10.701   9.188  0.1709 -0.1976 -0.2641
 5291PP      PP15395   8.057  13.985  11.140  0.0028 -0.1875 -0.0967
 5292PP      PP15396   9.932  13.386   3.091  0.1489  0.0385  0.1045
 5293PP      PP15397   9.696  14.477   0.334 -0.1337 -0.1542 -0.4021
 5294PP      PP15398   8.223  10.386  10.631 -0.2994  0.0049  0.0846
 5295PP      PP15399   3.990   6.704   1.600  0.1901 -0.0247  0.2559
 5296PP      PP15400   8.841  13.503   4.164 -0.1089  0.0336 -0.0201
 5297PP      PP15401   5.328  11.943   8.629  0.1579  0.1014 -0.2076
 5298PP      PP15402   8.485  11.728  10.234 -0.0205 -0.1783 -0.0137
 5299PP      PP15403   9.639   5.377  10.242  0.2173 -0.0834 -0.3084
 5300PP      PP15404  15.661   1.709   2.797  0.0557 -0.0734  0.2271
 5301PP      PP15405   2.990  15.371   1.727  0.1182  0.2070  0.0305
 5302PP      PP15406   1.496   8.282   0.088 -0.1098  0.0388 -0.0995
 5303PP      PP15407  13.655   9.418   0.413 -0.1439  0.3217  0.2463
 5304PP      PP15408  13.052   0.759  10.891  0.1808 -0.0149  0.0419
 5305PP      PP15409   5.288   4.360   9.891  0.1697  0.0955  0.1673
 5306PP      PP15410   3.776   4.636   2.923  0.0109 -0.0611 -0.1055
 5307PP      PP15411  10.908   7.426   1.717 -0.0519 -0.0227  0.0782
 5308PP      PP15412   9.738   1.637  10.701 -0.4130 -0.0076  0.0321
 5309PP      PP15413   5.082   3.400  12.933  0.0255  0.0656 -0.1996
 5310PP      PP15414  15.307   2.309  10.552 -0.0256  0.0258  0.0239
 5311PP      PP15415   1.524   1.286   0.193  0.1475 -0.0810  0.0414
 5312PP      PP15416   9.197   2.748  12.288 -0.0405 -0.2734 -0.1117
 5313PP      PP15417  12.392  10.733   2.712 -0.1308  0.0223 -0.1168
 5314PP      PP15418   0.548   4.389  13.254 -0.2929 -0.1402 -0.0668
 5315PP      PP15419   9.500   8.339   4.172 -0.2641  0.0195 -0.1184
 5316PP      PP15420   5.277   0.256   2.164 -0.1470  0.2073  0.2726
 5317PP      PP15421   5.673  11.079   8.919  0.1485  0.0882 -0.1840
 5318PP      PP15422  10.765  12.460  10.395  0.2623  0.2279 -0.3674
 5319PP      PP15423  15.725   6.870   9.980  0.3335 -0.0370 -0.0475
 5320PP      PP15424   9.734   8.572   0.684 -0.0002  0.2357 -0.0387
 5321PP      PP15425   8.530  14.848  10.930  0.1530  0.3696  0.0975
 5322PP      PP15426  13.397   5.838  10.376 -0.0306 -0.3757  0.1276
 5323PP      PP15427  14.591   9.673  11.050  0.2077  0.1255  0.0752
 5324PP      PP15428   0.909   6.960  12.864 -0.1269 -0.2046 -0.0219
 5325PP      PP15429   2.324   4.363  10.405 -0.2698  0.2909 -0.0953
 5326PP      PP15430   6.032   6.266  11.601 -0.1758 -0.2296  0.0253
 5327PP      PP15431   0.895  11.502   0.867 -0.0159 -0.3412 -0.2379
 5328PP      PP15432  12.619   5.782   2.536  0.2041 -0.0605 -0.0986
 5329PP      PP15433  11.460   4.025   3.639 -0.1763  0.0506  0.0160
 5330PP      PP15434   7.645  12.076  10.563  0.1731 -0.2610  0.1279
 5331PP      PP15435  11.488   0.700   3.570 -0.1447  0.1456 -0.1895
 5332PP      PP15436   0.459   9.409  11.925 -0.0047  0.0627  0.4274
 5333PP      PP15437   6.577   6.743   4.181  0.1303  0.0823  0.2043
 5334PP      PP15438   6.298   8.187  12.416 -0.1681 -0.0469 -0.0432
 5335PP      PP15439  13.296  12.370   4.013 -0.2356  0.2510  0.3108
 5336PP      PP15440   1.130  12.793  10.066 -0.2654  0.0170 -0.0234
 5337PP      PP15441   9.986  12.828   4.301 -0.1863  0.0049 -0.0012
 5338PP      PP15442   8.479  13.835   3.996  0.3472 -0.4219 -0.3107
 5339PP      PP15443  11.481   2.057   0.850 -0.3223  0.3139  0.0225
 5340PP      PP15444  15.296   0.446  12.070  0.0320 -0.0531 -0.0572
 5341PP      PP15445  15.281   5.238   3.698 -0.1713 -0.0623  0.1855
 5342PP      PP15446  13.305  12.525   2.945  0.4044 -0.1494 -0.0567
 5343PP      PP15447  10.430  11.781   9.458  0.1593  0.2407  0.0115
 5344PP      PP15448   3.424   5.134   9.114 -0.0003  0.0056 -0.2470
 5345PP      PP15449  11.918  15.778   3.350 -0.0316  0.1038  0.2312
 5346PP      PP15450  13.641   9.832   4.454  0.2947 -0.2376 -0.1387
 5347PP      PP15451  14.809   6.198   9.108 -0.0602  0.0844  0.0781
 5348PP      PP15452   0.074   6.945   2.160  0.0119 -0.3404  0.0871
 5349PP      PP15453   1.504  13.973   0.078 -0.2619 -0.0668  0.1917
 5350PP      PP15454   7.681  11.257  10.327 -0.0978 -0.1012 -0.0014
 5351PP      PP15455   1.924   1.234   3.138 -0.0419  0.0979  0.0081
 5352PP      PP15456   0.602   5.458   2.146  0.2991 -0.4161  0.0633
 5353PP      PP15457   9.783   8.221  13.142  0.0823 -0.0879  0.1774
 5354PP      PP15458   5.415   9.276   1.330  0.1342  0.0595 -0.0546
 5355PP      PP15459  14.288   1.031   0.832  0.0831 -0.2717  0.1828
 5356PP      PP15460   4.706  10.860  10.029 -0.1354  0.3360 -0.0106
 5357PP      PP15461  12.038  13.636  12.054  0.1190 -0.0013 -0.0497
 5358PP      PP15462   9.382   8.138   0.121 -0.1760 -0.1947  0.2985
 5359PP      PP15463   2.506  13.118   2.000  0.0350  0.2596  0.2048
 5360PP      PP15464  14.133   8.580  11.514 -0.0702  0.0962  0.1970
 5361PP      PP15465   6.912  10.236   1.197 -0.0381  0.0312 -0.1389
 5362PP      PP15466   9.941   9.170  10.403  0.0974 -0.0539 -0.1372
 5363PP      PP15467  12.285  10.885   3.156  0.0715 -0.0232  0.1681
 5364PP      PP15468  15.398  12.921  11.451  0.2526 -0.0871  0.3041
 5365PP      PP15469  13.703   6.888  13.316  0.2390 -0.0632 -0.1283
 5366PP      PP15470   6.015   1.007  11.711  0.1551  0.0655 -0.2172
 5367PP      PP15471  11.280   9.412  12.730 -0.2967  0.0429  0.0093
 5368PP      PP15472  11.507  15.357   2.664 -0.0906 -0.1665 -0.0178
 5369PP      PP15473   3.696   1.128  10.691 -0.1670  0.0205  0.3672
 5370PP      PP15474   0.456   3.319   3.191  0.1106  0.0443 -0.1702
 5371PP      PP15475   8.472  12.438   8.218 -0.2059 -0.0391  0.0244
 5372PP      PP15476   3.265   5.318   0.361  0.1412 -0.0742  0.1702
 5373PP      PP15477   9.259  15.433   3.243  0.0837  0.1047 -0.0987
 5374PP      PP15478  14.325   7.389   4.302  0.0854  0.5328 -0.2016
 5375PP      PP15479  15.211  15.088  10.158  0.0634  0.0573  0.1246
 5376PP      PP15480  10.389  13.772   5.235 -0.0198 -0.1750 -0.0215
 5377PP      PP15481   7.845   3.168   4.097  0.2043  0.1122 -0.2802
 5378PP      PP15482   9.682   5.724  12.761 -0.2339  0.1296 -0.0277
 5379PP      PP15483   4.097   8.048  10.618 -0.1507 -0.0463 -0.2750
 5380PP      PP15484   0.538   6.803  11.523 -0.2685  0.1763  0.0211
 5381PP      PP15485   2.850   0.723  12.278  0.0179  0.0707  0.1835
 5382PP      PP15486   6.837   8.737   4.455 -0.0716  0.3324  0.0369
 5383PP      PP15487  14.396   9.226  11.494  0.3385 -0.0343  0.1471
 5384PP      PP15488  10.514  10.103   0.218 -0.2682 -0.2496  0.0605
 5385PP      PP15489   2.130   6.188   2.415  0.0150 -0.0424  0.3174
 5386PP      PP15490   4.546   7.809   1.220  0.2023  0.3048 -0.1133
 5387PP      PP15491  15.770   7.771   3.786 -0.2586  0.1401  0.0037
 5388PP      PP15492   8.353   9.965   2.088  0.1574 -0.2724  0.0215
 5389PP      PP15493  13.877   1.364  11.287 -0.0443  0.0906 -0.1980
 5390PP      PP15494  13.932   2.647  13.224  0.1792 -0.0641  0.2149
 5391PP      PP15495  14.943   2.187   1.828  0.0155 -0.0082  0.0887
 5392PP      PP15496   6.101  13.216   1.183  0.3307  0.2891 -0.1620
 5393PP      PP15497   4.851  12.265   3.433  0.4104  0.3962 -0.1143
 5394PP      PP15498   5.995  15.279   3.535  0.2825 -0.1451  0.4682
 5395PP      PP15499  10.579   0.098  13.387 -0.3935 -0.0799 -0.2745
 5396PP      PP15500  10.072   4.560   1.175  0.1095  0.1449  0.0696
 5397PP      PP15501   2.638   7.808   0.408 -0.0708  0.2518 -0.0310
 5398PP      PP15502   1.938   4.518   4.020 -0.4624  0.0848 -0.2252
 5399PP      PP15503   1.243   3.642   3.289 -0.0960  0.0435 -0.1010
 5400PP      PP15504  15.431  11.112   9.590  0.0170 -0.0115 -0.0839
 5401PP      PP15505  14.010  13.553   9.189 -0.0184 -0.1516 -0.0570
 5402PP      PP15506  14.143   6.345  12.212 -0.0963  0.0327  0.2365
 5403PP      PP15507  15.580   2.207   2.522 -0.0968  0.1978  0.1617
 5404PP      PP15508  15.730   3.406  12.497 -0.0768 -0.1833 -0.0843
 5405PP      PP15509  13.959  10.932   3.192 -0.1492  0.2100 -0.0589
 5406PP      PP15510  11.990  11.914   3.078 -0.0770  0.1740 -0.0827
 5407PP      PP15511  11.868  10.954  12.475 -0.0886  0.2569 -0.0199
 5408PP      PP15512   3.752  14.040  11.807 -0.2041  0.0192 -0.0000
 5409PP      PP15513   3.591  14.125   8.163 -0.2754  0.0536  0.2727
 5410PP      PP15514   2.271  10.210  12.594  0.1493 -0.0604 -0.4033
 5411PP      PP15515   4.848   1.227  11.127  0.0018 -0.0300 -0.0363
 5412PP      PP15516   4.412   9.760  11.012 -0.0081 -0.0728 -0.1871
 5413PP      PP15517   0.188   6.032   3.989  0.0608  0.3315 -0.1112
 5414PP      PP15518   4.652   5.975   4.554  0.1837  0.0291 -0.0424
 5415PP      PP15519   6.318   2.616   1.836  0.1860  0.0770 -0.3795
 5416PP      PP15520   8.594   9.740   9.196  0.2624 -0.1833 -0.0159
 5417PP      PP15521   2.318   6.672   2.456  0.2291  0.2190 -0.1554
 5418PP      PP15522  14.442   0.048  12.854 -0.1273 -0.1787 -0.0083
 5419PP      PP15523   0.955  11.851   9.488  0.0490 -0.0946  0.0086
 5420PP      PP15524   6.676  15.909  10.340  0.0655  0.0465  0.1365
 5421PP      PP15525   7.378   9.562   1.749  0.1295 -0.0366  0.0354
 5422PP      PP15526   8.339   2.197   4.598 -0.1139 -0.2314  0.0289
 5423PP      PP15527   2.630   7.588  10.565 -0.2057  0.2263  0.2240
 5424PP      PP15528   5.281   2.832  11.877  0.0267 -0.1923 -0.1609
 5425PP      PP15529   3.385  11.530   2.655 -0.0808  0.2397 -0.1099
 5426PP      PP15530  12.842  15.345   2.380 -0.1243  0.1044 -0.2338
 5427PP      PP15531   5.271   5.942   1.382  0.0908 -0.1032  0.0156
 5428PP      PP15532  11.724  12.967  11.580 -0.0411 -0.0337  0.0711
 5429PP      PP15533   9.315  11.542  12.157  0.2162 -0.1357  0.1077
 5430PP      PP15534   5.264   8.347  11.205 -0.1323 -0.0258 -0.0051
 5431PP      PP15535   1.585   4.603   4.344 -0.1081  0.1575 -0.0236
 5432PP      PP15536  11.185  15.741  10.940  0.1326  0.0449  0.1127
 5433PP      PP15537   6.322   9.446   2.033  0.0470 -0.0591 -0.4250
 5434PP      PP15538   4.225   3.682  12.264  0.1462  0.1464 -0.1054
 5435PP      PP15539  15.010   2.749   3.272  0.0355 -0.4223 -0.2335
 5436PP      PP15540   0.660   3.995   0.144 -0.0212 -0.2103 -0.0543
 5437PP      PP15541  14.500  11.134  10.607 -0.0269 -0.0058  0.0370
 5438PP      PP15542  10.739   9.721  11.095  0.2083 -0.4861  0.1189
 5439PP      PP15543   0.093   3.476   8.888 -0.1560 -0.0600 -0.2241
 5440PP      PP15544   1.134   7.739   2.570 -0.0293  0.0454  0.2236
 5441PP      PP15545  12.314  15.750   0.588 -0.1765  0.2574  0.2903
 5442PP      PP15546   8.646  10.019  10.557  0.1402 -0.1230  0.1215
 5443PP      PP15547   4.296   5.060   4.153  0.1661 -0.0459  0.3012
 5444PP      PP15548  14.056  14.699  12.468  0.0062  0.0004 -0.0536
 5445PP      PP15549   5.197   8.265   1.886 -0.1615  0.0666 -0.0530
 5446PP      PP15550   1.538   9.178   0.523 -0.0742 -0.0240 -0.0398
 5447PP      PP15551  12.443  14.772   0.894 -0.1292  0.1098 -0.1248
 5448PP      PP15552  13.304  13.795  12.467  0.1828 -0.0893 -0.0245
 5449PP      PP15553  10.339   7.319   3.590 -0.1748 -0.0657 -0.0225
 5450PP      PP15554   7.866   9.227   0.997 -0.2834  0.3376 -0.0053
 5451PP      PP15555  13.340   7.241  10.366  0.0985 -0.2271 -0.0635
 5452PP      PP15556   2.153   7.644   1.038  0.0862 -0.2274  0.1832
 5453PP      PP15557   5.058   5.524   3.341  0.0492 -0.0545 -0.1242
 5454PP      PP15558   8.845   1.183  13.195 -0.1423  0.1602 -0.1082
 5455PP      PP15559   1.678   8.237   1.597  0.2063  0.0800  0.2513
 5456PP      PP15560  10.426   5.324  10.036  0.2887  0.2479 -0.1465
 5457PP      PP15561   9.324   3.589   3.136 -0.1999  0.0890 -0.1387
 5458PP      PP15562   4.829   9.743  12.166  0.1612 -0.0386  0.1495
 5459PP      PP15563  14.586   0.517   9.944  0.1490  0.0327  0.1302
 5460PP      PP15564   8.895   5.006  10.031  0.0263  0.0349  0.1088
 5461PP      PP15565   1.297  15.693   8.660 -0.2421  0.2535  0.1706
 5462PP      PP15566   2.883   9.786  11.226  0.2875  0.1358  0.0611
 5463PP      PP15567   4.999   0.421   1.802  0.0957  0.0609 -0.1729
 5464PP      PP15568  10.027  15.204   0.903 -0.2687 -0.1092 -0.0509
 5465PP      PP15569  14.043   4.211   4.090 -0.2020 -0.2122 -0.2485
 5466PP      PP15570   6.212  14.203   8.983 -0.0124  0.1743  0.0789
 5467PP      PP15571  10.256   1.269   9.530 -0.0834  0.1845 -0.0300
 5468PP      PP15572   6.882  14.345   4.229 -0.3623  0.1144  0.1454
 5469PP      PP15573  10.800   9.361   3.208 -0.0739  0.1947 -0.2583
 5470PP      PP15574   6.173   3.826   9.887  0.2240  0.4079  0.2051
 5471PP      PP15575  15.352   7.667   1.549  0.0787 -0.1039  0.1952
 5472PP      PP15576   8.837  10.314   1.959  0.1649  0.2149  0.2816
 5473PP      PP15577   9.548  11.455  13.144  0.1438 -0.0940  0.1745
 5474PP      PP15578   7.701  12.473   1.489 -0.0765  0.3351  0.4099
 5475PP      PP15579  13.303   1.579   2.033 -0.0172 -0.1181 -0.1311
 5476PP      PP15580  12.767  15.797   9.946 -0.0068 -0.0720 -0.0619
 5477PP      PP15581   0.738  12.432   2.143 -0.3073 -0.0135 -0.0014
 5478PP      PP15582   9.308   1.568  10.011  0.1688  0.0445  0.1397
 5479PP      PP15583   1.111   8.946   2.279 -0.2185 -0.0666  0.0324
 5480PP      PP15584  11.266   0.391  12.987  0.1243  0.1582 -0.1464
 5481PP      PP15585   9.115   0.757  11.106 -0.3744 -0.1328  0.0783
 5482PP      PP15586   9.619   9.203  12.510  0.2147 -0.2217 -0.0223
 5483PP      PP15587   2.603  12.824   1.620  0.1011  0.0591 -0.0231
 5484PP      PP15588  15.937   7.578  10.576  0.0656 -0.2636  0.0604
 5485PP      PP15589  12.851   0.814   3.594 -0.1528 -0.4033 -0.0490
 5486PP      PP15590  14.762   4.043   1.175 -0.1538  0.0232  0.2521
 5487PP      PP15591   8.017   3.614  10.157 -0.0915 -0.0966  0.0228
 5488PP      PP15592  14.080   3.169  13.261 -0.1750 -0.0821 -0.0124
 5489PP      PP15593   2.418  12.409   3.960 -0.2138  0.2436 -0.0354
 5490PP      PP15594   0.740   3.655   9.648  0.3020  0.0721  0.1514
 5491PP      PP15595  10.450   5.809   0.817  0.4031 -0.0414  0.4578
 5492PP      PP15596  11.117  15.318   1.738 -0.0654  0.0237 -0.0365
 5493PP      PP15597   4.991  14.527   8.715  0.0911  0.0675 -0.1717
 5494PP      PP15598  11.763   9.467  12.819  0.0671  0.2000 -0.0943
 5495PP      PP15599  12.522   7.904   0.377  0.3941 -0.0513  0.1221
 5496PP      PP15600   4.023   2.017   2.307  0.0082 -0.3628 -0.2489
 5497PP      PP15601  12.029   1.819  10.625  0.0723 -0.0921  0.2116
 5498PP      PP15602   4.836  15.067   8.159  0.0338  0.2999  0.2612
 5499PP      PP15603   2.234  15.704   9.181  0.1099  0.0610 -0.0144
 5500PP      PP15604   9.190   9.252   0.064 -0.1887 -0.3687 -0.2001
 5501PP      PP15605   4.603  10.304   0.857 -0.1228 -0.1505 -0.1430
 5502PP      PP15606  14.461   0.211   9.105  0.0755 -0.0487 -0.0580
 5503PP      PP15607  12.765   6.959   2.270  0.2335 -0.1016  0.0860
 5504PP      PP15608  11.975   5.493  11.376  0.0760 -0.1166  0.3095
 5505PP      PP15609  12.709  15.323   5.382 -0.4686  0.0665  0.0542
 5506PP      PP15610   0.550  11.579  10.267 -0.2255  0.1631  0.0480
 5507PP      PP15611   2.915   1.947   8.698 -0.3230  0.2401  0.0740
 5508PP      PP15612   8.847   1.314   0.328  0.1561  0.0408  0.1440
 5509PP      PP15613   1.725   5.053  10.081  0.0593 -0.1238  0.0648
 5510PP      PP15614   5.389   9.533   0.118 -0.6321 -0.0778  0.1157
 5511PP      PP15615   8.474   0.106   0.003  0.3188  0.1898 -0.1070
 5512PP      PP15616   4.325   2.269   1.853  0.1231  0.1872  0.2074
 5513PP      PP15617   9.854   4.517  12.836  0.0445 -0.1559 -0.0452
 5514PP      PP15618   5.370  15.170   3.691 -0.0346 -0.3731  0.3855
 5515PP      PP15619  11.443  14.951  11.664 -0.0714  0.1326 -0.2264
 5516PP      PP15620   7.994  11.496   2.464  0.2522 -0.0968 -0.4636
 5517PP      PP15621   8.535   1.538   4.056  0.0905  0.1111 -0.0419
 5518PP      PP15622   4.815   1.451   2.667  0.1504  0.1401  0.1154
 5519PP      PP15623   6.202   6.022   3.840  0.2807  0.4192  0.0005
 5520PP      PP15624   3.900  10.192  12.197 -0.2130  0.2752 -0.2945
 5521PP      PP15625   3.731  10.757   2.522 -0.3440  0.2080  0.4467
 5522PP      PP15626   0.216   2.140   9.014  0.0010  0.0408  0.0301
 5523PP      PP15627   9.077   5.089   4.311 -0.1505 -0.5176 -0.3337
 5524PP      PP15628   3.118   4.854   3.995  0.0367 -0.1113 -0.0664
 5525PP      PP15629  14.544   3.259   2.581  0.1677 -0.1051 -0.3192
 5526PP      PP15630   0.144   9.518   0.766  0.0305 -0.2734 -0.2752
 5527PP      PP15631  15.341  12.959   0.182 -0.0885  0.0286 -0.4116
 5528PP      PP15632  13.255   0.717   1.916 -0.1303  0.1528 -0.1039
 5529PP      PP15633  15.052  14.479   3.653 -0.0096 -0.1127  0.0432
 5530PP      PP15634   6.439   5.306  10.743 -0.0093 -0.4397 -0.0199
 5531PP      PP15635   4.935   2.672   3.738  0.0556  0.1566 -0.0613
 5532PP      PP15636   3.872   8.196  12.415  0.0420  0.0033  0.0635
 5533PP      PP15637   2.840   9.846   2.232 -0.0125 -0.3534 -0.4034
 5534PP      PP15638  13.613   1.130   0.737 -0.0941  0.0451  0.0249
 5535PP      PP15639  10.981   2.816  10.744 -0.0622  0.0459 -0.3592
 5536PP      PP15640  14.183   5.319   4.436 -0.0160  0.1003 -0.4178
 5537PP      PP15641  13.081   2.840  11.749  0.1488  0.1671 -0.1042
 5538PP      PP15642  15.674  13.839   3.083  0.1381 -0.0598 -0.1435
 5539PP      PP15643  10.895  11.239  12.530  0.1951 -0.0058 -0.0362
 5540PP      PP15644   2.558  10.953  11.727  0.0550 -0.1617  0.0389
 5541PP      PP15645   2.654   8.048   3.259  0.0124 -0.0475 -0.2743
 5542PP      PP15646  12.241  11.338   0.591  0.1586 -0.1663 -0.1297
 5543PP      PP15647   1.198   7.293  11.745 -0.0039  0.2377  0.0919
 5544PP      PP15648   2.530  12.486   0.470  0.0010 -0.0634  0.1455
 5545PP      PP15649  14.468   3.290   8.048  0.0843 -0.2758 -0.4995
 5546PP      PP15650   1.212   4.249  12.171  0.0462  0.1854 -0.2737
 5547PP      PP15651  15.706  15.430   9.509  0.1397 -0.0264  0.0453
 5548PP      PP15652   5.252   5.484   1.044  0.2271  0.2618 -0.0982
 5549PP      PP15653   0.561   8.612   0.401  0.1082  0.0869 -0.0314
 5550PP      PP15654   9.907   4.253  10.224  0.0412  0.1998 -0.1541
 5551PP      PP15655   4.518   1.071   1.216 -0.1086  0.0381  0.0917
 5552PP      PP15656   2.512   3.487   9.902  0.0591  0.1089 -0.1362
 5553PP      PP15657  10.099   6.127  12.303  0.1183 -0.2178  0.2976
 5554PP      PP15658   6.162   7.517  10.907 -0.0208 -0.2583  0.2861
 5555PP      PP15659   6.700   8.796   1.026 -0.2587 -0.0292  0.0233
 5556PP      PP15660   2.158   4.982   9.079 -0.0280  0.0167 -0.1230
 5557PP      PP15661   4.981  10.512   9.798 -0.2372 -0.1670 -0.2617
 5558PP      PP15662   1.423  13.124   1.947 -0.0777 -0.0691 -0.1553
 5559PP      PP15663  13.275   5.384  11.529 -0.2137 -0.1580 -0.2169
 5560PP      PP15664   1.334   7.396  12.971  0.3724  0.2102 -0.2333
 5561PP      PP15665  11.682  11.212   0.660 -0.3116  0.0001 -0.2811
 5562PP      PP15666   8.059   3.251   1.139 -0.2994 -0.1326 -0.0443
 5563PP      PP15667  10.501  14.386  11.475 -0.1775  0.1067 -0.0865
 5564PP      PP15668   0.040   4.801  12.884  0.0063  0.0635 -0.1324
 5565PP      PP15669   9.681  14.442   2.021 -0.3863 -0.0496 -0.1876
 5566PP      PP15670   4.791  12.673  10.165 -0.2785 -0.2865  0.2093
 5567PP      PP15671   4.216  11.321  12.198  0.3562  0.2747  0.1422
 5568PP      PP15672   3.519  11.957   0.922  0.0936 -0.0329  0.0688
 5569PP      PP15673   8.973   3.321   3.653 -0.1970  0.1872  0.0229
 5570PP      PP15674  11.495  11.064  12.783  0.0727 -0.4261  0.3323
 5571PP      PP15675   3.676  15.472  11.173  0.0564 -0.3017  0.0406
 5572PP      PP15676   0.718   9.508  10.875  0.1936 -0.1240 -0.2084
 5573PP      PP15677  14.927   9.902   1.966  0.0421  0.0549  0.1136
 5574PP      PP15678   0.369  11.057   9.612 -0.4129  0.1245  0.1113
 5575PP      PP15679  13.987  10.529   9.058  0.0183 -0.0830  0.0990
 5576PP      PP15680   8.981   3.811   1.339 -0.2230 -0.1929  0.0861
 5577PP      PP15681  11.708   3.343  12.648  0.0767  0.1228  0.0969
 5578PP      PP15682  13.499   1.929   2.357 -0.1617  0.1911 -0.1423
 5579PP      PP15683  13.208  11.790  10.982  0.1395  0.3177  0.0421
 5580PP      PP15684  14.124   7.783   9.443 -0.0539 -0.1195  0.0532
 5581PP      PP15685   3.762  14.363   9.687 -0.1905  0.1843 -0.3937
 5582PP      PP15686  11.386   0.598   9.044 -0.0543  0.1134  0.0813
 5583PP      PP15687   5.751  14.571  11.769  0.2875  0.0360  0.2371
 5584PP      PP15688  10.822   3.372   9.713 -0.0660  0.0922 -0.1479
 5585PP      PP15689   2.422   9.025   9.265 -0.1537 -0.1159  0.0303
 5586PP      PP15690   4.188  10.975   3.207  0.1078  0.1505  0.1908
 5587PP      PP15691   9.545   7.903   2.294  0.1469 -0.5773 -0.0746
 5588PP      PP15692   7.657  14.155   0.493  0.0138  0.0158  0.1356
 5589PP      PP15693   4.143  15.636  13.079  0.3929  0.2630 -0.1674
 5590PP      PP15694  12.809  15.019   3.585 -0.1377  0.1613 -0.3228
 5591PP      PP15695  12.151   7.841   9.079  0.0447 -0.1721  0.1372
 5592PP      PP15696   6.622   5.984   0.764  0.2049  0.3349  0.1502
 5593PP      PP15697   0.197   0.889   9.017  0.0426  0.1148 -0.3172
 5594PP      PP15698  10.294  10.815   2.203  0.2057  0.0826  0.0602
 5595PP      PP15699   3.379  10.515  10.202  0.1323 -0.3951 -0.2615
 5596PP      PP15700   3.734   2.447  12.220  0.1633  0.0802  0.0447
 5597PP      PP15701   3.608   0.704   1.455 -0.0052  0.0759  0.0406
 5598PP      PP15702   8.015   6.846   4.391 -0.0161 -0.0510 -0.2505
 5599PP      PP15703   6.495  12.536   0.936  0.0756 -0.0879 -0.2110
 5600PP      PP15704   0.132   5.640  13.284 -0.1456 -0.0040 -0.2994
 5601PP      PP15705   2.584   4.776  12.960 -0.2433 -0.2666  0.1781
 5602PP      PP15706   7.031  10.600  12.902 -0.0603 -0.1941 -0.2318
 5603PP      PP15707   4.040   4.434   8.793 -0.2569 -0.1313  0.2475
 5604PP      PP15708  12.367  10.204  13.383 -0.2209  0.0202 -0.3165
 5605PP      PP15709   5.299   6.049   2.618  0.1186  0.0191 -0.3249
 5606PP      PP15710   8.720   8.971   2.503  0.0567 -0.0840  0.3681
 5607PP      PP15711  14.941   5.569   2.006  0.1344 -0.2108  0.1009
 5608PP      PP15712  15.746  10.298  10.525  0.0968 -0.1697  0.0931
 5609PP      PP15713   7.201   4.547   2.819 -0.2870 -0.4175  0.0862
 5610PP      PP15714   1.159  15.827   8.180  0.1502 -0.1528 -0.2315
 5611PP      PP15715  15.922  15.031  11.935  0.2144 -0.0778 -0.0182
 5612PP      PP15716   4.290  11.181   1.378  0.1351  0.0658  0.0182
 5613PP      PP15717   4.799  12.669   1.078 -0.2088 -0.1271 -0.0129
 5614PP      PP15718   2.260   0.142  11.742  0.0183  0.3733  0.3165
 5615PP      PP15719   8.275   8.370   0.524 -0.1036 -0.0383  0.0589
 5616PP      PP15720   5.611   8.082   0.707  0.0840  0.0430  0.1403
 5617PP      PP15721   6.472   3.576   8.353  0.0239  0.2365 -0.0335
 5618PP      PP15722   7.539   4.468   4.080  0.1723  0.0401 -0.0396
 5619PP      PP15723   3.381   3.311  12.598  0.1479 -0.0201  0.0143
 5620PP      PP15724   3.012   9.872   9.764 -0.0740 -0.0008 -0.3728
 5621PP      PP15725   2.148   5.902   0.356 -0.1151 -0.2210 -0.0950
 5622PP      PP15726  13.655  11.429   9.904  0.0110 -0.1629  0.0499
 5623PP      PP15727  14.354   5.609   3.437 -0.3705  0.1271 -0.2851
 5624PP      PP15728   7.931  10.062   1.656 -0.3462  0.0479  0.0820
 5625PP      PP15729   7.347   6.932  12.095  0.0384 -0.0371 -0.2162
 5626PP      PP15730   3.834   1.766   1.220  0.3671 -0.2986 -0.3771
 5627PP      PP15731  15.649  11.409   0.261  0.1853  0.1933  0.1559
 5628PP      PP15732   0.402   4.059   2.406  0.1071  0.0386  0.0997
 5629PP      PP15733  12.104   7.381   9.689 -0.1943  0.1183  0.1729
 5630PP      PP15734  12.939   8.219   1.023  0.1370 -0.0911 -0.1242
 5631PP      PP15735  15.765   0.353   8.486 -0.2217 -0.2496  0.0008
 5632PP      PP15736   0.357   1.479  11.377 -0.2428 -0.3093  0.1351
 5633PP      PP15737   6.672   2.114   9.382  0.0302 -0.1222 -0.3398
 5634PP      PP15738   1.864  10.104   2.622  0.1934  0.0483  0.1921
 5635PP      PP15739  10.392  13.255   5.015 -0.2891  0.1929 -0.1675
 5636PP      PP15740   6.748  14.310  12.251 -0.1658  0.0553 -0.0379
 5637PP      PP15741   6.449  14.948   3.572 -0.1502 -0.0558 -0.0238
 5638PP      PP15742   6.454   9.094  10.508 -0.0816  0.2088 -0.1541
 5639PP      PP15743   4.258   7.541   4.141  0.0141 -0.0013  0.1398
 5640PP      PP15744  12.530   8.697   4.674  0.1156  0.1610  0.0393
 5641PP      PP15745   1.187  11.197  11.371  0.1291  0.1563  0.1139
 5642PP      PP15746   2.851  12.889   3.547 -0.0451  0.2157  0.4671
 5643PP      PP15747   4.808  12.218   1.911 -0.0435  0.0048 -0.2574
 5644PP      PP15748   6.231   1.738  10.643  0.0748  0.0059  0.1689
 5645PP      PP15749   0.756  11.940   9.962  0.0981 -0.0239 -0.0012
 5646PP      PP15750   2.790  10.507  13.249 -0.1618  0.2116  0.1002
 5647PP      PP15751   4.656  13.308  13.029  0.1542 -0.0656 -0.1581
 5648PP      PP15752   2.866   3.478   3.480  0.0155 -0.2673 -0.1973
 5649PP      PP15753  15.759  10.822  10.691  0.1662 -0.1534 -0.0168
 5650PP      PP15754   5.648   4.341   2.286 -0.2513 -0.1926  0.0556
 5651PP      PP15755   0.208  15.308   1.471  0.2191 -0.1218  0.0705
 5652PP      PP15756  14.408   0.101   2.287  0.0718  0.1418 -0.1308
 5653PP      PP15757   8.556  12.285   1.987 -0.1094  0.0864 -0.2258
 5654PP      PP15758   4.767  10.930   9.413  0.1393 -0.0667  0.1469
 5655PP      PP15759  12.349   0.266   2.665 -0.1930 -0.1721 -0.0298
 5656PP      PP15760   7.077   4.798   3.244 -0.1844  0.0737 -0.1019
 5657PP      PP15761   2.688   2.867   8.919 -0.2415  0.0930 -0.0429
 5658PP      PP15762   2.675   7.646  12.563  0.0579  0.2477 -0.1483
 5659PP      PP15763  10.136   1.078   0.851  0.0738  0.0785  0.2279
 5660PP      PP15764   3.582  15.793   0.263 -0.2308  0.2963  0.2075
 5661PP      PP15765   8.929  13.413   3.222  0.0319 -0.0440 -0.1873
 5662PP      PP15766   7.738   7.345  11.800 -0.1870  0.1623 -0.0643
 5663PP      PP15767  11.080   3.688   2.912  0.0185 -0.3947 -0.2016
 5664PP      PP15768   8.808  14.372   9.295 -0.2342 -0.1035 -0.3769
 5665PP      PP15769  11.896  15.293   0.353 -0.1341 -0.1238  0.1945
 5666PP      PP15770   5.249  15.780   1.830  0.0559  0.1264 -0.0229
 5667PP      PP15771  10.976  13.734  11.082  0.1569  0.1080 -0.0806
 5668PP      PP15772   6.859   7.752   9.182  0.1385 -0.1957  0.2009
 5669PP      PP15773   1.615  11.971   2.228  0.1279  0.2558 -0.1671
 5670PP      PP15774  13.677  15.207  11.005 -0.2620  0.2188  0.5057
 5671PP      PP15775   5.904  13.817   2.310  0.1363 -0.0514  0.2172
 5672PP      PP15776   2.868   3.356  12.225 -0.1670 -0.1506 -0.1452
 5673PP      PP15777   4.632  10.855   1.617  0.0121 -0.1516 -0.2293
 5674PP      PP15778  11.586  15.753  11.392 -0.0876  0.4292  0.0234
 5675PP      PP15779  13.111   5.615  12.418 -0.0095 -0.1218  0.2723
 5676PP      PP15780   9.172  10.974   1.585 -0.2610 -0.1540  0.1734
 5677PP      PP15781   8.924   7.834   2.390  0.1841  0.1539 -0.2236
 5678PP      PP15782  13.532  14.452   2.896  0.0433  0.1578 -0.0057
 5679PP      PP15783   3.050  12.740   1.329  0.2058 -0.3422 -0.0087
 5680PP      PP15784   6.578   7.785  11.111 -0.0265 -0.0636 -0.1278
 5681PP      PP15785   4.757   7.939   9.686  0.2857 -0.3482 -0.3744
 5682PP      PP15786  11.844  12.364   4.347  0.0890 -0.2700 -0.0651
 5683PP      PP15787  10.335   3.056   3.199 -0.1730  0.1017 -0.0786
 5684PP      PP15788   5.540   6.155   2.215  0.0161  0.1090  0.4713
 5685PP      PP15789  12.111   3.884   0.750  0.0185 -0.0218 -0.1451
 5686PP      PP15790   1.852   4.161  13.124 -0.1169  0.0680  0.2616
 5687PP      PP15791   2.121  13.174   9.328 -0.0688  0.1392 -0.0694
 5688PP      PP15792   1.146   4.197   4.244  0.1285  0.2504 -0.2275
 5689PP      PP15793  15.327   8.795   2.972  0.4493 -0.0365 -0.2669
 5690PP      PP15794   4.037   7.063   5.133  0.2581 -0.3006  0.1153
 5691PP      PP15795   1.455  13.752   0.873 -0.0228 -0.0055  0.0384
 5692PP      PP15796   9.012  11.972   1.715 -0.0905 -0.1624  0.1274
 5693PP      PP15797  11.752  11.354   3.974  0.5576  0.2043  0.2808
 5694PP      PP15798  10.479   8.611  10.305  0.1654  0.0470  0.1243
 5695PP      PP15799  15.719  11.932   0.171 -0.1234  0.2958  0.0897
 5696PP      PP15800  14.321   2.711   0.188  0.1188  0.2111 -0.0963
 5697PP      PP15801  12.281   1.660   0.609  0.2887  0.1717  0.0325
 5698PP      PP15802   7.143   7.981   0.895 -0.0836 -0.0677  0.2667
 5699PP      PP15803   0.201   6.766  10.702  0.1183 -0.1597 -0.1067
 5700PP      PP15804   6.742   5.020   9.040  0.0148 -0.3140 -0.3065
 5701PP      PP15805   2.729  15.345   2.181  0.3003  0.2040 -0.2370
 5702PP      PP15806  11.823   3.129   2.867  0.1957  0.0532  0.1541
 5703PP      PP15807   6.703   0.600   9.667 -0.0053  0.3595 -0.1771
 5704PP      PP15808   5.532   5.406  10.582  0.0621 -0.2942  0.3038
 5705PP      PP15809  11.689   6.876  12.129 -0.0113  0.0308 -0.0036
 5706PP      PP15810   9.050  13.193  11.864  0.1307 -0.0520  0.0039
 5707PP      PP15811  11.576  14.831   4.778  0.2070 -0.1297 -0.1310
 5708PP      PP15812  13.763  11.355   2.823 -0.1501 -0.0555 -0.2903
 5709PP      PP15813   5.488   6.630   2.089 -0.0015 -0.0321 -0.5515
 5710PP      PP15814   9.080   9.465  12.059 -0.0599  0.0143 -0.2089
 5711PP      PP15815   4.341  15.285  11.796 -0.1253 -0.0320 -0.1539
 5712PP      PP15816   2.394  13.464   8.699  0.0205 -0.1532  0.2616
 5713PP      PP15817  14.198   3.620   2.799  0.0885  0.1123  0.2371
 5714PP      PP15818   3.805   3.527   3.063  0.1983  0.1124 -0.0960
 5715PP      PP15819   7.873  14.078  12.342 -0.2979 -0.0397 -0.1235
 5716PP      PP15820   8.335   1.618   2.996  0.2131  0.2815  0.0337
 5717PP      PP15821   2.056  15.894   1.840 -0.4095 -0.1489  0.0877
 5718PP      PP15822   9.207   9.956   1.132  0.1116 -0.0187  0.1682
 5719PP      PP15823  15.861  14.044  12.412  0.4122 -0.0895  0.1065
 5720PP      PP15824   0.628   3.463   2.572  0.3038 -0.1691 -0.0384
 5721PP      PP15825   9.735   9.960   8.361  0.5877 -0.0278 -0.1744
 5722PP      PP15826   2.217  11.957  13.207  0.1602  0.0427 -0.0630
 5723PP      PP15827  14.019   8.142   1.169 -0.1710  0.2106  0.1891
 5724PP      PP15828   4.212  14.213   9.845 -0.2741  0.0421 -0.1656
 5725PP      PP15829   5.684  13.296   8.104  0.3736  0.0540  0.1556
 5726PP      PP15830   3.981   6.639   4.542 -0.0723 -0.1296 -0.0709
 5727PP      PP15831   6.004  10.886  10.478 -0.2607 -0.1598 -0.0536
 5728PP      PP15832   8.841   5.966   0.553  0.0697 -0.2551 -0.1489
 5729PP      PP15833   8.201   6.560   1.454 -0.1545  0.0158  0.3362
 5730PP      PP15834   2.904  11.929  10.194  0.2871  0.3701  0.0294
 5731PP      PP15835  14.510  10.088   3.759  0.1529 -0.2052 -0.0933
 5732PP      PP15836  12.350   8.193   1.954  0.1142 -0.0496 -0.3286
 5733PP      PP15837   0.935   9.896   0.987  0.1840 -0.1660  0.2619
 5734PP      PP15838   0.043   2.923   8.829 -0.1724  0.0927 -0.1642
 5735PP      PP15839   6.033   1.013   0.633  0.4231 -0.0404  0.0224
 5736PP      PP15840  11.914   8.988   2.391 -0.0976 -0.0663 -0.1760
 5737PP      PP15841   8.159   0.245   2.699 -0.1860 -0.1516  0.0211
 5738PP      PP15842  13.735   6.635  11.480 -0.3271  0.1184 -0.1020
 5739PP      PP15843   4.801   1.880  12.341 -0.1403  0.0012  0.1267
 5740PP      PP15844   8.545   2.107   2.958  0.0662 -0.2422  0.2002
 5741PP      PP15845   5.151   3.116  11.139 -0.0684 -0.0225 -0.2804
 5742PP      PP15846   4.439   7.026   3.294 -0.1135 -0.0154  0.2595
 5743PP      PP15847   7.487  14.845   9.230 -0.3300 -0.2858  0.1659
 5744PP      PP15848   9.867   5.832  10.621  0.0169  0.4921 -0.1076
 5745PP      PP15849   6.804  11.090   3.143 -0.0137  0.3088  0.0679
 5746PP      PP15850   6.481   3.241  13.244 -0.2645  0.2399 -0.1716
 5747PP      PP15851  13.241  11.386   3.877 -0.0217  0.1187 -0.0354
 5748PP      PP15852  15.875  13.632   1.400  0.0952 -0.5120 -0.3764
 5749PP      PP15853  15.145  15.779  10.596 -0.4910 -0.0195 -0.0588
 5750PP      PP15854  13.676   4.004   0.802 -0.0196  0.0113  0.2672
 5751PP      PP15855   9.834   5.140   1.227 -0.0996 -0.3010  0.0697
 5752PP      PP15856  14.725   3.415  10.325  0.0537  0.1240 -0.1548
 5753PP      PP15857   7.236   7.518  10.460  0.0540  0.3645 -0.3168
 5754PP      PP15858  13.542   5.643  12.653 -0.0968 -0.3239  0.1081
 5755PP      PP15859   8.574   9.455  12.765 -0.1426 -0.1798  0.1620
 5756PP      PP15860  15.873   1.465   8.333 -0.1304  0.2116  0.1874
 5757PP      PP15861  12.596  11.191  10.974 -0.0092  0.0443 -0.0596
 5758PP      PP15862  14.688  12.029   2.317 -0.0773 -0.0361  0.0459
 5759PP      PP15863   0.755   0.416   8.831 -0.4944  0.1290 -0.2282
 5760PP      PP15864  10.575  11.220  13.003  0.1515 -0.1788  0.3095
 5761PP      PP15865   6.611  11.155   0.400 -0.0499 -0.0406  0.2459
 5762PP      PP15866   4.432   8.967  12.048 -0.0271 -0.2971  0.1454
 5763PP      PP15867   3.751   2.388   9.665  0.1340 -0.3114 -0.0229
 5764PP      PP15868   1.597   7.141   4.214  0.1194 -0.1913 -0.3069
 5765PP      PP15869   3.026   9.414   2.815  0.1333  0.2487  0.0066
 5766PP      PP15870  13.669  13.729   2.612  0.1355  0.0632  0.2538
 5767PP      PP15871   2.143   8.568   9.186 -0.0455  0.2075 -0.0330
 5768PP      PP15872  14.370   1.458  10.001  0.1322 -0.0643  0.2098
 5769PP      PP15873   6.779   6.793   1.638  0.1353  0.2024 -0.0490
 5770PP      PP15874  13.524   5.342  10.473 -0.0367  0.0791  0.1004
 5771PP      PP15875   7.183   6.408   0.373  0.1762 -0.0457  0.0458
 5772PP      PP15876  15.351   4.186   3.452  0.3237  0.0501  0.2270
 5773PP      PP15877   1.085   3.588  10.825  0.2169 -0.1939 -0.0080
 5774PP      PP15878  12.739   5.500  10.732 -0.0064 -0.0492 -0.1921
 5775PP      PP15879  11.515   5.119   4.105  0.0521 -0.3712 -0.1783
 5776PP      PP15880   6.563  13.935   0.549 -0.1048 -0.1165 -0.2153
 5777PP      PP15881   6.147  12.171   3.582 -0.0984 -0.0689 -0.1751
 5778PP      PP15882  12.917   2.986  11.125 -0.1254  0.1075 -0.1536
 5779PP      PP15883   9.446  15.535   0.639  0.2011  0.2746  0.1048
 5780PP      PP15884   4.557   5.147   0.708 -0.1786  0.2009 -0.0630
 5781PP      PP15885   3.610   4.077   4.506  0.0527  0.1163 -0.0522
 5782PP      PP15886   2.341  15.147   1.031 -0.2664  0.0896  0.2429
 5783PP      PP15887  10.722   2.567   0.427 -0.3025 -0.0368 -0.4996
 5784PP      PP15888   1.043   9.859   4.006 -0.4193  0.1245 -0.1617
 5785PP      PP15889   0.607  15.898   2.032 -0.0146  0.0170  0.0360
 5786PP      PP15890  13.380  10.411  10.915  0.3373 -0.0690 -0.0768
 5787PP      PP15891   4.318  14.175  11.896  0.0227  0.2288 -0.0951
 5788PP      PP15892  12.492  15.749  11.323 -0.3085 -0.1841  0.0102
 5789PP      PP15893  13.042   8.927   3.857 -0.0225  0.1933  0.0563
 5790PP      PP15894   4.612   6.347   1.953  0.0840  0.2154 -0.0606
 5791PP      PP15895   6.773   9.591   2.886 -0.2444 -0.0446 -0.1705
 5792PP      PP15896   7.913  11.884  11.527  0.2057  0.3100  0.1492
 5793PP      PP15897   1.947  15.435   0.554 -0.0383  0.1978  0.0771
 5794PP      PP15898   8.662  10.656   0.817 -0.2856 -0.0290 -0.2639
 5795PP      PP15899  11.306   2.660  11.944  0.1358  0.2544  0.0140
 5796PP      PP15900   5.798   7.841  10.094 -0.0493  0.0747  0.2584
 5797PP      PP15901   9.779   7.702  12.461 -0.2119 -0.0046 -0.0826
 5798PP      PP15902   9.530   4.921   0.387 -0.0830  0.0838  0.0965
 5799PP      PP15903   0.776   6.651   3.980  0.1286 -0.0352 -0.0998
 5800PP      PP15904   5.314   5.029   2.935  0.1473  0.1748  0.1455
 5801PP      PP15905  12.012   4.700   1.817 -0.3170  0.1273 -0.2242
 5802PP      PP15906  13.493   3.106   1.101 -0.5036  0.1793 -0.2654
 5803PP      PP15907   0.816   6.190   9.887 -0.1797 -0.1665  0.2219
 5804PP      PP15908   6.532   0.714   3.644  0.1217 -0.1311 -0.1815
 5805PP      PP15909   3.132   9.413  10.815 -0.0482  0.2226  0.1026
 5806PP      PP15910   9.069  12.788  11.544  0.3220 -0.1585 -0.1015
 5807PP      PP15911   9.106  10.105   3.331  0.1857 -0.0157 -0.3109
 5808PP      PP15912  11.493   9.911   8.139 -0.3178 -0.2472  0.2141
 5809PP      PP15913   5.499   1.160   0.600 -0.2208 -0.0688  0.0303
 5810PP      PP15914  11.818  14.116   2.390 -0.2604  0.3843  0.1046
 5811PP      PP15915   8.275   7.776   4.554 -0.3864 -0.2064  0.1962
 5812PP      PP15916   6.716  12.127   3.470  0.0914 -0.1971 -0.2285
 5813PP      PP15917  11.493   3.441   2.662  0.0153 -0.2252 -0.0534
 5814PP      PP15918   2.104   2.240   9.983  0.5597  0.0636  0.2660
 5815PP      PP15919   7.888  14.605   0.361 -0.0312  0.1460  0.0782
 5816PP      PP15920   7.849   2.293   1.343 -0.2571  0.1399 -0.0030
 5817PP      PP15921   9.994  11.312  12.984  0.0176 -0.0084  0.0385
 5818PP      PP15922  14.940   9.688  12.907 -0.1132 -0.1712  0.5140
 5819PP      PP15923  10.506  10.082  12.532  0.1366  0.2030 -0.1522
 5820PP      PP15924  15.136   4.255   1.888  0.1669  0.0209  0.0724
 5821PP      PP15925  14.812   8.533   3.598  0.0245  0.3105  0.4828
 5822PP      PP15926   4.492   4.303  10.358  0.3227  0.2758  0.3338
 5823PP      PP15927  10.396  11.917   1.163 -0.1402  0.0697 -0.1747
 5824PP      PP15928   1.599   1.416  10.038 -0.3737  0.0786  0.0802
 5825PP      PP15929   1.499   9.133  11.179 -0.2208  0.0479 -0.1331
 5826PP      PP15930  11.044   9.133  12.216  0.1164  0.0171 -0.0854
 5827PP      PP15931   0.588  12.736   1.043 -0.0925  0.2100  0.3044
 5828PP      PP15932   4.880   4.124   2.709 -0.2078 -0.1234 -0.0346
 5829PP      PP15933   5.345  15.092   2.834  0.2727  0.3882 -0.0460
 5830PP      PP15934   7.370   8.446  13.382  0.2303 -0.1953 -0.3097
 5831PP      PP15935  11.518  13.290   4.397  0.1205 -0.2754 -0.1449
 5832PP      PP15936  15.543   3.605   2.826 -0.1706  0.2180 -0.1836
 5833PP      PP15937  10.920  14.993   4.237 -0.0132 -0.2146 -0.1834
 5834PP      PP15938  11.687   5.948   4.097 -0.0426  0.2768  0.2986
 5835PP      PP15939  14.294   2.644   0.703  0.0009 -0.1867  0.3928
 5836PP      PP15940   1.397   5.370  10.818 -0.1927  0.1374 -0.0423
 5837PP      PP15941  10.256   5.984   0.350  0.1468  0.1260  0.3758
 5838PP      PP15942   4.480   8.320   3.057  0.0255  0.0155 -0.2585
 5839PP      PP15943   0.366  14.704  12.896 -0.0822 -0.2269 -0.2761
 5840PP      PP15944   4.357   9.953   0.004 -0.0006 -0.0756 -0.1166
 5841PP      PP15945   4.041   9.778   3.234  0.1531 -0.3595 -0.1959
 5842PP      PP15946   3.746  12.615   9.889  0.1412 -0.0534  0.3196
 5843PP      PP15947   4.003   0.194  12.294  0.1380 -0.1998  0.0724
 5844PP      PP15948   9.203   9.589   3.682 -0.0599 -0.1939  0.0319
 5845PP      PP15949   3.353   0.733   0.276 -0.1040 -0.1482  0.2236
 5846PP      PP15950  15.430   2.837   1.522 -0.2656 -0.0118 -0.0365
 5847PP      PP15951  10.315  12.072  12.556  0.0852 -0.0284  0.2369
 5848PP      PP15952  15.701   7.834  13.127  0.0307 -0.0913 -0.2476
 5849PP      PP15953   9.736  15.695  13.114  0.0858 -0.2942 -0.2910
 5850PP      PP15954  15.534  10.981  13.364 -0.0461 -0.3194  0.1357
 5851PP      PP15955   5.717  13.330   0.461  0.2775 -0.0611 -0.1037
 5852PP      PP15956   9.686  13.918  13.053  0.2264  0.1174 -0.3357
 5853PP      PP15957  15.235   8.575  11.878  0.0718 -0.3515  0.1216
 5854PP      PP15958   3.840  10.676   3.415  0.0227 -0.1302  0.0943
 5855PP      PP15959   3.733  12.679   8.853 -0.1007  0.3297  0.3650
 5856PP      PP15960  14.917   4.028   0.604  0.3894 -0.2496  0.2054
 5857PP      PP15961   4.488   4.367   3.884 -0.1996  0.0035 -0.2839
 5858PP      PP15962   6.208   4.580   3.807 -0.1782 -0.0339 -0.3837
 5859PP      PP15963  14.967   3.492   9.858  0.2119  0.1995  0.1191
 5860PP      PP15964  11.906  11.180   0.193  0.3353  0.1103 -0.0569
 5861PP      PP15965   4.337  11.899  12.935  0.3942 -0.0083 -0.0522
 5862PP      PP15966   9.341   4.513  12.850 -0.0735 -0.4830  0.2697
 5863PP      PP15967  12.082   1.518   0.089 -0.0162  0.1579 -0.0804
 5864PP      PP15968   0.781   9.954   0.069 -0.3146 -0.2803  0.0853
 5865PP      PP15969   5.201  10.054   0.835  0.1639  0.0196  0.1136
 5866PP      PP15970  11.672   1.952  12.648  0.0687 -0.0741  0.3533
 5867PP      PP15971  13.478   0.697   1.071 -0.0001 -0.0092  0.1993
 5868PP      PP15972  12.215   0.948   0.197 -0.1273  0.0807 -0.2015
 5869PP      PP15973  11.538   0.764   4.071  0.1645  0.1164  0.1235
 5870PP      PP15974  10.968   8.922   9.409  0.0814  0.0968 -0.1671
 5871PP      PP15975   4.065  10.254  13.005  0.1213  0.1485  0.0850
 5872PP      PP15976   1.910  13.462   8.468 -0.0817 -0.1410 -0.1139
 5873PP      PP15977   0.309   7.042   3.292  0.1648  0.1567 -0.1940
 5874PP      PP15978   8.816   9.582   0.931 -0.1038  0.3284  0.1439
 5875PP      PP15979  13.800   8.436   0.722 -0.4345 -0.0140 -0.2174
 5876PP      PP15980   4.190   1.010   9.424 -0.0402 -0.2334 -0.0515
 5877PP      PP15981   2.932  14.966  10.819  0.0002  0.1042  0.0303
 5878PP      PP15982  13.880   7.125  11.340 -0.0431  0.3196 -0.1383
 5879PP      PP15983   1.993   9.841   2.221 -0.2078 -0.2087  0.1118
 5880PP      PP15984   1.967   6.167   4.444 -0.1136 -0.3067  0.1593
 5881PP      PP15985  14.359   3.474   9.607 -0.1294 -0.1146 -0.2165
 5882PP      PP15986   6.293  13.499   3.411  0.2796 -0.1861  0.2164
 5883PP      PP15987  13.930   0.648   4.118 -0.1231 -0.0568  0.0678
 5884PP      PP15988   7.227   7.106   1.476 -0.0331 -0.1823 -0.2086
 5885PP      PP15989  15.911  13.672   9.662 -0.1320  0.1393 -0.1665
 5886PP      PP15990   7.315  15.895   8.607  0.1577  0.1167  0.4119
 5887PP      PP15991  15.234   8.188   9.259  0.1476  0.2947  0.1627
 5888PP      PP15992   3.652   2.936   0.047 -0.1406  0.1809  0.1463
 5889PP      PP15993   3.958   6.162  12.384 -0.0821 -0.0712 -0.3508
 5890PP      PP15994   7.268  11.649  10.322 -0.1709 -0.1257 -0.2323
 5891PP      PP15995  11.343   7.774   2.103 -0.2733  0.1777  0.1575
 5892PP      PP15996  11.042  15.787   0.376  0.3988 -0.1692 -0.1691
 5893PP      PP15997  10.416  12.892   0.842  0.2202  0.0356 -0.1103
 5894PP      PP15998   0.003  13.727   7.968  0.2088 -0.1112 -0.1713
 5895PP      PP15999  15.292  13.467  10.500  0.0534 -0.4624 -0.1119
 5896PP      PP16000   3.347   6.649  10.212 -0.1071 -0.1171  0.1163
 5897PP      PP16001  12.300  12.179  11.842 -0.1332  0.3016 -0.0593
 5898PP      PP16002   0.359   9.454   9.437  0.0533 -0.0145  0.2592
 5899PP      PP16003   4.082  12.979  10.822 -0.0904 -0.0374  0.0680
 5900PP      PP16004   2.431  11.409   8.378  0.2306  0.2078  0.0987
 5901PP      PP16005   4.041   1.556   9.420 -0.1899  0.0019  0.0518
 5902PP      PP16006  11.750  11.119  11.961  0.4031  0.3374 -0.3189
 5903PP      PP16007  13.783   2.324   9.007  0.4355  0.1410 -0.4540
 5904PP      PP16008   0.525   2.208   2.022  0.2744 -0.1150 -0.2125
 5905PP      PP16009   9.559  11.020   3.425 -0.0903  0.0084  0.1821
 5906PP      PP16010   0.361  10.653   9.901 -0.1518  0.0813  0.0427
 5907PP      PP16011   3.257   0.202   8.089 -0.0561  0.2251  0.2216
 5908PP      PP16012   7.381   2.073   6.703  0.1261  0.0418  0.0426
 5909PP      PP16013  14.446   2.482   1.710 -0.0071 -0.0382  0.0634
 5910PP      PP16014   5.760   9.378  12.125  0.2681  0.0669  0.0817
 5911PP      PP16015   7.984   0.805   1.994  0.3932 -0.0038 -0.0031
 5912PP      PP16016  11.930   6.041   9.521 -0.4654 -0.0236  0.0980
 5913PP      PP16017   1.597   8.334   4.074  0.0888  0.0411  0.3424
 5914PP      PP16018  11.865   9.195  10.950 -0.2633 -0.0631 -0.1001
 5915PP      PP16019   6.157   4.105   4.038  0.0674 -0.1306  0.1501
 5916PP      PP16020  10.237  10.308  12.823  0.1820  0.0898 -0.3024
 5917PP      PP16021   7.443   8.575   3.980 -0.2294 -0.3131 -0.1783
 5918PP      PP16022   2.526   2.566   9.943  0.2311 -0.0018 -0.1052
 5919PP      PP16023   5.353   4.173  11.465  0.0794  0.1608 -0.0900
 5920PP      PP16024  13.224  13.617  12.892 -0.0001 -0.1043  0.0525
 5921PP      PP16025   9.437   4.269   3.459 -0.0341 -0.2454  0.3910
 5922PP      PP16026  14.730  13.080  12.120  0.0781 -0.1183  0.0925
 5923PP      PP16027   0.429   2.057   8.563 -0.1855  0.0266  0.0909
 5924PP      PP16028   7.660   4.959   2.110  0.2222  0.0774 -0.4911
 5925PP      PP16029  13.848   2.686   9.381 -0.1053  0.2070 -0.0131
 5926PP      PP16030  14.289   8.320  12.035 -0.0162  0.3311  0.0683
 5927PP      PP16031  10.264   0.955   4.739 -0.2418 -0.2905  0.2030
 5928PP      PP16032   8.084   1.088  12.059  0.0245 -0.0830 -0.2585
 5929PP      PP16033  15.472  12.075  12.970  0.3013  0.3235  0.0246
 5930PP      PP16034   9.849  11.765   9.155  0.0600 -0.0007  0.2280
 5931PP      PP16035   8.962   5.976  10.552 -0.0792  0.2152  0.1010
 5932PP      PP16036   7.572   8.623   2.503  0.2787  0.5102 -0.0906
 5933PP      PP16037   8.270  13.718  12.374  0.2135 -0.2335 -0.1697
 5934PP      PP16038   6.711   9.530   3.976 -0.0866 -0.1038  0.1406
 5935PP      PP16039  14.340   3.468   1.819  0.2594 -0.1390 -0.1944
 5936PP      PP16040   4.584   1.526  10.804 -0.0931 -0.0184 -0.0433
 5937PP      PP16041   6.050  11.982   9.627 -0.1320  0.0534  0.3987
 5938PP      PP16042   3.554  10.577  12.152 -0.2928 -0.0083  0.1031
 5939PP      PP16043   2.149   9.829   9.079 -0.0549  0.3662 -0.5396
 5940PP      PP16044   1.295   6.284   2.650  0.0398 -0.0800 -0.1366
 5941PP      PP16045  11.089  14.030   0.194  0.2767  0.1428 -0.0471
 5942PP      PP16046  10.414  12.387   0.868 -0.1451  0.2518  0.2895
 5943PP      PP16047   1.744   2.848   2.969 -0.3139 -0.1056  0.0355
 5944PP      PP16048  14.608   0.694  10.860  0.0893  0.1222  0.1664
 5945PP      PP16049  12.579  13.464  11.474 -0.0193 -0.0351  0.1087
 5946PP      PP16050   4.772  13.200   3.264 -0.4169 -0.2274 -0.1743
 5947PP      PP16051   3.287   1.108   3.329 -0.0761  0.0323  0.0378
 5948PP      PP16052   6.848   1.292   4.536 -0.1130  0.0173  0.2838
 5949PP      PP16053   1.123  14.586  12.448 -0.0760 -0.2767  0.0345
 5950PP      PP16054   6.230  11.897  10.523  0.4216  0.1026 -0.2744
 5951PP      PP16055   0.877   9.423   1.081  0.2026 -0.0279 -0.0385
 5952PP      PP16056  10.241  12.522   2.322 -0.4477 -0.2896  0.0201
 5953PP      PP16057  13.309   1.866  11.700  0.0137  0.1600  0.2721
 5954PP      PP16058  10.761   1.314   3.836 -0.2717 -0.1152  0.1187
 5955PP      PP16059   9.534   9.127  11.041 -0.2565 -0.1694  0.1827
 5956PP      PP16060  15.716   1.526  10.246  0.0995 -0.0650  0.2318
 5957PP      PP16061   8.666   2.614   4.260  0.0649 -0.1047 -0.0614
 5958PP      PP16062   7.561  15.422  13.378 -0.1393 -0.0917  0.1283
 5959PP      PP16063  14.784  10.171  13.172 -0.0169 -0.1060 -0.0151
 5960PP      PP16064   7.124   9.246   2.167 -0.0492  0.0622 -0.1192
 5961PP      PP16065  12.150   1.071   2.995 -0.2676 -0.2315  0.1736
 5962PP      PP16066  15.916  15.523  13.054  0.2440  0.1463 -0.0680
 5963PP      PP16067   3.869   3.563   1.231  0.3911  0.1580 -0.1901
 5964PP      PP16068   3.714  14.905   1.197  0.3479 -0.2871 -0.1641
 5965PP      PP16069  14.665   2.289   8.446  0.0091  0.0908 -0.2563
 5966PP      PP16070   8.243   9.389  11.773  0.1977  0.0049  0.2062
 5967PP      PP16071   1.161  14.577   0.612 -0.1914  0.2230 -0.2299
 5968PP      PP16072   1.100   4.312  10.163  0.2478 -0.2650  0.2492
 5969PP      PP16073  14.703   4.355   1.640 -0.1696  0.0150 -0.2814
 5970PP      PP16074  12.968  11.207   8.714  0.0924  0.0204 -0.3611
 5971PP      PP16075   9.492   4.281  11.429 -0.3183 -0.1888  0.1566
 5972PP      PP16076  11.822  10.818  10.020  0.3165 -0.0867 -0.0344
 5973PP      PP16077   7.837   6.990   2.648 -0.1473  0.0965 -0.2014
 5974PP      PP16078   5.497   4.064  11.001  0.0407  0.0602  0.0748
 5975PP      PP16079  10.654   6.749  12.088  0.0288 -0.0845  0.0750
 5976PP      PP16080   2.865  11.986   9.625  0.0742 -0.1928  0.0251
 5977PP      PP16081   1.655  12.814  10.976  0.0787 -0.2187  0.0469
 5978PP      PP16082   2.775   7.434   1.952 -0.1704 -0.0887 -0.1126
 5979PP      PP16083   5.772   5.298   9.894 -0.1619  0.0522 -0.1364
 5980PP      PP16084  14.548   8.644   9.007 -0.0580 -0.1853 -0.1647
 5981PP      PP16085  15.821   8.575   0.369 -0.2565 -0.1056 -0.0321
 5982PP      PP16086  13.911   5.109   1.810 -0.2072  0.1887  0.0346
 5983PP      PP16087  11.104  11.075   2.286 -0.1889 -0.1141  0.0517
 5984PP      PP16088  12.470  12.321   2.695  0.2635  0.3843  0.0031
 5985PP      PP16089  11.362  11.877  13.117  0.0430  0.1160  0.0565
 5986PP      PP16090   5.232   7.844   3.764  0.2164  0.2686  0.0607
 5987PP      PP16091   4.475   4.439  12.504  0.5051 -0.1015 -0.4226
 5988PP      PP16092   8.689  13.339   2.350 -0.0944  0.0254  0.4200
 5989PP      PP16093  14.312  15.662  13.283  0.1303 -0.1678  0.0849
 5990PP      PP16094  15.924   0.294   1.890 -0.3106  0.2998 -0.1333
 5991PP      PP16095   1.808   5.226   3.006  0.3744  0.0374 -0.2682
 5992PP      PP16096   0.848   0.604   1.232 -0.0731 -0.0518 -0.0532
 5993PP      PP16097   4.061   8.563  11.150  0.3239 -0.0559 -0.0524
 5994PP      PP16098  13.825   7.530  12.766 -0.0867 -0.2844  0.2007
 5995PP      PP16099   6.285  15.143  10.701 -0.1650  0.1579 -0.0009
 5996PP      PP16100   2.500   4.648   0.125  0.1491  0.0874 -0.0459
 5997PP      PP16101  11.176   0.202   9.056  0.2265  0.1130 -0.1512
 5998PP      PP16102   9.395   8.281  11.794 -0.0173  0.4113  0.0100
 5999PP      PP16103   6.517  15.736   3.396 -0.0589 -0.2044 -0.0161
 6000PP      PP16104  15.072   3.674   1.980  0.0886 -0.1109 -0.2515
 6001PP      PP16105   8.076  13.715   3.727  0.1487  0.1925  0.0197
 6002PP      PP16106   6.331   8.610  10.628 -0.0014  0.0541 -0.0396
 6003PP      PP16107   2.641   4.933  11.827  0.2022  0.0687 -0.1654
 6004PP      PP16108   8.089  12.164   9.578 -0.1603 -0.0509  0.2916
 6005PP      PP16109   9.660   2.704   9.178  0.2352  0.0160  0.1607
 6006PP      PP16110   9.031  10.044   4.462 -0.1470 -0.1268  0.3075
 6007PP      PP16111   7.589  10.852   1.156 -0.0546  0.0311 -0.1596
 6008PP      PP16112   9.251   2.464  11.578 -0.0719  0.1739  0.1728
 6009PP      PP16113   1.609  15.306  13.110  0.0244  0.1039 -0.3471
 6010PP      PP16114   2.134   1.438   0.290 -0.2682 -0.0009 -0.0569
 6011PP      PP16115   8.335   7.874   2.476  0.1552 -0.1637  0.2267
 6012PP      PP16116  12.205  14.372   3.517 -0.0314 -0.0145  0.2892
 6013PP      PP16117  11.066   9.611   4.022 -0.3183 -0.0601  0.0536
 6014PP      PP16118   9.389  14.928  12.400  0.0307 -0.2197 -0.1339
 6015PP      PP16119   1.528  12.020  11.791  0.1089 -0.0455 -0.1397
 6016PP      PP16120  10.559   0.928   1.935 -0.3372 -0.0128 -0.0310
 6017PP      PP16121   4.790   3.429  10.926 -0.2219  0.0887  0.0435
 6018PP      PP16122   1.960  14.712   3.147  0.5070  0.0322  0.0993
 6019PP      PP16123  14.627   8.045   0.503 -0.0007 -0.0741 -0.2471
 6020PP      PP16124   4.834   0.481   0.406 -0.1061 -0.3539 -0.1083
 6021PP      PP16125  12.481   9.512   3.539 -0.2194 -0.0294 -0.0977
 6022PP      PP16126   4.826   7.285   1.985 -0.5115 -0.3011 -0.1176
 6023PP      PP16127   8.415   1.584   3.591  0.4078 -0.0074 -0.1731
 6024PP      PP16128   2.503  14.077   0.035 -0.2531 -0.0072  0.0329
 6025PP      PP16129  13.301   0.099   0.718  0.1236 -0.0723 -0.0601
 6026PP      PP16130   7.069   5.653  11.999 -0.1496  0.2602 -0.0656
 6027PP      PP16131  12.237   9.341   2.133  0.0273  0.0249  0.0185
 6028PP      PP16132  12.021   3.337   3.677  0.1095 -0.1896 -0.0837
 6029PP      PP16133  13.831   1.685   9.918 -0.0871  0.3801  0.0257
 6030PP      PP16134   2.559  11.172  12.797 -0.0300  0.2108 -0.0179
 6031PP      PP16135  11.700  10.547  11.199  0.2157  0.2661 -0.0918
 6032PP      PP16136  13.612   4.499  11.741  0.0063  0.3226 -0.0218
 6033PP      PP16137   0.723   2.150   8.962 -0.3929  0.1928 -0.0809
 6034PP      PP16138   5.879   4.431   9.455  0.0806  0.0260 -0.0493
 6035PP      PP16139   8.096   4.168  10.088 -0.3994  0.0419 -0.1467
 6036PP      PP16140   5.548  12.079  11.473 -0.2359 -0.1364 -0.2219
 6037PP      PP16141   9.031   0.621   3.996  0.1246  0.3452 -0.1460
 6038PP      PP16142   1.128   7.775  12.422  0.1436  0.0747 -0.1671
 6039PP      PP16143  14.596  10.579   3.566  0.1486  0.0367 -0.0931
 6040PP      PP16144  15.378   6.512  10.865 -0.2790  0.2442 -0.2582
 6041PP      PP16145   4.250  15.642   0.433 -0.0165  0.2895 -0.0249
 6042PP      PP16146   2.445   9.280  12.453 -0.0285 -0.0286 -0.0154
 6043PP      PP16147   8.859   0.056  10.515 -0.1867 -0.1310  0.0131
 6044PP      PP16148  12.500   3.969  12.685 -0.2084  0.1071 -0.0689
 6045PP      PP16149   4.696  10.641  10.647 -0.0696  0.0623 -0.0284
 6046PP      PP16150  11.153   3.421   0.919  0.1313 -0.1583 -0.0733
 6047PP      PP16151   5.887   8.313  10.972 -0.1905 -0.0965  0.0219
 6048PP      PP16152   3.278  13.371  12.938  0.0833 -0.0254 -0.1389
 6049PP      PP16153  11.700   5.948   2.767 -0.3307 -0.0775  0.1333
 6050PP      PP16154  11.817  15.036   1.602 -0.1093 -0.0419 -0.3681
 6051PP      PP16155  13.176   2.717   0.957  0.0438 -0.2130  0.0110
 6052PP      PP16156   4.763  10.651   0.093  0.0920  0.0448 -0.2491
 6053PP      PP16157   1.207   0.871   3.154  0.0660  0.1004  0.0817
 6054PP      PP16158  12.150   5.865   4.036 -0.0661 -0.3001 -0.1707
 6055PP      PP16159   8.705  13.028  12.698  0.0128  0.1846  0.0609
 6056PP      PP16160  13.952   5.528  10.389  0.2206 -0.2103 -0.2153
 6057PP      PP16161   5.648  15.544   9.153 -0.1972  0.1941  0.3436
 6058PP      PP16162  15.938   2.009   3.464 -0.0787  0.0280  0.1883
 6059PP      PP16163   1.056   2.112   2.678  0.1823 -0.1481  0.0130
 6060PP      PP16164   5.979   4.817   0.368  0.2255 -0.0606 -0.5205
 6061PP      PP16165   0.153   2.373   7.899 -0.0040  0.0674  0.1135
 6062PP      PP16166  11.502   0.776  11.638  0.0818  0.1422  0.0106
 6063PP      PP16167  10.546  14.156   3.243  0.0171 -0.0332 -0.1345
 6064PP      PP16168   5.639   1.161   9.151 -0.0701 -0.3258  0.3504
 6065PP      PP16169  15.614   3.245   8.819 -0.0044 -0.2995 -0.0970
 6066PP      PP16170   7.454   4.130   1.866 -0.0760 -0.1953  0.1162
 6067PP      PP16171   2.890   9.958   4.376 -0.1595 -0.3126 -0.0814
 6068PP      PP16172   8.221  14.608   3.580 -0.0602  0.1303 -0.2719
 6069PP      PP16173  11.490   8.502  12.490 -0.3274  0.1745  0.0357
 6070PP      PP16174  12.133   1.430   4.141 -0.1456 -0.0917  0.1103
 6071PP      PP16175  10.507   8.546   1.080 -0.0352 -0.1047 -0.1531
 6072PP      PP16176   2.131   8.049   0.711 -0.1076  0.1903 -0.0069
 6073PP      PP16177   9.730   7.631   2.878 -0.1195  0.1239  0.3312
 6074PP      PP16178  14.364  10.099  11.881  0.1919  0.0175 -0.3870
 6075PP      PP16179  10.174   3.332   1.736  0.1469  0.1106 -0.0136
 6076PP      PP16180   6.282  13.826  13.064 -0.5158 -0.0492 -0.0559
 6077PP      PP16181   5.798   5.418  10.987  0.0085 -0.2440 -0.0274
 6078PP      PP16182   3.895   0.868   8.623  0.2432 -0.2272  0.2266
 6079PP      PP16183   0.667  11.673   0.403  0.1956  0.0840  0.3710
 6080PP      PP16184   1.513   1.251   2.724 -0.4200  0.2660  0.0815
 6081PP      PP16185   5.611   5.127   0.307  0.1268 -0.4348  0.1723
 6082PP      PP16186  10.193   7.089  12.961  0.4586 -0.0089 -0.4457
 6083PP      PP16187   8.841   0.851  12.699  0.1455  0.0511  0.1596
 6084PP      PP16188   1.993  15.716   0.972 -0.4114  0.0823 -0.5399
 6085PP      PP16189  14.229   4.456   9.735 -0.5064  0.1768  0.0456
 6086PP      PP16190   5.137   4.321   2.338  0.2007  0.3203  0.0649
 6087PP      PP16191  14.983  15.274   1.519 -0.2116 -0.1350  0.1483
 6088PP      PP16192   2.807  14.766  13.155 -0.1948 -0.0516 -0.1278
 6089PP      PP16193   0.594   8.986  11.578  0.0232 -0.1475 -0.0167
 6090PP      PP16194   7.340   4.673  12.978  0.1051 -0.0710  0.0586
 6091PP      PP16195   9.674  14.345   1.477  0.0052  0.0762  0.0669
 6092PP      PP16196   5.517   2.624   1.283  0.0384 -0.1887  0.1166
 6093PP      PP16197   8.984   9.184   4.598 -0.1194  0.1101  0.4494
 6094PP      PP16198  13.740   8.501  11.251 -0.2916  0.4849  0.0875
 6095PP      PP16199   5.308  13.262   2.376  0.1607  0.1081  0.0826
 6096PP      PP16200  13.160   3.560  13.027 -0.1279  0.1975 -0.0085
 6097PP      PP16201   3.462   8.009   0.921 -0.2085 -0.1216  0.1428
 6098PP      PP16202   9.478   4.361   2.494  0.1477  0.3162  0.0854
 6099PP      PP16203  13.247   9.101   3.439 -0.0948  0.0278  0.2019
 6100PP      PP16204  12.744  11.631   3.040  0.1677 -0.1803 -0.1016
 6101PP      PP16205  11.891  13.760   9.048 -0.0268  0.0849  0.1844
 6102PP      PP16206   8.211   7.447  11.978 -0.1894  0.0855 -0.1471
 6103PP      PP16207   0.869   5.896   1.962 -0.2549 -0.1950 -0.0824
 6104PP      PP16208   2.686   7.234   0.466 -0.2491  0.0952  0.1128
 6105PP      PP16209   4.659  12.605   0.128  0.1783 -0.1809  0.0276
 6106PP      PP16210   0.248  12.182   0.993 -0.0330 -0.2530  0.1999
 6107PP      PP16211   5.106   7.579   9.716  0.3839 -0.2649  0.0556
 6108PP      PP16212   6.478   2.128  12.640 -0.1586  0.1058  0.1206
 6109PP      PP16213   1.141   2.817   3.722  0.0238 -0.1503 -0.1936
 6110PP      PP16214  10.556   9.268  13.109  0.2514 -0.1103  0.4110
 6111PP      PP16215  10.193  10.082   2.870  0.0105  0.1284 -0.0526
 6112PP      PP16216   5.551   9.073   9.489 -0.1353 -0.0917 -0.1854
 6113PP      PP16217  15.894  15.659   3.950 -0.2508  0.3458 -0.1903
 6114PP      PP16218  13.175   0.462   2.625 -0.1716 -0.0760  0.1197
 6115PP      PP16219  13.560   8.809   4.888 -0.3557 -0.0591 -0.0118
 6116PP      PP16220   6.282  11.396   3.083 -0.1364 -0.2543  0.1297
 6117PP      PP16221   2.129   4.978   1.009  0.2707 -0.0867 -0.0649
 6118PP      PP16222   3.583   0.338   3.641 -0.0862  0.3974 -0.2215
 6119PP      PP16223  11.387   5.280   3.261 -0.1094 -0.2403 -0.0764
 6120PP      PP16224  10.361  15.896  11.223  0.1204  0.1239 -0.1786
 6121PP      PP16225   1.120   7.080   3.882  0.0871  0.1970  0.2047
 6122PP      PP16226   0.337   7.568  10.988 -0.0180  0.2037  0.2069
 6123PP      PP16227   4.014  13.431  10.896  0.0881 -0.0001  0.2499
 6124PP      PP16228   2.462   8.949   0.585 -0.2342  0.0440 -0.1925
 6125PP      PP16229   4.238  15.413   2.887 -0.1165  0.2677 -0.0031
 6126PP      PP16230   8.229   4.732  12.447  0.0795 -0.2343  0.3005
 6127PP      PP16231  10.619   5.355   1.863 -0.2193 -0.2879 -0.1466
 6128PP      PP16232   8.414  11.339  11.164 -0.3761  0.2308 -0.2544
 6129PP      PP16233   7.679   4.809   9.495 -0.2150 -0.0754 -0.0474
 6130PP      PP16234   6.701   8.728  10.206  0.3754  0.0639 -0.0222
 6131PP      PP16235   6.819   3.544  12.241  0.1548  0.2693  0.4002
 6132PP      PP16236   1.362   5.119   3.119 -0.0805 -0.0876 -0.1096
 6133PP      PP16237  10.375  15.797   1.796  0.1429 -0.2179 -0.0565
 6134PP      PP16238  14.208   1.958   0.681 -0.3145  0.1221 -0.1286
 6135PP      PP16239   6.308   6.342   4.236  0.1730 -0.0168 -0.0256
 6136PP      PP16240  12.807   0.826   1.098 -0.1624 -0.1774 -0.3578
 6137PP      PP16241   2.866   5.478   2.691 -0.0352  0.1575 -0.4371
 6138PP      PP16242   8.535   1.762   1.810  0.2368  0.0052  0.0279
 6139PP      PP16243  10.749   4.267   3.529 -0.1540 -0.1538 -0.1149
 6140PP      PP16244   0.448  14.131   2.747  0.1708  0.3057  0.0340
 6141PP      PP16245  13.435   8.963  12.912  0.1392  0.0379  0.2718
 6142PP      PP16246   4.086  11.335   0.270  0.1904 -0.0149  0.2548
 6143PP      PP16247   7.313   0.137   2.999  0.3667  0.0509  0.0669
 6144PP      PP16248  13.865   1.049   1.150  0.2487 -0.0512 -0.3342
 6145PP      PP16249   9.232   9.007   3.162  0.0425 -0.0661  0.1412
 6146PP      PP16250  10.567   0.793  13.169 -0.1232  0.2297  0.1928
 6147PP      PP16251   2.787   1.044   3.303 -0.0350 -0.0683 -0.1450
 6148PP      PP16252  11.668   1.948   0.230 -0.1011 -0.3442 -0.2396
 6149PP      PP16253  11.441   4.415   1.923  0.1714 -0.0685  0.2104
 6150PP      PP16254  14.523  14.288  10.627 -0.3106  0.1003 -0.1703
 6151PP      PP16255  13.366  14.168   4.407 -0.1098 -0.0744  0.0667
 6152PP      PP16256   0.615   8.902  13.392  0.0592 -0.0452 -0.0623
 6153PP      PP16257   4.206  14.651  13.393 -0.3444 -0.0769  0.1319
 6154PP      PP16258   6.489   5.115   0.084 -0.1061 -0.2764 -0.0472
 6155PP      PP16259   1.025   9.477   2.541 -0.0156 -0.1933  0.3418
 6156PP      PP16260   5.749   7.673  12.540 -0.1482 -0.1409 -0.3613
 6157PP      PP16261   4.539  10.789   1.079 -0.4727  0.1191 -0.0576
 6158PP      PP16262  13.971   5.883   5.064 -0.3897 -0.0576 -0.0318
 6159PP      PP16263   4.142   7.613   9.288 -0.2387 -0.0845  0.1027
 6160PP      PP16264   2.170   0.578   9.522 -0.1616  0.1505 -0.3540
 6161PP      PP16265   3.149   8.023  10.316 -0.2358  0.1714 -0.0144
 6162PP      PP16266   3.182   9.340   1.722  0.0805  0.0509  0.1583
 6163PP      PP16267   9.962   1.337  11.287  0.1312 -0.1534 -0.0621
 6164PP      PP16268  15.799  12.273  10.937  0.1621  0.0281 -0.1819
 6165PP      PP16269  10.575   9.170   5.407 -0.3444 -0.2615  0.0355
 6166PP      PP16270   9.299   7.769  10.275  0.1899 -0.1210  0.0506
 6167PP      PP16271   3.607   5.469   4.266  0.0300 -0.1607  0.0711
 6168PP      PP16272  14.429   2.015  12.862 -0.1202  0.1209  0.1972
 6169PP      PP16273   6.197   9.320  10.975 -0.0491  0.0514 -0.0677
 6170PP      PP16274   3.051   8.086   8.963 -0.1212 -0.0952 -0.0611
 6171PP      PP16275   8.620   1.414   2.182  0.0594  0.1104  0.1824
 6172PP      PP16276  10.750  15.162   5.142  0.2083 -0.1525 -0.0139
 6173PP      PP16277   3.895   4.912   0.925  0.0697 -0.3611 -0.1304
 6174PP      PP16278  15.170   9.678   4.765 -0.0158 -0.1639 -0.0999
 6175PP      PP16279   3.733   3.733  12.378  0.0799 -0.1784 -0.0511
 6176PP      PP16280   3.990   6.392   8.913  0.0838  0.0794 -0.0128
 6177PP      PP16281   5.844   1.062   3.832 -0.0036 -0.1538  0.2782
 6178PP      PP16282  14.361   5.758   1.046 -0.0480  0.5935  0.2104
 6179PP      PP16283  11.198   2.324   0.317  0.1011  0.1531 -0.0185
 6180PP      PP16284   3.558   9.341   3.177 -0.0446 -0.1499 -0.0326
 6181PP      PP16285   8.251  10.840  11.330  0.1251 -0.1317 -0.0359
 6182PP      PP16286   3.752   5.058   1.409 -0.0284  0.2512  0.0278
 6183PP      PP16287   3.768   3.813   9.162 -0.3542  0.1302  0.1827
 6184PP      PP16288   7.633  12.194   9.800 -0.3174 -0.0987 -0.4692
 6185PP      PP16289   8.838   1.405  10.928  0.2157 -0.0693 -0.0133
 6186PP      PP16290   4.928  13.806   9.510 -0.0733  0.0101 -0.2874
 6187PP      PP16291   5.297   0.451   0.532 -0.1506 -0.0808 -0.0003
 6188PP      PP16292   5.003  10.890   8.914 -0.2017  0.2511 -0.0456
 6189PP      PP16293   0.105   0.454  10.769 -0.0964  0.3156 -0.2084
 6190PP      PP16294  14.197   9.344  12.410 -0.1351 -0.1646 -0.0104
 6191PP      PP16295  14.721   1.220   1.072  0.2522  0.0667  0.2018
 6192PP      PP16296   9.989   4.490   9.808  0.2316 -0.0435 -0.0834
 6193PP      PP16297   7.640  10.019   4.199  0.1504 -0.2328  0.1868
 6194PP      PP16298   0.562   3.276   0.748 -0.0548 -0.0038 -0.0727
 6195PP      PP16299  13.335  15.711  10.552 -0.1923 -0.2379 -0.0292
 6196PP      PP16300   0.439  15.233  12.853  0.0476  0.3073 -0.1904
 6197PP      PP16301   3.636  10.530  13.236  0.0499  0.1859 -0.0521
 6198PP      PP16302   1.718   0.945  12.978  0.1797  0.0002 -0.0192
 6199PP      PP16303   1.583   5.954  12.358 -0.5012  0.1623  0.3521
 6200PP      PP16304   5.438   5.894   3.059  0.1075 -0.0044  0.0129
 6201PP      PP16305  12.048   0.247   4.715 -0.2465  0.0685 -0.3437
 6202PP      PP16306   2.107   2.637   2.668  0.0904  0.0302 -0.2049
 6203PP      PP16307   0.036  14.321   2.981  0.2316 -0.0089  0.2731
 6204PP      PP16308  10.251  15.134   9.433  0.0013  0.0059 -0.0616
 6205PP      PP16309   2.297  10.637   9.308 -0.2398 -0.5747  0.0006
 6206PP      PP16310  11.724   7.212   0.661 -0.0541 -0.1503 -0.0258
 6207PP      PP16311   8.241  15.786   4.503  0.2302 -0.1271  0.3768
 6208PP      PP16312  10.927   8.222   9.064  0.1751  0.0289 -0.1092
 6209PP      PP16313   7.747   4.478  12.674  0.0529 -0.2315 -0.1470
 6210PP      PP16314   3.310   8.863   0.828  0.2127 -0.2159 -0.1826
 6211PP      PP16315   3.525   8.748  10.190  0.1686 -0.1850 -0.0467
 6212PP      PP16316   8.021   1.524  10.938  0.3818  0.1897  0.1400
 6213PP      PP16317  14.232   4.748  10.910  0.0240  0.0817  0.1161
 6214PP      PP16318   4.978   0.779   9.740  0.3379  0.1776 -0.0841
 6215PP      PP16319  11.631   8.457   3.638 -0.1374  0.1960 -0.0716
 6216PP      PP16320   0.491   5.888  12.580 -0.0934 -0.0277 -0.2924
 6217PP      PP16321   4.868  15.318   2.826 -0.1106  0.1059 -0.0269
 6218PP      PP16322   0.999   1.043   0.067 -0.0931 -0.1413  0.0206
 6219PP      PP16323  14.149  15.337   3.236  0.2470  0.2190  0.3091
 6220PP      PP16324  10.012   6.758  13.276 -0.1659 -0.2404  0.2010
 6221PP      PP16325   2.934  13.233   0.999  0.2521 -0.2344 -0.3576
 6222PP      PP16326   0.206  15.148  11.197  0.2397  0.2626  0.0326
 6223PP      PP16327   7.254   3.073  12.340  0.0930 -0.3890  0.1899
 6224PP      PP16328   0.665   7.686   1.624  0.0559 -0.2955 -0.1361
 6225PP      PP16329   6.518   4.241  12.097  0.0453 -0.0870  0.0744
 6226PP      PP16330  11.267  10.686   9.000 -0.2194 -0.1503  0.1426
 6227PP      PP16331   9.267   0.928  12.987  0.1625 -0.0047 -0.3301
 6228PP      PP16332   0.377   3.847   3.221  0.0139 -0.0865  0.1318
 6229PP      PP16333   1.233  10.281   0.103  0.0581  0.0464  0.1478
 6230PP      PP16334   5.135  14.055  12.959 -0.3293  0.0622  0.1219
 6231PP      PP16335  14.308   1.349   2.678  0.2661  0.4459  0.2537
 6232PP      PP16336  13.231  12.241   1.149 -0.1132  0.0421 -0.1722
 6233PP      PP16337  15.033   3.997   9.783 -0.0865  0.0830  0.0474
 6234PP      PP16338  10.323   6.936  12.459  0.0967 -0.2977  0.2623
 6235PP      PP16339  15.843  15.851  11.838  0.2160 -0.0587 -0.0636
 6236PP      PP16340   7.646   4.188  12.194  0.1285 -0.0630  0.0166
 6237PP      PP16341  12.442  14.537   1.533  0.0920  0.0384  0.0425
 6238PP      PP16342   3.480   2.941   0.520 -0.3488  0.2990  0.0581
 6239PP      PP16343   3.351   3.378   2.861  0.2718  0.0344 -0.2901
 6240PP      PP16344   1.413   8.585  11.297  0.0479  0.0775 -0.3126
 6241PP      PP16345   7.903   2.331  11.922 -0.0510  0.0808  0.0051
 6242PP      PP16346  10.517  10.028   0.796 -0.2071  0.1564 -0.0041
 6243PP      PP16347   1.825  12.383   2.015 -0.5651  0.0857 -0.0958
 6244PP      PP16348   3.027   9.969  10.793  0.1042 -0.3417  0.1402
 6245PP      PP16349  11.420   1.134   0.490  0.1881  0.0381 -0.2342
 6246PP      PP16350  13.021   7.651  10.405 -0.1048  0.1936  0.3262
 6247PP      PP16351   4.326  15.898   2.012  0.3432 -0.1440 -0.2489
 6248PP      PP16352  11.764  10.457   2.104 -0.0391 -0.0890  0.0430
 6249PP      PP16353   1.189   2.625   2.509 -0.3372  0.2783 -0.1685
 6250PP      PP16354   9.355  10.931  13.121 -0.1163 -0.0109  0.1541
 6251PP      PP16355   2.659  13.447   3.528 -0.0004  0.2611  0.0821
 6252PP      PP16356   0.805   9.016  10.138 -0.1091 -0.1395 -0.0528
 6253PP      PP16357   2.594   0.824   1.999  0.1582  0.0771 -0.1575
 6254PP      PP16358  13.026  12.230  12.702 -0.0661 -0.0098 -0.0744
 6255PP      PP16359   2.494   3.865   2.814  0.0245 -0.2884  0.1444
 6256PP      PP16360  11.453   8.916   9.657  0.0610 -0.3223  0.1928
 6257PP      PP16361   6.077   6.800   4.443 -0.1489 -0.0096 -0.1137
 6258PP      PP16362  14.828   7.492   2.924  0.2282 -0.1478  0.3836
 6259PP      PP16363   7.800   0.624  11.341 -0.1303 -0.0944 -0.1316
 6260PP      PP16364  10.220   8.590  11.602 -0.1589 -0.0435  0.0335
 6261PP      PP16365  10.794   0.245  10.250  0.2461  0.0300 -0.1549
 6262PP      PP16366  10.557  11.836   4.354 -0.0452 -0.0765 -0.0959
 6263PP      PP16367   1.605  13.378   3.431  0.2677 -0.1935  0.0636
 6264PP      PP16368   4.948   8.693   8.963  0.1836 -0.2841  0.2370
 6265PP      PP16369   8.582   2.705   3.748 -0.2876 -0.1516 -0.0953
 6266PP      PP16370  10.033   8.521   4.826 -0.2603 -0.1187 -0.2154
 6267PP      PP16371   1.995   7.487  10.843 -0.0638  0.2533  0.1708
 6268PP      PP16372  10.108   7.614   1.472  0.3375  0.1354 -0.0823
 6269PP      PP16373  15.673  11.270   9.169 -0.0149 -0.2783  0.3455
 6270PP      PP16374  10.486  13.363   9.736  0.0660  0.1580 -0.2276
 6271PP      PP16375  15.814  10.236   4.537 -0.0778 -0.2172 -0.1422
 6272PP      PP16376   9.809  10.186   2.494  0.3504  0.0064 -0.1036
 6273PP      PP16377   9.365  10.552   8.621  0.2924 -0.1442  0.0375
 6274PP      PP16378   5.226  10.938   9.825  0.3135  0.1649  0.3857
 6275PP      PP16379   0.012   1.501   7.834  0.0337 -0.0834  0.1814
 6276PP      PP16380   8.237  11.108   0.375  0.0307  0.4300 -0.1874
 6277PP      PP16381   9.401  14.158   0.017  0.1367  0.0254 -0.0310
 6278PP      PP16382  11.625   1.985   9.741  0.0105 -0.0439  0.0734
 6279PP      PP16383   4.252   1.590   1.516 -0.2107 -0.0007  0.1137
 6280PP      PP16384  13.691   0.638   2.709  0.0030 -0.1697 -0.1605
 6281PP      PP16385  11.282   8.376   0.651 -0.2144  0.0186 -0.1195
 6282PP      PP16386   1.846   0.251   0.887  0.2315  0.1131  0.2750
 6283PP      PP16387   5.024   7.267   0.187 -0.0335  0.2179  0.0687
 6284PP      PP16388   7.071  14.946   0.712 -0.1648 -0.1239  0.1671
 6285PP      PP16389  10.605  11.344   1.686  0.0807 -0.3233  0.0587
 6286PP      PP16390  10.571  14.873   2.451 -0.0045 -0.0330  0.1773
 6287PP      PP16391   3.732  15.292   8.811  0.0698 -0.0294  0.0210
 6288PP      PP16392   0.075   8.581  11.555  0.1011  0.0607 -0.0359
 6289PP      PP16393  13.390  13.601  12.045  0.0844 -0.2067 -0.0699
 6290PP      PP16394   5.543  11.483   9.266 -0.3838  0.0741  0.0563
 6291PP      PP16395   1.490   3.134   8.034  0.2942 -0.0714 -0.1405
 6292PP      PP16396  10.272   5.257   2.966  0.1472  0.1159  0.1463
 6293PP      PP16397  12.232   1.140   0.721  0.2893  0.2477 -0.1910
 6294PP      PP16398   6.704  14.279   3.301 -0.0931  0.0952 -0.1790
 6295PP      PP16399  10.586   2.033  10.270  0.0072 -0.1845  0.2658
 6296PP      PP16400  10.943  14.236  11.796  0.1393  0.0838 -0.0536
 6297PP      PP16401   2.674   7.031  11.743 -0.0057 -0.2229  0.0344
 6298PP      PP16402   1.793   5.678  11.759 -0.0430  0.0778  0.0598
 6299PP      PP16403   5.373   8.308   1.415 -0.4441 -0.1801  0.0679
 6300PP      PP16404  14.575   0.357   8.592  0.0891 -0.1610 -0.0004
 6301PP      PP16405   8.731  13.165   1.507 -0.3049 -0.2811  0.2844
 6302PP      PP16406   4.155  12.164   1.630 -0.0087 -0.1870 -0.1292
 6303PP      PP16407   0.937   0.206   9.320 -0.2444  0.1481 -0.0714
 6304PP      PP16408  15.432   6.449   9.232 -0.1273  0.0440  0.0046
 6305PP      PP16409  10.403   4.196   3.983 -0.2437  0.1514  0.4908
 6306PP      PP16410   6.290  14.656  10.386 -0.0913  0.0513  0.0595
 6307PP      PP16411   3.238  13.054   9.561  0.0931 -0.1897 -0.3898
 6308PP      PP16412  10.397   7.542  13.104 -0.1108  0.3475  0.0333
 6309PP      PP16413   8.634   9.996   1.129  0.3344  0.2458  0.1617
 6310PP      PP16414   0.247   3.117   2.653  0.1396  0.0311 -0.0597
 6311PP      PP16415  13.493  14.041  11.568  0.0915 -0.1187  0.2977
 6312PP      PP16416   1.839   7.000   9.551  0.2376  0.2944  0.1817
 6313PP      PP16417   7.053   7.945  13.188  0.0197  0.3838  0.0884
 6314PP      PP16418   7.385   2.935  11.861  0.2397  0.1483 -0.0890
 6315PP      PP16419   5.370  11.614  11.306  0.1558 -0.1921  0.1799
 6316PP      PP16420   4.308   3.172  12.852  0.1452 -0.1507 -0.2010
 6317PP      PP16421  12.068   2.733   4.201  0.0084  0.0350 -0.0747
 6318PP      PP16422   7.115   4.233   0.696  0.0146  0.1023 -0.2872
 6319PP      PP16423   6.404   5.313   9.289 -0.1432 -0.0778 -0.0137
 6320PP      PP16424   1.189  14.442  12.923  0.0656  0.3922 -0.0111
 6321PP      PP16425   7.546   0.693   2.212  0.0272  0.1684  0.0594
 6322PP      PP16426   9.529  13.456  11.681  0.0223  0.2116  0.0450
 6323PP      PP16427  11.535   7.907   1.612  0.0663 -0.2515 -0.1098
 6324PP      PP16428  15.849   6.143  11.247 -0.0969  0.2197  0.4275
 6325PP      PP16429   6.340  12.523  10.275 -0.2199 -0.0416  0.2763
 6326PP      PP16430   9.391   0.086   2.545  0.1300 -0.0972 -0.5700
 6327PP      PP16431   4.792  12.662   3.155  0.2368 -0.1720  0.0591
 6328PP      PP16432   8.757  10.079   0.177  0.0961  0.0224  0.1401
 6329PP      PP16433   3.091   3.971  11.984 -0.1188 -0.0257  0.0407
 6330PP      PP16434   9.560   7.070   1.738 -0.2100 -0.0088  0.2289
 6331PP      PP16435   6.673  14.405   9.038 -0.1724 -0.0692 -0.0653
 6332PP      PP16436   4.066   1.153   1.419  0.2459 -0.0338 -0.0906
 6333PP      PP16437   3.229   5.108   2.932 -0.0424  0.0301 -0.0827
 6334PP      PP16438   3.042   6.233   8.765  0.1690  0.0914  0.3232
 6335PP      PP16439  11.637   5.143  12.006 -0.0501 -0.0902 -0.0483
 6336PP      PP16440   1.663  11.196   1.824 -0.0368  0.0528 -0.0736
 6337PP      PP16441   0.572  14.491   1.344  0.2240 -0.2094  0.2995
 6338PP      PP16442   9.590   7.823  11.690 -0.0708  0.1878 -0.0430
 6339PP      PP16443   6.330  15.940   2.991 -0.1759 -0.1519 -0.0356
 6340PP      PP16444   0.487   7.593   3.236 -0.1737  0.1413  0.0326
 6341PP      PP16445   6.899   1.225  10.811 -0.0550 -0.2716  0.2402
 6342PP      PP16446   2.321  10.838   9.851 -0.2493 -0.0018  0.1195
 6343PP      PP16447  11.755   4.405   9.089  0.2822 -0.0812  0.2581
 6344PP      PP16448   0.029   9.214  10.191  0.2631 -0.0695 -0.0962
 6345PP      PP16449   8.578   4.893   2.575  0.1165  0.0297  0.1771
 6346PP      PP16450   0.725   9.689   3.532  0.0695  0.0418 -0.1751
 6347PP      PP16451   1.686   2.721   2.445  0.0019 -0.1232 -0.0302
 6348PP      PP16452  14.171  12.351   4.505  0.2129  0.0141 -0.0881
 6349PP      PP16453   7.442  10.458  10.853 -0.0259  0.2404  0.2111
 6350PP      PP16454   1.531  14.907  12.803 -0.2850 -0.2443 -0.0692
 6351PP      PP16455   8.656   7.746  13.358 -0.1824 -0.1227 -0.0306
 6352PP      PP16456   6.396   6.244   4.807 -0.0987  0.2126  0.0717
 6353PP      PP16457  12.568   5.305  12.767 -0.1231  0.1449  0.0113
 6354PP      PP16458  14.999   4.617  10.810 -0.3730 -0.2758  0.0916
 6355PP      PP16459   8.458  14.599   8.663  0.0162 -0.1643  0.0253
 6356PP      PP16460   7.841  13.384   1.238  0.3525 -0.1103  0.0491
 6357PP      PP16461  15.445   3.458   0.693  0.0996  0.2606 -0.0661
 6358PP      PP16462   9.125   5.487   0.959  0.1264 -0.1555  0.1280
 6359PP      PP16463  10.223  10.001  10.228  0.2333  0.1626 -0.0907
 6360PP      PP16464  13.325  15.619   0.384 -0.0031 -0.1216  0.0075
 6361PP      PP16465  11.224   8.129  12.654  0.3120 -0.0391  0.0098
 6362PP      PP16466  13.379   5.353   3.122 -0.0465 -0.0824  0.2211
 6363PP      PP16467   8.326  14.214   9.212  0.1098  0.2525  0.0014
 6364PP      PP16468   5.627   6.683   4.293 -0.2112 -0.0675  0.2549
 6365PP      PP16469   2.274   6.249  13.127  0.2470 -0.3271  0.0046
 6366PP      PP16470   7.336   1.289   3.163 -0.0365  0.2276  0.4526
 6367PP      PP16471   0.482  15.318   2.357 -0.0480 -0.1975  0.1022
 6368PP      PP16472   9.575   2.320  12.988  0.1893 -0.1767  0.2192
 6369PP      PP16473   1.735  12.268   0.998 -0.2514  0.1186  0.1730
 6370PP      PP16474  14.481   9.035   1.266 -0.0105  0.0611 -0.2318
 6371PP      PP16475   8.198   7.583  12.986 -0.3175 -0.1261 -0.1806
 6372PP      PP16476  14.499  11.222  11.148  0.1192 -0.2869  0.2416
 6373PP      PP16477   1.063   6.051   9.421  0.2352  0.1902  0.1332
 6374PP      PP16478   3.720  13.530   1.204 -0.5577 -0.0826 -0.0666
 6375PP      PP16479   7.652   9.516   3.892  0.1864 -0.4638  0.1980
 6376PP      PP16480  13.758   6.618  10.943 -0.1547  0.2870  0.0036
 6377PP      PP16481  15.386   2.665   2.614  0.0689  0.0432 -0.0835
 6378PP      PP16482   8.810   3.846   9.587 -0.1418  0.1225  0.2032
 6379PP      PP16483   5.293  11.218  12.512  0.2184 -0.1771  0.1114
 6380PP      PP16484  15.512   7.474   4.569  0.1861  0.1001 -0.1273
 6381PP      PP16485   3.750   8.377   1.261 -0.1297  0.0102 -0.1837
 6382PP      PP16486   3.655  10.428   9.453  0.2969 -0.1558  0.0049
 6383PP      PP16487   4.278   0.542  10.061 -0.0897 -0.1686  0.3866
 6384PP      PP16488   6.287  10.236  13.072  0.0311  0.0891 -0.1179
 6385PP      PP16489  15.204  14.506   2.861  0.1168  0.1459 -0.0858
 6386PP      PP16490  15.288   7.958   2.089 -0.2151 -0.1080 -0.0708
 6387PP      PP16491   2.401   9.430   0.825  0.1488 -0.2536  0.2244
 6388PP      PP16492  15.406   1.265  11.236 -0.2708 -0.2888 -0.0589
 6389PP      PP16493   1.768   5.260   1.534  0.0664  0.0544 -0.0230
 6390PP      PP16494   3.468  15.789  11.556  0.2818  0.1469 -0.0190
 6391PP      PP16495  14.918   3.486  13.230  0.3436 -0.1061 -0.0330
 6392PP      PP16496  10.849   6.286  10.633 -0.0440 -0.1061  0.0066
 6393PP      PP16497  11.307  10.765  11.360 -0.1689 -0.3097 -0.1144
 6394PP      PP16498  12.037   5.330  12.828 -0.0117 -0.0147  0.2142
 6395PP      PP16499  11.099  15.305  10.681 -0.1504 -0.0894  0.1710
 6396PP      PP16500   2.265  13.951  11.623  0.2303  0.0211  0.0209
 6397PP      PP16501   0.040  14.743   1.668  0.0209 -0.0685  0.0977
 6398PP      PP16502   8.954  14.234   1.434 -0.1630  0.1562 -0.0527
 6399PP      PP16503   4.002   5.793  12.016 -0.1558 -0.0562  0.3718
 6400PP      PP16504  10.560   2.373   3.649 -0.0934  0.3491 -0.0528
 6401PP      PP16505   9.250  15.130  10.573  0.0900 -0.2595  0.2215
 6402PP      PP16506   7.143   2.534   4.085 -0.1141 -0.0436 -0.0647
 6403PP      PP16507   8.237   1.162   0.405 -0.1178 -0.1316 -0.0798
 6404PP      PP16508   9.893   8.478  12.029  0.2556 -0.1664 -0.0068
 6405PP      PP16509   7.993   6.460   1.932 -0.0479 -0.1438  0.0030
 6406PP      PP16510   2.393  15.889   3.072 -0.1972 -0.0362 -0.1206
 6407PP      PP16511   2.973   7.124   3.457  0.0491  0.1446 -0.3039
 6408PP      PP16512   7.391  12.267   1.046  0.3738  0.0227  0.1630
 6409PP      PP16513  13.516   5.005   3.627 -0.2485  0.0983 -0.0627
 6410PP      PP16514  10.486  10.003   4.201  0.0999 -0.2000 -0.0482
 6411PP      PP16515  10.538   2.598   1.403  0.1199 -0.1235  0.2327
 6412PP      PP16516   0.262   2.567  12.111 -0.1831 -0.1420 -0.0125
 6413PP      PP16517   6.730   1.385  11.229 -0.0525  0.1033  0.0223
 6414PP      PP16518   6.885   0.818   9.131 -0.1307  0.1096 -0.0898
 6415PP      PP16519   5.186   9.620   0.567 -0.2564  0.1612  0.0166
 6416PP      PP16520   2.997   8.949  13.157 -0.0878 -0.1881  0.1232
 6417PP      PP16521   7.879   3.946   1.800 -0.2817  0.0836 -0.0248
 6418PP      PP16522   6.641   1.357   3.277  0.2319 -0.1385  0.1201
 6419PP      PP16523  15.578   7.939  10.734 -0.1865 -0.0454  0.0667
 6420PP      PP16524   9.565   5.247   0.804 -0.1932 -0.2581  0.0182
 6421PP      PP16525   7.488  15.842  11.630 -0.0722 -0.0318  0.1222
 6422PP      PP16526  10.061   9.008   4.879 -0.0483 -0.3523 -0.1750
 6423PP      PP16527   0.322   2.474   4.198 -0.2868  0.3412 -0.0992
 6424PP      PP16528  11.825  11.814   9.759  0.1300 -0.1073  0.0645
 6425PP      PP16529  12.095   5.653   3.057 -0.1539 -0.2228 -0.1489
 6426PP      PP16530  11.105   3.795   0.019 -0.1498  0.2807  0.2753
 6427PP      PP16531  14.347   6.159   3.498 -0.1852 -0.0012 -0.0546
 6428PP      PP16532   4.241   7.298  10.792 -0.0833  0.0284 -0.2104
 6429PP      PP16533  12.406  14.035  11.507 -0.0922 -0.2489 -0.0316
 6430PP      PP16534   3.136   6.224  10.149 -0.0918  0.0482 -0.1141
 6431PP      PP16535   3.768   4.244   9.687  0.1252  0.2922 -0.2295
 6432PP      PP16536  10.204  12.976   2.537  0.3368  0.0485  0.4872
 6433PP      PP16537  14.609   3.612   3.491 -0.1781  0.0241 -0.1488
 6434PP      PP16538   0.633  10.398   3.396  0.0494 -0.1384  0.2306
 6435PP      PP16539   3.206  13.797  10.657 -0.0262 -0.1477  0.0433
 6436PP      PP16540   7.525   0.040  10.489 -0.1190 -0.1541 -0.2023
 6437PP      PP16541  11.528   1.786  12.052  0.1661  0.0287  0.1987
 6438PP      PP16542  14.645   4.631  13.245 -0.0743  0.1160  0.0534
 6439PP      PP16543   9.529   7.570  10.720 -0.1539  0.0268 -0.0792
 6440PP      PP16544   0.494  14.727   3.701  0.1775 -0.2302 -0.2521
 6441PP      PP16545  10.616   2.949   9.523 -0.0995 -0.1785  0.2296
 6442PP      PP16546   8.694  14.651   4.057 -0.0517 -0.1117 -0.0957
 6443PP      PP16547   2.106   7.025  11.805  0.2457  0.1837 -0.1280
 6444PP      PP16548   0.493  13.598   1.897 -0.0787 -0.0335  0.0172
 6445PP      PP16549   9.204   0.007  12.207  0.0117 -0.1682 -0.0681
 6446PP      PP16550   1.092   6.264   3.325  0.0267 -0.0840 -0.0025
 6447PP      PP16551   4.885  13.076  11.811 -0.2735 -0.1947 -0.2534
 6448PP      PP16552   6.959  10.398   3.483 -0.2004  0.1781 -0.1998
 6449PP      PP16553  12.833   6.045  13.034 -0.1387 -0.2024  0.1158
 6450PP      PP16554  11.169   9.632   3.521  0.1635  0.2498  0.1091
 6451PP      PP16555   5.761  12.817   0.263  0.1330 -0.0431 -0.0079
 6452PP      PP16556   8.978   9.880  10.965  0.1759  0.0719  0.0431
 6453PP      PP16557   6.062  11.651   3.580  0.2781 -0.2352  0.0690
 6454PP      PP16558  15.495  13.819   9.373 -0.2600 -0.3266  0.2548
 6455PP      PP16559   6.258   4.622   3.182  0.0874 -0.0066  0.2451
 6456PP      PP16560   7.102   4.018  11.058  0.1832  0.0222  0.0237
 6457PP      PP16561  13.321   6.655  11.759 -0.1202  0.2844 -0.1037
 6458PP      PP16562   2.937   6.834   8.698 -0.0102  0.0402 -0.1525
 6459PP      PP16563   3.972   7.139   4.125  0.1982  0.0610  0.2002
 6460PP      PP16564   5.426   5.570  11.492 -0.1552  0.0702  0.0996
 6461PP      PP16565   3.188   9.308   0.110  0.1191  0.0752 -0.0331
 6462PP      PP16566   1.905  10.471   9.790  0.0150  0.2306 -0.2123
 6463PP      PP16567   8.359  13.301   3.945 -0.2046 -0.0413  0.1183
 6464PP      PP16568  14.232  10.159  12.893  0.0818  0.1586  0.1257
 6465PP      PP16569  10.688   7.523   1.173 -0.2456 -0.6067 -0.0619
 6466PP      PP16570   1.437   8.639   2.548 -0.0860  0.1149  0.1229
 6467PP      PP16571   3.091   9.350  11.505 -0.2440  0.0686  0.3063
 6468PP      PP16572   5.937   0.619   2.840  0.1310 -0.1111 -0.0380
 6469PP      PP16573  13.425  15.509   1.440 -0.0189 -0.1636 -0.3724
 6470PP      PP16574  14.003  13.559  11.906 -0.1311  0.0111  0.1578
 6471PP      PP16575   2.398   9.834   9.642  0.2575  0.3607 -0.0413
 6472PP      PP16576   5.750   6.071   9.369  0.2541  0.1196  0.2059
 6473PP      PP16577  14.323  14.673  11.608  0.3811  0.2538  0.1371
 6474PP      PP16578   0.949  13.541   8.824 -0.0939 -0.1782  0.3056
 6475PP      PP16579  10.905   6.395  12.420  0.3396 -0.0979  0.3248
 6476PP      PP16580   9.286  13.030   1.452 -0.0560 -0.1202  0.2034
 6477PP      PP16581  13.996   7.849  12.399  0.0412  0.0556 -0.3140
 6478PP      PP16582  10.299  12.468  10.193  0.0032 -0.1141  0.2717
 6479PP      PP16583   9.514  13.223   4.012 -0.1976  0.1628  0.5247
 6480PP      PP16584  12.325  13.638   1.096  0.3031  0.3420 -0.1321
 6481PP      PP16585  15.457  13.032   0.748 -0.0491 -0.3398 -0.2453
 6482PP      PP16586   0.537   7.419  12.224  0.0502 -0.2603  0.3177
 6483PP      PP16587   2.176   3.695   1.782  0.2371  0.2405  0.0554
 6484PP      PP16588   4.226  13.526  13.061  0.1117 -0.0588 -0.2925
 6485PP      PP16589  11.245  11.625  12.640  0.0449  0.0306  0.0442
 6486PP      PP16590   7.318  11.240   3.847 -0.2646 -0.0839 -0.1012
 6487PP      PP16591   3.593   5.054   4.002  0.0824  0.0629 -0.3833
 6488PP      PP16592  10.070  15.154  10.016  0.1962 -0.0152 -0.5429
 6489PP      PP16593  15.871  10.123  12.552 -0.0270  0.1631  0.2664
 6490PP      PP16594   3.254   1.070   2.488  0.0314 -0.3345  0.1010
 6491PP      PP16595   7.293   8.981   0.793 -0.2446  0.1413  0.1566
 6492PP      PP16596  12.635   1.352   0.364  0.2093 -0.0550  0.1107
 6493PP      PP16597   3.310   7.642   3.499 -0.1154 -0.1916  0.2176
 6494PP      PP16598   0.591   3.902  12.669 -0.0849 -0.0830  0.0787
 6495PP      PP16599   0.479   5.709   1.637  0.1667  0.1445 -0.3963
 6496PP      PP16600  10.912   6.712   2.100 -0.2008 -0.1441  0.0036
 6497PP      PP16601  13.669   8.525  10.349  0.3342  0.1916 -0.0898
 6498PP      PP16602   3.304   4.360   0.445  0.0496  0.1746  0.2180
 6499PP      PP16603   6.891   0.735  10.960  0.1034 -0.4323 -0.2167
 6500PP      PP16604  11.491   6.320  13.329  0.3932  0.1754  0.2028
 6501PP      PP16605   4.392   7.224   0.311 -0.2425  0.1986 -0.0950
 6502PP      PP16606  13.261  10.514   0.985 -0.0378  0.4658 -0.0476
 6503PP      PP16607   6.842   6.775   0.680  0.2484  0.0800 -0.0294
 6504PP      PP16608   8.342   5.581   1.583  0.1261  0.0155  0.3149
 6505PP      PP16609  11.034  11.138   0.934 -0.1352  0.1356 -0.2613
 6506PP      PP16610  14.469   7.868  11.644 -0.1220 -0.0919 -0.0125
 6507PP      PP16611   8.875  12.542   0.230 -0.1000  0.4038 -0.0033
 6508PP      PP16612  14.505   0.220  13.319  0.0035 -0.2617  0.0222
 6509PP      PP16613   9.492   2.729   2.783 -0.2105  0.2201  0.0598
 6510PP      PP16614   0.700  15.358  11.539 -0.3970  0.0245  0.3959
 6511PP      PP16615   4.282   8.552   0.878  0.2527  0.0597 -0.0470
 6512PP      PP16616   8.968   4.307  11.541  0.1220 -0.0499 -0.3324
 6513PP      PP16617  15.418  13.109   8.268 -0.0085 -0.3006 -0.2612
 6514PP      PP16618  12.864  14.225   4.412  0.1771 -0.1844  0.1548
 6515PP      PP16619   5.844   0.400   1.978 -0.0033 -0.1454 -0.2072
 6516PP      PP16620  12.501  13.012   3.753  0.0279 -0.0664  0.0355
 6517PP      PP16621  14.103  11.488   0.573  0.0357  0.0311 -0.0755
 6518PP      PP16622  12.614  10.239  12.746  0.2182 -0.1049  0.0063
 6519PP      PP16623  14.297  13.322   0.729 -0.1034 -0.0614 -0.0200
 6520PP      PP16624   0.852  10.804   3.940 -0.1587 -0.0864 -0.1620
 6521PP      PP16625   4.403  14.915   8.557 -0.0388  0.3136  0.2883
 6522PP      PP16626  10.259   3.757   9.007  0.2975 -0.7594 -0.0360
 6523PP      PP16627  15.397   4.163  10.653 -0.0152  0.0478  0.3551
 6524PP      PP16628   3.130  15.133   0.311 -0.2283 -0.1898 -0.2259
 6525PP      PP16629   0.028   4.272  13.217 -0.1774 -0.0609 -0.0167
 6526PP      PP16630  15.744   0.659   0.463 -0.0863  0.0658  0.1554
 6527PP      PP16631  14.178   4.073   2.084 -0.1651 -0.1072  0.2785
 6528PP      PP16632   9.467   7.462   2.135  0.0703  0.1855 -0.1581
 6529PP      PP16633   6.466   6.348  11.781 -0.1852  0.0239 -0.0560
 6530PP      PP16634   0.503   0.398   0.645 -0.0540 -0.1951 -0.1776
 6531PP      PP16635  15.317   2.770   1.059 -0.1055  0.1869  0.2742
 6532PP      PP16636   8.762   2.757  11.352  0.0682  0.1898 -0.0605
 6533PP      PP16637   4.104   8.052   1.939 -0.1504 -0.0439 -0.1453
 6534PP      PP16638   4.508  14.025   2.877  0.1113 -0.1130  0.0394
 6535PP      PP16639  11.789  15.315   4.734  0.1063  0.2503 -0.1358
 6536PP      PP16640   1.482   8.108   2.056  0.2112  0.1790  0.3035
 6537PP      PP16641  15.632   8.068   0.221  0.3175  0.1268 -0.1065
 6538PP      PP16642   1.208  10.185   8.941  0.2447 -0.0537 -0.0538
 6539PP      PP16643   4.450  13.710  11.100  0.1737  0.0467  0.0026
 6540PP      PP16644  11.271   1.239  13.181 -0.4219  0.1345  0.3099
 6541PP      PP16645  13.596  12.869  11.513 -0.3039 -0.0242  0.4805
 6542PP      PP16646   1.894  15.717   8.550  0.0838 -0.2553  0.0016
 6543PP      PP16647   5.185   2.648   2.822  0.0272 -0.0041 -0.1901
 6544PP      PP16648   7.401  10.105   9.041 -0.0776  0.0452  0.1203
 6545PP      PP16649   7.213   4.450   8.384  0.1461  0.2167  0.0050
 6546PP      PP16650   2.169   6.434   3.720 -0.1298  0.1237 -0.1087
 6547PP      PP16651   6.425  13.781   2.973  0.0450  0.0725 -0.0776
 6548PP      PP16652   2.021   1.424  12.972 -0.1154  0.2030 -0.1754
 6549PP      PP16653  10.600   8.805   0.220  0.0270 -0.1566  0.1679
 6550PP      PP16654  15.525  14.729  12.957 -0.0914 -0.0602 -0.3332
 6551PP      PP16655   2.096  14.353   0.705  0.1778 -0.0780  0.0476
 6552PP      PP16656  10.785  10.648   4.194 -0.1240  0.0424 -0.1567
 6553PP      PP16657  15.029   9.876  10.083 -0.2453 -0.1646 -0.2845
 6554PP      PP16658  15.082   9.640   0.542 -0.3443 -0.3847 -0.0150
 6555PP      PP16659   7.268   6.059   4.402 -0.3813 -0.1465  0.0592
 6556PP      PP16660  10.627   0.874   1.000  0.0679 -0.0849 -0.0173
 6557PP      PP16661   2.682  12.546  11.850  0.0930  0.1621  0.0291
 6558PP      PP16662   3.167   4.989   8.579 -0.1511 -0.1651  0.0498
 6559PP      PP16663  14.507  10.444   4.415  0.1098 -0.0230 -0.2661
 6560PP      PP16664   0.705   1.355   8.471  0.2517 -0.1697  0.3257
 6561PP      PP16665   4.814  10.147   1.880  0.4039 -0.1538  0.1424
 6562PP      PP16666   0.863   2.432  12.124 -0.2954 -0.1056  0.1427
 6563PP      PP16667   8.352   1.950   0.890 -0.0731  0.0229 -0.0179
 6564PP      PP16668   8.552   5.054  11.581  0.3381  0.2092 -0.1977
 6565PP      PP16669   2.789   2.639   3.348  0.1104  0.1534  0.0424
 6566PP      PP16670  13.662   3.039  10.383 -0.1118  0.1177 -0.0255
 6567PP      PP16671   7.708  10.010  12.802  0.1489 -0.1139  0.2276
 6568PP      PP16672   0.446  15.594  11.922 -0.0656 -0.4253  0.0947
 6569PP      PP16673  10.604   1.887  12.466 -0.0986  0.0479 -0.1629
 6570PP      PP16674  13.711   3.210   0.365  0.1140 -0.3612 -0.1994
 6571PP      PP16675   8.077  14.770  10.630 -0.1103 -0.1119  0.1278
 6572PP      PP16676  13.071  11.840   0.925  0.0719  0.0759  0.0680
 6573PP      PP16677  10.726   9.112  12.658 -0.0677  0.2153  0.1949
 6574PP      PP16678   7.853  12.657  13.251  0.1244  0.0747 -0.0267
 6575PP      PP16679  10.513   1.545   2.610 -0.0984 -0.0253  0.2626
 6576PP      PP16680   5.524   4.680   2.591 -0.2903  0.1890 -0.1389
 6577PP      PP16681  15.760  13.488  10.243  0.0674 -0.0960 -0.4680
 6578PP      PP16682  15.659   6.735   4.972  0.1103 -0.2794 -0.3392
 6579PP      PP16683   9.905   3.031   8.941 -0.1272 -0.0487  0.1742
 6580PP      PP16684   1.334  15.053   0.312 -0.0194  0.1376  0.1267
 6581PP      PP16685   7.046   1.608   1.147 -0.1034  0.0497  0.1203
 6582PP      PP16686   0.632  15.460   8.004  0.2571  0.0560 -0.0159
 6583PP      PP16687   2.603   0.545   3.702 -0.2620  0.1134  0.0302
 6584PP      PP16688   6.465   5.077   1.024 -0.1225  0.1774 -0.1006
 6585PP      PP16689   1.524  11.915   3.102 -0.0809 -0.0031  0.0818
 6586PP      PP16690  11.830   1.494   0.527 -0.1016  0.1441  0.1127
 6587PP      PP16691  10.352  12.245   9.632  0.0456  0.2821 -0.3758
 6588PP      PP16692   8.903   1.861  13.288  0.0539 -0.1834  0.3201
 6589PP      PP16693   1.121  12.153   1.554  0.0443  0.0029  0.2039
 6590PP      PP16694   6.825   3.256   8.636  0.4183  0.4006  0.0884
 6591PP      PP16695  15.152   5.500   8.927  0.0850 -0.2310 -0.1360
 6592PP      PP16696  13.255  12.264  10.109  0.2156  0.1871  0.0201
 6593PP      PP16697   8.521   0.762   0.585 -0.1899 -0.0970  0.0314
 6594PP      PP16698   0.050   1.304  12.420 -0.0559  0.1569  0.2842
 6595PP      PP16699   0.533   0.818   8.589 -0.0967 -0.0274  0.1437
 6596PP      PP16700   7.024  11.974   0.527 -0.0716 -0.0668  0.1216
 6597PP      PP16701  15.794  12.109   1.269 -0.0168 -0.1088 -0.1198
 6598PP      PP16702  13.509   4.455   3.742  0.7046  0.0773 -0.0445
 6599PP      PP16703   8.078   6.866   0.467  0.0624  0.3889 -0.0746
 6600PP      PP16704   9.559   4.690  12.429 -0.1456 -0.0347  0.0246
 6601PP      PP16705  15.724   6.486  10.463  0.0700  0.1938 -0.2309
 6602PP      PP16706  14.877  15.133   9.356  0.0519 -0.1955 -0.2024
 6603PP      PP16707  10.040   2.887  12.414  0.1044  0.0071 -0.1241
 6604PP      PP16708   2.598   1.191  11.370  0.1696 -0.1254 -0.3028
 6605PP      PP16709  11.547  11.358   8.693 -0.0804  0.0789 -0.0387
 6606PP      PP16710  14.905   7.257   1.656  0.1330 -0.1013  0.3065
 6607PP      PP16711   8.629   2.086   4.200  0.0164 -0.2989 -0.1040
 6608PP      PP16712   4.904   9.520   3.669  0.0723  0.0287  0.1167
 6609PP      PP16713   8.507   6.444   2.582  0.2776 -0.0379  0.0711
 6610PP      PP16714   9.505   7.826   4.364 -0.1955  0.0602  0.1125
 6611PP      PP16715   1.079   0.396   0.649 -0.0011  0.4102  0.0731
 6612PP      PP16716   3.045   9.619   3.380  0.2895  0.1678  0.0950
 6613PP      PP16717   2.067  12.085  12.696  0.0532 -0.1209 -0.0654
 6614PP      PP16718   0.739   4.907   4.334  0.0377  0.2747  0.0286
 6615PP      PP16719  12.975  15.866  13.108  0.2261  0.1591 -0.0414
 6616PP      PP16720   2.553  15.520  12.264  0.0239 -0.1961  0.2480
 6617PP      PP16721  15.655   4.394   3.088 -0.2162 -0.2744 -0.2029
 6618PP      PP16722   0.667   0.732   0.241  0.0024 -0.4470 -0.2737
 6619PP      PP16723   9.406   0.938   3.129 -0.2768 -0.3405  0.1673
 6620PP      PP16724   8.557   1.028  10.309 -0.0078  0.2135  0.1675
 6621PP      PP16725   1.496   4.194  11.793  0.3961 -0.0079  0.0901
 6622PP      PP16726   1.777   4.329   3.059 -0.0898  0.0044  0.0847
 6623PP      PP16727  11.610   7.887   9.719  0.5001  0.1756 -0.1860
 6624PP      PP16728  14.550   0.882  11.923 -0.2449  0.2990  0.2372
 6625PP      PP16729  12.910   8.725   2.431  0.1442  0.0387 -0.0759
 6626PP      PP16730   1.356   2.786   9.418  0.1201  0.0439 -0.0466
 6627PP      PP16731   6.116  11.245  10.808  0.1753 -0.1208 -0.3250
 6628PP      PP16732  12.619  14.818  12.730  0.0087  0.2204  0.0475
 6629PP      PP16733  11.124  13.165   1.655  0.0928 -0.0541  0.2887
 6630PP      PP16734  14.749   9.377   4.548 -0.1372 -0.2366  0.0876
 6631PP      PP16735   0.114  13.157  12.314  0.0953 -0.1458  0.1941
 6632PP      PP16736   7.671  13.920   2.895  0.0953 -0.1415 -0.2072
 6633PP      PP16737   2.075   6.674  10.935  0.1556  0.1865  0.0152
 6634PP      PP16738   6.780  13.787   0.990 -0.0586  0.0966  0.2614
 6635PP      PP16739   7.843  14.950   0.784 -0.0202  0.0688  0.4332
 6636PP      PP16740   2.413  11.321  11.500  0.0501 -0.1122  0.4606
 6637PP      PP16741   9.926   7.281  13.396  0.0321  0.1463 -0.3136
 6638PP      PP16742   4.251   0.423   2.912 -0.0556  0.1217  0.1253
 6639PP      PP16743  15.691  14.919  10.038 -0.1723  0.0142 -0.0201
 6640PP      PP16744   4.535   0.929   9.841 -0.1913  0.2088 -0.2827
 6641PP      PP16745   7.966   2.941   1.880 -0.1058 -0.0851  0.0649
 6642PP      PP16746  12.683   4.236   2.519 -0.3104  0.2028 -0.0784
 6643PP      PP16747   4.832   2.523  10.922  0.1061 -0.1858  0.0039
 6644PP      PP16748   5.170   6.449  13.224 -0.0148  0.4740 -0.3449
 6645PP      PP16749   5.566  11.825   0.999 -0.2460 -0.1656 -0.1044
 6646PP      PP16750  10.593  12.970  13.276  0.1535  0.0746 -0.2699
 6647PP      PP16751   4.442   9.963   9.461  0.2070 -0.0305 -0.0559
 6648PP      PP16752  11.826   8.832   1.880 -0.1395  0.3219 -0.0516
 6649PP      PP16753  14.195  14.399   1.720 -0.1797 -0.0904  0.1301
 6650PP      PP16754   3.441   2.923  12.243  0.2106 -0.0711  0.1710
 6651PP      PP16755   9.145   2.841  13.233 -0.1010  0.1109  0.1109
 6652PP      PP16756   6.972   6.805   9.515 -0.1442  0.0928  0.1988
 6653PP      PP16757   0.112   8.234   2.989 -0.0503  0.0177 -0.2929
 6654PP      PP16758  12.967  13.574  10.517  0.1122 -0.0742 -0.1140
 6655PP      PP16759   7.642   2.367   4.042 -0.0894 -0.1335  0.1587
 6656PP      PP16760   9.033   6.542   2.394  0.0245  0.0405 -0.2344
 6657PP      PP16761  12.055   5.982   0.875  0.2130 -0.0503 -0.1505
 6658PP      PP16762  11.952   8.473  10.346  0.0520 -0.1840  0.0312
 6659PP      PP16763  13.733   6.794  10.412 -0.0199  0.2070  0.1623
 6660PP      PP16764   4.650   2.237   3.661  0.2743 -0.1954 -0.0339
 6661PP      PP16765  11.806   6.886   2.152  0.0915  0.1905  0.2606
 6662PP      PP16766   6.239  14.761   9.318  0.0917 -0.2389  0.2067
 6663PP      PP16767   5.203   4.700   9.546 -0.2846  0.1670 -0.1001
 6664PP      PP16768   0.917   4.567   3.315  0.1397 -0.2943 -0.0353
 6665PP      PP16769  10.553   1.583   1.399  0.1338  0.1931  0.1921
 6666PP      PP16770   4.904  13.656   2.923  0.0410  0.1428  0.2624
 6667PP      PP16771   2.622   9.585   1.845  0.0928  0.0766 -0.1056
 6668PP      PP16772  15.700  13.367   2.345 -0.1905  0.0113 -0.3316
 6669PP      PP16773   5.227   2.493  12.307  0.0061 -0.4462  0.1170
 6670PP      PP16774   2.278  12.273  11.767  0.0875 -0.0438 -0.0570
 6671PP      PP16775   8.141   0.305   0.366 -0.0998 -0.0769  0.0923
 6672PP      PP16776   3.047  11.093  12.902  0.1790  0.0627  0.2195
 6673PP      PP16777   1.140   8.728   9.243  0.0678 -0.1021 -0.3571
 6674PP      PP16778   1.379  13.119   0.064 -0.2567  0.0224 -0.1272
 6675PP      PP16779  12.941   7.234   3.634 -0.0175  0.1478 -0.3029
 6676PP      PP16780   6.123   9.562   0.885 -0.2677 -0.3927  0.2252
 6677PP      PP16781   1.673   9.371  13.257  0.2006 -0.2086 -0.0879
 6678PP      PP16782   6.369   1.986   1.010 -0.1180  0.2129  0.3240
 6679PP      PP16783   4.859  11.767   8.426 -0.2103 -0.1248 -0.1195
 6680PP      PP16784   2.762   0.517   1.254 -0.0620  0.2118 -0.3452
 6681PP      PP16785  12.107   6.886  11.158  0.2236 -0.1657  0.0786
 6682PP      PP16786   1.552  14.362  12.616  0.1757  0.3898  0.0210
 6683PP      PP16787   8.761  14.144   8.787  0.0735  0.2330 -0.2941
 6684PP      PP16788   8.444  10.685  12.772 -0.1044  0.1299 -0.1823
 6685PP      PP16789   4.833   2.090   1.550  0.3081  0.0844 -0.0125
 6686PP      PP16790   4.215   9.841   2.683 -0.1311 -0.0472 -0.2788
 6687PP      PP16791  12.660   5.860  12.603 -0.0930  0.1604  0.0230
 6688PP      PP16792  10.153   6.023   9.434 -0.4023 -0.1010  0.0088
 6689PP      PP16793  10.179   6.110   3.145  0.2848 -0.0721  0.0895
 6690PP      PP16794  14.654  15.502  12.747  0.1067 -0.0610 -0.0268
 6691PP      PP16795   0.582   0.031   1.030 -0.0294 -0.0712 -0.3517
 6692PP      PP16796   5.875   3.801   4.362  0.1210  0.1751 -0.0947
 6693PP      PP16797   1.606   1.137  10.880 -0.0707  0.0236  0.2789
 6694PP      PP16798   4.492   6.371  11.348 -0.0696 -0.0185 -0.0358
 6695PP      PP16799   1.357  13.539   0.342 -0.0195 -0.0271 -0.0968
 6696PP      PP16800   7.810   4.005   3.226 -0.0410 -0.0231  0.1611
 6697PP      PP16801   2.479   6.144   0.694  0.1548 -0.1027  0.3944
 6698PP      PP16802  13.556   1.530   9.168 -0.3558 -0.2307  0.2733
 6699PP      PP16803  10.020   7.326   4.025  0.1955 -0.0563  0.4869
 6700PP      PP16804   8.075   9.786   4.120  0.3311 -0.2394  0.2883
 6701PP      PP16805   0.712   1.845   2.335  0.2311 -0.0472 -0.1972
 6702PP      PP16806  14.214   2.217   3.016  0.0585  0.5596  0.1708
 6703PP      PP16807   0.866  11.125   2.239 -0.1434  0.0442  0.3331
 6704PP      PP16808   5.256   3.283   0.088 -0.0886 -0.2625 -0.0564
 6705PP      PP16809   8.939  13.263  13.363  0.0871 -0.3212  0.1263
 6706PP      PP16810  13.466   7.518  11.143 -0.0898  0.0597  0.1996
 6707PP      PP16811   1.026   7.590  11.341  0.1986  0.0619 -0.0629
 6708PP      PP16812  14.476   5.377   0.312 -0.0889  0.1439  0.1043
 6709PP      PP16813   9.211  12.307   4.586 -0.1277  0.0091 -0.0831
 6710PP      PP16814  10.381  10.366   1.856  0.5176  0.2161  0.1779
 6711PP      PP16815  13.655  10.858  12.144  0.0466  0.0811 -0.2562
 6712PP      PP16816  14.615   9.123  12.539 -0.0570  0.1405 -0.2397
 6713PP      PP16817  12.942   6.258   4.620  0.2488  0.1631 -0.2196
 6714PP      PP16818   9.864   0.482   4.499  0.3075  0.0711  0.1216
 6715PP      PP16819   3.013   3.303   8.978  0.0695  0.0915 -0.2131
 6716PP      PP16820   6.699   7.300   1.571  0.2404 -0.2783 -0.1447
 6717PP      PP16821  13.701  14.218  13.312  0.2375 -0.0221  0.0144
 6718PP      PP16822   8.423  11.741  11.519 -0.2658 -0.3640 -0.0832
 6719PP      PP16823   0.653  11.309  10.895  0.0263  0.1664  0.1034
 6720PP      PP16824  11.216  10.525  13.075 -0.0535  0.1019  0.1617
 6721PP      PP16825  12.619  12.643   9.693  0.2572 -0.1723 -0.0101
 6722PP      PP16826   3.881   9.664  12.206 -0.2287 -0.1758 -0.0898
 6723PP      PP16827   8.778  14.973   4.517 -0.1209  0.1224  0.0182
 6724PP      PP16828  14.778  10.168  10.413  0.0966 -0.3722  0.0215
 6725PP      PP16829  13.580  13.647   9.012 -0.2327 -0.1188 -0.1095
 6726PP      PP16830   1.134  10.731  11.056 -0.2326  0.0182  0.2286
 6727PP      PP16831   8.722   5.098  10.579  0.0616 -0.0096  0.4905
 6728PP      PP16832  10.114  11.180  12.489  0.0574  0.0821 -0.1644
 6729PP      PP16833  12.861   9.446   3.279  0.3328  0.1539  0.3459
 6730PP      PP16834  13.814   5.699   4.128 -0.1471  0.1172 -0.0542
 6731PP      PP16835   3.156  15.300  11.192 -0.2106  0.0235  0.1419
 6732PP      PP16836   3.169  11.707   1.594 -0.1715  0.0759 -0.3593
 6733PP      PP16837  13.947   5.803  12.951  0.0600  0.0750  0.1150
 6734PP      PP16838  15.524  15.897   9.652 -0.0194 -0.3760 -0.0750
 6735PP      PP16839   5.573   3.027   2.008 -0.4321  0.1635  0.0463
 6736PP      PP16840  10.814   5.333  10.410  0.1301 -0.0218 -0.0885
 6737PP      PP16841  10.074   7.726   3.766 -0.1527  0.1619  0.1345
 6738PP      PP16842  15.132   9.150   4.855  0.1628 -0.3072 -0.1335
 6739PP      PP16843  11.390   0.778   0.124 -0.1302 -0.0271  0.1649
 6740PP      PP16844  11.537  15.265  13.342 -0.0942  0.1456 -0.1915
 6741PP      PP16845   6.431   0.580   2.626  0.0974  0.0829 -0.2490
 6742PP      PP16846  12.346  11.930   0.478  0.1729  0.0313  0.2181
 6743PP      PP16847  15.862   2.550   1.457 -0.0804  0.0665  0.0192
 6744PP      PP16848   0.564   6.820  12.375 -0.1071  0.0069 -0.0498
 6745PP      PP16849  10.892  10.421  11.938  0.0602  0.0557 -0.0926
 6746PP      PP16850   3.322   7.908  11.463 -0.1872 -0.0528 -0.0498
 6747PP      PP16851   1.727  10.289   0.976  0.2404  0.2319 -0.1609
 6748PP      PP16852   6.572   4.235   0.736  0.0898 -0.2848 -0.2165
 6749PP      PP16853   0.999  13.835   2.091  0.3073 -0.0024  0.2285
 6750PP      PP16854  11.654  10.722   1.035 -0.0267 -0.0208  0.0074
 6751PP      PP16855   5.342   8.713   9.209  0.0763  0.0507 -0.2397
 6752PP      PP16856   0.740   1.349   1.251  0.1009 -0.1208  0.0652
 6753PP      PP16857   9.044   8.217  12.263 -0.1828  0.0846  0.1043
 6754PP      PP16858   1.258  15.862   0.685  0.2103 -0.2763  0.2137
 6755PP      PP16859   8.114   4.955  11.296 -0.4600  0.0771 -0.1323
 6756PP      PP16860  12.730   9.329   4.189 -0.0741 -0.1448  0.2393
 6757PP      PP16861   5.636   2.071   9.736  0.0436  0.1375  0.1065
 6758PP      PP16862  13.468  14.145   8.914  0.1908  0.1513 -0.4148
 6759PP      PP16863   7.804  12.962   8.367 -0.0607 -0.1375  0.2266
 6760PP      PP16864   0.873   9.002  12.991  0.2127 -0.1073 -0.0609
 6761PP      PP16865  11.507   0.690   2.289 -0.4301  0.5136  0.2575
 6762PP      PP16866   7.112   8.481  10.488 -0.2138  0.2333  0.1535
 6763PP      PP16867   5.729   4.863  13.289  0.1125  0.0393 -0.3313
 6764PP      PP16868   9.430   4.940  13.144  0.0707  0.0636 -0.1168
 6765PP      PP16869   1.250   0.992  11.706  0.0128 -0.1113  0.2604
 6766PP      PP16870   1.648  15.324  10.280  0.0232 -0.0484  0.0942
 6767PP      PP16871   3.403  14.737  10.039 -0.1191 -0.1732 -0.3249
 6768PP      PP16872  14.184   6.897   2.804 -0.1074  0.1192 -0.0718
 6769PP      PP16873   2.576  11.952   0.253  0.0591 -0.1561  0.0246
 6770PP      PP16874   0.468   3.459  12.357 -0.0324 -0.2544 -0.0928
 6771PP      PP16875  15.938   2.930   0.176  0.1716 -0.2402 -0.0148
 6772PP      PP16876  12.492   7.427   1.612 -0.1358  0.1018  0.2668
 6773PP      PP16877   8.590  12.627  11.504  0.2465 -0.2000 -0.0792
 6774PP      PP16878  11.490  10.585   3.581  0.0630 -0.2519  0.1024
 6775PP      PP16879   6.394  14.272   9.924 -0.0944  0.0984  0.1191
 6776PP      PP16880   9.595  13.731   2.688  0.1035 -0.4254 -0.1242
 6777PP      PP16881  13.554  11.116   1.872 -0.0241  0.0016  0.1071
 6778PP      PP16882   7.364   6.595   2.834  0.0122  0.0158 -0.0215
 6779PP      PP16883   0.131   8.422   9.518 -0.1119  0.1538  0.0869
 6780PP      PP16884  13.902  14.755   1.552  0.1153  0.0922  0.0788
 6781PP      PP16885   1.904  13.496  10.331  0.1395 -0.1602 -0.1692
 6782PP      PP16886  12.962   8.435  10.875  0.2051 -0.0243 -0.1274
 6783PP      PP16887   5.375   6.081  11.529 -0.1831  0.1062 -0.1225
 6784PP      PP16888   0.152  10.455   0.525  0.1598  0.2276 -0.1524
 6785PP      PP16889  14.732   8.103   9.253 -0.1428 -0.1730  0.1382
 6786PP      PP16890   1.136   8.036  10.952 -0.0373 -0.1748  0.1754
 6787PP      PP16891  15.712   4.877   9.497  0.3523  0.2498  0.2540
 6788PP      PP16892  10.777   9.361  10.293 -0.1666 -0.3402  0.2603
 6789PP      PP16893   9.114   2.854  11.773  0.1654 -0.0396  0.1629
 6790PP      PP16894  13.250   7.655  11.579  0.0591 -0.0627  0.1055
 6791PP      PP16895   7.409  14.079  10.263 -0.1021  0.0575 -0.0590
 6792PP      PP16896  11.122  12.158   8.646 -0.2994  0.3662  0.1509
 6793PP      PP16897  14.736   6.707   2.789 -0.0570  0.0057  0.3411
 6794PP      PP16898  10.377   4.557   3.645  0.2579 -0.0969  0.0807
 6795PP      PP16899   0.841   5.597  10.830 -0.3653 -0.0831 -0.0226
 6796PP      PP16900  10.364   6.700   1.993 -0.0100 -0.1862  0.1035
 6797PP      PP16901   6.523   3.080   3.239 -0.2547 -0.1262  0.1942
 6798PP      PP16902   1.567   3.497  11.062 -0.1749  0.3064  0.2210
 6799PP      PP16903  12.194   2.520   3.448 -0.0830 -0.0507  0.0938
 6800PP      PP16904   6.646   3.296   2.257 -0.3700  0.0222 -0.1555
 6801PP      PP16905  14.855   1.162   8.898  0.1357 -0.1646 -0.2420
 6802PP      PP16906  10.987   4.906  12.833  0.2888 -0.0600  0.1997
 6803PP      PP16907  13.989   8.761   4.020  0.1304 -0.0864  0.1044
 6804PP      PP16908  10.126   7.785   0.071 -0.1882  0.1115  0.0657
 6805PP      PP16909  12.664  13.344   2.465 -0.0063  0.1456  0.0806
 6806PP      PP16910   1.036  15.383  13.376 -0.2006 -0.4604  0.0270
 6807PP      PP16911   3.531  12.727   2.106  0.0729  0.0965  0.0189
 6808PP      PP16912   1.714   0.003  12.531 -0.1128  0.1230  0.1596
 6809PP      PP16913   7.373  11.574  11.930  0.2698 -0.1480  0.2241
 6810PP      PP16914   4.266   4.377   9.621  0.0827 -0.0329 -0.1840
 6811PP      PP16915   2.537  12.050   8.999  0.1575 -0.2022  0.1055
 6812PP      PP16916   6.376   2.406  11.284  0.4189  0.2239 -0.1135
 6813PP      PP16917   9.371   7.976  11.170  0.2757  0.0351  0.0824
 6814PP      PP16918  11.066   9.578   9.863 -0.1029  0.2144 -0.0884
 6815PP      PP16919   0.959   9.380  11.852  0.1106 -0.0345 -0.2036
 6816PP      PP16920   4.573   5.153   0.220 -0.0666 -0.1893 -0.1299
 6817PP      PP16921   7.887  10.481   9.896  0.1932  0.3693  0.1179
 6818PP      PP16922   5.929  12.692  10.593  0.0434 -0.1481  0.2125
 6819PP      PP16923   4.872  15.098   8.722 -0.1053 -0.1373  0.0668
 6820PP      PP16924  10.281   1.017   3.710  0.1904 -0.3067 -0.3769
 6821PP      PP16925  15.868  15.587   7.932 -0.2995 -0.3209 -0.1210
 6822PP      PP16926   5.237  12.285   2.202  0.1817 -0.1838  0.1287
 6823PP      PP16927   5.824  11.602  13.189  0.2389 -0.0407  0.1488
 6824PP      PP16928   3.376  10.906   4.162  0.1177  0.0072 -0.2493
 6825PP      PP16929  14.016   9.583   0.737  0.2879  0.1397 -0.2385
 6826PP      PP16930   7.778  14.890   3.480 -0.0061  0.0942  0.0438
 6827PP      PP16931   4.143  14.322  10.979 -0.0996 -0.0077  0.3099
 6828PP      PP16932  14.979  14.195  11.302 -0.1888  0.2408  0.2920
 6829PP      PP16933  13.624   3.848  12.202 -0.1481 -0.2072  0.0964
 6830PP      PP16934  10.523   5.437   1.203  0.0787  0.1901  0.0802
 6831PP      PP16935  13.780  12.224   1.989  0.0784  0.0254 -0.1460
 6832PP      PP16936   6.162   6.449  12.279 -0.0444 -0.0812  0.1354
 6833PP      PP16937  10.842   9.278   8.871 -0.1413  0.0704 -0.0362
 6834PP      PP16938   1.051  13.174  12.057 -0.1823  0.0215  0.0055
 6835PP      PP16939   0.691  11.990  10.510 -0.1043 -0.0517  0.1309
 6836PP      PP16940  13.679   3.962  11.705 -0.1092 -0.1311  0.0564
 6837PP      PP16941  11.851   4.136   1.980  0.0527 -0.3761 -0.1565
 6838PP      PP16942  12.779   7.693  11.781 -0.1392  0.0359 -0.0908
 6839PP      PP16943  10.327  12.486   0.402 -0.0059 -0.4130  0.2817
 6840PP      PP16944   1.724   0.808   2.930 -0.2890  0.2892 -0.2320
 6841PP      PP16945  14.355  13.507  10.797 -0.0370 -0.0653  0.4209
 6842PP      PP16946  15.428  12.158   1.772  0.0670 -0.0663 -0.1834
 6843PP      PP16947  10.498  11.324   0.256 -0.0462  0.0241  0.0117
 6844PP      PP16948  15.651   9.013   3.472  0.0576 -0.0367  0.0238
 6845PP      PP16949   8.724   4.620   2.973 -0.2021 -0.0169 -0.1805
 6846PP      PP16950   3.586   3.951   2.868  0.0670 -0.2838 -0.2882
 6847PP      PP16951   0.253   3.979  10.487  0.0400  0.0157 -0.2047
 6848PP      PP16952   9.537   9.448   8.858  0.1475  0.1616  0.2970
 6849PP      PP16953   3.910   3.104   3.407 -0.0895 -0.1107  0.2350
 6850PP      PP16954   8.598   7.379   4.179  0.2209 -0.1729  0.1987
 6851PP      PP16955   3.719   9.218  10.314 -0.0313 -0.0928  0.1070
 6852PP      PP16956  10.310   8.679   2.949  0.2306  0.1828  0.1112
 6853PP      PP16957   4.131   0.083  11.802  0.0208 -0.4698  0.3233
 6854PP      PP16958  11.996   5.388  11.917  0.2380  0.2942  0.0754
 6855PP      PP16959   0.863   6.105  10.626  0.0774  0.2353 -0.0363
 6856PP      PP16960   4.662   6.866  11.332  0.0287 -0.0165  0.1313
 6857PP      PP16961  15.156   7.103  13.240  0.0049 -0.0468  0.0692
 6858PP      PP16962  12.312   4.101   9.309 -0.0726 -0.0763 -0.2138
 6859PP      PP16963  11.076  11.899  11.867 -0.0099  0.0418 -0.1273
 6860PP      PP16964   3.200   7.462   3.030  0.0128  0.1808 -0.0910
 6861PP      PP16965  10.548  12.045  10.121  0.0735  0.1766 -0.3307
 6862PP      PP16966   7.646   6.720   1.585 -0.0625 -0.0407 -0.0626
 6863PP      PP16967   9.006   9.511   3.171 -0.0848 -0.1285 -0.0976
 6864PP      PP16968  10.876   4.211  10.988 -0.0351  0.1545  0.2728
 6865PP      PP16969   8.866   3.381   1.647  0.1222  0.0632  0.0909
 6866PP      PP16970   1.702  11.380   3.103 -0.3616  0.0417 -0.2401
 6867PP      PP16971   7.251  15.313  10.232 -0.1275 -0.1195  0.1663
 6868PP      PP16972  13.841   8.882   2.447  0.1678 -0.0148 -0.1142
 6869PP      PP16973  12.068   6.561  12.633  0.0222  0.2788  0.0245
 6870PP      PP16974   7.917  13.001   0.925 -0.0059  0.2414  0.0193
 6871PP      PP16975   4.643   1.313  12.090  0.3792  0.0148 -0.5309
 6872PP      PP16976   9.092   6.164   3.814 -0.1648  0.0459  0.1299
 6873PP      PP16977  12.873   9.100  11.982 -0.0008  0.0641 -0.3770
 6874PP      PP16978   2.527   7.406  11.265 -0.0404  0.1392  0.2197
 6875PP      PP16979   0.921  13.618   0.712 -0.0286  0.0476  0.1393
 6876PP      PP16980  12.000  15.453   1.879  0.0848 -0.0426  0.0121
 6877PP      PP16981   5.436   0.272  10.789  0.0918  0.1646 -0.1827
 6878PP      PP16982  13.970   4.464   2.808  0.4058  0.1144 -0.2275
 6879PP      PP16983  13.679  13.365   3.343 -0.0469  0.1482  0.0757
 6880PP      PP16984   8.222   9.658   1.200 -0.2316  0.0900  0.2984
 6881PP      PP16985  11.044  15.578   0.857 -0.0884 -0.1909 -0.2715
 6882PP      PP16986  14.248  12.893  11.971  0.1031 -0.0732  0.1759
 6883PP      PP16987   8.289   5.151   3.742 -0.1776  0.0449  0.0104
 6884PP      PP16988  11.043  12.419  12.062  0.0917  0.0515 -0.1170
 6885PP      PP16989   5.946   9.469  10.087  0.0649  0.2803 -0.0037
 6886PP      PP16990   3.658   2.206   8.929 -0.2890  0.3442 -0.1619
 6887PP      PP16991  12.433   3.655   8.757 -0.0374 -0.0390 -0.0395
 6888PP      PP16992   2.854   5.942   2.965  0.1322  0.1307  0.1047
 6889PP      PP16993  15.505  11.278   2.152  0.0037 -0.0593  0.3310
 6890PP      PP16994   6.393  12.513   2.623  0.2235  0.2980 -0.2962
 6891PP      PP16995  10.051   3.611   9.425 -0.1700  0.1080  0.5027
 6892PP      PP16996   9.652   8.709   2.251 -0.0261  0.0509  0.0913
 6893PP      PP16997   9.749   9.602  11.242  0.4631 -0.0116 -0.1808
 6894PP      PP16998   8.750   1.700   1.340 -0.1172 -0.0969 -0.0186
 6895PP      PP16999   2.026  11.845   3.119  0.1456 -0.3641 -0.0344
 6896PP      PP17000   0.030  14.568   8.388  0.1975 -0.0866  0.1699
 6897PP      PP17001  14.474  12.211  12.783 -0.3439 -0.4286  0.0580
 6898PP      PP17002   2.011   0.556   2.088 -0.2381  0.2046  0.2916
 6899PP      PP17003   7.318   6.563   9.845  0.2111 -0.2767 -0.1666
 6900PP      PP17004   8.512  13.793   3.133  0.0455  0.0830 -0.3063
 6901PP      PP17005  11.903  12.623  12.657 -0.2151 -0.2563  0.0948
 6902PP      PP17006  12.012   3.647   4.639  0.1157 -0.0995 -0.2075
 6903PP      PP17007  11.255  13.210   9.313  0.1049  0.0765  0.1218
 6904PP      PP17008  10.417   6.202   2.118  0.0053  0.2011  0.0528
 6905PP      PP17009   4.062   4.925  10.261  0.2224  0.1549  0.2286
 6906PP      PP17010  11.165  12.405  11.498  0.2926 -0.0697  0.0500
 6907PP      PP17011   6.481   0.684  11.769  0.2350  0.0821 -0.0238
 6908PP      PP17012   9.422  11.771   0.096 -0.2003  0.0161  0.2142
 6909PP      PP17013   3.923   1.242   3.310  0.2311 -0.0551  0.0380
 6910PP      PP17014  14.599   4.527   9.075  0.3302  0.3096  0.0208
 6911PP      PP17015   4.543  14.101   8.590 -0.2520  0.0393 -0.0077
 6912PP      PP17016  12.872  15.649  10.385 -0.0881  0.1207 -0.2442
 6913PP      PP17017   2.705   9.167  11.874 -0.0403 -0.1572 -0.1375
 6914PP      PP17018   0.205   8.136   4.021  0.1795 -0.2530  0.1117
 6915PP      PP17019   4.270   6.784   0.845  0.1811 -0.1878 -0.0868
 6916PP      PP17020   4.477   5.884   0.022 -0.4423 -0.0263 -0.2014
 6917PP      PP17021   5.525   2.238   0.290  0.1061 -0.0954  0.0263
 6918PP      PP17022   4.011   2.268  10.244  0.1633 -0.0702  0.0647
 6919PP      PP17023   1.429  12.066  10.787 -0.3121 -0.2595 -0.3021
 6920PP      PP17024   8.096   9.402  10.327  0.0256  0.2494  0.3123
 6921PP      PP17025  13.491   2.154  11.258 -0.3532 -0.1267  0.4511
 6922PP      PP17026  13.366  10.186   3.375  0.4155 -0.1435 -0.0686
 6923PP      PP17027  14.415   1.658   0.326  0.1336  0.3607  0.1025
 6924PP      PP17028   1.706  15.091   9.269 -0.0337  0.0843 -0.2067
 6925PP      PP17029  11.548   5.032   2.497 -0.3355  0.0358  0.1435
 6926PP      PP17030  11.496  14.385   0.324  0.1847  0.1515 -0.0101
 6927PP      PP17031   0.831   9.918  11.281 -0.4000 -0.1827  0.2593
 6928PP      PP17032   5.655  15.256   0.051  0.0347  0.0607  0.2479
 6929PP      PP17033   1.839  11.070  10.102  0.2043  0.0264 -0.1785
 6930PP      PP17034  10.473  14.017  10.422  0.1825 -0.3837  0.0650
 6931PP      PP17035  15.525  10.188  12.899  0.2244  0.1356 -0.1704
 6932PP      PP17036   7.895   4.611   9.959 -0.1313  0.0730  0.0409
 6933PP      PP17037  14.171   8.987   2.109  0.1504 -0.1633  0.1343
 6934PP      PP17038  14.581   0.397   0.950  0.1293  0.3758  0.0606
 6935PP      PP17039   5.144   6.373   0.418 -0.0864 -0.0561 -0.2126
 6936PP      PP17040   2.166   3.169   9.163  0.1547  0.1860  0.1164
 6937PP      PP17041  10.537   4.082   1.987  0.2955 -0.0839 -0.1421
 6938PP      PP17042  10.804   6.302   1.126 -0.0617  0.2167 -0.1426
 6939PP      PP17043  12.556  15.688   1.030  0.0369  0.0231  0.0623
 6940PP      PP17044  12.362  11.420  10.547 -0.4723  0.1381  0.2006
 6941PP      PP17045   5.505   1.269  12.392  0.2176  0.5569  0.5170
 6942PP      PP17046  14.664   4.454  11.116  0.1092 -0.2238 -0.1592
 6943PP      PP17047  12.408   9.103   1.658 -0.4092 -0.0063 -0.2751
 6944PP      PP17048   2.368   7.115  12.296 -0.0892 -0.2186  0.0558
 6945PP      PP17049   1.927  10.604  12.528  0.1001 -0.3349  0.1655
 6946PP      PP17050   1.397  12.606   9.180  0.0569  0.0394  0.2044
 6947PP      PP17051  13.484   3.105  11.003 -0.2530 -0.1548 -0.1533
 6948PP      PP17052   7.215   2.475  11.592 -0.3396 -0.3321 -0.0363
 6949PP      PP17053   8.120   8.573   1.641  0.3896  0.0819 -0.0626
 6950PP      PP17054   6.459   6.711  12.649 -0.1418  0.2732  0.0906
 6951PP      PP17055   6.417   9.737  12.840  0.2312 -0.0669  0.1938
 6952PP      PP17056   6.930  12.097   1.107 -0.0235  0.1663  0.0687
 6953PP      PP17057   1.553   8.002  12.252 -0.3090 -0.2618  0.1523
 6954PP      PP17058   1.233   9.005   0.973 -0.0514  0.0249 -0.2458
 6955PP      PP17059   6.294   7.594  11.554 -0.1348  0.0489  0.0826
 6956PP      PP17060   4.328   3.400  11.189  0.2366  0.2594 -0.3522
 6957PP      PP17061  10.063  12.188  10.552  0.1789  0.0513  0.0865
 6958PP      PP17062   4.857   9.120   1.969  0.1962 -0.0384  0.0119
 6959PP      PP17063   2.236   7.792   3.637  0.0807  0.0757 -0.0529
 6960PP      PP17064  14.933   8.580   0.481  0.1795  0.4168  0.0625
 6961PP      PP17065  14.138   3.616   2.290 -0.0052  0.3429 -0.0267
 6962PP      PP17066   9.934   8.438   3.790 -0.1013 -0.1430  0.0580
 6963PP      PP17067   8.610  10.620   3.892 -0.2988  0.1762 -0.1634
 6964PP      PP17068  14.628   2.988   0.499  0.0765 -0.1974 -0.4049
 6965PP      PP17069   5.604  14.606   8.028 -0.0728 -0.1324  0.3161
 6966PP      PP17070   4.588  12.258   9.756  0.0939  0.0848  0.1225
 6967PP      PP17071  15.657   6.193   1.790 -0.0952 -0.2787  0.1445
 6968PP      PP17072  13.179  14.554  11.004 -0.1844 -0.1321 -0.1018
 6969PP      PP17073   1.972  14.415  10.296 -0.0505 -0.0519 -0.0665
 6970PP      PP17074   4.509   6.336  12.702  0.0103 -0.0625 -0.2817
 6971PP      PP17075  12.342  10.318   2.452  0.2327 -0.1144  0.0859
 6972PP      PP17076   7.893   7.279  12.330  0.0557  0.1546  0.2695
 6973PP      PP17077   8.838   3.351   1.067  0.2823 -0.4053 -0.1407
 6974PP      PP17078  11.950   2.310  12.984  0.0135  0.3970  0.0557
 6975PP      PP17079   2.703   4.101   0.028 -0.0484  0.0361 -0.0057
 6976PP      PP17080   8.364   8.757  12.417  0.0359  0.1953  0.1174
 6977PP      PP17081   5.024   8.069   3.380  0.0434  0.1033  0.2396
 6978PP      PP17082   0.233   7.920   9.467 -0.3393 -0.1957 -0.3207
 6979PP      PP17083   8.122   1.297  11.528 -0.1877  0.3304 -0.2097
 6980PP      PP17084   6.931  11.181   0.789  0.2046  0.0394  0.4744
 6981PP      PP17085   3.822   4.905   8.843  0.1113 -0.0551  0.1205
 6982PP      PP17086  13.698   6.341   9.401 -0.0856 -0.0079  0.2215
 6983PP      PP17087  15.922   1.800  12.596 -0.0430 -0.0185  0.0206
 6984PP      PP17088   5.099   3.863  10.026  0.0899  0.0905 -0.0552
 6985PP      PP17089   5.751   4.538   3.385  0.0675  0.2805  0.5207
 6986PP      PP17090   0.321   8.360  12.474  0.1999 -0.2693  0.0987
 6987PP      PP17091   0.369   6.468   4.197 -0.2028 -0.0920  0.2599
 6988PP      PP17092  11.644  13.677   3.772 -0.0134  0.1219 -0.1680
 6989PP      PP17093   6.217   8.913   1.186 -0.2859  0.0849 -0.2797
 6990PP      PP17094  12.757  13.854   2.705 -0.0551 -0.0351 -0.0351
 6991PP      PP17095   7.607   8.659   5.017 -0.2521  0.1219 -0.1192
 6992PP      PP17096   2.783   1.321  10.849 -0.2061  0.2697  0.3533
 6993PP      PP17097   3.570   5.380   0.831 -0.0553  0.1543  0.1507
 6994PP      PP17098   9.532   4.170   0.659  0.2452 -0.0359 -0.1220
 6995PP      PP17099  13.151   3.805   9.887 -0.0728  0.2398  0.0592
 6996PP      PP17100  12.498   7.472  10.629 -0.3079  0.1403 -0.0140
 6997PP      PP17101   8.506  10.382  10.183 -0.0943  0.0710 -0.0670
 6998PP      PP17102   1.651  12.303  11.279  0.1865 -0.2342  0.1495
 6999PP      PP17103   6.793  13.812   3.291  0.0162  0.2241  0.0600
 7000PP      PP17104   4.482  13.259  10.769 -0.1338 -0.0083  0.2038
 7001PP      PP17105   4.448   5.926  11.034  0.1133  0.0042 -0.0651
 7002PP      PP17106  11.938   4.073   3.099 -0.1422 -0.1075  0.0970
 7003PP      PP17107  14.822  10.359   1.122  0.2420  0.3166  0.1247
 7004PP      PP17108  15.161   5.777   2.950  0.2690  0.0340 -0.2100
 7005PP      PP17109   0.426   5.903   2.289 -0.3368 -0.3241 -0.2604
 7006PP      PP17110  14.425  13.552   4.201 -0.2805 -0.0406 -0.0353
 7007PP      PP17111  14.803   8.543  13.285 -0.0470  0.3069 -0.1919
 7008PP      PP17112   4.532   9.732   3.156 -0.0462 -0.1337  0.1007
 7009PP      PP17113   9.066   6.032   2.493  0.2138  0.2687  0.0358
 7010PP      PP17114   4.743   6.801   4.180  0.1504 -0.0240  0.0352
 7011PP      PP17115  14.599  10.556  12.865  0.3051 -0.0053 -0.0944
 7012PP      PP17116   1.285   4.755   0.671 -0.2223  0.1643 -0.2108
 7013PP      PP17117   4.699   5.915  11.499  0.2172  0.0306 -0.0835
 7014PP      PP17118   6.158  13.177  12.387  0.1878  0.1031  0.2213
 7015PP      PP17119   6.277   3.617  11.507 -0.0970  0.0705 -0.2005
 7016PP      PP17120   7.158   1.677   0.321 -0.1597  0.2223  0.2538
 7017PP      PP17121   2.646   0.446   9.782  0.0289  0.0618 -0.0701
 7018PP      PP17122  14.181  10.557   9.592 -0.1010 -0.1101 -0.1507
 7019PP      PP17123  10.357  11.830   3.321  0.2874 -0.0846 -0.1165
 7020PP      PP17124  15.363   6.931  10.611  0.0331 -0.4464  0.1369
 7021PP      PP17125   3.142   1.782  10.942  0.0921  0.0613 -0.5360
 7022PP      PP17126  11.490   7.661   4.006 -0.0818  0.2228 -0.0215
 7023PP      PP17127  13.854   5.990   3.651  0.1832  0.0550 -0.1794
 7024PP      PP17128  12.117   1.942   1.432  0.1099  0.0625  0.1944
 7025PP      PP17129  12.192  11.521   7.993 -0.0073 -0.3574  0.1230
 7026PP      PP17130  13.047  15.776   2.651  0.2505  0.1708  0.2636
 7027PP      PP17131   7.508   3.172   0.693  0.2864  0.0836 -0.0126
 7028PP      PP17132   7.419   1.141  12.131  0.1734  0.0296 -0.1062
 7029PP      PP17133   0.440   5.057   3.898  0.1785 -0.0750  0.1083
 7030PP      PP17134   5.347  14.829   1.414 -0.1190 -0.2790 -0.0728
 7031PP      PP17135   7.829   7.279   3.254  0.1971  0.0943 -0.1165
 7032PP      PP17136   3.621   1.583   3.311  0.0250  0.1643  0.0873
 7033PP      PP17137   3.966   1.019   0.820  0.1312  0.1274  0.2352
 7034PP      PP17138   9.562   1.673   0.293  0.1121  0.0651 -0.1428
 7035PP      PP17139  15.227   9.919   3.901  0.0010  0.0595 -0.1688
 7036PP      PP17140   4.037   5.291   3.668 -0.2347  0.2936 -0.2227
 7037PP      PP17141   6.987  12.986  12.041 -0.1870 -0.1089  0.1118
 7038PP      PP17142   8.406  15.195   9.134  0.2615  0.1479  0.2610
 7039PP      PP17143  10.836  10.505   9.653 -0.0692 -0.0907 -0.2442
 7040PP      PP17144   8.453  15.272  11.238  0.3532  0.0186  0.3278
 7041PP      PP17145  13.805  15.838   1.568  0.1197 -0.0180 -0.1288
 7042PP      PP17146   5.395   4.443  10.672 -0.1526 -0.0369  0.2078
 7043PP      PP17147   2.708   1.087   1.525  0.0763  0.1794  0.2698
 7044PP      PP17148  12.589   2.880  12.824 -0.0669 -0.1749 -0.0742
 7045PP      PP17149   9.161   9.899  10.455 -0.1347  0.1372  0.1257
 7046PP      PP17150   7.462   4.579   1.034 -0.0184 -0.2434 -0.0067
 7047PP      PP17151   9.054   6.498  11.062  0.3024 -0.1612  0.4087
 7048PP      PP17152   8.756   1.611   2.717 -0.2752  0.2424  0.1519
 7049PP      PP17153   7.914  12.540  10.076  0.1954  0.0224 -0.2072
 7050PP      PP17154   5.667   5.712   1.045  0.0911 -0.1023 -0.2731
 7051PP      PP17155  11.402  13.985   9.151  0.0357  0.0446 -0.1498
 7052PP      PP17156   9.294   1.714   2.544  0.0375 -0.2149 -0.0075
 7053PP      PP17157   5.826   9.889  12.122 -0.0524  0.1041 -0.2348
 7054PP      PP17158  11.808   0.741   1.716  0.1685  0.1105 -0.4188
 7055PP      PP17159  14.897  14.511   8.870  0.1649  0.1062 -0.1516
 7056PP      PP17160   9.509  14.820  12.913  0.0471 -0.1279 -0.3538
 7057PP      PP17161   5.656  13.876   1.737  0.2128  0.1924 -0.0572
 7058PP      PP17162   4.418   6.197   8.780  0.0670  0.2947  0.0056
 7059PP      PP17163   1.825   6.092   1.977  0.1698  0.2577  0.0068
 7060PP      PP17164   5.137   8.509  12.609  0.1409  0.1279 -0.1842
 7061PP      PP17165   1.495   4.588  11.504 -0.2226  0.1674 -0.5020
 7062PP      PP17166   7.520  15.495   4.332  0.3590 -0.2973  0.0181
 7063PP      PP17167   9.192   2.949   9.345  0.0063  0.3539 -0.2839
 7064PP      PP17168  11.785   0.986   9.231  0.0529  0.1010  0.1239
 7065PP      PP17169  15.232  11.871   9.676 -0.0259  0.1353 -0.0751
 7066PP      PP17170   7.037  15.204   2.058  0.0440  0.1122  0.0969
 7067PP      PP17171  10.775  11.721  12.327  0.0875 -0.3783 -0.1152
 7068PP      PP17172   3.067   7.087   4.723  0.0818 -0.2639 -0.1230
 7069PP      PP17173   2.173   4.984  10.239  0.2043 -0.1894 -0.2324
 7070PP      PP17174   6.079  10.020   8.794  0.0674  0.1899 -0.1225
 7071PP      PP17175   5.018   5.516   1.566  0.0878  0.1483  0.0221
 7072PP      PP17176   5.112   9.140   9.208  0.0268 -0.0233 -0.0951
 7073PP      PP17177  15.564   7.948   2.735 -0.0471  0.1367 -0.0315
 7074PP      PP17178   4.311  13.160  11.748 -0.0602  0.2394 -0.2088
 7075PP      PP17179  14.411   2.499   8.130 -0.1328 -0.3040  0.3416
 7076PP      PP17180   8.588  11.113  11.580 -0.1044 -0.1282 -0.2762
 7077PP      PP17181  11.321   7.576  10.430  0.1237 -0.0940 -0.1658
 7078PP      PP17182  13.260   3.597   9.370 -0.2341  0.2779  0.0914
 7079PP      PP17183   5.526  10.967  10.605 -0.0752 -0.0529 -0.3282
 7080PP      PP17184  12.306  12.248   8.659  0.3972 -0.1002 -0.2311
 7081PP      PP17185   5.573   6.644  11.620 -0.0498 -0.2075 -0.5143
 7082PP      PP17186  15.480   1.611   8.593  0.1522 -0.1113  0.0414
 7083PP      PP17187   4.417   8.307   1.292  0.1087  0.0576  0.0475
 7084PP      PP17188   5.723   5.782   3.893 -0.2491  0.1020  0.4218
 7085PP      PP17189  10.962   9.320   0.500  0.1183  0.0184 -0.2081
 7086PP      PP17190   6.623   5.536   3.953 -0.2763 -0.0044 -0.1625
 7087PP      PP17191   8.348  10.361  11.475 -0.2255 -0.1193  0.1080
 7088PP      PP17192  13.045  10.427   0.539  0.0255 -0.1504 -0.3307
 7089PP      PP17193   5.962  12.025   0.018 -0.0066 -0.1058  0.0767
 7090PP      PP17194   6.149  10.210   0.258  0.1895 -0.0714 -0.0637
 7091PP      PP17195   1.785  12.637   8.400 -0.1697 -0.0625 -0.0827
 7092PP      PP17196  14.990   7.258  12.744  0.2107 -0.0328 -0.2516
 7093PP      PP17197   6.890   1.207   9.519  0.2078 -0.0624 -0.1349
 7094PP      PP17198   0.372  13.496   0.802  0.3843 -0.0954  0.0253
 7095PP      PP17199   6.192   0.434   3.232 -0.0012  0.1420  0.0744
 7096PP      PP17200   7.009  14.211  11.213  0.0694  0.1231  0.0619
 7097PP      PP17201   8.878  12.026   0.852  0.1750 -0.3489 -0.0759
 7098PP      PP17202   7.220   3.137  10.537 -0.4487 -0.1117  0.1253
 7099PP      PP17203  10.149   3.453   1.213 -0.1665 -0.0871 -0.2488
 7100PP      PP17204   0.940   3.212  12.594  0.4693 -0.0243 -0.1582
 7101PP      PP17205   4.171   5.203  12.734 -0.2176 -0.2871 -0.1742
 7102PP      PP17206  10.059   2.878  11.235  0.0928 -0.0059  0.3012
 7103PP      PP17207   6.071  11.180  11.316  0.0162  0.0197  0.0356
 7104PP      PP17208   0.696   6.301   9.340 -0.0498 -0.0450  0.0731
 7105PP      PP17209   3.343  12.312   1.321 -0.1436 -0.2859 -0.1453
 7106PP      PP17210  12.648  11.870  12.668 -0.1058  0.0724 -0.1162
 7107PP      PP17211   1.462  13.950   2.316 -0.0981 -0.2951  0.1485
 7108PP      PP17212   8.860   1.392   1.728  0.0754  0.3134  0.1257
 7109PP      PP17213   4.486  14.115   2.160 -0.1305  0.0291  0.3278
 7110PP      PP17214  15.365   1.107   8.567 -0.0440  0.1961  0.1419
 7111PP      PP17215  14.640   2.219   0.936  0.1889 -0.0028  0.0623
 7112PP      PP17216  13.279   7.133   2.266  0.1863  0.0351 -0.1063
 7113PP      PP17217  12.113  12.405  12.188  0.0778  0.0906 -0.1652
 7114PP      PP17218   6.291  13.680   9.694  0.3910 -0.0782  0.0571
 7115PP      PP17219   3.399   5.858   4.035 -0.0258 -0.0929 -0.1435
 7116PP      PP17220   2.909  13.425  10.133 -0.1391 -0.3758 -0.3153
 7117PP      PP17221   3.993   4.677  12.150  0.2058 -0.0241 -0.0971
 7118PP      PP17222  10.762   0.602   9.771 -0.0951 -0.2027 -0.0345
 7119PP      PP17223  12.010  14.153   3.063  0.1297 -0.2722 -0.1315
 7120PP      PP17224   9.385  13.813   0.921 -0.0528  0.0019  0.0251
 7121PP      PP17225  12.499  13.896  12.414  0.1654 -0.3492 -0.3439
 7122PP      PP17226   2.459   3.495   2.175 -0.0188  0.2523 -0.2059
 7123PP      PP17227   8.658   0.199  12.749 -0.0308  0.0116 -0.0134
 7124PP      PP17228   3.545   8.568   2.098 -0.0473 -0.1129  0.1745
 7125PP      PP17229  13.712   3.561   3.041  0.2121  0.2986 -0.1922
 7126PP      PP17230  11.556   6.920  11.586 -0.0195 -0.2918 -0.2456
 7127PP      PP17231   0.624   5.859   4.122 -0.1763  0.1063 -0.1467
 7128PP      PP17232   5.258   5.782  10.961 -0.0744  0.0486  0.1076
 7129PP      PP17233   0.115  13.748   0.048 -0.2283 -0.3806  0.1366
 7130PP      PP17234  14.886  12.046  10.753  0.1376 -0.1777 -0.0441
 7131PP      PP17235   4.403   1.173  11.482 -0.0007 -0.0596  0.0263
 7132PP      PP17236  10.692  15.483   4.725 -0.1436 -0.1400 -0.3225
 7133PP      PP17237   7.481   9.573   2.343  0.0051 -0.0426 -0.1028
 7134PP      PP17238   6.923  12.952   0.650  0.2041 -0.0116 -0.1130
 7135PP      PP17239   8.355   5.514  12.308  0.3335 -0.2839 -0.0643
 7136PP      PP17240   8.253   6.374   4.354  0.2835  0.0045 -0.2752
 7137PP      PP17241  13.884   7.276  10.423 -0.2166 -0.1990 -0.1293
 7138PP      PP17242  10.014  14.381  12.269 -0.1867  0.4065  0.0979
 7139PP      PP17243  11.155   0.746  10.406 -0.3593 -0.2350 -0.0755
 7140PP      PP17244   4.395   8.803   3.203 -0.0014 -0.0530 -0.1611
 7141PP      PP17245   8.375   4.138   0.677 -0.3198  0.1540 -0.1400
 7142PP      PP17246  11.078  12.899  13.323  0.0775  0.3106  0.0849
 7143PP      PP17247   1.904  11.151   4.025 -0.1860  0.1905  0.3191
 7144PP      PP17248   3.380  14.077   3.727 -0.1947  0.0315 -0.1914
 7145PP      PP17249   1.700  14.314   3.117 -0.1432  0.2002 -0.3753
 7146PP      PP17250  12.616  10.718  11.906 -0.0431 -0.2489  0.0910
 7147PP      PP17251   6.080  14.752   2.493  0.0624 -0.3055 -0.1196
 7148PP      PP17252   2.259   3.420   0.070 -0.1945 -0.2362  0.1448
 7149PP      PP17253   5.141  13.231   4.326 -0.1778 -0.0986 -0.1777
 7150PP      PP17254  15.547   5.465  10.604 -0.1492  0.1584 -0.2111
 7151PP      PP17255   7.282   3.663   0.563  0.1387 -0.0858  0.3497
 7152PP      PP17256   4.934   8.687  12.141  0.2509  0.1330 -0.1441
 7153PP      PP17257   2.160  15.787   2.311 -0.1703  0.0672  0.1839
 7154PP      PP17258   8.540   8.531   9.555 -0.5185 -0.0667 -0.0759
 7155PP      PP17259   5.281   8.129   0.211 -0.0593 -0.5852 -0.1607
 7156PP      PP17260   5.392   4.296  11.973  0.0625  0.1712  0.2581
 7157PP      PP17261   7.065  15.234   2.930 -0.6259  0.1941 -0.1379
 7158PP      PP17262   4.656   8.821  12.498 -0.3757 -0.3892 -0.0724
 7159PP      PP17263   3.220  14.492  11.927  0.0848 -0.3070  0.4119
 7160PP      PP17264   0.114   9.127  11.487  0.1417 -0.1829  0.1847
 7161PP      PP17265  15.062  13.348   9.919  0.0669  0.1912  0.1412
 7162PP      PP17266   5.953   6.370   4.614 -0.0864  0.1362 -0.0384
 7163PP      PP17267   4.399  15.308  10.287  0.2095 -0.0325 -0.1327
 7164PP      PP17268   4.785   2.072   0.894 -0.0432  0.0030  0.1872
 7165PP      PP17269   4.591  11.446   9.998 -0.1593 -0.1922 -0.0498
 7166PP      PP17270   9.725   5.141   9.793 -0.2797  0.1654 -0.0611
 7167PP      PP17271   1.898   6.588   4.182  0.2317 -0.0263 -0.0807
 7168PP      PP17272  10.184   5.797   2.551  0.0816 -0.4918 -0.1597
 7169PP      PP17273   6.216  13.836  10.173  0.0354 -0.1107 -0.2492
 7170PP      PP17274   3.578   0.602  10.723  0.0597 -0.0106 -0.0002
 7171PP      PP17275  11.666   3.673   1.438 -0.0291  0.3495  0.0420
 7172PP      PP17276  10.487  12.816   9.878 -0.2585  0.2697 -0.1537
 7173PP      PP17277   7.805  10.744   9.465  0.2032 -0.1753  0.3015
 7174PP      PP17278   4.126   0.150  12.852 -0.1865  0.2895 -0.1975
 7175PP      PP17279   0.466   2.140  11.326 -0.1993  0.3075  0.1389
 7176PP      PP17280   1.536  15.325   8.873 -0.0988  0.2527  0.3974
 7177PP      PP17281  15.729   8.101   9.216 -0.0895 -0.4256  0.1180
 7178PP      PP17282  11.808   7.829  11.367 -0.0526 -0.1080  0.0868
 7179PP      PP17283   6.261   7.037   1.698  0.2450 -0.1129  0.1977
 7180PP      PP17284   2.870  12.097  11.596 -0.0116 -0.1729 -0.2657
 7181PP      PP17285  13.624   9.848   2.973 -0.1161  0.4626  0.2409
 7182PP      PP17286  12.119   1.634  12.093 -0.2056  0.1134  0.2035
 7183PP      PP17287  11.795  15.018   9.981 -0.4396 -0.2292 -0.0351
 7184PP      PP17288  11.783   3.140   9.766  0.0267  0.2745 -0.4901
 7185PP      PP17289   8.244   5.082  10.536  0.2020 -0.1081  0.1762
 7186PP      PP17290   4.586   3.036   9.167 -0.1503 -0.2667  0.2247
 7187PP      PP17291   8.834  11.278  11.990  0.0229 -0.1481 -0.1200
 7188PP      PP17292   5.906  13.707  12.836 -0.2716 -0.1643 -0.0868
 7189PP      PP17293   6.675  13.337  12.225  0.0648  0.5265 -0.1993
 7190PP      PP17294  10.428   3.791  12.606 -0.0650 -0.0380 -0.0002
 7191PP      PP17295   6.124  12.520   4.541 -0.0542 -0.0677 -0.1411
 7192PP      PP17296   3.855   5.922   0.821 -0.0730 -0.0867 -0.1802
 7193PP      PP17297   0.570   7.426   2.752 -0.0111  0.1448  0.0436
 7194PP      PP17298  10.540   9.517   0.912 -0.1284 -0.0130 -0.0523
 7195PP      PP17299  12.842   5.791   4.575 -0.1062 -0.0503  0.0136
 7196PP      PP17300  14.509   9.957   4.340  0.1968 -0.0709  0.0105
 7197PP      PP17301   9.587   9.502   9.623 -0.1194  0.2106 -0.0330
 7198PP      PP17302  13.659  12.905  10.417 -0.0811  0.0817 -0.0447
 7199PP      PP17303   0.654   0.399   9.999 -0.3419  0.3150  0.2350
 7200PP      PP17304   2.529   7.303   3.653  0.1423  0.2106  0.0189
 7201PP      PP17305  12.298   1.424  10.690 -0.0080  0.0984  0.1121
 7202PP      PP17306   2.459  11.697   3.291  0.0811 -0.2239 -0.1086
 7203PP      PP17307  11.720   3.332   1.806 -0.1653  0.1762  0.3439
 7204PP      PP17308   9.127   7.898   4.804 -0.1315 -0.2613  0.0303
 7205PP      PP17309  10.476  14.090   1.576 -0.2402 -0.1041 -0.0490
 7206PP      PP17310   0.234  15.630   1.875 -0.2079  0.0522 -0.0399
 7207PP      PP17311   7.133   4.480   2.139 -0.1160 -0.1682 -0.0194
 7208PP      PP17312  14.040  13.697  10.167 -0.3231  0.3011 -0.4132
 7209PP      PP17313  11.169   9.667  11.996  0.0304  0.1638  0.0250
 7210PP      PP17314   9.432  14.230   3.988  0.1833  0.2023  0.0631
 7211PP      PP17315   1.473  13.220   9.972 -0.1537  0.1011  0.2578
 7212PP      PP17316   9.493   1.931   0.729  0.0781 -0.0400 -0.1752
 7213PP      PP17317   6.183   6.168   0.991  0.1594 -0.0424 -0.1882
 7214PP      PP17318   0.662  11.897  11.112 -0.2562 -0.0216  0.0045
 7215PP      PP17319   7.774  10.509   0.864 -0.1492  0.5370  0.1694
 7216PP      PP17320  11.980  14.831   0.678  0.1766  0.1042 -0.2638
 7217PP      PP17321   0.966  10.149   1.438  0.0732  0.1247 -0.1316
 7218PP      PP17322   3.729  11.667  10.747 -0.0472 -0.2747 -0.0154
 7219PP      PP17323   7.061   4.061   3.887 -0.2954  0.1583 -0.2223
 7220PP      PP17324   8.995   2.397   3.877  0.0240  0.3103  0.1710
 7221PP      PP17325   0.970   5.086   0.876 -0.0478  0.1790  0.3950
 7222PP      PP17326  12.146   7.525   2.782 -0.3762  0.0874  0.3213
 7223PP      PP17327   9.526   3.076   2.435  0.0007 -0.3072  0.2747
 7224PP      PP17328  14.524   7.822  10.299 -0.1152 -0.0761  0.0537
 7225PP      PP17329  13.800   0.959  11.907 -0.0491  0.0617 -0.4183
 7226PP      PP17330  12.361   0.728   8.604  0.0497 -0.0329  0.0891
 7227PP      PP17331  11.512   9.054  12.436  0.3140 -0.2393 -0.2274
 7228PP      PP17332   4.151   2.979  10.902 -0.3227 -0.0181 -0.0563
 7229PP      PP17333   5.881  12.476  11.198  0.2470 -0.0681 -0.1075
 7230PP      PP17334  13.285   9.299   4.128  0.2379  0.0938  0.3031
 7231PP      PP17335  14.187  11.206  12.556  0.1657 -0.1279 -0.0814
 7232PP      PP17336   8.305  13.899   9.766 -0.2165 -0.2285 -0.1777
 7233PP      PP17337  14.842   9.473   9.298 -0.0735  0.1022  0.1547
 7234PP      PP17338  11.764  14.232   0.719 -0.2356  0.0330 -0.1135
 7235PP      PP17339   8.487   9.464   1.624 -0.1525  0.0138 -0.2248
 7236PP      PP17340  10.192   5.323   0.764 -0.0394 -0.2040 -0.3865
 7237PP      PP17341  13.407   4.683  12.789 -0.0411  0.1066  0.6170
 7238PP      PP17342   3.845   5.600  11.543 -0.0424 -0.0310  0.2011
 7239PP      PP17343  13.470   1.349   3.182  0.0905 -0.5066 -0.0145
 7240PP      PP17344  14.945   5.819   9.391 -0.4087  0.1070 -0.0984
 7241PP      PP17345   3.155   2.416  12.981 -0.1273 -0.1968  0.0822
 7242PP      PP17346   1.736  14.253   9.040 -0.2716 -0.1251 -0.1049
 7243PP      PP17347  14.438  13.360  11.784  0.0801  0.0376 -0.2280
 7244PP      PP17348   7.202   0.937   4.401 -0.3499 -0.0367 -0.2180
 7245PP      PP17349   0.418   5.924   1.200  0.1659  0.0910 -0.0761
 7246PP      PP17350   7.166  12.844   4.402 -0.1118 -0.0645 -0.0063
 7247PP      PP17351   0.533   4.034   9.938  0.0010  0.4672 -0.2993
 7248PP      PP17352   3.137   6.808  13.327 -0.0318  0.0572  0.1814
 7249PP      PP17353  12.679  15.137   4.831  0.2110  0.2410  0.2169
 7250PP      PP17354   9.290   3.929   1.029 -0.1100  0.0001  0.0753
 7251PP      PP17355   3.132  14.930  11.695 -0.0682 -0.1224  0.2835
 7252PP      PP17356   7.188  15.601   9.810  0.2764  0.0400  0.1379
 7253PP      PP17357   1.608   4.997   2.114  0.2341  0.0022  0.1094
 7254PP      PP17358   8.566   1.726   4.630 -0.2053  0.0953 -0.0564
 7255PP      PP17359   8.839   3.799   0.787  0.1457  0.0975 -0.0777
 7256PP      PP17360   8.785  11.622   9.392  0.0126 -0.0207  0.2639
 7257PP      PP17361  13.836   3.102   8.851 -0.0370  0.3588  0.0874
 7258PP      PP17362   3.039   7.418   2.472  0.2597  0.1568  0.3129
 7259PP      PP17363   4.745   2.189   8.495 -0.0072 -0.0777 -0.3124
 7260PP      PP17364  10.387   8.101  11.762 -0.2880 -0.1279 -0.0296
 7261PP      PP17365   8.510   4.507   3.727  0.3833 -0.0966  0.1636
 7262PP      PP17366   8.598   4.244   9.848  0.3685 -0.1917  0.0776
 7263PP      PP17367   1.552  12.622   9.843 -0.1809  0.1536  0.0087
 7264PP      PP17368  14.454   9.131   8.949  0.1271  0.0225  0.3628
 7265PP      PP17369  12.519  13.340  12.175  0.1244  0.0569 -0.1432
 7266PP      PP17370  13.888   4.440   9.412 -0.3832 -0.0284  0.1353
 7267PP      PP17371   6.097   8.025   4.604 -0.3589 -0.0462  0.0029
 7268PP      PP17372  13.599   3.533   1.487  0.1931  0.4060 -0.0502
 7269PP      PP17373   1.692  15.568   3.633  0.3003  0.0939  0.0917
 7270PP      PP17374   9.492   6.225   1.155  0.4041 -0.2002 -0.0033
 7271PP      PP17375   1.416   3.097   8.512 -0.1526  0.1158 -0.0407
 7272PP      PP17376   0.066   5.423  12.026 -0.1333  0.2900 -0.0057
 7273PP      PP17377  12.298  12.752  12.992 -0.2522  0.2592 -0.0110
 7274PP      PP17378  10.090   3.549   0.216 -0.0585 -0.4403  0.1688
 7275PP      PP17379  11.904  10.506   1.507  0.0176 -0.3053 -0.1145
 7276PP      PP17380  13.114   9.896   3.055  0.0650  0.0800 -0.1024
 7277PP      PP17381   3.847   1.415  13.245  0.0571  0.2187  0.3254
 7278PP      PP17382   1.154  12.807   2.311  0.0474 -0.0627 -0.0759
 7279PP      PP17383   7.212  10.852   2.639 -0.0694 -0.0753  0.0708
 7280PP      PP17384  11.182   2.057  11.212  0.0996  0.0682  0.0770
 7281PP      PP17385   5.517   0.774   1.798  0.2598  0.2867  0.0177
 7282PP      PP17386  11.448   1.253  11.727  0.1142 -0.2443  0.2704
 7283PP      PP17387   5.484   3.145   0.587 -0.0332  0.1256 -0.1889
 7284PP      PP17388  15.354   7.120  10.088  0.0413 -0.0313  0.3282
 7285PP      PP17389   8.780   2.788   0.768 -0.2020  0.0325 -0.0495
 7286PP      PP17390   8.882   0.563  10.348 -0.3850  0.3358  0.2391
 7287PP      PP17391   9.976   9.116   2.205 -0.0245  0.1570 -0.3835
 7288PP      PP17392   6.635   8.647   1.593  0.0543  0.3262 -0.1775
 7289PP      PP17393   2.957  11.727   9.181 -0.1324  0.0451 -0.0468
 7290PP      PP17394  13.057   1.653  13.046  0.0471 -0.0409  0.3197
 7291PP      PP17395   6.670   6.279   9.511 -0.0265  0.1040 -0.5569
 7292PP      PP17396   0.924  13.864   2.948  0.0730  0.2148 -0.2342
 7293PP      PP17397   1.811  10.816   0.329  0.1021  0.1629 -0.1511
 7294PP      PP17398   6.701   1.477  10.328 -0.0294 -0.0661 -0.0174
 7295PP      PP17399  15.522   6.472   3.424 -0.0208 -0.0772 -0.0669
 7296PP      PP17400   9.432   3.531  12.838 -0.0781 -0.0206  0.2784
 7297PP      PP17401  12.659  10.460   3.012 -0.2005 -0.0586 -0.1165
 7298PP      PP17402  13.982   5.918   9.687 -0.0807 -0.1414 -0.3190
 7299PP      PP17403   2.764   9.618  12.580  0.2236  0.0187  0.4007
 7300PP      PP17404   3.092  13.518   0.108  0.1449 -0.0826  0.0133
 7301PP      PP17405   1.991   9.074  10.251 -0.0965  0.1176 -0.1172
 7302PP      PP17406   0.071   2.356   1.922 -0.0314 -0.3734  0.0439
 7303PP      PP17407  14.259  13.965   4.042  0.1055  0.3269 -0.1821
 7304PP      PP17408   5.161   4.017   0.935  0.1947 -0.0374  0.1025
 7305PP      PP17409   9.618  12.379   2.860 -0.2212 -0.0691 -0.3057
 7306PP      PP17410   3.528   4.361  12.084  0.2178 -0.0127  0.1516
 7307PP      PP17411   0.005   5.645   0.845 -0.2690  0.2067 -0.3885
 7308PP      PP17412  11.951  11.109   1.342 -0.1085 -0.0832 -0.2116
 7309PP      PP17413  12.609   1.152  10.388 -0.0567 -0.0507 -0.1531
 7310PP      PP17414   1.181  11.197  13.116 -0.0119  0.4141 -0.4605
 7311PP      PP17415  10.029  10.462  12.401  0.4255  0.0173 -0.0939
 7312PP      PP17416  10.074   1.528   9.900  0.0015  0.2065 -0.1181
 7313PP      PP17417   4.065   2.674   1.145  0.0579  0.3791  0.3232
 7314PP      PP17418  15.655   4.497   2.612  0.0431  0.1371 -0.0978
 7315PP      PP17419   5.808   7.134   9.303  0.0523 -0.3236  0.2876
 7316PP      PP17420   6.110   3.319   3.514  0.2111 -0.1327  0.3917
 7317PP      PP17421  15.185   5.451   9.715 -0.1474 -0.2804 -0.1029
 7318PP      PP17422   0.347  10.863  12.161 -0.2151  0.1338 -0.2261
 7319PP      PP17423  10.124   1.048   9.993 -0.1084  0.0138 -0.1980
 7320PP      PP17424   3.450   9.559   3.952  0.3113  0.2206 -0.0329
 7321PP      PP17425   3.977  12.474  10.752  0.1621 -0.0330 -0.1578
 7322PP      PP17426   7.900  14.338  11.485  0.0353 -0.0365 -0.1627
 7323PP      PP17427   4.134   6.171   4.783 -0.6049 -0.1051 -0.1111
 7324PP      PP17428  13.303  14.821   3.143  0.1141 -0.0940  0.0269
 7325PP      PP17429   7.179   7.920   9.535 -0.2413 -0.3122  0.2267
 7326PP      PP17430   7.447   5.513  12.516  0.2252  0.2070  0.0390
 7327PP      PP17431  15.192   7.608  11.755  0.2530  0.0125  0.1309
 7328PP      PP17432   4.355  11.788   2.465  0.0839  0.1988 -0.0621
 7329PP      PP17433   9.310  11.541   3.736  0.1832  0.1918  0.0900
 7330PP      PP17434  15.124  15.508   9.533 -0.0316  0.2408  0.1090
 7331PP      PP17435   6.269   2.995  10.385  0.3342  0.2697  0.0825
 7332PP      PP17436  10.982   7.377   3.948 -0.0819 -0.2798 -0.0244
 7333PP      PP17437  15.318   2.781  10.874  0.2475  0.0425 -0.3042
 7334PP      PP17438  14.895   0.424   1.397  0.3044  0.2609  0.0264
 7335PP      PP17439   2.620   0.424   3.225 -0.0714 -0.0226 -0.2155
 7336PP      PP17440   2.958  10.750   8.928  0.1894 -0.0387 -0.3667
 7337PP      PP17441   2.839  13.064   3.952 -0.0041 -0.2858 -0.0124
 7338PP      PP17442   3.619  11.018   2.082 -0.1238 -0.2817  0.2855
 7339PP      PP17443  10.130   6.480   9.719  0.0016  0.1214 -0.3449
 7340PP      PP17444   6.904  12.912   2.279 -0.0613 -0.3029 -0.2449
 7341PP      PP17445   4.836   1.770   8.763  0.0384  0.0021 -0.1972
 7342PP      PP17446   7.722   9.231   4.863  0.1085 -0.0617 -0.1331
 7343PP      PP17447  15.608  13.701  12.736  0.1905  0.1745 -0.2938
 7344PP      PP17448  10.274  12.555  12.724 -0.0877 -0.0170 -0.0008
 7345PP      PP17449   6.321   5.568  11.929  0.0221 -0.0213 -0.2032
 7346PP      PP17450   6.735   9.675   0.618 -0.3657  0.3224 -0.1094
 7347PP      PP17451   6.682  14.816   4.102 -0.0441  0.0914  0.1225
 7348PP      PP17452   8.306  14.679   2.050 -0.0373 -0.1873  0.3143
 7349PP      PP17453  13.442  12.357   0.065 -0.2625  0.1391  0.0687
 7350PP      PP17454  12.880   2.007  10.368  0.0387 -0.1320  0.2019
 7351PP      PP17455   3.723  10.142  11.049 -0.1233 -0.1494 -0.0709
 7352PP      PP17456  15.492   5.496  11.761  0.1800 -0.0526 -0.4030
 7353PP      PP17457  10.434   7.296   2.447 -0.2719  0.2860  0.0545
 7354PP      PP17458   0.681   5.747   0.253 -0.2631 -0.0551  0.1295
 7355PP      PP17459   2.235   4.464   2.091  0.1141 -0.0751 -0.0887
 7356PP      PP17460   3.086   5.305  11.979  0.0242  0.0653  0.1416
 7357PP      PP17461   1.367  10.465  12.476  0.0546 -0.0661 -0.0812
 7358PP      PP17462   9.218   0.138   9.628  0.2153  0.1116 -0.1245
 7359PP      PP17463  12.818   2.644   0.590  0.0015  0.2739  0.0015
 7360PP      PP17464  14.193   6.513   3.276  0.3070 -0.4822 -0.0713
 7361PP      PP17465   3.250   7.382  12.381  0.0450 -0.0556  0.0269
 7362PP      PP17466  15.712  14.357   9.071  0.1726 -0.0795  0.3502
 7363PP      PP17467   5.567   8.788   4.220 -0.1060 -0.0912  0.1321
 7364PP      PP17468  14.844   3.697  11.717  0.1787  0.2609  0.4903
 7365PP      PP17469  13.471   4.375   2.955 -0.0060 -0.0116 -0.2513
 7366PP      PP17470   7.400   3.316   4.342  0.5096  0.2074 -0.2351
 7367PP      PP17471  13.117   4.417   3.988  0.1085 -0.0612 -0.0275
 7368PP      PP17472  14.358   1.812   9.597  0.4967 -0.0412  0.1496
 7369PP      PP17473   0.060  13.284   0.411  0.1728 -0.0621 -0.0685
 7370PP      PP17474   8.715   9.277   0.330 -0.1928 -0.1207 -0.0824
 7371PP      PP17475   0.834  10.402  11.260 -0.0384 -0.1162  0.1696
 7372PP      PP17476  11.851  12.052   9.266 -0.1111  0.1625 -0.0891
 7373PP      PP17477   0.239   9.972   8.940 -0.2682  0.3692  0.0292
 7374PP      PP17478   9.663   8.805   1.791  0.2059  0.0364 -0.0194
 7375PP      PP17479  15.532  12.954   2.012 -0.0552  0.3239  0.0182
 7376PP      PP17480   7.679   5.821  11.301 -0.0077 -0.1278  0.0277
 7377PP      PP17481   7.916   0.319   2.167 -0.6185  0.0551 -0.1345
 7378PP      PP17482  10.702   1.808   9.102  0.0163  0.1020 -0.1104
 7379PP      PP17483   9.036   3.094  12.730 -0.0812 -0.1857  0.0139
 7380PP      PP17484   4.842   9.341   3.035 -0.1143  0.3428 -0.0725
 7381PP      PP17485  12.669   3.849  11.913  0.0494 -0.0221  0.0932
 7382PP      PP17486   3.021  15.138  12.351 -0.0232 -0.0266  0.2861
 7383PP      PP17487  12.475  15.834  12.562 -0.2690  0.0927  0.0709
 7384PP      PP17488  13.438  14.026   0.337  0.2199 -0.2549 -0.1245
 7385PP      PP17489   4.141   4.357   3.117 -0.1578  0.0626 -0.1693
 7386PP      PP17490   8.171  11.828   1.872  0.1175  0.0303  0.3527
 7387PP      PP17491   2.177   4.913  13.238 -0.2731 -0.1914  0.1072
 7388PP      PP17492   5.319   4.711   2.087  0.1537  0.2568 -0.0401
 7389PP      PP17493  15.511   1.574   9.351 -0.2883 -0.0427 -0.2337
 7390PP      PP17494   2.789   3.296   1.783 -0.2004 -0.0089  0.0300
 7391PP      PP17495   2.717   4.279   2.970 -0.0946  0.3217 -0.3928
 7392PP      PP17496   0.824   1.390   7.810 -0.2058 -0.0796 -0.0376
 7393PP      PP17497  14.721   1.103  12.927  0.1973 -0.0931 -0.0799
 7394PP      PP17498  13.170   8.816   1.085 -0.0013  0.1318 -0.1008
 7395PP      PP17499   2.315  13.953   2.601  0.0283  0.2351 -0.3045
 7396PP      PP17500   0.400  13.658  13.094 -0.0697 -0.0404 -0.2845
 7397PP      PP17501   1.714   8.561   0.822  0.2390 -0.2174 -0.1316
 7398PP      PP17502  13.581   9.340   0.969 -0.0371 -0.0193 -0.0818
 7399PP      PP17503   1.879   3.335   2.095  0.3776 -0.0115 -0.1183
 7400PP      PP17504   6.921  15.763  12.146  0.2778  0.0943  0.0434
 7401PP      PP17505   9.307  10.574  11.161  0.2327 -0.0125 -0.0525
 7402PP      PP17506  10.536  12.349   4.180  0.1666 -0.0191  0.0020
 7403PP      PP17507  10.758  12.632   2.756  0.1361  0.0021  0.0400
 7404PP      PP17508   4.378   6.514  12.213  0.0540 -0.1851  0.0148
 7405PP      PP17509   5.717   1.767  10.161 -0.1325 -0.2608 -0.0963
 7406PP      PP17510   1.184  15.353  12.860  0.1785 -0.0598  0.1430
 7407PP      PP17511  12.699   3.590  11.453 -0.0353  0.0468  0.2041
 7408PP      PP17512   1.356   3.097  12.799  0.0582 -0.1562 -0.1071
 7409PP      PP17513   8.653   6.635   1.121 -0.0298 -0.1765 -0.2966
 7410PP      PP17514  12.119   4.601  10.193 -0.0986  0.2583 -0.1130
 7411PP      PP17515  14.172   2.734   2.939 -0.3068 -0.0105  0.0288
 7412PP      PP17516   7.604   1.218   0.204  0.0658 -0.0530  0.0419
 7413PP      PP17517   6.787   5.654  10.842 -0.0627  0.0623 -0.1547
 7414PP      PP17518   9.877   1.498  12.842 -0.2801 -0.0576 -0.1211
 7415PP      PP17519  14.825  12.411   3.287 -0.0491  0.1990  0.2621
 7416PP      PP17520   1.106   3.550   1.767 -0.1153  0.1091 -0.2736
 7417PP      PP17521  14.426   3.975  10.355 -0.0930 -0.2737  0.1377
 7418PP      PP17522  15.915   2.936   7.930 -0.0542  0.1084  0.4774
 7419PP      PP17523   6.948  11.363   4.814  0.4171  0.0160 -0.0544
 7420PP      PP17524   6.216   4.700  13.385 -0.1293  0.2285  0.2509
 7421PP      PP17525  14.344   9.050   3.837  0.2672  0.2489 -0.1395
 7422PP      PP17526   0.167   9.392   1.524 -0.1883  0.1669  0.0862
 7423PP      PP17527   2.065  13.346   9.871  0.0775  0.2496 -0.0299
 7424PP      PP17528  13.350   0.097   4.114  0.3212  0.4081  0.0768
 7425PP      PP17529  14.082   7.270  12.365 -0.0586 -0.0243 -0.1076
 7426PP      PP17530   9.504   4.490  13.335 -0.2214 -0.0559  0.0263
 7427PP      PP17531   8.079   6.200   2.832 -0.2238  0.2801  0.2064
 7428PP      PP17532   5.417   6.335   9.725 -0.0366 -0.2278  0.1017
 7429PP      PP17533  11.943   2.670   9.366  0.0376  0.1879 -0.2102
 7430PP      PP17534   9.968   8.189   1.557 -0.2566 -0.1209 -0.0851
 7431PP      PP17535   8.188   4.717   9.550 -0.3503  0.0202  0.1246
 7432PP      PP17536  10.067   8.076   9.893  0.2440 -0.1756  0.1962
 7433PP      PP17537  12.524   5.509   3.705 -0.1165 -0.0056 -0.1347
 7434PP      PP17538   0.435  11.222   0.302 -0.0100  0.2280  0.1864
 7435PP      PP17539   4.573   7.910  11.360 -0.1799  0.0681  0.3711
 7436PP      PP17540  10.363  13.018  10.883 -0.0121 -0.1522  0.2760
 7437PP      PP17541   5.349   9.601   9.320  0.1596  0.1664 -0.0901
 7438PP      PP17542  11.532   2.342  13.263 -0.0490  0.1770  0.0151
 7439PP      PP17543   6.389   1.805   9.077  0.0996  0.2922 -0.0174
 7440PP      PP17544   9.450   2.554   3.945 -0.0771 -0.1804  0.2931
 7441PP      PP17545  10.872   7.209  10.704 -0.2083 -0.1836  0.1253
 7442PP      PP17546   8.723  10.144   4.067  0.1241 -0.1839  0.0786
 7443PP      PP17547   9.514   3.905   3.958  0.1195  0.0307 -0.1147
 7444PP      PP17548   2.524  13.169   1.253  0.1262 -0.1137  0.1653
 7445PP      PP17549   7.958   7.910   9.961 -0.2814 -0.0885  0.1205
 7446PP      PP17550   8.291   6.518  11.716 -0.2533  0.1180 -0.1671
 7447PP      PP17551   5.414   8.872  10.924 -0.0374 -0.0710 -0.1548
 7448PP      PP17552  10.280   1.923   3.873  0.3347 -0.0282  0.0994
 7449PP      PP17553   7.382   2.473   2.759  0.0738 -0.0826  0.4381
 7450PP      PP17554  15.090   9.258   3.214  0.0126 -0.0269  0.2741
 7451PP      PP17555  12.148   3.061  12.744  0.3122  0.3247 -0.0259
 7452PP      PP17556  10.779   5.952  12.451 -0.2514 -0.2291  0.0965
 7453PP      PP17557   4.666   4.252   0.195  0.1673 -0.2583  0.0107
 7454PP      PP17558  11.434   5.460  11.151 -0.1054  0.1592 -0.1804
 7455PP      PP17559   0.667   2.771   0.839  0.0766  0.0232 -0.4037
 7456PP      PP17560  14.520   7.705   9.841  0.2675 -0.0352  0.4899
 7457PP      PP17561   3.503   5.924  11.955 -0.0390  0.0285 -0.1454
 7458PP      PP17562   9.588   7.202   2.626 -0.0995 -0.0147  0.0285
 7459PP      PP17563   6.421   1.122   4.250 -0.4778 -0.1413  0.3801
 7460PP      PP17564  10.670  12.406   1.342  0.1899  0.1264  0.1655
 7461PP      PP17565   2.859   9.351   9.914  0.0322 -0.0244 -0.2256
 7462PP      PP17566  13.274   0.904   3.414 -0.2181 -0.1977  0.3518
 7463PP      PP17567   4.129   7.048  12.240 -0.0394 -0.1086  0.2240
 7464PP      PP17568   2.073   2.103   3.681  0.1960  0.4834  0.3589
 7465PP      PP17569  15.820   1.049   9.383  0.2687  0.1136 -0.1304
 7466PP      PP17570  12.031   9.727   3.107  0.2858  0.0673 -0.1548
 7467PP      PP17571   5.389  10.075   9.137 -0.1316  0.0724 -0.2400
 7468PP      PP17572   7.505   1.639  10.806  0.0862 -0.0150  0.2687
 7469PP      PP17573   2.480   1.331  10.069 -0.1115 -0.2855 -0.0658
 7470PP      PP17574  11.277  11.801   0.284 -0.2026 -0.0295 -0.0335
 7471PP      PP17575   2.304   4.035   2.247  0.0913 -0.0599 -0.0754
 7472PP      PP17576   3.189   0.969   1.141 -0.2664 -0.1332 -0.0345
 7473PP      PP17577   9.211  12.596  11.928  0.1327  0.2265  0.0335
 7474PP      PP17578   4.358   3.498   0.336  0.2806  0.1954 -0.0540
 7475PP      PP17579   3.651  11.528   1.898  0.2180 -0.0914  0.2504
 7476PP      PP17580   8.903  14.177   3.909  0.1249 -0.5580 -0.0654
 7477PP      PP17581   8.120  13.209   4.413 -0.0248  0.4987  0.1266
 7478PP      PP17582   2.072   5.498   1.033  0.1390 -0.1350  0.2779
 7479PP      PP17583  10.157   4.479  12.036 -0.0235 -0.0039 -0.1829
 7480PP      PP17584   3.360   1.473  10.533  0.1454 -0.1083 -0.3370
 7481PP      PP17585  10.954   9.848   3.063  0.0285  0.0333 -0.1226
 7482PP      PP17586  10.598   4.158  13.249 -0.1180  0.0600 -0.1486
 7483PP      PP17587  12.682   8.571   3.129  0.1380 -0.2729 -0.2624
 7484PP      PP17588   1.465   7.453  12.411  0.2740  0.0455 -0.1210
 7485PP      PP17589   5.863   8.033   2.311  0.1220 -0.1445 -0.1078
 7486PP      PP17590   3.193   6.705   3.715  0.0478 -0.1271 -0.1321
 7487PP      PP17591   1.469   2.316   9.002  0.1610  0.2842 -0.4524
 7488PP      PP17592   5.395   1.315  10.239 -0.4499  0.0478 -0.0562
 7489PP      PP17593   9.010   1.232   2.904  0.2715  0.0206 -0.3202
 7490PP      PP17594  11.899   9.988  13.367  0.1334  0.0856 -0.2142
 7491PP      PP17595   1.442   4.535   0.166  0.2893 -0.0722 -0.0273
 7492PP      PP17596   4.817  14.646  11.256 -0.0981  0.0239  0.0015
 7493PP      PP17597  11.201  13.665   9.981  0.0806 -0.1593  0.1175
 7494PP      PP17598   9.041   1.402   3.938  0.4087  0.1400  0.0318
 7495PP      PP17599   0.082   0.246   0.844  0.2202 -0.1033  0.0749
 7496PP      PP17600  15.041  10.704   4.315  0.1774 -0.0842  0.0264
 7497PP      PP17601   7.652  13.025   9.948  0.2140  0.1000 -0.1216
 7498PP      PP17602  10.733   5.502  11.459 -0.2143 -0.1311  0.2042
 7499PP      PP17603   1.471   6.420  10.674  0.0733  0.0048 -0.1438
 7500PP      PP17604   0.729   4.400   2.894  0.1807  0.1234 -0.1697
 7501PP      PP17605   5.278  13.522   0.698  0.0665 -0.0787  0.0277
 7502PP      PP17606   4.120   3.031   9.001  0.1051  0.0264 -0.2775
 7503PP      PP17607   2.161   2.451   8.903  0.1132  0.0195  0.2009
 7504PP      PP17608  12.831  15.404   0.010  0.1099 -0.1792 -0.2500
 7505PP      PP17609   7.841   0.723  11.831  0.0170 -0.1647  0.1433
 7506PP      PP17610   3.097   4.141   1.711 -0.1083  0.3415  0.0126
 7507PP      PP17611  12.737  11.713  11.724  0.1520 -0.0599 -0.1229
 7508PP      PP17612   1.859   7.642  11.380 -0.0013 -0.0422  0.0376
 7509PP      PP17613   8.400   4.365   2.613 -0.0399  0.2734 -0.0980
 7510PP      PP17614  12.422   6.380   2.491  0.0348 -0.1327  0.0064
 7511PP      PP17615  12.946  13.256   0.425 -0.1183 -0.1035 -0.2044
 7512PP      PP17616   3.332   3.589   9.223  0.3054  0.1977 -0.1308
 7513PP      PP17617   2.504  14.607   0.957  0.0595  0.0457  0.0802
 7514PP      PP17618   9.153  12.014  10.883 -0.0558 -0.1768 -0.0388
 7515PP      PP17619  10.551   9.813   2.685 -0.1855 -0.2534  0.1781
 7516PP      PP17620   1.471   1.075   8.494 -0.4387  0.0270  0.2810
 7517PP      PP17621  15.375   3.461   9.199  0.1225 -0.4036 -0.3181
 7518PP      PP17622   6.670   7.735  12.597  0.0957  0.0848  0.0712
 7519PP      PP17623   1.286   7.086   4.639  0.3072 -0.0285  0.4677
 7520PP      PP17624   3.346  13.966   0.601  0.0513  0.0158  0.0310
 7521PP      PP17625   0.974   4.117   9.720 -0.2132 -0.0147 -0.1956
 7522PP      PP17626  11.039  14.747   2.627  0.1996 -0.1277  0.0046
 7523PP      PP17627  14.516  14.048   2.198 -0.2803  0.0840 -0.0581
 7524PP      PP17628  13.705   5.624   4.761 -0.1605 -0.1065  0.1393
 7525PP      PP17629  10.610  15.726   3.780 -0.0401 -0.0195 -0.0327
 7526PP      PP17630   5.871  10.488   1.315  0.0110  0.1467 -0.1823
 7527PP      PP17631   2.937  11.820   2.515 -0.4721 -0.3152 -0.0997
 7528PP      PP17632  10.410  10.130  11.118  0.0037 -0.2834  0.2164
 7529PP      PP17633  12.345   9.071   1.168  0.0310 -0.1948 -0.0871
 7530PP      PP17634   3.637   1.684  10.877  0.2234 -0.0748  0.1763
 7531PP      PP17635  13.864   6.824  12.411 -0.0130 -0.0577  0.1050
 7532PP      PP17636   2.522   5.361   9.150  0.2592 -0.2692  0.0084
 7533PP      PP17637  13.937  13.137   3.761 -0.2272 -0.1119  0.0340
 7534PP      PP17638   6.705   0.966  10.001 -0.0300  0.1110 -0.0659
 7535PP      PP17639   7.958   9.128   3.050  0.4123 -0.0601  0.1661
 7536PP      PP17640  11.712   2.328   4.270 -0.0681  0.0469 -0.0486
 7537PP      PP17641   0.032   7.259   0.883  0.2565 -0.0894 -0.1317
 7538PP      PP17642   1.560   3.827   2.253 -0.2606 -0.1338  0.0448
 7539PP      PP17643   8.527   6.959   0.667 -0.0794  0.0549  0.0437
 7540PP      PP17644  15.258   8.324   0.025  0.4785  0.2205  0.0086
 7541PP      PP17645   2.257  11.714   1.084 -0.1373  0.0396  0.1282
 7542PP      PP17646  11.233   1.944  13.377  0.0023  0.0952 -0.0802
 7543PP      PP17647   2.495   9.338   2.709 -0.1414  0.1838 -0.1320
 7544PP      PP17648   1.223   3.867  11.310  0.1521  0.0730  0.0878
 7545PP      PP17649  11.118   1.470  12.128 -0.1985 -0.0499 -0.0507
 7546PP      PP17650  11.510   9.788  10.756  0.2663 -0.0222  0.0034
 7547PP      PP17651  14.323  15.635  12.334  0.1023 -0.0468  0.0475
 7548PP      PP17652   5.560   3.850  12.201 -0.2185 -0.2131 -0.4563
 7549PP      PP17653   8.940   2.427  12.002  0.0976 -0.0923  0.4318
 7550PP      PP17654  15.738  10.659   8.939  0.0187 -0.2770  0.1721
 7551PP      PP17655  11.081  14.567   3.160 -0.0313 -0.1974  0.0132
 7552PP      PP17656  12.672  10.280   1.099  0.2538  0.2692 -0.2966
 7553PP      PP17657   4.381  12.640  10.995  0.1934 -0.1127 -0.0140
 7554PP      PP17658   2.037   7.335   3.312  0.0030 -0.3074  0.1044
 7555PP      PP17659   8.434   1.847   2.315  0.1718 -0.0549 -0.3190
 7556PP      PP17660  13.284   7.120   1.747 -0.1238 -0.2441 -0.3019
 7557PP      PP17661   4.908  13.485  10.864  0.1901  0.0914 -0.1201
 7558PP      PP17662   4.276   1.030  10.219  0.0191 -0.1011 -0.3904
 7559PP      PP17663   2.153  13.893  11.006 -0.0185  0.1935 -0.2894
 7560PP      PP17664   6.831   1.791   1.827  0.0540 -0.2179 -0.0517
 7561PP      PP17665  12.847   9.949   3.498 -0.1619 -0.2967  0.0753
 7562PP      PP17666  12.716  13.454   9.422  0.0729 -0.0671  0.0464
 7563PP      PP17667   3.748   4.676   0.132  0.2077  0.2146 -0.2145
 7564PP      PP17668   8.311   0.645  10.555  0.2972  0.0027  0.2951
 7565PP      PP17669  13.943  11.224   0.141 -0.0047 -0.1434 -0.2050
 7566PP      PP17670   5.389   6.721   0.627  0.1167 -0.3604 -0.0301
 7567PP      PP17671  10.613   7.931   0.741  0.0409  0.0996 -0.0766
 7568PP      PP17672   4.759   8.650   1.450  0.0206  0.1254  0.3068
 7569PP      PP17673   0.192   6.491  12.469  0.3113  0.0148 -0.0739
 7570PP      PP17674   8.288  12.499   3.446 -0.1630  0.1864 -0.1550
 7571PP      PP17675   8.491   2.253   1.894  0.1381  0.3350 -0.2362
 7572PP      PP17676   6.460   8.382   4.688  0.5365  0.0463  0.1401
 7573PP      PP17677   1.498  12.940  10.498  0.1781 -0.0357  0.1373
 7574PP      PP17678   6.085   1.630   3.428  0.0357 -0.1260 -0.3945
 7575PP      PP17679  12.196  10.281   9.802 -0.0519 -0.0404  0.1130
 7576PP      PP17680   1.455   8.580   2.004 -0.2907 -0.0129  0.3096
 7577PP      PP17681   8.022   7.598   1.049  0.0699  0.0350 -0.1000
 7578PP      PP17682   6.183   4.137   4.572 -0.3886 -0.0342  0.0489
 7579PP      PP17683  12.867  14.128  10.796  0.0197  0.0266 -0.1675
 7580PP      PP17684   2.944  12.393   3.841 -0.2560  0.0047 -0.1392
 7581PP      PP17685   2.466  13.858   9.078 -0.2430 -0.1452  0.0469
 7582PP      PP17686   9.352   0.776  10.392  0.2180 -0.0842  0.1156
 7583PP      PP17687  14.339  15.818   1.622 -0.0436 -0.1855  0.1400
 7584PP      PP17688  11.133   2.104  11.727  0.2305 -0.1108 -0.2110
 7585PP      PP17689   2.189  12.735   1.337 -0.1091  0.1698  0.3728
 7586PP      PP17690   4.908  13.609   0.348  0.0444 -0.1706 -0.0433
 7587PP      PP17691   2.469  12.909  12.630  0.2920 -0.1426  0.1201
 7588PP      PP17692   5.920   9.043   4.643 -0.0410 -0.2844 -0.3653
 7589PP      PP17693   2.222   4.926   0.427 -0.0391 -0.3351 -0.0570
 7590PP      PP17694   6.148   7.676   9.564 -0.0892 -0.0179 -0.0027
 7591PP      PP17695   3.218   1.838  13.068 -0.3119 -0.0092  0.4220
 7592PP      PP17696   2.068   2.315  13.142  0.0298 -0.0664  0.1648
 7593PP      PP17697  11.392   8.812   1.387  0.0904 -0.2723  0.0426
 7594PP      PP17698  14.765   1.654  10.957  0.0394 -0.0464  0.0002
 7595PP      PP17699   6.412   8.453  11.153  0.2712 -0.1864  0.0295
 7596PP      PP17700   7.546   4.070   3.771 -0.1653 -0.1077  0.1284
 7597PP      PP17701   7.173  12.699   1.625  0.0188 -0.0428 -0.0360
 7598PP      PP17702   7.436  14.583   0.722  0.1914 -0.1596  0.3537
 7599PP      PP17703   8.994   6.871  11.428 -0.1711  0.0639 -0.2536
 7600PP      PP17704   4.342  14.693   1.598 -0.2115  0.3065 -0.0758
 7601PP      PP17705   6.560   7.395   5.143  0.0014 -0.2275 -0.0920
 7602PP      PP17706  12.069   7.239  10.717  0.0043 -0.1646  0.0507
 7603PP      PP17707   5.452  15.648   9.687 -0.1735  0.4099  0.1678
 7604PP      PP17708  10.588  10.553   0.528 -0.0935  0.0039 -0.2231
 7605PP      PP17709   8.932  11.173  10.698  0.1029 -0.1755 -0.0233
 7606PP      PP17710  10.251   2.754   0.537 -0.3232  0.1120  0.0136
 7607PP      PP17711  14.415   7.321  12.818 -0.2390 -0.1700  0.0407
 7608PP      PP17712   8.014   9.614   2.381  0.1267  0.3027  0.4021
 7609PP      PP17713   2.504  14.746  10.555 -0.0383  0.1945  0.0157
 7610PP      PP17714   0.344   1.676   3.451  0.1095 -0.1523 -0.0376
 7611PP      PP17715   5.590   2.400  12.622 -0.0825  0.1476  0.0702
 7612PP      PP17716   1.001   8.269  12.374  0.1042 -0.0472 -0.0219
 7613PP      PP17717   2.418   1.779   3.466  0.2656 -0.0866 -0.0857
 7614PP      PP17718  10.711  11.009   1.987 -0.1958  0.0782  0.0488
 7615PP      PP17719   7.966  12.481   2.419 -0.1143  0.1435  0.0488
 7616PP      PP17720   2.470   4.568   3.898  0.0545  0.0953 -0.2839
 7617PP      PP17721   3.701   6.837  12.076  0.2806 -0.1661 -0.0287
 7618PP      PP17722   4.962  12.239   9.297 -0.1955  0.2599  0.4320
 7619PP      PP17723  14.721  12.499  12.268 -0.0899  0.1361 -0.1275
 7620PP      PP17724   3.655   6.751   4.032 -0.2613  0.1335 -0.0208
 7621PP      PP17725  13.365   1.304  13.201  0.2600  0.1390 -0.0821
 7622PP      PP17726   4.623  12.621   9.032 -0.1964 -0.3088 -0.0568
 7623PP      PP17727   8.979  10.361  10.824 -0.2060 -0.0454  0.1669
 7624PP      PP17728   3.983   9.347   1.127 -0.0271 -0.3013  0.3887
 7625PP      PP17729   9.206   8.300  13.130  0.0871 -0.2335 -0.4917
 7626PP      PP17730   6.133   6.953   1.074 -0.3605 -0.1022 -0.2055
 7627PP      PP17731  13.615   8.298   2.643 -0.2432 -0.1210  0.0081
 7628PP      PP17732   7.894  14.988   1.491  0.2221  0.3561 -0.0238
 7629PP      PP17733  11.007   4.490  12.408 -0.0904  0.0986 -0.0850
 7630PP      PP17734   3.753   6.739  10.786 -0.0904 -0.3036 -0.1816
 7631PP      PP17735  14.736   6.459   3.294 -0.1282 -0.0772 -0.2694
 7632PP      PP17736  11.663  12.124   0.201 -0.0524  0.2713 -0.2969
 7633PP      PP17737  13.654   1.092   4.108 -0.0902  0.0153  0.2393
 7634PP      PP17738  12.495   7.201   3.816  0.0337 -0.1576 -0.3274
 7635PP      PP17739  12.033   3.707   1.850 -0.0824 -0.2878 -0.0867
 7636PP      PP17740  11.873   6.532   3.266 -0.0306 -0.0002  0.0537
 7637PP      PP17741   7.710  13.023   3.027 -0.2142 -0.1615  0.2397
 7638PP      PP17742  11.879  11.438  10.214  0.3704 -0.1241  0.2119
 7639PP      PP17743   7.384   1.431   0.648 -0.2636 -0.0407 -0.3667
 7640PP      PP17744   4.721   0.852  10.286  0.1005  0.0332 -0.0532
 7641PP      PP17745   8.290   0.688   9.959  0.1280  0.3267  0.4779
 7642PP      PP17746   2.222   7.204   0.822  0.1218  0.2707 -0.0587
 7643PP      PP17747   9.596   1.009   9.956 -0.1571 -0.2635  0.0427
 7644PP      PP17748  14.711   8.007  12.036 -0.1117  0.1367 -0.1984
 7645PP      PP17749   1.502  15.328   1.648  0.1367 -0.0807  0.0333
 7646PP      PP17750  15.040  11.945   3.170  0.1690  0.4889 -0.0114
 7647PP      PP17751   3.308   8.484   1.111 -0.0562  0.0014  0.1095
 7648PP      PP17752  10.544   8.946   2.121 -0.3101  0.2610  0.0238
 7649PP      PP17753   0.029  13.928  12.971  0.2176  0.0369 -0.0389
 7650PP      PP17754  12.930   6.061   9.259 -0.2987  0.1994  0.0182
 7651PP      PP17755  14.788   6.339   1.426  0.0624  0.0572 -0.0095
 7652PP      PP17756   9.522   0.818   0.520 -0.1773  0.1442  0.1318
 7653PP      PP17757  13.751   6.422  13.202 -0.1409  0.0687 -0.0621
 7654PP      PP17758   0.267  15.884   3.580 -0.0921  0.0980  0.1022
 7655PP      PP17759  14.019   0.509  12.199 -0.2507 -0.1295  0.1392
 7656PP      PP17760  13.811  13.971   4.250  0.0554 -0.1457  0.0312
 7657PP      PP17761   1.322   5.560   3.460  0.1857  0.2982 -0.0672
 7658PP      PP17762   0.432  15.372   9.761 -0.1686  0.1112  0.1197
 7659PP      PP17763   3.470   9.711  11.183  0.1500  0.2996 -0.1841
 7660PP      PP17764   7.186  11.469   1.684 -0.2600  0.2451 -0.1360
 7661PP      PP17765  10.817   0.063   9.372 -0.0987  0.0995  0.2209
 7662PP      PP17766   8.900  13.414   1.924  0.1895 -0.2661  0.2493
 7663PP      PP17767  15.441  13.921   2.299 -0.2655  0.2597  0.0367
 7664PP      PP17768  14.177  15.760  11.612 -0.0079 -0.0081  0.0478
 7665PP      PP17769  10.519   6.450   9.364  0.1902 -0.0355  0.0730
 7666PP      PP17770  14.127   4.699   4.304 -0.1604 -0.1087  0.3625
 7667PP      PP17771   0.736  13.357   2.854  0.2912  0.1375 -0.0811
 7668PP      PP17772   1.505  14.772   2.931  0.2458 -0.0764  0.1602
 7669PP      PP17773   1.910   2.579  11.726 -0.4892  0.1708  0.0065
 7670PP      PP17774   0.502   5.009   1.149  0.3413  0.2472 -0.0363
 7671PP      PP17775  14.153  15.020  12.059  0.1573  0.3245  0.1291
 7672PP      PP17776   5.442  12.804   9.787  0.0102 -0.0258  0.2880
 7673PP      PP17777   2.192   6.252  10.582 -0.2556  0.1166  0.0902
 7674PP      PP17778   9.249   2.398   9.345 -0.3083 -0.0048  0.1026
 7675PP      PP17779  14.503  15.632   3.064  0.3562 -0.1411 -0.2355
 7676PP      PP17780   1.701   9.231   9.786 -0.1990 -0.3205  0.0043
 7677PP      PP17781  14.054   8.678   1.135  0.0484  0.3257 -0.2393
 7678PP      PP17782   1.424   3.837  12.282  0.0813 -0.4308 -0.1590
 7679PP      PP17783   4.216   0.632  11.524  0.0019  0.1556  0.4573
 7680PP      PP17784   6.371  13.184   1.775  0.0075 -0.0224  0.0783
 7681PP      PP17785   7.273   8.039  10.348 -0.0306  0.0475 -0.0519
 7682PP      PP17786   7.434  11.127   9.528 -0.4961  0.0013  0.0217
 7683PP      PP17787  13.177  11.141   4.834  0.0008 -0.0089  0.0940
 7684PP      PP17788   9.526   3.344   9.294  0.2512  0.0220 -0.0722
 7685PP      PP17789  12.790   0.221   9.215  0.0348 -0.0519 -0.1752
 7686PP      PP17790   5.753   7.068   0.714  0.1209 -0.2875 -0.0249
 7687PP      PP17791   0.929   8.592   3.253 -0.0689  0.3498 -0.1658
 7688PP      PP17792  10.391   8.399  12.136  0.0180 -0.1103  0.0775
 7689PP      PP17793  10.793  14.900   1.802  0.1230  0.3755 -0.1331
 7690PP      PP17794   3.627  11.340   0.511  0.0433  0.1455  0.0206
 7691PP      PP17795   5.816   0.218   9.901  0.0649 -0.3037  0.1245
 7692PP      PP17796  14.289   0.055   3.339  0.3075 -0.0211  0.0246
 7693PP      PP17797  10.897   0.380   5.253 -0.1620 -0.2284 -0.2668
 7694PP      PP17798   0.870   7.786  12.913  0.0862 -0.0462 -0.0448
 7695PP      PP17799  11.483  11.218   1.234  0.0615  0.0213 -0.0774
 7696PP      PP17800   1.734   1.465   1.920 -0.3593  0.0136  0.4524
 7697PP      PP17801   3.772   0.784  10.235  0.0944  0.2261 -0.2519
 7698PP      PP17802  12.015   2.679   2.429 -0.2843  0.2917 -0.1695
 7699PP      PP17803  10.465  15.799  10.135  0.0835 -0.2447 -0.3164
 7700PP      PP17804  13.672  10.305   9.799  0.2103 -0.1230 -0.1688
 7701PP      PP17805  15.464   0.313   0.602  0.1471  0.2135 -0.1115
 7702PP      PP17806   4.545   8.982  10.435  0.3659  0.1197  0.2185
 7703PP      PP17807   0.903   0.643   9.621 -0.0650  0.1377  0.4160
 7704PP      PP17808   7.790   5.356  11.403 -0.3473  0.2769 -0.1445
 7705PP      PP17809   2.195  13.941   8.494 -0.3174 -0.0291  0.0490
 7706PP      PP17810  10.604  14.384   1.081  0.0050 -0.0890 -0.1725
 7707PP      PP17811   3.721  10.165  10.428 -0.4358  0.3632  0.0322
 7708PP      PP17812   9.061   3.904  12.321 -0.1805  0.0294 -0.2214
 7709PP      PP17813  13.469   6.434   3.351  0.2925 -0.0039 -0.0254
 7710PP      PP17814   1.521   6.109   9.786  0.1654 -0.2166  0.1149
 7711PP      PP17815  15.436  10.626   0.290 -0.0567  0.3801  0.1876
 7712PP      PP17816  15.096  12.489  10.889  0.3741  0.3659  0.0595
 7713PP      PP17817   9.888  14.190   0.873  0.2072 -0.2587  0.1621
 7714PP      PP17818   1.639  13.053   9.560  0.0596 -0.1271  0.0786
 7715PP      PP17819   2.119  12.936   3.187 -0.0983  0.3376 -0.1363
 7716PP      PP17820   0.085   7.171  11.129 -0.0461  0.2121 -0.2010
 7717PP      PP17821  15.926   5.778  10.808 -0.1838  0.1152 -0.0752
 7718PP      PP17822  13.704  10.507   4.210  0.1833 -0.2846 -0.0025
 7719PP      PP17823  10.401  13.943   0.857  0.1986  0.2018  0.0468
 7720PP      PP17824  14.023  11.294   2.306 -0.3989  0.0377  0.0335
 7721PP      PP17825  10.581   0.864  12.569 -0.0293  0.0408  0.0644
 7722PP      PP17826  10.527   6.172  13.332 -0.2425  0.1989 -0.1193
 7723PP      PP17827   6.765  11.761   9.408  0.0506 -0.2469 -0.3695
 7724PP      PP17828  15.815   7.209   0.376  0.2486 -0.1359 -0.0171
 7725PP      PP17829   0.860  14.086   7.955 -0.2867 -0.1405 -0.3495
 7726PP      PP17830  10.976   9.892   4.457  0.1919  0.0667 -0.1266
 7727PP      PP17831   3.995   3.188  10.510  0.1063  0.0492 -0.1585
 7728PP      PP17832   5.398   5.215   1.889 -0.1675 -0.1181  0.2780
 7729PP      PP17833   7.009   9.017  11.226 -0.1618  0.0878  0.1792
 7730PP      PP17834   6.137   4.339   9.960 -0.2249 -0.1190  0.1687
 7731PP      PP17835   2.396  12.886  12.164 -0.0262  0.2641 -0.0668
 7732PP      PP17836   6.019  15.229   9.285 -0.0115 -0.3129 -0.1165
 7733PP      PP17837   0.553  10.732  10.420  0.3384 -0.4107 -0.3507
 7734PP      PP17838   9.936   7.577   2.372  0.0940  0.0913  0.2203
 7735PP      PP17839   3.668  13.437  13.310  0.1522  0.2472 -0.0240
 7736PP      PP17840  10.309   7.963  11.157  0.3395  0.3898  0.0528
 7737PP      PP17841   8.618   6.579   9.828  0.2433  0.2596  0.1563
 7738PP      PP17842  15.167  14.983   0.381 -0.2607  0.0207 -0.0228
 7739PP      PP17843   3.775  14.396   3.460  0.0759  0.0540 -0.3032
 7740PP      PP17844   2.939   0.553   1.769  0.0463 -0.1139  0.3338
 7741PP      PP17845   3.407   5.269  12.415  0.2075  0.0390  0.0837
 7742PP      PP17846   8.739   3.858   4.304 -0.2379  0.3052  0.1472
 7743PP      PP17847  14.542  14.454  11.114  0.0675  0.0489  0.2951
 7744PP      PP17848   4.674   4.245   1.084 -0.2175  0.0459  0.1251
 7745PP      PP17849  10.414   2.217   2.028  0.0795 -0.0329  0.0833
 7746PP      PP17850   6.441   9.983   2.984 -0.0712 -0.1341 -0.3622
 7747PP      PP17851  13.643  11.432  11.153 -0.1025 -0.0176  0.0409
 7748PP      PP17852   3.700  13.077   9.144  0.1316  0.3888  0.0301
 7749PP      PP17853   9.418   3.609   1.593 -0.0287 -0.0850 -0.1580
 7750PP      PP17854   2.137   9.739   1.650  0.0899  0.0914 -0.2123
 7751PP      PP17855   3.932   2.438  12.764  0.4631 -0.0340 -0.0628
 7752PP      PP17856  10.483   9.784   3.153 -0.1291 -0.0507 -0.1012
 7753PP      PP17857   4.200   4.136   9.167  0.2612 -0.0075  0.3370
 7754PP      PP17858   1.604  14.919  10.554 -0.3238  0.0025  0.2589
 7755PP      PP17859   7.412   2.348   3.612 -0.1626  0.0638  0.0867
 7756PP      PP17860   5.432   5.806   9.672  0.0487 -0.1284 -0.0948
 7757PP      PP17861   7.478   6.644   3.806  0.1169 -0.1602 -0.1306
 7758PP      PP17862  14.175   2.786   1.267 -0.1164  0.2564  0.2535
 7759PP      PP17863   7.012  12.445  13.281  0.1685  0.1971  0.1928
 7760PP      PP17864   7.716   2.624   0.650 -0.0716 -0.3301 -0.1803
 7761PP      PP17865   2.729  12.378   1.507  0.0528 -0.3332 -0.2252
 7762PP      PP17866  14.961   7.904   3.297  0.0280  0.2697 -0.0748
 7763PP      PP17867   2.908   6.745   0.406  0.0431  0.2041  0.1929
 7764PP      PP17868   0.294  12.930  11.293  0.0990  0.0715  0.3617
 7765PP      PP17869  11.140   5.817  11.454 -0.2089 -0.0844  0.2132
 7766PP      PP17870   0.891  10.357   4.223 -0.1374 -0.0496 -0.3446
 7767PP      PP17871   5.002  13.077   9.897 -0.2301 -0.2477  0.1746
 7768PP      PP17872   0.178  15.398  10.691  0.3132 -0.2459 -0.2304
 7769PP      PP17873   5.078  15.542   3.572  0.3686  0.1979  0.0228
 7770PP      PP17874   9.894   1.410   9.242 -0.2308 -0.2209  0.3759
 7771PP      PP17875  13.798   2.735   2.047 -0.0564  0.1884 -0.5703
 7772PP      PP17876   1.180  11.597   9.944 -0.1766  0.0020  0.3379
 7773PP      PP17877  10.313   4.465  11.450 -0.0095  0.0624  0.1400
 7774PP      PP17878   7.501  11.278   9.031 -0.0282  0.0495 -0.0010
 7775PP      PP17879  12.873   3.321   9.481  0.1424  0.0580 -0.1484
 7776PP      PP17880  13.486  10.392  12.106 -0.1021 -0.1289 -0.0005
 7777PP      PP17881   1.699   6.578  12.508  0.2056 -0.0075  0.1478
 7778PP      PP17882   0.064  11.672   1.056  0.0655 -0.0627  0.3646
 7779PP      PP17883  12.138   1.749   9.044  0.0812 -0.0145 -0.0986
 7780PP      PP17884  15.696   0.169  12.333 -0.5537  0.0659 -0.1666
 7781PP      PP17885  11.919   9.822   1.546 -0.2899 -0.2006 -0.0474
 7782PP      PP17886   1.555  10.640   2.904  0.0793  0.1398 -0.2351
 7783PP      PP17887   8.159   6.707   9.173  0.3802 -0.1489 -0.2312
 7784PP      PP17888   9.671  11.714   3.439  0.0963  0.0329  0.3386
 7785PP      PP17889   2.381   5.617  12.471  0.2025 -0.0999  0.2330
 7786PP      PP17890  14.496  12.833  11.529  0.2661  0.2197 -0.1295
 7787PP      PP17891  13.226   9.896  12.000 -0.1767 -0.3240  0.0625
 7788PP      PP17892   6.391   9.224   0.694  0.1637  0.4877  0.1823
 7789PP      PP17893   6.834   8.372   9.819 -0.1809 -0.1139  0.1360
 7790PP      PP17894  14.858  13.201  11.622 -0.0851 -0.2897 -0.0144
 7791PP      PP17895   0.696   4.635   0.375 -0.0721  0.0097  0.0695
 7792PP      PP17896  11.278  13.431  12.469 -0.1886 -0.0402  0.1038
 7793PP      PP17897  15.819  12.241  10.238 -0.2239 -0.0915  0.2300
 7794PP      PP17898  14.598   3.107   0.052 -0.1353  0.1121  0.3863
 7795PP      PP17899   1.098   1.447  11.896 -0.0496  0.0959 -0.0006
 7796PP      PP17900   5.374   4.144   3.606  0.1111 -0.1570 -0.0591
 7797PP      PP17901   1.672   7.687   0.734 -0.1190  0.2142  0.4777
 7798PP      PP17902  15.636   6.209  10.054 -0.1076 -0.0173  0.2142
 7799PP      PP17903   0.453   3.528   0.268  0.3971 -0.1339  0.1302
 7800PP      PP17904   1.719   8.783   0.152 -0.0958  0.2428  0.0404
 7801PP      PP17905  11.366  10.773   4.502  0.1802 -0.1670 -0.0392
 7802PP      PP17906   6.321   8.487  13.201  0.1267  0.1475  0.3357
 7803PP      PP17907   2.670   2.908   2.745 -0.2340  0.3225  0.3286
 7804PP      PP17908  10.891   6.483  11.110 -0.1228  0.0877  0.0013
 7805PP      PP17909   8.478   7.725   9.290  0.0346 -0.3695 -0.2289
 7806PP      PP17910   4.821  10.940   4.401  0.2361  0.1356 -0.2264
 7807PP      PP17911   3.249   1.727   3.027  0.1173  0.0671  0.2155
 7808PP      PP17912   0.164   4.676   0.834  0.0365  0.0349 -0.2440
 7809PP      PP17913   7.550   9.972   9.898  0.2738 -0.1440  0.0759
 7810PP      PP17914  14.513  11.851   0.939  0.3041  0.4279  0.3139
 7811PP      PP17915  15.105   2.438   0.653 -0.1079 -0.2596 -0.0450
 7812PP      PP17916   6.479   3.166   9.933  0.1749 -0.0300 -0.2267
 7813PP      PP17917   7.762   8.144   3.995  0.1036 -0.1781 -0.2995
 7814PP      PP17918   0.395   5.966  11.060 -0.1877 -0.0756  0.0450
 7815PP      PP17919   3.611   7.619  11.076 -0.1699 -0.0450 -0.1194
 7816PP      PP17920  10.942   8.500  12.986  0.0819  0.0153 -0.1514
 7817PP      PP17921  14.020   3.953   1.234 -0.1599  0.0919  0.3472
 7818PP      PP17922   5.826  15.537   0.524 -0.0675  0.0519  0.1512
 7819PP      PP17923   6.942  12.338   2.547  0.0090  0.1353  0.0506
 7820PP      PP17924   2.341  12.914   3.783 -0.0512  0.0231  0.0388
 7821PP      PP17925   6.669   1.521  11.729  0.1195 -0.0965 -0.0569
 7822PP      PP17926   1.434  15.841  11.298 -0.0710  0.1581  0.0364
 7823PP      PP17927   5.821   1.511   0.684 -0.1438 -0.1698  0.0310
 7824PP      PP17928   3.448   5.585  12.841  0.2102  0.1917 -0.2870
 7825PP      PP17929   1.131  15.902   0.163  0.1225  0.2837 -0.1144
 7826PP      PP17930  12.695   4.772  11.515  0.1071  0.0708 -0.1515
 7827PP      PP17931  13.392   5.179  12.300 -0.3387 -0.3358  0.1116
 7828PP      PP17932  11.238   0.176  12.269  0.3165 -0.0290 -0.3298
 7829PP      PP17933   4.444  10.191  12.161  0.0305  0.1036 -0.1060
 7830PP      PP17934   6.782  14.508   0.713 -0.0078  0.2008  0.0280
 7831PP      PP17935  13.319   7.433   9.194 -0.1176 -0.4270  0.2957
 7832PP      PP17936   4.398  10.873  12.633 -0.1623 -0.2420  0.0923
 7833PP      PP17937   5.911   4.785   9.828 -0.0866  0.1525 -0.0064
 7834PP      PP17938   2.766  13.052  11.079 -0.0320  0.3332 -0.2240
 7835PP      PP17939   1.161   7.907   1.440  0.0836  0.0523 -0.0732
 7836PP      PP17940   7.516  14.828  10.816 -0.1197  0.0744 -0.1862
 7837PP      PP17941   0.185   3.803   9.706 -0.2491 -0.0968 -0.1914
 7838PP      PP17942   6.342  11.659  11.491 -0.1292 -0.0202  0.1371
 7839PP      PP17943   1.464  14.631   3.415  0.4735 -0.0165 -0.1286
 7840PP      PP17944   2.878   7.407  12.953 -0.0143  0.2282  0.1430
 7841PP      PP17945   4.647   4.753   1.036 -0.1268  0.0093 -0.1514
 7842PP      PP17946  14.837   5.273   1.313 -0.4484  0.1821  0.2296
 7843PP      PP17947  15.198   0.797  10.659 -0.0231 -0.1532 -0.0542
 7844PP      PP17948   1.952  11.571   3.539  0.0552 -0.1987 -0.0594
 7845PP      PP17949   1.275  11.264  10.813 -0.0743  0.1532 -0.1987
 7846PP      PP17950   6.966  14.041  10.663  0.2455 -0.1834  0.2267
 7847PP      PP17951   8.557  15.282   2.241  0.1820  0.2067  0.1289
 7848PP      PP17952  10.093  12.049  11.692  0.1634 -0.0765 -0.0390
 7849PP      PP17953   1.770   0.450   9.052 -0.4757 -0.1547  0.0266
 7850PP      PP17954  11.824   9.575   0.240 -0.1366  0.5573  0.1309
 7851PP      PP17955   3.418   0.971   8.895 -0.2071  0.0615  0.1226
 7852PP      PP17956  11.722   9.043   3.708  0.2669 -0.0902 -0.0267
 7853PP      PP17957  14.213  11.592   3.371 -0.3204 -0.0191  0.0596
 7854PP      PP17958   4.104  14.249   3.830  0.4154  0.0751 -0.4131
 7855PP      PP17959   6.185  10.335   9.654  0.1484 -0.0199  0.1542
 7856PP      PP17960   7.416  12.156   2.353  0.1400  0.1365  0.2094
 7857PP      PP17961   3.409   6.859   9.769 -0.0240 -0.3612  0.2452
 7858PP      PP17962  11.412   8.744  12.030  0.0197  0.1110  0.1912
 7859PP      PP17963   2.495  15.740  13.295 -0.1337 -0.1306 -0.0623
 7860PP      PP17964   9.901   7.226  11.563  0.0622 -0.1614  0.0175
 7861PP      PP17965   1.135   0.880  13.022  0.0253  0.2561 -0.1161
 7862PP      PP17966   8.974   4.820   0.118 -0.2170  0.0662  0.0651
 7863PP      PP17967  13.521  11.692  13.100  0.0319  0.0595 -0.3240
 7864PP      PP17968   5.916   1.432  10.421  0.6069  0.0447 -0.0991
 7865PP      PP17969  15.312  13.550  11.727  0.1163  0.0124  0.1736
 7866PP      PP17970   8.889   8.715   3.457 -0.0596 -0.2589  0.0431
 7867PP      PP17971   1.438  14.539  10.908  0.2353 -0.0460  0.1369
 7868PP      PP17972   1.615  11.181  11.676  0.1638 -0.2537 -0.1590
 7869PP      PP17973   6.809   9.614  11.962 -0.0841 -0.2929  0.1013
 7870PP      PP17974   3.911   8.558   3.256 -0.2154  0.2164 -0.1062
 7871PP      PP17975   4.977  14.136   2.182 -0.3130  0.1196  0.1136
 7872PP      PP17976  11.743   1.243   0.966  0.0665 -0.0117 -0.2011
 7873PP      PP17977  15.195   6.662  12.789 -0.0964  0.2336  0.0347
 7874PP      PP17978   7.604   6.088  10.834  0.2529 -0.0234  0.0061
 7875PP      PP17979   5.918   4.545  12.856  0.1777 -0.3643 -0.4672
 7876PP      PP17980   1.026  12.128  12.030  0.0093  0.1294 -0.0404
 7877PP      PP17981   4.928   1.243  10.073 -0.2151  0.1494 -0.0413
 7878PP      PP17982   8.818  12.028  12.418 -0.0379  0.0732  0.1444
 7879PP      PP17983  13.549   0.315   2.243 -0.3379 -0.1750 -0.1815
 7880PP      PP17984   6.936  15.282   4.167  0.0501 -0.0205  0.2106
 7881PP      PP17985  10.393   2.908   9.116 -0.0297 -0.1450 -0.0009
 7882PP      PP17986   1.851   3.511  11.505 -0.0549 -0.3036 -0.2750
 7883PP      PP17987  10.714   0.248  11.867  0.2047  0.2121  0.0149
 7884PP      PP17988   2.124   1.373  12.168  0.1073  0.3143  0.0939
 7885PP      PP17989   7.169   2.681  10.635  0.0868  0.2773  0.1532
 7886PP      PP17990  15.551   9.399   0.591  0.0745 -0.2030 -0.1473
 7887PP      PP17991   0.965  12.112   8.233 -0.0227 -0.1945  0.3264
 7888PP      PP17992   9.947   9.624   2.238  0.1715  0.0861  0.0461
 7889PP      PP17993   5.624   1.230  13.120  0.2274 -0.1459  0.0358
 7890PP      PP17994   5.325   8.245   9.463 -0.2829 -0.0426 -0.2933
 7891PP      PP17995   8.500  12.824  12.293  0.1191  0.0525 -0.0235
 7892PP      PP17996   1.944   9.289  12.820  0.0390  0.1494  0.0483
 7893PP      PP17997   2.906  13.608  11.742 -0.6478 -0.1555  0.1970
 7894PP      PP17998   9.938   2.696  12.937  0.0368  0.1061 -0.2670
 7895PP      PP17999   0.694   7.167   0.292 -0.0467  0.1142 -0.1240
 7896PP      PP18000  11.733   0.330   2.605 -0.2199  0.0500  0.0706
 7897PP      PP18001   5.324  15.255   9.349 -0.1440  0.2331 -0.0801
 7898PP      PP18002   0.945   5.763   3.208  0.2827  0.0268  0.2315
 7899PP      PP18003   7.425  10.938  12.495  0.4185  0.2001 -0.3214
 7900PP      PP18004   9.909   8.518   8.762 -0.2585 -0.0189 -0.2860
 7901PP      PP18005   2.112   8.526  11.715  0.0069  0.0611  0.0205
 7902PP      PP18006   2.170  15.353  13.171  0.0272  0.2891  0.0612
 7903PP      PP18007   0.196   2.821   8.327 -0.3854  0.2710  0.1326
 7904PP      PP18008   2.234   0.278   8.948  0.0114  0.3060  0.0415
 7905PP      PP18009  15.147   8.555  11.352  0.0317  0.2374 -0.0125
 7906PP      PP18010   1.089  10.747   1.832 -0.0701 -0.1930 -0.3761
 7907PP      PP18011  12.745   3.486   2.144  0.0099  0.0636 -0.0580
 7908PP      PP18012  10.387   6.450  10.250  0.0216  0.1724 -0.7045
 7909PP      PP18013   8.801   2.290  11.483  0.0410 -0.1265 -0.1201
 7910PP      PP18014  13.811  12.116   8.992  0.0912  0.0190 -0.1136
 7911PP      PP18015  13.398  15.389  10.100 -0.3573 -0.1708  0.2429
 7912PP      PP18016   3.273   8.585   2.639  0.0746  0.0781  0.3411
 7913PP      PP18017   8.997   0.282  11.173  0.0780  0.1436  0.0072
 7914PP      PP18018   7.819   3.534   2.780  0.3426 -0.1369  0.0820
 7915PP      PP18019  13.741   9.554  10.918 -0.0887 -0.0350 -0.0566
 7916PP      PP18020   8.446   4.633   4.228  0.3493  0.2981 -0.0627
 7917PP      PP18021  10.464   2.301  11.152  0.1986  0.1172 -0.1548
 7918PP      PP18022  12.815   5.636   4.079  0.1096  0.0004  0.0779
 7919PP      PP18023   7.958   4.786   3.509 -0.1594  0.2943 -0.2240
 7920PP      PP18024  15.396   4.922  12.803 -0.0067 -0.1797  0.0447
 7921PP      PP18025   3.743   8.567   0.837  0.1425 -0.1316 -0.2848
 7922PP      PP18026   5.065  10.672   2.844  0.1417  0.0210  0.0104
 7923PP      PP18027   9.790   6.186   2.787 -0.4579  0.1745  0.4320
 7924PP      PP18028   0.091   7.646   2.866  0.0363  0.0919  0.0031
 7925PP      PP18029   1.511   4.673  12.040  0.3432 -0.2099  0.1974
 7926PP      PP18030   9.415  10.881   4.404  0.2801  0.0714  0.2932
 7927PP      PP18031   3.346   5.799   0.675  0.3287  0.0519  0.1431
 7928PP      PP18032   9.337   9.588   0.796 -0.0348  0.0808  0.0638
 7929PP      PP18033   7.834   5.860  10.320 -0.1175  0.0801  0.1920
 7930PP      PP18034  13.121  10.513   8.639 -0.0036  0.1862  0.0803
 7931PP      PP18035  14.628   9.023   9.622  0.1713  0.1660 -0.3340
 7932PP      PP18036  11.781   1.572  11.018 -0.0540 -0.1153  0.5702
 7933PP      PP18037   2.829   2.277  11.962  0.1874 -0.4044  0.1343
 7934PP      PP18038  15.839  12.232   8.185 -0.2343 -0.1668  0.0718
 7935PP      PP18039  10.786  13.695   3.229 -0.0648  0.1139 -0.0812
 7936PP      PP18040   2.643  12.912  10.550  0.0943  0.1374  0.1175
 7937PP      PP18041  12.207  14.925   1.318  0.0997  0.2351 -0.0730
 7938PP      PP18042  12.328   9.939   1.024 -0.0599  0.1629  0.1083
 7939PP      PP18043  10.212  11.458   4.039  0.1805  0.0670 -0.0175
 7940PP      PP18044  13.127   4.513  11.487 -0.0323  0.0242 -0.1990
 7941PP      PP18045   8.837   5.538   3.171  0.2299 -0.1630 -0.0260
 7942PP      PP18046   8.156   6.705   2.313  0.2560 -0.1744 -0.0045
 7943PP      PP18047   7.824   8.608   2.953  0.2327 -0.0681  0.0339
 7944PP      PP18048  11.626   8.178   2.438 -0.0109 -0.0745  0.0781
 7945PP      PP18049   6.309   6.299   9.103 -0.3453 -0.0081  0.2734
 7946PP      PP18050   9.458   9.155   4.730 -0.0072 -0.0703 -0.3746
 7947PP      PP18051  10.127   4.915  12.836 -0.2347 -0.0391 -0.0785
 7948PP      PP18052  13.487   1.295   9.620  0.0853 -0.1910  0.0375
 7949PP      PP18053  14.509   5.854   1.900  0.0673  0.1123  0.1841
 7950PP      PP18054   1.600   6.738   4.517  0.3170 -0.1670  0.2303
 7951PP      PP18055  12.682   0.766   1.669 -0.0319 -0.1515  0.0830
 7952PP      PP18056   1.484   4.178   9.886 -0.0299 -0.4149  0.1488
 7953PP      PP18057   0.460   5.024   0.639  0.0426  0.1510  0.2358
 7954PP      PP18058   1.869   8.869   2.272 -0.1110  0.2206 -0.0801
 7955PP      PP18059  11.563   0.451   0.482  0.3016  0.0949  0.1135
 7956PP      PP18060   7.617   7.135   0.265 -0.4468 -0.0127  0.2184
 7957PP      PP18061  15.303   8.902   0.451  0.1974 -0.1629  0.0652
 7958PP      PP18062   4.220  13.597   1.680  0.3085 -0.0456  0.0433
 7959PP      PP18063  10.807   1.752   0.927 -0.0875  0.0125 -0.1362
 7960PP      PP18064   2.744  13.546  13.058 -0.1479 -0.0879 -0.1697
 7961PP      PP18065   8.100   8.453  12.152  0.0884 -0.0361 -0.0829
 7962PP      PP18066   2.169   2.582  12.544  0.0192  0.2859 -0.0456
 7963PP      PP18067   3.264   7.029   0.677 -0.2027 -0.1310 -0.1628
 7964PP      PP18068  13.473  12.129  12.492  0.0082 -0.1805 -0.1490
 7965PP      PP18069  13.789   1.716   2.804 -0.0779 -0.2906  0.1154
 7966PP      PP18070  11.934   3.610   9.606 -0.2984 -0.0015 -0.3049
 7967PP      PP18071   0.703  12.165   8.676  0.1557  0.2690 -0.4105
 7968PP      PP18072   6.436   9.366   1.257  0.1069 -0.0407 -0.0150
 7969PP      PP18073   9.976  10.971   0.989  0.0670 -0.2823  0.1017
 7970PP      PP18074   9.683   8.111   4.742  0.2442 -0.1338 -0.2747
 7971PP      PP18075   3.716  11.168  10.763  0.1232 -0.1963 -0.0495
 7972PP      PP18076  14.066  12.804   9.644  0.1006  0.3268 -0.1358
 7973PP      PP18077   7.059   1.583   3.554 -0.2676  0.0964 -0.0160
 7974PP      PP18078  14.880  12.021  12.063  0.0433  0.1913 -0.4714
 7975PP      PP18079   6.465  12.029   1.722  0.0762 -0.1149  0.0167
 7976PP      PP18080   9.124   7.688   0.202  0.0427  0.2586 -0.1388
 7977PP      PP18081   7.167  14.276  12.541 -0.4354 -0.2518 -0.0970
 7978PP      PP18082   7.587   1.956  10.458 -0.0386 -0.1955  0.1081
 7979PP      PP18083  10.049  10.304  11.417 -0.0203 -0.2609  0.0688
 7980PP      PP18084   9.447   9.685   2.453 -0.1012  0.0758  0.0026
 7981PP      PP18085   7.834   1.883   9.461 -0.1703  0.1058  0.0501
 7982PP      PP18086   1.127   1.801   3.206  0.0050 -0.0558  0.1629
 7983PP      PP18087  11.120  15.100  13.092  0.0422  0.0185 -0.1549
 7984PP      PP18088   9.929   7.972   4.141 -0.1050 -0.1579  0.3870
 7985PP      PP18089  10.920   8.033   1.856 -0.0696 -0.1064  0.2420
 7986PP      PP18090  10.661   7.320  12.714  0.3834 -0.2408  0.1146
 7987PP      PP18091   7.936   8.707   9.605 -0.2139 -0.1589 -0.0971
 7988PP      PP18092   0.047  11.938  12.953 -0.2193 -0.3960 -0.1176
 7989PP      PP18093  14.403  15.262   1.454  0.0084  0.1026  0.1264
 7990PP      PP18094  14.797  14.445   1.092  0.2678 -0.1437 -0.4069
 7991PP      PP18095  13.230  12.668  11.785  0.2206 -0.1755  0.2109
 7992PP      PP18096   4.559   2.437   2.834  0.1775  0.2274  0.1708
 7993PP      PP18097   3.670   0.628   2.749  0.0312  0.1547  0.0665
 7994PP      PP18098   5.395   3.790  10.535  0.0468  0.1675  0.0839
 7995PP      PP18099  14.556  12.076   1.821  0.2385  0.4152 -0.1745
 7996PP      PP18100  14.006   8.179   4.193  0.1011  0.5014  0.0608
 7997PP      PP18101   5.368  12.632  10.656 -0.3836  0.2263 -0.0418
 7998PP      PP18102  15.072  13.249   0.476 -0.2369 -0.2994 -0.1179
 7999PP      PP18103  11.970  10.960   1.804  0.2186 -0.1089 -0.1660
 8000PP      PP18104  15.200   8.960   9.744  0.0094  0.2279  0.1397
 8001PP      PP18105   6.495   4.154   1.594 -0.0303 -0.2851 -0.1297
 8002PP      PP18106   8.791   0.044   2.404 -0.0921  0.0777 -0.1767
 8003PP      PP18107  13.967  12.641   2.293  0.1992 -0.0312  0.0262
 8004PP      PP18108  13.722   8.642   9.757  0.1024 -0.0440 -0.1045
 8005PP      PP18109   5.066  15.544   4.070 -0.1132 -0.0277 -0.2965
 8006PP      PP18110   2.633   2.116  10.558 -0.2198 -0.0863  0.0881
 8007PP      PP18111   4.927  11.008   0.717  0.0831  0.0649 -0.1171
 8008PP      PP18112   4.243   7.655   0.571  0.1115 -0.1266 -0.3608
 8009PP      PP18113   4.224   6.567   9.313 -0.1973  0.1337  0.1225
 8010PP      PP18114   9.144   5.026  12.541 -0.0970 -0.2740  0.1142
 8011PP      PP18115   9.046   5.360  11.607 -0.0874 -0.1397  0.2503
 8012PP      PP18116   9.889   3.323  12.144 -0.0729 -0.2453 -0.0480
 8013PP      PP18117   5.422  11.633   2.699 -0.1233 -0.1653 -0.0412
 8014PP      PP18118   7.443   3.721   3.482  0.1636 -0.0033  0.2966
 8015PP      PP18119   8.752   9.000  12.642  0.0681 -0.0722 -0.3516
 8016PP      PP18120   6.779   0.710   1.312  0.0866  0.0030 -0.4101
 8017PP      PP18121   8.894  12.166   9.477 -0.0723  0.2280 -0.0515
 8018PP      PP18122   8.051   8.134  10.857 -0.2669  0.0229  0.3545
 8019PP      PP18123   5.690   4.591   9.047 -0.1441 -0.2184 -0.2029
 8020PP      PP18124   5.411  13.905   2.445  0.1011  0.2832 -0.2513
 8021PP      PP18125   1.964   2.746   1.123  0.3297 -0.1362 -0.0759
 8022PP      PP18126   5.925   1.411  10.974  0.3072  0.1287  0.0933
 8023PP      PP18127  12.315  10.469   4.040 -0.2304  0.2750 -0.0884
 8024PP      PP18128   0.985   7.450  10.823 -0.0163 -0.1394 -0.1270
 8025PP      PP18129   5.347   3.520   2.599 -0.0837  0.2490  0.0651
 8026PP      PP18130   3.696  12.955  12.717 -0.1685 -0.1075 -0.0536
 8027PP      PP18131   8.989   6.376  10.144 -0.1848 -0.1271  0.0032
 8028PP      PP18132   5.475  13.744  11.175 -0.4238 -0.3040 -0.0459
 8029PP      PP18133   0.589   6.455   1.433 -0.2759 -0.0056 -0.0346
 8030PP      PP18134   7.699  14.385   3.638 -0.0839  0.1405 -0.1448
 8031PP      PP18135   4.777   4.344   8.670 -0.0984  0.1596 -0.0749
 8032PP      PP18136   7.175  14.672  12.954 -0.0282  0.0257  0.2856
 8033PP      PP18137   0.538  11.933   1.276  0.2171 -0.1511  0.2566
 8034PP      PP18138   7.447   5.382   3.710  0.2534 -0.1378  0.0210
 8035PP      PP18139  12.755   1.226  13.183  0.5031 -0.1088  0.1227
 8036PP      PP18140  10.179   7.455   0.967 -0.1345  0.0925 -0.1885
 8037PP      PP18141   2.718   5.623  10.938  0.0737  0.3672 -0.0671
 8038PP      PP18142   8.239  12.133   2.714 -0.0653 -0.3713  0.1658
 8039PP      PP18143   4.247  15.603   1.027 -0.2720 -0.0610  0.0058
 8040PP      PP18144  15.408   1.948  12.679 -0.1219  0.1617  0.1385
 8041PP      PP18145  14.858   2.693   8.115 -0.1607 -0.0834 -0.4010
 8042PP      PP18146   6.903  10.999   1.773  0.0510  0.0825  0.1495
 8043PP      PP18147   2.364   2.187   8.114 -0.1713 -0.1511  0.0403
 8044PP      PP18148   3.506   7.071  11.027 -0.0056 -0.4614  0.0072
 8045PP      PP18149   0.646   7.840  12.475  0.1621 -0.0523  0.3870
 8046PP      PP18150  10.042   4.216   0.757 -0.2018 -0.1568 -0.0690
 8047PP      PP18151  13.576   0.038   2.717  0.2349 -0.1695 -0.3064
 8048PP      PP18152   3.523   1.992   2.406 -0.1991  0.1682  0.3588
 8049PP      PP18153   9.362  11.957  12.996 -0.0358 -0.3754  0.0235
 8050PP      PP18154   4.423   9.460  12.814  0.0315 -0.0897  0.4184
 8051PP      PP18155  15.719  15.658  10.637 -0.1591  0.3980  0.0929
 8052PP      PP18156   5.254   6.473  11.985 -0.3872  0.1058 -0.1545
 8053PP      PP18157  15.103  15.501  11.036  0.3622  0.2036 -0.0335
 8054PP      PP18158  14.638   4.786   2.415  0.0746 -0.1310  0.2415
 8055PP      PP18159   2.998   1.460   8.776 -0.2435  0.1782  0.0955
 8056PP      PP18160   3.677   9.889  12.664 -0.2512 -0.1453  0.1389
 8057PP      PP18161  13.636   9.161   3.789  0.0798  0.0207 -0.0467
 8058PP      PP18162   3.808   8.766  12.630  0.0937 -0.2749  0.1632
 8059PP      PP18163   8.407  10.043   4.475 -0.1299 -0.0011  0.1311
 8060PP      PP18164  14.575  14.220  13.083  0.0356 -0.0480  0.0895
 8061PP      PP18165   2.972   0.356  13.149 -0.0477  0.2252  0.0139
 8062PP      PP18166   2.867  11.041   3.985 -0.1037 -0.0417  0.0069
 8063PP      PP18167   8.974   7.566  10.753 -0.1251  0.0607 -0.2708
 8064PP      PP18168   6.824   8.293  12.329  0.0636 -0.2141 -0.2845
 8065PP      PP18169   9.837   8.013   8.926 -0.0965 -0.0734  0.0171
 8066PP      PP18170   6.438  13.004   0.855  0.0524 -0.0389  0.1260
 8067PP      PP18171   6.359   7.225   4.376  0.2326  0.2506 -0.1166
 8068PP      PP18172   5.076  14.673  10.712 -0.2183 -0.1193  0.2352
 8069PP      PP18173   3.526   1.057   8.312  0.1081  0.0531 -0.0541
 8070PP      PP18174  10.774   0.317  11.257 -0.3865  0.1753 -0.0843
 8071PP      PP18175   3.263   8.969  10.595  0.0598  0.2303 -0.1409
 8072PP      PP18176  12.716   3.838   9.655 -0.0875 -0.0131 -0.1351
 8073PP      PP18177   9.763  14.824  10.563  0.0356  0.0459  0.2554
 8074PP      PP18178  12.020   8.331   1.134  0.0004 -0.1426 -0.0251
 8075PP      PP18179   7.998  13.587  12.882  0.0635 -0.1642 -0.2037
 8076PP      PP18180   7.613   1.645   2.956 -0.1091  0.2446 -0.1082
 8077PP      PP18181   9.948  15.574   0.565  0.1582  0.1612  0.2785
 8078PP      PP18182   1.111   6.473  12.518  0.1967 -0.1383 -0.0164
 8079PP      PP18183   9.643   4.958  10.894  0.2490 -0.0838  0.0383
 8080PP      PP18184  10.680  14.360   2.516  0.1332 -0.0253 -0.1457
 8081PP      PP18185  14.635   4.941  12.764 -0.1627  0.0470 -0.1352
 8082PP      PP18186  15.131   3.976  12.907 -0.2561 -0.0343  0.1122
 8083PP      PP18187  13.173  14.852  10.188  0.0786 -0.0361 -0.3105
 8084PP      PP18188   6.614  12.343   2.175  0.3559 -0.0406 -0.1006
 8085PP      PP18189  15.709  10.015   4.054  0.1140 -0.0356 -0.1015
 8086PP      PP18190  10.247  13.714   4.057  0.1679  0.2633  0.0315
 8087PP      PP18191  11.678  14.178   4.105  0.2210  0.1440 -0.4034
 8088PP      PP18192   2.962  14.863   2.638 -0.1126  0.0094 -0.0231
 8089PP      PP18193   8.787   7.834   4.387 -0.2338  0.3619 -0.0418
 8090PP      PP18194  13.633   2.623   0.782 -0.0785  0.4299  0.2474
 8091PP      PP18195   4.667   6.376  13.184 -0.4102 -0.1425 -0.1425
 8092PP      PP18196   8.735   3.523   2.401 -0.0536 -0.2148 -0.0008
 8093PP      PP18197   1.856   9.433   0.778  0.2035 -0.0555 -0.3344
 8094PP      PP18198   3.396   0.870  11.090 -0.4055 -0.3898 -0.2336
 8095PP      PP18199   9.512  15.254   1.022 -0.1850 -0.1777  0.1965
 8096PP      PP18200  14.108  14.869  12.924 -0.1463 -0.2017  0.0024
 8097PP      PP18201  14.961   6.177  13.248  0.2086 -0.1293 -0.0411
 8098PP      PP18202   9.846   8.947   3.119  0.1768  0.3156 -0.1829
 8099PP      PP18203  12.401  12.856  12.257 -0.1895  0.3538  0.3260
 8100PP      PP18204   2.992   5.293   8.989 -0.0573  0.2349  0.1006
 8101PP      PP18205   3.195  10.780  12.438  0.0785  0.1526 -0.0126
 8102PP      PP18206   4.401  12.393  10.176  0.2580 -0.0349  0.1176
 8103PP      PP18207   1.981   4.411  11.363 -0.1663  0.0224 -0.0637
 8104PP      PP18208  14.020   2.333   0.407 -0.3658 -0.2274  0.1556
 8105PP      PP18209   5.327  11.934   1.405  0.1967 -0.2554 -0.1162
 8106PP      PP18210   4.293  10.200   3.829 -0.0765  0.3050 -0.0768
 8107PP      PP18211   5.849   7.330   3.739  0.1539 -0.0060 -0.2364
 8108PP      PP18212   9.560   2.208   1.660 -0.4200  0.0941  0.4094
 8109PP      PP18213   7.870   5.761  13.314  0.2826  0.0648  0.2638
 8110PP      PP18214   6.629   1.833  11.222  0.0077  0.4119 -0.0942
 8111PP      PP18215  13.141   3.292   0.229  0.1761  0.1744  0.2498
 8112PP      PP18216  12.925   7.329   1.389  0.1471  0.1175 -0.1096
 8113PP      PP18217   0.475  11.092  10.105 -0.0410 -0.0902  0.2548
 8114PP      PP18218  14.643   6.089  12.612  0.0655  0.0623 -0.0458
 8115PP      PP18219   2.613  11.190  10.095  0.0514 -0.3188  0.1427
 8116PP      PP18220   0.749  14.514  13.134 -0.1434 -0.1264  0.1648
 8117PP      PP18221  13.995   2.641  12.224  0.2676  0.1252  0.0077
 8118PP      PP18222   8.151   1.400   1.993 -0.0170  0.3971 -0.3965
 8119PP      PP18223   6.462   6.004   2.273  0.0138 -0.2626  0.2226
 8120PP      PP18224  12.606   8.650  12.003 -0.1357 -0.2439 -0.0255
 8121PP      PP18225  10.133  15.187   3.015 -0.1263 -0.0552 -0.0483
 8122PP      PP18226   6.916   2.202   1.117  0.0999 -0.0886  0.1751
 8123PP      PP18227   0.619   9.254   2.738 -0.0730  0.1730 -0.1185
 8124PP      PP18228   3.932  11.044  12.649  0.1447 -0.3389 -0.3338
 8125PP      PP18229   2.562   5.998   0.103 -0.0450  0.0823 -0.4363
 8126PP      PP18230   6.014  10.004   2.653 -0.0654  0.1171 -0.0125
 8127PP      PP18231   6.011   2.372   3.931 -0.1557  0.0060 -0.0520
 8128PP      PP18232   0.556   6.842  10.268  0.2888 -0.1846  0.4048
 8129PP      PP18233   0.025   7.845   1.033 -0.1326 -0.1774 -0.0656
 8130PP      PP18234   1.101   3.627  12.801 -0.0323  0.1337  0.0124
 8131PP      PP18235   5.875   5.883  11.886  0.0881 -0.1353 -0.0544
 8132PP      PP18236   1.392   2.610  12.792 -0.0301  0.3662  0.0682
 8133PP      PP18237   1.512   9.721   1.825 -0.1244  0.1418 -0.3353
 8134PP      PP18238   9.031   1.088  10.108 -0.5355  0.2415  0.1160
 8135PP      PP18239   4.549   0.052  12.094 -0.0644  0.1127  0.2858
 8136PP      PP18240   3.988  14.999   0.802 -0.4532 -0.0649 -0.0801
 8137PP      PP18241  11.804   8.261  12.208  0.1827  0.2341 -0.0359
 8138PP      PP18242   6.791   7.107  10.288 -0.0036  0.0615 -0.2396
 8139PP      PP18243   7.776   3.969  12.679  0.1738 -0.2491 -0.3412
 8140PP      PP18244  13.744  15.896   3.312  0.2830  0.0352  0.1706
 8141PP      PP18245  15.331   5.830  13.330  0.0566 -0.1808 -0.2172
 8142PP      PP18246  13.718  11.166   0.568  0.2633  0.0910  0.0861
 8143PP      PP18247   5.573   9.129   0.350  0.0204  0.0997  0.2170
 8144PP      PP18248   2.929   9.473  13.068  0.0601 -0.3296  0.2453
 8145PP      PP18249   8.343   6.044  11.581 -0.0671 -0.0975 -0.0700
 8146PP      PP18250   6.476   3.884  12.432  0.0515  0.2448  0.0585
 8147PP      PP18251   3.079   5.651   8.601  0.2354 -0.1924  0.0630
 8148PP      PP18252   1.470  10.845   1.113  0.0693 -0.1340 -0.0976
 8149PP      PP18253  14.428  15.619   8.270 -0.0384 -0.1726 -0.0017
 8150PP      PP18254   7.875   1.455   4.383 -0.0937 -0.1866 -0.0174
 8151PP      PP18255  14.096   3.789   3.856 -0.0392  0.0704 -0.0689
 8152PP      PP18256  12.827  13.975  12.796 -0.3771  0.0280  0.0848
 8153PP      PP18257   9.707   4.392   1.908  0.0305 -0.2749  0.2069
 8154PP      PP18258   9.383  11.918   2.005 -0.1210 -0.0674 -0.1709
 8155PP      PP18259  14.339  14.016   9.851 -0.3523  0.2720  0.0624
 8156PP      PP18260  10.641   5.490   3.600 -0.1660 -0.2882  0.0408
 8157PP      PP18261   9.701   5.847  12.266  0.1821  0.1342 -0.3034
 8158PP      PP18262   4.400   1.653  11.769 -0.2916  0.0338  0.2407
 8159PP      PP18263   3.486   4.192  11.247 -0.0272 -0.0431 -0.0592
 8160PP      PP18264   6.825  11.753   1.443  0.4260  0.0861 -0.0604
 8161PP      PP18265   6.348   3.543   1.389 -0.0158  0.0273 -0.1606
 8162PP      PP18266  13.594  10.555  10.478 -0.3020 -0.0424  0.0038
 8163PP      PP18267  14.652   1.831   3.870  0.2795  0.1704  0.2339
 8164PP      PP18268   6.800   9.956  13.029 -0.2635 -0.4047 -0.2096
 8165PP      PP18269  13.575   7.923   1.397 -0.2411  0.1036  0.1397
 8166PP      PP18270   3.444  15.628  10.711  0.1395  0.1587 -0.0898
 8167PP      PP18271  13.806   1.194   2.157 -0.0399 -0.0092 -0.0471
 8168PP      PP18272   5.706   8.629   0.698  0.0509 -0.2599 -0.0025
 8169PP      PP18273  11.166   5.809   0.413  0.3155  0.1713  0.1568
 8170PP      PP18274  11.161   8.670   2.800 -0.2704  0.0491 -0.2166
 8171PP      PP18275  12.281  11.781  10.937 -0.0074  0.0336  0.0118
 8172PP      PP18276   2.594   7.346   9.265  0.0529  0.0912 -0.1148
 8173PP      PP18277   4.617  15.741   0.744  0.1394  0.0832 -0.0443
 8174PP      PP18278  12.177   2.785   1.300 -0.1051 -0.1919  0.0224
 8175PP      PP18279   5.511   0.975   2.942  0.0729 -0.0771  0.1333
 8176PP      PP18280  12.274   1.322   3.648 -0.1557  0.1422 -0.0623
 8177PP      PP18281   3.950  12.809   1.307  0.1437 -0.5742  0.2300
 8178PP      PP18282   6.235   8.029   9.140 -0.5737  0.1174 -0.0206
 8179PP      PP18283   4.581   5.195   2.868 -0.1919  0.1549  0.1306
 8180PP      PP18284   4.962  11.877   1.048 -0.3545 -0.1976 -0.4531
 8181PP      PP18285   6.002  14.461   8.247  0.0807  0.1838 -0.0222
 8182PP      PP18286  14.855   4.703   9.471 -0.0950  0.2371 -0.0830
 8183PP      PP18287   8.080  11.692   1.317  0.1441 -0.3095 -0.0425
 8184PP      PP18288   0.501  14.541   8.495 -0.1349  0.1080  0.0102
 8185PP      PP18289   7.105   9.733  13.371  0.1766 -0.0334  0.1452
 8186PP      PP18290   8.341  10.287   8.895  0.0764 -0.0211 -0.0780
 8187PP      PP18291  11.496  14.811  12.899 -0.1791  0.2027 -0.0434
 8188PP      PP18292  13.646  14.467  12.872  0.0250 -0.1503 -0.1392
 8189PP      PP18293   0.853   3.153  10.017 -0.1691  0.0012 -0.0068
 8190PP      PP18294  15.219  13.300  12.367 -0.1087  0.1060 -0.1429
 8191PP      PP18295  11.524   5.406   0.340 -0.0559  0.1273 -0.2079
 8192PP      PP18296   4.464   3.855  10.941  0.1511  0.3429  0.1652
 8193PP      PP18297   5.604  12.733  11.512  0.1102  0.1555  0.2925
 8194PP      PP18298  14.762  15.277   1.002 -0.2360 -0.0795 -0.2578
 8195PP      PP18299  14.424   7.659  12.259  0.1931 -0.0317  0.2542
 8196PP      PP18300  13.537  10.668   3.324 -0.0271  0.1316 -0.1143
 8197PP      PP18301   4.395  13.850  12.347  0.2945 -0.1997 -0.2429
 8198PP      PP18302   5.797   7.399   3.201 -0.1279 -0.0769 -0.0893
 8199PP      PP18303   9.844  15.697   1.103 -0.3134 -0.1945  0.1588
 8200PP      PP18304   4.702   4.963  10.946 -0.0286 -0.2847  0.4057
 8201PP      PP18305  10.857  11.921   1.324 -0.3711  0.1413  0.2981
 8202PP      PP18306   3.203   4.979  12.812  0.2581 -0.3237 -0.0546
 8203PP      PP18307   1.449  11.046   9.165 -0.1575 -0.2876 -0.0292
 8204PP      PP18308  12.860  14.467  12.991 -0.0898 -0.0450  0.1134
 8205PP      PP18309  11.012   3.095  12.128  0.4572 -0.1901  0.0995
 8206PP      PP18310  11.935  10.818   3.579 -0.0393 -0.1899  0.1802
 8207PP      PP18311  11.745   6.602   0.206  0.3717 -0.2201  0.1203
 8208PP      PP18312   8.014  14.300   2.240  0.3151  0.0087 -0.0505
 8209PP      PP18313   5.556   9.847   1.975  0.1567  0.0228 -0.3143
 8210PP      PP18314   2.506  10.923  13.292  0.2077  0.0722 -0.5333
 8211PP      PP18315   9.183  13.701   2.319  0.1832 -0.1817  0.1323
 8212PP      PP18316  14.769   8.155  11.197  0.1829 -0.1816 -0.1934
 8213PP      PP18317   8.299  13.704   2.082 -0.1674 -0.1287 -0.1075
 8214PP      PP18318  12.172   0.933  10.839 -0.0010  0.2618  0.0994
 8215PP      PP18319  15.588   8.830  11.438  0.4760  0.0820  0.1051
 8216PP      PP18320   8.053  15.745   3.974 -0.0161 -0.1327  0.0668
 8217PP      PP18321   8.175  12.455   1.264 -0.0299  0.0090 -0.0278
 8218PP      PP18322   5.995   1.299  12.665 -0.2071 -0.0638 -0.1933
 8219PP      PP18323   5.995   7.597   9.108  0.0708  0.4206  0.1373
 8220PP      PP18324   7.668  14.542   1.319 -0.1661 -0.0121  0.1085
 8221PP      PP18325  11.699  14.251  12.270  0.0153  0.1980  0.0929
 8222PP      PP18326   6.189   7.466  12.845  0.0209 -0.2524 -0.2428
 8223PP      PP18327   5.718  12.513  10.213 -0.0991  0.0950  0.0230
 8224PP      PP18328  13.328   3.317   9.782  0.2289 -0.1031 -0.0328
 8225PP      PP18329  15.582  15.840   7.536  0.0106  0.2090  0.1562
 8226PP      PP18330   3.581  11.659   9.329 -0.0380 -0.1461 -0.3602
 8227PP      PP18331  10.473  10.775   3.408  0.0222 -0.1975  0.0420
 8228PP      PP18332  10.020   9.606   9.946  0.0267  0.1280 -0.1098
 8229PP      PP18333   7.379  15.526  11.989  0.2193 -0.0998 -0.0333
 8230PP      PP18334   3.860   8.127   2.515 -0.0745 -0.2624  0.1693
 8231PP      PP18335  12.575   1.155   2.115  0.0006 -0.0910 -0.0318
 8232PP      PP18336   6.228   5.114  12.084  0.2402  0.0984 -0.0087
 8233PP      PP18337   8.354  10.961   8.312 -0.3180 -0.0297 -0.0427
 8234PP      PP18338  12.392   9.120  11.117 -0.1108 -0.5590 -0.3833
 8235PP      PP18339   3.897   2.098   0.412  0.1111  0.1599 -0.0279
 8236PP      PP18340   7.961   4.784   4.036  0.1738 -0.0252  0.1963
 8237PP      PP18341  14.323   5.201  11.905  0.1294 -0.3467 -0.0783
 8238PP      PP18342   5.100   4.726  11.110 -0.0889 -0.0977 -0.0672
 8239PP      PP18343   9.192   9.081   9.001 -0.2380 -0.1927  0.1869
 8240PP      PP18344   3.737   2.472   1.602  0.2318 -0.0963  0.1957
 8241PP      PP18345  14.115  14.231   3.638  0.3009 -0.0523  0.2589
 8242PP      PP18346   9.305   6.946   2.178  0.0886  0.2828 -0.2279
 8243PP      PP18347  11.309   1.464   9.325 -0.1836 -0.2466  0.0321
 8244PP      PP18348  12.321  13.445  12.642 -0.2696  0.1062 -0.1113
 8245PP      PP18349  14.405   6.013   1.424 -0.1194  0.1335  0.0431
 8246PP      PP18350  14.266   7.285   9.733 -0.1325 -0.1937 -0.4009
 8247PP      PP18351   9.833  14.010   0.114 -0.3596  0.0363  0.0115
 8248PP      PP18352   6.806   6.326  10.865 -0.2607 -0.3963 -0.0690
 8249PP      PP18353   4.140  13.110  12.755 -0.0567 -0.1294  0.1066
 8250PP      PP18354  15.228  11.041   9.131 -0.0813 -0.0535  0.2609
 8251PP      PP18355  14.710   5.930   3.209  0.0947 -0.0660  0.0899
 8252PP      PP18356   3.002  13.176   1.519  0.1758 -0.2047  0.2024
 8253PP      PP18357  10.938   9.066   9.847 -0.2995 -0.2690 -0.2583
 8254PP      PP18358   3.602  15.292   0.432 -0.1531 -0.1685 -0.1364
 8255PP      PP18359  11.268   2.450  10.841 -0.4543 -0.0223 -0.0089
 8256PP      PP18360   0.573   3.651   8.795  0.2221 -0.0544  0.1011
 8257PP      PP18361   0.355   7.201   4.393 -0.0727  0.0053 -0.0009
 8258PP      PP18362  13.808  14.743  13.325 -0.4591 -0.1247  0.0468
 8259PP      PP18363   7.223   0.063  10.948 -0.1687  0.0564  0.0363
 8260PP      PP18364  13.491   2.283   3.464  0.1572 -0.0273  0.0418
 8261PP      PP18365   8.118  12.749   3.894  0.0827 -0.1415  0.0088
 8262PP      PP18366   6.551  12.193   9.063 -0.3029  0.1481 -0.0649
 8263PP      PP18367  10.613   4.513   1.630 -0.0807 -0.0554  0.2476
 8264PP      PP18368   9.051   8.822   2.135 -0.2671 -0.1811 -0.0528
 8265PP      PP18369  11.129  11.769  10.857  0.1366 -0.0103  0.2429
 8266PP      PP18370  14.546   7.687   4.707  0.0408 -0.2002 -0.0661
 8267PP      PP18371   0.774   6.529   0.548  0.1114  0.1427  0.0484
 8268PP      PP18372   5.295   4.446   3.153 -0.2474 -0.0440 -0.2121
 8269PP      PP18373   4.081   3.789   2.804  0.0105 -0.0638  0.1465
 8270PP      PP18374   2.585   5.985  10.088  0.1643  0.1746 -0.3428
 8271PP      PP18375  15.350  13.519   0.822  0.0699  0.2411 -0.2003
 8272PP      PP18376  10.669   6.959   9.276 -0.0853  0.1306  0.1141
 8273PP      PP18377   1.029   7.217   2.568 -0.0278 -0.1137 -0.1949
 8274PP      PP18378  10.805   2.882   0.085  0.1003  0.1039 -0.1323
 8275PP      PP18379   6.683   7.299  11.291 -0.0177  0.4328 -0.0731
 8276PP      PP18380   4.548   7.043   9.786 -0.0388  0.0471  0.2347
 8277PP      PP18381   7.527  13.149  11.997  0.0505 -0.0343  0.0775
 8278PP      PP18382   8.661  10.380   3.186 -0.2466 -0.0385  0.0324
 8279PP      PP18383   3.480   4.838  12.030 -0.0794  0.3106 -0.0689
 8280PP      PP18384   4.893  10.190  10.747  0.0054 -0.0028 -0.0987
 8281PP      PP18385   3.069  11.073  11.927 -0.0231 -0.2574 -0.0039
 8282PP      PP18386  14.984   6.940   3.870 -0.0434  0.0783 -0.0038
 8283PP      PP18387   7.937  11.000   0.768 -0.0147 -0.0923  0.2706
 8284PP      PP18388   0.554  14.965   1.655 -0.1323  0.0076 -0.1818
 8285PP      PP18389   6.235   7.203   3.443 -0.2646  0.1577  0.3880
 8286PP      PP18390  12.428   7.711   2.009  0.4267 -0.0417 -0.1764
 8287PP      PP18391  14.993   8.420   8.814  0.1427  0.2298  0.0210
 8288PP      PP18392   2.686   9.313  11.256 -0.5004  0.0983  0.0865
 8289PP      PP18393  12.041  11.784   4.024  0.1840 -0.2144  0.0313
 8290PP      PP18394   1.040  13.470  11.285  0.1628 -0.0898  0.2365
 8291PP      PP18395  11.247   7.116  10.983  0.0649  0.1933 -0.3130
 8292PP      PP18396   1.054   0.388  10.389  0.2137  0.0141 -0.2398
 8293PP      PP18397   6.934  10.670   0.400  0.0759 -0.0497 -0.0617
 8294PP      PP18398   7.651  15.364   1.803 -0.3226  0.0744 -0.0650
 8295PP      PP18399   0.901  11.119   2.728  0.0899 -0.1918  0.1898
 8296PP      PP18400  15.226   4.263  12.512 -0.1573 -0.1402 -0.1459
 8297PP      PP18401  15.111   0.548  10.094  0.1247  0.4026 -0.0460
 8298PP      PP18402  13.796   3.922   9.078 -0.2451  0.1830  0.1564
 8299PP      PP18403  14.126  11.080  13.118 -0.1775 -0.0673  0.1346
 8300PP      PP18404   9.068   8.671  11.822  0.0160 -0.2617  0.0774
 8301PP      PP18405   0.688  14.705  10.200 -0.0978  0.2081  0.1862
 8302PP      PP18406  14.793  15.363   2.437  0.2235 -0.0721  0.1079
 8303PP      PP18407   9.817   4.764   0.752  0.0524 -0.3235  0.1330
 8304PP      PP18408   7.008   5.811   8.889 -0.4242 -0.4110 -0.1885
 8305PP      PP18409  11.090   4.310  13.393 -0.6032 -0.0419 -0.2899
 8306PP      PP18410   9.042   7.699   3.250  0.0522 -0.0331 -0.0962
 8307PP      PP18411   2.688   3.721  13.037 -0.0006  0.0712  0.2545
 8308PP      PP18412  12.273   7.384   9.218 -0.0951 -0.1170  0.2210
 8309PP      PP18413   7.264   4.769   9.698 -0.2368 -0.2020 -0.1140
 8310PP      PP18414  14.515   9.994  10.046 -0.0629 -0.0360  0.0044
 8311PP      PP18415   8.692   2.630  12.363 -0.1717 -0.0229 -0.2800
 8312PP      PP18416   7.931   7.746  11.610 -0.1656 -0.1333 -0.0190
 8313PP      PP18417   6.498  10.401  12.119 -0.2142 -0.0429 -0.0711
 8314PP      PP18418  14.208   9.322  13.168 -0.0072 -0.0845  0.4564
 8315PP      PP18419  12.554  15.873   3.603 -0.0322  0.1503 -0.0429
 8316PP      PP18420   7.797   6.412   0.607 -0.0077 -0.0586  0.1757
 8317PP      PP18421   5.114   0.683   3.071 -0.0771 -0.0106  0.2348
 8318PP      PP18422   9.081  11.530   2.884  0.4657 -0.3464  0.0513
 8319PP      PP18423  11.351   9.129  10.161 -0.2346  0.0643 -0.0000
 8320PP      PP18424  11.923   6.403  11.953  0.0575 -0.2187  0.4073
 8321PP      PP18425   1.390  13.530  13.201  0.3558  0.1350  0.1779
 8322PP      PP18426  11.628  15.849  12.443 -0.5201 -0.2552 -0.0636
 8323PP      PP18427   2.498  14.437  12.728  0.1464  0.3392 -0.4148
 8324PP      PP18428   0.483  14.641  11.897  0.2151 -0.2187  0.1675
 8325PP      PP18429   6.234  10.537   3.575 -0.4783  0.1649  0.0788
 8326PP      PP18430  12.367   0.096  10.025 -0.0893  0.0810  0.1494
 8327PP      PP18431   5.542   6.005  13.213 -0.0842 -0.0729 -0.1106
 8328PP      PP18432   3.025  10.870   3.396  0.2976  0.0001 -0.0021
 8329PP      PP18433  12.888  11.648   3.589 -0.1044  0.2270 -0.1221
 8330PP      PP18434   6.145   3.373  12.686  0.0625 -0.1579  0.1242
 8331PP      PP18435   9.460   0.934  12.001 -0.0880  0.0960 -0.1445
 8332PP      PP18436   3.279  12.004  11.836 -0.1401  0.0188  0.2314
 8333PP      PP18437  13.914   2.513  11.338  0.0818  0.1487 -0.1860
 8334PP      PP18438   4.460   5.695   3.456  0.1367 -0.2646 -0.1378
 8335PP      PP18439   2.075   3.843  11.198  0.1022  0.2223 -0.0957
 8336PP      PP18440   9.025   6.535  12.666 -0.0616  0.2599  0.3320
 8337PP      PP18441   6.252   6.321   0.127 -0.3507  0.1259 -0.0312
 8338PP      PP18442   2.078   1.040   0.933  0.0501  0.0072 -0.0816
 8339PP      PP18443  13.285   2.128  12.933  0.1675  0.1617  0.0755
 8340PP      PP18444   1.176  11.500   2.913  0.2284  0.2932 -0.5042
 8341PP      PP18445   3.684  13.847   9.645  0.2529  0.0180 -0.2207
 8342PP      PP18446  14.428   2.595  10.109  0.0345  0.2276  0.3416
 8343PP      PP18447   0.859  12.569  12.046 -0.4733  0.1917 -0.1939
 8344PP      PP18448   1.421   5.786  13.129 -0.0456  0.1873  0.4614
 8345PP      PP18449  11.581  15.644  10.599  0.1844 -0.0563  0.1190
 8346PP      PP18450  10.804   5.215   3.256  0.2328  0.3636  0.2359
 8347PP      PP18451   9.557   8.508  10.870  0.0201 -0.1419 -0.0690
 8348PP      PP18452   4.620  14.557   9.937  0.2167  0.3016 -0.0093
 8349PP      PP18453   9.307   8.808   2.568 -0.4203 -0.3852 -0.2156
 8350PP      PP18454   1.852  12.215   2.650 -0.2252 -0.1442  0.2167
 8351PP      PP18455   4.376   4.622   8.467  0.2064 -0.0213 -0.0451
 8352PP      PP18456   1.485  10.870  10.609  0.1741  0.2205 -0.0638
 8353PP      PP18457   4.903   1.526  13.171 -0.1203  0.2005  0.0455
 8354PP      PP18458  10.051   9.443   9.440 -0.0354  0.1054  0.0165
 8355PP      PP18459  14.263  11.855   8.823  0.0245  0.0650 -0.0514
 8356PP      PP18460  13.711   0.207   3.794  0.0197 -0.1659  0.3812
 8357PP      PP18461   3.503  15.310   3.631 -0.0347  0.3941  0.2113
 8358PP      PP18462  13.855  14.971   1.111 -0.2159  0.3383  0.1296
 8359PP      PP18463  15.210   1.871   0.620  0.2864 -0.1569 -0.1187
 8360PP      PP18464   5.779   3.094  11.327  0.2555  0.1426 -0.2424
 8361PP      PP18465   7.146   6.366  12.512 -0.1380  0.0271  0.2978
 8362PP      PP18466  13.117   7.693   3.475  0.0163 -0.2955 -0.0146
 8363PP      PP18467   4.419   8.924   9.838 -0.0601  0.2111 -0.3734
 8364PP      PP18468   9.859  12.942   2.076 -0.3499  0.1216 -0.2934
 8365PP      PP18469   0.204   9.972  13.060  0.2651 -0.1395 -0.1659
 8366PP      PP18470   8.871  12.380   8.660  0.0009 -0.2674  0.0766
 8367PP      PP18471   1.576   1.779  13.383  0.4431  0.3052  0.1236
 8368PP      PP18472   9.175  11.085  12.352  0.0433 -0.0410 -0.1181
 8369PP      PP18473   2.813   4.071   2.189 -0.0118 -0.2213  0.0666
 8370PP      PP18474  13.828  10.839   9.399  0.1905  0.1760  0.3186
 8371PP      PP18475   1.410   2.600  11.841  0.1333 -0.0766 -0.2477
 8372PP      PP18476   4.453   1.253   3.156 -0.0592 -0.0995  0.1126
 8373PP      PP18477   2.543  13.540   0.891 -0.0164  0.4704 -0.0866
 8374PP      PP18478   6.316  14.851   8.511  0.0161 -0.0971 -0.0248
 8375PP      PP18479   6.420   0.580   0.643 -0.1051 -0.2944  0.2600
 8376PP      PP18480   0.859   9.932   9.897 -0.2366  0.0692 -0.1662
 8377PP      PP18481   7.561   6.913   9.569 -0.3102  0.2157 -0.1920
 8378PP      PP18482   2.951  14.218   9.352  0.0574 -0.1314 -0.3803
 8379PP      PP18483  15.802   4.306  10.320  0.1377 -0.0717  0.0337
 8380PP      PP18484   3.929   2.081   3.522  0.1214  0.0613 -0.0589
 8381PP      PP18485   0.440  10.700   3.018 -0.1218 -0.2849  0.1299
 8382PP      PP18486   8.446  12.858   1.038 -0.0816 -0.2107  0.1731
 8383PP      PP18487   0.922  15.565   1.001 -0.1597 -0.0561  0.0477
 8384PP      PP18488   7.278  13.525  12.198  0.0370  0.0286 -0.0514
 8385PP      PP18489   9.298   1.570   3.536 -0.3598  0.0798 -0.1220
 8386PP      PP18490   8.258  14.707  13.397  0.0625 -0.1725 -0.1779
 8387PP      PP18491  14.668   9.343   3.439 -0.3553 -0.2123 -0.0706
 8388PP      PP18492   2.886  14.776   9.083 -0.0603  0.1520 -0.1140
 8389PP      PP18493  14.953   6.837   1.309 -0.0737  0.2599 -0.2373
 8390PP      PP18494   4.545  15.753   9.350  0.0827  0.0631 -0.1523
 8391PP      PP18495  12.486  11.496   8.925 -0.2199  0.2284  0.3846
 8392PP      PP18496  13.773  13.004   1.500  0.1954 -0.1757 -0.1715
 8393PP      PP18497  12.176  10.535  11.471 -0.1971 -0.5211  0.5292
 8394PP      PP18498   2.735  11.473   1.019 -0.0888  0.0736 -0.2956
 8395PP      PP18499   1.796   2.831   9.845 -0.1405  0.1734  0.2313
 8396PP      PP18500   1.067  14.400   2.981  0.0144  0.1107  0.2607
 8397PP      PP18501   9.599   6.422   0.058 -0.3208  0.0492  0.1675
 8398PP      PP18502  13.327   3.485   0.782  0.2737 -0.0665  0.0980
 8399PP      PP18503  11.673   4.158   0.654 -0.1984 -0.0094 -0.0109
 8400PP      PP18504  13.841  11.983  12.063  0.0150 -0.0484 -0.0447
 8401PP      PP18505   4.690  15.015  11.609 -0.0541  0.0873  0.0396
 8402PP      PP18506  10.412   1.234   5.173  0.1998  0.2366 -0.2239
 8403PP      PP18507   1.867  11.149  10.746  0.1975 -0.1852  0.0540
 8404PP      PP18508  11.455   5.968   2.260  0.0532 -0.0113  0.2447
 8405PP      PP18509   0.173  12.623   8.600  0.2240 -0.1761  0.2137
 8406PP      PP18510  10.749   5.854   2.619 -0.0617  0.0925  0.1883
 8407PP      PP18511  11.890   4.377  10.644 -0.2378 -0.1167 -0.0169
 8408PP      PP18512  10.774  15.914  12.390  0.2164  0.0276 -0.0130
 8409PP      PP18513   8.934  12.705  13.068  0.1803 -0.5419 -0.0453
 8410PP      PP18514   2.294  14.315   3.518  0.0794 -0.2185  0.0058
 8411PP      PP18515   9.035  14.382   4.637  0.3535  0.0778  0.2207
 8412PP      PP18516   7.874   1.222   2.846  0.0465  0.0438  0.2201
 8413PP      PP18517   8.672   9.777   2.996  0.0006  0.1215  0.2706
 8414PP      PP18518   5.044  13.200   3.838  0.1405 -0.0476  0.4129
 8415PP      PP18519   3.985  10.234   2.355 -0.0061 -0.0634  0.0532
 8416PP      PP18520  14.174   9.547   0.201 -0.0853 -0.0542  0.0229
 8417PP      PP18521   2.688   8.279  13.393  0.0748 -0.2598  0.2673
 8418PP      PP18522  15.431  10.963   0.666 -0.0815  0.0028  0.1467
 8419PP      PP18523  12.665  12.879   9.231  0.0971  0.0782  0.4920
 8420PP      PP18524   7.864   0.259  11.972 -0.1650  0.1645  0.1053
 8421PP      PP18525  14.390  10.990   0.160  0.0047 -0.4186  0.2009
 8422PP      PP18526   2.579  12.850   8.657 -0.0524  0.1688 -0.1487
 8423PP      PP18527  10.696   3.800   3.740 -0.1595  0.1977  0.2809
 8424PP      PP18528  14.158  13.289   3.279  0.0495  0.0729  0.4029
 8425PP      PP18529  11.283   2.532   0.813  0.0153  0.1077  0.2547
 8426PP      PP18530  12.708   8.101   3.292 -0.0217 -0.0575  0.3128
 8427PP      PP18531   0.991   1.321   2.198 -0.1270  0.1229 -0.0215
 8428PP      PP18532  10.519  14.182   0.148 -0.2814  0.0324 -0.0550
 8429PP      PP18533  12.847   0.697   4.077  0.0207 -0.1336 -0.0915
 8430PP      PP18534  12.032  12.465   9.021 -0.3384 -0.3404  0.0902
 8431PP      PP18535  14.771   1.445   2.569 -0.0211 -0.0643  0.0493
 8432PP      PP18536  13.052  13.299   4.897  0.1231 -0.1257  0.3814
 8433PP      PP18537   7.408  12.742   3.327  0.2001  0.2607  0.0607
 8434PP      PP18538   6.626   5.048   3.073 -0.0319  0.2814 -0.1297
 8435PP      PP18539   4.611  11.132  10.492  0.0347  0.4037  0.2816
 8436PP      PP18540   4.985  14.862   9.715 -0.2622 -0.4228  0.0335
 8437PP      PP18541   2.938   0.755  10.032  0.2285  0.1972 -0.0099
 8438PP      PP18542  10.268   7.173  10.819 -0.3895  0.0997  0.0800
 8439PP      PP18543  11.683  12.434   3.279  0.1717 -0.0580 -0.1856
 8440PP      PP18544   9.701   7.195  10.934 -0.0758  0.1118 -0.1075
 8441PP      PP18545   0.809   7.135   8.875  0.0145 -0.0791 -0.1093
 8442PP      PP18546   4.241   8.895   0.034  0.1002 -0.3148  0.0529
 8443PP      PP18547   6.600   0.429  10.149 -0.3153  0.4168  0.3349
 8444PP      PP18548   8.414  15.619  13.162  0.0132 -0.0453  0.1258
 8445PP      PP18549   1.145   9.890  11.763 -0.1147  0.0010  0.1436
 8446PP      PP18550   2.662  10.901   3.080  0.0433  0.1320  0.1067
 8447PP      PP18551   7.126   9.226  13.395  0.2004 -0.0917  0.1662
 8448PP      PP18552   7.881  13.927   1.944  0.1005  0.1165 -0.1713
 8449PP      PP18553  13.313  13.497   2.196  0.0421  0.0015 -0.1337
 8450PP      PP18554   3.471   2.727  12.768  0.2127  0.0295 -0.3398
 8451PP      PP18555  12.408  11.625   3.662 -0.0033  0.0791 -0.1258
 8452PP      PP18556  15.479   8.389   2.256 -0.2707  0.2915 -0.2215
 8453PP      PP18557   5.734   7.209  12.706 -0.2428 -0.1931 -0.1718
 8454PP      PP18558   7.478  13.514   9.728 -0.0627 -0.2065 -0.3080
 8455PP      PP18559  10.384   2.295   2.689  0.1160 -0.0598 -0.1078
 8456PP      PP18560  13.366   3.110   3.653 -0.1326  0.1441  0.1593
 8457PP      PP18561   4.071   0.830  10.903 -0.0021  0.1379  0.0099
 8458PP      PP18562   9.998   6.693  12.758 -0.2830  0.1245 -0.0785
 8459PP      PP18563  13.833  11.068   8.881  0.2401  0.2120  0.4026
 8460PP      PP18564   0.259  14.859   1.136 -0.0942 -0.1058  0.0612
 8461PP      PP18565  11.605   0.662   4.584 -0.1762 -0.2808 -0.1673
 8462PP      PP18566   1.873   8.719   1.765 -0.2280  0.3340 -0.2988
 8463PP      PP18567   5.404   0.256  12.070  0.3451 -0.1355  0.1854
 8464PP      PP18568  13.772   0.706  10.767  0.0123  0.0102  0.0855
 8465PP      PP18569   7.714  14.858  12.178  0.2543  0.2208  0.0188
 8466PP      PP18570   3.575   8.278   2.928 -0.1764  0.1756  0.4231
 8467PP      PP18571  10.612  13.315   4.080 -0.0430  0.4435 -0.1704
 8468PP      PP18572  11.348   6.886   2.361  0.0747 -0.0737  0.1211
 8469PP      PP18573   2.853   4.771   3.569  0.2114 -0.1609  0.0462
 8470PP      PP18574   9.353   5.469   1.424 -0.0728 -0.0607  0.0904
 8471PP      PP18575   8.310  14.232   1.098 -0.2173  0.0396 -0.0942
 8472PP      PP18576   0.193  12.693   3.573  0.0732 -0.0983  0.2247
 8473PP      PP18577   2.989   3.505   9.649 -0.1474 -0.3291 -0.1525
 8474PP      PP18578   8.721  12.518   0.728  0.0382 -0.0806 -0.0028
 8475PP      PP18579   2.785   0.760   0.344  0.1934 -0.0716 -0.0873
 8476PP      PP18580  10.967   3.330   0.259  0.0940 -0.0018  0.0613
 8477PP      PP18581   4.415   3.627   9.117 -0.1979 -0.2529  0.0694
 8478PP      PP18582  12.723   0.178   2.325 -0.2176 -0.1506 -0.0448
 8479PP      PP18583   6.086   0.734   2.315 -0.1462 -0.1209 -0.0632
 8480PP      PP18584  10.418  15.914   1.136  0.1043 -0.1211  0.3572
 8481PP      PP18585   4.805   1.716   9.242  0.3039  0.0504 -0.2504
 8482PP      PP18586   4.076   8.521   2.235 -0.3643 -0.1668  0.0700
 8483PP      PP18587  10.377   1.590  11.549  0.1777  0.0083  0.3117
 8484PP      PP18588   0.841   4.313   1.366 -0.0650 -0.3567  0.1596
 8485PP      PP18589   7.642  10.544   1.877 -0.2010  0.1898  0.0483
 8486PP      PP18590   2.565   1.155   2.482  0.0319 -0.1352 -0.0670
 8487PP      PP18591   4.126  13.656  11.971 -0.1792  0.2153 -0.1001
 8488PP      PP18592   0.333   0.493   1.260  0.1049 -0.2771 -0.2486
 8489PP      PP18593   2.245   3.538   9.468  0.2481  0.0892 -0.0169
 8490PP      PP18594   5.763  11.177   9.793 -0.2820  0.0129  0.2160
 8491PP      PP18595  12.963  13.016   3.014  0.0207 -0.0442 -0.0297
 8492PP      PP18596   5.888   6.404   3.959 -0.0727  0.3792  0.0271
 8493PP      PP18597   0.951   4.262   3.737  0.1558  0.0917  0.1056
 8494PP      PP18598   0.879   7.117   9.901 -0.1352 -0.2143  0.2807
 8495PP      PP18599  13.594   1.719  13.129  0.3823  0.0499 -0.0159
 8496PP      PP18600  10.980   0.944   2.940 -0.1786 -0.0185 -0.0980
 8497PP      PP18601   7.505  12.425  12.850 -0.0679  0.2938  0.0841
 8498PP      PP18602   4.023   1.498   2.774 -0.2007  0.2377  0.0118
 8499PP      PP18603   1.229  14.259   1.030  0.0031  0.0064 -0.0716
 8500PP      PP18604   4.639  10.416   9.469 -0.1169 -0.0905 -0.0465
 8501PP      PP18605   4.292   9.399   2.330 -0.1497 -0.4124  0.2551
 8502PP      PP18606   3.267   7.491  10.571  0.2498 -0.1738  0.3200
 8503PP      PP18607   7.318   8.382   3.244 -0.0758 -0.0644  0.1062
 8504PP      PP18608  13.264   5.018  10.217  0.0105 -0.2135 -0.1533
 8505PP      PP18609   1.980   6.801   3.426  0.0668 -0.2186 -0.0712
 8506PP      PP18610   5.988   0.970  12.240  0.0151 -0.0405 -0.2127
 8507PP      PP18611  11.776   4.286   9.967  0.3391 -0.1401 -0.2016
 8508PP      PP18612   7.136   9.921   2.032  0.1511  0.0299  0.2768
 8509PP      PP18613   3.668  14.860  10.538  0.3507  0.0963  0.0284
 8510PP      PP18614  12.063  14.454   9.318 -0.1947  0.0931 -0.0585
 8511PP      PP18615   1.225   7.441   3.467  0.2058  0.2029 -0.0168
 8512PP      PP18616   1.671   1.389   9.334 -0.2621 -0.2356 -0.1545
 8513PP      PP18617   3.401   1.305   0.763  0.1553  0.2192  0.2729
 8514PP      PP18618  14.761   3.667  12.764 -0.0145  0.1009  0.0826
 8515PP      PP18619   9.928   8.952   4.429  0.0423  0.0220 -0.1851
 8516PP      PP18620  13.914  12.007   3.351  0.1039  0.0369  0.0294
 8517PP      PP18621   8.865  11.017   8.662 -0.2226 -0.1462 -0.0158
 8518PP      PP18622   1.850   5.568  12.327 -0.1478 -0.0374 -0.5428
 8519PP      PP18623   0.387  14.153   3.708 -0.1109 -0.0382 -0.2333
 8520PP      PP18624   6.108  13.597   0.464  0.1497  0.0047 -0.0037
 8521PP      PP18625   4.435  11.736   0.852  0.0551 -0.1279  0.2011
 8522PP      PP18626  14.980   6.250   1.976 -0.1952  0.1075  0.0145
 8523PP      PP18627  12.945   4.148   1.168  0.1078  0.1041  0.1627
 8524PP      PP18628   4.727  13.521  11.559  0.2871 -0.0179 -0.2708
 8525PP      PP18629  12.907  10.251  12.350  0.1074 -0.2416  0.0846
 8526PP      PP18630   8.298   8.868   0.675  0.0896  0.1605  0.1966
 8527PP      PP18631   8.013  11.608  10.515 -0.0431  0.0021 -0.0140
 8528PP      PP18632   0.208   9.827   3.605  0.0740  0.0961 -0.1590
 8529PP      PP18633   0.661  10.233  10.243 -0.0349 -0.1629  0.1619
 8530PP      PP18634  10.308   6.953  10.396 -0.1383 -0.0439 -0.2692
 8531PP      PP18635   9.255  14.785   2.863 -0.0022 -0.0752  0.2916
 8532PP      PP18636  14.412  13.351  12.402  0.0793 -0.0541  0.3443
 8533PP      PP18637   3.836   0.527  11.212  0.1135  0.2167  0.2225
 8534PP      PP18638   0.277   0.332   7.821 -0.2867 -0.1700  0.1519
 8535PP      PP18639   1.353   3.560   2.678 -0.1906 -0.0161  0.2388
 8536PP      PP18640   9.779   3.100  10.542  0.0328 -0.0854  0.1904
 8537PP      PP18641  15.138  15.625   1.178 -0.0793 -0.1330 -0.0652
 8538PP      PP18642   8.120   3.960   2.696 -0.2353  0.0637 -0.2319
 8539PP      PP18643   0.637  11.066   8.494  0.0324  0.1398 -0.1932
 8540PP      PP18644   1.375  13.724  10.986  0.3248  0.1144  0.0933
 8541PP      PP18645  10.208   2.739   3.991 -0.1100  0.2031  0.0718
 8542PP      PP18646   2.328   2.070   8.655  0.0592 -0.1001  0.0869
 8543PP      PP18647   7.008   3.696   2.046 -0.3467  0.0250 -0.2231
 8544PP      PP18648   7.136   9.333   2.692 -0.0112  0.0299  0.2244
 8545PP      PP18649  13.538   4.043  10.831  0.0761 -0.2328 -0.1033
 8546PP      PP18650  15.851   3.201   8.381  0.0830  0.0261 -0.0410
 8547PP      PP18651  12.956   6.060  10.457 -0.4246 -0.2102 -0.2478
 8548PP      PP18652  15.149  13.037  12.916  0.1659 -0.2388 -0.0993
 8549PP      PP18653   3.438   0.459   9.069 -0.1117 -0.1576  0.0687
 8550PP      PP18654   1.610   2.871   1.897 -0.0383  0.1117 -0.1380
 8551PP      PP18655   0.008  10.824   0.837  0.0933  0.1218 -0.0319
 8552PP      PP18656   5.743   8.864  13.230 -0.1510 -0.2952 -0.2032
 8553PP      PP18657   6.236  13.629   1.919  0.1027 -0.3066  0.1168
 8554PP      PP18658   9.730   6.754   9.647 -0.0418  0.4691 -0.0187
 8555PP      PP18659  14.898  12.182   9.290  0.1772 -0.0055 -0.0493
 8556PP      PP18660   8.984  12.322  10.312  0.0602 -0.0365  0.0002
 8557PP      PP18661   4.009   5.415   0.658 -0.1596 -0.2602  0.1315
 8558PP      PP18662   2.472   3.306   2.933  0.3333 -0.0539 -0.4615
 8559PP      PP18663  14.944   4.828  10.301 -0.1266 -0.2031 -0.0563
 8560PP      PP18664  15.426  11.456   8.326 -0.1811  0.0504  0.1024
 8561PP      PP18665  11.942   6.529   1.811  0.3089  0.1670 -0.1840
 8562PP      PP18666  15.817  14.394   2.404  0.2124 -0.0768 -0.3052
 8563PP      PP18667   2.990   6.122  13.130 -0.1901 -0.0883 -0.1119
 8564PP      PP18668   0.207  11.583   0.031 -0.0190 -0.4199 -0.0971
 8565PP      PP18669   9.032  11.620   9.949  0.0590  0.2021 -0.0012
 8566PP      PP18670   3.180   1.995  10.384  0.1091 -0.2326 -0.1889
 8567PP      PP18671  14.291  11.229   1.865 -0.1028 -0.0294 -0.0116
 8568PP      PP18672  14.063   9.682  10.036 -0.1018  0.2940  0.0523
 8569PP      PP18673  10.155   0.531   3.447 -0.0311 -0.5057  0.1156
 8570PP      PP18674  10.212   8.719   0.699 -0.2059  0.1635 -0.0739
 8571PP      PP18675  11.871   4.846  10.616  0.1192 -0.1200  0.0395
 8572PP      PP18676  13.253  11.616   2.675 -0.2077  0.4124  0.0865
 8573PP      PP18677  15.451   1.076  12.259  0.5096 -0.1796 -0.3751
 8574PP      PP18678   8.381  13.177   1.919  0.1003 -0.2891  0.0864
 8575PP      PP18679   7.437   2.656   1.575 -0.0557 -0.0863  0.4343
 8576PP      PP18680   8.916  11.155  12.820  0.1002  0.3708  0.4983
 8577PP      PP18681   7.301   3.078   8.789 -0.1710  0.0025 -0.0344
 8578PP      PP18682  11.966  12.922   4.125 -0.3327 -0.1161 -0.0565
 8579PP      PP18683   4.472  14.302  12.739  0.0854  0.1179  0.4557
 8580PP      PP18684  11.291   4.547  12.974 -0.0003  0.1887  0.0641
 8581PP      PP18685  10.093   6.789   3.856  0.0283 -0.1302  0.0021
 8582PP      PP18686   4.762  12.177   2.427  0.0750 -0.1003  0.0311
 8583PP      PP18687  11.209  11.828   3.617 -0.0825 -0.1901 -0.0125
 8584PP      PP18688   9.531   1.116  11.517 -0.0970  0.1103  0.0602
 8585PP      PP18689  14.774   0.326   1.877 -0.3111 -0.4208 -0.0882
 8586PP      PP18690   3.362   6.695  11.291 -0.1254 -0.1528  0.0249
 8587PP      PP18691   8.659   6.801   2.935  0.2158  0.2156  0.2320
 8588PP      PP18692   9.919   1.627   0.743 -0.0275  0.1072  0.2158
 8589PP      PP18693   0.891   5.388   9.505 -0.0855  0.0336 -0.2466
 8590PP      PP18694  12.253   9.101   4.362  0.0904  0.2941 -0.0004
 8591PP      PP18695  11.733  13.155  11.107 -0.1791 -0.0100 -0.0944
 8592PP      PP18696   0.994   7.268  12.398 -0.1778  0.2017  0.0181
 8593PP      PP18697   0.056   7.977  11.311 -0.0428  0.0372  0.1602
 8594PP      PP18698   2.360  11.360   3.779  0.0579 -0.0594  0.2656
 8595PP      PP18699   8.980   0.184  10.035  0.2464 -0.2397  0.1966
 8596PP      PP18700  11.939   3.832   3.528  0.4153  0.1737 -0.1009
 8597PP      PP18701   1.991   4.528  12.712  0.2148  0.0916 -0.0308
 8598PP      PP18702   4.421   3.856   0.013  0.1376 -0.0432 -0.0373
 8599PP      PP18703   2.485   4.036   9.626 -0.0962  0.2565 -0.0496
 8600PP      PP18704  12.262  10.406   1.972  0.0243  0.1375  0.0622
 8601PP      PP18705   8.243  11.499   2.913 -0.0942  0.0203  0.1230
 8602PP      PP18706  12.105  15.711   9.045  0.2318  0.0102  0.0340
 8603PP      PP18707   3.178   1.802   9.046  0.2517 -0.3353 -0.0000
 8604PP      PP18708   6.317  11.059   1.925 -0.2138  0.3350 -0.0165
 8605PP      PP18709   4.504  12.775  12.629 -0.1205  0.3203  0.1940
 8606PP      PP18710  10.563   6.336   1.672 -0.0338 -0.2743  0.0796
 8607PP      PP18711  11.984   9.142   9.683 -0.1344  0.0473  0.0341
 8608PP      PP18712  10.939   7.720   5.016 -0.1722  0.0020  0.0510
 8609PP      PP18713  15.646   2.791  12.321 -0.1924 -0.0995 -0.2032
 8610PP      PP18714   0.889   1.902  13.131 -0.4302 -0.0802 -0.0006
 8611PP      PP18715   7.487  14.229   2.230  0.1298  0.0791 -0.1034
 8612PP      PP18716   7.416   2.214  10.102  0.0546 -0.1240 -0.1286
 8613PP      PP18717  14.324   3.355   3.774  0.1809  0.1850  0.1378
 8614PP      PP18718  11.397  12.795  10.488  0.1336 -0.0257  0.4020
 8615PP      PP18719   5.666   5.538   0.560  0.1066  0.2929 -0.1628
 8616PP      PP18720   4.830   3.338  12.500  0.0529 -0.1343  0.0026
 8617PP      PP18721   2.477  15.472   9.626  0.1023 -0.4632 -0.2321
 8618PP      PP18722  14.499  14.346   8.545  0.0320 -0.0148 -0.2962
 8619PP      PP18723   1.704   6.311   1.007  0.2180 -0.1655 -0.3269
 8620PP      PP18724  12.557   2.941   3.018  0.0385 -0.1615  0.3645
 8621PP      PP18725  15.623   1.269   9.828 -0.2135 -0.0451  0.1669
 8622PP      PP18726   7.616   2.435  10.671 -0.1554 -0.1385  0.0859
 8623PP      PP18727  13.327  11.002   9.503  0.3157 -0.2047  0.1474
 8624PP      PP18728   4.426   9.390  13.271  0.1483 -0.0343 -0.1642
 8625PP      PP18729   9.114  14.430  12.975  0.3834  0.0582 -0.0723
 8626PP      PP18730   4.321   3.346   9.653  0.1450  0.4003 -0.0949
 8627PP      PP18731   9.816   4.566  11.137 -0.0180 -0.2024  0.2784
 8628PP      PP18732   8.778   6.766  13.069  0.2616 -0.2725  0.0498
 8629PP      PP18733   4.394   0.767   8.890  0.0142  0.2507  0.0478
 8630PP      PP18734  11.997   4.945  12.347  0.1473 -0.0136  0.1741
 8631PP      PP18735  10.551   0.383  10.693  0.0555  0.1523 -0.4870
 8632PP      PP18736  15.529  12.774  10.883  0.2169  0.1431 -0.0290
 8633PP      PP18737  15.851   0.119  10.396 -0.5204 -0.2110 -0.2715
 8634PP      PP18738  14.372   3.923   3.183  0.1651  0.2515  0.1269
 8635PP      PP18739  13.138   3.786  12.217 -0.1755 -0.2925  0.0223
 8636PP      PP18740   6.164   6.931   3.959  0.0289 -0.1266 -0.1649
 8637PP      PP18741   0.626   9.028   3.842  0.1686  0.1012  0.0232
 8638PP      PP18742  10.765  12.660   8.890  0.1894  0.1552 -0.2368
 8639PP      PP18743   2.710   5.819   4.729 -0.1556  0.3594  0.0859
 8640PP      PP18744   6.445   1.106  12.029  0.4848 -0.0676 -0.2586
 8641PP      PP18745   6.091   7.833   2.747  0.0467  0.0099 -0.0782
 8642PP      PP18746   5.867   4.451  10.706 -0.2815 -0.0866 -0.0193
 8643PP      PP18747  12.165  11.312  12.351 -0.0725  0.2382 -0.2193
 8644PP      PP18748   0.418   8.533   3.311  0.2537  0.0339 -0.2376
 8645PP      PP18749   9.812  11.685  10.393 -0.1407  0.1445  0.2222
 8646PP      PP18750  13.697   0.236   0.255  0.1765 -0.2734  0.0503
 8647PP      PP18751   7.324  12.957  12.451 -0.0172 -0.2337  0.0344
 8648PP      PP18752  15.934   5.100  12.385 -0.6349  0.0705 -0.1309
 8649PP      PP18753  13.629   5.498   3.706 -0.3152  0.5489  0.1172
 8650PP      PP18754   7.081  13.207  10.016 -0.0565  0.0920 -0.0497
 8651PP      PP18755  12.819  11.920   9.891  0.0051 -0.0649 -0.1489
 8652PP      PP18756   6.574  12.206  13.207 -0.0003 -0.0982 -0.0722
 8653PP      PP18757   0.018   2.393   8.552  0.1559  0.3259 -0.0035
 8654PP      PP18758   7.918  12.419   0.287 -0.1100  0.1604  0.1476
 8655PP      PP18759   4.057   4.633   2.461 -0.1584 -0.2330  0.2713
 8656PP      PP18760   8.537  15.694  12.584 -0.3707  0.0883 -0.3393
 8657PP      PP18761   2.398   2.218   0.151 -0.1206  0.1132  0.0383
 8658PP      PP18762   2.811   4.583   1.923  0.4456  0.0582 -0.2836
 8659PP      PP18763   3.421   3.115   9.996 -0.0566  0.1381  0.3306
 8660PP      PP18764  15.036  15.933   9.798 -0.1356 -0.0716 -0.0336
 8661PP      PP18765   5.522   2.088   1.400  0.0730  0.2730 -0.0649
 8662PP      PP18766   4.978   8.006   4.183 -0.2685  0.1752 -0.1311
 8663PP      PP18767  11.864  11.656   0.382 -0.0659  0.0161 -0.1638
 8664PP      PP18768  14.269  13.524   9.680 -0.3593 -0.1095  0.0789
 8665PP      PP18769   6.515   7.433   2.598  0.0184 -0.2347 -0.0642
 8666PP      PP18770  12.871   7.880  12.702  0.2947  0.1556 -0.1622
 8667PP      PP18771  11.291  10.685  10.873 -0.1684  0.1635  0.2577
 8668PP      PP18772   9.427   9.799  12.540  0.0237  0.1943  0.2651
 8669PP      PP18773   3.718  13.671  10.557  0.0504 -0.1087 -0.3057
 8670PP      PP18774  10.164   8.390  12.674 -0.3539  0.3741 -0.1620
 8671PP      PP18775   9.855   4.181   3.749  0.1788  0.2085 -0.1571
 8672PP      PP18776   5.648   2.543   9.614  0.0438 -0.0101  0.1532
 8673PP      PP18777   9.312   0.626   3.551  0.3433 -0.3193 -0.0073
 8674PP      PP18778   6.387   8.874   9.285  0.3720  0.0625 -0.1949
 8675PP      PP18779  11.306  12.826   9.647  0.1558 -0.1707  0.1674
 8676PP      PP18780   8.594   2.584  13.341 -0.0686 -0.0204  0.3010
 8677PP      PP18781   2.492   4.520  12.444 -0.1653  0.0857 -0.1382
 8678PP      PP18782   7.566   1.590  13.291  0.0376 -0.2025  0.1545
 8679PP      PP18783  11.385  11.685   8.988 -0.0194  0.2186 -0.0702
 8680PP      PP18784   5.729  14.808  10.149 -0.2152  0.0030 -0.3578
 8681PP      PP18785   7.232   6.145   2.454 -0.1775  0.0060  0.1661
 8682PP      PP18786   9.901   0.181   2.630  0.0412 -0.0208  0.2290
 8683PP      PP18787  12.160   7.304   3.410 -0.2214 -0.2254 -0.2864
 8684PP      PP18788   3.202  14.256  12.828 -0.2034  0.1696 -0.2226
 8685PP      PP18789   6.706   0.689   4.110  0.1188  0.0362 -0.2830
 8686PP      PP18790   8.699  12.220   2.471 -0.1397 -0.0154 -0.0585
 8687PP      PP18791  11.167  11.434  12.190  0.1884 -0.0348 -0.0347
 8688PP      PP18792  14.335   5.378   9.587 -0.3086 -0.3268 -0.0895
 8689PP      PP18793  15.461   4.950   0.784  0.0718  0.0873 -0.0591
 8690PP      PP18794  15.015   0.377  11.124 -0.0140 -0.1115  0.1945
 8691PP      PP18795   0.247   6.196   1.794  0.5964 -0.0158  0.0327
 8692PP      PP18796   3.448  11.883  10.376 -0.0075 -0.0202  0.0413
 8693PP      PP18797  12.288   0.676   4.528  0.1185  0.1282  0.0680
 8694PP      PP18798  10.642   1.443  12.251 -0.1948 -0.1741 -0.0797
 8695PP      PP18799  13.871   0.248   9.542 -0.4891  0.0346  0.0010
 8696PP      PP18800  14.965  10.535   0.206  0.0550  0.1599 -0.1340
 8697PP      PP18801   8.650   6.604  10.465 -0.3470  0.0274 -0.0638
 8698PP      PP18802   3.282   4.845   2.024  0.2003  0.1407 -0.1103
 8699PP      PP18803   7.737   6.656   1.043  0.0152  0.0923  0.2935
 8700PP      PP18804   4.688  12.174   2.884 -0.3462 -0.0002  0.3152
 8701PP      PP18805  13.606   7.890   3.414 -0.3289  0.1082 -0.2238
 8702PP      PP18806   8.682   3.959  12.635 -0.1344  0.1489  0.2824
 8703PP      PP18807   7.391   1.876  12.622 -0.0971  0.0140 -0.1728
 8704PP      PP18808   4.617  10.378   1.427 -0.0328  0.1848 -0.3349
 8705PP      PP18809   1.992  13.750   3.126 -0.1535 -0.2742  0.1446
 8706PP      PP18810   3.800   6.081   1.370  0.0600  0.0896 -0.2608
 8707PP      PP18811  12.214   0.451   9.557 -0.1456  0.2561 -0.0477
 8708PP      PP18812   0.165  15.865   7.499  0.1630 -0.0721  0.0603
 8709PP      PP18813  12.159   7.562  11.099  0.2841 -0.0764 -0.1600
 8710PP      PP18814  13.485   4.363   8.930 -0.0566 -0.1253 -0.2322
 8711PP      PP18815  12.815  12.226   2.254  0.2151 -0.4467 -0.0216
 8712PP      PP18816   4.633   0.687   2.462  0.0007  0.0683  0.0079
 8713PP      PP18817   7.587   9.307   0.522  0.0026  0.1867  0.0886
 8714PP      PP18818  11.229   7.103  10.334 -0.0423  0.2273 -0.2713
 8715PP      PP18819   2.493   7.600   2.457  0.1335 -0.1353 -0.1880
 8716PP      PP18820   6.731   5.547   2.243 -0.3729  0.0753  0.0526
 8717PP      PP18821   8.365   4.090   4.062  0.0197  0.0248  0.2314
 8718PP      PP18822  15.489   2.619   0.136  0.4111 -0.3305  0.4190
 8719PP      PP18823   2.026   5.504   9.083  0.1374  0.0197  0.1109
 8720PP      PP18824  15.236   7.202   1.128  0.1343 -0.0639 -0.0471
 8721PP      PP18825   6.990  15.595   3.819 -0.2205  0.0646  0.2357
 8722PP      PP18826  11.261   5.002   3.719 -0.0224 -0.3238 -0.0548
 8723PP      PP18827  12.020   2.082   4.888 -0.2558  0.0294  0.3645
 8724PP      PP18828  13.698  14.170  12.471  0.0568 -0.2004 -0.0089
 8725PP      PP18829   6.978   5.431   1.754 -0.0314  0.0997 -0.0482
 8726PP      PP18830  15.398   1.941   3.428  0.0205 -0.0696  0.1157
 8727PP      PP18831  10.510  14.870   1.177  0.0741 -0.2536 -0.2671
 8728PP      PP18832   0.106   5.122   0.051  0.0059  0.0082  0.1022
 8729PP      PP18833   4.723  15.671   9.848  0.1548  0.1887  0.3091
 8730PP      PP18834   5.523  10.578   0.979 -0.0720 -0.1967 -0.0060
 8731PP      PP18835  12.870  15.873  12.107 -0.1690 -0.1645 -0.1321
 8732PP      PP18836   5.700   9.968   9.542 -0.1298  0.0143 -0.2516
 8733PP      PP18837  12.290   6.395   9.917  0.1252 -0.0185 -0.0886
 8734PP      PP18838   5.615  15.441  11.063  0.1862 -0.1026 -0.1481
 8735PP      PP18839  15.203   8.712   1.715 -0.2444 -0.2060  0.1904
 8736PP      PP18840  15.619   7.161  12.374 -0.1364 -0.1177 -0.1654
 8737PP      PP18841   3.213  14.257  10.253  0.2768  0.0117  0.0424
 8738PP      PP18842   1.188  13.642   2.565  0.4598  0.1015 -0.1403
 8739PP      PP18843   5.597   7.835  12.104  0.0675 -0.0596  0.0921
 8740PP      PP18844  14.878  13.975   8.751  0.3879  0.3227 -0.0067
 8741PP      PP18845   6.002   9.108   9.779  0.2367  0.0368  0.1584
 8742PP      PP18846   3.443  15.615   1.413  0.0827 -0.1791 -0.0242
 8743PP      PP18847  14.204   1.649   1.726  0.1532 -0.0330  0.3118
 8744PP      PP18848  13.291   9.713   1.210 -0.0012 -0.1580 -0.2253
 8745PP      PP18849   8.219   2.139  11.338  0.1874  0.0977 -0.1367
 8746PP      PP18850  10.187  15.162  12.372 -0.0494 -0.0497  0.0453
 8747PP      PP18851   5.429   6.433  11.124 -0.3207 -0.2263  0.0786
 8748PP      PP18852   5.469  11.288  10.240 -0.0236 -0.2510  0.0518
 8749PP      PP18853  15.515   1.257  10.658  0.1684  0.0012  0.1638
 8750PP      PP18854   9.289   4.272   4.248  0.0183  0.3184 -0.1086
 8751PP      PP18855  14.592   3.562   1.260  0.0209  0.0091  0.3299
 8752PP      PP18856  15.280   1.514   3.187  0.0124  0.0993 -0.1108
 8753PP      PP18857  15.337   9.999   4.411  0.2821  0.0317  0.0844
 8754PP      PP18858  10.093   7.466  11.186 -0.1083 -0.0610  0.0879
 8755PP      PP18859   1.066  11.694  10.656 -0.0240 -0.2640 -0.0887
 8756PP      PP18860   2.910  14.027   0.279  0.0304  0.1521  0.0001
 8757PP      PP18861  13.498   7.331   3.414 -0.1120  0.1616  0.0586
 8758PP      PP18862   1.934   8.545   1.294  0.2201  0.0677  0.1814
 8759PP      PP18863   5.064  11.731   2.278  0.0599 -0.3123  0.1430
 8760PP      PP18864  11.344  10.139  11.913 -0.0566 -0.0828  0.0749
 8761PP      PP18865  14.258   3.562  12.643  0.0034  0.1581  0.2670
 8762PP      PP18866   0.377   4.708   1.805 -0.1980  0.0967  0.3639
 8763PP      PP18867   0.039  15.913   8.729  0.1369 -0.0908 -0.1344
 8764PP      PP18868   1.757   0.899   9.489 -0.2593 -0.2157  0.0842
 8765PP      PP18869   9.021   8.567  12.644 -0.0179 -0.2582  0.2052
 8766PP      PP18870   6.134  10.479   0.660  0.0943 -0.0780  0.3655
 8767PP      PP18871   5.488  13.253   9.961 -0.3570 -0.3231  0.3562
 8768PP      PP18872   0.193   4.567   2.727 -0.1830 -0.1989  0.1348
 8769PP      PP18873  10.074   7.663  11.656  0.0273  0.1801  0.2769
 8770PP      PP18874  10.641   6.906   4.583 -0.2609 -0.1499 -0.2103
 8771PP      PP18875   1.692  11.696   2.704  0.0375 -0.0938 -0.0181
 8772PP      PP18876   3.681   4.121   3.862 -0.1206  0.1061 -0.0695
 8773PP      PP18877   9.502   7.516  11.312  0.0664 -0.1515  0.2722
 8774PP      PP18878  15.644   9.007   2.036  0.1245 -0.2191 -0.2313
 8775PP      PP18879   9.975  12.957   3.546  0.0948  0.4060  0.2122
 8776PP      PP18880   1.707   7.081  13.211  0.3222  0.0523 -0.1976
 8777PP      PP18881   4.768  15.766   1.240  0.1800  0.0285  0.1043
 8778PP      PP18882   4.185   6.635   4.101 -0.0144 -0.1059 -0.0427
 8779PP      PP18883   7.223   5.334   8.938  0.3773 -0.0316 -0.3138
 8780PP      PP18884   9.167  12.167   1.243  0.0446  0.0754 -0.1424
 8781PP      PP18885  12.762   9.289   1.161 -0.4109  0.1772 -0.0237
 8782PP      PP18886  13.649   6.971   2.542 -0.2168 -0.0459 -0.2539
 8783PP      PP18887  13.145   7.944  10.930  0.1618  0.1398 -0.1491
 8784PP      PP18888  10.226  15.137   0.410  0.1602 -0.0449 -0.2148
 8785PP      PP18889   5.733   8.790   8.894  0.3651  0.0161 -0.1013
 8786PP      PP18890   5.271   9.617   2.853  0.2286  0.1855  0.0549
 8787PP      PP18891   6.766  13.478   8.210 -0.0266 -0.2927  0.0327
 8788PP      PP18892   6.285   9.538  13.231 -0.2764  0.0105  0.0680
 8789PP      PP18893  11.825  13.370   9.336  0.1432 -0.0142 -0.1951
 8790PP      PP18894   8.718  11.568   3.748  0.0991  0.0128  0.1115
 8791PP      PP18895  14.786   1.493   2.029 -0.3034 -0.1901 -0.3012
 8792PP      PP18896   9.268   9.638   1.838 -0.4311 -0.0874 -0.1616
 8793PP      PP18897  13.176   5.671   2.014  0.0136 -0.1671 -0.1646
 8794PP      PP18898   3.882  15.450   0.033 -0.2215  0.1741 -0.0807
 8795PP      PP18899   3.470   0.032  12.386 -0.4312  0.1555  0.0338
 8796PP      PP18900  15.751   1.089   2.342 -0.0324 -0.0356 -0.2480
 8797PP      PP18901   3.191   6.430  10.634  0.1196  0.0434 -0.1528
 8798PP      PP18902   7.209  12.281   3.656  0.1090 -0.2625  0.1693
 8799PP      PP18903   1.434  14.043  13.012  0.3936  0.4474  0.1535
 8800PP      PP18904  11.970   0.045  11.660  0.0346  0.0820 -0.0767
 8801PP      PP18905   2.048  10.410   8.947 -0.2007  0.0566 -0.1148
 8802PP      PP18906  13.493  10.177   2.140  0.1071 -0.0670 -0.1834
 8803PP      PP18907  13.866  15.232   4.346  0.2049 -0.1186 -0.2738
 8804PP      PP18908   4.150   7.232   1.791  0.1984  0.3950 -0.1641
 8805PP      PP18909   4.036   0.965   2.893  0.0006  0.2012 -0.1291
 8806PP      PP18910   6.738   9.051   3.601  0.2161  0.0371 -0.3837
 8807PP      PP18911  14.431  14.027   8.896  0.1664 -0.3091 -0.0658
 8808PP      PP18912  13.936  11.751  11.497  0.1130 -0.1679  0.0225
 8809PP      PP18913  13.619   9.043  10.597  0.0402  0.0685  0.0669
 8810PP      PP18914   3.963   5.390   8.955 -0.0948  0.1699  0.1745
 8811PP      PP18915  14.639  13.146   3.188  0.0088 -0.0496  0.1122
 8812PP      PP18916   0.202   7.177  13.401 -0.1193  0.4530  0.2123
 8813PP      PP18917   8.894   9.630  13.344  0.1027  0.2481  0.1647
 8814PP      PP18918  14.154   8.581   2.922  0.0801  0.1614 -0.0740
 8815PP      PP18919  11.277   0.574   2.753 -0.0579 -0.1818 -0.2914
 8816PP      PP18920   6.261  15.338   8.567  0.0070 -0.1811  0.2881
 8817PP      PP18921   3.040   5.001   0.831  0.2381  0.5184  0.0446
 8818PP      PP18922  15.747   9.460   9.480  0.3111 -0.4448  0.1484
 8819PP      PP18923  15.719   7.574  11.168 -0.1516  0.0273  0.1153
 8820PP      PP18924   4.708  12.739   1.623  0.0697 -0.3428  0.2859
 8821PP      PP18925   9.840   5.296   2.563 -0.3066 -0.1927 -0.0386
 8822PP      PP18926  12.956   6.274   0.859  0.0951 -0.0754 -0.2857
 8823PP      PP18927   1.627  13.939   8.474 -0.2064 -0.1045  0.3893
 8824PP      PP18928   3.020   3.863   2.650 -0.0964  0.0334  0.3629
 8825PP      PP18929  15.432  13.331   9.495  0.2441 -0.1143 -0.2052
 8826PP      PP18930  13.607   2.658   9.788 -0.3864  0.2845  0.0085
 8827PP      PP18931  14.044   0.744   1.567 -0.1810  0.0158  0.1647
 8828PP      PP18932   7.927   2.681  12.724  0.0207 -0.2747  0.2549
 8829PP      PP18933  13.037   0.026   9.583 -0.0950 -0.2357  0.0245
 8830PP      PP18934   8.701   9.181  13.222 -0.0519  0.2107 -0.3220
 8831PP      PP18935  15.640   8.520  12.585  0.0497 -0.1106  0.0052
 8832PP      PP18936   6.042  15.733  12.073  0.3111  0.2962  0.2671
 8833PP      PP18937   8.172  13.036   2.931 -0.3891  0.1762  0.1822
 8834PP      PP18938   1.998  14.591  10.743  0.2694  0.0954 -0.0881
 8835PP      PP18939  11.244  11.966   1.006 -0.3767  0.0441  0.0075
 8836PP      PP18940   4.653  10.413  11.723 -0.1798 -0.1537  0.5017
 8837PP      PP18941  15.340   1.843  10.732  0.2239 -0.0281  0.1154
 8838PP      PP18942   6.856  14.160  10.176  0.1676  0.0448 -0.1437
 8839PP      PP18943  12.110   4.287   0.312  0.0610 -0.1223 -0.2186
 8840PP      PP18944  13.714   1.099   1.648 -0.1978  0.0446  0.0857
 8841PP      PP18945  11.134   5.085   2.765 -0.2807 -0.1355  0.2753
 8842PP      PP18946  13.212   6.471  12.194  0.0831  0.3762  0.3070
 8843PP      PP18947  10.378  13.390  11.817 -0.0369  0.1001  0.0958
 8844PP      PP18948  11.695   9.722   2.714  0.1940  0.0973  0.3251
 8845PP      PP18949   6.528   0.084   0.796  0.0401  0.3330 -0.0655
 8846PP      PP18950   1.625   8.736  11.664 -0.3131 -0.1671 -0.1310
 8847PP      PP18951   8.025   4.314   3.759 -0.3626 -0.2756 -0.0928
 8848PP      PP18952   4.789  14.018  11.797 -0.1988  0.1024 -0.0822
 8849PP      PP18953   1.257   4.450   2.799 -0.0659  0.3348  0.0752
 8850PP      PP18954   8.063  15.926  12.907 -0.0048 -0.1997 -0.2811
 8851PP      PP18955   0.807  14.908   2.125 -0.0458 -0.0628  0.2057
 8852PP      PP18956  10.859   4.310  12.889 -0.0181  0.1967 -0.0512
 8853PP      PP18957   6.354   8.735   3.692 -0.1092 -0.0916  0.2821
 8854PP      PP18958  14.285   2.755   3.881 -0.2899 -0.1857  0.2093
 8855PP      PP18959  11.787   4.447  13.231 -0.1501  0.1000  0.1845
 8856PP      PP18960  15.683   0.795   8.907 -0.0925 -0.1407 -0.5248
 8857PP      PP18961  14.879  15.828   8.144 -0.0418 -0.1351 -0.3041
 8858PP      PP18962   2.425   1.292   1.980  0.0824  0.1215  0.0229
 8859PP      PP18963  10.288   9.504  10.338 -0.0346 -0.0991 -0.1897
 8860PP      PP18964  10.431   7.989   4.192  0.1141 -0.1358  0.1261
 8861PP      PP18965   2.940   2.812  11.991 -0.0881 -0.1479 -0.3387
 8862PP      PP18966  11.019   3.835   9.856  0.3564 -0.0278  0.2276
 8863PP      PP18967   9.356  15.787  11.241 -0.0030 -0.0925  0.0864
 8864PP      PP18968  14.265  12.910   0.053 -0.1666  0.0280  0.0167
 8865PP      PP18969   8.233   8.515  10.428  0.0773 -0.2311  0.3492
 8866PP      PP18970   3.114   9.487   4.339  0.2685  0.1413 -0.1534
 8867PP      PP18971   6.770  12.296  10.148 -0.3229  0.2638  0.0458
 8868PP      PP18972   5.947   8.478   4.416  0.1256  0.0437  0.1014
 8869PP      PP18973   5.165   9.859  12.552  0.2189 -0.0925 -0.0977
 8870PP      PP18974   8.819  15.764  11.188 -0.2526  0.0547  0.1467
 8871PP      PP18975  13.281   5.607   9.496  0.2462  0.0273  0.0950
 8872PP      PP18976   3.685   1.869  10.354 -0.2794 -0.0880  0.1529
 8873PP      PP18977   8.287   6.404   0.596  0.1228 -0.0385 -0.0338
 8874PP      PP18978  15.451   0.795   7.780  0.1279  0.0420 -0.0283
 8875PP      PP18979  15.630   0.067   1.062  0.2871  0.4407 -0.0935
 8876PP      PP18980   2.623  15.648   3.418 -0.3114 -0.2082 -0.2118
 8877PP      PP18981   0.948   2.586   9.162  0.1406 -0.0470  0.5808
 8878PP      PP18982   8.872  14.469  11.571 -0.0749  0.0073  0.1393
 8879PP      PP18983   4.707   6.442  10.508 -0.1281 -0.0884  0.0755
 8880PP      PP18984   8.791   6.399  11.509  0.3066  0.1478 -0.2424
 8881PP      PP18985  13.003   4.745   9.810 -0.1223 -0.0811  0.0813
 8882PP      PP18986  14.688  10.897   4.044 -0.0039 -0.0034 -0.1697
 8883PP      PP18987   2.129   5.144   3.923 -0.1111  0.0083 -0.0267
 8884PP      PP18988  13.654   3.952  13.304  0.0676 -0.4026 -0.0754
 8885PP      PP18989   6.939  14.097   2.828  0.1427 -0.2354  0.1791
 8886PP      PP18990   8.012   7.520   4.209 -0.0342  0.0431  0.0148
 8887PP      PP18991   5.892  13.577  10.917 -0.4809  0.1440  0.3397
 8888PP      PP18992  14.411   0.602   9.424 -0.1914  0.0508 -0.0791
 8889PP      PP18993   6.662   2.686   9.671 -0.0084 -0.1197  0.2759
 8890PP      PP18994   5.933   6.705   8.783  0.0090  0.0602  0.1178
 8891PP      PP18995  14.777   9.634  12.344 -0.1510 -0.6165 -0.0277
 8892PP      PP18996   2.007   3.696   3.032 -0.0994  0.0991 -0.1108
 8893PP      PP18997   7.660   5.009  11.775  0.1484 -0.1529  0.0786
 8894PP      PP18998   2.390   4.527  11.944 -0.1103  0.0200 -0.0720
 8895PP      PP18999   0.317   4.827  11.797  0.0435 -0.3113  0.2182
 8896PP      PP19000   5.726   9.998  11.578 -0.0342 -0.5803  0.2552
 8897PP      PP19001   7.886  11.249   1.225 -0.2831 -0.1730 -0.2009
 8898PP      PP19002   9.158   7.553   4.179 -0.0416 -0.0435  0.1205
 8899PP      PP19003   8.998  15.821  12.657  0.1072 -0.1840  0.1405
 8900PP      PP19004  14.683   4.376   3.485 -0.2799 -0.1531  0.0288
 8901PP      PP19005   5.294   5.181   9.588  0.1718  0.0472  0.1297
 8902PP      PP19006   5.240   8.825   2.250  0.2737 -0.2036  0.2486
 8903PP      PP19007   8.817   3.165  12.161 -0.1215 -0.0214  0.1118
 8904PP      PP19008  12.239  14.913   1.847  0.1711 -0.2040  0.0759
 8905PP      PP19009  14.586  15.848   1.194 -0.0846  0.0081 -0.1083
 8906PP      PP19010  14.535   0.086   9.644 -0.0637 -0.0663 -0.0885
 8907PP      PP19011  13.966  13.069   0.456  0.1841 -0.0867  0.0926
 8908PP      PP19012   2.762   8.463   1.034 -0.0990 -0.0076 -0.0640
 8909PP      PP19013   8.974   1.970   2.062  0.1144 -0.0746 -0.0695
 8910PP      PP19014   0.648  11.381  13.303  0.0400  0.1034  0.1708
 8911PP      PP19015  13.365   7.674  10.058 -0.0604  0.1630 -0.0587
 8912PP      PP19016  15.807   4.089   2.394  0.0485  0.2044  0.2139
 8913PP      PP19017  15.253   1.905   8.956 -0.2126  0.0218  0.2142
 8914PP      PP19018  10.856  15.827   1.810  0.0063 -0.0017 -0.2452
 8915PP      PP19019   5.774  11.314   3.859 -0.1503  0.2433  0.0780
 8916PP      PP19020   0.908   4.427   9.316  0.0103 -0.0833 -0.0987
 8917PP      PP19021   8.011  12.909   0.260 -0.0262  0.2055  0.1332
 8918PP      PP19022  13.537   6.208   1.586 -0.4352 -0.1834  0.1024
 8919PP      PP19023   5.198  14.631   9.321 -0.3572 -0.3413 -0.0466
 8920PP      PP19024   9.589  11.710   2.788 -0.1009  0.0307 -0.3451
 8921PP      PP19025  14.104  10.925   4.359  0.0339  0.3907  0.0197
 8922PP      PP19026  11.267   8.814   0.039  0.0170  0.0255  0.1578
 8923PP      PP19027   4.481  13.839   3.676 -0.0743 -0.1863  0.3110
 8924PP      PP19028   6.840   4.723   0.823 -0.3052 -0.2699  0.1737
 8925PP      PP19029   1.924   3.629   9.076  0.0595  0.1441  0.0247
 8926PP      PP19030   5.328   5.526  10.156  0.0086 -0.2244 -0.0866
 8927PP      PP19031  15.488   6.354   2.781  0.3088 -0.3651  0.1584
 8928PP      PP19032   0.359  15.165   9.277 -0.1374  0.2575 -0.0125
 8929PP      PP19033   2.502   7.077   1.702 -0.2998 -0.0347 -0.0180
 8930PP      PP19034   7.699   9.577   1.303  0.3062 -0.2100 -0.1242
 8931PP      PP19035   9.421   7.160   0.082  0.0542  0.2328  0.1886
 8932PP      PP19036   7.178   8.205   3.682 -0.0157 -0.2171  0.2185
 8933PP      PP19037   0.774   6.661   9.905 -0.3172 -0.1716  0.1463
 8934PP      PP19038   6.062  10.939   0.444  0.2103 -0.0623 -0.3373
 8935PP      PP19039   4.244   7.791  13.123 -0.1640  0.3337  0.0227
 8936PP      PP19040  14.819   7.955   8.743  0.0768 -0.1620 -0.1945
 8937PP      PP19041  10.530   8.470   4.532 -0.2200  0.0656 -0.1829
 8938PP      PP19042  15.474   4.877   3.362 -0.0578  0.0396 -0.0157
 8939PP      PP19043  14.917  15.705  11.504 -0.2223  0.1874 -0.0313
 8940PP      PP19044   6.103  14.522  11.397 -0.0476 -0.0272  0.1330
 8941PP      PP19045   1.143  12.330  11.594 -0.2156  0.1507  0.0022
 8942PP      PP19046   1.380   1.924   8.107  0.2986  0.2313 -0.1243
 8943PP      PP19047  11.026  14.982   4.742  0.2366 -0.1274 -0.2090
 8944PP      PP19048   0.683   0.107  11.890 -0.0488 -0.1188 -0.1102
 8945PP      PP19049   8.227   9.309   3.991  0.1133  0.0655  0.0747
 8946PP      PP19050   3.288  10.922  10.636  0.0014  0.1037  0.2731
 8947PP      PP19051   4.739   4.179   9.971  0.1769  0.2511 -0.1637
 8948PP      PP19052   4.574   2.612  13.311  0.3694  0.1231 -0.2772
 8949PP      PP19053   6.624  12.713   8.992 -0.0101  0.1500  0.0708
 8950PP      PP19054  14.876   8.865   4.506 -0.2028  0.2116 -0.0110
 8951PP      PP19055  10.574   2.917  12.197  0.0132  0.0821 -0.2531
 8952PP      PP19056  13.369   2.803   8.576  0.2755  0.1635  0.1804
 8953PP      PP19057   0.475   2.179  11.854  0.6204  0.2312  0.2236
 8954PP      PP19058   5.900   5.970   1.865  0.2549 -0.0888  0.2821
 8955PP      PP19059   7.022  11.113   9.223  0.1757  0.1370  0.0750
 8956PP      PP19060   0.782  10.562  12.577  0.3350  0.1084 -0.0130
 8957PP      PP19061   9.300  13.757   1.857 -0.1538 -0.1251  0.2535
 8958PP      PP19062   7.423  10.615  11.546 -0.1388  0.0280  0.1284
 8959PP      PP19063  15.253   9.412   4.343 -0.2154  0.0472 -0.1215
 8960PP      PP19064   6.678  11.611   0.509  0.2727 -0.0571  0.2292
 8961PP      PP19065   0.584  14.893   9.660 -0.4279  0.0321  0.1787
 8962PP      PP19066  11.208   6.098   0.841  0.1698  0.0580  0.1386
 8963PP      PP19067   0.636   1.754  11.672  0.0342  0.0907 -0.0835
 8964PP      PP19068   6.328  12.648   3.532 -0.1342  0.1135  0.2096
 8965PP      PP19069  12.820  14.927  11.024 -0.0904  0.1885  0.0527
 8966PP      PP19070  10.089   7.316   0.501 -0.0670  0.1752 -0.1981
 8967PP      PP19071  14.622  13.055  10.793  0.1605 -0.1650 -0.1299
 8968PP      PP19072   8.234   8.203   4.195  0.1633 -0.0167  0.2605
 8969PP      PP19073   2.883   0.234   9.069 -0.2127 -0.1385 -0.0517
 8970PP      PP19074  15.746  10.410   2.231 -0.0826 -0.1915  0.2269
 8971PP      PP19075   6.703  15.919   1.920  0.1521  0.3040  0.3306
 8972PP      PP19076   3.639   9.364   1.476 -0.0380 -0.0622 -0.2477
 8973PP      PP19077  11.872  13.702   2.739  0.0573  0.0747 -0.1294
 8974PP      PP19078  14.391   3.693  13.153  0.5147 -0.1499  0.3419
 8975PP      PP19079  11.742   2.478   8.972  0.0806  0.1557  0.2572
 8976PP      PP19080   5.414   8.448  13.177 -0.0374  0.4262 -0.0093
 8977PP      PP19081   2.052   4.329   9.494 -0.2190 -0.0753 -0.2451
 8978PP      PP19082   9.833   1.190  11.853  0.1911  0.1170  0.0128
 8979PP      PP19083  12.053   8.027   9.552 -0.1011  0.1333  0.1535
 8980PP      PP19084  13.088   2.293   1.443  0.2224  0.0377  0.1620
 8981PP      PP19085  11.962   5.161   1.360 -0.0351  0.0126 -0.1080
 8982PP      PP19086  10.910   0.212   0.998 -0.2054 -0.0113 -0.0312
 8983PP      PP19087  10.364   9.664   0.483 -0.0979  0.0062  0.0098
 8984PP      PP19088   6.721  13.101   4.463  0.2977 -0.0343  0.1401
 8985PP      PP19089   7.977   1.139  10.554  0.0732  0.2334  0.2241
 8986PP      PP19090   9.724   6.363   4.476  0.0355  0.1629 -0.2940
 8987PP      PP19091   2.183   1.493   9.129  0.0008 -0.0542  0.0035
 8988PP      PP19092   7.530  15.013   4.089  0.1107  0.1501  0.0253
 8989PP      PP19093   2.338  14.953  10.998 -0.2634 -0.4242 -0.2057
 8990PP      PP19094  15.510   1.493  12.614 -0.3217 -0.1564 -0.0746
 8991PP      PP19095  10.937   8.702   5.175  0.1274 -0.1718  0.1284
 8992PP      PP19096  12.155  10.480  12.874  0.0352 -0.0358  0.0225
 8993PP      PP19097   1.619   7.447   1.804  0.4349  0.2894  0.1523
 8994PP      PP19098  14.989   8.704   5.016  0.1265  0.0674  0.1387
 8995PP      PP19099   5.191  11.867   3.168  0.1866 -0.2618  0.2984
 8996PP      PP19100  14.263   8.573   4.389 -0.2586  0.0505 -0.2409
 8997PP      PP19101  10.841   1.937   0.448  0.3475 -0.1761  0.0524
 8998PP      PP19102  15.310  10.967   3.103  0.0140  0.0059  0.1662
 8999PP      PP19103   1.676   1.114  12.075 -0.2568 -0.1855  0.2430
 9000PP      PP19104  12.562   6.903  12.606 -0.2118  0.1596  0.2788
 9001PP      PP19105   0.210   6.704   4.613 -0.0025  0.1336 -0.1502
 9002PP      PP19106   0.639   7.761   9.193 -0.0534  0.2432  0.3391
 9003PP      PP19107   6.489   8.115  10.754 -0.2693  0.0166  0.1458
 9004PP      PP19108  12.212  13.483   9.582 -0.2147  0.0921 -0.0541
 9005PP      PP19109  10.449   9.189   0.510  0.0052  0.1175 -0.0050
 9006PP      PP19110   3.175  14.496   1.618 -0.0205 -0.0177  0.0804
 9007PP      PP19111   6.272   7.698   3.259  0.3366 -0.2241 -0.0302
 9008PP      PP19112   9.378  12.877   0.633 -0.0042  0.1019  0.1168
 9009PP      PP19113  10.272   6.654   8.906  0.2023  0.3054 -0.1695
 9010PP      PP19114   2.447   3.047  12.421 -0.1869 -0.0898  0.0388
 9011PP      PP19115  12.678   6.146   2.962 -0.0771  0.3480 -0.2478
 9012PP      PP19116  15.122  10.546   2.769 -0.0860 -0.0233 -0.0694
 9013PP      PP19117   3.952   6.395   0.571 -0.0115  0.3909 -0.3268
 9014PP      PP19118  15.783  14.106   8.371 -0.0001  0.4374  0.0516
 9015PP      PP19119   2.400   1.691   2.586  0.2017 -0.2679 -0.1383
 9016PP      PP19120   4.205   6.598   3.555 -0.5320 -0.0068 -0.1311
 9017PP      PP19121   9.709  14.777   2.409 -0.2176 -0.1054 -0.0123
 9018PP      PP19122  10.742   8.297  12.588 -0.0703  0.1064  0.1132
 9019PP      PP19123   8.051  15.504  11.071 -0.1760  0.2114 -0.2679
 9020PP      PP19124   6.510   2.901  12.826  0.2403  0.1640  0.1127
 9021PP      PP19125  11.775   4.916   0.919  0.2516  0.0357  0.0484
 9022PP      PP19126   4.975   4.121   4.429  0.0537 -0.1658  0.0361
 9023PP      PP19127   5.947   7.916   8.737  0.1586 -0.0207 -0.0814
 9024PP      PP19128   8.492   3.599  13.007  0.2876 -0.0168 -0.0857
 9025PP      PP19129   0.596  12.949   2.520  0.0381  0.0071 -0.3409
 9026PP      PP19130   6.658  12.197   8.594  0.2662 -0.1898 -0.0002
 9027PP      PP19131  11.287   4.999  10.027 -0.0679  0.0179 -0.0937
 9028PP      PP19132   4.122  10.408   0.591  0.1787  0.1093  0.1504
 9029PP      PP19133   2.840  11.966   3.008 -0.3006  0.1545  0.0960
 9030PP      PP19134   4.010   2.852   4.170 -0.1384 -0.1597 -0.1564
 9031PP      PP19135   1.483  15.690   9.881 -0.2708  0.1402 -0.1627
 9032PP      PP19136   2.490   1.139   9.122  0.1755  0.1739 -0.3503
 9033PP      PP19137   7.910   2.449   3.496  0.0010  0.0483 -0.0778
 9034PP      PP19138   4.373   1.825   8.553  0.3275  0.0105 -0.1087
 9035PP      PP19139   6.295   3.407   2.969  0.1425 -0.1677 -0.0908
 9036PP      PP19140   0.561  15.111  13.332 -0.0409  0.3345  0.1654
 9037PP      PP19141  14.432   7.233   4.840 -0.0603 -0.0931  0.3833
 9038PP      PP19142   5.935   3.127   9.945 -0.1609 -0.1145 -0.0075
 9039PP      PP19143   1.739  15.880   0.545 -0.0126  0.0030  0.1058
 9040PP      PP19144  11.157   4.395   1.417 -0.2689 -0.1222  0.0886
 9041PP      PP19145   1.192  11.403   1.898  0.0102 -0.0756  0.2973
 9042PP      PP19146  11.816  14.108  10.626  0.0823 -0.0827  0.3391
 9043PP      PP19147   5.009   1.128  10.656  0.1162 -0.1316  0.4245
 9044PP      PP19148   6.079   7.301   0.300  0.0548  0.0860 -0.1149
 9045PP      PP19149   7.462  13.718   0.371 -0.0256 -0.0636 -0.2664
 9046PP      PP19150  13.067  14.305  10.109 -0.0058  0.1809  0.3531
 9047PP      PP19151   6.365   3.203   0.767 -0.2008  0.2939 -0.0858
 9048PP      PP19152  11.550   5.060  11.510  0.0187  0.2219  0.0982
 9049PP      PP19153   1.028   3.877   9.305  0.0640  0.1072 -0.1360
 9050PP      PP19154   3.708  10.120   8.988 -0.1016  0.2703  0.0508
 9051PP      PP19155  10.797  11.982   0.766  0.3029 -0.1964  0.2084
 9052PP      PP19156   1.868   6.846   0.804  0.1455 -0.1510 -0.1343
 9053PP      PP19157   0.846   6.302   4.294  0.0424  0.0417  0.2382
 9054PP      PP19158   9.137  13.873  13.012  0.2070  0.0478 -0.0088
 9055PP      PP19159   1.294  15.504   9.347  0.0349 -0.2809 -0.2358
 9056PP      PP19160   3.571  11.421  10.306 -0.0970 -0.0097 -0.0281
 9057PP      PP19161   8.415  11.962   1.107  0.0270 -0.0208  0.0622
 9058PP      PP19162   2.141  12.157   1.279  0.4055 -0.3058 -0.0084
 9059PP      PP19163   5.699   6.510   0.932 -0.0380  0.0199 -0.3524
 9060PP      PP19164   9.820   0.361   3.872 -0.2520 -0.0763  0.1236
 9061PP      PP19165  11.919  13.874  12.935  0.0166 -0.0306 -0.1089
 9062PP      PP19166   9.468  15.851   2.972 -0.2170  0.0433 -0.2476
 9063PP      PP19167   4.902  14.959  12.113  0.0863  0.1706 -0.0255
 9064PP      PP19168   7.167  13.650  10.314 -0.3659  0.0849  0.1200
 9065PP      PP19169   7.799  12.609  12.278  0.1851  0.3736 -0.2115
 9066PP      PP19170  12.634  13.703   3.696  0.4323  0.3342  0.0564
 9067PP      PP19171   5.587   4.512  11.194 -0.2919  0.1367 -0.1099
 9068PP      PP19172   1.423   9.466  11.737  0.0534  0.0273 -0.0147
 9069PP      PP19173  13.680   6.966   2.027 -0.0210 -0.0317  0.1130
 9070PP      PP19174   5.423   5.144  13.033 -0.2151 -0.1821 -0.0443
 9071PP      PP19175   3.385   2.055   9.829 -0.2196 -0.1106 -0.1023
 9072PP      PP19176   5.272   5.732   8.812 -0.0848  0.1031 -0.3233
 9073PP      PP19177  11.740  10.867  11.557 -0.1249 -0.1968 -0.0097
 9074PP      PP19178  15.124   1.660   9.625  0.2378  0.0123 -0.0973
 9075PP      PP19179   3.401   0.429   1.058 -0.0866 -0.2704 -0.0080
 9076PP      PP19180   2.196   7.232  10.337  0.3638 -0.3160 -0.3203
 9077PP      PP19181   3.503   6.320  10.987  0.1291  0.0945  0.1546
 9078PP      PP19182  15.667   1.133   1.085 -0.2961 -0.1629  0.4454
 9079PP      PP19183   8.446   2.724   2.077 -0.0233  0.1653 -0.0627
 9080PP      PP19184   4.318  13.008   9.292 -0.3130 -0.4230 -0.1015
 9081PP      PP19185   1.478   5.543   9.393 -0.0899  0.0896  0.3706
 9082PP      PP19186  14.003   1.456   8.927  0.1188 -0.1021 -0.0017
 9083PP      PP19187  12.050   0.345   1.847  0.0916  0.1770  0.1995
 9084PP      PP19188   6.842   5.531  11.389  0.0533 -0.0566 -0.2195
 9085PP      PP19189   1.359   6.060   2.123  0.2664 -0.1570  0.1395
 9086PP      PP19190   2.136   6.671   8.624  0.0939  0.0796  0.0152
 9087PP      PP19191  10.052   3.158  12.891  0.0117  0.1064  0.0657
 9088PP      PP19192  13.888  10.467   1.750 -0.2690 -0.1535 -0.0581
 9089PP      PP19193   5.992   9.139   9.046 -0.1498  0.1496  0.0402
 9090PP      PP19194   9.387   4.477  10.663  0.3284  0.2139 -0.1967
 9091PP      PP19195  13.139   4.418   2.130 -0.2943  0.2353  0.1290
 9092PP      PP19196   4.623  11.347   2.276 -0.4994  0.0733  0.0072
 9093PP      PP19197   7.486  15.324  12.468 -0.1673 -0.1036 -0.1746
 9094PP      PP19198   6.770  15.076   2.557  0.2343  0.1350  0.1593
 9095PP      PP19199   9.782  12.193  10.047 -0.0139  0.1796 -0.0136
 9096PP      PP19200   4.848  11.539   3.389  0.1087 -0.1397 -0.0471
 9097PP      PP19201   0.408  11.531  12.917 -0.2584  0.0249  0.2658
 9098PP      PP19202  13.992   4.925  10.454 -0.2627  0.2778  0.2826
 9099PP      PP19203   7.380   1.494   1.565 -0.0489  0.2314 -0.0142
 9100PP      PP19204   5.664  10.507   3.812  0.1414  0.0975  0.1122
 9101PP      PP19205   1.742   6.364  10.189  0.2730  0.1110  0.0282
 9102PP      PP19206  15.225   6.129  12.731  0.2386 -0.0518 -0.2270
 9103PP      PP19207  11.354  14.300  13.072 -0.1813 -0.0457  0.2108
 9104PP      PP19208   0.716   0.258   0.158 -0.4665 -0.3816  0.2291
 9105PP      PP19209   6.905   2.919  13.275 -0.1167 -0.0422 -0.0387
 9106PP      PP19210   8.909  10.141  10.089  0.1319 -0.1704 -0.4305
 9107PP      PP19211   0.358   7.249   9.344  0.1038 -0.0319 -0.0981
 9108PP      PP19212   7.781   0.695   0.306  0.0711 -0.2180 -0.1205
 9109PP      PP19213   6.048  13.078  10.902  0.3043  0.0617 -0.0109
 9110PP      PP19214   3.734   5.841   4.915  0.1570 -0.1566 -0.4051
 9111PP      PP19215   7.152  15.377   0.432  0.1819 -0.5667 -0.0665
 9112PP      PP19216   4.421  10.907   2.045  0.0455  0.0304  0.3152
 9113PP      PP19217   9.557   0.057   9.211  0.1416 -0.0201 -0.2087
 9114PP      PP19218   3.323  10.797   9.641  0.0311  0.1230  0.0358
 9115PP      PP19219   8.305  10.195   3.564  0.0624  0.3050 -0.1913
 9116PP      PP19220  10.914   7.214  11.761 -0.0989 -0.1171  0.2495
 9117PP      PP19221  12.254  11.156   9.255 -0.0397  0.0970  0.1238
 9118PP      PP19222   2.486  12.259   9.498  0.3551 -0.0161 -0.0019
 9119PP      PP19223  13.146   0.861  13.116  0.3782 -0.5184 -0.1109
 9120PP      PP19224   6.549   5.287   0.563 -0.0894 -0.1167  0.0412
 9121PP      PP19225  10.689   1.062   9.536 -0.0859 -0.2973 -0.2156
 9122PP      PP19226   2.133  13.344   3.596  0.1635 -0.2391  0.4171
 9123PP      PP19227  10.837  11.759  13.355 -0.1328 -0.1068  0.0575
 9124PP      PP19228  13.713  12.396  10.398 -0.2308  0.2087 -0.1295
 9125PP      PP19229  12.796   8.699   4.219 -0.0707  0.0359  0.0441
 9126PP      PP19230   7.452   6.462  12.997  0.0764  0.0873  0.2793
 9127PP      PP19231   8.777   3.125   2.097 -0.2122  0.0620 -0.0378
 9128PP      PP19232  12.947  10.140   9.266 -0.1269  0.1392 -0.2891
 9129PP      PP19233  10.755   6.192   3.038 -0.1937 -0.0823  0.0639
 9130PP      PP19234   3.912  13.524  11.429 -0.0772  0.0275  0.4593
 9131PP      PP19235   3.185   0.588   8.470  0.2557 -0.2063  0.0478
 9132PP      PP19236  11.375   2.373   9.340 -0.0973  0.2058  0.1693
 9133PP      PP19237  14.511   7.954   3.083 -0.0972  0.2665  0.0381
 9134PP      PP19238   4.477   4.124   3.452 -0.0177 -0.1987  0.1775
 9135PP      PP19239   8.611   8.292  12.531 -0.0536 -0.3611 -0.0081
 9136PP      PP19240   9.146   7.029  12.224 -0.0603 -0.1255 -0.1957
 9137PP      PP19241  13.843   4.355  12.199  0.1339 -0.2930 -0.1446
 9138PP      PP19242   7.126  15.013  13.318  0.0799 -0.2922 -0.0818
 9139PP      PP19243   2.518   0.354  10.883 -0.1578 -0.1369  0.0121
 9140PP      PP19244  11.528  15.177  12.188  0.0401  0.0910 -0.0859
 9141PP      PP19245   7.806   9.542   8.942 -0.2676  0.0360  0.1060
 9142PP      PP19246   4.007   1.502  11.500  0.2526 -0.0141 -0.1380
 9143PP      PP19247  10.043  12.396   3.994 -0.1537 -0.1687 -0.0917
 9144PP      PP19248   6.265   2.605   9.998 -0.0597 -0.1778  0.1400
 9145PP      PP19249   7.966  11.174  10.959  0.0613  0.0242  0.2912
 9146PP      PP19250   3.096  14.159  11.000 -0.0242 -0.3480  0.1394
 9147PP      PP19251  10.297   5.309   3.965  0.0783  0.0966 -0.2252
 9148PP      PP19252  10.153  11.346   1.376 -0.2343 -0.2299 -0.2939
 9149PP      PP19253   4.773   8.946   0.003  0.1678 -0.4395  0.0406
 9150PP      PP19254   4.158  11.726   9.485 -0.0130 -0.2553 -0.3514
 9151PP      PP19255   7.051   4.703  12.390 -0.0512  0.1243 -0.1155
 9152PP      PP19256  12.710   7.848   2.444 -0.1926  0.0891  0.1069
 9153PP      PP19257   9.800   5.500   1.687  0.1091  0.2133  0.0839
 9154PP      PP19258   5.832   6.123  12.457 -0.1199 -0.1895 -0.1053
 9155PP      PP19259   0.300   8.104   1.508 -0.1333 -0.0140  0.2741
 9156PP      PP19260  11.179   9.798  11.428  0.1171  0.0654  0.1453
 9157PP      PP19261  15.610   4.053   1.900  0.0900 -0.1387 -0.0586
 9158PP      PP19262  12.217  15.756   4.557 -0.0693  0.4036 -0.1966
 9159PP      PP19263  12.548   1.484   2.599  0.0369 -0.0393 -0.0017
 9160PP      PP19264  11.710   7.031   1.630  0.1586 -0.0778 -0.1034
 9161PP      PP19265   8.916  12.874   1.095 -0.3077 -0.0011  0.1327
 9162PP      PP19266  14.233  15.134   8.373  0.0940 -0.2035  0.3720
 9163PP      PP19267  14.642   2.722  11.935 -0.3655 -0.0085 -0.0485
 9164PP      PP19268   6.751   7.445   3.932 -0.3283  0.1718  0.0930
 9165PP      PP19269   3.132   3.577   0.669 -0.1527  0.3511  0.0830
 9166PP      PP19270   0.222   6.827  12.993  0.1767  0.3106  0.0141
 9167PP      PP19271   5.085   0.964  12.572 -0.3894 -0.0444 -0.1268
 9168PP      PP19272   1.118  14.235  13.391 -0.1362 -0.1086 -0.1896
 9169PP      PP19273   3.802   6.977   0.898  0.1270  0.2018  0.1610
 9170PP      PP19274   6.501   1.601   9.562  0.0748 -0.3009  0.0993
 9171PP      PP19275   8.660  14.818  13.154 -0.0726  0.1418  0.0411
 9172PP      PP19276   1.060   1.432  10.895  0.0486 -0.0877 -0.3123
 9173PP      PP19277  13.482   9.018   0.232 -0.1178 -0.2104  0.3424
 9174PP      PP19278  14.229   6.537  11.258 -0.1821  0.1344  0.1330
 9175PP      PP19279   6.554   2.044  11.670 -0.1498 -0.0775  0.1196
 9176PP      PP19280  11.882  14.013  11.697  0.0960  0.1716  0.0853
 9177PP      PP19281  14.585   4.967   3.654  0.0327  0.1383  0.0606
 9178PP      PP19282   2.379   9.496  10.118 -0.0265  0.1219 -0.1592
 9179PP      PP19283   1.217   9.700   9.435 -0.0735  0.1673  0.2526
 9180PP      PP19284   0.157   9.900  12.153 -0.0276  0.0932 -0.0461
 9181PP      PP19285  13.921  15.641   1.076 -0.0273  0.0594  0.0394
 9182PP      PP19286   2.042  15.362  12.224 -0.0108 -0.2161  0.2554
 9183PP      PP19287   5.805   1.482  11.536  0.2055 -0.4933 -0.1676
 9184PP      PP19288   0.055   9.321  10.688  0.1620 -0.0098  0.2875
 9185PP      PP19289   6.612   5.140   2.485  0.2844  0.1668 -0.5102
 9186PP      PP19290  14.035  12.284   9.621 -0.2987 -0.2256  0.1084
 9187PP      PP19291   2.033   3.211   3.211  0.0095 -0.1396 -0.3293
 9188PP      PP19292   9.394  12.583  10.094 -0.3299  0.1439  0.2300
 9189PP      PP19293   6.067  12.661   1.187 -0.0682 -0.3119  0.0837
 9190PP      PP19294  11.576   0.401  10.411  0.2459 -0.0062 -0.3007
 9191PP      PP19295   1.767   1.764  11.406 -0.0207  0.0652 -0.1197
 9192PP      PP19296   6.927   3.870  11.879 -0.1380  0.2412 -0.0635
 9193PP      PP19297   1.456  15.309   8.350 -0.1536 -0.1228  0.2273
 9194PP      PP19298   6.560   9.040   2.860  0.2762 -0.3741  0.0316
 9195PP      PP19299   8.244  10.266   4.092  0.1541  0.0260  0.3327
 9196PP      PP19300   9.124   8.937   5.028 -0.1646  0.0523  0.0516
 9197PP      PP19301  11.329   9.155   3.384  0.2025 -0.1248  0.3843
 9198PP      PP19302   5.547  12.462   2.658  0.0489  0.1970  0.0080
 9199PP      PP19303   4.722  14.358   9.440  0.0537 -0.0163 -0.2661
 9200PP      PP19304  11.043  11.520   2.473 -0.0448 -0.1057 -0.4031
 9201PP      PP19305  12.833   5.277   3.281 -0.0772  0.0203  0.0073
 9202PP      PP19306  15.743   6.124  12.541  0.4280  0.2847  0.0980
 9203PP      PP19307  13.347  14.043   1.376  0.1640 -0.0519  0.0642
 9204PP      PP19308   1.560   3.771  13.229 -0.0836 -0.2229  0.1859
 9205PP      PP19309  10.431   4.897   1.936  0.1001  0.1872 -0.0079
 9206PP      PP19310   4.024   8.964   0.708  0.3405  0.2391 -0.1498
 9207PP      PP19311   1.712  13.005   3.692 -0.2127  0.0081 -0.1895
 9208PP      PP19312   7.370  14.563   0.148  0.0737 -0.1526  0.1320
 9209PP      PP19313   4.912   0.233   0.852  0.3035  0.3423  0.0000
 9210PP      PP19314   5.935   3.995  11.582  0.0977  0.1401 -0.1399
 9211PP      PP19315  14.924   9.891  11.379  0.0715 -0.1402 -0.0767
 9212PP      PP19316  11.763   2.752  12.840 -0.0496  0.0290 -0.1326
 9213PP      PP19317   4.979  11.821   3.751 -0.0867 -0.1426  0.1001
 9214PP      PP19318   6.292   8.620  11.610 -0.1775 -0.0146  0.0349
 9215PP      PP19319   0.874   7.813   4.512  0.0490 -0.1520 -0.1605
 9216PP      PP19320   9.722  10.588  11.782 -0.0354  0.0247  0.1285
 9217PP      PP19321  11.240  12.195   9.162 -0.0072 -0.3969 -0.0150
 9218PP      PP19322  13.137   3.567   1.849  0.1649  0.3240 -0.0279
 9219PP      PP19323   8.300  11.439  11.934  0.2019 -0.0272  0.1671
 9220PP      PP19324   5.012   4.331  12.703 -0.0221 -0.2223  0.0414
 9221PP      PP19325  14.964   7.513   8.999 -0.0305  0.1381 -0.1075
 9222PP      PP19326   7.466   7.854   0.080  0.0188 -0.0006 -0.0259
 9223PP      PP19327   9.974  10.718   8.881 -0.0496 -0.2072 -0.3142
 9224PP      PP19328  10.141   9.920   1.786 -0.2219  0.0407  0.1199
 9225PP      PP19329   6.924   8.726  11.984 -0.0246  0.0935  0.0083
 9226PP      PP19330   2.657  12.050  12.110  0.1176 -0.0341 -0.2005
 9227PP      PP19331   0.920   1.151  12.632 -0.0746 -0.1516  0.0763
 9228PP      PP19332  11.894   1.529  11.577  0.1448  0.0697  0.1209
 9229PP      PP19333   0.269  11.189   8.861 -0.0592 -0.0466  0.1134
 9230PP      PP19334  14.790   8.455   3.028 -0.3025 -0.1707 -0.2626
 9231PP      PP19335   2.940   4.378   0.915 -0.0328 -0.0379  0.1964
 9232PP      PP19336   4.094  15.592   9.053  0.1847  0.1994  0.1158
 9233PP      PP19337  12.752  10.861  10.092  0.2646  0.0538 -0.1275
 9234PP      PP19338   0.294   0.853   0.789  0.1108 -0.2453 -0.0021
 9235PP      PP19339   6.303  13.177  12.954 -0.1713  0.1642  0.2779
 9236PP      PP19340   0.280   3.463  11.577  0.5825  0.0144 -0.0994
 9237PP      PP19341   4.587   0.292  11.634 -0.3366  0.0303 -0.3029
 9238PP      PP19342   5.343   3.894   2.218 -0.0727  0.0773 -0.1916
 9239PP      PP19343   6.623  10.443   3.960  0.0447  0.2458  0.1457
 9240PP      PP19344  12.821   5.107   4.929  0.1478 -0.0914  0.0630
 9241PP      PP19345  14.209   8.484   2.016 -0.2273 -0.4223 -0.0983
 9242PP      PP19346   3.030  13.817  11.323  0.0868 -0.1842  0.0892
 9243PP      PP19347   7.644   7.740  12.669  0.1026 -0.1041 -0.0593
 9244PP      PP19348  11.113   8.141   2.391 -0.2221 -0.0768  0.3092
 9245PP      PP19349   7.177   6.829   1.864 -0.2658  0.3850  0.2101
 9246PP      PP19350  13.494  12.442   3.393  0.2897 -0.0990  0.0230
 9247PP      PP19351   2.064   5.629   1.650  0.0436  0.2879  0.0512
 9248PP      PP19352  10.840   4.107   0.375  0.3480  0.0381 -0.0272
 9249PP      PP19353   8.221   2.830   2.871  0.0813  0.1608  0.2592
 9250PP      PP19354   0.625  11.455   9.762 -0.0627 -0.0981  0.0555
 9251PP      PP19355  13.980   0.173   1.227  0.2486  0.2944 -0.0786
 9252PP      PP19356  15.126   5.628   4.013  0.0478  0.2356 -0.1904
 9253PP      PP19357   9.295  14.497   9.784  0.0486  0.0639 -0.1300
 9254PP      PP19358   9.427  10.835  10.753 -0.1579 -0.0478  0.3040
 9255PP      PP19359   2.277   8.264   3.957 -0.2690 -0.0115 -0.0120
 9256PP      PP19360   0.012  11.310   8.483  0.0182 -0.1428  0.0907
 9257PP      PP19361   6.464  15.455   3.807  0.2342 -0.3614  0.1517
 9258PP      PP19362  13.905   2.175  10.884  0.1436 -0.1644 -0.1060
 9259PP      PP19363  12.586  12.119   3.171 -0.1969 -0.0524  0.0894
 9260PP      PP19364  10.084   9.250  12.253 -0.0132  0.0977 -0.0223
 9261PP      PP19365  15.722   1.910   0.816  0.2489 -0.0396 -0.1467
 9262PP      PP19366   8.242  12.836   4.763 -0.3962 -0.2562 -0.0583
 9263PP      PP19367   2.926   9.759   0.899  0.2229 -0.1228 -0.1603
 9264PP      PP19368   3.155   4.655   1.521  0.0854  0.2142  0.0568
 9265PP      PP19369   9.693  15.405   4.186  0.2804 -0.1001  0.0110
 9266PP      PP19370   3.354   5.327  13.252 -0.0634  0.2909  0.0138
 9267PP      PP19371  10.687   9.878  10.185 -0.1421  0.1240 -0.1494
 9268PP      PP19372   5.251   0.160   2.893  0.1778 -0.3211 -0.0197
 9269PP      PP19373  15.260  11.514   9.335 -0.2599 -0.0213 -0.1109
 9270PP      PP19374  12.609   1.859  11.925  0.1582 -0.4255  0.0214
 9271PP      PP19375   8.272   9.777   9.609  0.0724 -0.2283 -0.0455
 9272PP      PP19376  14.980   6.212   8.655  0.1855  0.1345  0.3275
 9273PP      PP19377   5.541  15.086  10.560  0.2584 -0.1827  0.0342
 9274PP      PP19378   5.208  11.302   0.459  0.1763 -0.0096  0.3185
 9275PP      PP19379  11.238  14.195   0.950  0.0998  0.0008  0.2433
 9276PP      PP19380   9.618   7.281  10.035  0.1935 -0.1924  0.1366
 9277PP      PP19381  15.492  10.028   3.521  0.0460  0.2335  0.0805
 9278PP      PP19382   3.749   8.979   3.554 -0.2686 -0.0886 -0.0011
 9279PP      PP19383   3.292  13.706   1.509 -0.0438  0.1145  0.0068
 9280PP      PP19384   2.578   3.893  10.148 -0.0812 -0.1644  0.1155
 9281PP      PP19385  14.797   9.916   9.676  0.2261 -0.0791  0.0553
 9282PP      PP19386   5.047  15.826   2.522 -0.0974  0.0170 -0.0105
 9283PP      PP19387  11.874   7.729   0.696  0.1567  0.0473  0.4487
 9284PP      PP19388  10.448   2.352   4.166 -0.1022 -0.0129  0.0449
 9285PP      PP19389   3.712   2.743  10.963  0.1193 -0.0771  0.1550
 9286PP      PP19390  13.642   7.425   5.024 -0.0491 -0.1007 -0.0952
 9287PP      PP19391   3.024  12.718   0.504  0.2486  0.0189  0.2872
 9288PP      PP19392   4.635  10.532   9.019  0.2079  0.2148  0.2479
 9289PP      PP19393  13.751   3.559   1.044 -0.5532 -0.2028  0.1158
 9290PP      PP19394   7.778   8.206  11.854  0.0087  0.0176 -0.1849
 9291PP      PP19395  12.366  13.703  13.075 -0.0672  0.0048  0.2456
 9292PP      PP19396   0.461  10.933   1.102 -0.1217 -0.0733 -0.0465
 9293PP      PP19397  14.155  12.841   1.789 -0.1750 -0.1443 -0.0540
 9294PP      PP19398  14.009   9.527  11.404  0.2797  0.0065  0.3385
 9295PP      PP19399  12.441   5.936  10.694 -0.0215  0.1016 -0.1488
 9296PP      PP19400  10.300  15.787  12.043  0.3306 -0.6099 -0.0776
 9297PP      PP19401   5.723   4.027   1.891 -0.1702  0.0897  0.1063
 9298PP      PP19402  13.916   0.978  12.415 -0.0321 -0.1742  0.0480
 9299PP      PP19403   5.756  15.433   9.986 -0.0399 -0.0085  0.4019
 9300PP      PP19404   4.354  12.198   0.292 -0.1703  0.0890  0.0877
 9301PP      PP19405  11.571  11.661   1.306 -0.2218 -0.0401 -0.0631
 9302PP      PP19406   1.472   3.434  10.407  0.4020  0.0721  0.0942
 9303PP      PP19407   4.472   6.460   4.485  0.0115  0.0265 -0.0095
 9304PP      PP19408   9.533  10.467   1.042  0.2996 -0.2343 -0.0698
 9305PP      PP19409   8.837  15.318  12.414  0.2238  0.1879 -0.0308
 9306PP      PP19410   4.930   9.222   1.486 -0.1303 -0.0306  0.1234
 9307PP      PP19411   8.580   2.996  10.489 -0.0691  0.0177 -0.1495
 9308PP      PP19412   3.002   6.211   4.546  0.2535  0.1453  0.1808
 9309PP      PP19413   1.637   3.191   2.571  0.0884 -0.0838 -0.0209
 9310PP      PP19414   1.667   5.977   2.468  0.1156  0.0195 -0.4513
 9311PP      PP19415   3.009  12.226   8.740  0.1230  0.0595  0.0298
 9312PP      PP19416   9.638  13.030   9.495 -0.0685 -0.0411  0.0963
 9313PP      PP19417   3.809   6.540  13.387 -0.0840  0.2239  0.1942
 9314PP      PP19418   9.395  10.694   0.162 -0.0249  0.0336  0.2972
 9315PP      PP19419   9.583   6.584  12.924  0.0550 -0.1103 -0.0414
 9316PP      PP19420  12.008   2.314   0.065 -0.1235  0.0473 -0.0565
 9317PP      PP19421   1.562  13.612   1.854 -0.1316  0.1515  0.1284
 9318PP      PP19422  13.557  13.459   0.379 -0.2981  0.1247  0.2339
 9319PP      PP19423   5.312   2.244  11.004  0.2710 -0.2641  0.2662
 9320PP      PP19424   7.943   9.578   4.552 -0.0016 -0.1241  0.0255
 9321PP      PP19425  14.601   6.595  10.370  0.1364  0.0049  0.0510
 9322PP      PP19426  14.409   0.641   1.950 -0.1574 -0.3575  0.1514
 9323PP      PP19427   3.267  12.176   2.639  0.2339 -0.4636  0.1666
 9324PP      PP19428  13.613  13.131  12.982 -0.1319  0.1919 -0.1452
 9325PP      PP19429  10.838  15.414  10.267  0.0330  0.2180 -0.4361
 9326PP      PP19430   0.430   0.987  11.484 -0.1188 -0.0920 -0.1666
 9327PP      PP19431   7.747  12.980   2.454  0.1146 -0.1098  0.0912
 9328PP      PP19432  11.050   7.282   2.179  0.1864  0.0089  0.3880
 9329PP      PP19433   4.400  15.087  12.239 -0.0961 -0.0715 -0.1921
 9330PP      PP19434  12.796  12.689  12.984 -0.1552 -0.1342  0.2617
 9331PP      PP19435   0.397  11.418   1.363  0.1101  0.1179 -0.1323
 9332PP      PP19436  10.425   1.444  10.991  0.0548 -0.2684  0.1679
 9333PP      PP19437   0.203   6.138   3.481 -0.0821 -0.1709  0.2222
 9334PP      PP19438   3.222   9.846  11.615  0.1645 -0.3416 -0.2646
 9335PP      PP19439   8.249   6.082   1.676 -0.1951  0.0568 -0.2794
 9336PP      PP19440  12.906  15.734  11.629  0.0540 -0.1701 -0.0455
 9337PP      PP19441  12.709   0.834   0.155 -0.1387 -0.3110  0.2840
 9338PP      PP19442  14.004  13.368   2.781  0.4182  0.1246 -0.3570
 9339PP      PP19443   6.618  11.693   8.884 -0.2090  0.0116 -0.0102
 9340PP      PP19444   7.406  11.876   3.366  0.1520 -0.0239 -0.1548
 9341PP      PP19445   2.056   5.728   2.246 -0.0041 -0.1704  0.2280
 9342PP      PP19446   1.123  10.400  11.628 -0.2306 -0.1974  0.0468
 9343PP      PP19447   1.320   5.090   9.823  0.0277 -0.3622  0.0441
 9344PP      PP19448   8.146  15.904   3.462  0.1459 -0.1536 -0.1822
 9345PP      PP19449   2.949   3.210   3.086 -0.0697  0.3433  0.0329
 9346PP      PP19450  13.010   5.533   9.090  0.0327  0.0471 -0.1057
 9347PP      PP19451   3.875   8.420  11.904  0.0999  0.0528  0.2264
 9348PP      PP19452   6.894  14.559   9.808  0.0658 -0.0237 -0.0216
 9349PP      PP19453  11.036   8.705  12.488 -0.0860 -0.1824  0.0455
 9350PP      PP19454   3.909   9.634  11.045 -0.0840  0.0642 -0.2093
 9351PP      PP19455   3.536  10.079   9.849 -0.2044  0.0912 -0.1757
 9352PP      PP19456   8.672   4.446   2.167 -0.3202  0.1129  0.1409
 9353PP      PP19457  11.768   3.445  12.132 -0.0540  0.3995 -0.2119
 9354PP      PP19458   0.017   2.567   9.178  0.3042 -0.2398 -0.0012
 9355PP      PP19459  15.033  12.896   3.436 -0.0399 -0.1636  0.0001
 9356PP      PP19460  13.547   2.248   0.452  0.0414 -0.2823  0.2203
 9357PP      PP19461   8.645  13.022   9.781  0.1357  0.0861  0.1639
 9358PP      PP19462   0.635   6.569  10.800 -0.5130  0.0821  0.2036
 9359PP      PP19463   7.487  12.330   0.536  0.4753 -0.1110  0.0205
 9360PP      PP19464  11.646   6.302   8.992 -0.5361  0.1349  0.0297
 9361PP      PP19465   3.914   5.121  11.821  0.1349 -0.2095  0.0198
 9362PP      PP19466  11.482   7.922   5.132  0.0162 -0.3695 -0.3767
 9363PP      PP19467   6.231  13.070   8.964 -0.0809 -0.1004  0.1253
 9364PP      PP19468   3.714   7.150   1.563  0.2817 -0.2114 -0.2760
 9365PP      PP19469   7.239  14.746   2.152  0.2050 -0.0083 -0.0664
 9366PP      PP19470  14.187   0.794   2.822 -0.0277  0.1020  0.1549
 9367PP      PP19471   6.199   3.511  10.994 -0.4455  0.0043  0.0441
 9368PP      PP19472   3.389   2.423   9.321  0.1622  0.0634 -0.1232
 9369PP      PP19473   9.303  12.502   3.204  0.0400 -0.3174  0.0021
 9370PP      PP19474  13.937  14.789   9.666 -0.0829  0.0528  0.2704
 9371PP      PP19475  10.800   4.613  11.321  0.0765 -0.1986  0.2141
 9372PP      PP19476  14.300   9.881  12.287  0.0337  0.1215 -0.2239
 9373PP      PP19477   3.774   2.052  11.803 -0.1233 -0.1047  0.2067
 9374PP      PP19478  13.283   5.656  11.938 -0.1889  0.1023 -0.2437
 9375PP      PP19479  10.527  12.515   3.692  0.0858 -0.1364 -0.3327
 9376PP      PP19480   0.991   1.867  12.169  0.1019 -0.0577  0.4683
 9377PP      PP19481  11.527   3.019  10.732  0.0265  0.0925  0.3698
 9378PP      PP19482   3.669   4.031   1.960 -0.0651  0.4400 -0.0739
 9379PP      PP19483  15.921   1.166  11.560  0.1519  0.0333 -0.3604
 9380PP      PP19484   5.647   1.623  12.051 -0.2953  0.2596 -0.0571
 9381PP      PP19485  12.136  11.301  12.941 -0.0542 -0.0174 -0.1219
 9382PP      PP19486   2.268   3.211  12.960  0.0439 -0.2026 -0.0142
 9383PP      PP19487  10.141   6.972   3.344 -0.1382 -0.0781  0.1237
 9384PP      PP19488   5.297  15.345  12.369 -0.1719 -0.0587 -0.1612
 9385PP      PP19489   2.279  11.297  11.005  0.0540 -0.0141  0.0741
 9386PP      PP19490   2.851   4.425   2.544 -0.0203  0.2588  0.2371
 9387PP      PP19491   7.470   1.265   3.641  0.1826  0.2677 -0.1992
 9388PP      PP19492  10.300   6.889  11.574 -0.0492  0.0085 -0.3571
 9389PP      PP19493   5.386  11.032   1.755 -0.3086 -0.0581 -0.0757
 9390PP      PP19494  13.301   0.206  10.789  0.1081 -0.2014 -0.1283
 9391PP      PP19495  11.213  13.195  10.913  0.0345 -0.2662  0.0475
 9392PP      PP19496  14.597   6.137  10.467  0.0569 -0.0444  0.0910
 9393PP      PP19497   0.084  12.277  13.287 -0.2290  0.0197  0.0755
 9394PP      PP19498   7.584   6.124   2.935 -0.1111 -0.1112 -0.1917
 9395PP      PP19499   6.389  15.234   9.579  0.1781 -0.0930 -0.0718
 9396PP      PP19500   3.694   6.879  13.057 -0.0671  0.0169  0.0866
 9397PP      PP19501  12.255   9.265   9.125 -0.2614  0.1665  0.2439
 9398PP      PP19502   1.032  15.193   1.598 -0.4286 -0.0999 -0.0400
 9399PP      PP19503   7.803  11.722   9.180 -0.0236 -0.1358 -0.0098
 9400PP      PP19504  11.014   1.283   1.769 -0.2919 -0.5445  0.1060
 9401PP      PP19505  10.939   7.100   0.329 -0.1093 -0.0741  0.5263
 9402PP      PP19506   5.987   8.773  11.126  0.1494  0.0040 -0.1348
 9403PP      PP19507  12.055   3.015  12.208 -0.1145  0.1429 -0.2653
 9404PP      PP19508  11.829  12.383  11.403 -0.2135 -0.2461 -0.0346
 9405PP      PP19509   3.395   4.770   3.248  0.1056 -0.1793 -0.1702
 9406PP      PP19510  10.081  11.772  12.126 -0.3521  0.1397 -0.0582
 9407PP      PP19511   8.325  14.953   3.906 -0.0922  0.0668 -0.1287
 9408PP      PP19512  12.651  10.399   8.889  0.2105 -0.3161 -0.2808
 9409PP      PP19513   7.561   4.333   9.309  0.1973 -0.0718 -0.0093
 9410PP      PP19514  10.492  11.608  11.159 -0.0824  0.1078 -0.1933
 9411PP      PP19515  10.476   7.207   1.944 -0.1713  0.0289 -0.5359
 9412PP      PP19516   5.682  12.471  13.308 -0.0838 -0.1069  0.2174
 9413PP      PP19517  14.361   6.348   1.843  0.1841  0.0522 -0.0789
 9414PP      PP19518   2.001   8.445  12.231  0.1048  0.1207  0.0822
 9415PP      PP19519   9.008  10.117  11.350 -0.1637 -0.1813  0.0180
 9416PP      PP19520   4.074  14.804   3.160 -0.2298 -0.2436  0.0599
 9417PP      PP19521  12.019   6.840   0.565  0.1070 -0.0311 -0.1071
 9418PP      PP19522   8.558  11.504   3.273  0.2486 -0.0163  0.1096
 9419PP      PP19523  12.004  11.222   9.641  0.0561 -0.0423 -0.1955
 9420PP      PP19524   9.470   1.568   1.054 -0.3810 -0.2126 -0.0791
 9421PP      PP19525   8.143   7.726   2.051 -0.1313 -0.2025 -0.3368
 9422PP      PP19526  10.070  10.167   0.520 -0.1523 -0.1541 -0.1225
 9423PP      PP19527  14.393   0.353   2.967 -0.0119 -0.0750 -0.0459
 9424PP      PP19528   7.208   3.753   4.234  0.0419 -0.0113  0.0734
 9425PP      PP19529  12.678   4.079   8.819  0.0672 -0.0869  0.2816
 9426PP      PP19530   6.042   1.317   9.356 -0.2169  0.0585  0.1980
 9427PP      PP19531   7.988  10.539   8.416 -0.1293  0.0213  0.1204
 9428PP      PP19532   1.047  11.425   9.310  0.0157  0.0392 -0.1392
 9429PP      PP19533  15.854  13.154   9.828  0.2887 -0.2998  0.1603
 9430PP      PP19534  13.208  10.377  12.731  0.0585  0.0965 -0.0853
 9431PP      PP19535   8.665   0.467  11.567  0.1949  0.1416  0.0641
 9432PP      PP19536   0.808   3.271   2.127 -0.0653 -0.0569  0.0832
 9433PP      PP19537   9.992   4.289   3.259  0.1081  0.0295 -0.0490
 9434PP      PP19538   5.592  10.838  12.120  0.0373 -0.0172 -0.1317
 9435PP      PP19539   3.575  12.695   1.622  0.0312 -0.0019 -0.2831
 9436PP      PP19540   5.284  15.162   0.921 -0.2644 -0.1339 -0.3997
 9437PP      PP19541  11.245   4.916  10.513  0.0000 -0.1318  0.0072
 9438PP      PP19542   8.199   8.633   9.096  0.0375 -0.2286 -0.0972
 9439PP      PP19543   2.802  12.635  12.326 -0.2836  0.2378 -0.0452
 9440PP      PP19544   9.829   5.540  11.143  0.2223  0.0998 -0.0722
 9441PP      PP19545   5.389   1.122   3.637  0.0359  0.0097 -0.2330
 9442PP      PP19546  11.377   7.368   3.506  0.5707  0.1709  0.0485
 9443PP      PP19547   8.010   0.141   9.999 -0.1263 -0.2850 -0.2290
 9444PP      PP19548   0.019  12.837   2.193 -0.0352  0.0387  0.1364
 9445PP      PP19549   0.236   1.923   0.463 -0.0226  0.3241 -0.1811
 9446PP      PP19550   0.364   1.759   1.948  0.0436 -0.0008  0.0404
 9447PP      PP19551   1.138   3.070  11.668  0.1007  0.2635 -0.1588
 9448PP      PP19552   3.419   6.121   2.926  0.2087 -0.0256 -0.2953
 9449PP      PP19553   4.601  10.780  12.146  0.1077 -0.1176 -0.4165
 9450PP      PP19554   9.586   4.103   9.860  0.5673 -0.4620  0.1397
 9451PP      PP19555   2.084  15.730  12.832 -0.2859  0.0145  0.2208
 9452PP      PP19556   7.172   5.669   4.113 -0.3192 -0.1298 -0.1984
 9453PP      PP19557   8.528   7.981  12.925  0.0069 -0.2018  0.2641
 9454PP      PP19558   3.444  11.501  12.061 -0.2115 -0.4393 -0.1277
 9455PP      PP19559   0.543  10.507   9.378  0.1008  0.2419  0.3206
 9456PP      PP19560  10.775   2.562  11.753  0.1466 -0.1206  0.0246
 9457PP      PP19561   6.172  15.316   1.189  0.2450 -0.1709 -0.0681
 9458PP      PP19562  14.539  14.438   3.298  0.0955  0.0900 -0.0404
 9459PP      PP19563   8.292   2.611   0.412  0.0820  0.0540  0.3043
 9460PP      PP19564  12.175  10.808   2.254 -0.0062 -0.0328 -0.0530
 9461PP      PP19565   8.414  14.228  12.282 -0.1641 -0.3053 -0.0776
 9462PP      PP19566  15.787   4.413   1.192 -0.1927  0.2263  0.0273
 9463PP      PP19567   2.267   6.406   0.243 -0.2578 -0.0397 -0.1565
 9464PP      PP19568  13.794  14.019  11.934  0.5182  0.1706 -0.0026
 9465PP      PP19569   6.730  14.824  13.099 -0.0063  0.2309 -0.1442
 9466PP      PP19570  12.958   7.880   0.605 -0.0773 -0.3251  0.1527
 9467PP      PP19571  15.562   6.826  11.985  0.0995  0.1088 -0.2968
 9468PP      PP19572  10.901   8.564   2.203  0.2809 -0.0748 -0.2835
 9469PP      PP19573  15.310   8.923  10.183  0.1145  0.1254 -0.0390
 9470PP      PP19574  14.245  14.992   2.425  0.1110 -0.0053 -0.0541
 9471PP      PP19575  12.206  11.054  11.758  0.3065 -0.0231  0.1711
 9472PP      PP19576   1.443   3.081   4.087 -0.1279  0.1469 -0.0697
 9473PP      PP19577   2.802  15.122   9.493 -0.2803 -0.1526 -0.3567
 9474PP      PP19578   5.602   0.396   2.464 -0.0350 -0.2126  0.0138
 9475PP      PP19579   4.752  12.193  13.227  0.0992 -0.0586  0.1997
 9476PP      PP19580   6.784   6.856   8.981 -0.1372 -0.0094  0.1963
 9477PP      PP19581   6.635   0.419  11.332  0.0126  0.4037 -0.3651
 9478PP      PP19582   5.683  11.939  11.992  0.0478  0.1547  0.1719
 9479PP      PP19583   8.445  14.809   3.108  0.0645  0.0519  0.0602
 9480PP      PP19584   1.047  11.650   0.069 -0.1985  0.0776 -0.3408
 9481PP      PP19585  11.250   6.384   0.408  0.1495 -0.1494 -0.0244
 9482PP      PP19586  12.202   6.782   3.669 -0.1931  0.0066 -0.1519
 9483PP      PP19587  11.351   9.041   4.673  0.2656  0.1155  0.2951
 9484PP      PP19588   3.608   9.253  10.897 -0.2211  0.2703 -0.1004
 9485PP      PP19589   7.321  14.795   2.936 -0.0031  0.1620 -0.1569
 9486PP      PP19590   9.945   9.851  10.878  0.2632 -0.0149  0.1556
 9487PP      PP19591   3.819   2.493   2.061 -0.0708 -0.1910 -0.1165
 9488PP      PP19592   4.425  12.479   8.234  0.0649 -0.1541 -0.1744
 9489PP      PP19593  13.592   7.009   3.825  0.3057  0.1218 -0.2033
 9490PP      PP19594   6.115  11.418   8.826  0.1350 -0.0014  0.1472
 9491PP      PP19595  10.048   8.515   4.327 -0.0806 -0.0682  0.2087
 9492PP      PP19596   2.885  13.778   2.546  0.0358  0.0066 -0.0692
 9493PP      PP19597  12.455   4.344   3.055 -0.0749  0.0105  0.2904
 9494PP      PP19598   1.111   3.113  10.481 -0.3471 -0.1065  0.0596
 9495PP      PP19599  13.278   2.263   8.976  0.1944 -0.3727 -0.0213
 9496PP      PP19600  11.579   0.327   1.600  0.0328 -0.1864  0.0627
 9497PP      PP19601   2.583   9.642  10.832  0.0071 -0.1731 -0.1065
 9498PP      PP19602   0.412   3.103  10.272  0.0094  0.2651 -0.4362
 9499PP      PP19603   5.393   8.896  12.755  0.2531 -0.0141  0.1433
 9500PP      PP19604   7.902   3.417   1.849 -0.0943  0.3417  0.0445
 9501PP      PP19605   8.326   9.268   9.875 -0.1500 -0.1183  0.1913
 9502PP      PP19606  12.854   3.581   9.064  0.2591 -0.0280  0.1871
 9503PP      PP19607  13.241   5.568  10.766  0.1577 -0.1098 -0.1076
 9504PP      PP19608   5.257   2.102   9.443 -0.1480 -0.2948  0.3714
 9505PP      PP19609  13.024  11.872   4.098 -0.0018  0.0604  0.0425
 9506PP      PP19610   4.251   7.424   4.681 -0.1187 -0.1197  0.1066
 9507PP      PP19611  10.220  12.406   2.878  0.0052  0.0707  0.0745
 9508PP      PP19612  14.553   6.931   4.247 -0.0533  0.0833  0.0529
 9509PP      PP19613   8.107   1.059   1.518  0.3848 -0.3031  0.0608
 9510PP      PP19614  15.117   5.696  10.866  0.0124  0.3982  0.0463
 9511PP      PP19615  13.812   6.191   4.184  0.1136 -0.0335 -0.1468
 9512PP      PP19616   7.900  14.694   3.948  0.0179 -0.0019 -0.3646
 9513PP      PP19617   3.801  15.742   2.141 -0.0531 -0.0565 -0.0512
 9514PP      PP19618   4.539   2.109  10.966 -0.1696 -0.2207 -0.1250
 9515PP      PP19619   4.802   5.118   4.266  0.1593  0.0820  0.0027
 9516PP      PP19620   4.430   3.172  10.089  0.0452 -0.0199 -0.0053
 9517PP      PP19621   7.306   3.801  12.329  0.3021  0.4189  0.0337
 9518PP      PP19622  10.397   6.344   2.739 -0.2289  0.0457  0.0620
 9519PP      PP19623   2.665  11.649   1.480  0.2099  0.0537 -0.0948
 9520PP      PP19624   7.492   5.318   3.233  0.1259 -0.1453 -0.2866
 9521PP      PP19625   5.703  13.258  11.365 -0.2504 -0.0570  0.1935
 9522PP      PP19626   7.891   6.314   4.005 -0.2993  0.0917 -0.0666
 9523PP      PP19627   7.859   0.528  10.845  0.1964  0.2087 -0.0232
 9524PP      PP19628   1.967   8.403   0.399  0.0154 -0.1723 -0.1053
 9525PP      PP19629   2.589   2.196   3.618  0.0185  0.0936  0.2743
 9526PP      PP19630   2.353   6.203   8.968  0.0879  0.3020 -0.2036
 9527PP      PP19631  14.311  10.756  11.024 -0.1116  0.1251 -0.0756
 9528PP      PP19632  14.935  12.612   9.083 -0.1858  0.1486 -0.1089
 9529PP      PP19633  15.273  12.529  10.297  0.0532 -0.1741  0.1356
 9530PP      PP19634  10.969  14.104  12.678  0.1374  0.0067 -0.1213
 9531PP      PP19635  14.245  11.924   0.332  0.2090 -0.0836  0.0139
 9532PP      PP19636  15.682  11.939   9.744  0.0803 -0.3305  0.2689
 9533PP      PP19637   1.693   2.644   8.669  0.1452 -0.1643  0.1210
 9534PP      PP19638   2.420  10.119   2.445  0.0214  0.2196 -0.2159
 9535PP      PP19639   0.561  13.512   0.290 -0.0002  0.0224 -0.0336
 9536PP      PP19640   3.688   3.558   3.645 -0.1284  0.0263  0.2464
 9537PP      PP19641  12.801   7.074  10.389 -0.0431  0.0699  0.0329
 9538PP      PP19642   7.361  10.119  10.350  0.1559 -0.1489  0.0758
 9539PP      PP19643   1.461   1.810  11.026  0.0939  0.0475 -0.2596
 9540PP      PP19644  11.343   9.411  11.056  0.1168 -0.2688  0.1678
 9541PP      PP19645   2.983   8.246   2.797  0.1278 -0.2585  0.0820
 9542PP      PP19646   5.869   5.037   1.683  0.1490  0.0489  0.0884
 9543PP      PP19647   3.682  15.327  12.957  0.0155  0.2414 -0.3408
 9544PP      PP19648  12.410   4.643  10.597  0.1552 -0.3432 -0.0385
 9545PP      PP19649  15.058  10.453  10.066  0.0887 -0.0302 -0.1272
 9546PP      PP19650   6.427   6.705   2.067  0.1158 -0.2084  0.0052
 9547PP      PP19651  13.476  13.341   3.763  0.1999 -0.0554 -0.3436
 9548PP      PP19652  15.050   4.112  10.976 -0.1415 -0.2241 -0.0394
 9549PP      PP19653   6.442   1.417  12.928  0.3486  0.0879 -0.0864
 9550PP      PP19654  10.848   4.365  10.441 -0.0639 -0.3771  0.0119
 9551PP      PP19655  11.145   0.429   3.228 -0.0201 -0.0372  0.1425
 9552PP      PP19656  13.176   8.623  12.040  0.0279 -0.0461 -0.0639
 9553PP      PP19657   0.207   1.443  10.522 -0.4811  0.0603 -0.2463
 9554PP      PP19658   1.057   3.659   2.289  0.3264 -0.2914 -0.2012
 9555PP      PP19659  11.169   4.497   3.646 -0.0350 -0.2994  0.0391
 9556PP      PP19660   3.922  11.735  12.009  0.2170 -0.0207  0.0232
 9557PP      PP19661  11.375   5.467  10.024  0.0362  0.0694  0.0035
 9558PP      PP19662  15.660  13.447  11.112 -0.0470  0.0829  0.1920
 9559PP      PP19663  11.647   3.330   4.441  0.1210  0.0875 -0.1596
 9560PP      PP19664   7.133   1.529  10.482  0.0652 -0.0299  0.1690
 9561PP      PP19665   1.745   3.226   1.604  0.1966 -0.0347 -0.1382
 9562PP      PP19666   7.104   3.002   9.469 -0.3225  0.3784 -0.1237
 9563PP      PP19667   2.084   2.477   8.383 -0.2042 -0.2684  0.0207
 9564PP      PP19668   5.496   8.348   2.267  0.0486  0.1569  0.2795
 9565PP      PP19669   5.747  11.703   0.395  0.2182 -0.0111 -0.0315
 9566PP      PP19670   8.205   3.686   3.133  0.0733 -0.1922  0.5572
 9567PP      PP19671   8.880   0.858   2.493 -0.0876 -0.0070 -0.1183
 9568PP      PP19672   5.476   0.734   0.875  0.0896  0.2170  0.2210
 9569PP      PP19673   5.495   4.380   1.310  0.1857  0.0488 -0.3997
 9570PP      PP19674   2.074   0.443   3.083 -0.0061  0.1913  0.1025
 9571PP      PP19675  11.413  13.788   5.130 -0.0147  0.2583  0.0396
 9572PP      PP19676   7.150   2.843  10.114  0.1022  0.3484 -0.7504
 9573PP      PP19677  13.879   9.131  11.757  0.0154  0.0597  0.0964
 9574PP      PP19678  12.158   5.933   2.327 -0.1188  0.4297 -0.0342
 9575PP      PP19679   0.213  12.725  10.763  0.2462  0.3271 -0.0369
 9576PP      PP19680  15.653   4.827  13.283  0.2338 -0.0330 -0.0251
 9577PP      PP19681  15.885  11.335  13.027  0.0696  0.0775  0.1031
 9578PP      PP19682   6.403   1.161   3.688 -0.2988 -0.1734  0.0080
 9579PP      PP19683   8.538  15.667  11.637  0.4528  0.0097 -0.1665
 9580PP      PP19684   2.278   0.683   8.448  0.2422  0.3781 -0.0415
 9581PP      PP19685   5.255  11.803  11.810 -0.0330  0.0008 -0.1455
 9582PP      PP19686  12.413  12.936   3.156 -0.0722 -0.0845  0.1285
 9583PP      PP19687  11.491   0.108   3.508 -0.0112 -0.1009  0.0699
 9584PP      PP19688  14.366   1.141   3.099 -0.4164 -0.1660 -0.1752
 9585PP      PP19689   9.568   9.255   2.771  0.1331  0.0508  0.0561
 9586PP      PP19690   3.780   4.716  11.643  0.0317 -0.1121  0.0685
 9587PP      PP19691   7.182  14.130   3.252 -0.3860 -0.0562  0.0712
 9588PP      PP19692   2.032   6.353  11.595  0.6579  0.2018  0.0649
 9589PP      PP19693   6.588  10.818  10.394  0.1015 -0.0808 -0.1391
 9590PP      PP19694  12.983  15.752   2.098  0.1902 -0.1039 -0.0995
 9591PP      PP19695  10.500   6.695   1.260 -0.1478 -0.0187 -0.1909
 9592PP      PP19696   7.938  11.092   2.789  0.0871  0.2015  0.0438
 9593PP      PP19697  12.573   3.994   0.266 -0.0124 -0.1797  0.2027
 9594PP      PP19698   6.197   3.817   2.733  0.1339  0.2661  0.1894
 9595PP      PP19699   6.901  14.349  11.743 -0.2249 -0.0063 -0.1065
 9596PP      PP19700   6.000  12.805  13.099  0.0003 -0.4044  0.0649
 9597PP      PP19701   1.213   9.016  11.654  0.2146  0.1467  0.1834
 9598PP      PP19702  14.040   3.674   0.080 -0.3179 -0.0506  0.0520
 9599PP      PP19703   9.502   6.556   1.612  0.0365 -0.2975 -0.0684
 9600PP      PP19704  13.857   6.806   3.452  0.0423  0.0162  0.0202
 9601PP      PP19705  15.410   4.256  11.673  0.1282  0.1073  0.1012
 9602PP      PP19706  15.485   9.387   9.942  0.2903 -0.1694  0.3009
 9603PP      PP19707   8.415  13.440   9.512 -0.1704  0.4013 -0.1485
 9604PP      PP19708   4.744   3.568   9.905  0.1019  0.2447 -0.0065
 9605PP      PP19709   5.291   5.298  11.972  0.1687 -0.0397 -0.2017
 9606PP      PP19710   1.360   9.709   2.808  0.2523  0.0700  0.1881
 9607PP      PP19711  10.198   9.439   3.492 -0.1562 -0.1801  0.0148
 9608PP      PP19712  10.574  14.766   3.926 -0.2979  0.1563  0.1768
 9609PP      PP19713   5.478   9.263   0.827  0.1886  0.0890 -0.0909
 9610PP      PP19714  12.425  14.551  10.831 -0.1495 -0.1549  0.0614
 9611PP      PP19715   2.439  11.490   0.547  0.0763  0.0375  0.2602
 9612PP      PP19716   9.940  11.227   2.378 -0.3056 -0.0675 -0.0845
 9613PP      PP19717   7.406  11.328   8.418 -0.3600 -0.0210 -0.0317
 9614PP      PP19718  13.422   8.268   9.994 -0.2735 -0.1006 -0.1318
 9615PP      PP19719   3.144   6.875   4.324  0.2129 -0.2448  0.0115
 9616PP      PP19720   5.137  14.661  13.228 -0.1240  0.0947 -0.1325
 9617PP      PP19721   7.551  11.658  10.815 -0.4117 -0.3176 -0.0272
 9618PP      PP19722   7.710  11.256   0.366  0.0521  0.0341  0.0535
 9619PP      PP19723   8.537  14.573   4.783 -0.1529  0.1505  0.2487
 9620PP      PP19724   4.410   1.346  13.231  0.1667 -0.1617  0.0141
 9621PP      PP19725  10.697  15.100   2.902 -0.2358  0.3054 -0.2264
 9622PP      PP19726   0.784   5.341   8.619  0.1037 -0.1144  0.0565
 9623PP      PP19727   1.667   3.726   1.757  0.2667 -0.0846 -0.0595
 9624PP      PP19728   8.261  13.388   0.226  0.1789 -0.0292 -0.0359
 9625PP      PP19729  11.716   8.720   0.541  0.0223 -0.0310 -0.1852
 9626PP      PP19730   4.149  10.063  11.365  0.2760  0.0962  0.0428
 9627PP      PP19731  10.217   1.858   2.384  0.1325  0.1151  0.1251
 9628PP      PP19732  10.466   4.124   3.090  0.4054 -0.2475  0.2034
 9629PP      PP19733   7.607   1.089   4.118 -0.0490 -0.2193 -0.2524
 9630PP      PP19734   9.997  11.972   0.837 -0.1129 -0.0434 -0.3225
 9631PP      PP19735  13.998  15.022   2.874 -0.1447 -0.0418  0.0384
 9632PP      PP19736  11.060   0.195   1.478 -0.1159 -0.1018  0.2927
 9633PP      PP19737   1.760   4.168  10.340  0.1479  0.4892  0.2144
 9634PP      PP19738  11.219  15.387  11.760 -0.0613 -0.2766 -0.2447
 9635PP      PP19739  12.129  10.630   0.230 -0.2957 -0.0035 -0.2468
 9636PP      PP19740   7.818  10.463   3.986 -0.1035  0.1042  0.2470
 9637PP      PP19741   5.552   2.372  10.112 -0.1860 -0.2043 -0.0198
 9638PP      PP19742  11.228   8.392  11.189  0.1787  0.3848 -0.0267
 9639PP      PP19743   7.250   4.123   3.030  0.2575  0.0983  0.0018
 9640PP      PP19744   2.864   1.602  10.458 -0.0563  0.2871 -0.1203
 9641PP      PP19745  10.038   0.140   0.821  0.0523  0.1029  0.0196
 9642PP      PP19746   6.871   8.235   1.232 -0.1353  0.0441 -0.2002
 9643PP      PP19747   6.938   5.881  12.412  0.1693 -0.1808 -0.1034
 9644PP      PP19748   5.423   9.502  10.644  0.0376  0.0641  0.1886
 9645PP      PP19749   0.446  11.610   2.573  0.2857 -0.2512  0.0333
 9646PP      PP19750   5.537   9.390   4.598  0.1570  0.0291 -0.2661
 9647PP      PP19751  10.644   9.581   0.081  0.3373 -0.1714 -0.2374
 9648PP      PP19752   4.364  14.270  10.339 -0.1014  0.0298 -0.1649
 9649PP      PP19753   6.283   5.945  12.275  0.0696  0.0012 -0.1977
 9650PP      PP19754   2.083   7.155   2.850  0.3476 -0.1604  0.0196
 9651PP      PP19755   7.472  13.584  10.694  0.4108  0.2396 -0.1437
 9652PP      PP19756   3.402   7.357   9.685 -0.2064 -0.3243 -0.1529
 9653PP      PP19757  11.972   8.493   2.209 -0.0447  0.2911  0.1592
 9654PP      PP19758  13.843  13.222  10.064  0.0452  0.0219 -0.1080
 9655PP      PP19759   1.728   5.779   1.235  0.0536 -0.0835 -0.1281
 9656PP      PP19760   0.422  11.092   2.485 -0.1632 -0.0824 -0.2038
 9657PP      PP19761  14.160   1.012   3.741 -0.0967  0.1507  0.0589
 9658PP      PP19762   1.021  14.562  10.642  0.1504 -0.0207 -0.0141
 9659PP      PP19763   0.436   2.716   2.129 -0.1408 -0.0528 -0.1704
 9660PP      PP19764   1.329   0.757  10.797  0.1874  0.3625  0.0252
 9661PP      PP19765   4.142   1.446   0.335  0.2156  0.2324  0.2035
 9662PP      PP19766  10.002  11.977   1.705 -0.0100 -0.0042 -0.3524
 9663PP      PP19767   3.594  12.497   2.537  0.0440 -0.2321  0.0273
 9664PP      PP19768   4.063   7.232  11.746 -0.0712 -0.2411  0.0741
 9665PP      PP19769   0.514  10.775   4.288 -0.1285  0.1578 -0.2971
 9666PP      PP19770  10.001   7.334   1.882  0.0097 -0.2565 -0.2359
 9667PP      PP19771   4.803   3.856   0.499 -0.2749  0.2468  0.0391
 9668PP      PP19772   0.805   1.540   2.768  0.3084 -0.0891  0.1775
 9669PP      PP19773  14.135   7.621   1.906 -0.0455 -0.0515 -0.1337
 9670PP      PP19774   4.027  13.509   8.454  0.2337  0.1029  0.2155
 9671PP      PP19775   8.620   1.870  10.634 -0.0803  0.0400 -0.2362
 9672PP      PP19776   2.159  12.121   0.501  0.1633 -0.1829 -0.0477
 9673PP      PP19777   0.880  15.001   0.780  0.0541  0.2135  0.1539
 9674PP      PP19778   1.719   5.136   9.528 -0.2497 -0.1677  0.1596
 9675PP      PP19779   2.402   3.804   1.263  0.1805 -0.2568  0.1148
 9676PP      PP19780   5.941  12.883   3.748  0.1522  0.0606 -0.2296
 9677PP      PP19781   5.030   8.288   2.965  0.3695  0.1063  0.0788
 9678PP      PP19782  10.985   4.803   1.817 -0.1758  0.2020  0.2172
 9679PP      PP19783   7.573   5.011  12.621 -0.0832 -0.3045  0.1073
 9680PP      PP19784  11.026  14.663   0.971  0.0346 -0.0037 -0.2381
 9681PP      PP19785   5.970   4.264   2.954 -0.2340  0.1736 -0.0903
 9682PP      PP19786   9.052   2.036   2.907 -0.1079  0.0279  0.0167
 9683PP      PP19787  14.017  11.858  13.260  0.1997  0.0174  0.1234
 9684PP      PP19788   1.373   3.541   9.159 -0.0052  0.0756 -0.0734
 9685PP      PP19789   2.501  14.635  10.017  0.0812  0.1639  0.1194
 9686PP      PP19790   8.127   3.626   4.103  0.0732  0.3540  0.1872
 9687PP      PP19791   2.546  15.219   1.630  0.1772  0.0066 -0.0460
 9688PP      PP19792   9.642  12.271   4.305  0.0550  0.0395 -0.0514
 9689PP      PP19793  13.272   0.477   3.706  0.1045 -0.4640 -0.0004
 9690PP      PP19794   0.232  11.881  10.080 -0.1630  0.1918 -0.2583
 9691PP      PP19795   2.103  11.222   8.733  0.0463 -0.0606  0.3491
 9692PP      PP19796   1.777  13.533   2.542  0.1346  0.2943 -0.2255
 9693PP      PP19797  15.693   8.860   0.797  0.1425  0.1586 -0.0042
 9694PP      PP19798  12.216  13.923   9.886  0.0304 -0.0023  0.1002
 9695PP      PP19799  11.421   5.790   0.018  0.0247 -0.1876 -0.0350
 9696PP      PP19800   8.548   3.248   0.215  0.1340 -0.0273  0.3282
 9697PP      PP19801   3.181   1.182   0.256  0.0887  0.1753  0.0565
 9698PP      PP19802   2.993   0.638   0.762  0.0457 -0.2629  0.0706
 9699PP      PP19803  13.619   3.169   9.403  0.0727  0.0985  0.1697
 9700PP      PP19804   4.374   7.027   3.800  0.1308  0.0729 -0.0155
 9701PP      PP19805   5.472  11.661  12.400  0.0632 -0.0834  0.3865
 9702PP      PP19806  13.275   1.758   0.099  0.0419 -0.2155 -0.0379
 9703PP      PP19807   5.198   2.710   2.142  0.1638  0.0038 -0.2094
 9704PP      PP19808   0.616   2.893  12.290  0.0401 -0.3206 -0.0517
 9705PP      PP19809   1.074  12.740   0.865  0.2390  0.1858  0.0827
 9706PP      PP19810  15.588  11.110   8.682  0.0053  0.0798 -0.0401
 9707PP      PP19811  13.654   2.113   1.407  0.1374  0.1095  0.0872
 9708PP      PP19812   3.475   4.712   9.444 -0.1291 -0.0416  0.2290
 9709PP      PP19813   9.063   3.736   2.071 -0.0991  0.1194  0.2149
 9710PP      PP19814   3.721  10.452  12.602 -0.2039  0.2008 -0.3226
 9711PP      PP19815   0.118  15.863  12.733 -0.1070 -0.2941  0.4015
 9712PP      PP19816   1.272   7.174   3.033 -0.0520 -0.0251 -0.2456
 9713PP      PP19817  11.123   1.800   3.108  0.1850  0.2253  0.0732
 9714PP      PP19818  10.596   3.003  12.944 -0.1782 -0.1290 -0.1578
 9715PP      PP19819   0.927  15.422   8.532  0.0932 -0.0721  0.0682
 9716PP      PP19820   2.143   9.157   4.056 -0.2840  0.1389 -0.2194
 9717PP      PP19821  10.641  15.847   4.290  0.2743 -0.1661 -0.1454
 9718PP      PP19822  10.868  13.699  10.470  0.1361  0.0413  0.2455
 9719PP      PP19823  10.219   0.180  11.664 -0.1177 -0.0278 -0.0784
 9720PP      PP19824   9.157   5.600   2.339 -0.3320 -0.1638 -0.1661
 9721PP      PP19825   6.471  11.278   9.173  0.1021 -0.1083  0.0181
 9722PP      PP19826  12.085  14.959   0.015  0.2354 -0.2236  0.2012
 9723PP      PP19827  13.060   5.382   0.346  0.0489 -0.1655  0.2805
 9724PP      PP19828   2.537   5.495   3.979 -0.1052 -0.3573  0.3762
 9725PP      PP19829  11.073   5.649   3.075  0.1017  0.0421  0.0537
 9726PP      PP19830   1.571   5.479   8.784 -0.0992  0.0836 -0.2420
 9727PP      PP19831   7.826   9.080   3.504  0.1055  0.5513  0.1482
 9728PP      PP19832   1.942  12.646   9.460  0.0638 -0.0185  0.1122
 9729PP      PP19833   3.154   3.132  10.494  0.1500 -0.3795 -0.0196
 9730PP      PP19834   1.495   9.162   3.700  0.0334 -0.4218  0.2659
 9731PP      PP19835   1.695  15.024  12.299  0.1702 -0.0710  0.2628
 9732PP      PP19836  13.309  10.097   2.595  0.1966  0.1950 -0.0663
 9733PP      PP19837   7.302   3.635   3.024 -0.3072 -0.1542 -0.5469
 9734PP      PP19838  15.841  11.698   3.994  0.1333 -0.5119 -0.1618
 9735PP      PP19839   3.312   4.847  13.299 -0.0811  0.0879  0.2508
 9736PP      PP19840  12.346  11.993   9.097 -0.0186  0.0176 -0.2949
 9737PP      PP19841  11.933   2.954   3.429  0.1007 -0.0840 -0.0393
 9738PP      PP19842   4.791   4.540  10.644  0.0205  0.1093 -0.1830
 9739PP      PP19843  15.082   6.053   0.649 -0.0525  0.0653  0.0124
 9740PP      PP19844  15.390   0.176   2.083  0.2265  0.3499  0.1059
 9741PP      PP19845  13.137   1.029   9.211 -0.3225 -0.0070 -0.4297
 9742PP      PP19846  10.492  14.544  13.146  0.0584 -0.1876 -0.1378
 9743PP      PP19847   9.817   7.166  12.578 -0.0866 -0.0026  0.0562
 9744PP      PP19848   3.019   4.355   8.712 -0.0670  0.0242 -0.1889
 9745PP      PP19849   7.255   8.832   3.485  0.0661  0.0820 -0.1133
 9746PP      PP19850   1.749  10.084  12.597 -0.0535  0.2689 -0.0251
 9747PP      PP19851  12.696  14.869  11.547  0.1056 -0.2411  0.0251
 9748PP      PP19852  13.016   3.128   3.242  0.1315 -0.2114 -0.3750
 9749PP      PP19853  15.660   5.807  12.114  0.0805  0.0234  0.1833
 9750PP      PP19854   5.552  11.981   9.442  0.2199  0.1016  0.0003
 9751PP      PP19855   3.945   0.298  10.525 -0.1284 -0.2752  0.1119
 9752PP      PP19856  10.974   0.916   3.449  0.0838  0.0961  0.2975
 9753PP      PP19857  10.816   7.295  10.110  0.2444  0.0138 -0.1943
 9754PP      PP19858   2.516  13.408   4.052 -0.2604  0.0603 -0.2353
 9755PP      PP19859   6.496  10.610  11.682  0.0057 -0.1430  0.2718
 9756PP      PP19860   1.203  15.475  10.247  0.3296  0.0094 -0.0120
 9757PP      PP19861   0.618   6.204   3.742  0.1772  0.2563 -0.0875
 9758PP      PP19862  13.111  13.421   8.892 -0.2171  0.3150 -0.1592
 9759PP      PP19863   7.781  15.717  12.135  0.1450  0.3479 -0.0310
 9760PP      PP19864   0.539  10.694   8.918  0.0229 -0.1088  0.0518
 9761PP      PP19865   1.576  14.841   9.993 -0.1627 -0.1729 -0.2979
 9762PP      PP19866   4.797   5.884   4.005  0.0780 -0.0984  0.0705
 9763PP      PP19867  15.335  13.881   8.402  0.0972 -0.2191 -0.0905
 9764PP      PP19868   0.038   9.870  10.698 -0.2056 -0.1159  0.3349
 9765PP      PP19869   9.761   5.918   0.115 -0.0129  0.2350  0.4243
 9766PP      PP19870   9.618  10.020   9.867  0.1347  0.1942  0.0297
 9767PP      PP19871  11.120   6.027   3.427 -0.2550  0.2605  0.2493
 9768PP      PP19872   1.919  14.640  11.663  0.0420  0.0368  0.3942
 9769PP      PP19873   7.575  15.504   9.457 -0.2159  0.1101  0.0261
 9770PP      PP19874  12.051   0.190  13.189 -0.0791  0.0278  0.0038
 9771PP      PP19875   8.768   5.836  13.093  0.2627  0.1466  0.1610
 9772PP      PP19876   3.882   0.386   8.745 -0.2332 -0.2200  0.1800
 9773PP      PP19877   2.007   3.572   3.588  0.2133 -0.0380 -0.3043
 9774PP      PP19878  14.802   1.476   3.077  0.0410 -0.2221 -0.0436
 9775PP      PP19879   3.662   1.597  12.790 -0.1366 -0.0450  0.0816
 9776PP      PP19880  10.520   1.030   0.511 -0.0649  0.0793  0.1109
 9777PP      PP19881   7.880   3.963   8.914  0.0164  0.4526 -0.2439
 9778PP      PP19882  14.471  13.395   3.660  0.2809  0.0693  0.0136
 9779PP      PP19883   8.739  14.706   9.803  0.0436 -0.0863 -0.1355
 9780PP      PP19884   6.118  12.559   0.570  0.1739 -0.1519  0.0528
 9781PP      PP19885   0.979  12.902   1.322  0.0394  0.1949 -0.3049
 9782PP      PP19886  11.033   0.932   2.274 -0.2772  0.0375 -0.2318
 9783PP      PP19887  15.938   1.922   8.090  0.0280  0.1801 -0.0217
 9784PP      PP19888   2.660   7.954  12.993  0.0206  0.1777  0.0129
 9785PP      PP19889  15.290   4.222   0.892  0.0256  0.0066 -0.1225
 9786PP      PP19890   4.143   2.855   9.551  0.1939 -0.2278  0.1960
 9787PP      PP19891   6.053   1.873  12.232  0.2468 -0.0519 -0.2473
 9788PP      PP19892  12.595  11.217   3.349  0.0592 -0.0936  0.1628
 9789PP      PP19893   6.036   6.447   2.280 -0.2892 -0.0923 -0.1320
 9790PP      PP19894   5.283   6.814   0.171  0.1616 -0.0050  0.2100
 9791PP      PP19895   9.465   0.909   2.243 -0.0804 -0.2931  0.2218
 9792PP      PP19896  13.529  14.201  10.859 -0.3611 -0.0334  0.0288
 9793PP      PP19897   4.447   7.317  13.224  0.2581 -0.0207  0.0181
 9794PP      PP19898  10.593   0.625   4.478  0.2320 -0.2273 -0.2543
 9795PP      PP19899   2.638  12.447   2.000 -0.2935 -0.0560  0.0701
 9796PP      PP19900   4.772   6.564  11.775 -0.1866 -0.4345  0.0420
 9797PP      PP19901   6.091   7.916  11.914 -0.1632  0.1144 -0.2724
 9798PP      PP19902   2.208  15.424   3.614 -0.1791 -0.0690 -0.2870
 9799PP      PP19903   8.021  10.380  12.731 -0.0526 -0.2269  0.0271
 9800PP      PP19904  11.859  12.511  13.236  0.1819 -0.2109 -0.0391
 9801PP      PP19905   5.824  12.177   1.872  0.1284 -0.2803 -0.0415
 9802PP      PP19906  15.146  13.036   9.194  0.0586 -0.2643  0.0287
 9803PP      PP19907  11.545  12.271  11.883  0.1421  0.1456 -0.1468
 9804PP      PP19908   1.168   4.970   9.297 -0.1917  0.1221 -0.0588
 9805PP      PP19909   8.127   0.345   4.155  0.0353  0.1975 -0.2808
 9806PP      PP19910  15.020  10.256   3.557  0.2450  0.4319 -0.0469
 9807PP      PP19911  14.934   8.005   9.689 -0.1483 -0.1421  0.2038
 9808PP      PP19912   1.600   2.532  10.412 -0.0110  0.2596 -0.1756
 9809PP      PP19913   4.439  13.085   1.239  0.1414 -0.1574  0.1111
 9810PP      PP19914   1.221   4.898   4.210 -0.1447  0.3251  0.0409
 9811PP      PP19915   2.114   8.740   4.344 -0.0528  0.2919  0.0382
 9812PP      PP19916   3.763   2.473   3.223 -0.0224  0.3264  0.5399
 9813PP      PP19917  15.117  15.558   4.233  0.4642 -0.1855 -0.2404
 9814PP      PP19918   5.465  10.705  11.139 -0.0647  0.3191  0.0012
 9815PP      PP19919  15.029   2.832   0.224  0.2406  0.1184 -0.4044
 9816PP      PP19920   9.413   6.701   0.404  0.0501  0.2074 -0.0539
 9817PP      PP19921  10.969  10.530   0.886  0.2306 -0.3323  0.0119
 9818PP      PP19922   1.461   6.444  11.481 -0.0947 -0.1537  0.0211
 9819PP      PP19923   5.674   5.299   3.694  0.1739  0.0501  0.2793
 9820PP      PP19924   4.465   0.404  12.474 -0.2783 -0.0216 -0.0335
 9821PP      PP19925   6.889  12.609  11.237 -0.0936 -0.0340  0.3375
 9822PP      PP19926   1.209   9.194   9.758  0.0429  0.1691 -0.2305
 9823PP      PP19927   0.734   0.695   2.562 -0.2490  0.1519 -0.0650
 9824PP      PP19928  14.170  11.477   3.841  0.0202  0.1852  0.3657
 9825PP      PP19929  14.969   7.035   0.297  0.0858 -0.1272  0.1569
 9826PP      PP19930   0.309   7.418   0.550  0.2020 -0.2675  0.0485
 9827PP      PP19931   1.812   6.250  11.037 -0.1216  0.0567 -0.1226
 9828PP      PP19932   1.121  15.659  11.722  0.1185  0.1868  0.2303
 9829PP      PP19933   6.045   0.458  11.998 -0.0100 -0.1221 -0.1509
 9830PP      PP19934   6.962   8.507   0.691 -0.1468  0.1368  0.2121
 9831PP      PP19935   7.465  10.744  10.428  0.0319  0.0418  0.2901
 9832PP      PP19936   6.807  10.047   1.638 -0.3233 -0.3899 -0.1439
 9833PP      PP19937  14.921   5.038  11.497  0.1217 -0.0760 -0.1457
 9834PP      PP19938   8.335   3.218   4.098  0.0924 -0.1071  0.0094
 9835PP      PP19939  13.804   0.699   3.598  0.1073  0.1689 -0.0330
 9836PP      PP19940   1.849   8.057  13.121 -0.2681 -0.1296 -0.2075
 9837PP      PP19941   7.187   2.020   9.143  0.1076 -0.0803  0.2271
 9838PP      PP19942  15.684   6.333  11.972  0.1465 -0.1144  0.1075
 9839PP      PP19943   9.692   0.389   2.200  0.0128 -0.0112  0.5452
 9840PP      PP19944   9.093   8.240   3.256  0.0262 -0.1620 -0.0912
 9841PP      PP19945   8.207  15.651   9.839  0.1050 -0.0282 -0.1522
 9842PP      PP19946  14.214   1.134   1.843 -0.0666  0.0051 -0.1452
 9843PP      PP19947   8.788   5.588  12.597  0.0779  0.1687  0.0201
 9844PP      PP19948  10.860  11.572   0.416  0.1504  0.0190 -0.1223
 9845PP      PP19949   3.196   9.395  10.286 -0.0926  0.1940 -0.0243
 9846PP      PP19950   2.909   3.178  10.055 -0.1344  0.1799  0.0805
 9847PP      PP19951   3.013   2.479  10.434 -0.0950 -0.1564  0.2877
 9848PP      PP19952   5.718   7.701   4.665 -0.0691  0.4423 -0.0803
 9849PP      PP19953   7.608  13.928  11.716  0.1535  0.0826  0.0010
 9850PP      PP19954  13.342  12.686  12.765 -0.1631  0.0117  0.3233
 9851PP      PP19955   5.878   9.525   8.601 -0.1420  0.2706  0.0975
 9852PP      PP19956   3.423   8.657  13.197  0.1086 -0.1991  0.2027
 9853PP      PP19957   3.052   2.024   2.530 -0.0650  0.0392  0.0434
 9854PP      PP19958  13.015  12.164   1.808 -0.4483 -0.3420  0.1523
 9855PP      PP19959   5.013  14.367  12.064 -0.1909 -0.0646  0.2756
 9856PP      PP19960   0.842   0.968   0.669  0.0225 -0.0180 -0.0968
 9857PP      PP19961   6.032   2.144  10.212 -0.1191 -0.0551  0.3395
 9858PP      PP19962  15.078   6.771   0.830 -0.1417 -0.2684 -0.0687
 9859PP      PP19963   9.210   7.305   1.078  0.0238 -0.0573 -0.0186
 9860PP      PP19964   7.693   4.290   1.408 -0.4754 -0.1630 -0.1319
 9861PP      PP19965  11.685  12.117   8.707 -0.0254  0.3039  0.0063
 9862PP      PP19966   8.911  10.272  11.846 -0.1801 -0.0381 -0.1647
 9863PP      PP19967  14.271   7.702   1.407  0.0520 -0.0297  0.2081
 9864PP      PP19968   4.547  14.830   9.431  0.0927 -0.0409  0.1172
 9865PP      PP19969  12.474   7.230  11.276 -0.2974  0.2260 -0.1712
 9866PP      PP19970   1.590  12.985  12.959 -0.1147 -0.0950  0.1205
 9867PP      PP19971  11.881   7.489  10.237  0.0307 -0.2191  0.0362
 9868PP      PP19972   3.332   5.793   1.668  0.1198  0.2080  0.3988
 9869PP      PP19973   5.734  14.530   2.128  0.2721 -0.2013 -0.2276
 9870PP      PP19974   8.337   1.971  12.214 -0.0396 -0.3402  0.0390
 9871PP      PP19975   4.659   0.764   9.383 -0.0763  0.1015  0.1543
 9872PP      PP19976   0.681   1.181   8.956  0.2374  0.1211 -0.1247
 9873PP      PP19977   0.074  11.852  12.115  0.3811  0.0017 -0.0606
 9874PP      PP19978  11.162   5.394   0.735  0.3419  0.0189  0.0556
 9875PP      PP19979   2.956   8.065  11.840  0.1191  0.1398 -0.0923
 9876PP      PP19980   3.826  14.877   8.515 -0.0037  0.3441  0.0892
 9877PP      PP19981  15.323   9.862   9.341  0.4499 -0.1891  0.0659
 9878PP      PP19982  14.386   8.857   0.031 -0.0122 -0.0454  0.1286
 9879PP      PP19983   4.948   4.408   3.503  0.1302 -0.0660 -0.0517
 9880PP      PP19984   9.519   8.522   2.918  0.0760 -0.1768 -0.3302
 9881PP      PP19985   0.869  10.912   3.240  0.0121  0.3376 -0.0497
 9882PP      PP19986  15.601   2.200   3.002 -0.0048  0.0971  0.2489
 9883PP      PP19987   3.455   1.557   0.097  0.0047 -0.1246  0.0319
 9884PP      PP19988  12.178  14.963  12.412  0.2558  0.0804 -0.1989
 9885PP      PP19989   5.993  11.266   9.312  0.1167  0.2834 -0.1207
 9886PP      PP19990  13.382   9.644   3.390  0.1075  0.0411 -0.1376
 9887PP      PP19991  14.306   9.102   2.646 -0.0709  0.0921  0.0292
 9888PP      PP19992  15.715   9.674   9.076 -0.0861  0.1825  0.3198
 9889PP      PP19993  11.801   4.302  12.349  0.2006  0.0027 -0.1960
 9890PP      PP19994  14.963   7.099   2.161 -0.0758  0.0899  0.1423
 9891PP      PP19995   2.520  13.542   1.746  0.0798  0.0109 -0.1626
 9892PP      PP19996  12.053  13.400   0.419 -0.0452  0.0874  0.0997
 9893PP      PP19997   7.035   4.334   3.398 -0.1917  0.0087 -0.0063
 9894PP      PP19998   0.012   1.023  12.052 -0.0545 -0.1391 -0.0585
 9895PP      PP19999  12.305   4.058  11.628  0.0700  0.0827 -0.0857
 9896PP      PP20000   5.338  15.560   2.997 -0.1088 -0.0647  0.0436
 9897PP      PP20001   2.064   1.846  13.335 -0.0372  0.3476 -0.1687
 9898PP      PP20002  15.601   3.132   2.689 -0.1997 -0.1560  0.0472
 9899PP      PP20003  13.981   0.120  13.214  0.0621  0.0136 -0.1022
 9900PP      PP20004   4.482  15.022   1.199 -0.2562 -0.1039  0.3338
 9901PP      PP20005   9.366   5.726  11.420  0.0372 -0.1606  0.4148
 9902PP      PP20006  15.025  10.933  10.023 -0.0795 -0.1040  0.2373
 9903PP      PP20007  15.578   0.811  11.786 -0.0520  0.2573 -0.2310
 9904PP      PP20008  14.257   1.705   3.047 -0.0003 -0.0415 -0.0225
 9905PP      PP20009  13.798   1.915  12.134  0.0728  0.0441  0.1584
 9906PP      PP20010   9.798  15.247  12.838 -0.1756 -0.1606  0.0338
 9907PP      PP20011  10.131  13.389  11.146  0.2265 -0.0921 -0.3126
 9908PP      PP20012  13.533  11.576   1.389  0.1003  0.1106 -0.2878
 9909PP      PP20013   0.856   9.492   9.697  0.3696  0.0408 -0.3400
 9910PP      PP20014   5.640   6.764  13.138 -0.2228  0.0321  0.0755
 9911PP      PP20015  10.005  10.438   3.320  0.0589  0.0995 -0.1552
 9912PP      PP20016  11.025  12.020  10.048  0.0833 -0.0900  0.1893
 9913PP      PP20017   3.307   8.436   4.039  0.0328 -0.4008  0.0324
 9914PP      PP20018   8.451  15.779   1.175 -0.2066 -0.2083  0.1590
 9915PP      PP20019  11.878  15.926  10.297 -0.1438  0.0009 -0.1809
 9916PP      PP20020   5.529  11.963  10.980  0.2741  0.0692  0.0684
 9917PP      PP20021  11.504  10.920   8.403 -0.0997  0.0719  0.0314
 9918PP      PP20022   7.417   6.886  13.194  0.0789  0.1194 -0.2487
 9919PP      PP20023   0.830   1.284  11.500 -0.2907  0.3363 -0.0163
 9920PP      PP20024   9.626  13.676  10.110 -0.4325 -0.1287 -0.0948
 9921PP      PP20025   4.786   7.299   4.348 -0.3208 -0.1776  0.2885
 9922PP      PP20026   7.359   3.608   9.559 -0.1257  0.0987 -0.0808
 9923PP      PP20027   8.708  12.101  11.221  0.1444  0.0096  0.2009
 9924PP      PP20028  10.153   4.932   9.963 -0.1095  0.1310  0.1467
 9925PP      PP20029  15.251  15.040  12.097 -0.0500  0.0286  0.0524
 9926PP      PP20030   1.850  13.713  13.016 -0.1893 -0.0396  0.2664
 9927PP      PP20031  11.132  10.694   1.949  0.3867 -0.0818 -0.1021
 9928PP      PP20032  11.747  10.609   8.782 -0.2336  0.2153  0.1547
 9929PP      PP20033  14.013  10.140  10.107  0.0722  0.0548 -0.0107
 9930PP      PP20034   7.848  14.441  11.010 -0.2544  0.0206 -0.0685
 9931PP      PP20035   0.251   5.469   1.240 -0.1772 -0.3402 -0.0051
 9932PP      PP20036  10.146   9.087   1.076  0.0574  0.0626  0.1084
 9933PP      PP20037   9.577  12.995  11.928  0.1109 -0.3336 -0.1909
 9934PP      PP20038  13.800   2.739   2.568  0.0848 -0.2470 -0.2033
 9935PP      PP20039   8.486   6.866   3.385  0.0010  0.3237 -0.0652
 9936PP      PP20040   6.212   1.053  10.219  0.2080 -0.0195  0.1587
 9937PP      PP20041   9.261   8.448  11.294  0.3431  0.0143 -0.1614
 9938PP      PP20042  14.902   5.435   0.020  0.0523 -0.1807  0.1592
 9939PP      PP20043  14.527  11.093   1.330 -0.0003 -0.1021  0.0961
 9940PP      PP20044  14.543   1.589  10.494 -0.1823 -0.0696 -0.2299
 9941PP      PP20045   7.482   9.302   9.234  0.0960  0.0976 -0.1391
 9942PP      PP20046  13.534   4.657  10.539  0.1039 -0.3118 -0.1810
 9943PP      PP20047   4.690   7.597  10.564 -0.2085  0.0774 -0.2289
 9944PP      PP20048  13.340   5.210   1.805 -0.0618 -0.0367 -0.2873
 9945PP      PP20049   1.392   3.880   0.969 -0.0061 -0.0688  0.1485
 9946PP      PP20050   7.848   9.533  12.107 -0.0718 -0.2937 -0.0028
 9947PP      PP20051   3.016  15.720  12.482  0.2011 -0.1813  0.0182
 9948PP      PP20052   3.648  13.557   9.248 -0.0786 -0.2190  0.0789
 9949PP      PP20053   6.029   7.296   2.552 -0.4122  0.1243  0.1962
 9950PP      PP20054   1.550   8.113  10.569  0.1294  0.2005 -0.1318
 9951PP      PP20055   4.938   3.383   1.359 -0.2014  0.1421 -0.1147
 9952PP      PP20056  12.481   3.495   1.750  0.1551  0.0303  0.2108
 9953PP      PP20057   5.515  14.998  11.587 -0.1704  0.0108 -0.1289
 9954PP      PP20058   0.124   8.902  12.488  0.1348  0.1784  0.0780
 9955PP      PP20059   9.325  14.291   1.137  0.1723  0.2263 -0.2198
 9956PP      PP20060   6.578   8.126  12.878  0.0052 -0.1545 -0.3006
 9957PP      PP20061  15.340  12.080   3.978  0.0771  0.4408 -0.0598
 9958PP      PP20062   2.827  15.801  12.945 -0.0767  0.2295  0.1595
 9959PP      PP20063   8.184   5.191   1.969  0.1424  0.1202  0.0888
 9960PP      PP20064   7.188   0.727   3.158 -0.3404 -0.1991 -0.0670
 9961PP      PP20065  12.154   3.559  12.985  0.3874  0.0841 -0.1706
 9962PP      PP20066   6.058   4.001  11.118  0.0413 -0.0030 -0.2147
 9963PP      PP20067  12.245  11.948  12.324  0.2645 -0.0560 -0.0183
 9964PP      PP20068   3.170   0.689   2.149  0.2512 -0.2539 -0.0376
 9965PP      PP20069   8.599   1.100  12.263  0.3368  0.1497 -0.0146
 9966PP      PP20070   1.930  11.196   8.199 -0.0463 -0.2678 -0.0843
 9967PP      PP20071  14.764   2.859  10.383 -0.0451  0.0729 -0.1087
 9968PP      PP20072  11.423   0.229  11.606 -0.0819 -0.1630 -0.1083
 9969PP      PP20073  12.190  10.777   9.682 -0.1527  0.2585 -0.2594
 9970PP      PP20074   3.482  12.659  10.891 -0.0565  0.0505 -0.2702
 9971PP      PP20075  14.175   4.216   4.529  0.1179  0.2976  0.0558
 9972PP      PP20076   5.301  11.787   0.570  0.3337  0.3215  0.2420
 9973PP      PP20077   7.195   3.419   3.832  0.4026  0.0424  0.0583
 9974PP      PP20078  15.719   4.445   0.628  0.3520  0.0710 -0.2445
 9975PP      PP20079  10.611   8.380  11.378 -0.2666  0.1819  0.4809
 9976PP      PP20080  13.975   3.148  12.403  0.0167  0.0353 -0.0045
 9977PP      PP20081   8.937  13.854   0.685  0.3701  0.0067 -0.1859
 9978PP      PP20082   4.144   7.256  12.717 -0.0200 -0.0290 -0.2628
 9979PP      PP20083   3.706  15.897  13.150  0.0058  0.1493  0.2180
 9980PP      PP20084   7.875   1.897  12.099 -0.0449  0.1514 -0.1818
 9981PP      PP20085   8.384   1.052  13.163  0.0002 -0.0918  0.1535
 9982PP      PP20086   2.869   7.350   4.356  0.0669 -0.1991 -0.0304
 9983PP      PP20087   6.037  14.068   0.638  0.0795 -0.0875 -0.0070
 9984PP      PP20088  13.055   6.945   9.431  0.2491  0.1133  0.2460
 9985PP      PP20089   5.996   2.914   0.488 -0.0175 -0.0545 -0.1826
 9986PP      PP20090  12.643   4.459  11.037 -0.1275  0.0859  0.2036
 9987PP      PP20091  12.402   5.699  12.987 -0.1737  0.0907 -0.0924
 9988PP      PP20092  14.252   0.005   8.714  0.0370  0.0401  0.0314
 9989PP      PP20093  15.825  15.712   0.686  0.2220  0.1763  0.2594
 9990PP      PP20094   3.691   5.613   0.320  0.2084  0.0957 -0.0104
 9991PP      PP20095   0.700   8.205   9.569 -0.1800  0.0503  0.0489
 9992PP      PP20096   2.880  13.864   3.759 -0.1724  0.0905  0.3479
 9993PP      PP20097  13.566   8.931   1.429 -0.1692  0.0209 -0.0133
 9994PP      PP20098   4.407  11.510   3.239  0.2131  0.2257  0.1045
 9995PP      PP20099   0.210   9.556   2.762 -0.0657  0.0285 -0.2123
 9996PP      PP20100  11.174   0.613   4.931 -0.2777 -0.1175  0.2768
 9997PP      PP20101   6.816  14.550   3.719 -0.1156 -0.0793 -0.2454
 9998PP      PP20102   8.995  11.516  13.206  0.1276  0.1537 -0.0399
 9999PP      PP20103   0.265   4.435  11.491 -0.2832 -0.0352  0.3675
10000PP      PP20104   6.719  11.221   9.679  0.0747 -0.1960  0.1910
10001PP      PP20105   1.069   3.049   1.238 -0.0128 -0.0064  0.3300
10002PP      PP20106  12.025  10.513  10.787 -0.3206 -0.0934 -0.0348
10003PP      PP20107  14.874  15.335   8.493 -0.0852  0.0153  0.0486
10004PP      PP20108   6.298   0.872  12.634  0.1121 -0.1651  0.1144
10005PP      PP20109  14.254  15.766  10.403 -0.1264 -0.0289 -0.1355
10006PP      PP20110   6.650   6.360   1.535 -0.1450 -0.3398 -0.1804
10007PP      PP20111  10.568  13.101  12.298  0.4488 -0.1191 -0.0139
10008PP      PP20112   2.415   9.811   1.277  0.1544 -0.0971  0.2238
10009PP      PP20113   7.231   1.092  11.147 -0.0207 -0.0966 -0.0990
10010PP      PP20114   0.976   7.633   3.028  0.1651  0.1547 -0.0110
10011PP      PP20115  10.455   2.648   0.910  0.0806 -0.1496 -0.1663
10012PP      PP20116   4.218   4.104   0.458 -0.3517  0.3592 -0.0073
10013PP      PP20117  12.986   2.272   3.739 -0.2141 -0.0781  0.1450
10014PP      PP20118   2.178  11.974  12.194 -0.2541 -0.2045  0.1653
10015PP      PP20119   9.922   6.503   3.421  0.1459  0.0851  0.0346
10016PP      PP20120   2.373   7.257   9.723  0.0115 -0.1301  0.5100
10017PP      PP20121  14.573  13.083   1.744 -0.1809  0.0844  0.0475
10018PP      PP20122   5.329   1.349   4.410 -0.1917 -0.3043  0.0629
10019PP      PP20123  14.176   2.689   8.934  0.2321  0.0429 -0.2795
10020PP      PP20124   1.791   2.272  12.687 -0.0138  0.1997 -0.0094
10021PP      PP20125   9.976   5.151   0.404  0.0574 -0.0824 -0.0187
10022PP      PP20126  11.783  12.358  10.382  0.0995  0.0437 -0.1613
10023PP      PP20127   0.506  11.940  13.183 -0.1709 -0.3327 -0.1352
10024PP      PP20128   0.770  10.135  12.993 -0.3688  0.2272  0.4755
10025PP      PP20129  12.943   7.493   0.313  0.2457  0.0382 -0.0433
10026PP      PP20130   3.632   9.086   0.001  0.1098 -0.0643  0.1313
10027PP      PP20131   0.681   2.074  10.836  0.1859  0.0379 -0.1709
10028PP      PP20132  14.955   8.427   2.130  0.0886  0.0283  0.0373
10029PP      PP20133   0.534  13.023   8.863 -0.0465 -0.0318 -0.1205
10030PP      PP20134   3.147   1.246  11.268 -0.3574 -0.1584  0.0561
10031PP      PP20135   8.640   5.662   0.935  0.0468  0.0674 -0.0604
10032PP      PP20136   8.042  11.369  11.469  0.2589 -0.0590 -0.0684
10033PP      PP20137  13.051   9.870   2.153 -0.1829  0.1683  0.0091
10034PP      PP20138   6.809   6.936   1.182 -0.0407 -0.0306 -0.1676
10035PP      PP20139   7.122  11.159   0.277  0.1613  0.1887  0.1099
10036PP      PP20140   6.317  11.691  13.266  0.1838 -0.0391 -0.4413
10037PP      PP20141  13.010   6.277  11.299 -0.1503  0.1736 -0.2964
10038PP      PP20142  15.188  11.750  12.394 -0.3186 -0.2292  0.2221
10039PP      PP20143   7.709  12.028   1.773  0.0144 -0.1133  0.0726
10040PP      PP20144  15.130  14.836   8.520 -0.1210 -0.0150 -0.1650
10041PP      PP20145  11.671   1.406   9.020 -0.0694 -0.2375 -0.0930
10042PP      PP20146   7.695  15.109   8.820  0.0398  0.0492 -0.0189
10043PP      PP20147   9.349   1.693   3.072 -0.0288  0.1713 -0.2433
10044PP      PP20148   9.610   5.097  12.678  0.1748  0.0277  0.2117
10045PP      PP20149   2.754   3.914   3.780 -0.0423 -0.0079  0.0079
10046PP      PP20150   8.314   5.514   0.038  0.0381  0.1563  0.0668
10047PP      PP20151  13.131   8.089   1.413  0.2981 -0.0329  0.2289
10048PP      PP20152   0.163   2.933   1.639  0.2666 -0.0013 -0.0882
10049PP      PP20153   0.113   2.112   1.404  0.3332  0.1563 -0.0069
10050PP      PP20154   6.458   8.493   4.169  0.2137  0.0294 -0.1737
10051PP      PP20155   6.077   7.404  10.321  0.0907  0.0058 -0.3923
10052PP      PP20156   3.316  15.126   1.492  0.2473 -0.1542 -0.1147
10053PP      PP20157  10.798  10.262   2.727 -0.1057 -0.2022  0.1081
10054PP      PP20158   0.158   6.174   9.831 -0.0009 -0.2691 -0.2319
10055PP      PP20159   5.478   2.411   2.443 -0.2363 -0.1873 -0.2767
10056PP      PP20160  12.160  12.009   1.064 -0.1713 -0.3485  0.1015
10057PP      PP20161  11.106  13.140  12.878 -0.0857 -0.1930 -0.1073
10058PP      PP20162   6.398   0.991   1.510  0.1392  0.1360 -0.0077
10059PP      PP20163   2.747   3.606   0.138 -0.0311 -0.3972  0.0214
10060PP      PP20164   7.215  13.119   1.266  0.0169 -0.3073  0.1868
10061PP      PP20165  12.657  11.359   9.648  0.3514  0.2149 -0.1593
10062PP      PP20166  11.822  10.322   3.834 -0.3324  0.1080 -0.1948
10063PP      PP20167   9.086  14.723   3.796 -0.1530 -0.1759 -0.5072
10064PP      PP20168   2.757   5.412  11.613  0.3365 -0.1028  0.0372
10065PP      PP20169  11.887  15.233  12.956  0.2194  0.4572 -0.0231
10066PP      PP20170   2.498  11.732   9.870 -0.0376  0.0393 -0.2300
10067PP      PP20171   3.159   5.030   9.757 -0.1263  0.2645  0.0500
10068PP      PP20172   7.693   7.251  12.824 -0.2727  0.0205  0.1039
10069PP      PP20173   7.068   0.135   3.579 -0.0551  0.0141  0.3311
10070PP      PP20174   6.669  14.096  12.956  0.2783 -0.0522  0.2441
10071PP      PP20175  11.875   8.550  11.811 -0.2298  0.0573 -0.3329
10072PP      PP20176  14.739   4.310  10.486  0.1325  0.3068  0.2388
10073PP      PP20177  15.003   4.027  12.022 -0.1901  0.4397 -0.1877
10074PP      PP20178   0.961  14.522   8.754  0.2741  0.0348  0.1002
10075PP      PP20179   7.601  13.853   3.489 -0.3098 -0.1985  0.1226
10076PP      PP20180   8.835   5.388   3.850 -0.1383 -0.3206 -0.0591
10077PP      PP20181  15.207  12.665   1.088  0.1081  0.1853  0.1966
10078PP      PP20182   5.082   7.767   2.890 -0.2633 -0.0749 -0.0985
10079PP      PP20183  11.039   0.858  12.992 -0.2371 -0.2068 -0.1403
10080PP      PP20184   9.331   6.327  11.467 -0.1278 -0.1236  0.1215
10081PP      PP20185   3.716   6.871  11.535 -0.1863 -0.1203  0.1268
10082PP      PP20186   1.208   9.642   3.397 -0.2570  0.0371  0.0565
10083PP      PP20187   8.859   4.587  10.692 -0.0306  0.1112 -0.1790
10084PP      PP20188   5.533  15.693   3.509  0.0574  0.1194  0.3498
10085PP      PP20189  15.056  12.737  13.325  0.0704  0.1364  0.1391
10086PP      PP20190  15.842  11.862  10.528 -0.1063  0.2935  0.1267
10087PP      PP20191  15.036  10.647  11.830  0.0108 -0.0398 -0.2823
10088PP      PP20192   3.416  13.620  11.041 -0.1891  0.3278 -0.0362
10089PP      PP20193   6.664   1.820   1.385  0.2707 -0.1123  0.3471
10090PP      PP20194   6.215  13.535   8.263  0.3651  0.0268 -0.2191
10091PP      PP20195  15.126   5.322   0.960  0.3626  0.0047  0.2130
10092PP      PP20196  12.460   4.457   1.103 -0.0387  0.4037 -0.1608
10093PP      PP20197  11.669   1.333   3.713  0.1746  0.0233  0.0084
10094PP      PP20198   4.668   4.899  12.724 -0.0756  0.0427 -0.1453
10095PP      PP20199   2.305  13.347  10.793  0.2098 -0.2735  0.4114
10096PP      PP20200  14.347  12.558   3.004 -0.0023 -0.0671 -0.0348
10097PP      PP20201  12.549   2.077   1.817 -0.2110  0.3207 -0.1789
10098PP      PP20202  10.775   5.716   9.957 -0.2934  0.0070 -0.3502
10099PP      PP20203  10.404   4.496  12.542 -0.1638 -0.3465 -0.0113
10100PP      PP20204   2.002   4.874  11.228  0.0637 -0.0949  0.2177
10101PP      PP20205   5.446  12.280   8.201  0.3169  0.5410 -0.0356
10102PP      PP20206  15.916  14.618  11.644 -0.1261  0.0128  0.1639
10103PP      PP20207   6.063   0.067   0.638 -0.1588  0.0284 -0.0913
10104PP      PP20208  10.149   3.585   0.685 -0.0312  0.1302 -0.1197
10105PP      PP20209  14.786   7.380   4.136  0.1309  0.0136 -0.1021
10106PP      PP20210  11.358   7.465   9.940  0.0196 -0.0142 -0.1234
10107PP      PP20211   9.364   8.240   5.113  0.2675  0.0973 -0.1482
10108PP      PP20212  15.296   5.066   0.289 -0.0976  0.1531  0.0712
10109PP      PP20213   8.216   5.327   1.011  0.2452  0.1156  0.2111
10110PP      PP20214   3.917   3.694   0.120  0.0576 -0.4029 -0.0316
10111PP      PP20215   8.143   6.680   2.915  0.1805  0.0280 -0.0698
10112PP      PP20216   9.692   3.984  12.977 -0.4442 -0.1115 -0.0557
10113PP      PP20217   8.521  15.656  10.804  0.0024  0.5402  0.0825
10114PP      PP20218   0.620   2.350   2.609  0.0178  0.4014 -0.0427
10115PP      PP20219   5.167   6.493   8.825  0.1297  0.0686  0.1711
10116PP      PP20220  12.091   5.622  10.443  0.1963 -0.1424  0.1115
10117PP      PP20221   1.403   6.963  12.694  0.2930  0.1799 -0.0958
10118PP      PP20222  13.954   9.077   0.799  0.0653 -0.3978 -0.2247
10119PP      PP20223   8.293   5.073  10.039 -0.0080  0.1122 -0.0450
10120PP      PP20224  11.977  14.482   3.962  0.0143 -0.1292  0.1235
10121PP      PP20225  10.952  12.431   0.861  0.0705 -0.0517  0.2657
10122PP      PP20226   8.194  13.225   9.118  0.0147 -0.0962  0.1854
10123PP      PP20227  15.248  10.223  13.329 -0.3527  0.2627 -0.1253
10124PP      PP20228  10.213  11.012   2.750 -0.0152 -0.0405 -0.2758
10125PP      PP20229  13.202  14.460   2.260  0.1300  0.0174 -0.0811
10126PP      PP20230   0.252   1.116   3.201  0.2419 -0.0832  0.0141
10127PP      PP20231   9.486  13.932   0.472 -0.3082  0.2508  0.1501
10128PP      PP20232   5.018   6.275   4.333  0.2191  0.0223  0.1625
10129PP      PP20233  13.003  13.931   9.107 -0.0097  0.3636  0.1922
10130PP      PP20234   1.300  15.201   4.057  0.0183  0.0790 -0.2496
10131PP      PP20235   4.894   6.640  12.316  0.0148  0.1803 -0.1933
10132PP      PP20236   8.035   1.847  13.217  0.1915  0.0372 -0.0688
10133PP      PP20237  12.413   9.743  10.340 -0.2285 -0.0900 -0.2738
10134PP      PP20238  11.119   4.353  10.045  0.0694 -0.2657  0.2872
10135PP      PP20239   4.901   5.310  10.573  0.2864  0.0047 -0.0159
10136PP      PP20240  14.995  11.232   8.745  0.2784 -0.3019 -0.2819
10137PP      PP20241   7.488  11.867   0.322 -0.1549  0.2903  0.1557
10138PP      PP20242  13.543  15.302   0.962 -0.2015 -0.3741  0.1073
10139PP      PP20243  15.461   1.746   8.024  0.3416 -0.1686  0.3211
10140PP      PP20244  15.632  11.522  11.248  0.1728 -0.0463 -0.0732
10141PP      PP20245   3.229   1.463   1.580 -0.2774 -0.0320  0.0670
10142PP      PP20246   9.568   0.215  11.606 -0.0398  0.1859  0.1375
10143PP      PP20247   6.255   8.993  11.963  0.4391 -0.0554  0.0531
10144PP      PP20248   0.364  14.166  12.329 -0.0476 -0.0639 -0.1157
10145PP      PP20249   1.280   5.816  10.573  0.2716 -0.1221 -0.1153
10146PP      PP20250  13.440  15.650   9.146 -0.0793  0.1063 -0.0548
10147PP      PP20251   8.141   2.363   4.106 -0.2232  0.1146 -0.0402
10148PP      PP20252   6.857   2.824   1.893 -0.0239  0.0856  0.0043
10149PP      PP20253   5.114   2.507   9.770  0.2387  0.0656  0.3862
10150PP      PP20254  12.036   2.158   0.541  0.0792 -0.0773 -0.1202
10151PP      PP20255   4.358  10.275   9.875  0.1190  0.0779  0.0071
10152PP      PP20256   1.909  10.721  11.890  0.3192 -0.2613  0.3130
10153PP      PP20257  10.408  11.291   9.931 -0.2104  0.0235 -0.0623
10154PP      PP20258  11.633   9.553   3.367  0.2525 -0.4264  0.0159
10155PP      PP20259   1.991   1.088   8.369  0.0773  0.0086 -0.1573
10156PP      PP20260   3.504   1.248   2.009  0.1205 -0.1636 -0.0061
10157PP      PP20261   5.428   4.996   3.401  0.1512 -0.0865 -0.1638
10158PP      PP20262   3.988  10.528  11.327  0.0039 -0.1365  0.2277
10159PP      PP20263  13.354  12.984   3.300 -0.1949  0.1842 -0.1102
10160PP      PP20264   1.375   1.095   9.686 -0.0606 -0.2517  0.2280
10161PP      PP20265   5.713   6.719   4.772  0.2332  0.2661  0.0184
10162PP      PP20266   4.521  13.121   2.355 -0.0904 -0.3611  0.1510
10163PP      PP20267  12.988  11.878  13.080 -0.1165  0.2563 -0.2552
10164PP      PP20268  14.456   9.510   9.666  0.0051  0.1448  0.1263
10165PP      PP20269  15.754   0.805   9.937 -0.0921  0.1853  0.3575
10166PP      PP20270  15.326   1.218  13.088  0.0665 -0.0198 -0.1648
10167PP      PP20271   2.090   1.274   2.690  0.0395  0.0546  0.2307
10168PP      PP20272  12.907  10.752  12.708  0.2431  0.2304  0.1195
10169PP      PP20273   0.077  10.800  11.196  0.1310 -0.0225 -0.2775
10170PP      PP20274  11.771   3.472  10.144  0.0778 -0.0851 -0.4092
10171PP      PP20275   1.574   2.214  11.512  0.0892 -0.0284  0.0422
10172PP      PP20276  12.319  15.552   9.850 -0.0264  0.2256  0.1705
10173PP      PP20277  14.387   6.269   2.881 -0.0004  0.1978  0.2897
10174PP      PP20278   7.533   1.024  11.563 -0.1400  0.0334  0.0265
10175PP      PP20279  14.092  10.109   1.468 -0.0008 -0.1173  0.1127
10176PP      PP20280   8.353   3.884  10.966  0.0002  0.0716 -0.0736
10177PP      PP20281   1.031  13.275  10.268 -0.1615 -0.3150 -0.3364
10178PP      PP20282   1.726  11.712   1.010 -0.1103  0.0090 -0.1171
10179PP      PP20283  10.618  10.930   9.582  0.1376  0.2645  0.0659
10180PP      PP20284   3.476   0.341  12.909 -0.0127 -0.0371  0.0223
10181PP      PP20285  15.463   6.309   2.261  0.1431  0.1669  0.4446
10182PP      PP20286   7.356   5.661  13.374 -0.1220  0.2788  0.0490
10183PP      PP20287   5.411   2.866  10.176  0.2054  0.2522 -0.0532
10184PP      PP20288  11.793   1.561   9.483  0.0072  0.0764 -0.2079
10185PP      PP20289   9.140   1.936  12.040  0.4280  0.1875  0.2347
10186PP      PP20290  14.987   2.491  11.282 -0.1927 -0.2848  0.3310
10187PP      PP20291   4.184  15.659  12.179 -0.1553  0.1256  0.3844
10188PP      PP20292   9.065   9.956   9.155  0.0403  0.0043 -0.2453
10189PP      PP20293   9.678   7.056  13.071  0.0197  0.1165  0.1804
10190PP      PP20294  14.140   4.699  11.384 -0.3347 -0.1446 -0.0208
10191PP      PP20295   9.117  14.411  10.282  0.4170 -0.0288  0.1604
10192PP      PP20296   9.452   2.653   3.291  0.0309 -0.2218 -0.0060
10193PP      PP20297  15.260   1.756   1.727  0.0036 -0.0905  0.2052
10194PP      PP20298   9.950   4.087   4.383  0.0426 -0.0036  0.1819
10195PP      PP20299   8.823   3.281   4.584 -0.2224 -0.1287  0.0257
10196PP      PP20300  11.528   4.420   1.082  0.0146  0.0313 -0.0518
10197PP      PP20301  11.987   4.594   1.298 -0.2133  0.2173  0.2982
10198PP      PP20302  15.226  13.839   0.442 -0.1045  0.0044  0.2454
10199PP      PP20303   4.795  12.028   0.514  0.3211  0.0424  0.0726
10200PP      PP20304   1.139   5.758   9.783 -0.0554  0.1988 -0.2636
10201PP      PP20305  12.872   1.550  10.149  0.1185 -0.1330  0.1869
10202PP      PP20306   6.099   8.018  12.890  0.1978  0.1009 -0.3027
10203PP      PP20307   3.102  12.551  11.647  0.5065  0.2833 -0.4670
10204PP      PP20308   8.590  13.014   0.143 -0.3548 -0.1089  0.2786
10205PP      PP20309  15.696   6.875   3.123 -0.0530  0.1437  0.1077
10206PP      PP20310   1.135   8.063  11.912  0.5395  0.2490 -0.1380
10207PP      PP20311   3.940   0.302   2.002 -0.0626  0.2061  0.0885
10208PP      PP20312  14.098   1.006  10.963 -0.1163  0.0628 -0.4068
10209PP      PP20313  12.535  11.269   2.618  0.1047 -0.1861 -0.2000
10210PP      PP20314   1.877   6.731   0.326 -0.0481  0.3461  0.0711
10211PP      PP20315   8.231  10.568  12.310 -0.0647 -0.1819 -0.0342
10212PP      PP20316   2.086   4.726   2.908 -0.1853  0.0398  0.1844
10213PP      PP20317   6.067  14.108  11.647  0.1222  0.2075 -0.3828
10214PP      PP20318  14.148   5.405   0.626 -0.0768 -0.0075 -0.0125
10215PP      PP20319   9.696  13.231  12.566  0.0805  0.1168  0.1931
10216PP      PP20320  13.878  15.313   9.994 -0.1990  0.2883  0.0494
10217PP      PP20321   4.638  11.278   2.809 -0.0179 -0.0456 -0.0981
10218PP      PP20322   1.997   8.209  11.350  0.2385 -0.3315 -0.0602
10219PP      PP20323   5.576   1.601   1.575  0.2382  0.0142 -0.3137
10220PP      PP20324   1.048   5.981   8.849  0.1518 -0.3139  0.1258
10221PP      PP20325   3.491   4.914   0.530 -0.1660 -0.1571 -0.0066
10222PP      PP20326   6.852   6.567   2.668  0.0330 -0.1813 -0.0185
10223PP      PP20327   2.044   4.328   4.525 -0.0093 -0.2985 -0.0974
10224PP      PP20328  12.891   2.281   0.939 -0.0016  0.2773 -0.0607
10225PP      PP20329   5.717  14.455   7.528  0.1170 -0.0813 -0.1930
10226PP      PP20330  11.402   9.375   2.552 -0.1379  0.2202  0.3893
10227PP      PP20331   6.919   5.332  13.327  0.0933  0.0506  0.1683
10228PP      PP20332  10.813   6.129   3.876  0.0027  0.0442  0.0727
10229PP      PP20333  11.012  11.301   3.609  0.2921  0.1050 -0.0473
10230PP      PP20334  11.200   1.965   9.496 -0.0853  0.0926  0.1609
10231PP      PP20335  10.472   3.161   0.903 -0.1057 -0.0177  0.1458
10232PP      PP20336   2.779   2.476   3.950  0.0130 -0.2509  0.2583
10233PP      PP20337  14.679  11.076  12.864 -0.1170 -0.2071 -0.1404
10234PP      PP20338  12.441   4.556   0.638 -0.1057 -0.0099 -0.1347
10235PP      PP20339   6.870  11.565  11.408 -0.0739  0.2038 -0.2225
10236PP      PP20340   8.668  12.440   3.060  0.1034  0.1430 -0.0619
10237PP      PP20341   1.425   5.008  11.203 -0.1401  0.0903 -0.0264
10238PP      PP20342   8.802   3.130  10.928 -0.4137 -0.0564 -0.1244
10239PP      PP20343   8.589  14.274   4.339  0.0263 -0.0609 -0.1413
10240PP      PP20344   9.109  11.332   3.338  0.3178  0.0129  0.2964
10241PP      PP20345   3.903   2.711   0.686  0.0489 -0.1344  0.0769
10242PP      PP20346  15.062   9.067  10.635  0.0571 -0.0557  0.0178
10243PP      PP20347   4.452   3.788   2.477  0.2067 -0.1656  0.0274
10244PP      PP20348   0.882  11.879  12.511 -0.2622 -0.0195  0.0166
10245PP      PP20349   7.437  14.088   0.054  0.2377  0.0128 -0.0270
10246PP      PP20350   1.271  15.015   1.992 -0.2848 -0.1026  0.1506
10247PP      PP20351   2.469  13.982   1.441 -0.2226  0.0878  0.1152
10248PP      PP20352   6.451   4.094  12.944  0.0562  0.3180 -0.2955
10249PP      PP20353   1.485   0.942   9.019  0.1136  0.0959 -0.3286
10250PP      PP20354   4.609  15.474   8.251 -0.2275 -0.1951 -0.4040
10251PP      PP20355  10.358   9.647  12.795  0.1503 -0.4222  0.2235
10252PP      PP20356  14.295   8.770  12.432  0.2921 -0.1147  0.2180
10253PP      PP20357   2.989   5.275   2.116  0.1142  0.1851 -0.0468
10254PP      PP20358   0.086   1.584   9.688 -0.1226  0.5330 -0.0842
10255PP      PP20359   1.815  12.486   0.311  0.0234  0.0185 -0.0884
10256PP      PP20360   9.394   5.367   3.280  0.1123  0.0167  0.0311
10257PP      PP20361   5.392   4.857  12.106  0.1852  0.2275 -0.0269
10258PP      PP20362   4.695   9.011  11.609  0.2209 -0.0026 -0.0022
10259PP      PP20363   1.448  11.629   3.593  0.1228  0.0589  0.0005
10260PP      PP20364  10.622   7.841   4.603  0.0419  0.1104 -0.2092
10261PP      PP20365  12.389  14.961   9.259 -0.0860 -0.0694 -0.0648
10262PP      PP20366  15.225   3.287  11.054 -0.2374  0.1679 -0.1894
10263PP      PP20367   5.383   2.525   9.147 -0.2008 -0.0463  0.0959
10264PP      PP20368   9.308   9.843   0.057  0.0857  0.2191  0.0985
10265PP      PP20369  13.798   4.894  12.338  0.2016  0.0360  0.2105
10266PP      PP20370   7.855  11.024   8.486  0.0125  0.0496 -0.0820
10267PP      PP20371   2.396  14.970  13.401  0.1400 -0.0320  0.0576
10268PP      PP20372   3.163  14.648  11.171  0.0138  0.0813  0.1910
10269PP      PP20373  13.024  14.828   1.723  0.1929 -0.1203  0.2215
10270PP      PP20374   0.230  10.646   4.677  0.0396  0.2816 -0.2152
10271PP      PP20375   8.381   5.907   0.391  0.0310  0.0993 -0.2296
10272PP      PP20376  14.242   3.546  11.039  0.0303  0.0369 -0.2063
10273PP      PP20377   3.457  13.465   0.427  0.1233  0.1060  0.1317
10274PP      PP20378   8.087   3.413   0.519 -0.4453 -0.0661  0.1308
10275PP      PP20379   2.080   0.406  12.184 -0.1644 -0.0692 -0.3980
10276PP      PP20380   1.365  12.342   0.679 -0.0215  0.1623 -0.1660
10277PP      PP20381   6.526   4.705   0.392  0.0899 -0.1206  0.2443
10278PP      PP20382  11.541   6.614   1.459 -0.1598  0.2402  0.0101
10279PP      PP20383  10.515  14.995   4.651  0.0568 -0.1475 -0.0897
10280PP      PP20384  10.334   1.135   1.463 -0.1629 -0.1496  0.3515
10281PP      PP20385   8.337   0.603  12.426  0.3534 -0.0219 -0.2871
10282PP      PP20386  15.115  12.789  12.313  0.2386 -0.3730 -0.1873
10283PP      PP20387  14.654   8.382  11.635  0.2506 -0.1788 -0.2865
10284PP      PP20388   4.127   1.201   8.924 -0.0216 -0.1460 -0.0374
10285PP      PP20389   5.248   9.877  11.796  0.1515  0.0483 -0.0449
10286PP      PP20390  15.524  11.449   2.706 -0.0152 -0.2073  0.1653
10287PP      PP20391   2.517   1.513   0.691  0.0063 -0.3030  0.1704
10288PP      PP20392  12.192  14.722  11.214 -0.0594 -0.0468 -0.0023
10289PP      PP20393  11.221   3.316   8.827  0.0352 -0.2194 -0.0785
10290PP      PP20394  11.039  11.603  10.368  0.0082  0.0615  0.0571
10291PP      PP20395  15.851   8.567   8.998 -0.1284  0.1466 -0.0109
10292PP      PP20396   0.867   6.821   1.617  0.0205  0.1169 -0.0228
10293PP      PP20397   6.376   8.057  13.323  0.1004  0.2312  0.2791
10294PP      PP20398  11.731  10.324   9.142 -0.0395 -0.0751 -0.2035
10295PP      PP20399  12.851  12.556   1.389  0.0111 -0.3421 -0.2292
10296PP      PP20400  12.093  15.911   9.601 -0.1453  0.0511  0.3293
10297PP      PP20401   9.319  11.717   0.968 -0.1901  0.1548  0.0534
10298PP      PP20402   4.597   0.248  12.948  0.0494 -0.0725  0.1661
10299PP      PP20403   1.622  14.419   1.374 -0.0816 -0.0135  0.2146
10300PP      PP20404   5.746   6.145   1.339  0.1909 -0.0198  0.2584
10301PP      PP20405  10.213  15.334  11.343 -0.2862  0.3636 -0.0289
10302PP      PP20406   2.164   6.297  12.579 -0.0719 -0.2305  0.0102
10303PP      PP20407   7.924  12.829   3.420 -0.0916 -0.0559  0.2206
10304PP      PP20408  13.047   1.555  12.019 -0.0632  0.1816 -0.2107
10305PP      PP20409  15.402  15.838   0.366  0.1802 -0.2004  0.2873
10306PP      PP20410   2.899   1.628   3.404  0.3127  0.4466  0.2443
10307PP      PP20411  14.247   7.791  13.008  0.1934 -0.0721  0.1289
10308PP      PP20412   4.040  13.751   0.102  0.3742  0.0125 -0.1772
10309PP      PP20413   4.860   8.678   4.327 -0.2364 -0.3073  0.3159
10310PP      PP20414   1.363  13.185   0.801  0.0724  0.0010 -0.1914
10311PP      PP20415   2.617   9.368   3.588 -0.1924 -0.0287 -0.0586
10312PP      PP20416  11.838   4.112  11.868 -0.1507  0.2589  0.3848
10313PP      PP20417   1.752  13.845   3.653  0.0483  0.0673  0.1752
10314PP      PP20418   7.556  11.126   2.367 -0.2617 -0.2148 -0.0851
10315PP      PP20419   7.889  13.109  10.423  0.3078 -0.3784 -0.1595
10316PP      PP20420  15.399  10.978   2.544 -0.3410 -0.0782 -0.0384
10317PP      PP20421   9.012  12.903   1.926  0.3904  0.3334  0.0896
10318PP      PP20422   6.100   9.881   2.125 -0.1459 -0.2085  0.1104
10319PP      PP20423  10.774   8.161   3.822  0.0743 -0.1158  0.2146
10320PP      PP20424   7.160   5.939   9.370  0.2779  0.1473 -0.1810
10321PP      PP20425   6.988   0.339   9.285 -0.1322  0.1230 -0.0731
10322PP      PP20426  14.935   8.624   9.503 -0.1743  0.1316 -0.0538
10323PP      PP20427   3.625  13.193  11.167  0.3456 -0.0909  0.0699
10324PP      PP20428   0.151   2.253   2.865  0.0181  0.0880  0.1026
10325PP      PP20429   0.184   9.772   4.152  0.1604  0.0948 -0.0209
10326PP      PP20430  15.911   1.028   7.758  0.3435 -0.0102  0.1046
10327PP      PP20431   6.928   6.973  13.195  0.0658  0.0171 -0.1441
10328PP      PP20432  15.446  10.747   9.897 -0.2906  0.3622 -0.0151
10329PP      PP20433  14.559  13.061   4.020  0.4147 -0.1959  0.0985
10330PP      PP20434   3.979  10.690   2.086 -0.0479  0.0643 -0.1865
10331PP      PP20435   3.501   9.682  10.680 -0.3726  0.2236 -0.0465
10332PP      PP20436  13.508  14.599   0.655  0.0148  0.1243 -0.0190
10333PP      PP20437   7.171   0.824   1.653 -0.0398  0.4209 -0.1896
10334PP      PP20438  14.128   4.351  10.328  0.2634 -0.2418 -0.1293
10335PP      PP20439   1.879   5.431  10.387 -0.0547 -0.0024 -0.0663
10336PP      PP20440   5.518   2.130   4.095  0.0869  0.0511  0.1062
10337PP      PP20441   0.352   9.966  11.125  0.2270 -0.3971 -0.0660
10338PP      PP20442  11.879   4.604  12.008  0.2003  0.3535  0.3442
10339PP      PP20443  11.694   1.103  11.303 -0.3296 -0.0808 -0.2713
10340PP      PP20444   4.751  15.469  12.135 -0.1071 -0.0996 -0.1619
10341PP      PP20445  13.767  10.690   0.809 -0.0544 -0.2365 -0.0575
10342PP      PP20446   9.190   0.397   1.566  0.0858  0.0390 -0.1057
10343PP      PP20447   0.616   7.123  13.193 -0.2412 -0.6988 -0.0961
10344PP      PP20448   7.337   7.492  11.404  0.3890  0.1434  0.1843
10345PP      PP20449   0.091   0.763   7.371 -0.0028 -0.2109 -0.2644
10346PP      PP20450   2.052   7.157  11.279 -0.0449 -0.0313  0.0292
10347PP      PP20451  13.591  10.784   0.200 -0.2426 -0.0417  0.0117
10348PP      PP20452  15.523   8.358   0.652  0.2554 -0.1232  0.1254
10349PP      PP20453   0.099  10.351   3.068  0.1306  0.0202 -0.0528
10350PP      PP20454   0.378   3.932  13.160 -0.1920  0.1287 -0.3414
10351PP      PP20455   5.665  12.110  12.950  0.2728 -0.0552  0.2490
10352PP      PP20456   9.745   5.032   3.448 -0.1090 -0.0091 -0.0796
10353PP      PP20457  10.545   7.076   9.738 -0.1030  0.0099  0.1422
10354PP      PP20458   9.448   2.324  10.074 -0.1388  0.0126  0.2361
10355PP      PP20459  12.486   3.425  10.274  0.0121 -0.2933 -0.0648
10356PP      PP20460   6.011   3.958   1.417  0.1217  0.2307  0.0528
10357PP      PP20461   9.267   7.205   4.603 -0.3236 -0.0413  0.2070
10358PP      PP20462  11.697   7.568  10.874 -0.2982 -0.5178 -0.0706
10359PP      PP20463  14.901   9.219   0.389  0.3089  0.3171 -0.2250
10360PP      PP20464   2.946   1.961   3.876  0.1144 -0.2410 -0.2737
10361PP      PP20465   2.287  10.579   0.174 -0.1264 -0.0690 -0.4650
10362PP      PP20466   3.380   7.308   4.338  0.1219  0.3248  0.0695
10363PP      PP20467   0.889  15.303   9.455  0.0949  0.2251 -0.0157
10364PP      PP20468  12.603   2.388   2.998  0.2387  0.3190 -0.1271
10365PP      PP20469   2.972   2.818   8.500  0.2141 -0.0035 -0.3689
10366PP      PP20470   8.491   2.952   1.185  0.0634 -0.1228 -0.1653
10367PP      PP20471   0.645  12.745   3.403 -0.1720  0.4770  0.0292
10368PP      PP20472  10.049   9.307   4.071 -0.1072 -0.0182  0.0571
10369PP      PP20473   6.374   9.736   1.661 -0.2846 -0.0693  0.0737
10370PP      PP20474  15.813   5.411   1.618 -0.0699 -0.2944 -0.2139
10371PP      PP20475   2.116  13.750   7.958  0.4570 -0.1119 -0.0984
10372PP      PP20476   9.857   3.476  13.205  0.1634 -0.0789 -0.0273
10373PP      PP20477  13.349   3.031   2.806 -0.1001  0.0899 -0.1958
10374PP      PP20478  13.286  10.486   3.815  0.2233  0.1057 -0.0930
10375PP      PP20479   9.026   4.335  12.067  0.2361 -0.2369  0.0085
10376PP      PP20480   3.741  13.654   1.709 -0.0836 -0.1363 -0.3842
10377PP      PP20481   5.011  10.811   2.027 -0.2507  0.1901  0.2050
10378PP      PP20482   3.475   4.620   8.642 -0.1204 -0.0183 -0.1177
10379PP      PP20483   3.271   5.310  10.204 -0.2185 -0.0121 -0.0387
10380PP      PP20484   2.668   7.185  10.234  0.3114 -0.0261 -0.0273
10381PP      PP20485   0.575  10.688  10.935  0.1598  0.0007  0.0263
10382PP      PP20486   9.926  10.885   3.681 -0.1584 -0.0976  0.0193
10383PP      PP20487   7.067   0.434  10.048 -0.1582 -0.2316  0.3058
10384PP      PP20488  15.222   0.318   0.080 -0.1480 -0.0701  0.3692
10385PP      PP20489   6.902   5.873   1.336 -0.0169 -0.1099  0.1954
10386PP      PP20490   6.808   4.860  11.519  0.2702  0.2205 -0.0386
10387PP      PP20491   3.384   1.631   1.098  0.0165  0.1931 -0.3408
10388PP      PP20492   2.549  14.027   8.124  0.1416 -0.0522  0.0764
10389PP      PP20493   0.810   6.098  11.843 -0.1264  0.2500  0.2459
10390PP      PP20494   6.941  10.470  11.828  0.0543 -0.1757  0.0602
10391PP      PP20495   0.301   7.098  11.856  0.0581  0.2247 -0.0161
10392PP      PP20496   4.110   6.994   2.593  0.0927  0.0808 -0.1609
10393PP      PP20497   2.421  12.584  10.922  0.1941  0.1009 -0.0695
10394PP      PP20498   9.280  11.815   9.450 -0.1010 -0.2271  0.1197
10395PP      PP20499  15.784  15.820   1.735 -0.1040  0.1249 -0.0140
10396PP      PP20500  11.481   9.898  12.558  0.1475 -0.0993 -0.3909
10397PP      PP20501   6.399  11.955  10.055  0.0594 -0.0213 -0.1027
10398PP      PP20502   8.497  14.039  10.217  0.2937  0.1328 -0.0769
10399PP      PP20503  11.742  11.927   0.807 -0.4064  0.0843  0.0265
10400PP      PP20504  10.509   9.566   9.807  0.0973 -0.3806 -0.0827
10401PP      PP20505   1.902  10.888   0.850  0.1003  0.2521 -0.0250
10402PP      PP20506   0.913   8.645   1.193  0.1579 -0.1943 -0.1235
10403PP      PP20507   5.025   7.117   5.082  0.0888  0.0132 -0.0346
10404PP      PP20508   8.851   4.251   4.015  0.0422 -0.0427 -0.2308
10405PP      PP20509  12.849  15.785   0.653 -0.0864  0.0159 -0.0501
10406PP      PP20510  10.628   3.655   0.075 -0.0723  0.0003 -0.0014
10407PP      PP20511  10.246   5.743   1.715  0.2126 -0.3789  0.1931
10408PP      PP20512   9.908   3.805  10.731 -0.0198 -0.1030  0.1841
10409PP      PP20513   0.674  10.730  11.754  0.1335 -0.1008  0.0003
10410PP      PP20514   7.016   0.618   3.686  0.1306  0.0882  0.0733
10411PP      PP20515   2.714  10.279   4.699 -0.0179  0.2822 -0.0339
10412PP      PP20516   3.776  12.328   2.044  0.1702  0.1800  0.0764
10413PP      PP20517   9.917   8.234  11.540 -0.1419 -0.0628  0.1067
10414PP      PP20518   2.467  13.707   9.965 -0.0180 -0.0395  0.0128
10415PP      PP20519   2.941   3.441  11.613 -0.0515  0.0022  0.1853
10416PP      PP20520   7.419  14.427   1.792  0.2481 -0.0195 -0.1208
10417PP      PP20521   5.434   2.705  11.334 -0.2362  0.0159  0.2095
10418PP      PP20522  14.447   1.526   3.461  0.0091 -0.1012  0.0735
10419PP      PP20523   9.433  11.364  10.179  0.0655 -0.0548 -0.0152
10420PP      PP20524  10.204   3.996  11.769 -0.0155  0.0485 -0.0065
10421PP      PP20525   2.093  10.761   3.660 -0.1491 -0.2377 -0.2057
10422PP      PP20526   7.815   7.605   0.422  0.1840 -0.0832  0.2369
10423PP      PP20527  12.401  10.190   9.322  0.0568  0.0170  0.0178
10424PP      PP20528   5.753   5.462  13.233 -0.3635  0.0548 -0.0452
10425PP      PP20529   9.937   7.635  10.282 -0.0457 -0.0361  0.1060
10426PP      PP20530  13.292   0.577   0.403  0.0514 -0.0541  0.0263
10427PP      PP20531  13.092  12.078   9.237  0.3371  0.0192 -0.1336
10428PP      PP20532   6.769  11.372  13.364 -0.1911  0.1812  0.0672
10429PP      PP20533  10.131  14.944  10.978 -0.0710  0.0785 -0.1462
10430PP      PP20534   0.270   0.067  11.600  0.2421 -0.3439  0.1319
10431PP      PP20535   8.870   3.485  10.484  0.5602 -0.0273  0.2035
10432PP      PP20536  14.609   7.494   3.356 -0.0208  0.0517  0.0514
10433PP      PP20537  15.311   9.880  10.614  0.1264 -0.0770  0.1462
10434PP      PP20538   8.503   1.912  11.711  0.1312 -0.0283 -0.0061
10435PP      PP20539   2.119   0.728   2.665  0.1113 -0.2978  0.0525
10436PP      PP20540   8.421   9.605  13.304  0.0226 -0.2532 -0.3057
10437PP      PP20541   5.306   7.374   9.196 -0.0286 -0.2340  0.1796
10438PP      PP20542  12.279   9.358   0.245  0.0351 -0.0696 -0.0708
10439PP      PP20543   2.080   9.162  11.302  0.0322  0.0104  0.2382
10440PP      PP20544  13.194   1.777   1.563 -0.2067 -0.0248 -0.0264
10441PP      PP20545   1.469   8.680   1.262 -0.4328  0.0047 -0.0243
10442PP      PP20546  11.527   9.353  13.246 -0.0214  0.4132  0.0908
10443PP      PP20547  12.071  12.753  11.205  0.0522  0.0079  0.2105
10444PP      PP20548   5.984   5.615  10.535 -0.0360 -0.3504 -0.0142
10445PP      PP20549   8.277   8.256   2.141 -0.0626 -0.3325  0.3174
10446PP      PP20550   5.287   2.713  10.764 -0.0097  0.1352  0.1151
10447PP      PP20551   0.890  11.837   3.809 -0.1380  0.0044 -0.3140
10448PP      PP20552   3.319   8.469  11.109  0.0230  0.1026  0.1509
10449PP      PP20553   9.985   9.000   0.391 -0.2096 -0.2130 -0.1306
10450PP      PP20554   8.722  11.149   3.015 -0.2756 -0.2033 -0.3701
10451PP      PP20555  13.997   8.313   9.993  0.0440  0.2051  0.0198
10452PP      PP20556   4.723  14.253  13.194  0.0395 -0.2889  0.0146
10453PP      PP20557   5.927   0.478  11.511 -0.2219 -0.4722  0.0376
10454PP      PP20558  10.095  13.649   2.676  0.1545 -0.0830 -0.1946
10455PP      PP20559   3.726  12.940   2.663 -0.1489 -0.0299 -0.1311
10456PP      PP20560   1.165   4.589   9.725  0.0220 -0.0253  0.3376
10457PP      PP20561   4.498  13.651   8.397 -0.1733 -0.0887 -0.0542
10458PP      PP20562   2.997   6.361  11.235 -0.0162  0.0859  0.2433
10459PP      PP20563  13.318  10.769  11.690 -0.2629 -0.3371  0.1828
10460PP      PP20564   1.972   4.504  10.058 -0.1285 -0.0080  0.1222
10461PP      PP20565   5.779   7.428   2.175 -0.3028 -0.1359  0.0728
10462PP      PP20566  11.086  11.383  13.057  0.0486 -0.0827  0.2580
10463PP      PP20567   1.505   4.260   0.577 -0.1699  0.3070 -0.0600
10464PP      PP20568  10.497  15.556  12.488 -0.0874 -0.0165  0.1152
10465PP      PP20569   1.119   1.769   7.679 -0.5558  0.2999  0.0172
10466PP      PP20570   6.321  14.874   0.417  0.1334 -0.0263 -0.0431
10467PP      PP20571   6.555   0.644  13.176  0.0526  0.3191 -0.2839
10468PP      PP20572   3.208   1.765   1.998 -0.2767 -0.1835  0.1149
10469PP      PP20573   9.386   1.880  10.368  0.1672  0.0636  0.0117
10470PP      PP20574  12.516   5.410   9.120 -0.2401 -0.3480  0.0592
10471PP      PP20575  12.475   7.369   2.447  0.1710  0.0572 -0.0619
10472PP      PP20576   7.674   3.494   0.249 -0.1385 -0.0084  0.1519
10473PP      PP20577   3.361   3.639   1.088 -0.1668  0.0406 -0.3787
10474PP      PP20578   6.907   1.517  12.123 -0.1697 -0.1305  0.2145
10475PP      PP20579  15.717   5.234   9.898 -0.0824  0.0483 -0.1881
10476PP      PP20580   4.296   2.335   9.754  0.1991 -0.1763  0.0725
10477PP      PP20581   5.139  10.754  10.333 -0.1084  0.1200 -0.1189
10478PP      PP20582   8.260  14.054   1.696 -0.2239  0.3516  0.1785
10479PP      PP20583  11.039  10.127  12.296 -0.0889  0.0223  0.2290
10480PP      PP20584   0.414   1.713   1.118 -0.0186  0.1573  0.2632
10481PP      PP20585   2.236  12.445  13.390 -0.1600 -0.3021 -0.2306
10482PP      PP20586  13.377   0.814  11.556  0.2748 -0.1498  0.0093
10483PP      PP20587   4.200   6.431  10.302 -0.4072 -0.0740 -0.0474
10484PP      PP20588   0.477   7.034   2.486 -0.2281  0.1746  0.1130
10485PP      PP20589  10.952  15.918   3.344  0.2483  0.1083 -0.0216
10486PP      PP20590   1.161  15.779  10.669 -0.1076 -0.2941 -0.1445
10487PP      PP20591  14.696   2.490   2.121  0.0066 -0.1924 -0.1093
10488PP      PP20592   5.704   2.601   4.209 -0.2925  0.0715 -0.2749
10489PP      PP20593  11.967  15.059   2.619 -0.0004  0.0836  0.0834
10490PP      PP20594   5.986   0.269   9.443 -0.1291 -0.1871 -0.1998
10491PP      PP20595  13.552   3.939   2.110 -0.3112  0.4105  0.1491
10492PP      PP20596   5.141   0.264   3.487 -0.2536  0.1565 -0.1269
10493PP      PP20597   2.792  12.507   9.076 -0.1682  0.0287 -0.1809
10494PP      PP20598  14.716   0.001   2.784  0.1739 -0.1666 -0.1518
10495PP      PP20599   7.033   8.307   5.105 -0.0414  0.0309 -0.3238
10496PP      PP20600   9.240  12.963  12.770 -0.0575  0.1929  0.0573
10497PP      PP20601   2.549   2.322   9.168  0.0590  0.1189  0.2290
10498PP      PP20602   4.527  10.775   2.890  0.4613  0.1762 -0.1988
10499PP      PP20603   4.181   6.057   3.827 -0.0699  0.1728  0.1481
10500PP      PP20604   9.414  15.718   1.335 -0.0418 -0.2726  0.0948
10501PP      PP20605   2.765  12.335  10.436  0.1741  0.0100 -0.1396
10502PP      PP20606   9.957  13.647   1.038  0.1837 -0.0501 -0.0718
10503PP      PP20607   4.275   5.152   1.117 -0.1421 -0.0750 -0.3164
10504PP      PP20608   4.462   0.427   1.969  0.3770  0.0688 -0.0774
10505PP      PP20609   6.117  12.849  11.469  0.2331  0.2235  0.0318
10506PP      PP20610   1.544   7.467  10.517 -0.0400 -0.0588 -0.1650
10507PP      PP20611   3.782  11.983   2.515 -0.0783 -0.0366  0.0442
10508PP      PP20612  12.942   1.658   2.334  0.1365  0.3853 -0.3259
10509PP      PP20613   8.988   4.820   3.938  0.0116  0.1309  0.1685
10510PP      PP20614   4.636  12.285   3.844  0.0689  0.0676  0.0275
10511PP      PP20615  13.546   3.704   0.335  0.2718  0.2581  0.3388
10512PP      PP20616   6.608  10.561   8.695  0.3177  0.2313  0.0234
10513PP      PP20617  11.748   2.359  10.581 -0.0323  0.0288  0.0156
10514PP      PP20618   4.403   9.533  12.299 -0.0104 -0.1835  0.0347
10515PP      PP20619  11.298   5.638   2.600 -0.0125  0.0674  0.3838
10516PP      PP20620  13.514   2.399  13.397 -0.4070  0.0714  0.0127
10517PP      PP20621   6.244  14.547   3.253 -0.0463 -0.1144 -0.0711
10518PP      PP20622  15.912   9.222  12.104  0.1184  0.2482 -0.1516
10519PP      PP20623   9.744   7.300   1.266  0.1212  0.1516  0.3727
10520PP      PP20624   6.625   9.399  11.348 -0.0977  0.1084  0.3907
10521PP      PP20625   0.017  10.940  11.674  0.2532  0.0257  0.1093
10522PP      PP20626   8.555   5.770  10.728 -0.0494 -0.0600  0.1088
10523PP      PP20627   0.099   9.565  11.204 -0.0086  0.1691 -0.5528
10524PP      PP20628  13.704   4.414  13.169 -0.0282  0.1941  0.2700
10525PP      PP20629   3.399   0.581  12.417  0.1991 -0.0066 -0.1242
10526PP      PP20630   4.908   9.831  11.139 -0.0818  0.0921 -0.2246
10527PP      PP20631   0.830   1.700  10.478 -0.0462  0.2078  0.1866
10528PP      PP20632  14.500   2.098  10.184  0.1376  0.2647 -0.0928
10529PP      PP20633   2.496   4.507   9.440 -0.1145  0.1027 -0.2401
10530PP      PP20634   1.173  11.800  11.134  0.1574  0.0464  0.2027
10531PP      PP20635  13.303  11.938   2.153 -0.0894 -0.0150 -0.0798
10532PP      PP20636  11.159  12.735   9.195 -0.1517  0.2765 -0.1811
10533PP      PP20637  13.412   7.445   1.309 -0.1967  0.1885  0.2039
10534PP      PP20638   3.994  13.086   8.177 -0.0488  0.0187 -0.3347
10535PP      PP20639   5.350  11.456   3.649  0.0130  0.2443  0.4382
10536PP      PP20640   1.830   3.231  13.227 -0.1749  0.3905 -0.1293
10537PP      PP20641  13.745   3.130  12.926 -0.0879  0.2906 -0.1301
10538PP      PP20642   0.324  13.703  10.028 -0.1585  0.0692  0.5968
10539PP      PP20643  11.096  10.239   0.456  0.2841 -0.2125 -0.0953
10540PP      PP20644  15.932   4.420   1.721  0.0479  0.0484 -0.0833
10541PP      PP20645  10.054  13.266  10.514 -0.0586  0.0538 -0.0322
10542PP      PP20646  13.967  12.691  11.275  0.2100 -0.0365  0.0150
10543PP      PP20647   9.023   2.392  11.097  0.0496 -0.2142 -0.1296
10544PP      PP20648  13.075  15.195   1.324  0.0422 -0.0746 -0.0688
10545PP      PP20649  13.175  11.937   3.259 -0.1824  0.0512  0.3416
10546PP      PP20650  10.010   6.852   1.564 -0.1255  0.2643 -0.1579
10547PP      PP20651   8.477   2.355  10.521  0.2528 -0.2431 -0.0997
10548PP      PP20652   7.210   5.436  10.895 -0.0343  0.2216  0.1372
10549PP      PP20653   8.716   0.149   4.409 -0.2104 -0.0515  0.3183
10550PP      PP20654   8.464   7.758   9.865 -0.0970 -0.2117  0.1563
10551PP      PP20655   8.792  13.348  11.394 -0.0508  0.1573  0.0695
10552PP      PP20656  13.460   6.058   9.759 -0.0746 -0.0966 -0.1266
10553PP      PP20657   0.068   5.615   2.650  0.1187 -0.1119  0.3466
10554PP      PP20658   2.013   2.678  10.743 -0.1017 -0.1001  0.1297
10555PP      PP20659  13.610  11.085   3.550 -0.0669  0.1806  0.2490
10556PP      PP20660   4.265  13.361  12.357 -0.1899 -0.1979  0.1114
10557PP      PP20661   7.679   9.511  12.640 -0.2140 -0.0508  0.0630
10558PP      PP20662   3.697   7.618   3.199 -0.0730  0.1574  0.4566
10559PP      PP20663   8.403   8.094   1.635 -0.1013 -0.2294 -0.1520
10560PP      PP20664  15.926  12.848   0.761  0.2908  0.0150 -0.1166
10561PP      PP20665   3.436   2.283  10.745 -0.2536 -0.2036  0.0039
10562PP      PP20666  14.768   7.161   0.814  0.1264  0.1320 -0.0472
10563PP      PP20667   3.445   9.926  12.060 -0.0136 -0.1275  0.0144
10564PP      PP20668   7.193   2.499   0.743 -0.0847  0.2542  0.1266
10565PP      PP20669   8.150   1.481  12.907  0.1686 -0.2811 -0.2370
10566PP      PP20670   9.379   6.273   2.091 -0.0006 -0.2328 -0.1224
10567PP      PP20671   2.657   4.816   1.216 -0.1820  0.0545 -0.2135
10568PP      PP20672   6.150   1.458   4.012 -0.0495  0.1107 -0.2212
10569PP      PP20673   9.238  10.362   9.403  0.1268  0.3168  0.2544
10570PP      PP20674  14.309   7.471   2.960 -0.0033 -0.0182  0.1415
10571PP      PP20675   9.650   8.527   1.199  0.3606 -0.1346  0.1786
10572PP      PP20676   2.117  11.181  11.902 -0.3399  0.3332  0.1654
10573PP      PP20677  14.350  13.740  12.781 -0.0288  0.2303 -0.1022
10574PP      PP20678   4.998   8.855  11.233 -0.0388  0.4002 -0.1212
10575PP      PP20679   7.681   0.584   4.374 -0.4750  0.0510 -0.3619
10576PP      PP20680   6.476   2.721   8.646  0.1383 -0.1196 -0.1860
10577PP      PP20681   8.191   4.453   3.266  0.0064 -0.0157 -0.0437
10578PP      PP20682   8.029  10.768   1.522  0.1365 -0.0815  0.0568
10579PP      PP20683  10.084   0.282   9.514 -0.3271 -0.0506  0.4404
10580PP      PP20684   7.818   6.777  12.881 -0.1196 -0.1685 -0.1816
10581PP      PP20685   7.094  12.505  10.471 -0.2019  0.3087  0.1247
10582PP      PP20686   4.409   8.514   1.760  0.1201  0.1730  0.2315
10583PP      PP20687   3.818   6.299   8.481  0.2967 -0.0062  0.2430
10584PP      PP20688   6.976   0.733  12.579 -0.0270 -0.1750 -0.0371
10585PP      PP20689   4.176  11.849  11.544 -0.2706  0.1694  0.1069
10586PP      PP20690   2.619   9.517   3.126 -0.1647 -0.0992 -0.3071
10587PP      PP20691  14.825  10.313  12.140  0.3102  0.3662 -0.0181
10588PP      PP20692   6.242   6.574   1.359  0.0229 -0.0278  0.0498
10589PP      PP20693   6.213  11.953   2.130 -0.1988  0.1077 -0.0524
10590PP      PP20694   4.122  12.712   1.765 -0.1788  0.0015 -0.0510
10591PP      PP20695   7.245   9.673  10.645 -0.4485 -0.0235 -0.0903
10592PP      PP20696   1.936   2.334   2.182 -0.3339 -0.0311 -0.0968
10593PP      PP20697   4.950   1.194   3.275 -0.1340 -0.1697 -0.3945
10594PP      PP20698   8.981   5.201   9.451 -0.0316 -0.0586  0.0307
10595PP      PP20699   9.163   1.358  11.276  0.0669 -0.3453  0.1729
10596PP      PP20700   7.894   4.360   0.116  0.0430 -0.1414 -0.0317
10597PP      PP20701   3.901   3.217   0.386  0.0784 -0.1803 -0.0241
10598PP      PP20702  14.859  13.560  12.031 -0.1378  0.2451  0.2423
10599PP      PP20703   2.517   5.225   0.784 -0.1478  0.0268 -0.1191
10600PP      PP20704   7.279  11.245  10.021  0.2363  0.0058  0.1483
10601PP      PP20705   7.435  10.067   1.622  0.1208 -0.2319  0.0549
10602PP      PP20706   0.006   1.383   0.770 -0.1182  0.0662 -0.0175
10603PP      PP20707   3.541   0.324   0.049  0.0544  0.4732  0.1481
10604PP      PP20708   0.235   5.215   9.597 -0.1663 -0.1270  0.1099
10605PP      PP20709   1.840   7.866   3.974  0.1087  0.1923  0.0119
10606PP      PP20710   4.288   9.363  11.447  0.1623  0.0709  0.4165
10607PP      PP20711   9.961   5.006   2.066  0.3104 -0.0852 -0.1610
10608PP      PP20712   7.461  15.527   3.754  0.2130  0.0507 -0.3422
10609PP      PP20713  12.753   8.821   1.398  0.1677  0.1348 -0.1510
10610PP      PP20714   9.900  12.075   9.560 -0.0914 -0.0722  0.1214
10611PP      PP20715  13.245  14.021  10.446 -0.1246 -0.2566 -0.1010
10612PP      PP20716  13.216   1.467   0.648 -0.1117  0.1855 -0.1429
10613PP      PP20717   4.182  10.416   1.133 -0.1437 -0.1400  0.1670
10614PP      PP20718   5.602   6.980   2.566 -0.4314  0.0394  0.3320
10615PP      PP20719   7.838   0.801  12.426 -0.1048  0.2079 -0.1682
10616PP      PP20720   0.744   3.651   3.475 -0.1956 -0.0085  0.1525
10617PP      PP20721   1.812   9.845   1.234 -0.0208  0.0626 -0.0589
10618PP      PP20722   9.440   8.129   0.749 -0.1231  0.3431  0.0634
10619PP      PP20723  11.396   9.976   4.178  0.2145 -0.1328 -0.3923
10620PP      PP20724   7.560  15.630   2.217 -0.1611  0.2510  0.3017
10621PP      PP20725   1.049   2.249   2.219  0.1326 -0.1659  0.1202
10622PP      PP20726   6.149  14.263   2.294  0.1942  0.0683  0.0189
10623PP      PP20727   6.020   6.682   3.555 -0.0152 -0.3291  0.2023
10624PP      PP20728   3.219   5.998   9.371 -0.2277  0.2890 -0.0061
10625PP      PP20729  10.198   3.717   3.986  0.0239 -0.3597  0.2305
10626PP      PP20730  13.918   8.789   3.416 -0.1048  0.3143 -0.0799
10627PP      PP20731  11.320  13.731   4.599  0.2261  0.2119  0.1239
10628PP      PP20732  13.279   1.777   3.375  0.0720  0.2042 -0.1674
10629PP      PP20733  12.484   0.662   2.938  0.1027 -0.0070  0.0362
10630PP      PP20734   3.869  15.326  10.692 -0.2587 -0.0333 -0.1392
10631PP      PP20735   8.080   9.856  11.671 -0.0909 -0.0079 -0.2001
10632PP      PP20736  15.045  12.188  12.703  0.1507 -0.1347 -0.0679
10633PP      PP20737   7.077  14.220   8.774 -0.1523 -0.2538  0.0057
10634PP      PP20738  11.528   1.675  10.568  0.2411  0.3205 -0.0821
10635PP      PP20739  13.085  12.871   4.011 -0.0736 -0.3907 -0.2602
10636PP      PP20740  10.419   3.683  10.867 -0.1404 -0.1838 -0.2811
10637PP      PP20741   3.432   7.615   2.303 -0.2479 -0.0985  0.1601
10638PP      PP20742  13.383   3.092   1.736 -0.0200  0.1221 -0.0292
10639PP      PP20743  14.440   0.726  12.468 -0.2206  0.2570  0.2667
10640PP      PP20744  11.982  11.481   0.975  0.0269 -0.3234  0.0003
10641PP      PP20745  12.059  14.481   0.318 -0.1742 -0.0187  0.1330
10642PP      PP20746  15.506   2.399   9.989 -0.1256 -0.2380 -0.3779
10643PP      PP20747  11.555   6.718   9.232  0.3826 -0.2118  0.0329
10644PP      PP20748   3.809  15.776   3.618  0.3287  0.2153 -0.0901
10645PP      PP20749   6.108   9.060   2.454 -0.1168  0.2411 -0.1465
10646PP      PP20750   5.028   5.512   2.143  0.2195  0.2421 -0.0361
10647PP      PP20751   6.798  10.010   4.046 -0.1336 -0.0320  0.1677
10648PP      PP20752   5.313  14.500   1.816 -0.3164  0.1088 -0.0439
10649PP      PP20753  12.799   4.908  10.891 -0.0530 -0.0165 -0.3853
10650PP      PP20754   3.729   4.260   2.515 -0.1535 -0.0647 -0.0583
10651PP      PP20755   8.608  13.102   4.416 -0.2107  0.1802 -0.0105
10652PP      PP20756   6.920   9.662  12.549  0.0579  0.1272 -0.0443
10653PP      PP20757  11.851   3.204  13.115 -0.0642  0.2004 -0.5972
10654PP      PP20758   3.311   6.607  11.801  0.1150 -0.1576 -0.3907
10655PP      PP20759   3.727   5.162   0.130 -0.0818 -0.3916 -0.1152
10656PP      PP20760  11.229   8.499   3.344  0.1583  0.2705  0.1332
10657PP      PP20761   2.479  10.454  11.491  0.2599 -0.0383 -0.0995
10658PP      PP20762  15.943   6.382   1.415 -0.0655 -0.3753 -0.1145
10659PP      PP20763   5.684  11.813   8.965 -0.1383 -0.3208 -0.5027
10660PP      PP20764   0.651  15.378   1.864  0.0659 -0.0549 -0.1861
10661PP      PP20765   6.215   2.855  12.177 -0.1674 -0.0420 -0.0173
10662PP      PP20766   1.814  12.354  10.822  0.0757  0.0247 -0.2470
10663PP      PP20767  13.082   4.613  13.179 -0.1543 -0.3350 -0.4805
10664PP      PP20768   7.263  12.127  10.196 -0.0054 -0.2359 -0.0941
10665PP      PP20769   9.726   2.761   1.784 -0.0864  0.0124  0.1642
10666PP      PP20770   7.734  14.474   3.114  0.1931 -0.5127  0.1974
10667PP      PP20771  13.155   5.962   2.441  0.0520  0.0244 -0.3190
10668PP      PP20772   3.697  12.518  13.157 -0.2155 -0.0125  0.0267
10669PP      PP20773   7.586   3.263   9.214  0.0645  0.2377  0.0449
10670PP      PP20774   5.622   2.124  13.024 -0.1679 -0.2805 -0.1577
10671PP      PP20775   9.314   4.036  11.833  0.2267  0.1084 -0.0742
10672PP      PP20776   0.170  13.265  12.882  0.1127 -0.1483  0.0612
10673PP      PP20777   5.058   3.148   2.669 -0.0522 -0.2788 -0.3047
10674PP      PP20778   0.966  12.848   8.998 -0.1803 -0.1867  0.0080
10675PP      PP20779   0.763  15.650  13.019 -0.0673 -0.2570 -0.0180
10676PP      PP20780  15.413  12.554  12.660 -0.4367  0.1518 -0.0965
10677PP      PP20781   0.332  12.595   1.847  0.2778  0.0848  0.0676
10678PP      PP20782  15.084   8.990   2.109  0.0393 -0.2009 -0.0140
10679PP      PP20783   8.969   0.021  11.609  0.1966 -0.4059  0.0074
10680PP      PP20784  13.808  15.361   9.481  0.0115 -0.0320 -0.1585
10681PP      PP20785   2.344   1.393   1.247  0.1369  0.0898 -0.0643
10682PP      PP20786   2.416   8.874  11.581  0.0415  0.0566  0.0535
10683PP      PP20787   8.950  15.893   3.173 -0.0575 -0.0939  0.1692
10684PP      PP20788  10.764   2.805   3.998  0.2471 -0.3266  0.2527
10685PP      PP20789   0.725  12.008   2.551  0.1183 -0.1676 -0.2705
10686PP      PP20790   0.992   0.940  11.133  0.1765 -0.1133  0.0619
10687PP      PP20791   2.481   2.033  12.465 -0.0616 -0.2518  0.0548
10688PP      PP20792  13.593  12.795   3.853  0.2272 -0.1895  0.3321
10689PP      PP20793  12.318  14.053  10.899 -0.2191 -0.1414  0.1158
10690PP      PP20794   0.037  12.725   0.270  0.0169  0.1772 -0.1382
10691PP      PP20795  15.927  13.226  10.686  0.0977 -0.2994  0.1192
10692PP      PP20796   4.501   3.930   4.197 -0.2560  0.1446 -0.0126
10693PP      PP20797  11.766  14.070   3.503  0.4623  0.0964  0.0464
10694PP      PP20798   2.708  15.216  11.870  0.0170  0.0607  0.0187
10695PP      PP20799   7.495  10.348   3.010  0.0349  0.0539 -0.1750
10696PP      PP20800  14.619   0.069   7.715 -0.1515 -0.0991  0.0310
10697PP      PP20801   7.571  12.480   8.197  0.0514 -0.0016 -0.1502
10698PP      PP20802   1.930  12.888   1.799  0.3463 -0.0596  0.0584
10699PP      PP20803  12.257   7.416  12.465  0.3023  0.0409  0.1583
10700PP      PP20804  13.211  15.052   2.297  0.1397 -0.0238 -0.0228
10701PP      PP20805   8.441  15.869   0.692  0.1400 -0.2017 -0.2336
10702PP      PP20806   5.938  11.833   1.516 -0.2142 -0.0857  0.2626
10703PP      PP20807  13.084   0.966   0.691 -0.1499 -0.0482  0.1293
10704PP      PP20808   5.405   9.428   2.374  0.1577 -0.2649  0.0975
10705PP      PP20809   8.414   1.676  11.221 -0.3682 -0.0162 -0.1508
10706PP      PP20810  11.872   0.746   1.150  0.0818  0.1610 -0.3499
10707PP      PP20811   3.752   4.995  13.027  0.2715 -0.0728  0.1453
10708PP      PP20812  14.292   3.356   3.236 -0.0471 -0.4017 -0.3148
10709PP      PP20813   8.752  12.044   0.028 -0.0872 -0.0741  0.3009
10710PP      PP20814   9.926  12.041   3.132 -0.4337  0.0827  0.2982
10711PP      PP20815  11.301  10.397   1.275  0.3048  0.0751 -0.1181
10712PP      PP20816  15.848   2.693  10.885 -0.2782  0.0757  0.0705
10713PP      PP20817  13.288  10.695  13.112 -0.0977  0.0114 -0.2871
10714PP      PP20818   5.282   9.913   2.502  0.0653 -0.0628 -0.1719
10715PP      PP20819   3.184  13.246   3.556  0.1301  0.1476  0.2397
10716PP      PP20820  10.614  10.528  13.110  0.0172  0.0064 -0.0543
10717PP      PP20821   7.306   7.548   4.719  0.3797  0.0842  0.2163
10718PP      PP20822  11.582   5.408   1.592 -0.1781  0.1545  0.0342
10719PP      PP20823   6.517   3.686   1.869  0.2810  0.0254  0.0244
10720PP      PP20824  13.148  13.965   2.354  0.0681 -0.0270  0.2912
10721PP      PP20825  11.090   2.926   9.806 -0.0129 -0.2712  0.5201
10722PP      PP20826   6.291   2.564   2.891  0.2705  0.2985 -0.1845
10723PP      PP20827  14.081  10.560  10.543 -0.0294 -0.0752 -0.0668
10724PP      PP20828  13.584  14.253   1.835  0.1569 -0.0859  0.2826
10725PP      PP20829   0.506  14.088  11.796  0.0836 -0.1271 -0.1897
10726PP      PP20830  14.127   1.677  13.114 -0.0375  0.0369  0.0365
10727PP      PP20831   9.396   1.086   3.715 -0.1325  0.0166  0.0173
10728PP      PP20832   6.166  12.986  10.162  0.2164 -0.1006 -0.0542
10729PP      PP20833   6.441  14.145   0.993  0.1434 -0.4200 -0.1151
10730PP      PP20834  12.328   1.961  13.319  0.1788  0.0915  0.3408
10731PP      PP20835  15.428  10.425   3.808 -0.0971 -0.0348  0.0802
10732PP      PP20836   4.002  10.240   0.152 -0.0594  0.2326 -0.5361
10733PP      PP20837   9.616  12.725  11.294  0.2221 -0.0530  0.2058
10734PP      PP20838   0.602   4.500   2.359 -0.1985  0.1185  0.0670
10735PP      PP20839   9.007   3.096  10.177  0.3700  0.0383  0.0582
10736PP      PP20840   1.068   8.345   2.201 -0.0036 -0.0742 -0.0915
10737PP      PP20841  13.117  14.547   8.982  0.0719  0.2202  0.0146
10738PP      PP20842  13.227   4.029   3.643  0.1020 -0.0882 -0.1874
10739PP      PP20843   5.412   7.457   1.199 -0.2578  0.0715 -0.0856
10740PP      PP20844   3.068  10.635   3.799  0.0384  0.0483  0.0533
10741PP      PP20845   7.351   0.415  12.620 -0.1648 -0.1782  0.0313
10742PP      PP20846   5.199  12.491  13.296  0.0436 -0.2352 -0.3092
10743PP      PP20847   3.933   4.288   8.288  0.2697 -0.0849  0.2957
10744PP      PP20848   9.242  12.624   4.174  0.1514 -0.0687 -0.2786
10745PP      PP20849   5.049  15.716   9.374 -0.2168  0.0158  0.1814
10746PP      PP20850   3.800   0.257   2.487 -0.3855 -0.0037 -0.2014
10747PP      PP20851   8.487   3.926   2.337  0.0619  0.0667 -0.0184
10748PP      PP20852   1.960   3.430   0.824 -0.0673 -0.1886  0.0623
10749PP      PP20853   6.194   1.948   4.138  0.2000 -0.0069  0.2147
10750PP      PP20854   2.648   6.504  13.349 -0.1904  0.0189 -0.0657
10751PP      PP20855   3.124   4.063  12.900  0.2150 -0.0081  0.1972
10752PP      PP20856   7.895  14.801  11.693 -0.3345  0.0065 -0.0544
10753PP      PP20857   2.300   6.756  12.657 -0.0563  0.1346  0.1093
10754PP      PP20858   7.060   6.186  11.915 -0.2112  0.0561  0.0840
10755PP      PP20859   6.380   5.965  13.170 -0.2663 -0.0923 -0.0483
10756PP      PP20860  10.059   4.743   9.390 -0.4361  0.0275 -0.1242
10757PP      PP20861   5.472   1.340  10.747 -0.0014 -0.2957  0.0250
10758PP      PP20862  15.306  14.807   3.306  0.1960  0.1255  0.1480
10759PP      PP20863  14.302   9.614   2.620  0.2252 -0.2197 -0.1786
10760PP      PP20864   5.847  10.297   9.137 -0.0875 -0.2668 -0.3304
10761PP      PP20865   4.669   5.108   9.158 -0.0386  0.1182  0.4413
10762PP      PP20866  10.567   8.204   2.159  0.2744 -0.0326  0.0999
10763PP      PP20867   9.880   5.615   3.018  0.3949 -0.2084  0.3576
10764PP      PP20868  13.811   2.222   9.927  0.2504 -0.1892  0.1695
10765PP      PP20869   0.822   5.003   1.980  0.0054  0.1757 -0.0827
10766PP      PP20870  11.911  11.646   3.485 -0.0464  0.1130  0.5050
10767PP      PP20871  11.042   7.779   3.619  0.0416 -0.1658  0.1250
10768PP      PP20872  13.134   8.668  10.047 -0.1261 -0.0511  0.2697
10769PP      PP20873  12.922   3.682   3.385 -0.2102 -0.1337 -0.2925
10770PP      PP20874  13.675  14.430   4.105 -0.3316  0.1161 -0.0519
10771PP      PP20875  10.457   7.326  11.606  0.3199  0.1719  0.2794
10772PP      PP20876   5.169   2.917   8.874 -0.3169  0.0545 -0.1336
10773PP      PP20877  13.131  10.097   0.946 -0.1009  0.1472 -0.1597
10774PP      PP20878   7.351  15.163   3.435 -0.0900  0.0087 -0.0748
10775PP      PP20879  11.822   1.254   3.281  0.1364 -0.0642  0.1629
10776PP      PP20880   3.962   7.973   2.945 -0.1195  0.0407 -0.1483
10777PP      PP20881  12.906   2.256  12.131 -0.1130 -0.1889 -0.2776
10778PP      PP20882   4.154  14.016   8.179  0.3133 -0.0065 -0.0667
10779PP      PP20883   1.812   8.514   3.106  0.1445 -0.0212  0.0611
10780PP      PP20884   3.071   8.865  10.111  0.2267 -0.2497  0.0510
10781PP      PP20885  15.116  10.744   3.676  0.0110 -0.2082  0.3205
10782PP      PP20886  13.935   6.362   5.091 -0.3040 -0.1628  0.2847
10783PP      PP20887  15.595   9.614  12.200  0.0692  0.0490 -0.1790
10784PP      PP20888   6.252   4.771  11.643  0.0211  0.1686 -0.0401
10785PP      PP20889   1.746  12.125   8.324  0.0023  0.0558 -0.2181
10786PP      PP20890  15.592   4.652  10.980 -0.0450  0.1271  0.0474
10787PP      PP20891   5.653   6.934  11.187 -0.2588 -0.3049  0.0626
10788PP      PP20892   2.538   6.632   2.012 -0.1772 -0.3251  0.1414
10789PP      PP20893  11.805   7.724   3.590 -0.0655 -0.1946  0.1700
10790PP      PP20894   8.507  10.889   1.679 -0.1913  0.1134 -0.1019
10791PP      PP20895  14.639  11.726   9.951 -0.0330 -0.0456 -0.1636
10792PP      PP20896   4.108   6.748   8.508  0.0498 -0.4084 -0.1538
10793PP      PP20897  12.765   5.484  13.351  0.0639 -0.1282 -0.2321
10794PP      PP20898   1.307  12.434   2.672  0.0541 -0.3439 -0.1186
10795PP      PP20899   0.663   8.934   0.825 -0.4406 -0.0302 -0.0637
10796PP      PP20900  15.375  10.445  12.225  0.1209  0.0851  0.2616
10797PP      PP20901  15.436  13.195   1.570 -0.2553  0.3211  0.0552
10798PP      PP20902   3.110   2.971  13.045  0.3361 -0.4176  0.0224
10799PP      PP20903   3.167   1.088  12.251 -0.2910  0.1285  0.3117
10800PP      PP20904  11.722   1.108  13.396 -0.0541 -0.1869  0.0517
10801PP      PP20905  10.703   4.902  10.760 -0.2820  0.2109 -0.1196
10802PP      PP20906   8.875   1.888   3.717  0.2210 -0.1682  0.3656
10803PP      PP20907  12.099  12.147  12.847  0.1835  0.1224 -0.4235
10804PP      PP20908  11.563   3.391   3.495 -0.1789 -0.1523  0.0953
10805PP      PP20909   7.376   5.293  10.450 -0.2060  0.1820 -0.0975
10806PP      PP20910   8.890   4.465   1.675 -0.0334  0.0420 -0.1358
10807PP      PP20911  15.753  15.202  10.411 -0.0642 -0.1304 -0.1117
10808PP      PP20912   9.957   1.404   2.779  0.0418  0.3480  0.0002
10809PP      PP20913   5.934   6.745  12.624  0.0529 -0.4597  0.0844
10810PP      PP20914  12.858  12.117   3.678 -0.0409  0.0246 -0.1436
10811PP      PP20915   3.695  15.347   2.435  0.0187 -0.2250 -0.0438
10812PP      PP20916   2.295   7.541   1.755 -0.0163  0.1370 -0.1502
10813PP      PP20917   5.373  12.144   3.556  0.0916  0.0938  0.0833
10814PP      PP20918   9.731   0.607  10.753  0.2379  0.0789  0.0920
10815PP      PP20919  14.394  10.014   1.091 -0.2142  0.0064 -0.1889
10816PP      PP20920  13.663   3.387   2.042 -0.1271 -0.1991 -0.3011
10817PP      PP20921  12.468  15.626   2.588  0.0346 -0.1442 -0.2856
10818PP      PP20922   9.877   8.153  10.979 -0.1172 -0.0397 -0.0005
10819PP      PP20923   6.937   3.769   8.784 -0.0159 -0.1588 -0.0335
10820PP      PP20924   5.665  14.824   0.289  0.1294  0.2477 -0.1279
10821PP      PP20925  15.802   4.682   9.956  0.0746  0.0890 -0.0467
10822PP      PP20926  12.492  12.950   0.369 -0.1564  0.1103  0.1142
10823PP      PP20927  13.664   4.919   9.332 -0.0333 -0.3137 -0.1135
10824PP      PP20928   5.100  15.059   0.154  0.0546  0.0208  0.1111
10825PP      PP20929   5.796  13.239  12.905 -0.0444  0.0649 -0.0032
10826PP      PP20930   3.196  12.341  10.623  0.0512  0.0032 -0.0469
10827PP      PP20931   5.525   8.440  10.205 -0.0102  0.0144  0.0200
10828PP      PP20932  15.166  14.203   7.908  0.0706 -0.1327  0.0403
10829PP      PP20933   5.762   3.900   0.238  0.0388  0.1444  0.4591
10830PP      PP20934   7.323   9.188  10.867  0.1969 -0.2228  0.0267
10831PP      PP20935   7.924   1.825   2.307 -0.2244  0.0689  0.2065
10832PP      PP20936   7.036   7.450   9.597 -0.2976 -0.1681 -0.0463
10833PP      PP20937   3.453   5.718   3.309 -0.0246 -0.1392  0.1199
10834PP      PP20938   9.677  15.570   9.674 -0.2196 -0.0611  0.0212
10835PP      PP20939  11.390   7.397  11.427 -0.1594  0.2714  0.0094
10836PP      PP20940   0.255   0.719   9.679 -0.0940  0.0111  0.2566
10837PP      PP20941   4.890   8.124  11.698  0.0127 -0.0676  0.2737
10838PP      PP20942   9.799  14.440   4.230  0.0518  0.0414  0.2763
10839PP      PP20943  13.040  13.004  10.548  0.1021 -0.2109  0.0738
10840PP      PP20944   3.278  13.587   0.985  0.0871 -0.0246 -0.1703
10841PP      PP20945  10.828   1.632  11.136  0.0949  0.0885  0.2450
10842PP      PP20946   6.996   9.761   2.494  0.3775  0.0622  0.1086
10843PP      PP20947   0.883   9.624  12.545  0.1274  0.0364 -0.1569
10844PP      PP20948   4.279   0.224   2.428  0.1424  0.0145 -0.0905
10845PP      PP20949   6.307   4.295  10.749 -0.2453 -0.0854  0.1077
10846PP      PP20950   9.499   5.467  10.748 -0.2002  0.0132 -0.2936
10847PP      PP20951  10.074   3.464   3.136 -0.3117  0.1143  0.1665
10848PP      PP20952   8.775   2.170   2.481 -0.1144 -0.0491  0.0300
10849PP      PP20953  10.918   5.350  10.955 -0.4416  0.2827  0.1524
10850PP      PP20954   6.136   0.674   3.936  0.0591  0.0370 -0.0685
10851PP      PP20955  12.043   3.448   3.148 -0.1679 -0.0428 -0.0413
10852PP      PP20956   6.678   5.535   2.767  0.1488  0.0854  0.0633
10853PP      PP20957  10.325   3.807   2.313  0.2432 -0.1120 -0.0548
10854PP      PP20958   9.008  12.470  12.659  0.1922  0.0867  0.2518
10855PP      PP20959   2.982   4.010   9.723 -0.2837  0.2036  0.0868
10856PP      PP20960  11.138   2.598   3.096  0.0013 -0.3857  0.0814
10857PP      PP20961   2.468   3.533   3.889 -0.0361  0.1418  0.1778
10858PP      PP20962   6.871   1.780  12.559  0.0593  0.0574  0.2186
10859PP      PP20963   1.090   6.563   9.521 -0.0622  0.0051  0.0236
10860PP      PP20964  10.929   9.274  10.777  0.0386  0.0687  0.1093
10861PP      PP20965   6.099  10.054  10.529 -0.0022 -0.5570 -0.0206
10862PP      PP20966  12.875  15.490   3.582 -0.0472 -0.2074  0.3627
10863PP      PP20967  14.176   4.514   2.266 -0.3108  0.0630  0.0295
10864PP      PP20968  15.211  11.546  11.440  0.1669 -0.0128 -0.0589
10865PP      PP20969   7.132   9.955   0.643  0.0700  0.0064  0.0761
10866PP      PP20970  10.164  13.281   1.554  0.2937 -0.1571 -0.2331
10867PP      PP20971   8.683  14.544   1.073  0.2385  0.2056  0.0866
10868PP      PP20972   8.480   1.546   9.308  0.0618 -0.3490 -0.3661
10869PP      PP20973  11.283   4.650   8.603  0.0674 -0.1333  0.3792
10870PP      PP20974  15.796   0.551   9.345 -0.1802  0.0621  0.3175
10871PP      PP20975   1.276   8.162  10.094  0.3848 -0.0357 -0.2035
10872PP      PP20976   1.965   7.585   9.695 -0.0352  0.0597  0.3235
10873PP      PP20977   3.576   2.519   0.334 -0.0738 -0.0699  0.0444
10874PP      PP20978   6.388   0.400   1.700 -0.2845 -0.2133  0.2072
10875PP      PP20979   0.960   4.141   2.274  0.0127  0.2535  0.0242
10876PP      PP20980   2.981  14.626   9.775  0.1421 -0.1180 -0.1333
10877PP      PP20981  10.865   7.781  10.511 -0.1181 -0.1975  0.1653
10878PP      PP20982   4.010  14.535  11.531 -0.3818 -0.0226 -0.1547
10879PP      PP20983   4.091  11.973  11.020  0.0567  0.2169  0.1753
10880PP      PP20984  11.120   1.016   9.983 -0.1575  0.1631  0.0939
10881PP      PP20985  13.634   0.900   0.225  0.0793 -0.0345 -0.0937
10882PP      PP20986   1.489  10.060   3.316  0.1215 -0.1049  0.2350
10883PP      PP20987  14.844   5.596  12.506  0.0415  0.2045  0.1220
10884PP      PP20988   6.132  12.548   4.022 -0.0759  0.0593 -0.1112
10885PP      PP20989  10.037  12.762   4.805 -0.0213  0.3870 -0.0276
10886PP      PP20990   7.765   5.700   9.744 -0.4468  0.1002 -0.0244
10887PP      PP20991   7.558   2.901  10.871 -0.0655 -0.1727 -0.1219
10888PP      PP20992   8.804   0.679   3.060  0.2053  0.0257  0.3062
10889PP      PP20993   4.708   7.667   3.862 -0.2314  0.0048  0.0745
10890PP      PP20994  15.195   0.937  12.670  0.0389 -0.1244 -0.2964
10891PP      PP20995   8.031   3.850  10.605  0.0846  0.0443  0.2759
10892PP      PP20996  13.183  10.099   9.816 -0.0532 -0.0192 -0.0289
10893PP      PP20997  14.482   9.544   4.099 -0.1081  0.1896  0.2355
10894PP      PP20998   6.830   5.871  13.226  0.0179 -0.2866 -0.1994
10895PP      PP20999  14.705  11.203   9.151  0.2058 -0.0473  0.2531
10896PP      PP21000   6.363   6.744   3.200  0.0938 -0.0504 -0.2074
10897PP      PP21001   3.407  11.925   0.413  0.0955 -0.0293 -0.0568
10898PP      PP21002   8.262   8.748   8.623  0.1662 -0.0340  0.0747
10899PP      PP21003  12.020  15.925   2.338 -0.3537 -0.0868 -0.0851
10900PP      PP21004  15.091   5.216  10.782  0.0718 -0.0530  0.0774
10901PP      PP21005   0.007  15.424  11.603 -0.1386  0.0044  0.1287
10902PP      PP21006   5.819   6.000   0.659 -0.0258  0.0610  0.1925
10903PP      PP21007   6.262   6.238  10.873 -0.1609  0.1622 -0.0714
10904PP      PP21008  15.359   5.360  13.229 -0.0411  0.0376 -0.2642
10905PP      PP21009   8.116   9.618   3.077 -0.2271 -0.1438  0.1996
10906PP      PP21010  11.288   8.991  12.946  0.1416  0.2488  0.1139
10907PP      PP21011   1.162  13.974   8.686  0.3134 -0.3272 -0.3730
10908PP      PP21012  11.216   5.354  13.191 -0.4067  0.1441  0.0607
10909PP      PP21013  12.058  10.962  11.200 -0.0471 -0.2826 -0.0942
10910PP      PP21014   5.773   4.887   3.048  0.0448  0.0007 -0.2075
10911PP      PP21015   1.666   7.708   3.574  0.2924 -0.1543 -0.1734
10912PP      PP21016  11.112   9.221  11.714  0.1521 -0.0649  0.2721
10913PP      PP21017   9.605   5.361   2.153  0.0821 -0.3332  0.0674
10914PP      PP21018  10.375   3.264   2.277  0.3995  0.0674  0.4088
10915PP      PP21019  15.807   1.295   8.809 -0.1613 -0.0524  0.1616
10916PP      PP21020   7.307  15.412   8.906  0.0776  0.3146  0.0593
10917PP      PP21021   7.347  15.873   9.119  0.1707  0.1800  0.1875
10918PP      PP21022  12.447   5.848   0.570  0.0928 -0.1930 -0.1548
10919PP      PP21023   4.425  11.088   9.047  0.2458 -0.2095 -0.1124
10920PP      PP21024  10.364   6.351   3.840 -0.0065 -0.2436 -0.3543
10921PP      PP21025  10.899  15.776   2.357 -0.3191  0.1575 -0.1712
10922PP      PP21026  15.444   0.462   9.700 -0.2192  0.0211 -0.0106
10923PP      PP21027   3.405   1.890   8.603 -0.1308 -0.1099 -0.0204
10924PP      PP21028  13.876   8.146  10.857  0.1446 -0.2049 -0.1430
10925PP      PP21029   9.290   5.964   2.931  0.0361  0.1470  0.0322
10926PP      PP21030  13.858   9.900   2.498 -0.3519  0.2811 -0.0914
10927PP      PP21031   2.796  13.345  10.684  0.0633  0.0486 -0.0630
10928PP      PP21032   7.043   1.776   4.426 -0.1826  0.1748  0.3243
10929PP      PP21033  15.367   8.593   4.553  0.0303  0.0536  0.2889
10930PP      PP21034   2.857  10.904   2.145 -0.2545 -0.2884 -0.0322
10931PP      PP21035   2.615  15.123   3.379 -0.0344 -0.1290  0.0891
10932PP      PP21036   7.726   7.221  10.335  0.0034 -0.3984 -0.0464
10933PP      PP21037  14.583   3.111   9.994 -0.1037  0.1416 -0.0643
10934PP      PP21038   2.693   5.873   9.603 -0.1376 -0.1595 -0.0565
10935PP      PP21039   7.658  15.651   9.915  0.1967 -0.1219 -0.2191
10936PP      PP21040  10.292  13.600  10.113 -0.0105  0.1531 -0.1113
10937PP      PP21041  14.321   8.387  11.083 -0.0430  0.2415 -0.0137
10938PP      PP21042   0.901   7.357   4.316  0.4788 -0.2938 -0.1761
10939PP      PP21043   0.744   6.718   8.609  0.0742  0.0598  0.1987
10940PP      PP21044   0.320  14.380  10.411 -0.0968 -0.0604  0.0292
10941PP      PP21045   2.927   7.255   1.457  0.2379 -0.0358  0.1463
10942PP      PP21046   7.057   9.731   3.360 -0.4772 -0.0509  0.1172
10943PP      PP21047   1.421  11.770  12.377 -0.0693 -0.2671 -0.0819
10944PP      PP21048   6.744   3.352   2.754 -0.0209  0.0388  0.0265
10945PP      PP21049   9.250  14.182  11.759 -0.1875  0.1342  0.0610
10946PP      PP21050  10.197  14.857  12.848  0.5264 -0.4990 -0.1293
10947PP      PP21051  14.024  11.541   1.077 -0.1604 -0.1941 -0.2022
10948PP      PP21052  10.639   8.644   9.812 -0.1384  0.0600 -0.0958
10949PP      PP21053  11.073  14.713   9.502 -0.2202  0.1812 -0.0909
10950PP      PP21054   6.130  15.270   0.182 -0.0262  0.1979 -0.1099
10951PP      PP21055   6.260  11.395   4.005 -0.0082 -0.1121 -0.2638
10952PP      PP21056   1.652  11.182   3.616  0.0297 -0.3359 -0.2763
10953PP      PP21057  14.600   1.170  10.731  0.0585  0.2094 -0.3363
10954PP      PP21058  14.457   5.870  11.540 -0.0389 -0.3296  0.0414
10955PP      PP21059   5.925   7.327  11.271 -0.1487  0.0797  0.0780
10956PP      PP21060  14.465   0.783   8.362 -0.1391 -0.0933 -0.4118
10957PP      PP21061   7.036   3.190  11.538 -0.1233 -0.0850 -0.3183
10958PP      PP21062   0.518   1.250  12.007 -0.2503 -0.0967 -0.1062
10959PP      PP21063   3.148  13.528   9.738  0.0958  0.1073 -0.0402
10960PP      PP21064  12.699   5.644   9.651  0.0402 -0.1101  0.4819
10961PP      PP21065   2.478   2.017   1.636  0.0638  0.0359  0.0615
10962PP      PP21066  10.313  11.139  10.877  0.0275 -0.0207 -0.1718
10963PP      PP21067   9.540   8.936  10.597 -0.1463 -0.1614  0.1684
10964PP      PP21068   5.589   3.453   3.351 -0.0287  0.1358 -0.0062
10965PP      PP21069   8.746   6.311   1.521 -0.0019 -0.1466  0.0813
10966PP      PP21070   0.460   1.208   9.439 -0.0462 -0.1174 -0.0303
10967PP      PP21071  12.673   7.158   8.978  0.2061 -0.0745  0.0916
10968PP      PP21072   1.575  10.767  12.915 -0.1952 -0.0368  0.3311
10969PP      PP21073  12.938   4.506   8.920 -0.0691  0.1234 -0.1382
10970PP      PP21074   4.189   4.621  10.574 -0.1273  0.4054 -0.0770
10971PP      PP21075   6.851  11.342  10.209  0.1206 -0.1494  0.1785
10972PP      PP21076   9.185   7.879   1.932 -0.1663 -0.2655 -0.0994
10973PP      PP21077   2.302   6.130   4.043 -0.1556  0.5527 -0.1165
10974PP      PP21078   1.569   0.469   0.445  0.1158 -0.2042 -0.3105
10975PP      PP21079   5.855   5.020  12.383 -0.3371  0.4391  0.1139
10976PP      PP21080  11.814   3.982   1.119 -0.0860  0.5385  0.1319
10977PP      PP21081   7.324   4.857   0.656 -0.0369  0.1629  0.2066
10978PP      PP21082   0.740   3.032  11.295 -0.0120  0.1023 -0.0362
10979PP      PP21083   4.768   0.132   9.037 -0.1952 -0.3048  0.2752
10980PP      PP21084   8.365   0.499  11.113  0.1476 -0.0525  0.1631
10981PP      PP21085   2.840   1.178  12.855  0.2674  0.2391  0.1489
10982PP      PP21086  12.918  13.266  10.111  0.0118  0.0792  0.0940
10983PP      PP21087  13.239   9.930   3.770  0.0499 -0.0400 -0.1926
10984PP      PP21088   4.804  15.532  11.629 -0.0730 -0.0363 -0.0358
10985PP      PP21089   8.092   4.299   9.317 -0.0214 -0.0232  0.0672
10986PP      PP21090   0.659   5.789   9.138  0.0323  0.1784 -0.1344
10987PP      PP21091  13.292   6.531   9.110 -0.0188  0.2891 -0.1524
10988PP      PP21092  14.745   9.187  11.053 -0.2791 -0.0778  0.0064
10989PP      PP21093  11.515  15.320  10.952 -0.0430  0.1236  0.0222
10990PP      PP21094  15.472   7.529   0.111 -0.1664  0.1399  0.1175
10991PP      PP21095   4.402   1.759   1.993 -0.1303 -0.0345 -0.0822
10992PP      PP21096   9.104  12.459  11.231  0.0996  0.0391  0.1386
10993PP      PP21097   5.764   2.760  11.738  0.0103 -0.0909 -0.1914
10994PP      PP21098   8.464   4.072   3.425 -0.2468  0.0659  0.1228
10995PP      PP21099   2.011   6.576   2.079  0.0757 -0.2982  0.1295
10996PP      PP21100   1.765   3.665   4.582 -0.0035  0.0870 -0.1993
10997PP      PP21101  11.863   2.082  12.214 -0.1816 -0.0067  0.2152
10998PP      PP21102  10.638  15.405   0.526 -0.0279 -0.0720 -0.0137
10999PP      PP21103   6.417  11.419  10.387  0.1032  0.0810 -0.1334
11000PP      PP21104   9.504   3.701  12.185  0.1402  0.0855  0.1083
11001PP      PP21105   6.015   8.577  12.177  0.0698 -0.1341  0.0606
11002PP      PP21106   6.583  11.596   0.985 -0.1882 -0.0313  0.1551
11003PP      PP21107   3.533   6.078   2.451  0.1471 -0.1503  0.0535
11004PP      PP21108  15.290  10.364   1.461  0.0669 -0.0791  0.1140
11005PP      PP21109   7.043   9.324   0.514 -0.1560  0.2262 -0.0582
11006PP      PP21110   5.495   2.540   1.771  0.2438 -0.1537  0.0972
11007PP      PP21111   6.932  10.747   4.213 -0.0703 -0.2438 -0.2061
11008PP      PP21112   7.107   5.095  12.819  0.0839 -0.3505  0.1916
11009PP      PP21113  14.056   7.908   3.779 -0.0289  0.2424 -0.1313
11010PP      PP21114   4.423   7.412   2.571  0.1834  0.0651  0.0432
11011PP      PP21115  14.149  12.476   0.415 -0.0925  0.1378 -0.1314
11012PP      PP21116  14.396   8.868  11.145 -0.2868  0.1214 -0.1563
11013PP      PP21117   6.750   6.896  12.305  0.1743 -0.5699  0.1745
11014PP      PP21118   3.637   4.659  10.469  0.1376 -0.5049 -0.0320
11015PP      PP21119  11.479   4.603  10.228 -0.2178  0.1128  0.1852
11016PP      PP21120   5.485   6.700  12.364  0.2878 -0.1340 -0.2010
11017PP      PP21121  13.449   9.498  11.716 -0.2556  0.0432 -0.2100
11018PP      PP21122   0.120  15.521  12.337 -0.3593 -0.1503  0.4176
11019PP      PP21123  12.920   3.316  10.033 -0.2125 -0.1342 -0.0225
11020PP      PP21124   3.660  14.363   2.520 -0.0561 -0.3401  0.1478
11021PP      PP21125   0.254   4.685  10.595  0.0141  0.3599 -0.0464
11022PP      PP21126  10.300  10.549   4.413 -0.2928 -0.1455 -0.3100
11023PP      PP21127  11.669  10.950  10.814 -0.2099 -0.0862 -0.0812
11024PP      PP21128   4.830   3.418  10.350 -0.0224  0.0887  0.0983
11025PP      PP21129   1.362   4.444   3.849  0.0983 -0.0245 -0.0470
11026PP      PP21130  14.580  13.642   3.197  0.1766 -0.0590 -0.2347
11027PP      PP21131   7.285  13.200   0.345 -0.0947 -0.0512 -0.0210
11028PP      PP21132   5.316   3.583  11.006 -0.1439  0.0574 -0.1387
11029PP      PP21133  11.606  10.687   0.179  0.2039 -0.2222 -0.1438
11030PP      PP21134   8.498   4.168  13.024  0.1357  0.1318  0.0375
11031PP      PP21135   8.927  14.907  11.251  0.0853 -0.0546  0.2854
11032PP      PP21136  14.668   5.825   2.529  0.0325 -0.0133 -0.1747
11033PP      PP21137  11.414  14.078  11.875  0.0959 -0.2030  0.0277
11034PP      PP21138  12.800  11.762   2.367 -0.0423 -0.0719  0.1571
11035PP      PP21139   1.299   6.062  11.073 -0.0960 -0.0236  0.0356
11036PP      PP21140  12.098   6.191   1.436 -0.1936 -0.0857  0.2357
11037PP      PP21141  13.340  13.673   4.838 -0.0178  0.0603  0.1478
11038PP      PP21142   3.536  10.962   0.861  0.1155 -0.3986 -0.0806
11039PP      PP21143  10.016   5.607   2.164  0.1226  0.0485  0.1903
11040PP      PP21144  13.892   4.914   2.354  0.0229  0.1787 -0.1443
11041PP      PP21145  12.065  13.727  11.315 -0.1099 -0.4620 -0.2120
11042PP      PP21146  14.874  13.977  10.627 -0.2802 -0.0045 -0.1933
11043PP      PP21147  13.993   3.996  11.207  0.1550 -0.0343  0.0616
11044PP      PP21148   9.273   5.331   9.894  0.3247  0.1370  0.4394
11045PP      PP21149  13.617  15.247  10.503  0.0907  0.0553  0.0145
11046PP      PP21150   3.808   3.366  11.134 -0.0532  0.2608  0.1629
11047PP      PP21151   8.993  15.634   2.731 -0.2728  0.1225  0.0768
11048PP      PP21152   6.645  12.441   0.320  0.2029 -0.0001  0.1562
11049PP      PP21153   9.851  14.335   2.631  0.0731  0.0498 -0.1138
11050PP      PP21154  14.297  15.021  10.115 -0.1260 -0.1136  0.1426
11051PP      PP21155   5.706   3.553  13.283  0.1069 -0.1226 -0.0972
11052PP      PP21156   8.456   2.166   3.686  0.0133 -0.1288 -0.1826
11053PP      PP21157   1.486   9.305   3.082 -0.0400 -0.1660  0.2923
11054PP      PP21158   9.826  12.666  10.304  0.2272  0.3505 -0.0903
11055PP      PP21159   8.787   4.246   0.329  0.0602 -0.1502  0.1457
11056PP      PP21160   5.458  11.136  12.937 -0.2441  0.1687  0.0467
11057PP      PP21161  11.460   0.011   1.184 -0.0971  0.2103  0.0976
11058PP      PP21162   7.937   9.646   0.157  0.2256  0.1604  0.0891
11059PP      PP21163   6.011   8.341  10.283 -0.1856 -0.1152  0.0773
11060PP      PP21164   2.920   5.300   4.906 -0.0496 -0.2203 -0.1076
11061PP      PP21165  12.196  12.588   9.921 -0.0728 -0.1358 -0.1552
11062PP      PP21166   6.239  15.432   4.314  0.1379  0.1827  0.0873
11063PP      PP21167   4.500  13.610   2.613 -0.1528  0.0212 -0.2482
11064PP      PP21168   1.438   4.117   9.322  0.1053  0.2013 -0.0182
11065PP      PP21169   0.358  12.318  12.790  0.1305  0.0678 -0.2885
11066PP      PP21170   5.688  10.448   0.190 -0.0174  0.0124  0.1498
11067PP      PP21171   5.665  11.327   0.739 -0.2984 -0.2029 -0.2772
11068PP      PP21172   6.746  12.666   8.540  0.1118  0.0344 -0.2424
11069PP      PP21173  12.841  15.611   5.029 -0.0763 -0.1441  0.1612
11070PP      PP21174  13.650   6.291   0.650 -0.0098 -0.0073 -0.2771
11071PP      PP21175   1.760  12.893  11.482  0.4455  0.1939  0.1260
11072PP      PP21176   0.362   2.578  10.534 -0.1851 -0.0310 -0.1438
11073PP      PP21177   4.717  14.769   0.206  0.0972  0.0458 -0.0914
11074PP      PP21178   2.362  10.575   4.062 -0.1145  0.2841 -0.1017
11075PP      PP21179  10.264  12.032   2.150 -0.0051 -0.0750  0.1527
11076PP      PP21180   7.896   2.849   9.796 -0.0985 -0.0870  0.2464
11077PP      PP21181  11.349   4.189  10.603 -0.0125 -0.2028  0.1918
11078PP      PP21182   9.856  15.867   3.560 -0.3700 -0.0485 -0.0803
11079PP      PP21183  13.510  15.044   9.775 -0.1543  0.1544 -0.0335
11080PP      PP21184  13.012   6.549  12.998  0.0443  0.1217 -0.0015
11081PP      PP21185   4.348  12.195   9.286  0.0746 -0.0206 -0.0720
11082PP      PP21186   0.935  14.524  11.171 -0.2776 -0.2285 -0.1302
11083PP      PP21187   6.594   6.826  11.513 -0.2203  0.0811 -0.0153
11084PP      PP21188   7.230   3.482  11.951  0.0015 -0.2246  0.0768
11085PP      PP21189   2.822   7.131   0.973 -0.2061  0.2328  0.1364
11086PP      PP21190   4.981   4.082  13.113 -0.1754 -0.0387  0.2226
11087PP      PP21191  13.879   2.171  13.050  0.0189 -0.4287 -0.3729
11088PP      PP21192   5.572   8.263   4.739 -0.0952 -0.0929 -0.1648
11089PP      PP21193   4.217   8.892   1.371 -0.4473  0.0219 -0.0283
11090PP      PP21194   4.586   7.650   0.152  0.3571  0.0289 -0.1946
11091PP      PP21195   7.561   1.849   3.633  0.0161  0.0228  0.0109
11092PP      PP21196  15.274   7.421   3.178  0.0842  0.3346  0.2114
11093PP      PP21197  13.201   2.775  10.788 -0.1388  0.0352 -0.1598
11094PP      PP21198  13.604   2.556  10.933  0.1181  0.2918 -0.0146
11095PP      PP21199   1.573  15.632   1.162  0.0862 -0.1614  0.1615
11096PP      PP21200  11.688  10.057   0.401 -0.0289  0.5251  0.2177
11097PP      PP21201   9.497  13.338   2.084  0.2987  0.0037 -0.3177
11098PP      PP21202   5.320  14.320  12.498 -0.2754 -0.1688  0.0666
11099PP      PP21203  13.235   9.460  13.128  0.0204  0.0395  0.0080
11100PP      PP21204   0.998   3.495  12.084  0.0788 -0.1219 -0.1320
11101PP      PP21205   1.183   2.632  10.660  0.0567  0.2531 -0.1591
11102PP      PP21206   2.818  11.469  11.963  0.2009 -0.1633 -0.1114
11103PP      PP21207  14.100  15.261   0.188 -0.1116  0.2837  0.1939
11104PP      PP21208  13.416   3.560   3.562  0.1818 -0.2840  0.2693
11105PP      PP21209  13.485   1.343  11.675 -0.0265  0.1648 -0.0281
11106PP      PP21210  15.250   6.234   1.144  0.2320 -0.0703  0.0523
11107PP      PP21211   9.697  14.409  10.333 -0.1877 -0.1643 -0.1751
11108PP      PP21212  13.129   7.101  13.017  0.0945  0.1322 -0.0356
11109PP      PP21213  12.605  11.070  12.243  0.1935 -0.2664 -0.2710
11110PP      PP21214   5.751   9.312  11.113  0.2406 -0.2011 -0.0322
11111PP      PP21215   1.501  14.359   2.641 -0.1387 -0.0043 -0.1041
11112PP      PP21216   5.506   8.619   0.232 -0.0364 -0.3157  0.1620
11113PP      PP21217   0.471   3.945  10.962 -0.1356  0.2522 -0.0442
11114PP      PP21218  13.252  14.865  10.670  0.0920  0.2383  0.2885
11115PP      PP21219  10.536  13.959   4.444 -0.1079  0.1647  0.0709
11116PP      PP21220  10.272   8.998  13.354  0.0195  0.0901 -0.1914
11117PP      PP21221   8.509  14.253   2.364  0.2364  0.0469  0.2277
11118PP      PP21222   8.709   8.362   5.111  0.0523  0.0977 -0.1949
11119PP      PP21223  12.361  10.882   4.903 -0.0414  0.0577  0.1002
11120PP      PP21224   9.034   5.549  10.827 -0.1821 -0.0577 -0.0601
11121PP      PP21225   8.382   0.662  11.918 -0.0552 -0.4087  0.2643
11122PP      PP21226  11.889   5.047   9.464  0.0586  0.3460 -0.0756
11123PP      PP21227   0.765  15.457  10.506 -0.5831 -0.0413  0.1060
11124PP      PP21228   8.620  11.100   3.579  0.1921 -0.0544  0.2687
11125PP      PP21229   5.703  11.033   0.125  0.0981 -0.0435  0.0943
11126PP      PP21230  14.396   1.709   9.101 -0.3000 -0.2364  0.0378
11127PP      PP21231  12.882  15.282  10.039  0.0167 -0.1971  0.0167
11128PP      PP21232   1.802   4.600   2.274 -0.0473  0.0366 -0.2502
11129PP      PP21233   4.437   8.508   0.347 -0.1094  0.3290  0.2348
11130PP      PP21234   4.110   1.423  10.626 -0.2490 -0.1441 -0.0720
11131PP      PP21235  15.643   7.000  13.301 -0.0011  0.3618  0.0630
11132PP      PP21236  10.689   3.917  11.734 -0.0394 -0.0189  0.1300
11133PP      PP21237   3.304  14.372   8.862 -0.2677 -0.0662 -0.0281
11134PP      PP21238   2.308  11.899   4.049  0.0291 -0.2058 -0.2195
11135PP      PP21239  13.210   6.836  10.077 -0.0713 -0.0999  0.1014
11136PP      PP21240   8.376   8.793   2.796  0.1583  0.0744  0.1263
11137PP      PP21241  15.623  14.270   1.934 -0.0885 -0.1205  0.1381
11138PP      PP21242  13.144   9.457   0.183 -0.1515 -0.4814 -0.1582
11139PP      PP21243   3.736   5.181   2.818  0.1091  0.0405 -0.1529
11140PP      PP21244   0.448   0.278   3.259  0.1598 -0.0550 -0.0204
11141PP      PP21245   6.295   3.425  12.180  0.1919  0.0798  0.0279
11142PP      PP21246  11.791   1.104   2.353  0.0691 -0.3227 -0.2886
11143PP      PP21247   2.389  13.902  12.979  0.0924  0.1259  0.0449
11144PP      PP21248   7.978  12.198  11.991 -0.0873 -0.0245  0.0701
11145PP      PP21249   5.143   5.535   2.804  0.1105 -0.0283  0.3303
11146PP      PP21250   3.115   7.800   1.786 -0.3296 -0.1607  0.1717
11147PP      PP21251   8.029  11.004  12.577  0.3128 -0.0759 -0.4362
11148PP      PP21252   9.195   5.070  10.733  0.2445 -0.0219  0.0128
11149PP      PP21253  12.861   4.006   2.976 -0.2209  0.0580  0.0034
11150PP      PP21254   7.635  12.974   1.527 -0.0863 -0.2145  0.3428
11151PP      PP21255   1.911  10.589   1.388  0.2665 -0.2400  0.2451
11152PP      PP21256   2.421   3.785   3.408 -0.1667 -0.0448  0.3095
11153PP      PP21257   7.706   7.905   4.481 -0.3067  0.2961  0.2993
11154PP      PP21258   3.883  11.387   0.981 -0.2845  0.0767 -0.1089
11155PP      PP21259   2.521   1.743   0.049  0.1867 -0.1866  0.1636
11156PP      PP21260   3.112   1.206  10.196  0.2267 -0.1117 -0.2747
11157PP      PP21261   5.827  13.400   4.021  0.0887 -0.3095  0.0111
11158PP      PP21262   3.329  14.331  13.312  0.2767 -0.2079  0.0180
11159PP      PP21263   8.270   2.658   1.561 -0.0055  0.1378  0.2537
11160PP      PP21264  11.999   4.248  11.338  0.2055  0.0668 -0.1306
11161PP      PP21265   9.233   9.507   9.310 -0.0218  0.2310  0.1950
11162PP      PP21266   3.660   7.248  10.290 -0.2055 -0.0705  0.2690
11163PP      PP21267  12.271  11.949   4.420 -0.3020  0.1359  0.0907
11164PP      PP21268  10.608   7.570  10.924  0.2012  0.1313 -0.0122
11165PP      PP21269  15.407  14.476   0.008  0.0258  0.1940  0.0127
11166PP      PP21270  12.524   5.625   2.047 -0.1926  0.2180  0.1489
11167PP      PP21271   7.447   0.645  12.172  0.3386  0.2635  0.1019
11168PP      PP21272  11.409   0.018   2.957 -0.3008  0.0368  0.0919
11169PP      PP21273   8.725   9.602   9.731  0.0321 -0.2000 -0.0550
11170PP      PP21274   8.294  14.394   9.726  0.1237  0.2514 -0.1058
11171PP      PP21275   6.863   6.095  10.385 -0.1017 -0.0257 -0.0078
11172PP      PP21276  13.230  15.885  10.082 -0.3609  0.0146  0.0065
11173PP      PP21277   5.627  10.472   9.537  0.2136 -0.1406 -0.3798
11174PP      PP21278  12.297   2.976   3.772  0.0914  0.0606  0.0313
11175PP      PP21279   2.526   5.868   3.305  0.0729  0.1662 -0.2220
11176PP      PP21280   3.756  13.940  13.136  0.1308 -0.1140  0.0928
11177PP      PP21281  15.015  15.476   2.927 -0.3139 -0.0070 -0.4640
11178PP      PP21282  15.848  10.435   9.863 -0.0017 -0.1262  0.0101
11179PP      PP21283   1.837  14.887  11.188 -0.0454  0.0260  0.1301
11180PP      PP21284   8.929   9.310   2.077 -0.3069 -0.0831  0.0879
11181PP      PP21285  10.741   8.365   2.713 -0.2100 -0.2506  0.0940
11182PP      PP21286  11.224   0.731   1.845 -0.0703 -0.3756 -0.1031
11183PP      PP21287   5.063   3.742  11.439  0.0202 -0.3359  0.3498
11184PP      PP21288   4.320   9.509   9.641  0.1429  0.2582  0.1142
11185PP      PP21289  11.179  15.144   3.016  0.1211 -0.0551 -0.0841
11186PP      PP21290  15.706  11.325   1.661  0.1726 -0.2376  0.0788
11187PP      PP21291  12.438   7.711   4.055  0.0286 -0.2391 -0.0437
11188PP      PP21292   3.829  12.686   3.315  0.4350 -0.3130 -0.0202
11189PP      PP21293   3.628  14.051   9.082 -0.1800 -0.1295  0.1999
11190PP      PP21294   3.835   4.978   4.546 -0.4733  0.2054  0.1178
11191PP      PP21295  13.514   1.804  12.587 -0.0094  0.1734  0.1310
11192PP      PP21296   9.156   5.280   1.969 -0.2795 -0.0943 -0.2491
11193PP      PP21297   7.782   4.391   2.950  0.4984  0.2240  0.0016
11194PP      PP21298  11.223   6.100   2.792 -0.1000  0.3359 -0.2012
11195PP      PP21299   7.625   9.873  11.813 -0.1892  0.4795 -0.2614
11196PP      PP21300   9.244  13.796   3.091  0.2393 -0.0820 -0.1783
11197PP      PP21301   0.372  10.159   9.795  0.1179  0.1111 -0.2479
11198PP      PP21302   1.952   0.646  11.565  0.1995 -0.1237  0.4055
11199PP      PP21303   9.540   0.341  11.155  0.0602 -0.1189  0.0616
11200PP      PP21304   1.265   8.813   4.456 -0.1237  0.3037  0.1805
11201PP      PP21305  13.116   5.472   0.933 -0.0317  0.1057  0.3091
11202PP      PP21306  13.847  15.896   9.171  0.1301  0.0068 -0.1967
11203PP      PP21307   0.908  12.163  13.378 -0.1185 -0.1633  0.0293
11204PP      PP21308   0.718   9.176  12.275 -0.0152 -0.0589 -0.0848
11205PP      PP21309  11.342   4.548   2.767  0.0876 -0.0660  0.0040
11206PP      PP21310  13.984   7.446   0.563 -0.1335 -0.2726 -0.1055
11207PP      PP21311  13.608   9.730   2.032  0.1397 -0.3149  0.1030
11208PP      PP21312   3.238   5.570  11.614  0.0233 -0.1903 -0.2423
11209PP      PP21313  10.635   9.572  11.662 -0.0704  0.0394 -0.2443
11210PP      PP21314  10.930   8.618  11.899  0.2250 -0.0413  0.0818
11211PP      PP21315  11.459   1.138   4.465  0.0897 -0.1503 -0.0347
11212PP      PP21316  10.683   6.012  11.615  0.1446  0.3007 -0.1526
11213PP      PP21317  12.367  13.873   0.613  0.0113  0.2719  0.1012
11214PP      PP21318   8.295  10.272   9.714 -0.0974 -0.3007 -0.0134
11215PP      PP21319   9.631   7.119   0.804 -0.4001  0.1228 -0.2616
11216PP      PP21320   5.331   7.758   2.235 -0.1625 -0.2325 -0.2415
11217PP      PP21321   7.438   6.787  12.631  0.1612  0.0192  0.2632
11218PP      PP21322   3.088  12.598   2.308 -0.1414 -0.0308 -0.1074
11219PP      PP21323   4.229   2.020   2.812 -0.1863  0.2002  0.1720
11220PP      PP21324   9.043   1.827   4.205 -0.1560  0.1296  0.0181
11221PP      PP21325   0.503  14.895   0.465 -0.1634 -0.2081  0.1884
11222PP      PP21326  11.740  11.387   1.683  0.1013  0.1222 -0.1969
11223PP      PP21327   7.309  13.181   2.696  0.0912 -0.1546  0.2221
11224PP      PP21328  11.308  14.850   9.083  0.0273 -0.1472 -0.2795
11225PP      PP21329   0.037  12.529   9.407 -0.2305  0.4787 -0.5803
11226PP      PP21330   9.225   3.474  11.031  0.1620 -0.3755  0.0758
11227PP      PP21331   2.057   5.871  10.163  0.1653 -0.0539  0.2505
11228PP      PP21332   7.053   5.139   3.621  0.0112  0.1624 -0.2867
11229PP      PP21333   1.450   2.234   9.621  0.1304  0.2978 -0.1007
11230PP      PP21334  14.967   5.960  11.707  0.2282  0.3101 -0.1770
11231PP      PP21335   8.820   9.810   2.057 -0.0435  0.0652  0.0425
11232PP      PP21336   7.282   2.156  12.187 -0.1354 -0.4646 -0.0407
11233PP      PP21337   5.245   6.320   3.050  0.1437 -0.4448  0.0001
11234PP      PP21338  13.406   9.900   9.364 -0.2232  0.1412  0.0742
11235PP      PP21339   2.791   9.311   1.391  0.2758 -0.2226  0.1272
11236PP      PP21340   3.798  13.858   3.590  0.0196  0.0444  0.0433
11237PP      PP21341   2.364   7.627  10.098  0.0143 -0.2878  0.1375
11238PP      PP21342   3.794  14.825  12.587  0.2832  0.1267  0.2184
11239PP      PP21343   5.894   7.207  13.174  0.0103  0.0773  0.1451
11240PP      PP21344   4.832   9.646   2.028 -0.0478 -0.0820  0.0431
11241PP      PP21345   4.264   7.529   3.075  0.2661  0.0375  0.1562
11242PP      PP21346   1.743   0.623  10.572 -0.0467 -0.0634 -0.0566
11243PP      PP21347   6.513  15.351  12.164  0.1433  0.2158  0.2226
11244PP      PP21348   6.969   3.124   1.405 -0.1123 -0.1294  0.0270
11245PP      PP21349   4.386   3.657   2.011 -0.0376  0.0701  0.2612
11246PP      PP21350   9.811   8.199   9.438  0.2209 -0.0364 -0.0683
11247PP      PP21351   7.772   5.644   2.951 -0.1516  0.0781 -0.1678
11248PP      PP21352   3.611   0.746  13.181  0.1508  0.0612  0.1124
11249PP      PP21353   9.882   2.292  11.187  0.0327  0.0221  0.1966
11250PP      PP21354   9.397   4.634   1.644  0.0439 -0.0728 -0.1953
11251PP      PP21355  12.462   2.043   1.079  0.0397 -0.2311  0.2846
11252PP      PP21356   9.233  11.527  12.760 -0.3585  0.0025 -0.0881
11253PP      PP21357   3.755   9.844  11.604 -0.3118 -0.1735 -0.0520
11254PP      PP21358  11.114  10.754  10.312 -0.0265 -0.1455 -0.1062
11255PP      PP21359   9.882   1.255   8.746 -0.2498  0.2782 -0.1937
11256PP      PP21360   4.277   2.078   0.923  0.0360  0.1148 -0.1791
11257PP      PP21361   0.084   7.729  12.636  0.2630  0.1506  0.0288
11258PP      PP21362   9.565  11.064   2.006  0.1513  0.1311 -0.0413
11259PP      PP21363   3.538   5.968   9.817 -0.1624 -0.0374  0.3005
11260PP      PP21364  10.838  12.039   9.468 -0.0964 -0.2569 -0.1868
11261PP      PP21365  13.495   5.508  13.232  0.1350  0.2950  0.1859
11262PP      PP21366   6.365  14.193  12.593 -0.0615  0.0761  0.0004
11263PP      PP21367   1.503  11.100   2.710  0.1044  0.0664  0.0693
11264PP      PP21368  10.549  11.270  12.185 -0.0651 -0.0160 -0.2758
11265PP      PP21369  11.707   3.657   3.944  0.0254 -0.5881  0.1016
11266PP      PP21370  12.693   1.629  11.102  0.3234  0.0195  0.2330
11267PP      PP21371  10.944   9.986  13.343  0.2773 -0.2177  0.1656
11268PP      PP21372  12.959   6.444   2.481 -0.0435 -0.2239  0.3201
11269PP      PP21373   5.386  14.824  12.695  0.0322 -0.1520  0.2187
11270PP      PP21374   3.907   3.727  11.904 -0.2254 -0.0619 -0.0433
11271PP      PP21375  15.426   1.868   1.230  0.0189 -0.1723 -0.6761
11272PP      PP21376   5.792   3.916   2.446 -0.1188 -0.1355 -0.0167
11273PP      PP21377  13.202   1.160   1.142  0.1176  0.0793  0.3067
11274PP      PP21378  13.599   1.414   3.736  0.4319  0.2704  0.2935
11275PP      PP21379  10.963   3.340  13.177  0.2138  0.1805 -0.1590
11276PP      PP21380  14.433   5.101  13.316 -0.2249 -0.2984  0.1941
11277PP      PP21381  10.523  11.491   3.615 -0.0881 -0.2027 -0.1055
11278PP      PP21382   8.269   0.698   0.096 -0.2150 -0.1357 -0.1486
11279PP      PP21383   2.555   4.105  12.802 -0.3062  0.1926  0.0498
11280PP      PP21384  14.449   3.122   0.950 -0.0350 -0.1679 -0.0833
11281PP      PP21385   1.994   7.385   3.860 -0.0858  0.2250  0.1072
11282PP      PP21386   9.497   0.594   2.670 -0.0773 -0.0220 -0.1349
11283PP      PP21387   0.003   5.118   0.960  0.0111  0.1133  0.1126
11284PP      PP21388   0.396   7.669   4.606 -0.0777  0.1933  0.2108
11285PP      PP21389  13.000   4.651  10.471  0.1040  0.0005 -0.0220
11286PP      PP21390  12.159   2.704  13.143  0.2815 -0.0989  0.2811
11287PP      PP21391  10.920  13.508   3.700 -0.0733 -0.3048  0.0775
11288PP      PP21392  12.865   3.165  10.674 -0.1255 -0.2082  0.3156
11289PP      PP21393  13.034   7.198  11.899  0.0960 -0.0003 -0.1195
11290PP      PP21394  11.385   8.162   1.132  0.0085 -0.1475 -0.3348
11291PP      PP21395  11.862   5.385   9.090 -0.1008 -0.3262 -0.0084
11292PP      PP21396   1.535   1.714   2.835 -0.7075  0.0853 -0.0011
11293PP      PP21397  14.540   8.048   3.624  0.3798  0.1521 -0.0858
11294PP      PP21398  15.435  15.479  13.314 -0.1065  0.0769 -0.0127
11295PP      PP21399  10.117  10.615   1.467  0.2135 -0.2636  0.0859
11296PP      PP21400  12.266  11.430   3.020  0.4321 -0.0992  0.0256
11297PP      PP21401   5.540   9.993   0.250 -0.0109  0.2208  0.1342
11298PP      PP21402   1.473   3.980   2.828  0.2377  0.1406 -0.1735
11299PP      PP21403   1.037   5.453  13.010 -0.2270 -0.0690  0.0120
11300PP      PP21404   4.632   6.511   9.632  0.0583 -0.0483  0.2236
11301PP      PP21405  15.249   9.435   3.675 -0.1084  0.0247  0.0584
11302PP      PP21406   7.668  10.398   1.320 -0.0287 -0.2500 -0.1225
11303PP      PP21407   8.840   1.592  11.576 -0.1186  0.1057 -0.2809
11304PP      PP21408  12.912   8.240   2.780  0.0209 -0.2080  0.1260
11305PP      PP21409   9.792  10.853  12.226 -0.2904 -0.0197 -0.1528
11306PP      PP21410  11.455   0.428   8.536  0.4109 -0.1053  0.0186
11307PP      PP21411   8.725   7.485  12.814 -0.0437 -0.0240  0.0203
11308PP      PP21412   8.395   8.338   1.230  0.2083 -0.2010  0.1143
11309PP      PP21413   7.694   6.802   2.178 -0.1813  0.0000  0.0129
11310PP      PP21414  11.233   3.646  12.573  0.0881 -0.0705 -0.2463
11311PP      PP21415  10.451  12.207  13.126 -0.0769 -0.0843 -0.0312
11312PP      PP21416  13.832  12.274  10.878 -0.0699  0.2806  0.2256
11313PP      PP21417   9.591  10.400   9.069 -0.1212  0.3907 -0.1500
11314PP      PP21418  10.781   8.721   1.520 -0.0111  0.1306  0.1259
11315PP      PP21419  11.474   4.226   4.427 -0.3347  0.3271  0.1835
11316PP      PP21420  15.773  11.464  11.694  0.3829 -0.0938  0.0832
11317PP      PP21421   0.589   8.959   3.235  0.1824  0.5010 -0.0223
11318PP      PP21422  12.210   5.482   8.730 -0.2151 -0.1294  0.3554
11319PP      PP21423   5.972   9.925  10.002 -0.1809  0.1079  0.0822
11320PP      PP21424  12.935   4.499  12.743 -0.1425  0.0513  0.0887
11321PP      PP21425   3.605  10.041  13.225 -0.1308 -0.3830  0.1846
11322PP      PP21426   3.525   2.408  10.168  0.1778 -0.1422  0.1200
11323PP      PP21427   0.999  14.843   3.060 -0.1877 -0.0173  0.1108
11324PP      PP21428   0.425   3.611   9.284 -0.2081 -0.1937 -0.1327
11325PP      PP21429  12.897  15.364  11.283 -0.0794  0.5759  0.0421
11326PP      PP21430  11.152   5.566   3.720 -0.1341  0.0926 -0.0714
11327PP      PP21431   9.509  13.020   3.331  0.4340 -0.0113  0.1605
11328PP      PP21432  13.406  15.094   0.166 -0.0517  0.2230  0.1233
11329PP      PP21433   3.448  13.542  11.551  0.0610 -0.0048  0.1620
11330PP      PP21434  12.432  15.844   4.104  0.1768 -0.2833 -0.0283
11331PP      PP21435  12.596  14.394  12.358  0.1945  0.1289  0.1319
11332PP      PP21436   7.870   1.463  12.379  0.1514  0.3404  0.0208
11333PP      PP21437  13.050   8.987  13.279 -0.1142  0.4293  0.3394
11334PP      PP21438  11.781   0.618  11.212 -0.0702 -0.0893  0.2155
11335PP      PP21439   0.480   2.184  12.405 -0.0417 -0.1167  0.1215
11336PP      PP21440  10.942   7.895   4.171 -0.1059  0.1622  0.2479
11337PP      PP21441   4.609   9.862   1.320  0.1782  0.1166 -0.2871
11338PP      PP21442   0.539   7.263  12.700  0.0333 -0.1365  0.1304
11339PP      PP21443   3.902   8.661  13.109 -0.0379 -0.0877 -0.1118
11340PP      PP21444   3.197  12.809   8.647 -0.1567  0.3561 -0.1753
11341PP      PP21445   3.951  10.003   9.583 -0.2583 -0.0214 -0.0222
11342PP      PP21446   4.728  13.299   8.655  0.2493 -0.1548 -0.0459
11343PP      PP21447  14.397  10.583   3.112  0.0994  0.1441  0.1994
11344PP      PP21448  11.620   4.581  11.016 -0.4670 -0.1481  0.2746
11345PP      PP21449   0.316   7.533   1.276  0.4324 -0.0613 -0.0661
11346PP      PP21450  12.402   1.587  10.246  0.2954  0.0424 -0.1411
11347PP      PP21451   8.247  13.488  10.169  0.1712 -0.1429  0.1326
11348PP      PP21452  15.294   4.079   8.286 -0.0200  0.2123 -0.3867
11349PP      PP21453   1.358   3.558  11.756  0.1457 -0.0494 -0.3621
11350PP      PP21454  12.509  14.582  13.373  0.1553 -0.1086  0.2296
11351PP      PP21455  10.428  11.987  10.817 -0.0168 -0.0589  0.1626
11352PP      PP21456   8.008   7.489  10.613 -0.1974 -0.0222  0.0366
11353PP      PP21457  13.096  15.054  13.101  0.0336  0.0497 -0.2878
11354PP      PP21458   7.499  15.028   0.383 -0.0452 -0.2291  0.1673
11355PP      PP21459  11.293  14.463  12.500  0.1304 -0.2000  0.2826
11356PP      PP21460   8.130  12.119  11.237  0.1273 -0.1905 -0.0465
11357PP      PP21461   5.495   1.857  11.523  0.1219 -0.0549 -0.1118
11358PP      PP21462   7.823   4.152   2.283  0.1451  0.0472 -0.0513
11359PP      PP21463   4.652   0.675   0.897  0.2538  0.2208  0.2017
11360PP      PP21464   7.782   0.788   1.262 -0.0844  0.3692  0.1147
11361PP      PP21465  10.986  11.416   1.381  0.0825  0.1082 -0.1008
11362PP      PP21466  11.360   0.708   9.625 -0.0126 -0.0593  0.1981
11363PP      PP21467   5.424  11.214   8.054 -0.0665  0.0407  0.1952
11364PP      PP21468   5.197  11.441   9.776  0.1716 -0.0274  0.4130
11365PP      PP21469   5.420   2.202   3.072 -0.0821  0.1806  0.1714
11366PP      PP21470  15.044   9.393   1.776  0.1773 -0.0227 -0.0910
11367PP      PP21471   8.763  14.873   8.977  0.0444 -0.0378  0.0484
11368PP      PP21472   4.446   3.965  11.847 -0.0023 -0.0534 -0.1643
11369PP      PP21473  14.975   4.516   8.019 -0.1321 -0.0208 -0.1988
11370PP      PP21474   5.131  14.302  11.457  0.1038  0.0149  0.0614
11371PP      PP21475  12.673  11.557  12.206  0.0322 -0.1857 -0.0302
11372PP      PP21476   0.355   0.218  11.149 -0.0543  0.5787 -0.2818
11373PP      PP21477   3.849  13.886   2.159 -0.4623 -0.1231 -0.0838
11374PP      PP21478  10.819  12.107   0.313  0.0908 -0.0498  0.1378
11375PP      PP21479  14.603   2.723   9.631 -0.0529  0.1190  0.1403
11376PP      PP21480   4.124   5.535   2.104 -0.0175  0.0915  0.1517
11377PP      PP21481   7.475   7.575   1.484 -0.1707  0.1607  0.1932
11378PP      PP21482  14.687   8.296   1.667 -0.3004 -0.0819 -0.1914
11379PP      PP21483  11.107  15.775  11.447  0.2132  0.2190  0.1496
11380PP      PP21484  11.324   3.117   3.096 -0.2276 -0.1772 -0.1434
11381PP      PP21485   7.943  13.340  11.728 -0.0715  0.2332  0.1532
11382PP      PP21486  12.204  14.895   3.249  0.1406  0.2093 -0.0575
11383PP      PP21487   1.283   9.265  12.788 -0.1804 -0.0054 -0.3401
11384PP      PP21488   2.852  13.093  12.153  0.0940  0.0286  0.1172
11385PP      PP21489   0.883   1.968   8.146 -0.1151  0.0730  0.4036
11386PP      PP21490   5.589   6.199   8.814 -0.0440 -0.0419 -0.0104
11387PP      PP21491   0.986  14.075   9.638 -0.2860  0.1832 -0.0528
11388PP      PP21492  13.624  12.464  11.993  0.2395  0.0336 -0.1068
11389PP      PP21493   5.429   4.896  10.013  0.0593 -0.1112 -0.1009
11390PP      PP21494  14.736  14.854  10.165  0.2001 -0.0142 -0.0021
11391PP      PP21495   8.296   5.011  13.251 -0.0993  0.1278 -0.1648
11392PP      PP21496  13.465   6.008   9.143 -0.2584  0.0939 -0.2550
11393PP      PP21497  11.954   4.958   4.291  0.1861  0.2345 -0.3324
11394PP      PP21498   9.512   1.835  11.077 -0.0468  0.0459  0.1315
11395PP      PP21499  12.796  12.065  12.203 -0.0552  0.0960 -0.3067
11396PP      PP21500   8.054   2.030   2.803 -0.0402 -0.0237 -0.2960
11397PP      PP21501   8.654   5.315   1.776  0.1935  0.4049 -0.3307
11398PP      PP21502   7.613  14.048   9.159  0.2051 -0.2656  0.2840
11399PP      PP21503   2.318  11.185   9.198  0.0642 -0.0852 -0.0183
11400PP      PP21504   5.109  15.313   2.340 -0.1322 -0.2389 -0.0313
11401PP      PP21505   9.162  10.964  10.332  0.0953 -0.2337  0.1764
11402PP      PP21506  11.953   0.680   0.541 -0.2785  0.1614 -0.1946
11403PP      PP21507   2.762  12.130  13.252  0.4418 -0.2714 -0.1265
11404PP      PP21508  12.724   2.436   8.854  0.1389 -0.3569 -0.2821
11405PP      PP21509  12.063  15.865  12.137  0.0013 -0.1315  0.1874
11406PP      PP21510   1.452  10.734  11.579 -0.1322  0.1197  0.0557
11407PP      PP21511  14.569   6.412   0.031  0.0771 -0.0420  0.2384
11408PP      PP21512   0.454   5.104  12.253  0.2442 -0.2522  0.3452
11409PP      PP21513  11.695   9.180   2.939 -0.0148 -0.0810 -0.2215
11410PP      PP21514   3.992   7.662   2.223  0.0932  0.0714  0.1635
11411PP      PP21515   0.660   9.670   0.622  0.0637 -0.0005  0.2282
11412PP      PP21516   1.199   4.968   8.766 -0.0638 -0.2178  0.2040
11413PP      PP21517  12.760   1.921   2.805 -0.1193 -0.4180  0.1513
11414PP      PP21518   5.634   9.423  11.608  0.0815  0.4037 -0.2410
11415PP      PP21519   6.943  10.280   9.079 -0.3018 -0.2475 -0.0758
11416PP      PP21520  12.765  11.674  10.714 -0.0278 -0.0314 -0.0522
11417PP      PP21521  15.636   2.921   9.906 -0.3768  0.1187  0.0182
11418PP      PP21522   3.500   1.619  11.407 -0.0590  0.2088 -0.2219
11419PP      PP21523   2.910   4.942  11.306  0.0235 -0.1150  0.0091
11420PP      PP21524  13.296  13.159  11.778 -0.0432 -0.4002  0.3907
11421PP      PP21525   0.720  13.343   3.348 -0.0157 -0.2299 -0.0271
11422PP      PP21526  12.840   3.623   0.943  0.0717 -0.0229  0.3883
11423PP      PP21527   7.845   3.836   9.425 -0.1290 -0.3197 -0.1835
11424PP      PP21528   8.256   9.041   1.872  0.1031  0.0700  0.0500
11425PP      PP21529  13.449   0.430   3.089  0.2290  0.3157  0.2228
11426PP      PP21530   5.385   4.793   1.609  0.2202  0.2794 -0.0372
11427PP      PP21531  15.526  11.179  10.353 -0.4250 -0.0204 -0.0296
11428PP      PP21532   4.940   4.033   3.236 -0.1222  0.1934 -0.1855
11429PP      PP21533  14.323   6.811  12.188  0.2161 -0.0440  0.1823
11430PP      PP21534  15.129  13.742   3.135 -0.1248  0.0976 -0.2565
11431PP      PP21535  12.529  13.576  10.009  0.0190 -0.0978  0.2228
11432PP      PP21536   0.417  13.707   2.984  0.1460  0.1666  0.0788
11433PP      PP21537   8.387   2.085  10.149  0.4749  0.1778  0.3424
11434PP      PP21538   4.527  12.075  11.218 -0.1371 -0.3402  0.0319
11435PP      PP21539   7.314  10.436   4.410  0.0627  0.1541  0.3619
11436PP      PP21540  10.897  11.229   2.833 -0.0755 -0.1583 -0.1454
11437PP      PP21541  14.378   1.260  13.311  0.4060  0.1898 -0.0380
11438PP      PP21542   1.387   0.020   9.371 -0.1171 -0.0270 -0.1513
11439PP      PP21543   6.098  11.689   0.899 -0.0085 -0.1705  0.6250
11440PP      PP21544   4.904   9.417  13.212 -0.0577  0.2005 -0.1158
11441PP      PP21545  14.608   4.238   9.490  0.0171  0.5066 -0.2245
11442PP      PP21546  12.059   0.770  10.406  0.2489  0.4356  0.3500
11443PP      PP21547  14.713   2.721   9.120  0.0221  0.2436 -0.1908
11444PP      PP21548   9.286   3.706   8.993  0.0339 -0.1602 -0.2423
11445PP      PP21549  12.521  11.588   4.166  0.0192 -0.2464 -0.0507
11446PP      PP21550  11.294  14.025   2.149 -0.1729 -0.1084 -0.1861
11447PP      PP21551  15.902  11.003   0.371  0.2286 -0.0220  0.2035
11448PP      PP21552   8.810   5.663   9.655 -0.1216 -0.2275 -0.0920
11449PP      PP21553   4.955  10.217  12.131  0.0200 -0.2308 -0.2838
11450PP      PP21554  12.458   9.277   3.002 -0.1020 -0.2013 -0.0348
11451PP      PP21555   4.187  12.614   9.669 -0.2432 -0.1031  0.1083
11452PP      PP21556   5.611   8.030   1.734 -0.0927 -0.1287  0.3041
11453PP      PP21557   1.627  14.221   9.937  0.0873 -0.3612  0.0423
11454PP      PP21558  14.421  15.194  13.168 -0.1323 -0.2093  0.3132
11455PP      PP21559   0.242   8.927   9.417  0.2296  0.1716 -0.2667
11456PP      PP21560   9.473   7.261   3.143  0.0679 -0.2808 -0.1341
11457PP      PP21561   2.190   2.422   0.856 -0.1094  0.0608  0.2588
11458PP      PP21562  15.017  10.608   0.710  0.1889 -0.4382  0.2895
11459PP      PP21563   0.494  15.757   3.057  0.0380  0.1727 -0.0223
11460PP      PP21564   8.698   6.993  12.595  0.2612  0.0475 -0.0869
11461PP      PP21565  11.371   7.901   2.809 -0.4741  0.1308 -0.0797
11462PP      PP21566  11.558   8.793  11.480  0.2116 -0.2295 -0.2096
11463PP      PP21567   0.486  12.852  12.148 -0.0452 -0.0611 -0.0544
11464PP      PP21568   8.345  11.199   1.323 -0.4207  0.0214  0.1168
11465PP      PP21569  11.196   8.278  12.138 -0.2396  0.3348 -0.0542
11466PP      PP21570  11.564   5.736   0.732  0.1681  0.0716 -0.0498
11467PP      PP21571   9.378   3.237   4.437 -0.0564  0.1494  0.0375
11468PP      PP21572   0.680   1.826   1.501  0.0989  0.1166 -0.2078
11469PP      PP21573   7.767  13.482   2.170 -0.1829 -0.1028  0.1833
11470PP      PP21574   7.323  11.639   9.691  0.1531  0.3298  0.0226
11471PP      PP21575  15.292   6.011   8.947  0.1356  0.2034 -0.0527
11472PP      PP21576   2.974   3.742  12.564  0.3183  0.2616  0.1669
11473PP      PP21577   6.072   8.855   4.094 -0.0767  0.1820  0.0503
11474PP      PP21578  12.614  11.099  13.036 -0.2013  0.0196  0.2580
11475PP      PP21579   8.284  15.126   1.857  0.0750  0.0256 -0.1497
11476PP      PP21580  11.551  15.890  12.974 -0.1669  0.0898 -0.0108
11477PP      PP21581   6.445  15.048   0.825 -0.2144 -0.0694  0.0719
11478PP      PP21582   5.123   0.875  11.538  0.0737  0.0282 -0.1087
11479PP      PP21583   7.775   8.939  11.124  0.0654  0.1224  0.0594
11480PP      PP21584   7.705   2.901  12.259 -0.0584  0.1704  0.0859
11481PP      PP21585   2.454   3.570   8.954  0.3252  0.1688  0.2973
11482PP      PP21586   4.385   7.924   2.710 -0.1727  0.0803 -0.1461
11483PP      PP21587  14.084   8.694  10.776  0.2639 -0.0088  0.3375
11484PP      PP21588  14.596   6.368   3.871 -0.1469 -0.4288 -0.1260
11485PP      PP21589   3.727   7.515   3.834 -0.1845  0.1174  0.1592
11486PP      PP21590   7.144   3.551  12.742  0.0268  0.1947  0.0192
11487PP      PP21591   5.799  13.624   9.580 -0.0024  0.1056  0.0349
11488PP      PP21592   3.582  11.092  12.972  0.0640  0.0401 -0.1692
11489PP      PP21593  15.238   3.152   8.377  0.1227  0.1536 -0.1168
11490PP      PP21594  10.767   6.110   0.526 -0.2415  0.0136 -0.1238
11491PP      PP21595  15.329   5.320   3.000  0.0209 -0.0610  0.0946
11492PP      PP21596   8.201   8.307   3.726 -0.2540 -0.0982 -0.3466
11493PP      PP21597   4.785  10.800   2.426  0.2473  0.3440  0.4176
11494PP      PP21598   5.690   4.441  10.174 -0.1875  0.0701 -0.0752
11495PP      PP21599   8.608   6.428   9.187 -0.0215 -0.2338 -0.0015
11496PP      PP21600   6.734   8.636  12.850  0.2648 -0.2722 -0.3678
11497PP      PP21601   0.569   2.921  12.808  0.2269  0.2112  0.3131
11498PP      PP21602   2.165   5.388   3.337  0.0278 -0.2140 -0.0691
11499PP      PP21603  13.475   6.009  13.047 -0.0659  0.1095  0.1009
11500PP      PP21604   3.836   7.201   2.182  0.2244 -0.3070 -0.0809
11501PP      PP21605   9.970   8.954   3.575  0.3508 -0.2243 -0.0863
11502PP      PP21606   6.024  12.491   2.271 -0.0387 -0.4677  0.0647
11503PP      PP21607   4.368  11.452   4.584  0.3182  0.3301 -0.1648
11504PP      PP21608   1.414  11.555   9.020  0.1193  0.1267  0.0783
11505PP      PP21609   5.541   8.372   3.221 -0.1858  0.0165  0.2709
11506PP      PP21610   9.502  11.761   1.527 -0.0218 -0.0788 -0.3423
11507PP      PP21611  13.302   2.039  12.224  0.0311 -0.1055  0.1265
11508PP      PP21612   7.864  15.073  12.593  0.0886 -0.0154 -0.1889
11509PP      PP21613  10.231  10.999   1.711 -0.1948 -0.0244 -0.1167
11510PP      PP21614  13.815   9.658  12.309 -0.0971 -0.0153 -0.2009
11511PP      PP21615   9.097   1.296   2.224  0.1218 -0.4363  0.0787
11512PP      PP21616   5.462  15.706  12.060  0.1852  0.0571 -0.0865
11513PP      PP21617   1.845  14.014   2.731 -0.0305 -0.2629 -0.1361
11514PP      PP21618   1.308  14.280  11.457 -0.1135  0.0715  0.0339
11515PP      PP21619   9.585   0.340  10.337 -0.0319  0.3272 -0.3687
11516PP      PP21620  11.539   2.964  12.316 -0.0517 -0.4232  0.1750
11517PP      PP21621  15.235  11.561   0.465 -0.2098  0.1619  0.1445
11518PP      PP21622   6.932   6.646  10.458  0.3570 -0.2606  0.1710
11519PP      PP21623   0.680  12.513   8.366 -0.0241 -0.0152 -0.0484
11520PP      PP21624  14.547  10.643   0.438  0.0190  0.6367 -0.1691
11521PP      PP21625  13.299  13.299  13.322 -0.4036  0.0870 -0.1352
11522PP      PP21626   2.787   3.737   9.283 -0.1071 -0.1195  0.0633
11523PP      PP21627   9.905   5.341  13.172  0.0333  0.1274  0.1247
11524PP      PP21628   5.853   3.502   1.277 -0.3204 -0.2625 -0.1705
11525PP      PP21629   7.885  11.859   3.179  0.0825  0.2030 -0.1311
11526PP      PP21630  13.009  14.343   0.301 -0.0229 -0.0195 -0.1786
11527PP      PP21631  14.154   8.098   1.654  0.0837 -0.0685 -0.2375
11528PP      PP21632   4.900   8.025  10.981 -0.0706  0.0699 -0.2873
11529PP      PP21633   5.624  12.590   3.417 -0.0361  0.3303  0.3369
11530PP      PP21634   8.245   9.436   9.188  0.1802 -0.2707 -0.2925
11531PP      PP21635   2.661   8.529  11.834 -0.2362 -0.0355  0.1281
11532PP      PP21636  11.574   1.165   1.933 -0.3008  0.2779  0.1363
11533PP      PP21637  11.018  15.808   9.967 -0.0791 -0.0781  0.2796
11534PP      PP21638   0.125  15.324   0.977  0.0265 -0.1016  0.1129
11535PP      PP21639  13.732   4.579   3.345 -0.0616 -0.1936 -0.0285
11536PP      PP21640   3.635  10.493   0.308  0.0608 -0.1208  0.1588
11537PP      PP21641   4.896   4.656   9.049 -0.2298  0.0064  0.0468
11538PP      PP21642  11.859   9.057   0.220  0.1221 -0.3691 -0.5321
11539PP      PP21643   0.387   1.750  12.175 -0.0083  0.5185 -0.0413
11540PP      PP21644  15.534  11.442  12.273  0.3409 -0.1832  0.1046
11541PP      PP21645  13.946   1.342   3.335  0.2051 -0.0693 -0.1137
11542PP      PP21646  13.516  14.547   9.409  0.0025  0.0117  0.0341
11543PP      PP21647   0.105  12.231  11.454  0.2231  0.3797 -0.1948
11544PP      PP21648   3.859   1.929   9.845  0.0054  0.0015 -0.0277
11545PP      PP21649  14.963   6.629   9.275 -0.2257  0.2589 -0.0558
11546PP      PP21650   4.866   1.928  11.778  0.2316 -0.2860  0.0348
11547PP      PP21651   6.251  13.411   9.298  0.0640  0.1973  0.0170
11548PP      PP21652  10.956   8.176  11.599 -0.0149  0.3037  0.0517
11549PP      PP21653  15.165  13.092  10.781 -0.1747  0.4058 -0.2203
11550PP      PP21654   4.991   7.195  11.458  0.0407 -0.0108 -0.3114
11551PP      PP21655   3.471  12.593   2.974 -0.1684  0.3803 -0.0508
11552PP      PP21656   2.384  13.274  10.302 -0.4580 -0.0878  0.1727
11553PP      PP21657  15.514   1.806  11.598 -0.1765 -0.1416  0.0628
11554PP      PP21658   0.762   5.829   4.579 -0.1738  0.2149 -0.0889
11555PP      PP21659   6.549  13.525  12.644  0.2193 -0.2018  0.2246
11556PP      PP21660  14.707   4.745   3.138  0.1569 -0.0892  0.1763
11557PP      PP21661  11.747  14.546  11.800 -0.0356  0.2753  0.1593
11558PP      PP21662   6.396  13.465   4.444 -0.0720  0.1376  0.0904
11559PP      PP21663   8.291  13.378   1.048  0.0695 -0.0481 -0.0989
11560PP      PP21664   6.980  13.449   9.501  0.1976 -0.0807  0.3250
11561PP      PP21665  11.179  10.960   3.931 -0.0744  0.2267  0.1256
11562PP      PP21666   5.842  12.025  10.142  0.0498  0.0616 -0.0933
11563PP      PP21667   7.376  14.671   9.716  0.2061  0.0596  0.1108
11564PP      PP21668   3.364   5.639   2.193  0.0468 -0.1750 -0.2079
11565PP      PP21669  14.686   2.504   0.461 -0.0323 -0.2183  0.2914
11566PP      PP21670   6.596  10.400   1.996  0.3195 -0.3352 -0.0284
11567PP      PP21671  15.037   8.063  11.607 -0.2968  0.1687 -0.0448
11568PP      PP21672  13.298   9.758   5.167 -0.1607  0.4768  0.1978
11569PP      PP21673  14.800   2.047   8.869 -0.1793  0.2650  0.3008
11570PP      PP21674   8.577  11.992   0.488  0.2343  0.0357  0.0661
11571PP      PP21675   5.312  13.688   1.223  0.2386  0.3329  0.0084
11572PP      PP21676   1.185  14.254   1.540  0.0383  0.0688  0.0773
11573PP      PP21677   3.904  14.385   2.037 -0.3788 -0.2744 -0.1417
11574PP      PP21678   6.131   9.538  12.444 -0.1427  0.3586  0.4924
11575PP      PP21679   3.839   3.401   2.588  0.3337  0.0885  0.1898
11576PP      PP21680   4.423  13.159   0.033  0.1796  0.1553 -0.3650
11577PP      PP21681   2.153  13.007   0.938  0.0054 -0.2130 -0.4110
11578PP      PP21682   4.139  11.984  12.452 -0.1578 -0.1474  0.0039
11579PP      PP21683  11.591   4.599   9.612  0.1829 -0.0084 -0.4725
11580PP      PP21684   7.019  14.974   9.987  0.0619 -0.1666  0.4039
11581PP      PP21685   9.139  11.157   9.805  0.0102 -0.2559 -0.4683
11582PP      PP21686   0.530   5.345   9.154 -0.0304  0.0548 -0.1276
11583PP      PP21687  12.732   4.756   3.188 -0.0734  0.1493 -0.2075
11584PP      PP21688   4.183   6.261   9.760 -0.0762  0.1051  0.0564
11585PP      PP21689   7.384  12.429  12.090  0.1846 -0.1589  0.3126
11586PP      PP21690   4.823   8.253   3.783 -0.1136 -0.1825  0.1527
11587PP      PP21691   2.543  13.800   3.116 -0.2102 -0.0336 -0.1924
11588PP      PP21692   4.426   8.445  13.181  0.0857  0.1158 -0.2965
11589PP      PP21693   8.733   5.227   0.718  0.2849 -0.4097  0.1070
11590PP      PP21694   6.607   3.530  12.800 -0.1571 -0.3609  0.1630
11591PP      PP21695   3.190   8.866   2.275 -0.0060  0.2082 -0.3397
11592PP      PP21696   8.884   3.224  11.568 -0.3086  0.0221  0.1465
11593PP      PP21697   7.504   8.319   9.867 -0.4048  0.0748  0.0926
11594PP      PP21698   5.643   2.790  12.251 -0.0617 -0.0532  0.0143
11595PP      PP21699  15.454  13.607   3.667 -0.0850 -0.1723  0.0130
11596PP      PP21700   2.157   8.089   9.902  0.1151  0.0671 -0.2225
11597PP      PP21701   6.480   0.620  12.261 -0.1999 -0.1213  0.0067
11598PP      PP21702   8.961   8.945  12.229  0.0883  0.0168 -0.0481
11599PP      PP21703  15.195   3.114  10.061 -0.1734  0.2877  0.0700
11600PP      PP21704   5.087  12.644   2.576 -0.3428  0.2420 -0.2267
11601PP      PP21705  15.209  13.090   2.934 -0.0065  0.1456  0.4689
11602PP      PP21706   7.728   7.994   0.809 -0.1048  0.0473 -0.0290
11603PP      PP21707   1.829   1.289   1.296  0.4542  0.1078  0.2574
11604PP      PP21708  13.437  12.220   2.536  0.1518 -0.0744 -0.2632
11605PP      PP21709  15.511   4.434  12.946 -0.0231 -0.2187  0.1862
11606PP      PP21710   5.007   2.248   9.024 -0.2597  0.3044 -0.0333
11607PP      PP21711  10.694  13.173   2.529 -0.5096 -0.2004  0.3517
11608PP      PP21712  14.737   1.304   9.636  0.3751 -0.0107  0.1639
11609PP      PP21713   9.940  15.433  11.936 -0.2898  0.0441 -0.2407
11610PP      PP21714   1.523  10.027  10.224  0.0472 -0.2671 -0.2009
11611PP      PP21715   4.883   7.420  12.957  0.1694  0.2254 -0.2878
11612PP      PP21716   6.215   3.702   3.811 -0.1848  0.1959  0.0078
11613PP      PP21717   2.770  14.334   1.281 -0.0627  0.1472 -0.3889
11614PP      PP21718   7.917  11.379   9.541 -0.2980  0.1848 -0.3349
11615PP      PP21719   1.246   2.132  10.571  0.0948 -0.0801 -0.0811
11616PP      PP21720   0.469   8.180   4.520 -0.0988  0.3523 -0.0906
11617PP      PP21721   5.333   1.558  12.865 -0.0051  0.1663  0.0045
11618PP      PP21722   3.152  12.198   9.339  0.1742 -0.1139  0.1158
11619PP      PP21723   2.046  13.977  10.048  0.0028  0.1920 -0.1435
11620PP      PP21724   0.149   0.663   3.395 -0.0749  0.1120 -0.1716
11621PP      PP21725   9.973   8.860  10.818  0.0995  0.0263  0.2063
11622PP      PP21726  10.452  14.047  12.568 -0.0072 -0.0152  0.0487
11623PP      PP21727  14.717   8.818   0.831  0.2498  0.1200  0.2507
11624PP      PP21728   3.973   7.664   0.139 -0.0773  0.0838  0.2835
11625PP      PP21729   0.208  14.229   1.719  0.2203 -0.1257 -0.2548
11626PP      PP21730  10.730  13.327   0.870 -0.0321 -0.2651 -0.1465
11627PP      PP21731   4.977  15.878  13.228  0.3126 -0.3082 -0.0766
11628PP      PP21732   6.164   8.706   2.893  0.0275 -0.2117 -0.0099
11629PP      PP21733   7.405   9.099  10.370 -0.0440 -0.2188 -0.3035
11630PP      PP21734   4.786   0.351   2.779 -0.2164 -0.2981  0.1277
11631PP      PP21735   5.316   1.826  13.266 -0.1549 -0.2491 -0.1078
11632PP      PP21736   3.445  13.891   0.123 -0.0920  0.2472 -0.0551
11633PP      PP21737   3.536  12.969  11.614 -0.1679  0.0430 -0.0481
11634PP      PP21738   3.574   6.598   3.393 -0.1187  0.1423  0.1714
11635PP      PP21739   5.658  13.825   0.505  0.0356 -0.1449 -0.3567
11636PP      PP21740   2.523   5.830   8.707 -0.0896  0.1437  0.2290
11637PP      PP21741   5.128   8.042  13.060 -0.0559  0.1484  0.1987
11638PP      PP21742  15.861   5.634  12.524  0.1892  0.2143  0.0960
11639PP      PP21743  15.578  14.329   3.306  0.1779  0.1628 -0.2031
11640PP      PP21744  15.434   1.013   1.815 -0.1698 -0.0226  0.2855
11641PP      PP21745  15.785   4.745  11.476  0.0288 -0.0885  0.0525
11642PP      PP21746   5.306   2.050  10.501  0.2565 -0.0604  0.2712
11643PP      PP21747   7.626   0.576  12.984 -0.1468  0.0910  0.0228
11644PP      PP21748  12.751   8.159  11.336 -0.4865  0.0460 -0.0824
11645PP      PP21749   5.211  14.865  10.195  0.0583 -0.1954 -0.3546
11646PP      PP21750  10.770   1.858   2.325 -0.3014  0.1871 -0.2681
11647PP      PP21751   7.494  11.276   0.810  0.0283  0.1628  0.1866
11648PP      PP21752   5.582  14.065  11.588  0.0069 -0.0764  0.1889
11649PP      PP21753   4.085  15.163   1.599 -0.2893  0.1938  0.0661
11650PP      PP21754  10.621  14.771   9.803 -0.2010  0.1024  0.0865
11651PP      PP21755   0.051   0.852   1.928 -0.0467 -0.2250 -0.1432
11652PP      PP21756  12.295   0.774  12.289  0.1092  0.2136  0.2851
11653PP      PP21757   4.863   7.068   2.513 -0.2488 -0.0547  0.1025
11654PP      PP21758   1.091  13.759   8.227 -0.0638  0.2905  0.2158
11655PP      PP21759   7.790   8.544  10.832 -0.0243 -0.1672 -0.2563
11656PP      PP21760   2.358   5.490  10.111 -0.0743 -0.2707  0.3124
11657PP      PP21761   7.123   4.802  11.864  0.0131 -0.1161 -0.0535
11658PP      PP21762   9.733   9.940  10.379 -0.0322  0.2881  0.3807
11659PP      PP21763   3.094   2.439   0.446  0.0701 -0.0740 -0.0293
11660PP      PP21764   9.692   6.349  12.139 -0.4146 -0.3077  0.3731
11661PP      PP21765   4.172   6.675   2.097 -0.1696  0.1091 -0.0113
11662PP      PP21766   9.487   0.241   4.711 -0.0850  0.1751  0.1170
11663PP      PP21767   9.447   4.564   3.851  0.2645 -0.1020  0.2590
11664PP      PP21768   7.578   2.306   8.917  0.1322 -0.2914  0.0004
11665PP      PP21769  12.731  10.714   0.806  0.1192 -0.1937  0.0361
11666PP      PP21770  13.153   6.394   0.436 -0.0773  0.0640  0.0020
11667PP      PP21771   2.666   1.777  12.911  0.2471 -0.1943 -0.1097
11668PP      PP21772   1.685  10.410  13.355  0.0867 -0.0231 -0.2289
11669PP      PP21773   4.842   4.877   2.297 -0.2446 -0.0573  0.0293
11670PP      PP21774  14.210   4.716   3.271 -0.2160  0.1523 -0.0271
11671PP      PP21775   3.091  10.333   9.759 -0.0221 -0.2279  0.2116
11672PP      PP21776   1.021   0.172   1.194 -0.1552 -0.2140 -0.0654
11673PP      PP21777  15.869   0.525  12.076  0.2042 -0.1619  0.2053
11674PP      PP21778   5.420   3.862   4.089  0.1003 -0.1226 -0.1593
11675PP      PP21779   6.797   8.151   0.136 -0.1171 -0.1354  0.2094
11676PP      PP21780   2.146  11.367  13.110 -0.0366  0.3639 -0.0595
11677PP      PP21781   8.035  12.567   2.980 -0.1544 -0.0837  0.1782
11678PP      PP21782  11.164   7.755   9.377 -0.3785 -0.2519 -0.2284
11679PP      PP21783  11.748   0.762  12.270 -0.1318 -0.0968  0.2486
11680PP      PP21784   8.018  12.560  11.465 -0.4312 -0.0461 -0.1199
11681PP      PP21785  12.809   7.030   1.779 -0.2460 -0.5319  0.0920
11682PP      PP21786   0.944  11.264  11.838  0.0959  0.4146 -0.0478
11683PP      PP21787  10.768  12.495   0.001 -0.0341 -0.0512 -0.0188
11684PP      PP21788   8.184   8.360  12.805  0.1910  0.1651  0.0559
11685PP      PP21789  15.594  12.484  13.350  0.1190 -0.3442 -0.2050
11686PP      PP21790   5.759   4.393   0.054  0.1497  0.0394 -0.0962
11687PP      PP21791  12.972   9.279  12.669  0.0178 -0.1783  0.2789
11688PP      PP21792   4.579   2.478   1.382 -0.0502  0.3501 -0.0226
11689PP      PP21793   9.228   6.978  12.789  0.1065 -0.0440 -0.1441
11690PP      PP21794   6.428   4.728  11.192  0.0940 -0.1926  0.0476
11691PP      PP21795  15.169   7.907   0.376 -0.3214  0.0125 -0.1405
11692PP      PP21796  15.617   9.475   2.489 -0.0111 -0.0691  0.0179
11693PP      PP21797   5.622   1.769  12.506 -0.0585 -0.0397  0.0081
11694PP      PP21798   2.224  14.600   1.800  0.1248 -0.1628 -0.1573
11695PP      PP21799   0.299   5.447   0.415  0.0485 -0.0372  0.4094
11696PP      PP21800  13.897   4.499  12.699 -0.0084  0.0679  0.0797
11697PP      PP21801   6.845   6.077   4.021 -0.2645  0.0006 -0.2853
11698PP      PP21802   0.654  12.068  11.663 -0.2315  0.3007 -0.2681
11699PP      PP21803   0.768   9.833  12.085 -0.0855 -0.1691  0.2255
11700PP      PP21804   1.827   7.295  10.029  0.3334  0.1794  0.0718
11701PP      PP21805   9.312   4.832   3.359 -0.1145 -0.3502  0.1222
11702PP      PP21806   3.300   6.434   9.681 -0.2241 -0.1449 -0.0999
11703PP      PP21807   2.579   0.180   0.954  0.0667 -0.0437  0.1096
11704PP      PP21808  11.868  12.780   1.206 -0.0691  0.0376 -0.0569
11705PP      PP21809  15.598   4.297  12.148 -0.1544  0.1105  0.0219
11706PP      PP21810  11.020   7.998   0.408  0.2149 -0.2361  0.0106
11707PP      PP21811   0.148   7.294   3.708 -0.1136  0.2418  0.0469
11708PP      PP21812   2.003  13.902   1.551  0.0967  0.0527 -0.0115
11709PP      PP21813   2.082  15.395   1.912  0.1469  0.0797 -0.3102
11710PP      PP21814   8.157   9.262  12.523  0.3577 -0.1981  0.0396
11711PP      PP21815   4.537  11.658  12.313  0.0957  0.3902 -0.0220
11712PP      PP21816   2.368  14.058   1.897  0.0638  0.1515 -0.0408
11713PP      PP21817   5.630   6.406  12.823 -0.2199 -0.1505  0.0315
11714PP      PP21818   3.076   5.781   9.860 -0.1561 -0.1759 -0.0622
11715PP      PP21819   9.956   7.250  10.496  0.0556  0.0700 -0.0280
11716PP      PP21820  13.982  10.174   4.506  0.0310 -0.0417 -0.1115
11717PP      PP21821   1.450   1.386   3.214  0.3119 -0.0297  0.3151
11718PP      PP21822   5.572  15.587   8.588 -0.2308  0.0441  0.2248
11719PP      PP21823   1.644   3.556   4.029  0.0252  0.0871 -0.0336
11720PP      PP21824  15.541   0.301  10.759  0.2697 -0.0599 -0.2144
11721PP      PP21825   5.410  15.589  10.651 -0.1447 -0.0465  0.0437
11722PP      PP21826   7.021  12.087   8.997  0.0648 -0.3834  0.3061
11723PP      PP21827  13.576  15.790   9.691 -0.0531  0.0415  0.2365
11724PP      PP21828   5.575  12.384  11.881  0.2251 -0.1569  0.2809
11725PP      PP21829  15.218  15.101   8.982  0.1116  0.1678 -0.4149
11726PP      PP21830  11.332   4.763   9.210 -0.3283 -0.0525  0.0328
11727PP      PP21831   3.219   7.141  11.797 -0.1052 -0.2649  0.0481
11728PP      PP21832   7.448  13.516   9.236  0.2778 -0.3288 -0.1454
11729PP      PP21833   8.025   3.672   2.280 -0.1369 -0.3078  0.0599
11730PP      PP21834   6.594   7.343   9.313 -0.5174  0.1013  0.1555
11731PP      PP21835  15.403   5.160  10.245 -0.1397  0.1799 -0.1327
11732PP      PP21836  10.019   1.615  13.347  0.0466 -0.1245  0.0956
11733PP      PP21837  12.669   9.522  11.076  0.0217  0.0774  0.3263
11734PP      PP21838   6.113   5.621  10.044  0.2177  0.1010 -0.3097
11735PP      PP21839   9.774   6.660   0.703 -0.1077 -0.1527 -0.0930
11736PP      PP21840   2.031   5.930   0.831  0.1498  0.0407 -0.2717
11737PP      PP21841   9.044  10.407   1.213 -0.0418  0.3304  0.5285
11738PP      PP21842  11.810  14.892   2.070  0.4108 -0.2561  0.1093
11739PP      PP21843   5.574   3.141   3.005  0.0257 -0.2346 -0.4613
11740PP      PP21844   0.956   3.398   2.954 -0.3192 -0.1835 -0.2071
11741PP      PP21845   7.120  12.781  12.891  0.3253 -0.0542  0.1452
11742PP      PP21846   3.686   1.290   1.192  0.1767  0.2188 -0.1644
11743PP      PP21847   8.812  15.327  13.032  0.0447 -0.1310 -0.0605
11744PP      PP21848  14.453   7.389   0.456  0.2321 -0.0169 -0.3455
11745PP      PP21849  13.993   6.864   1.276 -0.1770  0.2458  0.2054
11746PP      PP21850  13.328   7.643   0.024  0.3362  0.0393 -0.1841
11747PP      PP21851  12.336   6.214  13.006 -0.1076 -0.2676 -0.2824
11748PP      PP21852  11.667  11.934   4.490  0.3441 -0.0332 -0.3378
11749PP      PP21853  14.476   7.884   4.154  0.3281 -0.2013  0.1162
11750PP      PP21854   1.225  12.223   9.581 -0.2254  0.2501 -0.0577
11751PP      PP21855  14.657   5.719   0.660  0.2687  0.1595  0.0731
11752PP      PP21856   1.963   9.857  13.012  0.1381  0.3390 -0.0410
11753PP      PP21857   6.090   1.843  11.264  0.1536 -0.0653  0.0737
11754PP      PP21858  10.906   9.599  13.014 -0.0709 -0.0211  0.4267
11755PP      PP21859  14.651   8.677  12.794  0.0855 -0.1350 -0.1955
11756PP      PP21860   3.803  14.349  13.393 -0.3299  0.4102 -0.5506
11757PP      PP21861  11.984   7.633  12.930  0.3781 -0.1270 -0.2425
11758PP      PP21862   1.879   4.199   2.540  0.0208 -0.3608  0.3583
11759PP      PP21863  12.865   2.579   1.830 -0.0960 -0.0758  0.3309
11760PP      PP21864   6.958  11.832   2.590 -0.0430 -0.0853  0.2420
11761PP      PP21865   5.688   9.291   2.815 -0.1237 -0.1370 -0.2744
11762PP      PP21866   5.522  11.213   2.179 -0.0804 -0.0727  0.2556
11763PP      PP21867  11.786   2.722   0.780 -0.1723 -0.1144 -0.1655
11764PP      PP21868   4.092   0.961  13.349 -0.4995 -0.0464 -0.0282
11765PP      PP21869   9.762  10.155  12.107  0.0202 -0.0929  0.4575
11766PP      PP21870  14.077   8.090   4.654 -0.1723  0.0453  0.1976
11767PP      PP21871  12.243   4.102  13.274 -0.1831 -0.0026  0.2586
11768PP      PP21872   0.542  15.616   0.132 -0.1675  0.1050  0.0649
11769PP      PP21873   0.553   5.727  12.081 -0.0993  0.0034  0.3386
11770PP      PP21874   5.446  12.720   8.513  0.2212  0.1603 -0.0260
11771PP      PP21875  15.562  10.930   3.582 -0.2761 -0.2258 -0.1525
11772PP      PP21876  10.822  12.859  10.717  0.1117 -0.0455 -0.0321
11773PP      PP21877   5.480  11.086   2.804  0.0890  0.4537 -0.1876
11774PP      PP21878  14.932  12.911  11.132  0.1147  0.0532 -0.0181
11775PP      PP21879   5.548  12.253   9.826 -0.2143  0.0492  0.0346
11776PP      PP21880  12.780   8.011   1.851  0.1310  0.1096 -0.0311
11777PP      PP21881  11.215  14.658  12.078 -0.0990  0.3335 -0.1722
11778PP      PP21882  10.228  14.029   2.329  0.4098 -0.1972  0.2260
11779PP      PP21883   6.515   1.578   4.322 -0.0153  0.1935  0.1101
11780PP      PP21884   9.661  14.959   4.477 -0.2277  0.1324  0.0873
11781PP      PP21885   0.711   9.910   1.913 -0.1772 -0.2281  0.1122
11782PP      PP21886  14.307  14.276   1.207 -0.0241 -0.2131  0.1003
11783PP      PP21887   7.831   0.025   9.512 -0.2817 -0.0493 -0.4467
11784PP      PP21888  11.399  11.770   4.070 -0.1266  0.0321  0.0158
11785PP      PP21889   4.744  11.790   9.600  0.0163 -0.0019 -0.0497
11786PP      PP21890  10.518   0.064   9.725 -0.1956 -0.2645 -0.4237
11787PP      PP21891   5.466   5.601   2.424  0.2117  0.0567  0.2185
11788PP      PP21892  10.720   5.806   1.708  0.1400  0.0329  0.0289
11789PP      PP21893   8.423  11.129  13.273 -0.1240 -0.2909  0.0426
11790PP      PP21894   5.942  15.087   0.688 -0.0192  0.2818  0.0273
11791PP      PP21895   4.151  15.091   0.352 -0.1144  0.1805  0.0861
11792PP      PP21896  14.029   5.299   9.185 -0.0575  0.1196 -0.0017
11793PP      PP21897   7.922  15.673  10.331 -0.0788  0.0043 -0.0023
11794PP      PP21898  10.605   8.556   9.309  0.3341 -0.0986 -0.2060
11795PP      PP21899   1.531  15.435  12.010 -0.0173 -0.0935 -0.0364
11796PP      PP21900   6.356  10.905   1.306  0.0931 -0.2629 -0.1654
11797PP      PP21901   7.102   9.621  11.146 -0.1598  0.1605 -0.1868
11798PP      PP21902   5.431   9.688   9.921  0.0516 -0.0923 -0.0135
11799PP      PP21903   6.807  10.291   4.405  0.2283 -0.0452  0.4511
11800PP      PP21904  15.354  12.302   8.536  0.1479 -0.3305 -0.0953
11801PP      PP21905   7.760   6.093   9.299  0.1899 -0.0313 -0.1988
11802PP      PP21906   8.414  15.157   0.001  0.0733 -0.0215  0.1391
11803PP      PP21907  15.216   8.409   3.274 -0.1676  0.0574 -0.0118
11804PP      PP21908   6.131  11.584  12.108 -0.1017  0.1246  0.0341
11805PP      PP21909  15.566   5.843   2.622  0.2236 -0.0322 -0.0634
11806PP      PP21910   7.541   9.694  13.123 -0.0351  0.2443  0.1146
11807PP      PP21911   0.200  13.657  11.551 -0.1777  0.0272  0.2032
11808PP      PP21912   8.338   1.514  12.440 -0.0529  0.3573  0.0333
11809PP      PP21913   5.793   0.720   1.368 -0.2516  0.1958 -0.0029
11810PP      PP21914  13.548  10.278   0.569 -0.0829  0.0423  0.0366
11811PP      PP21915   5.707  12.404   3.838 -0.2445 -0.1348 -0.1457
11812PP      PP21916   0.181  14.085  10.859  0.1731 -0.0697 -0.3040
11813PP      PP21917   9.403   0.807   1.775  0.2009  0.1210  0.2012
11814PP      PP21918   1.784   6.432   2.765  0.1532  0.0218  0.0330
11815PP      PP21919   4.782   2.293  12.965 -0.0457 -0.0103  0.1400
11816PP      PP21920   7.850   8.415   8.753 -0.0831 -0.0815  0.3736
11817PP      PP21921   8.289  11.763   8.788  0.1095  0.3625 -0.0145
11818PP      PP21922   6.945   3.794   3.496 -0.2128  0.1982 -0.0549
11819PP      PP21923   1.993   0.646   0.629 -0.2242 -0.2011  0.0004
11820PP      PP21924   3.449  10.328   2.460  0.1908 -0.1478 -0.1495
11821PP      PP21925  13.151   5.012   0.702  0.0909 -0.0522 -0.0441
11822PP      PP21926  13.076  13.558   1.568 -0.4982 -0.1970  0.0255
11823PP      PP21927   9.808   5.355  12.169  0.4221  0.0064  0.1126
11824PP      PP21928  10.073  15.024   4.944 -0.0720 -0.0289  0.0250
11825PP      PP21929   7.699   4.679  11.269 -0.0120 -0.1095 -0.1421
11826PP      PP21930   0.769   1.091   9.924  0.1764  0.0595 -0.1468
11827PP      PP21931  10.951  14.098   3.452 -0.3810  0.0839 -0.1718
11828PP      PP21932  15.852   9.926   2.277 -0.0125  0.2734  0.1744
11829PP      PP21933   6.376  10.318   9.140  0.0318 -0.0140  0.0777
11830PP      PP21934   9.450   0.565  13.380 -0.0723 -0.3703  0.0713
11831PP      PP21935   7.375  13.807   8.808  0.2140 -0.0543  0.2181
11832PP      PP21936   6.638  12.207   9.627 -0.0517 -0.3384  0.0521
11833PP      PP21937  13.570   7.508   2.458  0.1541  0.0990 -0.0190
11834PP      PP21938   5.431   6.912   9.566 -0.0717  0.1200 -0.0374
11835PP      PP21939  15.942   7.228  12.858  0.2142  0.2103  0.2085
11836PP      PP21940   6.494  11.806  12.509  0.0103 -0.0863  0.0854
11837PP      PP21941   7.682   8.718   2.007 -0.0658  0.0633 -0.1147
11838PP      PP21942   2.627  12.573  11.380 -0.1597 -0.0894  0.1709
11839PP      PP21943  11.484   1.505   0.125  0.1497 -0.0479  0.3400
11840PP      PP21944   0.032   3.971   0.323  0.2495 -0.0484 -0.0703
11841PP      PP21945  15.225   7.178   4.271  0.2359  0.3325 -0.0430
11842PP      PP21946  10.833   1.366  11.662 -0.1426 -0.0628 -0.1372
11843PP      PP21947   7.478   4.434  10.882  0.0747  0.0621 -0.0077
11844PP      PP21948   1.191   2.739   8.257  0.1270 -0.0727 -0.0250
11845PP      PP21949  15.839   7.425   3.286  0.2335 -0.0141  0.1338
11846PP      PP21950   2.990   7.230  10.935  0.3705  0.1300  0.4141
11847PP      PP21951   2.050   8.033  11.771  0.1609  0.4800  0.1192
11848PP      PP21952  11.948  12.614   2.639 -0.3469 -0.0982 -0.0405
11849PP      PP21953  14.827   0.871   9.328  0.0321 -0.2198  0.0501
11850PP      PP21954   0.441   4.196   0.541  0.1101  0.1675 -0.4504
11851PP      PP21955   3.957   1.952  12.898  0.0514 -0.1940  0.0130
11852PP      PP21956   9.594   0.266   1.180  0.1334  0.2393  0.2721
11853PP      PP21957   5.108  12.317   0.992 -0.3697 -0.3007 -0.0795
11854PP      PP21958   9.714  14.971   3.542 -0.2297 -0.0786 -0.2731
11855PP      PP21959  10.380   0.118   3.227 -0.1202 -0.0427 -0.1930
11856PP      PP21960  11.912   8.874   1.311  0.0116 -0.0234 -0.1645
11857PP      PP21961   5.487  14.984   2.356  0.4901  0.2908 -0.1894
11858PP      PP21962   1.313   7.944   4.078  0.0199  0.2883  0.0430
11859PP      PP21963   3.090   0.348   3.941  0.0460  0.0733 -0.0325
11860PP      PP21964  14.530  11.125   2.281 -0.1286  0.0992  0.0150
11861PP      PP21965  15.005  15.710   0.693  0.1426 -0.2241  0.0319
11862PP      PP21966   5.904   9.492   9.507  0.3670 -0.4280  0.2820
11863PP      PP21967  15.498   8.791   5.067  0.0691 -0.1278 -0.2732
11864PP      PP21968  15.518   4.678   1.637 -0.2428 -0.1507  0.0125
11865PP      PP21969  11.807   9.772   4.331  0.1336 -0.0151  0.3129
11866PP      PP21970  12.034   9.717  12.490 -0.1305 -0.2128 -0.0615
11867PP      PP21971  10.137  11.738   4.616  0.1770 -0.1478  0.1219
11868PP      PP21972  10.787   5.703   8.782 -0.0411 -0.0513  0.4190
11869PP      PP21973   6.274   6.835   0.376  0.2427  0.0078 -0.0238
11870PP      PP21974  11.993  11.380  10.915 -0.0308  0.1062 -0.1479
11871PP      PP21975   0.805   3.524  10.369 -0.2067  0.1101  0.0963
11872PP      PP21976   1.563   0.932  11.299 -0.4464  0.1744  0.2193
11873PP      PP21977   9.903   7.515  12.925 -0.3340 -0.0707  0.1752
11874PP      PP21978  11.116   7.689  11.876  0.0231  0.0351 -0.1602
11875PP      PP21979  13.653  15.110   3.772  0.0501  0.0392  0.0258
11876PP      PP21980   3.232   4.097   1.210 -0.3809  0.3029 -0.0892
11877PP      PP21981  10.416   8.478   4.012  0.0749 -0.5065  0.1680
11878PP      PP21982  12.512  13.029  11.135 -0.1501 -0.0705 -0.1478
11879PP      PP21983  12.642  14.854  10.160  0.0301  0.0262 -0.1273
11880PP      PP21984  11.690  12.309   9.718 -0.0612  0.0125  0.0734
11881PP      PP21985  15.931   8.157  12.790 -0.1795 -0.3518 -0.0079
11882PP      PP21986   9.647  14.858  11.150 -0.0279 -0.0870 -0.0971
11883PP      PP21987  14.493  10.609  11.899 -0.0010  0.1460 -0.2732
11884PP      PP21988   4.376  15.046   9.857  0.1907 -0.0337  0.0945
11885PP      PP21989  11.177   2.171  12.840 -0.0324  0.5599 -0.0149
11886PP      PP21990  10.927   9.175   3.688  0.1336 -0.2797  0.2695
11887PP      PP21991   0.154  14.628  10.042  0.3465 -0.1707 -0.1427
11888PP      PP21992  15.174   8.863   3.575  0.1775  0.0761 -0.3083
11889PP      PP21993   3.520   9.534  13.104 -0.1130  0.2553 -0.2112
11890PP      PP21994   8.999   6.397  12.183 -0.0242 -0.0566  0.1854
11891PP      PP21995   1.591  10.638  10.131 -0.2805 -0.0279 -0.0033
11892PP      PP21996   6.209   9.695   0.366 -0.0558  0.0340  0.2954
11893PP      PP21997   7.733  14.454  10.425 -0.0475  0.4795 -0.0574
11894PP      PP21998   6.279   0.827  11.206 -0.0172 -0.1668  0.0977
11895PP      PP21999   2.318  12.719   9.175  0.0381  0.0154  0.0918
11896PP      PP22000   9.747   2.115   2.502 -0.1070 -0.0059 -0.2105
11897PP      PP22001  10.116  13.495   9.337 -0.2531  0.1303  0.2447
11898PP      PP22002  11.714   2.555   9.998  0.0883 -0.0934 -0.0777
11899PP      PP22003   2.791   2.306   8.386  0.0310  0.0317 -0.0909
11900PP      PP22004   7.630   5.399  12.954 -0.1965 -0.0162 -0.1892
11901PP      PP22005  13.484  13.578  10.244 -0.0628 -0.0019 -0.0395
11902PP      PP22006  13.245   3.059  12.891 -0.1532  0.2050 -0.1508
11903PP      PP22007  15.500   2.802  11.334 -0.1047  0.1708 -0.0913
11904PP      PP22008   0.365  12.892  12.631 -0.2811  0.1233 -0.0245
11905PP      PP22009  14.729   7.825  12.795 -0.1476 -0.2555  0.1131
11906PP      PP22010   9.709  11.336   3.959  0.0099  0.1794  0.1930
11907PP      PP22011   1.657  12.763   2.260  0.1873 -0.2015  0.0990
11908PP      PP22012  12.459   4.538   9.004 -0.0024 -0.1431  0.0269
11909PP      PP22013   0.418   2.129   9.909 -0.1088  0.0377 -0.0621
11910PP      PP22014  14.983   9.863   1.139 -0.1998 -0.2291 -0.1387
11911PP      PP22015   0.100  13.378   9.260 -0.0600  0.2912 -0.3573
11912PP      PP22016   9.729   1.830   9.503  0.4467  0.1469 -0.2608
11913PP      PP22017   0.920  10.034   3.254 -0.0570 -0.2864  0.3168
11914PP      PP22018   9.821   1.127   4.502 -0.0966 -0.1922 -0.0412
11915PP      PP22019  12.023  11.669   1.418  0.3265 -0.1783 -0.0502
11916PP      PP22020   4.684   5.379   3.872 -0.0769  0.1429 -0.0044
11917PP      PP22021   5.340   9.736   3.680  0.1882  0.0177 -0.2757
11918PP      PP22022   7.315   1.724  10.044  0.2737  0.2198 -0.0221
11919PP      PP22023   8.391   7.151   2.688  0.1952  0.0361  0.1548
11920PP      PP22024   6.153   3.363   0.193 -0.2485 -0.1627  0.0665
11921PP      PP22025   7.226  11.464   2.189  0.0421  0.2202 -0.1584
11922PP      PP22026   5.905   2.636   2.584 -0.2862  0.2555 -0.1662
11923PP      PP22027   0.195   2.897   0.634  0.3509 -0.1284  0.0850
11924PP      PP22028   9.118  15.406  11.430 -0.1809 -0.0390 -0.1463
11925PP      PP22029  13.685  12.018   1.177 -0.2462  0.0452  0.0247
11926PP      PP22030   3.825   4.496   0.636  0.1845 -0.1632  0.2626
11927PP      PP22031   8.141   9.866  12.675  0.1062  0.0720  0.2289
11928PP      PP22032   2.863   5.406   4.428 -0.3772  0.1494 -0.1977
11929PP      PP22033  10.913   4.238   2.947 -0.3415  0.4592 -0.1689
11930PP      PP22034   6.102   8.300   5.428  0.1328  0.0551 -0.0587
11931PP      PP22035   4.502   6.898   1.699 -0.1555 -0.1571  0.0490
11932PP      PP22036   9.239   1.942  11.496  0.0202 -0.1137 -0.1511
11933PP      PP22037   1.090   4.648  11.168 -0.1378  0.2673 -0.0252
11934PP      PP22038   0.793  10.335   2.904 -0.1311  0.0383  0.2095
11935PP      PP22039   9.756  15.108   9.467 -0.1114 -0.2503 -0.3153
11936PP      PP22040   2.175  13.616  12.604 -0.3601  0.2189 -0.1357
11937PP      PP22041  15.651   1.574   4.164  0.1370 -0.4513  0.1225
11938PP      PP22042  11.981   7.314  11.572 -0.0250  0.0988 -0.0963
11939PP      PP22043   3.201  13.225  10.882  0.0105 -0.2102  0.0505
11940PP      PP22044   5.011  15.206  10.533  0.1017 -0.3695  0.1162
11941PP      PP22045  13.192   8.567   1.550 -0.2526  0.0701  0.0260
11942PP      PP22046   7.561  11.738   1.350  0.1613 -0.0299 -0.0387
11943PP      PP22047   9.220   2.953  11.269 -0.4959  0.2579  0.0438
11944PP      PP22048   1.797  11.072   9.559  0.0632  0.3103 -0.5910
11945PP      PP22049  11.302   3.197   1.408 -0.1641 -0.2069  0.3362
11946PP      PP22050   0.582   4.215  11.855  0.0938 -0.2367  0.0752
11947PP      PP22051  10.086   7.682  10.735  0.0297  0.0261  0.4363
11948PP      PP22052   9.173  13.440  10.093 -0.0836 -0.1218  0.1229
11949PP      PP22053   4.542  11.591  13.259 -0.0236 -0.1550 -0.2728
11950PP      PP22054   2.690   9.953   3.474 -0.2320 -0.0843  0.2767
11951PP      PP22055   1.175  15.405   3.489  0.0178  0.0659 -0.1899
11952PP      PP22056   2.982  14.730   3.130  0.0944 -0.2648  0.0373
11953PP      PP22057   2.394   2.180   2.517 -0.2219 -0.0820 -0.2197
11954PP      PP22058   6.927   1.201   2.867  0.3828 -0.2747 -0.0975
11955PP      PP22059  10.901  14.049   1.313  0.3722 -0.0653  0.0387
11956PP      PP22060  11.756   9.251   4.301 -0.3564 -0.2064 -0.0588
11957PP      PP22061   4.671   0.850  11.778  0.2347 -0.0497  0.4401
11958PP      PP22062   8.254   3.215   2.215  0.0840 -0.1237  0.2773
11959PP      PP22063   0.897   9.498   3.075  0.0422  0.1771 -0.1701
11960PP      PP22064  14.418   0.756   8.915 -0.0086  0.2240 -0.3351
11961PP      PP22065   0.302   5.350  12.677 -0.1278  0.3576  0.0538
11962PP      PP22066   2.041   3.299  11.099 -0.1811  0.0345 -0.2357
11963PP      PP22067  14.508   0.605  12.992  0.0551 -0.1800  0.1070
11964PP      PP22068  14.124   0.594   1.063 -0.1204  0.1722 -0.0056
11965PP      PP22069   5.818  12.876   1.551  0.1549  0.0969  0.1028
11966PP      PP22070   6.973   4.550   0.345  0.0522  0.2099 -0.1699
11967PP      PP22071   8.845  15.617   0.055  0.2739 -0.1066 -0.2978
11968PP      PP22072  12.216  14.303   0.904 -0.1717 -0.2361 -0.0903
11969PP      PP22073  10.150  14.291   0.445 -0.2440  0.1100  0.0215
11970PP      PP22074   8.949   4.273   0.804  0.1577 -0.3039  0.3023
11971PP      PP22075   6.144   4.392   9.036  0.1273  0.1360  0.1957
11972PP      PP22076   3.868   7.601   4.443 -0.0030  0.1737 -0.2305
11973PP      PP22077   0.720   1.562   9.632 -0.1968  0.2519 -0.0313
11974PP      PP22078   9.689   4.539   2.991  0.2007 -0.1057  0.4747
11975PP      PP22079   1.086  15.864  12.679 -0.1028  0.0503 -0.2356
11976PP      PP22080   0.657  14.602   2.788  0.4828 -0.3739 -0.2064
11977PP      PP22081  11.561  12.960  12.547 -0.0299 -0.1882 -0.2143
11978PP      PP22082   5.693  13.966  10.717 -0.2127  0.4162 -0.2790
11979PP      PP22083   0.624   8.391  13.338 -0.1968  0.1733  0.0655
11980PP      PP22084   4.858  11.715   2.794  0.0313  0.2520 -0.2093
11981PP      PP22085   2.338  11.932   2.707  0.0922  0.1875  0.2682
11982PP      PP22086  13.338   8.260   0.697  0.0195  0.2485  0.1348
11983PP      PP22087  15.942  10.968  12.577  0.1710 -0.4801 -0.1005
11984PP      PP22088  11.240   8.054  10.151  0.1489 -0.0898 -0.3359
11985PP      PP22089   0.953   5.510  11.786  0.1015  0.2333 -0.0520
11986PP      PP22090  13.843   0.671   1.996 -0.0354  0.0701 -0.0119
11987PP      PP22091  14.495  12.624   9.476  0.1414  0.0590  0.4437
11988PP      PP22092   7.608  14.977  13.048  0.2030 -0.0492  0.2760
11989PP      PP22093  10.171  12.366   1.362 -0.1829  0.0996  0.2086
11990PP      PP22094   2.368  15.228   8.610 -0.0001  0.0983 -0.3420
11991PP      PP22095   7.494   2.790   2.294  0.1910 -0.1530  0.0746
11992PP      PP22096   5.407   5.274  12.516  0.2501  0.1957 -0.1656
11993PP      PP22097   5.967  12.165   0.930 -0.1057 -0.0430  0.0615
11994PP      PP22098  11.196  13.120   2.660  0.2604 -0.1398 -0.1287
11995PP      PP22099  12.354  10.155   1.470  0.0281 -0.0657 -0.0895
11996PP      PP22100   9.184   2.978   1.690 -0.1114 -0.0953  0.2182
11997PP      PP22101   3.829   7.921  12.905 -0.0764 -0.1493  0.0838
11998PP      PP22102   6.495  11.663  10.865  0.1216 -0.0670 -0.0176
11999PP      PP22103   1.989  11.582   2.224  0.0689  0.1580  0.0330
12000PP      PP22104  11.377   3.984  13.071 -0.3516  0.1004 -0.0577
12001PP      PP22105  14.645   4.728   1.188  0.0785 -0.0751 -0.0714
12002PP      PP22106  10.809   4.696   0.507 -0.2111 -0.0111 -0.0911
12003PP      PP22107  14.920  13.635   2.223  0.1033 -0.1097 -0.0762
12004PP      PP22108   2.232  11.351   9.638 -0.1379  0.1380 -0.2039
12005PP      PP22109   1.649   5.572   1.948 -0.2135 -0.1552 -0.0227
12006PP      PP22110   5.345   2.353  11.691 -0.2571  0.1512 -0.2264
12007PP      PP22111   8.359  14.230   0.216  0.0073  0.0730  0.0493
12008PP      PP22112   3.427   4.547   9.998 -0.0003 -0.3296 -0.1993
12009PP      PP22113   8.313  10.675   2.987 -0.0241  0.0162  0.0575
12010PP      PP22114   7.048   2.541   9.352  0.0254 -0.1493  0.4473
12011PP      PP22115   0.118   6.573   3.291 -0.2863  0.1761 -0.1144
12012PP      PP22116   7.716   4.349  11.709 -0.0578 -0.0921  0.1898
12013PP      PP22117  14.750  14.788   1.594  0.1391 -0.0599  0.3227
12014PP      PP22118   1.644   4.936   3.968  0.1742  0.2496 -0.0057
12015PP      PP22119   3.644  10.371   3.874  0.1323  0.0981  0.0399
12016PP      PP22120   7.273   3.509  10.951  0.0556 -0.1782 -0.2268
12017PP      PP22121   5.621  10.290   2.338  0.0825  0.0366  0.3510
12018PP      PP22122  12.699   1.222   1.462  0.0692 -0.5942  0.0193
12019PP      PP22123   6.668   8.099   0.681 -0.1209 -0.3285 -0.1129
12020PP      PP22124   9.823  13.478   0.148  0.2763 -0.0611 -0.1878
12021PP      PP22125  14.249  15.248   9.621  0.1606 -0.1055 -0.1073
12022PP      PP22126   9.157  14.625   2.378 -0.2138 -0.0369 -0.1364
12023PP      PP22127  12.851  13.137  13.367 -0.3028  0.0714 -0.2698
12024PP      PP22128  11.784   1.401   2.718  0.1307 -0.0052  0.2633
12025PP      PP22129   6.867   1.254   0.810 -0.1836 -0.2210  0.2054
12026PP      PP22130  15.208   8.625  12.968 -0.1936  0.0799  0.1648
12027PP      PP22131   9.553   7.701   3.459  0.1634  0.2344  0.0687
12028PP      PP22132   8.787   7.365   9.536  0.1102 -0.3855  0.3835
12029PP      PP22133  11.822   3.842  10.826 -0.0076 -0.0691  0.0036
12030PP      PP22134   2.579  11.073   1.607  0.3555  0.1555 -0.0442
12031PP      PP22135   3.284   5.220   1.231 -0.1419  0.2783  0.0867
12032PP      PP22136   2.911   5.424   9.500 -0.1569  0.1926 -0.1180
12033PP      PP22137  10.578   7.080   0.928 -0.0591 -0.0677  0.0510
12034PP      PP22138  11.433   7.872  12.280 -0.0702  0.1204 -0.1229
12035PP      PP22139  15.944   1.818   8.641  0.0083 -0.0899 -0.2059
12036PP      PP22140   8.104   7.547   0.068  0.1097 -0.0477  0.0235
12037PP      PP22141   5.505  15.567  11.555  0.1789 -0.0588 -0.0875
12038PP      PP22142  10.883   6.656   0.688 -0.2914  0.3653  0.0178
12039PP      PP22143   2.244   2.810  13.321 -0.3359  0.0982  0.1876
12040PP      PP22144   4.256   1.988  10.606  0.1293 -0.0358 -0.0796
12041PP      PP22145  11.230   4.850  11.883  0.1486 -0.1860 -0.0559
12042PP      PP22146  12.307   1.507   1.163  0.2124  0.2326 -0.2419
12043PP      PP22147   6.370  15.593   0.581 -0.3421 -0.0241  0.0897
12044PP      PP22148   3.869  10.120   1.424 -0.1370 -0.1540 -0.1194
12045PP      PP22149  14.966   3.932   0.069 -0.1588  0.2625  0.1493
12046PP      PP22150  14.509   6.810   2.285 -0.2344  0.1926  0.1440
12047PP      PP22151   0.055  14.140  11.408  0.0315 -0.1977 -0.1080
12048PP      PP22152   6.789  11.245  10.718  0.1947 -0.1451 -0.1379
12049PP      PP22153  11.985  10.280   8.355  0.3183  0.2281 -0.3337
12050PP      PP22154   3.071  11.237  13.387  0.4121 -0.1459 -0.0336
12051PP      PP22155   5.234   8.830   3.264 -0.0066 -0.1130 -0.2683
12052PP      PP22156  13.300  13.400   9.324  0.2670 -0.2865 -0.0379
12053PP      PP22157   1.778   9.927  11.165  0.0455  0.0387  0.2407
12054PP      PP22158   4.823   4.156  11.183  0.1191 -0.0958 -0.2097
12055PP      PP22159  13.485  13.383   1.326 -0.0784  0.0542 -0.2451
12056PP      PP22160   0.678   7.310  11.562 -0.1925 -0.0752  0.0544
12057PP      PP22161   7.630   5.503   9.296 -0.1486  0.0983 -0.3354
12058PP      PP22162   3.994  13.255   0.285 -0.1621  0.1016  0.0997
12059PP      PP22163  14.379   4.882   0.461  0.1861  0.0840  0.0892
12060PP      PP22164   4.268   3.170  12.164  0.2499  0.3450  0.0889
12061PP      PP22165  14.968   8.046  10.190  0.1260 -0.4930 -0.0319
12062PP      PP22166  10.288   0.659  11.524  0.2534  0.0261 -0.0430
12063PP      PP22167   2.222   1.958   0.562  0.2090  0.1122  0.4385
12064PP      PP22168  10.172   1.065   3.226 -0.2425  0.1335  0.1712
12065PP      PP22169   9.042  10.806   9.087  0.2582 -0.4709 -0.2582
12066PP      PP22170  14.469  13.673   2.534  0.0104 -0.1385  0.0066
12067PP      PP22171   7.308  14.580  12.035 -0.2775 -0.0440 -0.1198
12068PP      PP22172   6.629   3.940   1.117  0.1106 -0.0725  0.1116
12069PP      PP22173   2.393   0.832  10.065 -0.2165 -0.2773 -0.5844
12070PP      PP22174   3.596   1.406   8.733 -0.0665  0.0446  0.3101
12071PP      PP22175  10.530  12.161   2.513 -0.0068 -0.3896 -0.1214
12072PP      PP22176   9.009  13.430   9.381 -0.1893 -0.2904 -0.2399
12073PP      PP22177   5.588   6.786   3.789  0.1025 -0.0877  0.0963
12074PP      PP22178  10.110  10.485   0.912 -0.2188 -0.3276 -0.2775
12075PP      PP22179   4.765  12.781   8.541  0.0803 -0.1606 -0.0289
12076PP      PP22180   7.872   9.082  11.631  0.0196  0.2334 -0.1650
12077PP      PP22181  10.036  11.279  11.298 -0.1311 -0.2661  0.2736
12078PP      PP22182  12.584  12.034  11.276 -0.2167 -0.1224  0.3241
12079PP      PP22183  11.067  12.988  12.321 -0.1899 -0.1941 -0.1605
12080PP      PP22184   9.341  11.984  10.345  0.0468  0.0688 -0.0245
12081PP      PP22185   4.167  14.848  10.232 -0.0629  0.2330  0.3522
12082PP      PP22186   7.943  15.376  13.057  0.0767 -0.3756 -0.2416
12083PP      PP22187   2.677  13.447   9.155  0.0768 -0.2906  0.0070
12084PP      PP22188   9.378  14.434   5.173 -0.4273 -0.0429 -0.0271
12085PP      PP22189  11.317   1.497   0.935 -0.1451  0.0945 -0.1559
12086PP      PP22190   2.266  10.800  12.250 -0.1998 -0.0084 -0.2604
12087PP      PP22191   4.567   3.806  10.380  0.1279  0.0315 -0.0503
12088PP      PP22192  10.857   9.196   1.781  0.0133 -0.0400  0.0271
12089PP      PP22193  13.542   4.447   2.424  0.3246  0.1091 -0.1854
12090PP      PP22194   0.132   8.092  11.761 -0.0117 -0.0217 -0.0204
12091PP      PP22195   4.721   1.951   2.696  0.2500  0.0660  0.0083
12092PP      PP22196   9.613   1.135   0.877 -0.0022 -0.1254 -0.0871
12093PP      PP22197   7.926   5.691   0.405 -0.0823  0.0486 -0.0339
12094PP      PP22198  10.497   3.137   9.986 -0.3084  0.3371  0.2771
12095PP      PP22199   6.620   3.269   0.302  0.0475  0.1808 -0.1490
12096PP      PP22200  10.825   2.376  13.316  0.0589  0.1117  0.0287
12097PP      PP22201  13.564   2.885  12.505  0.0083  0.2676 -0.2319
12098PP      PP22202   3.817   5.776   2.949 -0.0737 -0.1601  0.0809
12099PP      PP22203   5.616   8.060  12.886 -0.1162 -0.0389 -0.1301
12100PP      PP22204  14.912   5.310  12.934 -0.3053 -0.1475 -0.0688
12101PP      PP22205  10.545  15.331   4.195 -0.2356  0.0058 -0.4697
12102PP      PP22206   6.212   5.236   2.074  0.1549 -0.0863  0.0203
12103PP      PP22207   5.916   4.021  13.175  0.0887 -0.0234  0.2047
12104PP      PP22208  13.600   2.655   1.339  0.1811 -0.0209  0.0129
12105PP      PP22209   8.303   9.236   3.504 -0.2478  0.0160 -0.0880
12106PP      PP22210   5.638  12.843  10.986  0.2936 -0.0069 -0.1516
12107PP      PP22211   6.095   5.728   9.096  0.0069  0.2187 -0.1872
12108PP      PP22212   1.792   8.154   9.139  0.0059  0.0058  0.3724
12109PP      PP22213  12.361  14.872   0.397  0.1667 -0.2010  0.0192
12110PP      PP22214   2.766  11.601   8.758  0.1677  0.2390 -0.0666
12111PP      PP22215  10.587   6.105   9.006  0.2592 -0.1877  0.0789
12112PP      PP22216   1.197  10.516   2.267  0.0364 -0.2672 -0.1967
12113PP      PP22217   8.621   4.828   1.523 -0.3371  0.1384  0.1320
12114PP      PP22218  10.291   0.593   2.282  0.0241 -0.1327  0.2182
12115PP      PP22219   8.644   8.789   8.977 -0.3441  0.1840  0.1103
12116PP      PP22220   4.185   9.868  11.861 -0.0469 -0.0252  0.0708
12117PP      PP22221   1.630  12.374   8.841 -0.0692  0.1114  0.1283
12118PP      PP22222   1.982   1.279   9.760  0.2093 -0.1441 -0.0857
12119PP      PP22223  14.617   5.664   4.172  0.0203  0.0794 -0.1656
12120PP      PP22224   7.418   6.416   3.303 -0.0212 -0.0789 -0.2803
12121PP      PP22225   6.770   9.005   1.939  0.0685 -0.2125  0.0662
12122PP      PP22226   0.048  13.590  12.544  0.0230  0.0600  0.1256
12123PP      PP22227  15.801   8.381   9.929  0.5737  0.0099 -0.1364
12124PP      PP22228  11.898   6.518   2.770  0.0072 -0.2834 -0.2477
12125PP      PP22229   9.105   0.074   1.087  0.1236  0.2873  0.3016
12126PP      PP22230  10.178  12.581  11.524 -0.1058 -0.0403  0.0276
12127PP      PP22231   5.892  11.926  12.496 -0.2863  0.0318  0.5007
12128PP      PP22232   6.958   2.818   3.012  0.1047  0.1863 -0.2064
12129PP      PP22233   4.013  13.161   3.103 -0.0450  0.0777 -0.2309
12130PP      PP22234  11.420  13.165   2.151 -0.3395  0.0021  0.0051
12131PP      PP22235   0.122   9.295   3.762  0.1048  0.1797 -0.1392
12132PP      PP22236   2.639   3.915  10.639  0.0856  0.0995 -0.0703
12133PP      PP22237   1.212   9.060  12.219  0.0091 -0.0790 -0.0158
12134PP      PP22238  12.272  15.391   1.403 -0.0834 -0.0737  0.2463
12135PP      PP22239   3.101   0.413  10.799  0.0695 -0.1473 -0.3202
12136PP      PP22240   9.846  11.797   4.024 -0.0044 -0.1628  0.2101
12137PP      PP22241   0.130  14.628  12.390 -0.1607 -0.1184  0.1625
12138PP      PP22242   8.178   8.741   4.350 -0.0034 -0.0614  0.1506
12139PP      PP22243   3.840   9.125   2.303  0.1666  0.1121  0.0109
12140PP      PP22244  10.820   4.812   8.301  0.3993 -0.1153  0.3140
12141PP      PP22245   7.202   7.742   3.752 -0.3805  0.0652 -0.4067
12142PP      PP22246  10.996   1.446   2.672 -0.0464 -0.3887  0.1254
12143PP      PP22247   5.957   1.958  11.758 -0.2456 -0.4185 -0.1537
12144PP      PP22248  13.046   6.835  12.578  0.3574 -0.0492  0.2954
12145PP      PP22249   4.078   8.316  10.204 -0.2766  0.1303 -0.1050
12146PP      PP22250   8.285  13.333  12.622 -0.1441  0.0537  0.1121
12147PP      PP22251   3.178   6.364   1.400  0.2660  0.0988  0.0401
12148PP      PP22252   6.928  15.811   0.679  0.0542  0.3425 -0.2291
12149PP      PP22253  13.443   1.413   2.531  0.1351 -0.1360  0.1320
12150PP      PP22254   0.248   0.711   6.559  0.0187  0.0472 -0.1700
12151PP      PP22255  14.636   1.847  11.725  0.1988  0.1212  0.2166
12152PP      PP22256   5.173   7.055  10.993  0.0980 -0.3122 -0.0925
12153PP      PP22257   8.986   4.119   2.593 -0.0086 -0.0671  0.2772
12154PP      PP22258  15.307   6.425   1.579 -0.1258  0.1528 -0.3792
12155PP      PP22259   2.112   6.232   3.285 -0.1761 -0.0042  0.1753
12156PP      PP22260   1.177  10.327   0.966  0.1545  0.0554 -0.2131
12157PP      PP22261   0.998   9.643   1.536  0.0199  0.0444 -0.1270
12158PP      PP22262  10.635  10.690   1.497  0.0328  0.3919  0.1869
12159PP      PP22263   8.922  13.433   0.935 -0.0482  0.3012  0.0844
12160PP      PP22264   9.382  13.240  11.282  0.0295 -0.2630 -0.1867
12161PP      PP22265   8.295   3.727   0.917  0.0806 -0.1309  0.1187
12162PP      PP22266   6.402   3.794  11.936 -0.0494  0.0783 -0.1147
12163PP      PP22267  13.095   3.354  12.506 -0.1498 -0.2569 -0.2728
12164PP      PP22268   0.303   3.982   1.019 -0.0136  0.0125 -0.2765
12165PP      PP22269   6.952  10.812  10.069 -0.0442 -0.0256  0.0176
12166PP      PP22270  14.473   7.371  10.767 -0.0906 -0.1758  0.1601
12167PP      PP22271  10.874   7.776   9.923  0.2063 -0.3578  0.1179
12168PP      PP22272  13.976  15.481  11.970  0.3023  0.1780  0.0254
12169PP      PP22273   6.149   1.549   1.474 -0.1121 -0.2241  0.0379
12170PP      PP22274   0.040   8.455  10.597 -0.1115  0.1781 -0.1128
12171PP      PP22275  14.465  13.857  11.721  0.1717  0.0153 -0.0560
12172PP      PP22276   8.399   7.818   3.984  0.0098 -0.2509 -0.0644
12173PP      PP22277  12.119  10.962  10.486 -0.0908 -0.3214  0.2720
12174PP      PP22278   6.466   6.430   0.663 -0.4449 -0.0344  0.0336
12175PP      PP22279   9.585   3.566   9.745  0.1094 -0.1531  0.0980
12176PP      PP22280   6.230   0.743   9.383 -0.1201  0.2947  0.2354
12177PP      PP22281   7.890  14.067   8.728 -0.0791  0.0191  0.1518
12178PP      PP22282   1.779   5.814  11.291  0.2343  0.3155 -0.3454
12179PP      PP22283   6.107   4.226   1.057 -0.0426 -0.1572 -0.1089
12180PP      PP22284   6.191   0.775   0.162 -0.0310 -0.0221 -0.1495
12181PP      PP22285   8.438  11.685  10.725 -0.3402  0.0826  0.0239
12182PP      PP22286  12.076   3.386   8.278 -0.1462 -0.0140  0.0239
12183PP      PP22287   8.255  10.165   3.019  0.1195  0.2454 -0.0204
12184PP      PP22288   7.096  10.127  10.913  0.2888 -0.0419  0.0156
12185PP      PP22289   0.865  13.875   0.276  0.1390  0.1117 -0.0820
12186PP      PP22290  13.694  13.236   2.294 -0.3465  0.1130 -0.0265
12187PP      PP22291   8.477  12.564   4.389 -0.1566  0.0458 -0.3547
12188PP      PP22292   3.183   5.508  10.705  0.4056  0.0361  0.4121
12189PP      PP22293   1.648   6.370   3.515 -0.1648  0.1499  0.0335
12190PP      PP22294  15.616   9.424   1.699  0.1688  0.1649  0.1266
12191PP      PP22295  10.671   2.143   1.278 -0.1620  0.2478 -0.1655
12192PP      PP22296  11.770  10.282  11.701  0.0601  0.1547 -0.0399
12193PP      PP22297   2.634  15.817   2.384 -0.5676 -0.1582 -0.1880
12194PP      PP22298   2.479  10.005   0.770  0.2122 -0.2288 -0.1204
12195PP      PP22299  13.026  14.321   9.401  0.0379  0.1907  0.1571
12196PP      PP22300  10.923  14.555  12.866 -0.1714  0.2164  0.0619
12197PP      PP22301  14.169   6.005   2.284 -0.1732 -0.1536  0.1505
12198PP      PP22302   1.441  15.739   3.205 -0.1840 -0.0009 -0.2024
12199PP      PP22303  10.874   5.674  11.979  0.1855 -0.0398  0.0121
12200PP      PP22304   2.700   6.536   4.163  0.0042 -0.1222 -0.2032
12201PP      PP22305   0.887  13.298   2.257  0.0311  0.0246 -0.0190
12202PP      PP22306  15.658   8.319  11.072 -0.0170 -0.0411  0.0749
12203PP      PP22307  11.144   4.591  10.876 -0.1170  0.0653  0.2941
12204PP      PP22308   0.354  13.324   7.910 -0.1349 -0.0869 -0.1003
12205PP      PP22309   6.042   3.403   9.500 -0.1259  0.4056  0.0121
12206PP      PP22310   4.506   1.662  11.278  0.0313  0.1786 -0.0724
12207PP      PP22311   7.229   8.825  13.097 -0.2958 -0.2034 -0.1055
12208PP      PP22312   7.107   5.107  10.068  0.0056 -0.1427 -0.1910
12209PP      PP22313  10.255   0.635   1.660 -0.0062  0.0743 -0.0303
12210PP      PP22314   1.406  10.325   4.090 -0.1108 -0.2109 -0.2035
12211PP      PP22315  12.558   2.298  11.763 -0.2020 -0.1159  0.1874
12212PP      PP22316   4.771   4.841   3.750  0.0782  0.0345 -0.0892
12213PP      PP22317  10.425   2.733  10.780 -0.2612  0.0235  0.2598
12214PP      PP22318   0.319   7.866   2.054  0.1819 -0.2109  0.0247
12215PP      PP22319   0.062   2.395   3.784  0.2655  0.0498 -0.0024
12216PP      PP22320  15.733   8.651  12.008  0.2176 -0.1354 -0.0674
12217PP      PP22321   8.365  13.336   4.841 -0.2198  0.0495 -0.0907
12218PP      PP22322   8.937  12.836   2.456  0.1317  0.0196  0.0810
12219PP      PP22323   8.056  11.714  11.000  0.0029  0.1987 -0.0209
12220PP      PP22324  12.585   6.016   3.748 -0.1671 -0.1785  0.0495
12221PP      PP22325   6.846   4.351  12.715  0.3246  0.1201  0.0932
12222PP      PP22326  10.923   1.975   9.930  0.2157 -0.2646 -0.0613
12223PP      PP22327  11.068   3.128   9.344  0.2743 -0.2597  0.0111
12224PP      PP22328  13.387  12.957   0.314  0.0976 -0.1067 -0.1044
12225PP      PP22329   0.284   3.495   1.632  0.2343 -0.1613 -0.1091
12226PP      PP22330   2.180   5.839   3.675  0.1278 -0.0424  0.0356
12227PP      PP22331   5.614   5.336   3.116 -0.2899 -0.0545 -0.3628
12228PP      PP22332   5.284  11.608  10.796 -0.0379  0.2637  0.0287
12229PP      PP22333  10.995   6.556   9.277  0.1753  0.0555  0.1343
12230PP      PP22334  13.866  10.011  11.963  0.4646 -0.1028  0.1068
12231PP      PP22335   7.737  10.243  13.293  0.2536 -0.0547  0.0649
12232PP      PP22336   1.619  13.099   8.263 -0.0849  0.3358 -0.1711
12233PP      PP22337   7.382  10.572   0.069  0.2544 -0.2026  0.3705
12234PP      PP22338  14.957  14.276  10.277 -0.0803  0.1085  0.0586
12235PP      PP22339  12.949  13.868   0.466  0.0279  0.0687  0.1251
12236PP      PP22340  13.423   8.696   3.657 -0.0498  0.1809  0.1531
12237PP      PP22341  11.472  13.635  10.955  0.3731 -0.1657  0.0308
12238PP      PP22342   2.602   4.933   9.778 -0.2285 -0.3386  0.2167
12239PP      PP22343  11.372   1.690  12.982  0.0495 -0.0003 -0.1193
12240PP      PP22344   1.200   1.543   8.342 -0.1223 -0.2065  0.2657
12241PP      PP22345   0.001   1.948  10.103  0.1146 -0.1669 -0.3962
12242PP      PP22346   0.735  11.443  11.387 -0.1763 -0.0082  0.1047
12243PP      PP22347   5.099   1.814   1.277  0.0731  0.1158  0.0284
12244PP      PP22348   7.546   3.885  11.812  0.2216  0.0267 -0.3140
12245PP      PP22349  10.690  10.902   2.538  0.3303  0.0487 -0.1388
12246PP      PP22350   8.657   0.677   4.442 -0.0837  0.1432  0.0797
12247PP      PP22351   5.119  10.606   9.299  0.1762  0.2073  0.0885
12248PP      PP22352   9.202   3.123   0.657  0.2308  0.1479  0.1639
12249PP      PP22353   9.108   7.002   1.577  0.1772 -0.2209  0.2044
12250PP      PP22354  14.939  11.507  10.998 -0.0316  0.0416  0.2323
12251PP      PP22355   6.189  13.919  11.224 -0.0318  0.1093  0.2911
12252PP      PP22356  10.600   6.931  11.167 -0.2224  0.0262 -0.2215
12253PP      PP22357   9.584   1.405   9.643 -0.2415 -0.1872  0.1082
12254PP      PP22358  13.897   3.301  10.701  0.0166  0.0406  0.1957
12255PP      PP22359   5.730  14.309   0.275  0.0547  0.3074 -0.4009
12256PP      PP22360   3.471   0.161   2.047  0.3010  0.0333 -0.0736
12257PP      PP22361  15.425  13.715   9.941  0.1047 -0.0084 -0.0412
12258PP      PP22362  12.744   1.306   0.943  0.0431 -0.3099 -0.0240
12259PP      PP22363   1.988   9.356   2.540  0.0991 -0.0531 -0.0282
12260PP      PP22364   8.646   4.103   2.950 -0.2928 -0.0964  0.2198
12261PP      PP22365  14.569   2.467   3.293 -0.1302  0.1330  0.2050
12262PP      PP22366   9.573   9.314   0.443 -0.0360 -0.2924  0.0391
12263PP      PP22367  13.794   2.223   2.707 -0.2040  0.0911 -0.1774
12264PP      PP22368   5.824   2.061   2.717  0.0304  0.1126  0.0520
12265PP      PP22369  10.053  13.991   4.520  0.2573 -0.2510 -0.0899
12266PP      PP22370   4.259  14.689   2.134 -0.1713 -0.0724  0.2524
12267PP      PP22371   4.895  10.734   3.920 -0.0518 -0.1066  0.0762
12268PP      PP22372  14.511   8.089   2.077 -0.4819  0.2296 -0.3871
12269PP      PP22373   3.964   8.525   9.770  0.4241 -0.0790  0.0072
12270PP      PP22374  11.165  15.104   0.850 -0.0235  0.2164 -0.0779
12271PP      PP22375   6.572  10.897  13.004  0.0576 -0.2445  0.1280
12272PP      PP22376   2.086  14.528   2.714 -0.1306  0.3864  0.0173
12273PP      PP22377  15.082   4.932  13.253 -0.3349 -0.0277 -0.1486
12274PP      PP22378   3.225  11.605   9.963 -0.0430  0.1580  0.0861
12275PP      PP22379   3.501  12.478  12.646 -0.1258  0.0904  0.2167
12276PP      PP22380   1.222   6.149  10.209  0.2537  0.0859  0.1534
12277PP      PP22381   2.739   0.773  10.968  0.2028 -0.0455  0.0090
12278PP      PP22382  12.126  12.264  11.016 -0.3105 -0.1104  0.2721
12279PP      PP22383  14.344   4.892   2.011 -0.2093 -0.1889 -0.0230
12280PP      PP22384  14.774   5.215   9.433 -0.1781  0.0941  0.1096
12281PP      PP22385   0.744  11.193   1.748  0.2616  0.2906  0.1545
12282PP      PP22386   1.993   5.175  12.049 -0.1339 -0.5153  0.2840
12283PP      PP22387   1.358   5.319   0.462 -0.2437  0.2036  0.0157
12284PP      PP22388   0.689   4.807  11.408 -0.0980 -0.0405 -0.0913
12285PP      PP22389  14.390  10.573  13.329  0.4656 -0.3613 -0.0158
12286PP      PP22390  13.270  15.666   3.087  0.3660 -0.0114  0.3110
12287PP      PP22391  14.702   3.801  10.738  0.1830 -0.1481  0.2316
12288PP      PP22392  11.379  14.456  10.520 -0.2259  0.4799  0.1746
12289PP      PP22393   7.798   1.057   2.379 -0.1054 -0.0414 -0.0842
12290PP      PP22394  10.346  15.066   3.498 -0.0208  0.1314 -0.0491
12291PP      PP22395   7.913  15.923  10.779  0.0512 -0.0005  0.1737
12292PP      PP22396  11.196   7.457  12.372  0.1703  0.3313  0.0980
12293PP      PP22397  14.753   4.187  12.538  0.0397 -0.2937  0.0920
12294PP      PP22398  12.892  14.598   1.142 -0.3048 -0.0337 -0.1092
12295PP      PP22399   1.162   1.862   8.768 -0.1018  0.3037  0.1422
12296PP      PP22400  13.848   1.249  13.219 -0.0548  0.1098  0.0030
12297PP      PP22401  13.812   1.214   2.818  0.0192 -0.0034  0.0132
12298PP      PP22402  15.471   6.885   0.347  0.1370 -0.1552  0.0939
12299PP      PP22403  14.115  11.721  12.454 -0.2337 -0.0520  0.2401
12300PP      PP22404   9.151  10.706   2.406  0.1792  0.3745 -0.1514
12301PP      PP22405   5.133   6.528   3.604 -0.0202 -0.1574 -0.0801
12302PP      PP22406   2.290   3.236   1.823  0.0675 -0.1255 -0.1989
12303PP      PP22407   1.888  12.219   3.982 -0.0208  0.0759 -0.3838
12304PP      PP22408   9.679  15.558   5.158  0.4050 -0.3288 -0.1524
12305PP      PP22409   9.330  15.554   1.775  0.1532 -0.0930 -0.2880
12306PP      PP22410  12.200   3.499  11.579  0.0473  0.1302  0.0843
12307PP      PP22411   6.452   2.826   0.103 -0.0932  0.3751  0.0594
12308PP      PP22412  10.786   9.019   0.896 -0.1900 -0.2565  0.1493
12309PP      PP22413   8.458   6.836   4.068  0.1553 -0.1604 -0.1156
12310PP      PP22414  12.324   5.137  10.832 -0.0307 -0.0095 -0.0196
12311PP      PP22415  15.635   0.787  10.814  0.3223 -0.0812 -0.3729
12312PP      PP22416   7.604   4.444   0.527  0.0708  0.0870  0.4082
12313PP      PP22417   7.597  15.188   3.031 -0.1486  0.0813  0.2354
12314PP      PP22418   5.312   6.221   3.926 -0.2327  0.4182  0.0526
12315PP      PP22419  13.129  15.151   3.951 -0.1424  0.1631 -0.0089
12316PP      PP22420   7.332   6.498  10.667  0.0486  0.4068  0.2351
12317PP      PP22421  12.881   8.710  11.587 -0.3300 -0.2174 -0.1254
12318PP      PP22422   4.021  14.516  10.562  0.1074  0.1426  0.0165
12319PP      PP22423   0.767  15.221  10.059  0.2207 -0.2151 -0.0994
12320PP      PP22424  13.571   8.373   1.139 -0.0295 -0.1287  0.1343
12321PP      PP22425   4.597   9.011   0.994 -0.1356 -0.2218 -0.1057
12322PP      PP22426   1.276  12.259  13.060 -0.2401  0.4011 -0.1278
12323PP      PP22427  11.759   3.595   2.266  0.0045  0.1548 -0.5457
12324PP      PP22428   7.455  12.621   9.534  0.1359  0.0805  0.3692
12325PP      PP22429  15.419   6.999  11.580 -0.0533  0.3362 -0.0748
12326PP      PP22430  14.185  12.274  10.099  0.1360 -0.0880 -0.2806
12327PP      PP22431  12.342  15.283  12.714  0.3623  0.2473  0.0166
12328PP      PP22432   3.961   0.049  11.346  0.0636  0.2704  0.0235
12329PP      PP22433   7.756   5.926   0.860 -0.2141  0.0468  0.0271
12330PP      PP22434   2.371   9.018   2.230 -0.0857 -0.2100  0.0401
12331PP      PP22435   8.070   8.205   3.264  0.1717 -0.0443 -0.0131
12332PP      PP22436   4.775   5.877   3.000 -0.0115 -0.2666 -0.0335
12333PP      PP22437   2.938  10.797  11.403  0.3024  0.0054  0.2438
12334PP      PP22438  14.550  10.323   8.884 -0.1990  0.3931 -0.0254
12335PP      PP22439  15.433  13.535   2.736  0.0057 -0.4061 -0.0271
12336PP      PP22440   3.888  12.734  11.192  0.2006 -0.0759  0.1070
12337PP      PP22441  10.478   8.862   8.789 -0.2324  0.3556 -0.1332
12338PP      PP22442  15.702   1.609  13.094 -0.0288  0.2711 -0.0977
12339PP      PP22443  13.549  12.792   2.491  0.1499 -0.6141 -0.0219
12340PP      PP22444   2.923   1.167   2.068 -0.1509 -0.1154  0.2979
12341PP      PP22445  12.900   4.908   1.831 -0.1817  0.3486  0.2526
12342PP      PP22446   5.723  15.876   2.193  0.0853 -0.0072  0.0950
12343PP      PP22447   8.681  14.796   2.366 -0.1102 -0.2088  0.2212
12344PP      PP22448  11.371  15.780   1.793  0.0288  0.1151 -0.1979
12345PP      PP22449  11.587  14.724  11.192  0.1316  0.0491 -0.0499
12346PP      PP22450   2.140   5.950  12.179  0.0211 -0.2518  0.2265
12347PP      PP22451  15.620   4.308   0.167  0.3254  0.1643  0.1472
12348PP      PP22452  15.154  14.643   1.974  0.1870  0.1420 -0.2058
12349PP      PP22453   3.553  14.622  12.988 -0.2965  0.0854  0.1325
12350PP      PP22454  15.307   0.642   9.197  0.3751 -0.4061  0.1599
12351PP      PP22455  11.620   2.069  10.935 -0.0718  0.1693  0.2458
12352PP      PP22456  11.067   9.203   1.312  0.1268 -0.0937  0.0005
12353PP      PP22457  12.588   9.769   4.495 -0.2296 -0.3422  0.0894
12354PP      PP22458   4.007   9.074   1.778 -0.0558 -0.2448  0.0691
12355PP      PP22459  12.658   3.635  12.357 -0.0134 -0.0622  0.1104
12356PP      PP22460   6.441   7.933   2.388 -0.2734 -0.0772  0.1385
12357PP      PP22461  13.022   4.507   2.729  0.1772  0.1543  0.2141
12358PP      PP22462  13.759   2.299  12.578 -0.0090  0.1034 -0.3268
12359PP      PP22463   2.847   7.051   3.976  0.2198  0.1773 -0.5580
12360PP      PP22464   0.346  10.312  10.632 -0.0291  0.3200  0.0570
12361PP      PP22465   7.511   1.963   2.608  0.1756  0.1150 -0.2548
12362PP      PP22466   6.903  13.257   1.672 -0.0925  0.0395  0.0263
12363PP      PP22467   1.675  12.452   3.165 -0.2121  0.2548 -0.0594
12364PP      PP22468   2.411   2.447  10.943 -0.0789  0.3427  0.2450
12365PP      PP22469   9.841   6.890   0.337  0.1243 -0.0113 -0.0328
12366PP      PP22470   8.969  14.455  11.067  0.1427  0.1535 -0.3219
12367PP      PP22471   6.784  14.834   1.078 -0.1495  0.0182  0.0220
12368PP      PP22472   2.982  14.051   1.773  0.2442 -0.1264  0.0148
12369PP      PP22473   2.884   5.629   0.870  0.1531 -0.1776 -0.1889
12370PP      PP22474   7.184  11.719   2.986  0.1184 -0.1142  0.0171
12371PP      PP22475  13.574   5.743   2.814 -0.0185 -0.0733 -0.1905
12372PP      PP22476   6.508  13.844   9.242  0.0178 -0.0298 -0.0029
12373PP      PP22477  10.532  12.811   5.279 -0.0386 -0.0660  0.2239
12374PP      PP22478  14.769  13.730  13.253 -0.0432 -0.1378  0.0950
12375PP      PP22479  14.447   7.654   0.926 -0.1226 -0.0665  0.0740
12376PP      PP22480   3.902   2.841  11.931 -0.0241  0.0846 -0.3815
12377PP      PP22481  14.434   1.239   9.132  0.2495  0.1394 -0.4611
12378PP      PP22482  14.725  10.033   1.538  0.2217 -0.3439  0.1723
12379PP      PP22483   2.610  15.684   8.682  0.1208  0.0490 -0.0927
12380PP      PP22484  11.411   0.995   3.099  0.1545 -0.1719 -0.2132
12381PP      PP22485  12.333   6.416   0.923 -0.0288  0.1694 -0.1832
12382PP      PP22486  11.128  10.722   2.655 -0.1117 -0.0254 -0.2068
12383PP      PP22487   7.982   3.733   1.363  0.2426  0.2652  0.1460
12384PP      PP22488   4.899   4.231  11.704  0.2212  0.1659  0.2755
12385PP      PP22489   8.804   3.950  11.892 -0.0885  0.1790  0.0259
12386PP      PP22490   7.423   2.386   2.014  0.2755  0.0476 -0.1592
12387PP      PP22491   5.732  13.467   0.947  0.1063  0.2097  0.1363
12388PP      PP22492   7.718   9.760   9.409  0.0934 -0.0999  0.0246
12389PP      PP22493  11.102  12.977  11.494  0.2506  0.2073 -0.0113
12390PP      PP22494  13.874   7.006  11.821 -0.1981  0.0322 -0.0570
12391PP      PP22495   9.361  11.486  10.662  0.3161  0.3890 -0.1029
12392PP      PP22496   0.618   1.281  10.994  0.0535  0.1226  0.0745
12393PP      PP22497   8.395   2.831  10.949  0.2568 -0.0825 -0.5090
12394PP      PP22498   7.862  11.503   8.729 -0.2174  0.0189 -0.1018
12395PP      PP22499   2.863  15.186   1.238  0.2790 -0.0235 -0.2736
12396PP      PP22500   9.934   2.266   3.951 -0.0153  0.0312  0.1455
12397PP      PP22501   9.808   6.360   3.917 -0.1158  0.1939  0.1511
12398PP      PP22502   5.667   7.843  13.372  0.1009 -0.2732  0.0026
12399PP      PP22503   3.987  12.272   8.483 -0.2139 -0.4152 -0.2205
12400PP      PP22504  10.139  10.977   4.119  0.3526  0.0262 -0.2221
12401PP      PP22505  13.690   7.880  13.112  0.1423 -0.0713 -0.2099
12402PP      PP22506   8.503  15.215   1.319  0.2443 -0.1395 -0.2226
12403PP      PP22507   2.947  13.826  12.219 -0.1293 -0.1818  0.3136
12404PP      PP22508   3.327   4.048  10.044  0.2500  0.0921  0.3676
12405PP      PP22509   5.979   0.117   1.578 -0.2364  0.2128 -0.0645
12406PP      PP22510  15.673   2.141   8.983  0.0382  0.0522 -0.0935
12407PP      PP22511   5.340   7.821  10.888  0.1609  0.1952  0.3477
12408PP      PP22512  13.935   3.447   9.184  0.0182 -0.0802  0.2977
12409PP      PP22513   3.582  12.571   0.956 -0.3034 -0.0142  0.2326
12410PP      PP22514   7.790   3.598  11.076  0.1097 -0.0502 -0.0166
12411PP      PP22515   8.524  12.030   1.568 -0.3530  0.0513  0.0393
12412PP      PP22516  14.776  13.700  12.480  0.0397 -0.2683  0.2000
12413PP      PP22517   4.530   0.150   0.202  0.2555 -0.0597 -0.1655
12414PP      PP22518   0.815   9.408  13.367  0.0976 -0.0950 -0.1808
12415PP      PP22519   9.857   8.623  11.236 -0.1810  0.1470 -0.0675
12416PP      PP22520   6.423  14.350   8.554 -0.0287  0.1088  0.1406
12417PP      PP22521   1.869  13.654   0.145  0.2211  0.0529 -0.1069
12418PP      PP22522   8.719   2.857   9.193 -0.2298 -0.1751 -0.0271
12419PP      PP22523  11.906   6.606   9.634  0.3409 -0.1887 -0.2814
12420PP      PP22524   9.717  10.764   2.390 -0.1191  0.1181  0.2336
12421PP      PP22525  11.062   6.956  12.264 -0.2337  0.0229  0.2721
12422PP      PP22526   4.001   4.161   1.597  0.2824  0.3126 -0.1575
12423PP      PP22527   3.631  11.288   3.899 -0.2552 -0.0889  0.0365
12424PP      PP22528  10.320   4.249   9.541 -0.0507  0.2006  0.2059
12425PP      PP22529  12.660   4.959  13.096  0.1865  0.0111 -0.1283
12426PP      PP22530  11.794  13.451   3.295 -0.0899 -0.2675  0.1687
12427PP      PP22531   1.492  11.334  12.686  0.2530  0.1716  0.0770
12428PP      PP22532   7.852   9.123   1.519  0.0758  0.0276 -0.0541
12429PP      PP22533  11.696  11.461   9.368  0.2334  0.3146 -0.0354
12430PP      PP22534  13.315  15.250   3.355  0.1172 -0.1688 -0.2513
12431PP      PP22535  11.771   5.512  12.371  0.1031 -0.0381 -0.2741
12432PP      PP22536   3.178   3.555  12.976  0.3423  0.0781  0.4177
12433PP      PP22537   5.021  10.552   0.975 -0.0119 -0.3282 -0.2160
12434PP      PP22538   7.553  11.043  13.389 -0.3249 -0.2103 -0.0497
12435PP      PP22539  14.694   6.967  13.082  0.0866  0.2780 -0.0459
12436PP      PP22540   9.919   9.858  12.506 -0.2450  0.2437 -0.2722
12437PP      PP22541   4.108   9.166  10.700 -0.3008 -0.0015  0.2480
12438PP      PP22542  14.340   0.171  10.871  0.1037  0.3133  0.0711
12439PP      PP22543   7.859  10.891  11.698 -0.2120 -0.1672 -0.0277
12440PP      PP22544   5.775  11.376  12.677 -0.2115 -0.1226 -0.0020
12441PP      PP22545   8.087   4.329  12.039  0.1714  0.0453 -0.0448
12442PP      PP22546   7.115  14.755  12.445 -0.1689  0.0804 -0.0201
12443PP      PP22547   8.371  12.560   0.084 -0.0739 -0.0315  0.0775
12444PP      PP22548  15.465   2.033   2.089  0.6541  0.0454 -0.1280
12445PP      PP22549  12.243   4.693   3.318  0.0948 -0.0511 -0.0266
12446PP      PP22550   8.699   3.455   9.962  0.1684 -0.3745  0.2610
12447PP      PP22551   9.918   8.007  12.011  0.1459 -0.2167  0.0886
12448PP      PP22552   9.000   9.510   8.751 -0.1399 -0.1104  0.4206
12449PP      PP22553  12.409   4.976   1.073  0.1688 -0.2669 -0.2439
12450PP      PP22554   0.938   2.490   2.998  0.0279  0.0046  0.1944
12451PP      PP22555   5.186  10.509   0.405  0.2311 -0.2688  0.1258
12452PP      PP22556   0.045   7.722   1.692  0.0689 -0.1728  0.2489
12453PP      PP22557  15.133   1.603  12.078 -0.0427 -0.1435  0.2336
12454PP      PP22558  13.677   2.956  11.979  0.3369 -0.2017  0.1661
12455PP      PP22559  11.178   2.272   1.214 -0.1903  0.3319  0.0437
12456PP      PP22560   9.550   9.154   9.284 -0.0484  0.1287  0.0978
12457PP      PP22561   4.454  15.259   0.710 -0.1983 -0.0017 -0.0029
12458PP      PP22562   9.666   9.446   5.109 -0.2419 -0.0976  0.3266
12459PP      PP22563  13.387  11.859   8.816  0.0436 -0.0479 -0.0606
12460PP      PP22564  10.458  13.012  11.386  0.0327 -0.2205 -0.1578
12461PP      PP22565   9.890  13.607   2.256  0.2817 -0.0479 -0.1920
12462PP      PP22566   2.094   3.440  11.949 -0.1650 -0.3192 -0.0488
12463PP      PP22567   9.533   3.089   0.178 -0.2122 -0.2194 -0.3696
12464PP      PP22568   0.930  13.845  13.013  0.4005 -0.1024 -0.0160
12465PP      PP22569  13.766  11.606   8.960 -0.0330  0.0506  0.0381
12466PP      PP22570   5.016  13.620  13.235  0.1522  0.2174  0.1009
12467PP      PP22571  12.853   0.613   4.678  0.0042  0.1605  0.2122
12468PP      PP22572   1.224  13.876  10.081 -0.0037 -0.0852  0.1931
12469PP      PP22573   5.672   9.836  10.387 -0.3708  0.0205  0.2518
12470PP      PP22574   6.043  15.038   1.631 -0.1978  0.0724  0.1539
12471PP      PP22575   7.727   9.938   2.048  0.0682 -0.0438 -0.1605
12472PP      PP22576   4.330  14.768  11.257 -0.1500  0.1089  0.1935
12473PP      PP22577   5.297   3.594   1.603 -0.0904 -0.2548 -0.1990
12474PP      PP22578   6.134   0.587   9.841 -0.0661  0.1095 -0.0452
12475PP      PP22579   0.766  12.997  13.327 -0.3847 -0.0303 -0.1284
12476PP      PP22580   2.783  10.576   0.801  0.1244  0.1720  0.0275
12477PP      PP22581   5.006   1.706  11.357  0.1130 -0.4732 -0.0862
12478PP      PP22582  11.573  14.992  10.551 -0.1526  0.1598  0.1741
12479PP      PP22583  11.373  14.883  10.131  0.1975  0.0839 -0.0495
12480PP      PP22584   1.801   2.393  12.215  0.0479 -0.3000  0.0161
12481PP      PP22585  12.024   5.861  12.650 -0.0875  0.2100  0.1304
12482PP      PP22586   3.550   3.600  10.153 -0.0733  0.1962  0.1047
12483PP      PP22587  11.068   5.984  12.971 -0.2297 -0.1390  0.0601
12484PP      PP22588   9.390  14.429  12.535 -0.1141 -0.3401  0.0881
12485PP      PP22589  14.434  12.632  13.003  0.0542 -0.2921 -0.0776
12486PP      PP22590   3.516   3.800   4.125  0.1163  0.2316 -0.2908
12487PP      PP22591   2.733   3.424  10.478  0.0513  0.2610 -0.1896
12488PP      PP22592   6.907   3.616   1.441  0.1431 -0.0340 -0.2424
12489PP      PP22593   8.766   3.978   9.028  0.0666  0.1521  0.1953
12490PP      PP22594   8.560  10.179  11.044  0.2738  0.2223  0.0568
12491PP      PP22595   0.656   0.185  12.807 -0.2140  0.1938  0.1441
12492PP      PP22596  13.118   6.193   1.317 -0.0404 -0.2211  0.0537
12493PP      PP22597   7.379   0.960  12.716  0.1210 -0.0263  0.1288
12494PP      PP22598   1.558   8.026  11.242 -0.0229 -0.0566  0.0808
12495PP      PP22599   9.748   3.255   0.549  0.1655 -0.1747  0.1228
12496PP      PP22600   8.412   1.420  10.617 -0.2555 -0.0730  0.0178
12497PP      PP22601  11.675  10.649  13.044 -0.0473 -0.2904  0.0761
12498PP      PP22602   4.559   7.869   4.634 -0.1630  0.1690  0.4198
12499PP      PP22603   6.068   3.080   9.016 -0.1847 -0.1001  0.0569
12500PP      PP22604  10.889   3.833   2.298 -0.1828 -0.1643 -0.2298
12501PP      PP22605   1.548   8.528  12.151 -0.0539  0.5206 -0.0185
12502PP      PP22606  10.723   3.562   1.173 -0.1690 -0.3046  0.0787
12503PP      PP22607   7.436   9.508   4.356 -0.1016  0.2309 -0.2655
12504PP      PP22608  15.164   1.990  11.171 -0.0581 -0.0657  0.0829
12505PP      PP22609   4.888   1.606   1.838 -0.0439 -0.0422 -0.0890
12506PP      PP22610   6.431  12.817   4.826 -0.1033 -0.1861 -0.0854
12507PP      PP22611   2.360  14.253  10.761 -0.2029 -0.2059 -0.1606
12508PP      PP22612   9.526   9.365  11.704 -0.3525 -0.0434  0.2607
12509PP      PP22613   4.908  14.482   1.371  0.0549  0.1184  0.0362
12510PP      PP22614  14.261   1.074   9.566 -0.4387  0.1957  0.1009
12511PP      PP22615  13.784   7.659   0.148 -0.2365  0.1540 -0.1691
12512PP      PP22616  14.814   3.218  12.541 -0.0702 -0.5182  0.3080
12513PP      PP22617  14.341   4.333   1.313  0.1558 -0.0086  0.2351
12514PP      PP22618  13.619   2.522   3.913  0.0260  0.0818  0.0132
12515PP      PP22619   6.517  12.427  11.517 -0.0670  0.0633 -0.2111
12516PP      PP22620   9.962  14.939  11.523 -0.0428  0.0745 -0.3274
12517PP      PP22621  13.040  12.344  13.228 -0.1262  0.1999  0.2234
12518PP      PP22622   8.861  12.700  10.627 -0.2923 -0.1885  0.3916
12519PP      PP22623   5.261   7.233   0.714 -0.3282  0.2855 -0.0456
12520PP      PP22624   5.562  14.939   1.792 -0.1621  0.5025 -0.3343
12521PP      PP22625  12.699  15.273   0.531 -0.0447 -0.3227 -0.4131
12522PP      PP22626   4.743  15.294   3.308 -0.0130  0.0833 -0.1321
12523PP      PP22627   0.771   8.209   1.381 -0.3284  0.1581  0.0339
12524PP      PP22628  14.181   2.513  11.772 -0.1743  0.0541 -0.0900
12525PP      PP22629   8.590   0.793   3.519  0.1171  0.0757  0.1788
12526PP      PP22630   2.701   3.555  11.078  0.4597 -0.1327 -0.3710
12527PP      PP22631  10.226   3.225   4.077  0.0088 -0.5105 -0.1286
12528PP      PP22632   2.886  10.743   9.984  0.0154 -0.0621 -0.0240
12529PP      PP22633  14.168  14.980   1.925  0.1398 -0.2750  0.0331
12530PP      PP22634   4.898   7.959  10.143  0.4509  0.0709 -0.2567
12531PP      PP22635   1.537  10.626   8.837  0.3583 -0.1200  0.1096
12532PP      PP22636  13.858   6.122   2.605 -0.2253  0.0164 -0.3413
12533PP      PP22637  11.524  14.878   2.496  0.3158  0.1148  0.3780
12534PP      PP22638  15.022   7.350   3.593 -0.1848  0.0431  0.1332
12535PP      PP22639   9.217   9.957  12.121 -0.0984  0.1512 -0.2227
12536PP      PP22640   9.619  10.089   3.094  0.1918  0.1841 -0.0410
12537PP      PP22641   2.335   3.558  10.731  0.2163 -0.0060 -0.2489
12538PP      PP22642   4.177  14.955  12.957 -0.0164 -0.3383 -0.1286
12539PP      PP22643   8.015   3.458   9.046  0.1555  0.1523 -0.0129
12540PP      PP22644   8.641   3.626  12.256  0.2796  0.0871  0.4283
12541PP      PP22645   6.158   2.366  12.326  0.1460  0.0166 -0.0435
12542PP      PP22646  13.834   5.437   9.624 -0.0372  0.2252 -0.1697
12543PP      PP22647  14.719   2.276   9.796  0.3235  0.0958 -0.0463
12544PP      PP22648   5.299   7.724   0.478 -0.2476  0.2107  0.0192
12545PP      PP22649   0.103   6.455   2.253 -0.0792  0.2249 -0.1506
12546PP      PP22650  12.078   9.813   9.891  0.2580  0.4407 -0.0159
12547PP      PP22651  12.838   8.945  11.061 -0.0364  0.1393 -0.1499
12548PP      PP22652   8.552   3.766   0.331  0.3257  0.1008  0.1067
12549PP      PP22653   3.975   7.046   8.890 -0.1326  0.1390  0.1511
12550PP      PP22654  12.202   1.180  13.069  0.0223 -0.0041 -0.2254
12551PP      PP22655  12.815   6.443  10.776  0.0196  0.2347  0.0138
12552PP      PP22656   1.954   5.829   8.696 -0.2130  0.0611 -0.1082
12553PP      PP22657  14.866   1.870   3.347 -0.1385  0.0618  0.3303
12554PP      PP22658   3.796   5.845   8.587  0.0282  0.1016 -0.0426
12555PP      PP22659  11.721   6.381   0.660  0.0454  0.0039  0.0904
12556PP      PP22660   5.563  10.834   0.506 -0.1517  0.0941 -0.3793
12557PP      PP22661   7.002   1.262   1.757  0.0946 -0.1807 -0.4244
12558PP      PP22662   5.498   3.025  12.866 -0.0237 -0.0953  0.2695
12559PP      PP22663   6.634   2.581  10.441  0.0697  0.0534  0.1484
12560PP      PP22664   2.488   0.013   9.970 -0.0549 -0.1018 -0.0052
12561PP      PP22665  11.429   9.810   1.157 -0.2183 -0.2352  0.0011
12562PP      PP22666  14.112   4.141  13.104  0.0905  0.1219 -0.0307
12563PP      PP22667  13.316   7.360   2.832 -0.2397  0.0879 -0.0479
12564PP      PP22668   0.269  12.785  13.144 -0.1616 -0.3984  0.2921
12565PP      PP22669   0.977  14.805   1.221  0.0008  0.0850  0.1206
12566PP      PP22670   0.355  11.612  10.756 -0.1993 -0.3614  0.2887
12567PP      PP22671   8.984   7.332   2.547 -0.0439  0.0843 -0.1193
12568PP      PP22672  11.155  15.011  12.523  0.3548  0.0806 -0.2995
12569PP      PP22673  11.339  12.449  10.151  0.0699  0.0091  0.0019
12570PP      PP22674   4.231   7.045   1.310 -0.1806 -0.0611 -0.1234
12571PP      PP22675  15.938   4.183  10.848  0.0242 -0.2433 -0.1067
12572PP      PP22676   5.192   8.209  12.066 -0.0500  0.1364  0.0335
12573PP      PP22677  15.607  10.153   8.929  0.0093 -0.1010  0.0766
12574PP      PP22678  10.119  13.049  10.052 -0.0052 -0.1367 -0.1819
12575PP      PP22679  12.355   1.675  11.523 -0.0560  0.0076  0.4331
12576PP      PP22680   6.052  10.695   8.986 -0.2468 -0.2720  0.2193
12577PP      PP22681  13.648  13.675  13.360  0.2439 -0.0616  0.0772
12578PP      PP22682  11.436  15.164   4.353  0.1227 -0.1077  0.2499
12579PP      PP22683   8.272   3.379  10.525  0.0616 -0.3930  0.1549
12580PP      PP22684  15.154   2.936   9.416  0.0325  0.0710 -0.2998
12581PP      PP22685   5.270   4.642   3.814  0.0918 -0.0875  0.3168
12582PP      PP22686   7.606   8.726  11.904  0.0456 -0.2082  0.2589
12583PP      PP22687   9.394  12.041   3.244 -0.1727  0.0155  0.0196
12584PP      PP22688  15.450   5.154   2.007  0.1746 -0.0507  0.1484
12585PP      PP22689  13.725   3.441   3.963  0.3279 -0.0986 -0.0329
12586PP      PP22690   5.449   8.106   2.727 -0.0438  0.0180 -0.3167
12587PP      PP22691  10.418   8.943   4.522  0.0278  0.0817 -0.0593
12588PP      PP22692   2.366  14.475  12.267  0.2309  0.1503 -0.1909
12589PP      PP22693  12.726  11.058  10.534  0.0769  0.0844 -0.0100
12590PP      PP22694  12.685   4.852  12.487  0.1693  0.1175  0.3425
12591PP      PP22695   3.403  13.672   3.324 -0.0658 -0.0071 -0.0771
12592PP      PP22696  10.850  11.523   4.039  0.0410 -0.1952  0.1683
12593PP      PP22697   2.624   0.254   4.102  0.0217 -0.0034 -0.0930
12594PP      PP22698  15.370   2.564  11.989  0.0163 -0.1043  0.0686
12595PP      PP22699   6.515   6.428  10.419  0.1649  0.2524 -0.1664
12596PP      PP22700  11.244  12.267  10.584 -0.1415  0.0826 -0.3132
12597PP      PP22701   4.267  14.056  13.204 -0.3060  0.0388 -0.0465
12598PP      PP22702  13.411  10.532   1.825  0.0218 -0.1663  0.0068
12599PP      PP22703   2.462   0.323   2.095 -0.3285  0.0026  0.1536
12600PP      PP22704   2.148   0.758   9.039  0.0722 -0.3654  0.1999
12601PP      PP22705   3.094   7.072   9.327  0.0147  0.1625  0.1175
12602PP      PP22706  15.593  10.874   4.081  0.0467 -0.0474 -0.1031
12603PP      PP22707   8.440  15.809   1.681 -0.4486 -0.2106  0.1477
12604PP      PP22708   9.943  13.504  13.034  0.2272 -0.0755  0.3303
12605PP      PP22709  13.101   1.361   3.542  0.1705 -0.0205  0.1160
12606PP      PP22710   2.784  15.057  10.030  0.0153  0.2182  0.1959
12607PP      PP22711   5.722   2.944   3.446  0.1132  0.1595 -0.2602
12608PP      PP22712  12.706   2.921  10.236 -0.3380  0.1475  0.0048
12609PP      PP22713   4.959   0.974   0.463  0.0772  0.2176 -0.1622
12610PP      PP22714   6.828  12.589   3.444 -0.4621  0.0227  0.1769
12611PP      PP22715   0.274   1.528   1.528  0.1276  0.0726 -0.0727
12612PP      PP22716   6.761   7.359   4.668  0.0021 -0.1517  0.0377
12613PP      PP22717  11.843  14.558   2.769 -0.0460 -0.0720 -0.0117
12614PP      PP22718  12.003  15.709   1.105  0.1393  0.1395  0.1334
12615PP      PP22719  10.418   7.659  12.012  0.0822 -0.3633  0.0151
12616PP      PP22720   4.804  15.926   1.952  0.0951  0.0206 -0.2457
12617PP      PP22721  12.567   1.293   9.826 -0.0867 -0.2234  0.1809
12618PP      PP22722  15.356   7.935  11.173  0.0742  0.1109  0.0622
12619PP      PP22723   2.501  15.796  11.303 -0.5623 -0.2007 -0.1226
12620PP      PP22724   0.495   7.845   0.898  0.0423 -0.1420  0.1250
12621PP      PP22725   5.376   0.318  13.366 -0.4167  0.1287  0.2703
12622PP      PP22726   7.981   4.235  11.006  0.0230 -0.1258 -0.0706
12623PP      PP22727   5.543   0.700  12.320 -0.3328  0.2157 -0.1634
12624PP      PP22728   7.223   8.074   0.435 -0.0020  0.1885  0.1959
12625PP      PP22729   2.904   7.391   9.660 -0.2928  0.2808 -0.0103
12626PP      PP22730   9.966   4.349  10.708 -0.0501  0.0539 -0.2017
12627PP      PP22731   7.936  14.484   1.723  0.0445 -0.1929  0.1437
12628PP      PP22732  14.959   6.776   9.813 -0.0222 -0.3039  0.2013
12629PP      PP22733   0.783   7.064   3.541  0.2711 -0.2668 -0.2863
12630PP      PP22734   9.128  12.398   2.688 -0.2001  0.0769 -0.1994
12631PP      PP22735  10.330   8.175   2.976 -0.0040  0.0274 -0.0458
12632PP      PP22736  12.172  10.064   4.546  0.2702  0.2055 -0.2329
12633PP      PP22737  15.251   7.365  11.330 -0.2663  0.0987 -0.0042
12634PP      PP22738   9.834  10.900  13.369  0.1034  0.2391  0.1507
12635PP      PP22739  14.473   6.559   9.437 -0.0966  0.0850  0.0711
12636PP      PP22740  10.178  14.860  13.387  0.1169  0.0290 -0.0140
12637PP      PP22741   0.445  14.523  10.923 -0.1187  0.1084 -0.1622
12638PP      PP22742  15.160   4.535   9.866 -0.0466 -0.2545 -0.1441
12639PP      PP22743  15.879   2.653   2.592 -0.0536 -0.1295  0.4169
12640PP      PP22744  14.734   2.974   7.649 -0.0614  0.4525 -0.0070
12641PP      PP22745  10.937   7.108   3.356 -0.1056 -0.5459  0.1188
12642PP      PP22746   5.935  13.004   0.731  0.1396 -0.1495 -0.0707
12643PP      PP22747   1.480  14.541   0.254 -0.3739 -0.3373 -0.1076
12644PP      PP22748   8.045   3.722   3.616  0.1544  0.0052 -0.1103
12645PP      PP22749   9.209   7.695   2.772 -0.3174  0.0544 -0.1418
12646PP      PP22750   8.788   8.913   9.856 -0.3515 -0.1734 -0.0737
12647PP      PP22751   4.329   0.526  12.059  0.1652  0.0883  0.2536
12648PP      PP22752  15.115   9.423  10.319 -0.0014  0.0954  0.0935
12649PP      PP22753  12.839   3.153   2.566  0.2763 -0.0673 -0.3865
12650PP      PP22754   1.088  15.585  12.239  0.0463  0.1170  0.0413
12651PP      PP22755  12.973   8.377  12.784  0.2420 -0.0245  0.1921
12652PP      PP22756   0.205   8.942   0.567  0.0443  0.0746  0.2254
12653PP      PP22757   9.461  13.443   9.700 -0.0593  0.1005  0.0320
12654PP      PP22758  10.761  13.894   3.979  0.0503  0.1889 -0.1041
12655PP      PP22759   5.784   5.110   9.415  0.2891  0.1988 -0.2076
12656PP      PP22760   4.120   3.751   3.866  0.0353 -0.2705 -0.3144
12657PP      PP22761  14.191   6.763  13.241  0.0550 -0.1038 -0.1719
12658PP      PP22762  13.345  14.857   1.043  0.1751  0.0372 -0.0178
12659PP      PP22763   4.601  11.760  10.658  0.0770 -0.1999 -0.2054
12660PP      PP22764  11.005   6.646  13.036 -0.0383  0.1409  0.1662
12661PP      PP22765   4.579  12.669   2.632  0.0946  0.1286  0.0857
12662PP      PP22766  15.283  10.120   3.021  0.1428 -0.1049 -0.0363
12663PP      PP22767   1.536   0.422  11.360 -0.1856 -0.0423  0.0314
12664PP      PP22768   8.793   6.229   0.117 -0.1415  0.0465  0.2190
12665PP      PP22769  14.968   0.833   1.800 -0.0866  0.0957  0.0052
12666PP      PP22770   5.758  11.853   8.311  0.3228  0.0926 -0.1021
12667PP      PP22771   6.683   2.412  13.082  0.2229 -0.3205 -0.3058
12668PP      PP22772  12.083   8.118  11.773  0.0595 -0.4272 -0.0204
12669PP      PP22773  11.538  14.494   2.136 -0.1457  0.0047  0.1091
12670PP      PP22774   6.468   4.188   9.603 -0.0504 -0.0187  0.2400
12671PP      PP22775  10.948   3.178   3.532 -0.0119  0.2472 -0.0514
12672PP      PP22776  11.480  12.745  11.230  0.0026  0.0224  0.2842
12673PP      PP22777   6.455  12.940  10.592  0.0363  0.2297 -0.0406
12674PP      PP22778   3.321   5.195   2.491 -0.2062 -0.1611  0.2380
12675PP      PP22779   4.248  15.935   3.106 -0.0881 -0.0634  0.0181
12676PP      PP22780   6.801  14.628   8.631 -0.0624  0.1198  0.4745
12677PP      PP22781   7.071  15.627  11.281  0.1280  0.0082  0.0069
12678PP      PP22782  10.981  10.296   3.293 -0.1883 -0.0285 -0.0940
12679PP      PP22783   1.248   1.791  11.579  0.0119 -0.0282  0.1542
12680PP      PP22784   1.386   1.680   3.618 -0.1252 -0.0775  0.0730
12681PP      PP22785  13.292   6.690  11.157 -0.1320  0.0206 -0.1149
12682PP      PP22786  15.524   6.083   4.183 -0.1173 -0.0808  0.3747
12683PP      PP22787   3.018  15.633   1.081  0.2493 -0.0568 -0.1762
12684PP      PP22788   4.519   4.667   0.502 -0.2100 -0.0767 -0.0619
12685PP      PP22789   8.107   2.800   2.404  0.0459  0.1832  0.0326
12686PP      PP22790   1.161   1.033   1.003  0.0437  0.0617 -0.4200
12687PP      PP22791  10.985  13.516   9.568  0.1355 -0.0815  0.0660
12688PP      PP22792   2.487  11.722   2.249 -0.1408 -0.1506 -0.0939
12689PP      PP22793  15.503  13.952   1.623  0.3074  0.2734 -0.0651
12690PP      PP22794  14.672  12.529   3.747  0.1531 -0.2030 -0.0230
12691PP      PP22795   4.379  11.406  12.687  0.1967 -0.2428  0.1457
12692PP      PP22796   8.163   3.574   0.013 -0.1558  0.1941 -0.1113
12693PP      PP22797   9.079  10.621  12.646  0.0547 -0.0297 -0.0733
12694PP      PP22798  14.089   6.139   0.091 -0.0493  0.0769 -0.2608
12695PP      PP22799   7.584   9.118  12.339 -0.2227 -0.2307 -0.5596
12696PP      PP22800  15.225  13.368  11.227  0.3064  0.0334  0.1231
12697PP      PP22801  15.895   6.579   0.740  0.2555 -0.0339 -0.1594
12698PP      PP22802   2.737  13.807  10.889  0.0648  0.2955 -0.0021
12699PP      PP22803   5.791  13.612   3.514 -0.0049  0.0945  0.0688
12700PP      PP22804   5.353   8.765   9.837 -0.2096 -0.0311 -0.1735
12701PP      PP22805   9.835   0.916  10.394 -0.1024 -0.0189  0.0012
12702PP      PP22806  10.524  10.632  11.619 -0.0342 -0.1796  0.0978
12703PP      PP22807   0.653  15.651   1.443 -0.2476  0.1467  0.1382
12704PP      PP22808  13.016   6.330   3.830 -0.0941 -0.0005  0.0133
12705PP      PP22809   8.259  10.714   1.068  0.1448  0.0335  0.0017
12706PP      PP22810   1.833  11.693  12.888 -0.3476 -0.0763 -0.2404
12707PP      PP22811  10.415   2.649  13.309  0.1219 -0.0787  0.3240
12708PP      PP22812   1.587   6.547   9.501 -0.1318 -0.0405  0.1237
12709PP      PP22813   8.560   2.847  12.805 -0.0213  0.0762 -0.1757
12710PP      PP22814   2.259   2.358   1.349 -0.1745 -0.1275 -0.1461
12711PP      PP22815  12.353   7.318  10.158 -0.4442  0.0654  0.0152
12712PP      PP22816   8.552   0.009   3.924 -0.0164  0.3624  0.0676
12713PP      PP22817   2.926   4.538  12.134 -0.2438 -0.0389  0.1685
12714PP      PP22818   6.883   9.080   1.421  0.2751  0.0667  0.2523
12715PP      PP22819   7.566   3.977  10.275  0.0021 -0.4283 -0.0800
12716PP      PP22820  14.223   3.435  10.133 -0.1106 -0.0737  0.1833
12717PP      PP22821   8.741   8.522  10.339  0.0529 -0.0306  0.0634
12718PP      PP22822   0.017   5.871   1.462  0.1878  0.1093 -0.0987
12719PP      PP22823   5.545   6.770  10.659 -0.0228 -0.0956 -0.2130
12720PP      PP22824  12.036   4.850  13.274  0.0624  0.3554 -0.1670
12721PP      PP22825   0.638   5.524   0.885 -0.2139 -0.0967  0.0423
12722PP      PP22826   4.225  10.671   0.130 -0.0211 -0.1533 -0.0275
12723PP      PP22827  11.453   3.878   2.043  0.0741  0.0313 -0.0398
12724PP      PP22828   6.620  11.774   2.985 -0.5415  0.0458  0.0859
12725PP      PP22829   8.703   5.248   1.226 -0.1859  0.2834 -0.4509
12726PP      PP22830   4.359   3.525   8.567 -0.2171 -0.0786  0.3294
12727PP      PP22831  10.466   5.041   0.234 -0.0457  0.0246 -0.0173
12728PP      PP22832   4.301   1.079  12.449  0.0222 -0.1730  0.1528
12729PP      PP22833   8.539   4.240  12.201 -0.0172  0.3201 -0.0863
12730PP      PP22834   5.683   7.133   4.152  0.0269  0.0411 -0.1142
12731PP      PP22835   7.501  11.694   2.501  0.2319  0.1323  0.0099
12732PP      PP22836  12.890  14.733   4.059  0.0729 -0.0120 -0.1061
12733PP      PP22837   6.591  13.978   0.043  0.0901 -0.1356 -0.0574
12734PP      PP22838   7.476   2.724   3.225 -0.0024  0.0440  0.0733
12735PP      PP22839  10.556  14.553  10.888  0.0314  0.3315 -0.1288
12736PP      PP22840   8.494   1.672   0.379  0.2433 -0.0147 -0.1336
12737PP      PP22841   7.287  13.765   2.643  0.0706 -0.0082  0.0863
12738PP      PP22842   1.173  12.476   3.978  0.0708 -0.1140 -0.1269
12739PP      PP22843  15.079  15.485   0.260  0.0329 -0.1053 -0.0022
12740PP      PP22844  10.697  10.463   2.219  0.1060  0.2385  0.0221
12741PP      PP22845   7.364   5.025   1.154 -0.3194 -0.0359  0.3552
12742PP      PP22846   1.334   5.217   1.312  0.1516  0.0197  0.0337
12743PP      PP22847  10.025  14.543   4.746  0.0277 -0.1941 -0.2804
12744PP      PP22848   4.269   8.099   0.112 -0.1128 -0.0903 -0.1152
12745PP      PP22849   1.356   6.631   9.939  0.0502  0.0860  0.2179
12746PP      PP22850   7.412   2.367   1.178 -0.1406  0.0358 -0.0786
12747PP      PP22851   9.612  11.307  12.536  0.1763  0.2801  0.2839
12748PP      PP22852  14.677  15.869  10.625 -0.4078 -0.0427  0.2441
12749PP      PP22853   8.109   7.590   9.574 -0.2260 -0.0212  0.1505
12750PP      PP22854   1.277   9.617  12.206  0.0643 -0.2331  0.3125
12751PP      PP22855   5.395  10.803   2.385 -0.0943 -0.0046 -0.1295
12752PP      PP22856  13.858  10.247   0.993 -0.1777  0.0012 -0.0118
12753PP      PP22857  15.341  11.610  10.605 -0.1225  0.2389 -0.1844
12754PP      PP22858  13.698   0.388  11.746  0.0306  0.0037 -0.1137
12755PP      PP22859  11.777   8.225   0.695 -0.0157 -0.0456  0.1982
12756PP      PP22860   5.162  15.280  11.347  0.1548 -0.1165  0.0204
12757PP      PP22861   0.476  15.088   3.434 -0.2631  0.0093  0.2306
12758PP      PP22862   4.412  12.767  10.488 -0.2317  0.0436  0.0681
12759PP      PP22863  11.848  14.545   1.185 -0.0279 -0.1727 -0.0914
12760PP      PP22864   3.421  13.806  12.688  0.0829  0.1443 -0.0561
12761PP      PP22865  12.956   7.168  11.338 -0.0760  0.2601 -0.0470
12762PP      PP22866  15.417   3.176   1.968 -0.1028  0.4007 -0.0133
12763PP      PP22867   7.911  10.343  11.712  0.0924  0.0821 -0.0252
12764PP      PP22868   9.630   2.788   0.539  0.0710 -0.1841 -0.1864
12765PP      PP22869   9.405  14.084  10.000 -0.0891  0.3217 -0.0149
12766PP      PP22870   6.560   4.410   0.028  0.1231 -0.1408 -0.3241
12767PP      PP22871   2.891   0.308  11.231  0.4418 -0.0434 -0.1789
12768PP      PP22872   6.496   3.952   8.974  0.3493  0.1371 -0.2980
12769PP      PP22873   8.472  15.764  10.260  0.3354 -0.0296  0.0331
12770PP      PP22874  10.330   6.190  10.674 -0.2521 -0.1205 -0.3037
12771PP      PP22875  12.365  14.232  12.801 -0.0990  0.0336  0.2153
12772PP      PP22876   1.376   8.115   0.603 -0.4407  0.3194 -0.0025
12773PP      PP22877   6.872   6.223   9.047 -0.0201 -0.2697 -0.1969
12774PP      PP22878   5.731   5.661   1.518  0.1221 -0.0118 -0.1916
12775PP      PP22879   3.988   5.462   4.651 -0.0360 -0.2257  0.2272
12776PP      PP22880   7.730   4.509   1.970  0.0859 -0.0204  0.0530
12777PP      PP22881   8.406   7.607  10.927  0.0921  0.0751  0.0074
12778PP      PP22882   4.702   8.082   1.626  0.1480 -0.1282 -0.3803
12779PP      PP22883   3.940   4.596   9.243 -0.2755 -0.0906  0.2158
12780PP      PP22884   9.734  13.934   1.920  0.0878 -0.1163  0.0806
12781PP      PP22885   5.612  11.099   3.455 -0.0130  0.1627 -0.0908
12782PP      PP22886   7.166   5.195   2.879  0.0572 -0.0080  0.2027
12783PP      PP22887   0.684   8.038   3.438  0.0888  0.0430  0.0945
12784PP      PP22888   7.236   9.591  10.126 -0.0911 -0.0753 -0.1996
12785PP      PP22889   0.069  11.645   0.521  0.3319  0.2749 -0.2344
12786PP      PP22890   1.588  15.306  11.224 -0.1496  0.0158  0.0362
12787PP      PP22891   4.148   9.412  10.157  0.2919  0.0123 -0.0842
12788PP      PP22892  12.009   4.058   2.624  0.2424 -0.0512  0.1342
12789PP      PP22893   9.271   0.784   1.155 -0.0236  0.1582  0.0565
12790PP      PP22894  11.842   5.060   3.429 -0.0554 -0.0996 -0.0160
12791PP      PP22895  15.585   2.778   8.419  0.0766  0.3377 -0.0017
12792PP      PP22896   8.353   1.877  12.737 -0.0195 -0.0262 -0.0386
12793PP      PP22897  11.424   8.708   2.303 -0.3038 -0.1223 -0.0576
12794PP      PP22898   2.898  14.305  12.402 -0.2815 -0.0686  0.0926
12795PP      PP22899   6.842   4.049   0.258 -0.0424 -0.1385 -0.1441
12796PP      PP22900  12.907   5.264   9.852  0.1003  0.1717 -0.0331
12797PP      PP22901   5.765  13.458  12.416  0.1282 -0.1441 -0.1134
12798PP      PP22902  10.007   1.439   1.228 -0.1426 -0.0429 -0.0691
12799PP      PP22903  15.103  10.248   8.733 -0.0252 -0.0152 -0.1380
12800PP      PP22904   9.626  10.087   3.586 -0.4661  0.3537  0.0930
12801PP      PP22905  15.623  15.226   0.327  0.0557 -0.2808 -0.0224
12802PP      PP22906  11.131   1.468   9.800  0.0119  0.2320  0.1959
12803PP      PP22907   6.015  13.375   9.972  0.0261 -0.2761 -0.1193
12804PP      PP22908   8.519   9.733  10.167  0.1176 -0.1841 -0.1946
12805PP      PP22909   2.560   5.788   2.349 -0.1765  0.4174 -0.1471
12806PP      PP22910   0.067  11.808  11.114  0.1756 -0.3204  0.3474
12807PP      PP22911  15.710   8.101   1.583  0.3427  0.0480  0.5602
12808PP      PP22912  15.566   7.009   0.794 -0.3473 -0.2149 -0.0489
12809PP      PP22913  15.040   1.532   8.689  0.1387 -0.3210 -0.0888
12810PP      PP22914  11.880   8.278   4.027 -0.0376  0.0495 -0.0036
12811PP      PP22915  13.944   9.045  11.193  0.2175  0.1277 -0.4941
12812PP      PP22916   3.083  11.790   0.046 -0.2077  0.0651  0.1203
12813PP      PP22917  12.187   8.594   1.628 -0.1414  0.2531  0.5153
12814PP      PP22918   2.948   0.811   8.976  0.0660 -0.0245 -0.0825
12815PP      PP22919   2.763   9.197  10.533 -0.0630 -0.0918 -0.2038
12816PP      PP22920   4.512   9.838   9.985 -0.2015  0.1394 -0.3800
12817PP      PP22921   2.288  11.647   8.831 -0.0628  0.3624  0.0914
12818PP      PP22922   7.070  10.285   8.524 -0.2500  0.0493  0.1106
12819PP      PP22923  12.835   9.618  12.259 -0.0631 -0.3304  0.1855
12820PP      PP22924  14.080   9.512   3.669  0.2568 -0.1734 -0.2384
12821PP      PP22925   6.212  15.094  10.120 -0.3527 -0.2285  0.1281
12822PP      PP22926  14.207   6.736   4.878 -0.0122 -0.1452  0.0414
12823PP      PP22927  14.337   4.183  10.828 -0.1690  0.0029 -0.0827
12824PP      PP22928   8.929  11.713  10.536  0.2317 -0.0286  0.0391
12825PP      PP22929   2.153   0.260  10.232  0.3761  0.2597  0.0671
12826PP      PP22930   3.626   3.014   2.337  0.0240  0.0786  0.0692
12827PP      PP22931   5.772   0.652  13.274  0.1493  0.2392  0.1073
12828PP      PP22932   2.956   8.039   0.821 -0.3334  0.0220 -0.1329
12829PP      PP22933   8.759   9.218   9.303 -0.3826 -0.0913 -0.1261
12830PP      PP22934  13.141  15.552   1.034 -0.0097 -0.3016  0.0042
12831PP      PP22935  14.767  12.637   8.578  0.1564 -0.0777  0.2045
12832PP      PP22936   2.604  14.267   3.958 -0.1821 -0.0430  0.2255
12833PP      PP22937   3.207   0.821   2.916  0.0422  0.0463 -0.0521
12834PP      PP22938   3.217   7.317  11.337  0.0323  0.0315 -0.2738
12835PP      PP22939   9.723  15.822  12.104 -0.1007 -0.1216 -0.1789
12836PP      PP22940   0.056  11.361   2.800  0.0361 -0.2018 -0.0172
12837PP      PP22941   2.424   3.057  10.145  0.1976  0.0945 -0.0302
12838PP      PP22942   7.795  10.344  10.405 -0.1678 -0.0657  0.0823
12839PP      PP22943   3.265   3.727  10.574  0.1639 -0.3603 -0.1042
12840PP      PP22944   9.650   6.198   0.578  0.1140  0.2594  0.2566
12841PP      PP22945  13.201  15.294  10.805  0.0245  0.0047 -0.3618
12842PP      PP22946   9.212   6.907   2.801 -0.0133 -0.0023 -0.0966
12843PP      PP22947   0.906   1.611   9.128  0.2027  0.0337 -0.0057
12844PP      PP22948   6.109   1.831  12.696 -0.2002 -0.0501  0.0274
12845PP      PP22949  12.523   9.808   3.086 -0.0897 -0.2321 -0.1558
12846PP      PP22950  15.571   0.304  11.674 -0.0108  0.0295  0.0051
12847PP      PP22951   4.489   2.489   0.911 -0.1845  0.1226  0.1757
12848PP      PP22952   4.957  12.273   8.325 -0.1661  0.2941 -0.2178
12849PP      PP22953   0.790   9.414   9.166  0.0043 -0.0554  0.3570
12850PP      PP22954   7.527   4.087   9.810 -0.2436 -0.0461  0.1570
12851PP      PP22955  14.280  10.473   3.942 -0.0359 -0.0702  0.0895
12852PP      PP22956  11.153   9.585   2.050  0.3595  0.0823 -0.0248
12853PP      PP22957   1.045   9.351   3.805  0.0778  0.0827  0.0867
12854PP      PP22958  11.043  11.707   1.779  0.1328 -0.1128 -0.1374
12855PP      PP22959  14.119   8.081   0.499 -0.3498 -0.2059  0.0087
12856PP      PP22960   5.216  10.543  10.793  0.1022 -0.2908 -0.0081
12857PP      PP22961  15.019  13.976   2.602  0.1295 -0.0865 -0.1703
12858PP      PP22962   2.690   8.822   3.554 -0.0716 -0.0532  0.1279
12859PP      PP22963  12.857  14.515  10.483  0.0223 -0.2913  0.2661
12860PP      PP22964  14.984  14.826   2.439  0.1150  0.2665 -0.3351
12861PP      PP22965  12.431   8.790   2.062  0.2838  0.0839  0.2330
12862PP      PP22966  15.836   1.868  10.669 -0.1532 -0.0884  0.3389
12863PP      PP22967  13.698   1.887   8.774  0.2779 -0.2457 -0.2565
12864PP      PP22968   0.618  13.292  12.293  0.2787  0.1846 -0.0475
12865PP      PP22969   8.137   9.962  13.141  0.3255 -0.0708 -0.3397
12866PP      PP22970   7.882   5.277  13.363  0.1648  0.0018  0.3547
12867PP      PP22971  10.210   7.674   8.897  0.0632 -0.2419  0.3132
12868PP      PP22972   8.931  11.109   2.565  0.0250  0.0743  0.4070
12869PP      PP22973  13.400   0.494  10.385 -0.2118 -0.1766  0.0041
12870PP      PP22974   6.309  11.005  10.022 -0.0192  0.1132  0.2045
12871PP      PP22975   4.426   4.025   8.718  0.1023 -0.0415 -0.3685
12872PP      PP22976   8.293   7.987  10.342 -0.0014  0.1581  0.0062
12873PP      PP22977  10.772  10.189   9.228 -0.1917  0.2856  0.1257
12874PP      PP22978   4.367  12.893   3.387 -0.0582 -0.0251  0.0172
12875PP      PP22979   1.052   4.477   1.801 -0.0414  0.0002 -0.1293
12876PP      PP22980   9.722   1.895  12.660 -0.0550  0.1386  0.1490
12877PP      PP22981   0.943  13.868   1.164  0.1204 -0.1859 -0.3146
12878PP      PP22982   5.728  14.208   4.269  0.0459  0.0209  0.3081
12879PP      PP22983  14.447  13.469   9.039 -0.2493  0.0136  0.1859
12880PP      PP22984  10.654   9.713   4.846  0.0430 -0.3875 -0.1596
12881PP      PP22985   8.139   6.646   3.683 -0.2056  0.0961  0.0991
12882PP      PP22986   9.144   3.331   9.678 -0.1011 -0.0132  0.0053
12883PP      PP22987  10.976   2.593  12.352  0.0794  0.1779  0.1043
12884PP      PP22988   0.628   6.525   3.287 -0.1228  0.0312 -0.0266
12885PP      PP22989  14.397   8.968  11.942  0.3876 -0.1660 -0.2477
12886PP      PP22990   4.862   3.137   9.618 -0.2515 -0.2538  0.0478
12887PP      PP22991   9.176   2.462   0.790  0.1797 -0.0420  0.0476
12888PP      PP22992   8.586   6.286  10.943  0.2632  0.2544 -0.3211
12889PP      PP22993   3.763   6.057  12.852  0.3391 -0.0905 -0.0725
12890PP      PP22994   0.592  10.023   3.933 -0.1666  0.1883  0.3381
12891PP      PP22995   1.063   5.688   0.659  0.3102 -0.0693  0.2266
12892PP      PP22996   5.760  13.741   0.000  0.1048 -0.2455  0.0989
12893PP      PP22997   4.326   7.573   9.772 -0.1061  0.3763 -0.1941
12894PP      PP22998   9.403   5.615  11.916  0.0733  0.0295  0.1013
12895PP      PP22999   4.309   7.394  10.265 -0.0123  0.2199 -0.0265
12896PP      PP23000   5.000  11.464  10.406 -0.0938 -0.0886  0.0106
12897PP      PP23001  13.723   5.127  10.081 -0.0377 -0.2649  0.0962
12898PP      PP23002   3.341  10.270   1.624  0.0112  0.2181 -0.2075
12899PP      PP23003   5.830   8.676   2.427  0.0287  0.2228 -0.0462
12900PP      PP23004  14.020   5.292  12.272  0.0035 -0.0492 -0.3344
12901PP      PP23005   5.447   0.855   2.273  0.1274  0.2035  0.3731
12902PP      PP23006  14.866  15.321  12.271  0.0819  0.1644 -0.0455
12903PP      PP23007   2.369   0.950  11.840 -0.0596 -0.1352  0.1303
12904PP      PP23008   0.697  10.676   2.502 -0.3853 -0.2791 -0.0583
12905PP      PP23009   8.763   4.719   0.553  0.1003 -0.1427 -0.0404
12906PP      PP23010   7.900  12.018   2.255 -0.1273 -0.3100  0.1525
12907PP      PP23011   2.995   9.953  12.190  0.2039  0.2168  0.1510
12908PP      PP23012  10.664   3.421   1.905  0.4057 -0.0060  0.0771
12909PP      PP23013  10.830   3.167   3.010  0.1813 -0.1730  0.0018
12910PP      PP23014  10.741  15.053  10.943  0.1786  0.0775 -0.0618
12911PP      PP23015  10.983  10.599  12.537  0.2485  0.1446 -0.1118
12912PP      PP23016   7.782   6.388   4.535 -0.0908  0.1537  0.2929
12913PP      PP23017   1.875  15.169  11.765  0.1771  0.0932  0.1517
12914PP      PP23018   3.196   7.218  10.124  0.1213 -0.0135 -0.0623
12915PP      PP23019  13.786   0.082   0.701  0.0282 -0.0005  0.1543
12916PP      PP23020   1.639  13.825  12.395 -0.1773 -0.1393 -0.1812
12917PP      PP23021   8.269  10.848  10.140 -0.1143 -0.2446  0.1518
12918PP      PP23022   4.758   3.017   2.053  0.3014 -0.3110  0.1878
12919PP      PP23023   8.955  11.063   2.071 -0.5265 -0.2662 -0.0839
12920PP      PP23024  13.630   6.523   9.882 -0.2048 -0.0571  0.0370
12921PP      PP23025   9.746   2.502   1.333  0.1028 -0.0158 -0.3780
12922PP      PP23026  13.713   7.956   2.214 -0.0150 -0.1240  0.1821
12923PP      PP23027  10.459  10.493   3.842  0.0227 -0.1584  0.2633
12924PP      PP23028   8.574   8.450  11.977  0.0515  0.2870 -0.1829
12925PP      PP23029   6.902   7.660  11.593 -0.3312  0.1318 -0.1711
12926PP      PP23030   2.667   7.004  13.359 -0.4783  0.0804  0.0733
12927PP      PP23031  14.791   5.468   2.973 -0.0276 -0.1391 -0.3654
12928PP      PP23032  14.943  11.776   0.809  0.0604  0.0522 -0.1797
12929PP      PP23033   3.241  15.262   9.925  0.2063  0.0996  0.0012
12930PP      PP23034  14.587   6.343  11.538  0.0050 -0.0729 -0.0679
12931PP      PP23035   1.099  14.684   2.561 -0.1090  0.6548  0.1243
12932PP      PP23036   8.278   7.218  11.373 -0.0685 -0.0914  0.0056
12933PP      PP23037   5.723  14.188  11.158  0.3267  0.3854  0.1883
12934PP      PP23038   2.111  12.956  11.185  0.1860  0.1915 -0.2330
12935PP      PP23039   1.535   3.277   3.607  0.0332 -0.1791 -0.1091
12936PP      PP23040  11.562  12.414   2.381  0.4663 -0.1793 -0.1436
12937PP      PP23041  11.717   0.311  12.076 -0.2499 -0.1731 -0.1475
12938PP      PP23042   1.014   8.859   0.312  0.0982 -0.1881 -0.0150
12939PP      PP23043   9.961   0.117  12.822 -0.1946 -0.0013  0.1201
12940PP      PP23044   0.989  15.256   8.976 -0.1478  0.0045 -0.2754
12941PP      PP23045  14.473   0.820   1.339  0.1108  0.1304  0.1454
12942PP      PP23046   9.912   6.100   2.147  0.0558 -0.2135  0.0507
12943PP      PP23047   0.649   3.496  11.040  0.0061  0.0634  0.0146
12944PP      PP23048   0.118   3.102  12.187  0.1569  0.1030 -0.0608
12945PP      PP23049  10.756  15.517  11.156 -0.1312  0.1384  0.2093
12946PP      PP23050  14.917  15.836   3.832  0.0980 -0.1455 -0.1180
12947PP      PP23051  13.607   6.729   1.617 -0.1785 -0.1609 -0.0278
12948PP      PP23052   6.548   0.359  10.657  0.1193 -0.2941  0.2250
12949PP      PP23053   9.381   9.468  12.948  0.2315 -0.0296 -0.2317
12950PP      PP23054   0.854   8.775   1.898  0.0419 -0.0320 -0.1088
12951PP      PP23055   9.368  14.612  11.998 -0.4349 -0.1950  0.2232
12952PP      PP23056  12.062   4.665   3.836 -0.0860 -0.1298  0.1772
12953PP      PP23057  15.896  11.359   3.523  0.2781  0.0813 -0.1891
12954PP      PP23058   4.804   7.711   2.435  0.3382  0.0290 -0.2031
12955PP      PP23059   3.710  12.693   8.313 -0.2967 -0.0752 -0.0273
12956PP      PP23060   9.815  11.443   1.764 -0.0293 -0.1546  0.2566
12957PP      PP23061  12.091   0.252  12.509  0.1105  0.0221 -0.2789
12958PP      PP23062   5.371  12.423  11.114  0.0349 -0.0506 -0.1606
12959PP      PP23063   0.760   9.039   9.507 -0.0868  0.0246 -0.1701
12960PP      PP23064  14.865   7.519   1.199  0.0587 -0.0372 -0.3887
12961PP      PP23065   4.223  12.534   3.641  0.0816  0.1229 -0.1174
12962PP      PP23066   5.378  14.860  12.129 -0.1866 -0.1077  0.1023
12963PP      PP23067   1.926  15.493   1.469 -0.2580 -0.2530 -0.1338
12964PP      PP23068   7.351   3.039   1.911  0.0037  0.1583  0.1086
12965PP      PP23069  11.545  15.292   9.258  0.6136  0.4001 -0.0854
12966PP      PP23070   2.070   1.070   2.238  0.0157  0.0934  0.1599
12967PP      PP23071   7.887   7.509  11.144  0.1979 -0.2129 -0.2286
12968PP      PP23072  12.916  15.099   4.388 -0.1532 -0.0680  0.0044
12969PP      PP23073   0.398  11.506   4.145 -0.0344  0.0686 -0.3542
12970PP      PP23074   7.635   7.661   2.148  0.3212  0.0832  0.5145
12971PP      PP23075   9.828   2.378   0.764 -0.3206 -0.0614  0.0188
12972PP      PP23076   9.785   0.621   0.908 -0.2702 -0.0631 -0.2179
12973PP      PP23077   6.632   7.775   2.992  0.0513  0.0960  0.0105
12974PP      PP23078  12.692  12.169   1.019  0.2216  0.1231 -0.2253
12975PP      PP23079  13.761   4.595   1.978 -0.0942 -0.3048  0.1649
12976PP      PP23080   6.278  14.173  12.072  0.0633  0.0242  0.2213
12977PP      PP23081   6.327  14.642   1.827  0.2098 -0.0449 -0.1745
12978PP      PP23082  12.663  13.771  11.101 -0.4854  0.0793  0.0144
12979PP      PP23083   8.825  13.457   0.404 -0.1887  0.0284 -0.1335
12980PP      PP23084   4.146  12.598   9.122  0.1461  0.1690  0.1080
12981PP      PP23085   1.391  12.731  11.834  0.2754 -0.0018 -0.1650
12982PP      PP23086   9.799  11.194   0.598  0.2344  0.2104 -0.0810
12983PP      PP23087   2.954   9.086   3.246  0.1735  0.2065  0.3895
12984PP      PP23088  11.662   4.433   2.411  0.3726  0.0819  0.0529
12985PP      PP23089  12.558  13.026  10.607 -0.0748 -0.0419  0.2088
12986PP      PP23090  14.611   1.228   0.473 -0.1159  0.1197  0.0034
12987PP      PP23091  14.775  11.637  10.503 -0.2996  0.0823  0.0719
12988PP      PP23092   7.891   1.500   3.909 -0.0833 -0.1065  0.1638
12989PP      PP23093   4.370   0.550  10.590 -0.0918  0.0447  0.0470
12990PP      PP23094  15.031   6.196  10.750  0.0196  0.1466 -0.1811
12991PP      PP23095   0.094   1.736  11.766  0.3910 -0.1786  0.2264
12992PP      PP23096   5.000  14.129   8.123  0.0178 -0.1114 -0.1069
12993PP      PP23097  12.195   2.197   4.010 -0.0111  0.3320  0.0253
12994PP      PP23098   5.520   9.269  13.107 -0.2171  0.0292 -0.1107
12995PP      PP23099   4.791   6.627   0.193  0.0090  0.0284 -0.1431
12996PP      PP23100   3.923   7.248  11.216 -0.1611  0.0664 -0.0014
12997PP      PP23101   5.807  11.376   1.754  0.0358  0.0501  0.0629
12998PP      PP23102   1.862   6.857   2.540 -0.1746  0.1826  0.0501
12999PP      PP23103   8.088   4.755  11.838  0.1219 -0.2171 -0.3728
13000PP      PP23104  14.138  15.496   9.146 -0.0686 -0.1028  0.1507
13001PP      PP23105   1.004   4.942  13.205  0.3535  0.1905 -0.0751
13002PP      PP23106   2.389   7.101   2.200 -0.1877 -0.0400 -0.1329
13003PP      PP23107   1.203   7.961   3.596 -0.1373  0.3192  0.0823
13004PP      PP23108   9.022   1.301   1.153  0.0908  0.1012 -0.0815
13005PP      PP23109  15.198   3.640  10.522 -0.2464 -0.3334  0.0194
13006PP      PP23110   2.637   6.434   8.564  0.0167  0.0216 -0.4370
13007PP      PP23111   7.241   7.417   3.396 -0.0142  0.0800 -0.3028
13008PP      PP23112   4.640   0.395   9.716  0.3966  0.0251  0.1789
13009PP      PP23113  10.394   1.113  11.657  0.1323 -0.1471  0.0219
13010PP      PP23114  15.290  10.475   9.162  0.0326 -0.0432  0.0633
13011PP      PP23115   2.912   0.256  12.669 -0.1164  0.0423  0.3679
13012PP      PP23116   7.768   5.339   1.263  0.0293 -0.0193 -0.1346
13013PP      PP23117   6.557  10.684   9.730  0.0846  0.1077 -0.0639
13014PP      PP23118   4.306   2.772   0.396  0.0907  0.1242  0.2745
13015PP      PP23119   4.292   1.367   9.903 -0.2477  0.1675  0.0485
13016PP      PP23120   6.329  11.329  12.821 -0.0163 -0.1412 -0.1148
13017PP      PP23121   6.600   9.455   3.368 -0.1005  0.1371 -0.0397
13018PP      PP23122  13.220  11.801   8.355 -0.0930  0.2191 -0.0276
13019PP      PP23123   3.136   8.421   9.918 -0.1103 -0.0573 -0.1637
13020PP      PP23124  13.910   6.710   0.776 -0.0916  0.3357  0.0496
13021PP      PP23125   8.379  12.169  11.746 -0.0876 -0.2738  0.1233
13022PP      PP23126  14.597   0.685   3.922 -0.3297  0.3399 -0.1386
13023PP      PP23127  10.980   9.770   8.984  0.2082 -0.0457  0.2287
13024PP      PP23128  14.393   7.871  11.013 -0.0040 -0.0786  0.0134
13025PP      PP23129   7.878   2.799   1.175 -0.2277 -0.3187  0.0702
13026PP      PP23130  10.698  11.765   2.166 -0.2535 -0.1561 -0.1362
13027PP      PP23131   4.703  14.986   2.193  0.1098  0.0379 -0.1110
13028PP      PP23132   4.938   2.936  10.124  0.1321  0.0563  0.4435
13029PP      PP23133  12.238   8.592   0.370  0.0328 -0.0506  0.2799
13030PP      PP23134   6.522   4.604  12.962  0.2358 -0.3055  0.0779
13031PP      PP23135   9.266  14.714   1.722  0.1225 -0.0959  0.0198
13032PP      PP23136  12.603  12.851  10.144  0.1059  0.1964 -0.1974
13033PP      PP23137   7.393   7.389  12.361  0.0616 -0.1229 -0.0047
13034PP      PP23138   2.355  14.499  11.742  0.0684  0.0418  0.2160
13035PP      PP23139   4.777   3.432   3.034  0.0735  0.0725  0.0537
13036PP      PP23140   0.569   3.700  11.887  0.3083  0.1250 -0.0849
13037PP      PP23141   8.649   2.872   3.087  0.1253  0.1349 -0.2804
13038PP      PP23142  10.761   6.562  11.596 -0.0347  0.1436  0.1176
13039PP      PP23143   9.901  10.622   1.904 -0.0954  0.0559 -0.1024
13040PP      PP23144   3.856   4.586  10.966  0.0242  0.0315 -0.0506
13041PP      PP23145   1.345   8.196   1.088 -0.2905 -0.2307  0.0566
13042PP      PP23146  15.062  12.657   0.449  0.1997  0.0882  0.3796
13043PP      PP23147   9.244  10.119   3.932  0.0878  0.0715  0.5673
13044PP      PP23148   6.225  12.424   1.582  0.1586  0.1336 -0.0433
13045PP      PP23149   0.253  15.281   3.823 -0.0655 -0.0250  0.1081
13046PP      PP23150   0.601  10.159   0.553  0.0970 -0.3112  0.0832
13047PP      PP23151   5.757   8.856  11.852 -0.1658 -0.1280  0.2609
13048PP      PP23152   3.075   5.795   0.221  0.2427 -0.0456 -0.1587
13049PP      PP23153   0.380  12.138   3.494 -0.4310  0.1954 -0.0218
13050PP      PP23154   9.744  13.930   9.651  0.1550  0.1189 -0.3032
13051PP      PP23155   6.350   0.198   3.717  0.1332 -0.1945  0.0633
13052PP      PP23156   6.431  14.550  11.791 -0.0652  0.2270 -0.0267
13053PP      PP23157   9.189   5.836  12.819  0.1505 -0.0763  0.0591
13054PP      PP23158   6.717   3.822   2.945  0.1695 -0.0050 -0.1217
13055PP      PP23159  13.555   2.068   1.907 -0.2536  0.1715  0.0250
13056PP      PP23160  14.185   1.882   2.580  0.4299  0.0939  0.0586
13057PP      PP23161   0.183   6.056  12.179 -0.0713  0.0140  0.1494
13058PP      PP23162   3.113  13.883  13.183 -0.4680  0.2520  0.4063
13059PP      PP23163  10.083  15.298   4.528  0.0602 -0.0064 -0.2631
13060PP      PP23164  15.533   2.255  13.265 -0.3056  0.1563 -0.2947
13061PP      PP23165   9.698   9.687   3.848 -0.0687 -0.2363  0.2386
13062PP      PP23166   8.677  11.517  12.362  0.0356 -0.1290  0.0716
13063PP      PP23167   4.177   1.276  11.058  0.0740  0.2309  0.0310
13064PP      PP23168   7.815   8.129   2.457 -0.0861  0.2209 -0.1671
13065PP      PP23169   9.799   1.795   1.644 -0.2478 -0.0524 -0.1146
13066PP      PP23170  11.821   6.812   8.736 -0.0408 -0.1819  0.1153
13067PP      PP23171   7.819  11.726  12.007 -0.1553 -0.3426 -0.1298
13068PP      PP23172   8.236   8.735   2.274 -0.0505 -0.1239 -0.1331
13069PP      PP23173  12.507   5.352   2.798  0.1166  0.0350 -0.1854
13070PP      PP23174   7.142  12.595   9.115  0.2660  0.2731 -0.3217
13071PP      PP23175   3.792   5.494  13.152 -0.0303 -0.0640 -0.3111
13072PP      PP23176   4.208   0.121   8.411 -0.0714 -0.0092  0.3708
13073PP      PP23177   3.672  13.186   3.537 -0.1208  0.0048  0.1030
13074PP      PP23178   8.147   2.081  10.788  0.0942  0.0092  0.0579
13075PP      PP23179   9.415   6.402   3.069  0.0518  0.2884  0.2536
13076PP      PP23180   4.139   6.741   9.874 -0.3630 -0.1294  0.0836
13077PP      PP23181   2.898  12.513  12.844 -0.1619 -0.0886 -0.1349
13078PP      PP23182   4.290  15.632   8.588 -0.1370 -0.2186  0.0990
13079PP      PP23183   9.646   2.059   4.936  0.3582 -0.2950 -0.2336
13080PP      PP23184  11.470   4.869  13.324  0.1635 -0.0024  0.0574
13081PP      PP23185   6.602   9.218   8.874 -0.4063 -0.1135 -0.2129
13082PP      PP23186   4.489   7.976   9.277  0.1548  0.1482  0.1348
13083PP      PP23187   4.509   3.886   9.600 -0.1117 -0.0629 -0.0338
13084PP      PP23188   4.884  12.761  12.942 -0.0135  0.0963  0.1700
13085PP      PP23189   1.753   6.526  12.982 -0.0191  0.0521 -0.1054
13086PP      PP23190  12.526   2.091   3.571  0.2188  0.0269  0.1066
13087PP      PP23191  12.087   3.917  12.256 -0.0956 -0.1148  0.1437
13088PP      PP23192   6.576   5.829   9.228  0.1665 -0.0776 -0.2688
13089PP      PP23193  14.051   9.986   9.626  0.1924  0.2696  0.0029
13090PP      PP23194   4.976   0.441  12.435 -0.2230 -0.0236  0.1517
13091PP      PP23195  12.527  11.648   1.080  0.0714  0.0075  0.3284
13092PP      PP23196  10.616   6.346   8.591 -0.0163  0.0909  0.2467
13093PP      PP23197   2.256   7.977   2.199  0.1321 -0.2728  0.1131
13094PP      PP23198  12.266   4.232   3.553 -0.2033  0.0406 -0.0547
13095PP      PP23199   3.674   5.515   9.974 -0.1298  0.1303 -0.2875
13096PP      PP23200  12.839   2.284   2.437 -0.0870  0.2196 -0.1594
13097PP      PP23201   4.066  12.704   2.292  0.0033 -0.0864 -0.0183
13098PP      PP23202   3.937   9.693   9.186  0.0512  0.1149 -0.1253
13099PP      PP23203   1.004   4.590  12.844 -0.2556  0.0674 -0.1101
13100PP      PP23204  14.709   3.215   8.482 -0.3236  0.0115 -0.1060
13101PP      PP23205   7.319  10.863   2.081  0.0212 -0.0256 -0.0971
13102PP      PP23206   3.278  12.097   4.194  0.1520 -0.0317  0.1455
13103PP      PP23207   3.444   7.032   3.262  0.0593  0.2197 -0.0942
13104PP      PP23208   5.197   8.836   1.172  0.2700  0.1323  0.2668
13105PP      PP23209  15.495  15.667   8.962  0.3493  0.0728  0.1516
13106PP      PP23210   5.046   5.998   0.019 -0.0332 -0.1781 -0.0317
13107PP      PP23211   7.634   6.584   0.167 -0.0706 -0.0966  0.2264
13108PP      PP23212   6.507   9.196  12.685 -0.1945 -0.1466 -0.0320
13109PP      PP23213  13.481  12.734   1.132  0.1402 -0.2314 -0.0654
13110PP      PP23214   8.097   3.437  11.584  0.0454  0.1333 -0.1164
13111PP      PP23215  13.331   4.989   4.628  0.2711 -0.3523  0.1083
13112PP      PP23216   7.426  14.292   2.696  0.0258 -0.3393  0.4578
13113PP      PP23217   3.727   1.577   1.675  0.0876  0.0790 -0.1041
13114PP      PP23218   4.671   0.302   3.264 -0.1016 -0.3583 -0.0163
13115PP      PP23219   7.390   4.651   0.093 -0.0975  0.1991  0.0445
13116PP      PP23220  10.380  10.415   9.813  0.1835 -0.0471  0.1991
13117PP      PP23221   4.477   6.833   8.805 -0.0419 -0.3102 -0.0021
13118PP      PP23222  10.858  12.598   3.313  0.2308  0.1113 -0.1426
13119PP      PP23223   5.844  10.078   3.736  0.3294 -0.1204 -0.1079
13120PP      PP23224   6.328   6.895  11.975 -0.2260 -0.1320 -0.1290
13121PP      PP23225   1.039   0.117   8.630  0.0140  0.1864  0.1343
13122PP      PP23226   4.588  14.462  12.288  0.0674  0.0179  0.1306
13123PP      PP23227   9.070   5.268  13.386  0.0518  0.0307 -0.5916
13124PP      PP23228  14.097   1.068   0.309 -0.2461  0.0393 -0.0073
13125PP      PP23229  12.542   2.178   9.372 -0.0765  0.5736  0.0171
13126PP      PP23230   1.724   4.790   1.283 -0.1894  0.0473  0.1587
13127PP      PP23231   1.090  15.447  11.133 -0.0033 -0.2769 -0.2844
13128PP      PP23232  15.860  12.765   1.687 -0.2099 -0.2898  0.0557
13129PP      PP23233   0.483   5.308   2.627 -0.0652  0.1838 -0.2034
13130PP      PP23234  13.159  10.176   4.213  0.1398 -0.0407  0.0233
13131PP      PP23235   1.644   8.977  12.543  0.0760 -0.2923 -0.0033
13132PP      PP23236  10.830  10.365  10.197 -0.1013 -0.1171  0.2078
13133PP      PP23237  11.255   3.746  10.289 -0.0087  0.2544 -0.0379
13134PP      PP23238   8.185  13.640   8.610 -0.0902 -0.1578  0.2821
13135PP      PP23239  14.536  11.343   0.892  0.0940  0.0482 -0.3446
13136PP      PP23240   4.106   2.706   3.631 -0.0645  0.2909  0.1905
13137PP      PP23241  12.124   3.763   0.279  0.0273  0.0466  0.1129
13138PP      PP23242  12.153   2.112  10.175 -0.0753  0.1806  0.0777
13139PP      PP23243   6.877   9.907  10.406 -0.1062 -0.1564 -0.4617
13140PP      PP23244   0.286   1.791  10.969 -0.1036 -0.0473 -0.0349
13141PP      PP23245  11.916   2.160   9.293  0.1812  0.1351 -0.4943
13142PP      PP23246  15.152  14.860   1.255 -0.2001 -0.0835  0.0107
13143PP      PP23247   5.162   9.560   4.824  0.2556 -0.0135  0.0863
13144PP      PP23248  14.674  10.777  11.404  0.1566 -0.1135  0.1548
13145PP      PP23249   1.127   6.715   3.587 -0.0635  0.4236  0.2600
13146PP      PP23250   7.883   2.361   9.919 -0.3892  0.1844  0.3308
13147PP      PP23251   1.310   1.665   2.394 -0.3560 -0.1172 -0.3862
13148PP      PP23252   6.857   1.974   0.058  0.1717  0.0256  0.1306
13149PP      PP23253   4.531   5.275  10.020  0.0406  0.0156 -0.0070
13150PP      PP23254  11.089   4.336   9.163 -0.2141  0.1508  0.1931
13151PP      PP23255   9.215   6.219   0.333 -0.3256  0.0583  0.2617
13152PP      PP23256  13.243   8.057   3.139 -0.2728 -0.0037 -0.1239
13153PP      PP23257  10.738   4.519   8.744  0.2474 -0.0107 -0.0792
13154PP      PP23258  11.355   7.693  12.906  0.2369 -0.1280 -0.0689
13155PP      PP23259   7.588   3.245   4.793 -0.2368  0.1273  0.0511
13156PP      PP23260   1.284  11.066   4.067  0.0425  0.4529  0.0563
13157PP      PP23261   5.130  14.729  11.691  0.3265  0.2261 -0.2517
13158PP      PP23262   9.287   8.558  10.398  0.2162  0.1990 -0.0865
13159PP      PP23263  14.959   4.458   2.610  0.1879  0.0301  0.4124
13160PP      PP23264  13.346   8.776   2.560  0.0223  0.0348 -0.1159
13161PP      PP23265  10.001   0.147   4.936  0.3694 -0.2386  0.0710
13162PP      PP23266  13.629   9.860   0.163  0.1090  0.1470  0.1931
13163PP      PP23267   1.992   7.623  13.389 -0.0114  0.0188 -0.2612
13164PP      PP23268   5.083   3.828  11.939 -0.0457 -0.0307  0.0789
13165PP      PP23269   0.584  11.260  12.443 -0.0526  0.1292  0.1940
13166PP      PP23270   9.330  11.769  11.676 -0.6213  0.2233  0.1326
13167PP      PP23271   2.256   4.374  10.941  0.2044  0.1296 -0.0903
13168PP      PP23272   2.407  10.000   4.087  0.5050 -0.1086 -0.0109
13169PP      PP23273   9.399  10.886   9.468  0.0989  0.0676 -0.1027
13170PP      PP23274  13.500   2.538  12.162 -0.0675 -0.0503  0.1967
13171PP      PP23275  14.042  12.518  11.700  0.1244 -0.3742  0.0002
13172PP      PP23276  14.730  14.899   3.639 -0.0583 -0.1224 -0.1295
13173PP      PP23277  13.000  12.111   2.713  0.0588  0.2384 -0.3218
13174PP      PP23278   4.670   8.329   5.082 -0.1884  0.0209 -0.0104
13175PP      PP23279   0.085   4.099   2.859 -0.3047  0.3027 -0.1376
13176PP      PP23280   6.188   7.595   1.755 -0.2774 -0.0849 -0.1128
13177PP      PP23281  14.561   4.073   3.870 -0.0443  0.1041 -0.2735
13178PP      PP23282   3.611   9.648   9.598  0.1213 -0.1251 -0.3218
13179PP      PP23283   7.040  14.941   4.510  0.2135 -0.1110  0.0938
13180PP      PP23284   0.791   5.525  12.536  0.2883 -0.1620 -0.4074
13181PP      PP23285  11.361  12.234   4.127 -0.2608 -0.0039 -0.1075
13182PP      PP23286   1.271   2.057   1.143 -0.0338 -0.0084 -0.0954
13183PP      PP23287  10.808   8.300  10.191 -0.1007  0.0246 -0.2174
13184PP      PP23288  15.878   6.931   9.467  0.0987  0.1337 -0.0646
13185PP      PP23289   4.129   8.923   9.457 -0.2619  0.1208  0.0483
13186PP      PP23290   2.448  14.003  12.414  0.0423 -0.0106  0.0436
13187PP      PP23291   2.379   3.506  11.539  0.1044  0.2131 -0.1072
13188PP      PP23292   3.368   5.244   1.712  0.0763 -0.0757  0.2519
13189PP      PP23293  10.781   4.754   2.646 -0.2053  0.0575 -0.4315
13190PP      PP23294   8.996   7.596   9.942 -0.2689 -0.0005  0.1028
13191PP      PP23295   9.122   1.187  12.214  0.0306  0.1677  0.0726
13192PP      PP23296  14.620  13.383  11.233 -0.0842  0.0411 -0.1268
13193PP      PP23297   6.984   2.235  12.590 -0.0343  0.1126 -0.0803
13194PP      PP23298   6.926   6.689  12.769 -0.0429  0.0983 -0.2147
13195PP      PP23299   0.873   6.725   0.047  0.1152  0.2230 -0.1004
13196PP      PP23300  15.789  13.440  11.917 -0.1680 -0.3391 -0.2420
13197PP      PP23301   9.342   5.241  11.216  0.0561  0.1110  0.1259
13198PP      PP23302   8.331  10.532  13.267  0.4623  0.1103 -0.2434
13199PP      PP23303  11.986  12.108   2.625 -0.0059  0.0332 -0.0688
13200PP      PP23304  13.293   5.048  10.778  0.0806  0.3379 -0.2358
13201PP      PP23305  13.664   4.140   9.832  0.0450  0.1676  0.0571
13202PP      PP23306   9.477   7.949  12.190  0.0809 -0.3411 -0.1123
13203PP      PP23307  10.490  15.423   0.060 -0.3508  0.2061  0.0829
13204PP      PP23308   1.214   6.380   1.299  0.1626  0.0976  0.0513
13205PP      PP23309   5.017   1.805   0.262  0.2074 -0.2651 -0.2250
13206PP      PP23310  11.699  12.512   4.789  0.2458 -0.2656 -0.0435
13207PP      PP23311  12.680   9.971  11.803  0.1438 -0.2412 -0.0922
13208PP      PP23312   3.444  15.895   0.979 -0.0257  0.0767  0.0989
13209PP      PP23313  10.760  15.339   2.136 -0.1084  0.0573 -0.3923
13210PP      PP23314  12.903  11.038   0.072  0.1768  0.1842  0.2242
13211PP      PP23315   7.739  15.828   1.750  0.2364 -0.0393 -0.1976
13212PP      PP23316   5.397  14.200   8.493  0.1298 -0.0748  0.1183
13213PP      PP23317  12.612   8.800  12.934  0.1920 -0.3847  0.2154
13214PP      PP23318   5.429   7.783   9.016 -0.0558  0.1013  0.2994
13215PP      PP23319   1.353   7.102  10.198  0.2406  0.0235  0.0089
13216PP      PP23320  11.638  13.225  12.105 -0.0486 -0.0135 -0.2214
13217PP      PP23321   7.087  10.439   1.846  0.0063  0.1302  0.1039
13218PP      PP23322  15.309   1.251  11.747 -0.1211 -0.2581  0.0844
13219PP      PP23323  15.910   3.952   1.463  0.0096  0.2316 -0.2475
13220PP      PP23324   9.397  12.906  10.476 -0.1332 -0.0324  0.1096
13221PP      PP23325  15.064   2.787  11.665  0.2442 -0.0096 -0.1085
13222PP      PP23326  12.212   8.088  11.287 -0.1485  0.2576  0.0466
13223PP      PP23327   1.257   0.889  12.257 -0.0573 -0.0302 -0.0142
13224PP      PP23328  15.869  14.009  10.185  0.0052 -0.0881 -0.4067
13225PP      PP23329   7.259   1.133   2.187  0.0887 -0.2911  0.0855
13226PP      PP23330   0.025  15.584   2.675  0.4027  0.0697 -0.2262
13227PP      PP23331  11.209   1.907   4.351 -0.0051  0.1556  0.0616
13228PP      PP23332   8.758   2.668  10.130  0.1073  0.0357  0.0774
13229PP      PP23333  15.915  10.706   1.712 -0.4323 -0.1173 -0.1429
13230PP      PP23334   6.104   4.635  12.146  0.1756 -0.0840 -0.0895
13231PP      PP23335  11.210   9.547   4.899 -0.0275 -0.1408  0.2955
13232PP      PP23336  11.954   0.557   9.088 -0.0916  0.1218  0.3827
13233PP      PP23337  13.207   0.359  12.893  0.0362  0.3830 -0.1875
13234PP      PP23338  13.898  10.408   2.330  0.2235  0.2366  0.0502
13235PP      PP23339  14.758   5.967  11.177  0.0155  0.1241 -0.0940
13236PP      PP23340  12.744  13.432  12.998  0.1213 -0.0095  0.0343
13237PP      PP23341   7.746   0.047   4.301 -0.0376  0.0276 -0.0233
13238PP      PP23342  10.366  15.832   2.287  0.4239  0.0912 -0.0754
13239PP      PP23343   8.972   8.589   2.870 -0.0825 -0.3003  0.1096
13240PP      PP23344   3.693  10.770   9.088  0.0117 -0.1104  0.2839
13241PP      PP23345   4.139   8.815  11.645  0.0119  0.0801 -0.3007
13242PP      PP23346  12.781  10.121   2.715  0.0667 -0.1497  0.0515
13243PP      PP23347  13.407   4.270  12.506 -0.2225  0.1019 -0.0768
13244PP      PP23348   9.393   3.759   2.452 -0.0056  0.1920 -0.1302
13245PP      PP23349   6.597  10.548   8.202 -0.0677  0.2015 -0.2811
13246PP      PP23350   2.398   6.716  11.373 -0.3128 -0.2206  0.1546
13247PP      PP23351   9.901  12.765   1.575  0.1883  0.1565  0.3048
13248PP      PP23352   6.877  12.825   2.773 -0.0950  0.0146  0.0254
13249PP      PP23353  14.198   4.322  11.739 -0.1173 -0.1495  0.0437
13250PP      PP23354   3.481   4.725   2.510  0.1876 -0.2365 -0.0123
13251PP      PP23355   1.440   2.165   8.496  0.1067 -0.0388 -0.0241
13252PP      PP23356  13.335   4.822   3.177  0.2965  0.1342 -0.4075
13253PP      PP23357   2.365  13.571   0.027  0.1757  0.2178  0.0855
13254PP      PP23358  12.367   6.231  12.251 -0.2774  0.2714  0.0284
13255PP      PP23359  10.983  13.726   9.058  0.1560 -0.1914  0.0790
13256PP      PP23360   9.839  15.571  11.080 -0.0802  0.0925 -0.1342
13257PP      PP23361  12.594   3.524   4.078  0.0223  0.1129 -0.1407
13258PP      PP23362  10.367  12.929   3.906 -0.1125 -0.0290 -0.0647
13259PP      PP23363  15.323   7.729   1.047 -0.1411 -0.2432  0.0833
13260PP      PP23364  12.822   0.728  10.421  0.1097  0.4002  0.2171
13261PP      PP23365   1.750   2.628   0.044  0.0769  0.2698 -0.0510
13262PP      PP23366   4.225   7.816   8.855  0.0558  0.3557 -0.1794
13263PP      PP23367   0.548  11.577   8.648  0.1205  0.3166 -0.0574
13264PP      PP23368   2.957   8.249   9.470 -0.2441  0.1930 -0.3040
13265PP      PP23369  15.522  12.731   3.570 -0.1643  0.3531  0.0127
13266PP      PP23370  11.696   0.736   5.163 -0.1958 -0.1251 -0.1431
13267PP      PP23371  10.477  11.995   3.796 -0.0076 -0.2644 -0.1496
13268PP      PP23372   0.843   6.471  11.267  0.2194  0.2917 -0.3769
13269PP      PP23373  14.927   7.849   4.394  0.1938 -0.0814  0.1103
13270PP      PP23374   5.336   7.560   1.743  0.1484  0.1584 -0.0835
13271PP      PP23375   4.509  13.541   9.241  0.0932  0.0196 -0.2121
13272PP      PP23376   2.157   7.586   0.495 -0.1592  0.4605 -0.1441
13273PP      PP23377   8.386   7.098   9.854  0.1946 -0.2886  0.1708
13274PP      PP23378   7.566   2.800   9.106 -0.1809 -0.2349 -0.2152
13275PP      PP23379   6.627   1.521   0.408  0.1259  0.2551  0.2555
13276PP      PP23380  15.729  12.688   3.134 -0.3824  0.0977 -0.0438
13277PP      PP23381  12.889   8.985   2.937 -0.0288 -0.0970  0.1546
13278PP      PP23382  14.400   1.565  11.380  0.2578  0.1190  0.1679
13279PP      PP23383   4.022   7.982  11.148 -0.0924  0.2471 -0.2038
13280PP      PP23384   6.421  10.151  10.083 -0.0997 -0.3700  0.3203
13281PP      PP23385  11.108   6.012   9.698  0.2076  0.1698 -0.2013
13282PP      PP23386   6.653   3.810   2.437  0.0570 -0.4231 -0.2585
13283PP      PP23387   6.628  13.277   3.093  0.1073  0.2288 -0.1250
13284PP      PP23388  10.095   1.509   4.417 -0.1263  0.1142 -0.2153
13285PP      PP23389  15.486   9.359  10.658  0.0412 -0.0940 -0.1957
13286PP      PP23390   6.883   0.381   2.871  0.2514  0.3806  0.0943
13287PP      PP23391   1.801  12.456  11.765  0.0954  0.2367 -0.1757
13288PP      PP23392   8.701   9.049   3.033 -0.2081  0.1223  0.0377
13289PP      PP23393  11.948   0.579  11.701 -0.1967  0.0285  0.4872
13290PP      PP23394   7.275  13.832   1.947 -0.0066 -0.0702 -0.0302
13291PP      PP23395   7.177  13.871   4.194 -0.0063  0.1568 -0.0415
13292PP      PP23396   2.942  12.487   3.279 -0.0723  0.1287  0.0509
13293PP      PP23397   4.333   5.030   8.768 -0.0823 -0.1053  0.0906
13294PP      PP23398  15.661  10.043  11.979  0.2244  0.2362 -0.2751
13295PP      PP23399  12.351  13.737   3.056 -0.2396  0.1098 -0.3004
13296PP      PP23400   2.746  15.302   2.869  0.0835 -0.1561  0.0596
13297PP      PP23401   1.666   4.035  11.374 -0.0322  0.0223  0.2159
13298PP      PP23402  11.462   6.482   2.052 -0.1757 -0.2745 -0.2901
13299PP      PP23403   4.405   9.406   4.110 -0.0733  0.4185 -0.1461
13300PP      PP23404  10.425   1.338  12.680  0.1868 -0.1613  0.0262
13301PP      PP23405   5.744   0.069  11.193  0.1626 -0.1045 -0.1580
13302PP      PP23406   8.404  14.092   3.594 -0.0850 -0.0193  0.0006
13303PP      PP23407   0.221   2.818   3.462  0.1115 -0.2654 -0.0534
13304PP      PP23408   7.695  10.068  10.799  0.1834 -0.1703  0.1135
13305PP      PP23409  13.378   5.881   3.279  0.0615 -0.3337 -0.0671
13306PP      PP23410  15.661   6.529   4.437  0.4486 -0.0753  0.0259
13307PP      PP23411   8.472   7.420   1.809 -0.0937  0.0870 -0.0817
13308PP      PP23412   5.473  14.749   3.198  0.3106  0.0680 -0.0694
13309PP      PP23413  13.816   4.915  11.015  0.0788 -0.0842 -0.0070
13310PP      PP23414   7.113  12.068  10.634  0.3563  0.1030  0.1523
13311PP      PP23415  15.379   5.891   9.691  0.0852 -0.1025  0.3255
13312PP      PP23416   4.245   4.820   3.027  0.4773 -0.0659 -0.1905
13313PP      PP23417  13.282   6.257  10.863 -0.0964 -0.0945  0.1305
13314PP      PP23418  14.168   4.791   1.047 -0.0422  0.0465  0.1401
13315PP      PP23419   6.173  10.123  11.878  0.0360  0.2503 -0.0056
13316PP      PP23420  13.548  13.862   3.241  0.0401 -0.0491 -0.2389
13317PP      PP23421   9.092   8.193  10.030  0.0015  0.2770  0.0040
13318PP      PP23422   4.982   6.171  11.233 -0.1471  0.0610 -0.0806
13319PP      PP23423   5.299   0.651  12.947 -0.0208 -0.3168 -0.0810
13320PP      PP23424   2.906   6.124   1.019  0.1054 -0.0169 -0.1095
13321PP      PP23425  11.948   2.280   1.052  0.1885  0.2683 -0.2747
13322PP      PP23426   1.379   9.634   9.923 -0.0039 -0.2098 -0.0804
13323PP      PP23427  15.312  11.661  13.320 -0.1471  0.2617 -0.0729
13324PP      PP23428   6.559  12.039   0.748  0.0750  0.0562 -0.0576
13325PP      PP23429  14.842  12.652  12.744 -0.2936 -0.0208 -0.0498
13326PP      PP23430  13.222   4.026   1.639  0.1941 -0.1333 -0.1923
13327PP      PP23431   2.848   7.622  10.108 -0.2020  0.0316 -0.0958
13328PP      PP23432   7.318   8.477  12.204  0.0701 -0.1295 -0.2384
13329PP      PP23433  14.357  13.797   0.608 -0.3162 -0.0656 -0.1177
13330PP      PP23434  13.252   4.483   4.503 -0.0372  0.0411 -0.1271
13331PP      PP23435   7.060  10.870   8.747  0.0008 -0.1406 -0.0872
13332PP      PP23436   7.431  12.272   8.712 -0.2571  0.0776 -0.2990
13333PP      PP23437  11.132  10.864   9.469  0.3229  0.4240  0.0019
13334PP      PP23438  15.689   4.484   3.550 -0.2155  0.0152 -0.1938
13335PP      PP23439  11.632   2.218   2.083 -0.1755  0.1138 -0.0497
13336PP      PP23440   9.716  15.914   4.258  0.0489 -0.2148 -0.2822
13337PP      PP23441  14.940   1.508   3.670  0.2875 -0.1964  0.1856
13338PP      PP23442   9.179   3.387  12.386 -0.2751 -0.0297  0.2522
13339PP      PP23443  14.314   4.102   9.048 -0.3059 -0.0358  0.2096
13340PP      PP23444  11.310  13.224   3.502 -0.0117 -0.1177 -0.0477
13341PP      PP23445   2.206   3.000   9.632  0.0515 -0.4592  0.0265
13342PP      PP23446  10.487   9.787   9.346 -0.0525  0.3091  0.1148
13343PP      PP23447   3.984  11.990   8.967 -0.1958 -0.0040  0.1135
13344PP      PP23448  11.403  13.268  13.362 -0.0683  0.2852 -0.0580
13345PP      PP23449  11.081  12.666   0.426 -0.1697 -0.2635 -0.0645
13346PP      PP23450  12.242   8.114   3.759 -0.1291 -0.1979  0.0655
13347PP      PP23451   6.494  13.127   8.466 -0.2924  0.3709 -0.0192
13348PP      PP23452  15.745   0.725   2.732 -0.0295  0.1020 -0.1793
13349PP      PP23453   1.226   2.655   8.790 -0.0501 -0.1338  0.0186
13350PP      PP23454  13.540   4.823  11.417 -0.2153  0.0308  0.1456
13351PP      PP23455   0.642  14.127   8.915 -0.2717  0.0028  0.2089
13352PP      PP23456   0.251   8.518  10.171 -0.0149  0.0446  0.3550
13353PP      PP23457   3.391  15.391  13.360  0.2089  0.0807 -0.5375
13354PP      PP23458   5.891   9.763  12.906 -0.0472  0.2147  0.2896
13355PP      PP23459  10.038   9.094  11.223 -0.1486 -0.1631  0.0754
13356PP      PP23460  14.967   6.708  10.761  0.3246 -0.1168 -0.1644
13357PP      PP23461   3.898  10.453   9.892  0.1647 -0.2598 -0.0133
13358PP      PP23462   0.487   6.752   2.921  0.2818 -0.3541 -0.2094
13359PP      PP23463  10.252   7.623   2.839  0.2088 -0.0241 -0.0831
13360PP      PP23464   8.794   8.101   2.803  0.0861  0.1442 -0.3731
13361PP      PP23465   2.671  14.464   1.793 -0.1413 -0.1539  0.0691
13362PP      PP23466  12.253  10.298  11.990  0.0814  0.0867  0.0067
13363PP      PP23467  15.141   5.989   3.670 -0.3966 -0.0109 -0.2217
13364PP      PP23468   6.699   2.056   4.086 -0.1718  0.0533  0.0319
13365PP      PP23469   5.684   0.605   9.175 -0.3267  0.1381 -0.1837
13366PP      PP23470  10.897   7.355  11.268 -0.0802  0.1004  0.2138
13367PP      PP23471   0.751   1.910   3.553  0.2084 -0.2336  0.1980
13368PP      PP23472   6.938   3.418   0.978 -0.2052  0.2039  0.1860
13369PP      PP23473  11.660   1.989  11.478  0.1687 -0.1500 -0.2636
13370PP      PP23474   4.270   3.497   3.399 -0.0345  0.1760  0.0262
13371PP      PP23475  11.770   7.656   2.417 -0.1223  0.1826 -0.2570
13372PP      PP23476   3.953   7.174   3.034 -0.1112  0.0584 -0.1191
13373PP      PP23477  14.158  11.857   2.107 -0.0221  0.1641  0.0792
13374PP      PP23478  14.091   1.819  12.548  0.1906  0.2643 -0.1722
13375PP      PP23479  13.783  11.557   3.488  0.1474  0.0493 -0.0834
13376PP      PP23480   9.722   7.401  12.086 -0.1952 -0.3437  0.0273
13377PP      PP23481  14.838   7.619  11.322  0.1326 -0.1738  0.0974
13378PP      PP23482   0.826  14.157   0.697 -0.1664 -0.0823 -0.1297
13379PP      PP23483   6.565   4.646   9.847  0.2522 -0.3019  0.0701
13380PP      PP23484   9.421   3.355   2.052 -0.3052 -0.0366  0.0190
13381PP      PP23485   4.232  12.372  13.184  0.1534 -0.0820  0.0815
13382PP      PP23486   5.316   8.871  10.349  0.0763  0.1861  0.3200
13383PP      PP23487   4.906   9.812  10.351  0.0437 -0.1560  0.1647
13384PP      PP23488   4.085  13.365   2.607 -0.1840 -0.1299  0.0380
13385PP      PP23489   5.700  14.884   9.254 -0.5049 -0.0322 -0.0572
13386PP      PP23490  14.695  11.779  12.488  0.1299 -0.2519 -0.0123
13387PP      PP23491   6.848   9.451  13.009 -0.0284  0.1838 -0.0927
13388PP      PP23492  11.369   6.746   9.675 -0.0465  0.0575 -0.0985
13389PP      PP23493  10.897   5.758   1.020 -0.1368  0.0800 -0.1800
13390PP      PP23494   7.600  14.620  12.645  0.1114 -0.0172  0.0448
13391PP      PP23495  15.408  14.387  11.308 -0.1718 -0.1781 -0.0679
13392PP      PP23496   2.031   1.605  10.304  0.4665  0.3481  0.1713
13393PP      PP23497   9.171  10.463  10.394  0.0928  0.2221 -0.0986
13394PP      PP23498  11.063  14.902   2.172 -0.2329  0.2721  0.0254
13395PP      PP23499   7.840   7.036   3.872  0.1745 -0.2175  0.0960
13396PP      PP23500  13.304  11.302   0.146  0.0728 -0.0045  0.0328
13397PP      PP23501  10.743  11.169  10.299 -0.4263 -0.1231  0.1253
13398PP      PP23502  10.972   4.133   1.829 -0.0626  0.3656 -0.1079
13399PP      PP23503   8.364   4.650  10.396 -0.1952  0.3135  0.2131
13400PP      PP23504   3.480   6.344   1.799 -0.0234 -0.0971 -0.1335
13401PP      PP23505   4.437   0.710   1.570 -0.0207  0.1140 -0.1699
13402PP      PP23506   7.291   1.189  13.207  0.3369 -0.0997 -0.1457
13403PP      PP23507   7.380  12.691   2.360 -0.4210  0.2798  0.0732
13404PP      PP23508   6.461  11.174  11.682  0.1036 -0.0038 -0.1308
13405PP      PP23509   9.750  12.404  11.631 -0.0164 -0.0448  0.0223
13406PP      PP23510   3.759  11.397   2.347  0.1579 -0.1462  0.1323
13407PP      PP23511  15.910   6.581   9.079  0.3466  0.1107  0.0812
13408PP      PP23512   0.734  13.276  12.889  0.0027 -0.0893  0.3829
13409PP      PP23513  10.134   2.630   3.480 -0.2263  0.2459  0.2198
13410PP      PP23514   7.655   1.442   2.101 -0.0245 -0.0038  0.2143
13411PP      PP23515   6.179  13.405  10.445 -0.2045  0.6865 -0.0634
13412PP      PP23516   0.659   0.691  12.700 -0.1202  0.2108  0.0957
13413PP      PP23517  10.370   0.435  10.076  0.1000 -0.0197  0.0321
13414PP      PP23518  13.529   1.913  10.746 -0.3513  0.2821  0.0095
13415PP      PP23519  10.066  10.800  11.503 -0.0534  0.1855 -0.0885
13416PP      PP23520   5.567   6.463   2.622 -0.0196 -0.1864  0.0384
13417PP      PP23521  15.393   2.027  12.048 -0.1407  0.1023 -0.0746
13418PP      PP23522   0.280   9.111   1.071 -0.0420  0.2423 -0.1469
13419PP      PP23523   4.005   3.853   9.622  0.0024 -0.3015 -0.1646
13420PP      PP23524   5.133   1.513   3.975 -0.0900 -0.0707 -0.1104
13421PP      PP23525   5.754   6.224  10.732 -0.1540  0.1428 -0.0463
13422PP      PP23526   3.187   7.861   9.719  0.0247  0.0106  0.1454
13423PP      PP23527   2.945   9.960   1.743  0.0816 -0.0290  0.3177
13424PP      PP23528  10.431  12.528  10.803 -0.1536  0.0036  0.2471
13425PP      PP23529  13.409   7.153  11.531  0.2453 -0.1050  0.0117
13426PP      PP23530   7.066  10.787   9.615 -0.0960 -0.0392 -0.0619
13427PP      PP23531  11.348   2.971  11.172 -0.0139 -0.2613 -0.0353
13428PP      PP23532   8.287   4.149   1.574  0.0179  0.3391  0.0099
13429PP      PP23533  13.466   8.215  12.723 -0.0034 -0.3230  0.1181
13430PP      PP23534   2.786  11.441   1.923 -0.2892  0.0279  0.3349
13431PP      PP23535  15.142   0.303  13.021  0.3640 -0.5484 -0.1824
13432PP      PP23536  12.879   9.950   1.459  0.0551 -0.0205 -0.3261
13433PP      PP23537   6.235  12.487   8.724  0.1397  0.0133 -0.1257
13434PP      PP23538   8.092   2.020   3.316 -0.0958 -0.0789 -0.0305
13435PP      PP23539  11.040  12.208   2.599  0.3129  0.0718 -0.0383
13436PP      PP23540  11.191   5.929  10.281  0.3912  0.0882 -0.3729
13437PP      PP23541   7.289   6.276  10.236  0.2333  0.2145 -0.1041
13438PP      PP23542   2.035   6.119   9.621 -0.0013 -0.0345 -0.0813
13439PP      PP23543   7.412   7.773   2.557 -0.1422  0.1146 -0.0318
13440PP      PP23544   0.298   3.323   2.148 -0.1880 -0.0548  0.0016
13441PP      PP23545   5.714   0.230   3.151  0.1532 -0.2479  0.1081
13442PP      PP23546   6.773  12.370   1.541  0.4019  0.1681 -0.1957
13443PP      PP23547   8.108   4.708   2.223  0.2213  0.0111 -0.3775
13444PP      PP23548  10.147   6.445   0.226 -0.1015 -0.0006  0.1468
13445PP      PP23549   1.988   7.621   2.717 -0.1475  0.1460  0.3393
13446PP      PP23550   1.171   1.483   0.566 -0.0753 -0.1455  0.1124
13447PP      PP23551   6.786  11.213   1.378  0.5777 -0.2856  0.0952
13448PP      PP23552   5.817   6.907   1.857 -0.1757 -0.5262  0.0103
13449PP      PP23553   6.763   4.417  11.017 -0.0648 -0.1323 -0.0674
13450PP      PP23554  10.459   2.946  11.507  0.3588  0.0518  0.1890
13451PP      PP23555   5.965   5.977   4.325  0.2485 -0.0679 -0.4895
13452PP      PP23556   7.131   8.169  12.743  0.1055 -0.1212  0.1131
13453PP      PP23557  10.950   1.363   0.586 -0.2615 -0.0644 -0.2327
13454PP      PP23558   2.408   1.016   9.595  0.0070 -0.3345 -0.1919
13455PP      PP23559   2.468   1.837  10.205 -0.0470  0.1323  0.0027
13456PP      PP23560   3.454  12.433  11.316  0.0561 -0.0711 -0.0666
13457PP      PP23561   8.094   6.956   1.799 -0.1526 -0.3785  0.4196
13458PP      PP23562   6.706  12.755   1.813 -0.1706 -0.3216 -0.2101
13459PP      PP23563   7.390   5.892   0.437  0.2308 -0.0038  0.2121
13460PP      PP23564   2.409  11.521  12.198 -0.0152 -0.0970  0.2678
13461PP      PP23565   4.902   3.573   2.410 -0.0174  0.0181  0.1319
13462PP      PP23566  14.157   6.570   3.761 -0.0365 -0.2593  0.2159
13463PP      PP23567   5.681   9.839   3.046  0.0134  0.0449 -0.0194
13464PP      PP23568  12.063  15.837  10.790 -0.0368 -0.0689  0.0803
13465PP      PP23569   9.336   1.984   9.740 -0.3324 -0.2949  0.0469
13466PP      PP23570   9.528   9.217   3.640 -0.0288  0.2281 -0.2179
13467PP      PP23571   5.366  10.969   3.902 -0.2734  0.0680  0.1540
13468PP      PP23572   6.491   0.502   2.156 -0.1285 -0.2487  0.1703
13469PP      PP23573   0.457  11.974   9.048  0.0907  0.1780 -0.0682
13470PP      PP23574   0.954  10.862  10.115  0.2261  0.4089 -0.3209
13471PP      PP23575   6.282   6.960  10.182  0.0272  0.2009 -0.2521
13472PP      PP23576  13.796  11.857   9.415 -0.0616 -0.2398 -0.1325
13473PP      PP23577  14.231   7.100   0.857 -0.2816 -0.2230  0.1516
13474PP      PP23578  15.668   7.915   3.295 -0.1187 -0.0316  0.2392
13475PP      PP23579   5.406  11.444   4.246  0.0681 -0.3329  0.1266
13476PP      PP23580  12.702   0.326   9.679  0.0749  0.4240  0.0957
13477PP      PP23581  14.291   2.495  11.036 -0.1715 -0.0506  0.2018
13478PP      PP23582   4.500   9.394   1.382  0.0573  0.1552  0.2369
13479PP      PP23583   8.910   7.245   1.981 -0.0117 -0.3797 -0.3219
13480PP      PP23584   2.629   6.372  12.799 -0.2094  0.3203  0.2179
13481PP      PP23585  10.748   2.183   9.499  0.0793 -0.0430  0.0642
13482PP      PP23586  12.088  15.385   9.452 -0.3135  0.0455  0.0601
13483PP      PP23587  11.576   5.783   3.533  0.2547  0.1860  0.3209
13484PP      PP23588   9.207  12.404   0.759 -0.0188  0.0485  0.2524
13485PP      PP23589  10.424   9.352   9.089  0.0115  0.3345  0.0583
13486PP      PP23590   4.419   7.258   0.853 -0.1266 -0.3375  0.3333
13487PP      PP23591   8.174  11.134   3.258  0.1982 -0.0439  0.0346
13488PP      PP23592  14.468  11.392   2.922 -0.1296  0.2120  0.1242
13489PP      PP23593   1.713  13.170   0.437  0.1730  0.0267 -0.3462
13490PP      PP23594  11.965   0.413  10.769 -0.2347 -0.0889 -0.0673
13491PP      PP23595   3.377  13.655  12.016  0.1484  0.2389  0.1124
13492PP      PP23596  12.687  11.854   9.413  0.0159  0.0442 -0.0644
13493PP      PP23597  12.145  12.125   3.465  0.2182 -0.1783 -0.3395
13494PP      PP23598   8.873   1.551  10.359  0.0364  0.0714 -0.1234
13495PP      PP23599   7.685   7.798   9.489 -0.1874  0.1999 -0.1058
13496PP      PP23600  13.800   9.921   3.459  0.0159 -0.2503 -0.1594
13497PP      PP23601   9.121  15.896   4.560 -0.0245  0.2703  0.1923
13498PP      PP23602   5.943  12.706  11.949 -0.3582 -0.1937 -0.1089
13499PP      PP23603   8.096   6.244  11.232  0.2432 -0.0662  0.0110
13500PP      PP23604  10.684  14.461  10.369 -0.2094  0.3617 -0.1390
13501PP      PP23605   1.465   2.231  13.157 -0.1609 -0.0270 -0.2532
13502PP      PP23606   8.099   1.306   9.993  0.0185  0.1562  0.0256
13503PP      PP23607   3.720   1.520  12.005  0.0933 -0.1244  0.1490
13504PP      PP23608   9.284   1.679  12.480 -0.1297  0.0005 -0.1020
13505PP      PP23609  13.190  14.216   0.894  0.0931  0.1733 -0.3602
13506PP      PP23610   7.611  12.686   9.015  0.1515 -0.1216 -0.1031
13507PP      PP23611   5.439   6.844  10.043  0.1104 -0.1949 -0.0712
13508PP      PP23612   7.199  13.922  12.987  0.1433 -0.2540  0.1911
13509PP      PP23613   7.330   0.918   4.895 -0.2207  0.1693 -0.1221
13510PP      PP23614  13.570  10.844   9.931 -0.0747  0.0937  0.0926
13511PP      PP23615  15.165  13.468   8.653  0.0383 -0.0969  0.1329
13512PP      PP23616   3.851   2.858  10.024  0.2852  0.1301  0.1492
13513PP      PP23617  10.308   2.245   0.674 -0.0130  0.1601 -0.1429
13514PP      PP23618  11.155   6.448   4.118 -0.1169 -0.0218 -0.0502
13515PP      PP23619  15.631  14.928   8.635 -0.2340 -0.1126  0.0798
13516PP      PP23620   5.150   1.346   8.700 -0.1201  0.0738  0.0668
13517PP      PP23621  13.343  13.137   9.943 -0.4074 -0.0626 -0.0724
13518PP      PP23622   6.825   7.045   2.125  0.0341  0.0278 -0.1605
13519PP      PP23623   1.989  12.668  12.825  0.2825 -0.3711  0.0384
13520PP      PP23624   2.235   2.275  11.432  0.0862 -0.3076  0.1174
13521PP      PP23625  14.058   7.215   1.610  0.2296  0.1483 -0.0343
13522PP      PP23626   4.518   1.298   2.188  0.3914  0.0961  0.3128
13523PP      PP23627  12.907   3.958   2.148  0.0920 -0.3058  0.2177
13524PP      PP23628   8.288   8.919  11.306  0.0993  0.2051  0.2563
13525PP      PP23629   9.340  11.283   8.688 -0.1902 -0.0062  0.1452
13526PP      PP23630   8.409   5.310   9.585 -0.0101 -0.0317 -0.0787
13527PP      PP23631   0.405  11.870   3.062 -0.1095 -0.3642 -0.0831
13528PP      PP23632  12.344  11.443  11.402 -0.0988  0.0497 -0.1578
13529PP      PP23633   0.515   3.918   1.501  0.2591  0.0512  0.0032
13530PP      PP23634  15.446  10.541   3.288  0.0892  0.0886 -0.0325
13531PP      PP23635   5.859   2.251   4.495  0.1089 -0.1884  0.2534
13532PP      PP23636  11.563  14.409   9.356 -0.1436  0.1823  0.0663
13533PP      PP23637   4.548   1.196   0.734  0.0978  0.0469  0.4542
13534PP      PP23638   7.498  13.041  12.883  0.0574 -0.0107 -0.0304
13535PP      PP23639   8.833   1.964   9.440  0.2374 -0.1805 -0.4017
13536PP      PP23640   1.558   0.827   0.020 -0.0373 -0.1590 -0.4064
13537PP      PP23641   5.031  10.985  10.752  0.3876  0.0099  0.1711
13538PP      PP23642  10.898   4.001  12.539  0.0387  0.0873  0.2121
13539PP      PP23643   9.396   3.659   0.629 -0.0123 -0.0345  0.0292
13540PP      PP23644   1.850   3.884   9.482  0.0448  0.2882  0.0058
13541PP      PP23645   6.233   3.551   2.327 -0.0434  0.1235  0.1068
13542PP      PP23646   2.639   6.421   1.587  0.1683  0.1354  0.1237
13543PP      PP23647  10.090   8.657   2.002 -0.2770 -0.4600 -0.0519
13544PP      PP23648   3.904   3.937   0.790  0.0370 -0.1485 -0.0911
13545PP      PP23649   2.271   8.277  12.923  0.1180  0.0047  0.0602
13546PP      PP23650   3.085   5.958  11.028  0.3141  0.1597  0.0482
13547PP      PP23651   7.998  12.047   0.612  0.1068 -0.0363 -0.0458
13548PP      PP23652  14.212   9.342  10.906 -0.2018  0.0759  0.0795
13549PP      PP23653   3.637   2.455  13.143 -0.1553 -0.2523  0.1130
13550PP      PP23654   9.194   4.401   1.225  0.1625  0.5891 -0.2408
13551PP      PP23655   4.465  11.107   4.053 -0.1432  0.1322  0.0916
13552PP      PP23656   8.031   6.274  12.158 -0.1034 -0.0884 -0.1235
13553PP      PP23657  14.517   7.676   2.410 -0.1792 -0.5482  0.3521
13554PP      PP23658   2.290   5.733  10.578  0.0037  0.0781 -0.0322
13555PP      PP23659   2.879  15.776   3.006  0.2537  0.0670 -0.0014
13556PP      PP23660   1.794   0.202   9.574 -0.0714 -0.1207 -0.1237
13557PP      PP23661   6.476  10.883  10.866  0.0328  0.0360 -0.0351
13558PP      PP23662   6.408  15.643  11.788  0.0316  0.0942  0.1375
13559PP      PP23663   2.472   7.041   3.266 -0.0650  0.1665 -0.1327
13560PP      PP23664   2.251   5.566  11.900  0.4092 -0.2453 -0.0036
13561PP      PP23665  11.080   9.079   2.259  0.1881 -0.2974  0.1146
13562PP      PP23666   5.496   5.417   4.183  0.2223 -0.0562 -0.1998
13563PP      PP23667  14.862   1.956  10.530  0.4002  0.0307 -0.0179
13564PP      PP23668   9.764   0.376   0.416  0.0461 -0.0332  0.3125
13565PP      PP23669   7.751  13.977  10.653 -0.0050  0.1758 -0.2620
13566PP      PP23670   0.754   6.617  11.921 -0.1547  0.0293 -0.0171
13567PP      PP23671  12.790   6.645  12.141  0.0844  0.1905  0.1625
13568PP      PP23672  15.508   5.736  10.171 -0.0027 -0.1643 -0.0046
13569PP      PP23673   6.252  14.534   0.818  0.1089 -0.0756 -0.0857
13570PP      PP23674  12.317   3.042   0.819 -0.0452 -0.2185 -0.0168
13571PP      PP23675  11.566  11.893   3.326  0.0191 -0.0457 -0.0592
13572PP      PP23676  10.460   7.708   3.322 -0.0451 -0.3482  0.0116
13573PP      PP23677   8.040   9.954  11.142 -0.2065  0.0413 -0.1454
13574PP      PP23678   3.942   7.906  12.003 -0.0062 -0.1717  0.5479
13575PP      PP23679   3.553   2.809   3.642 -0.0076 -0.1805  0.0101
13576PP      PP23680  12.817   4.170  13.199 -0.2624 -0.2430 -0.1353
13577PP      PP23681   1.744   0.981   1.770  0.0815  0.0083 -0.2186
13578PP      PP23682   3.879  14.098   0.413 -0.0747  0.3060 -0.3105
13579PP      PP23683   8.020   1.698  10.453 -0.0034 -0.0724  0.0599
13580PP      PP23684  12.332   4.548  11.773  0.1321 -0.3101 -0.1707
13581PP      PP23685   9.985  10.892   4.676 -0.0562 -0.1803 -0.1849
13582PP      PP23686   8.358  10.404   2.547  0.3179  0.2639 -0.0163
13583PP      PP23687  11.513   0.762   0.835  0.3497 -0.1091 -0.3546
13584PP      PP23688   4.221   2.949   8.507  0.3039  0.3060  0.2760
13585PP      PP23689  13.856   4.650  10.062  0.0806  0.1275  0.0478
13586PP      PP23690  11.207  12.656  12.760 -0.1144  0.2485 -0.1250
13587PP      PP23691   4.099   2.216   1.388  0.1421 -0.2807 -0.0254
13588PP      PP23692   9.176   6.822   5.215  0.0564  0.1772 -0.5607
13589PP      PP23693  12.502   1.648  12.977 -0.0739 -0.0660 -0.2139
13590PP      PP23694   2.193   6.683   3.015  0.0347  0.2541  0.1437
13591PP      PP23695   7.458   3.507  10.096 -0.1244  0.4396 -0.1200
13592PP      PP23696   1.039  11.949   0.592  0.1821 -0.0230  0.3497
13593PP      PP23697  11.021   6.241   2.247 -0.0711  0.1141  0.1274
13594PP      PP23698   2.307  12.553   2.670  0.0782  0.1488 -0.2049
13595PP      PP23699  15.691   3.824   8.841  0.2169 -0.0432 -0.0038
13596PP      PP23700  11.206   1.436   2.197  0.0826 -0.2192  0.0538
13597PP      PP23701   8.808  15.326   9.407  0.2031 -0.3528  0.0578
13598PP      PP23702  14.548  15.437  11.458  0.2334 -0.0539  0.0604
13599PP      PP23703   0.396  13.671   3.471  0.0592 -0.1044  0.2006
13600PP      PP23704  10.348   5.266   2.248 -0.0108  0.3109  0.0104
13601PP      PP23705   6.555   1.646   3.659 -0.1053 -0.0582  0.0081
13602PP      PP23706  11.351  15.199   3.860 -0.4248  0.1368 -0.1160
13603PP      PP23707  12.811   4.145   9.279 -0.1615 -0.0841  0.0156
13604PP      PP23708  13.470   7.608   0.543 -0.2648 -0.1619 -0.2400
13605PP      PP23709   1.469   0.242  10.799  0.1984 -0.0856  0.4472
13606PP      PP23710   4.896   7.205   3.791 -0.0244 -0.2743 -0.0122
13607PP      PP23711  10.078   9.427   2.997  0.1598  0.0440  0.3346
13608PP      PP23712  10.190   5.530   3.445  0.3085  0.0303 -0.0613
13609PP      PP23713  13.772  11.752   3.983 -0.0294 -0.0294  0.0325
13610PP      PP23714   3.934   3.970   8.695  0.0424 -0.0730 -0.2100
13611PP      PP23715   4.843   9.143   4.065 -0.0343 -0.2213  0.0898
13612PP      PP23716   6.730   3.205   3.664 -0.2588  0.0524 -0.0579
13613PP      PP23717   1.698  10.166   1.719  0.0568  0.0927  0.0064
13614PP      PP23718   7.347   2.364   4.491  0.1133 -0.1049  0.0163
13615PP      PP23719  14.790   1.631   0.708  0.1608 -0.1623 -0.2281
13616PP      PP23720  12.611  13.549   1.584  0.2459  0.0646 -0.1384
13617PP      PP23721   5.427   5.913   4.272 -0.1711  0.0187  0.0368
13618PP      PP23722   0.809   8.636   4.426  0.2873 -0.1464 -0.0887
13619PP      PP23723  11.580   3.988   8.773 -0.3380  0.1564 -0.1567
13620PP      PP23724   5.626   0.252   1.116 -0.0301 -0.2123 -0.0271
13621PP      PP23725   1.061  12.495   8.677 -0.3224 -0.1066  0.0165
13622PP      PP23726   7.287   8.488   4.641 -0.0557  0.2673 -0.1335
13623PP      PP23727  11.402   4.363  12.017  0.0291  0.0199  0.1746
13624PP      PP23728   4.458  13.031   8.225 -0.1146  0.2461 -0.2258
13625PP      PP23729   7.579   2.138   3.144  0.2135  0.1726 -0.1094
13626PP      PP23730  13.887   5.524   3.258  0.0575  0.2347 -0.1316
13627PP      PP23731  14.181   9.145   9.428  0.0649  0.1865  0.0833
13628PP      PP23732   0.305   0.337   2.342 -0.0436  0.0596  0.3107
13629PP      PP23733   3.374  11.989   2.220  0.0336 -0.0265 -0.0098
13630PP      PP23734   2.675   6.601  12.226 -0.1461  0.1206 -0.3169
13631PP      PP23735   6.185  12.485   0.082  0.1483  0.1414 -0.1271
13632PP      PP23736   2.817   5.151  13.163  0.0222  0.1340 -0.1275
13633PP      PP23737  15.559   1.810   9.807 -0.0556  0.0983  0.0960
13634PP      PP23738  13.396  12.465   2.150 -0.1072  0.1426  0.3310
13635PP      PP23739   1.242   7.624  10.007  0.3106  0.1471  0.3258
13636PP      PP23740   7.534  13.579   1.591 -0.1947  0.1959 -0.0472
13637PP      PP23741   3.426  12.447   0.530  0.2350 -0.1013 -0.1088
13638PP      PP23742  12.759  14.858   3.109 -0.1988 -0.0898  0.0176
13639PP      PP23743   2.558   3.600   0.610 -0.0616 -0.0267 -0.2316
13640PP      PP23744   0.764  12.587   9.862 -0.1381  0.0613 -0.1944
13641PP      PP23745   8.466  11.128   0.841  0.0275 -0.1924 -0.0774
13642PP      PP23746   9.606   9.830   9.270 -0.2466 -0.1871 -0.1670
13643PP      PP23747   9.221  10.120   2.313  0.0138 -0.3120 -0.0206
13644PP      PP23748  13.877   3.444   3.484 -0.0955  0.0861  0.0947
13645PP      PP23749  11.818   4.963   9.968  0.2212  0.3052  0.2077
13646PP      PP23750   2.755   2.377   1.347 -0.0459  0.0147 -0.1252
13647PP      PP23751   6.252   3.219   4.070 -0.0688  0.1266 -0.1445
13648PP      PP23752  11.705   5.270  10.407  0.1688  0.0121 -0.1873
13649PP      PP23753  11.351  12.663   2.741  0.1103 -0.1997 -0.1069
13650PP      PP23754  13.950   4.642   3.793  0.1118 -0.2833 -0.0951
13651PP      PP23755   0.998   0.366  11.005  0.0899 -0.4704 -0.2736
13652PP      PP23756   8.950   2.477  12.819  0.0588 -0.3470 -0.0744
13653PP      PP23757   7.909   3.413   9.683 -0.0493  0.0070 -0.1742
13654PP      PP23758   3.374   2.270   2.854  0.1522 -0.2870  0.1115
13655PP      PP23759  11.987   5.195   1.917 -0.1321  0.1479  0.1416
13656PP      PP23760   2.200   9.735   3.318 -0.2114 -0.3472  0.0684
13657PP      PP23761   9.939   7.911   1.102  0.1732  0.3478  0.0279
13658PP      PP23762   6.541   2.074  10.327  0.0905  0.3274  0.0338
13659PP      PP23763   9.570  11.240  11.038 -0.2468 -0.1586 -0.1080
13660PP      PP23764   6.625   7.799  12.047  0.0336 -0.6299 -0.2407
13661PP      PP23765   5.932   2.600   9.087 -0.1633  0.0674 -0.5930
13662PP      PP23766  12.148  14.325   1.901  0.0911 -0.0162  0.1806
13663PP      PP23767  10.363  12.780   1.828 -0.5684 -0.2753  0.4271
13664PP      PP23768  10.141  14.423  10.577 -0.1357 -0.3313 -0.2083
13665PP      PP23769  14.197  13.344   1.632  0.1327 -0.0363  0.0925
13666PP      PP23770   3.500  15.090  10.883  0.1446  0.0735  0.1843
13667PP      PP23771   5.647  14.682   8.492 -0.3167  0.2636 -0.1333
13668PP      PP23772   5.776   7.115   1.400  0.0757 -0.0292 -0.0232
13669PP      PP23773  10.462   3.421  11.343  0.0675  0.0773  0.0870
13670PP      PP23774   4.964   1.869   2.241  0.0470 -0.0039 -0.3165
13671PP      PP23775  12.511  15.090  13.212 -0.0855 -0.0378  0.1465
13672PP      PP23776   0.584   7.093   3.987  0.2099  0.1495 -0.0156
13673PP      PP23777  13.405  13.626   9.732  0.0131 -0.1858  0.0665
13674PP      PP23778  11.111   4.797   3.177  0.1247  0.2827 -0.1572
13675PP      PP23779   3.005  12.257   0.328 -0.0905  0.1402  0.0451
13676PP      PP23780  12.832  10.437   3.550 -0.1557 -0.3075  0.0593
13677PP      PP23781  11.607  12.714   0.291  0.0183 -0.1156  0.0670
13678PP      PP23782   0.691   2.861   8.495 -0.0364 -0.0584 -0.0628
13679PP      PP23783  15.282  15.636   1.757  0.2844 -0.0767 -0.2339
13680PP      PP23784  15.007   0.672   3.664  0.5452 -0.1099  0.2446
13681PP      PP23785   9.332   1.397  12.884  0.0430  0.3262  0.0008
13682PP      PP23786  12.783   6.591   8.994 -0.0510  0.0158  0.3412
13683PP      PP23787   2.531   0.568  13.116  0.0709  0.1001  0.0446
13684PP      PP23788  13.629  15.746  11.744  0.0907 -0.0460 -0.1551
13685PP      PP23789  10.530   2.974   4.470  0.0297  0.3353  0.3281
13686PP      PP23790   4.961   9.163   4.529 -0.2266  0.0354 -0.1931
13687PP      PP23791   2.308  15.309  10.089  0.0736  0.2449 -0.1466
13688PP      PP23792  12.704   4.187  10.601  0.4253  0.1435  0.0544
13689PP      PP23793  14.445   5.276  11.440 -0.3233  0.0486  0.0852
13690PP      PP23794  13.125   7.664   1.689  0.2786  0.0714  0.2378
13691PP      PP23795   6.750  13.584  13.114  0.1999 -0.3262  0.1488
13692PP      PP23796  10.810   6.581   0.167 -0.1641 -0.3563 -0.0733
13693PP      PP23797   4.860  12.266   1.403 -0.1386 -0.1065 -0.2658
13694PP      PP23798   1.384  13.244  11.628  0.0296  0.0380 -0.0691
13695PP      PP23799   6.304   5.658   1.969 -0.3195 -0.0511 -0.0292
13696PP      PP23800   7.285   2.021   1.497 -0.0536 -0.1739 -0.2000
13697PP      PP23801  13.598   5.473   0.950  0.0164 -0.0506 -0.1867
13698PP      PP23802   6.195   6.396   9.982  0.1220 -0.2689  0.0228
13699PP      PP23803  11.803   1.930   8.744 -0.1539 -0.2557  0.1482
13700PP      PP23804   2.231   0.997  12.953 -0.5384  0.0129 -0.0615
13701PP      PP23805   4.310  12.287   2.119 -0.0494  0.0605 -0.5832
13702PP      PP23806  12.687   6.993  13.122  0.1240  0.1604 -0.2493
13703PP      PP23807  12.212  13.776   1.815  0.1656 -0.1307 -0.0507
13704PP      PP23808  12.169  12.685  11.700 -0.1264 -0.1510 -0.2889
13705PP      PP23809   9.214  12.128   9.839 -0.0842  0.0470 -0.2146
13706PP      PP23810   7.024   2.015  10.402 -0.1638  0.0855  0.1084
13707PP      PP23811  14.089  11.146   9.843 -0.2751  0.0154 -0.0044
13708PP      PP23812   2.895  12.533   2.793 -0.4926 -0.0831  0.2089
13709PP      PP23813   7.080   7.011  11.645  0.4162 -0.2117 -0.1891
13710PP      PP23814  12.793   7.757   2.914  0.2027  0.0415  0.3129
13711PP      PP23815   3.462  14.407   0.359 -0.1810 -0.2663 -0.0878
13712PP      PP23816  14.203  11.595  10.224  0.1952  0.0221 -0.0412
13713PP      PP23817  13.980  11.915   1.677 -0.1345 -0.2060  0.0839
13714PP      PP23818   5.017   3.394   0.696 -0.1057 -0.0337  0.0073
13715PP      PP23819   4.894  13.018  10.582 -0.1748 -0.1074  0.0795
13716PP      PP23820   4.701   9.932  11.652 -0.0171 -0.0427 -0.2174
13717PP      PP23821   8.499   0.575   2.645 -0.0167 -0.3016 -0.1607
13718PP      PP23822   9.412  11.356   2.472 -0.0217  0.3378  0.4501
13719PP      PP23823  14.805  10.755   9.024 -0.0193 -0.1608 -0.0166
13720PP      PP23824  14.959   3.947   3.587 -0.0240  0.3237  0.1823
13721PP      PP23825  11.033   2.236   3.754  0.4502  0.0128  0.1745
13722PP      PP23826   1.182   2.147   0.178 -0.3525 -0.1098  0.2278
13723PP      PP23827   2.713   0.423  10.428 -0.0155 -0.2941 -0.1250
13724PP      PP23828  11.977   4.070   4.395 -0.0328 -0.1099 -0.2197
13725PP      PP23829  15.493   5.477   9.282 -0.0356  0.0574  0.2907
13726PP      PP23830  10.235   2.277  10.565  0.1385 -0.0384  0.0003
13727PP      PP23831   5.183   1.005  12.086  0.0540 -0.0353  0.0514
13728PP      PP23832  12.475  12.406  12.560 -0.1786 -0.1990  0.2036
13729PP      PP23833   0.908   5.927   2.540 -0.0766 -0.1443 -0.0572
13730PP      PP23834  13.402   7.251   9.758 -0.1035 -0.1145 -0.3130
13731PP      PP23835   7.886   9.182   4.314  0.3185 -0.0011  0.1243
13732PP      PP23836   7.270  14.080   1.482 -0.0535 -0.1436  0.1085
13733PP      PP23837  11.535   5.537   2.028 -0.1057  0.0043 -0.0900
13734PP      PP23838   3.206  11.950   3.683  0.1460 -0.1196  0.0382
13735PP      PP23839  14.578   2.755  11.479 -0.0485 -0.2153 -0.0142
13736PP      PP23840   2.842  14.478   0.156 -0.0038 -0.0134  0.2265
13737PP      PP23841   5.060  12.185  12.860  0.0363  0.1308 -0.0505
13738PP      PP23842   6.210   0.076   2.025 -0.1978 -0.0691  0.0549
13739PP      PP23843   9.174   0.363   3.094  0.3141 -0.5894 -0.1875
13740PP      PP23844  13.149   7.023   8.959 -0.3849  0.0177 -0.1777
13741PP      PP23845  15.542  15.792   8.462  0.3965 -0.0523  0.1639
13742PP      PP23846  11.553   2.266  11.899 -0.0495  0.0191 -0.2410
13743PP      PP23847   7.469   4.862   3.541 -0.0302 -0.2428  0.1086
13744PP      PP23848   2.215  14.278   9.029 -0.1179 -0.0228  0.0582
13745PP      PP23849  15.919  13.286   1.863  0.0651  0.3298  0.0431
13746PP      PP23850   0.328  12.878   9.778 -0.0009  0.1565 -0.2357
13747PP      PP23851  10.788  11.556   3.221 -0.1236 -0.1801  0.2364
13748PP      PP23852   0.028   8.143   2.473 -0.2314 -0.2318  0.1482
13749PP      PP23853  14.653   4.118  13.017 -0.1179 -0.2354  0.1505
13750PP      PP23854  12.293  13.226   9.199  0.0139  0.0724 -0.2496
13751PP      PP23855   9.786  12.515   3.323  0.0728 -0.1522  0.1658
13752PP      PP23856   2.431  11.017   4.233  0.0449 -0.1320 -0.1918
13753PP      PP23857  11.722  10.291  10.025  0.2560  0.1396  0.2474
13754PP      PP23858  10.247  12.904  11.907 -0.1238 -0.0654  0.1202
13755PP      PP23859  15.466   6.664   4.025 -0.2698  0.1448  0.0987
13756PP      PP23860  13.489  14.552   9.893  0.3265  0.0495 -0.0891
13757PP      PP23861  11.614   8.014  13.363  0.3302  0.2147  0.0600
13758PP      PP23862   9.479   9.999   8.827 -0.0294 -0.1331 -0.0036
13759PP      PP23863   3.348   9.964   3.132 -0.0367 -0.0641 -0.3283
13760PP      PP23864  13.285   4.061  11.303 -0.0842 -0.0732 -0.3533
13761PP      PP23865   9.157   0.493   0.786  0.2379  0.0399  0.1455
13762PP      PP23866   0.168   4.503   0.288 -0.1092  0.0031 -0.0102
13763PP      PP23867  10.653  12.483   9.329 -0.0645 -0.1264 -0.3588
13764PP      PP23868   9.175   3.965   0.369  0.2187 -0.2033 -0.0703
13765PP      PP23869  13.653   7.234   4.258 -0.1055  0.0691  0.0747
13766PP      PP23870   7.237  14.178   3.758 -0.0449  0.1308 -0.0406
13767PP      PP23871  15.513  11.601  12.864  0.0238 -0.0531 -0.1580
13768PP      PP23872   2.902  15.500  11.529 -0.1051 -0.2475  0.2131
13769PP      PP23873  14.162  13.928  13.257 -0.1159 -0.0717 -0.1902
13770PP      PP23874  11.798   8.785   4.217 -0.0490  0.1961 -0.0340
13771PP      PP23875  10.503  15.886   5.142  0.4490 -0.0207 -0.1778
13772PP      PP23876  14.289   1.211  12.189 -0.2043 -0.0799  0.3047
13773PP      PP23877   5.010   5.110  10.094 -0.2178 -0.1765 -0.1217
13774PP      PP23878  13.507  10.063  10.233 -0.1140  0.0218 -0.1689
13775PP      PP23879   0.852   0.846  11.942  0.1828 -0.1144 -0.0289
13776PP      PP23880   0.028   7.448   9.636  0.2259  0.1111 -0.0863
13777PP      PP23881   2.918  15.660   0.288 -0.1250  0.0352  0.3095
13778PP      PP23882   9.737   2.367   3.547 -0.0619  0.0305  0.0056
13779PP      PP23883   2.459   9.698  12.151 -0.2143  0.0648  0.2514
13780PP      PP23884  12.070   8.016  10.044  0.1237 -0.1331 -0.1382
13781PP      PP23885   4.886  14.133   0.254  0.0846 -0.0468  0.2410
13782PP      PP23886  12.220   5.406   9.626 -0.0914 -0.0619 -0.1689
13783PP      PP23887  11.587   2.058   1.469  0.1511  0.0972 -0.3341
13784PP      PP23888   6.799  15.618  12.675  0.0009  0.0419  0.1857
13785PP      PP23889   5.352   9.243   3.780  0.0097 -0.0761  0.0952
13786PP      PP23890   2.198  12.790  11.677 -0.1837  0.1993 -0.0922
13787PP      PP23891   8.622  12.295  13.028 -0.1690  0.2001 -0.1950
13788PP      PP23892  15.532  14.885   0.755 -0.3211  0.1427  0.2552
13789PP      PP23893  11.584   6.908  10.651 -0.2506 -0.0223 -0.2031
13790PP      PP23894   0.859   8.014   8.649 -0.1475 -0.3585 -0.1504
13791PP      PP23895   1.621   6.197  11.955 -0.1881 -0.2631  0.1294
13792PP      PP23896  10.248   7.943   2.453 -0.0465  0.0723 -0.1271
13793PP      PP23897  14.992   8.536   1.284 -0.2046  0.2106  0.2607
13794PP      PP23898   8.409  12.571  10.559  0.2692 -0.0272 -0.0756
13795PP      PP23899   9.156   2.810   3.648  0.4380 -0.2631 -0.0716
13796PP      PP23900   3.764   3.306  12.168  0.0967  0.0343 -0.0092
13797PP      PP23901   5.395  10.058  10.863  0.2099  0.1200 -0.1089
13798PP      PP23902   9.582   4.816   2.356  0.1598  0.1452  0.0164
13799PP      PP23903  12.315   6.456  11.038 -0.2015  0.2214  0.0717
13800PP      PP23904  12.800   4.700   4.654 -0.0287  0.2003  0.0806
13801PP      PP23905   7.704  15.553   8.529 -0.1423 -0.0887  0.3509
13802PP      PP23906  14.957   5.397  10.146  0.0448  0.0523 -0.1138
13803PP      PP23907  12.019   8.623   4.713  0.0480 -0.0143  0.0363
13804PP      PP23908  13.626   3.673  10.116  0.2901 -0.4126 -0.0061
13805PP      PP23909   8.581   7.626   3.591  0.0377  0.0552 -0.0155
13806PP      PP23910  10.591   4.150  10.017 -0.0743 -0.4877 -0.1139
13807PP      PP23911   1.762  15.785   2.758 -0.0774  0.0506  0.0522
13808PP      PP23912  13.193   8.574   4.586  0.1559  0.1888  0.0922
13809PP      PP23913   8.816  10.946   1.253  0.1895 -0.1019  0.0957
13810PP      PP23914  11.522  14.897   0.369 -0.0546  0.2963 -0.0455
13811PP      PP23915   6.382   8.883   4.698  0.0142  0.0406 -0.2833
13812PP      PP23916   4.186  13.873  10.674 -0.2078  0.1539  0.2651
13813PP      PP23917   6.596   2.731  10.936  0.1160  0.1243 -0.0245
13814PP      PP23918  12.514  15.192   2.831  0.2446  0.0583 -0.1366
13815PP      PP23919   4.181   5.019  13.314 -0.1959  0.1573 -0.0372
13816PP      PP23920   5.634   9.072   1.677 -0.0186 -0.0298  0.1805
13817PP      PP23921   8.548   9.562   4.301  0.1545 -0.2343  0.1417
13818PP      PP23922   6.283   7.053  11.116  0.1919 -0.1817  0.1288
13819PP      PP23923   7.262  11.892   1.967 -0.2906  0.1610 -0.0090
13820PP      PP23924   5.890   3.459   0.681 -0.0388  0.2309 -0.1151
13821PP      PP23925  14.911   7.739   3.833 -0.0922 -0.0166 -0.0743
13822PP      PP23926  14.747  11.543   1.992  0.2249  0.2154 -0.0453
13823PP      PP23927  14.670   0.657   0.062  0.1766  0.4027 -0.0558
13824PP      PP23928  15.734   7.434   1.310  0.0270  0.0121 -0.1739
13825PP      PP23929   3.353   2.132  11.265 -0.0989  0.0797  0.0040
13826PP      PP23930   4.012  12.337  11.384  0.1023 -0.0290 -0.0575
13827PP      PP23931   8.736  11.546   4.337  0.0954 -0.2404 -0.3695
13828PP      PP23932  14.425  11.640  12.948 -0.0660  0.0625  0.0877
13829PP      PP23933  10.889   2.981   0.662  0.1010 -0.1201 -0.2061
13830PP      PP23934   3.182   8.530   1.646 -0.1855  0.0607 -0.1693
13831PP      PP23935  10.691   9.885  12.039 -0.1189 -0.0403 -0.0202
13832PP      PP23936   8.427   8.852   0.081 -0.0447  0.1502  0.2024
13833PP      PP23937   3.988  12.159  10.268  0.0938 -0.0302 -0.3553
13834PP      PP23938   1.440   7.703  11.627 -0.3071  0.0668  0.0459
13835PP      PP23939   7.354   5.175  12.142 -0.0997  0.0485  0.2189
13836PP      PP23940   2.596   7.715   4.007  0.3991  0.0542 -0.0539
13837PP      PP23941  11.130  15.530   9.563 -0.0766 -0.0912  0.0307
13838PP      PP23942   5.239   7.122   2.103 -0.3495 -0.0633  0.2947
13839PP      PP23943  13.712   3.539  11.135 -0.0229 -0.0021  0.2156
13840PP      PP23944  15.161   8.288  10.858  0.2400 -0.2879  0.0913
13841PP      PP23945   3.785   2.205   0.949 -0.0213  0.3168  0.2102
13842PP      PP23946  11.237   3.028  12.786 -0.3077  0.1441 -0.1038
13843PP      PP23947  11.839  13.747   4.358 -0.0450  0.3782 -0.0687
13844PP      PP23948   8.619   6.067   9.942 -0.2144 -0.0307  0.0839
13845PP      PP23949   7.193  13.367   2.152 -0.1054  0.0673 -0.0380
13846PP      PP23950   2.550   8.296   0.513 -0.0987  0.2614  0.1483
13847PP      PP23951   5.230  13.190   9.443 -0.2052 -0.1213 -0.0418
13848PP      PP23952   6.265   5.896   2.850  0.2757  0.0340 -0.0125
13849PP      PP23953   3.448   1.530   2.555 -0.0955  0.1387 -0.0551
13850PP      PP23954   1.867   9.514  10.781  0.1505 -0.0285  0.5280
13851PP      PP23955  11.753   3.074   1.301 -0.0215  0.2096 -0.0794
13852PP      PP23956   2.905  10.598   4.374 -0.0685  0.0315  0.3854
13853PP      PP23957   0.163   6.835   1.180 -0.3951  0.1245  0.0898
13854PP      PP23958  10.627   1.536  10.064  0.0967 -0.3298  0.0670
13855PP      PP23959   0.497   1.862   9.335  0.3106  0.0999  0.1204
13856PP      PP23960  10.762  12.977  11.871  0.1350  0.2976 -0.0112
13857PP      PP23961   7.401   7.772   9.934 -0.0054  0.3453  0.0474
13858PP      PP23962  14.163  13.078   2.283  0.0128  0.0620 -0.1545
13859PP      PP23963  14.885  15.915  12.178  0.0600 -0.0591  0.0655
13860PP      PP23964   2.393   1.973  11.868  0.1700  0.0995 -0.0312
13861PP      PP23965   1.394   9.729   0.635 -0.2412 -0.0318  0.3012
13862PP      PP23966   7.170   8.702   2.166 -0.1608 -0.2038 -0.2554
13863PP      PP23967  12.037  10.882   0.700 -0.1711 -0.1180  0.3686
13864PP      PP23968   6.887  14.613   2.772 -0.1837 -0.2637 -0.1443
13865PP      PP23969   2.397  10.873   0.624  0.0405  0.0749 -0.0255
13866PP      PP23970   4.089   7.989   1.461  0.0117 -0.3594  0.1002
13867PP      PP23971   1.586   1.606   8.794  0.1447 -0.2299  0.1832
13868PP      PP23972   4.810  15.105  12.564  0.1988  0.1710 -0.0108
13869PP      PP23973   9.683  11.392   1.048 -0.0746 -0.2229 -0.1534
13870PP      PP23974   6.798   0.074   9.787  0.0076 -0.0637 -0.1209
13871PP      PP23975  12.150   3.470  12.490  0.0285 -0.0605 -0.0101
13872PP      PP23976   6.586  14.432  11.323  0.0272 -0.2055  0.0201
13873PP      PP23977  13.662  10.151   3.856 -0.1341  0.1043 -0.0036
13874PP      PP23978   7.363   0.562   2.712 -0.1781 -0.3512  0.1508
13875PP      PP23979   5.280   2.017  12.141 -0.0248  0.1018 -0.0631
13876PP      PP23980  11.735   5.253  13.228  0.0609 -0.2686  0.1777
13877PP      PP23981   5.907  11.689   4.291 -0.2188 -0.1910 -0.0348
13878PP      PP23982  13.864  14.348   8.596 -0.2300 -0.0050 -0.0082
13879PP      PP23983   5.636  13.479   2.053 -0.4525 -0.1985 -0.1593
13880PP      PP23984   0.071  11.307  10.320  0.2051 -0.0387  0.0041
13881PP      PP23985  10.948   0.645   0.636  0.0384 -0.0003  0.0673
13882PP      PP23986   5.122  12.657  11.625 -0.1298 -0.1247 -0.3856
13883PP      PP23987   4.069  14.877   9.138 -0.2129 -0.1291 -0.2258
13884PP      PP23988   9.383   1.471   1.920 -0.0378 -0.1151  0.2885
13885PP      PP23989  14.162  10.990  12.138 -0.3146  0.0370  0.0419
13886PP      PP23990  12.269   8.366  12.237  0.0077  0.0270 -0.2203
13887PP      PP23991   5.985  11.537  10.216  0.1727  0.4430 -0.2789
13888PP      PP23992   4.578  13.350   3.679 -0.1401  0.0679  0.1918
13889PP      PP23993   6.838   9.537   9.844 -0.0656  0.2948 -0.0439
13890PP      PP23994   6.807   5.089   9.664  0.0775 -0.1230  0.0748
13891PP      PP23995  10.344   5.083  10.438  0.0219  0.4251  0.0090
13892PP      PP23996  13.472   6.686  12.842  0.3262 -0.0951  0.1792
13893PP      PP23997   4.251   2.343   3.280 -0.2345  0.0445 -0.3646
13894PP      PP23998  12.658   9.530   1.857  0.1387 -0.3182 -0.0451
13895PP      PP23999  15.230   6.928   3.396 -0.1202 -0.0332 -0.1037
13896PP      PP24000  12.200   6.776   2.461 -0.0692  0.0449  0.1194
13897PP      PP24001  15.700   3.597  11.587 -0.0619 -0.1259 -0.1538
13898PP      PP24002  12.861  13.789   3.263 -0.0837  0.0834 -0.1282
13899PP      PP24003   4.568   6.231   3.479 -0.3016 -0.0625  0.2230
13900PP      PP24004   6.063   6.863  11.525 -0.4197 -0.2193 -0.0231
13901PP      PP24005   4.576  11.120  11.024 -0.0820 -0.0265  0.0841
13902PP      PP24006  14.925   3.624  11.136 -0.0491  0.1993  0.3166
13903PP      PP24007  11.365  13.734   3.392 -0.1371  0.2271 -0.1031
13904PP      PP24008   4.054   5.161   1.800  0.0303  0.1890  0.0936
13905PP      PP24009   3.891  14.974   3.624  0.1809 -0.0392  0.0101
13906PP      PP24010  12.712  13.985  10.356 -0.0387 -0.1339 -0.3315
13907PP      PP24011   4.979  13.561   9.001 -0.1619  0.4494 -0.3520
13908PP      PP24012   3.839  13.248  11.944  0.0558 -0.1182 -0.0783
13909PP      PP24013  11.498  12.583   8.834 -0.3097 -0.2538  0.0535
13910PP      PP24014  10.381   7.371   9.304 -0.1032  0.1376  0.1368
13911PP      PP24015  14.311  11.542   0.021 -0.1587  0.0187  0.0166
13912PP      PP24016   1.568   9.907  13.339  0.0961 -0.0073  0.1817
13913PP      PP24017   6.409   2.580   2.371  0.2051 -0.4233  0.3200
13914PP      PP24018  10.786  15.427  12.106  0.0301  0.0612 -0.1073
13915PP      PP24019   5.735   0.914  10.185 -0.0659  0.0083  0.1555
13916PP      PP24020   0.558  13.317  11.259  0.4141 -0.3093 -0.0782
13917PP      PP24021   0.700   2.882   2.504  0.0321  0.2031 -0.2649
13918PP      PP24022  14.684   7.152  12.228  0.1145  0.0247 -0.3125
13919PP      PP24023   5.201  10.582   4.266  0.2072  0.3251  0.1700
13920PP      PP24024   8.987  15.492   1.110  0.1180  0.2576  0.1876
13921PP      PP24025  10.683   7.876   2.672 -0.0769 -0.1171 -0.0797
13922PP      PP24026   1.000   9.443  10.238 -0.1737 -0.3614 -0.0352
13923PP      PP24027   4.952   4.414   0.593  0.0213  0.2604 -0.1239
13924PP      PP24028  11.533   1.504   4.172  0.4139  0.0656 -0.2341
13925PP      PP24029   5.623  10.089  12.660  0.0482  0.0452  0.0796
13926PP      PP24030  14.049   2.129   1.956  0.2393 -0.0719  0.0771
13927PP      PP24031  10.070  14.687   3.796  0.0819  0.2253 -0.0086
13928PP      PP24032  15.495   2.318  11.534  0.0303  0.0994  0.1357
13929PP      PP24033   0.148   3.808   1.971  0.0746  0.1491  0.2546
13930PP      PP24034   8.383  13.136   0.581 -0.1405  0.5358 -0.2158
13931PP      PP24035   3.396   4.644  12.462  0.0308  0.2296 -0.1408
13932PP      PP24036  11.625   2.432   0.463  0.3400  0.4716 -0.2105
13933PP      PP24037   5.306   9.569  12.131 -0.2570 -0.0980 -0.0164
13934PP      PP24038   3.749   8.325   4.266  0.2215 -0.0396  0.3275
13935PP      PP24039  12.124   2.733   2.951 -0.1073 -0.4905 -0.0675
13936PP      PP24040   3.187   9.666   1.328 -0.1169  0.1308  0.0945
13937PP      PP24041  14.442   5.702  12.198 -0.1003  0.2095  0.0221
13938PP      PP24042   7.397   3.490   1.720 -0.1064 -0.4113 -0.0448
13939PP      PP24043   9.430  12.501  12.918  0.3109  0.0910  0.0463
13940PP      PP24044   7.637   2.841   3.751 -0.0429  0.1435  0.1233
13941PP      PP24045   5.070  11.149   3.081  0.0452 -0.1795 -0.1275
13942PP      PP24046  12.561  13.575   4.863 -0.3028  0.0102  0.3722
13943PP      PP24047   4.605   6.822   2.873 -0.0469 -0.2969 -0.1093
13944PP      PP24048  12.213   4.183   1.504  0.0003  0.5840  0.2218
13945PP      PP24049  14.202  14.686  10.555  0.1324  0.0828  0.1260
13946PP      PP24050   8.992   4.478   3.490 -0.1873 -0.1571 -0.3344
13947PP      PP24051   5.110  12.480   9.695 -0.1579  0.1485 -0.3630
13948PP      PP24052   6.169  15.245   2.548 -0.2391  0.2772 -0.1313
13949PP      PP24053  11.816  15.219   1.043 -0.2357 -0.0369  0.0809
13950PP      PP24054   8.465  14.808  11.453 -0.0223 -0.1524  0.0506
13951PP      PP24055  13.197   1.835   1.036 -0.0436 -0.1699  0.2619
13952PP      PP24056  14.870   4.030   9.018  0.1408  0.1259  0.0302
13953PP      PP24057   8.950   2.134   1.581  0.2997 -0.2486 -0.3672
13954PP      PP24058   9.378   2.048   3.899 -0.1553 -0.2288 -0.0652
13955PP      PP24059   8.227  10.756   3.581  0.0991  0.1090  0.0989
13956PP      PP24060   2.138   6.665  12.173  0.1902 -0.0323  0.2115
13957PP      PP24061   3.440  14.988  12.134  0.2317  0.1329  0.0409
13958PP      PP24062  10.406   9.029  10.038 -0.0530  0.0759  0.1187
13959PP      PP24063   7.033   4.152   1.614 -0.1788  0.0789  0.0896
13960PP      PP24064   0.252   9.711   0.221 -0.2881 -0.2284  0.3972
13961PP      PP24065  10.567   5.220   4.421 -0.1640 -0.1187  0.0270
13962PP      PP24066   7.500  13.574   3.910  0.1011  0.0058 -0.3178
13963PP      PP24067   1.112   9.680  12.996  0.2629 -0.0082  0.1668
13964PP      PP24068  13.605   5.774   8.728  0.1553 -0.0356  0.3186
13965PP      PP24069   7.203   5.109  11.431  0.2382 -0.3598 -0.2186
13966PP      PP24070   5.841   1.141   1.607  0.1637  0.0535 -0.1131
13967PP      PP24071   7.080   0.218  11.631  0.1711 -0.1301  0.2456
13968PP      PP24072  13.603   1.551   1.161  0.0568 -0.1314 -0.1737
13969PP      PP24073   0.465   5.308  10.613 -0.1676 -0.0885 -0.5253
13970PP      PP24074   3.835   5.019  11.251  0.0427  0.2716  0.0923
13971PP      PP24075  15.933   8.911   1.498 -0.1532 -0.0437  0.0892
13972PP      PP24076   8.750   7.975   8.762 -0.1685 -0.0868  0.0505
13973PP      PP24077   0.452   1.283  12.679 -0.0223  0.0632 -0.0386
13974PP      PP24078   1.431   6.188  12.816  0.2716  0.2054 -0.1856
13975PP      PP24079  14.406   6.207   4.983 -0.1922  0.1133 -0.0997
13976PP      PP24080   7.582  15.737  12.949  0.3364  0.2000  0.1469
13977PP      PP24081   5.006   2.308   2.512 -0.1266  0.0988 -0.0698
13978PP      PP24082   6.362  12.806   3.004 -0.0863 -0.0142 -0.3843
13979PP      PP24083   8.445  12.612   9.546 -0.0390 -0.0597  0.2552
13980PP      PP24084  10.533  13.086   1.361  0.1642  0.2699 -0.1928
13981PP      PP24085   7.750   2.446  11.397 -0.2060  0.3399  0.1084
13982PP      PP24086  11.017  15.814  11.943 -0.0045  0.0965  0.0421
13983PP      PP24087  12.565   2.906   4.770  0.1700  0.0743  0.2527
13984PP      PP24088   3.461   6.782   4.732  0.0191 -0.0831  0.0277
13985PP      PP24089   9.676   2.795  12.120  0.1094 -0.0002 -0.0918
13986PP      PP24090   2.231   1.689   9.782 -0.3607  0.1352 -0.4657
13987PP      PP24091   3.101   6.201   0.585  0.2771  0.4023  0.2266
13988PP      PP24092   9.190   7.087  10.948  0.0521 -0.1112 -0.0272
13989PP      PP24093  12.287   1.893   4.447  0.0807 -0.2126 -0.2880
13990PP      PP24094   7.347   0.401   0.682 -0.1383  0.2789 -0.0038
13991PP      PP24095   7.350   6.882   3.303 -0.0183 -0.1341 -0.0815
13992PP      PP24096  12.297   5.239   0.031 -0.2466  0.1737 -0.0487
13993PP      PP24097   1.052   8.355   3.903 -0.2672  0.1083  0.0177
13994PP      PP24098   3.319  11.077   2.431 -0.2568 -0.1066 -0.1257
13995PP      PP24099   2.358  13.342   3.103 -0.1450  0.2203 -0.0319
13996PP      PP24100   6.791   9.312   4.510  0.0063 -0.1764  0.2392
13997PP      PP24101   6.353  14.320   9.429 -0.0466  0.0524  0.0300
13998PP      PP24102   2.247   8.545   0.811  0.2316  0.0501  0.0485
13999PP      PP24103   7.857  13.642  12.100  0.0724 -0.0018 -0.3768
14000PP      PP24104   7.568  13.031  13.361 -0.2825 -0.1043 -0.2732
14001PP      PP24105   2.895   1.089   9.658  0.1248  0.0703  0.1639
14002PP      PP24106   3.074   7.865  12.417 -0.0391 -0.1919 -0.1116
14003PP      PP24107  10.442  11.613  10.437  0.2057  0.1435 -0.0105
14004PP      PP24108   8.083   0.548  12.858  0.1598  0.0473  0.0077
14005PP      PP24109   2.794  11.272   2.448  0.0023 -0.2816 -0.0224
14006PP      PP24110   3.352  10.000   9.290 -0.0620 -0.0763  0.0273
14007PP      PP24111   2.018  13.235   0.070  0.2087  0.2400  0.2385
14008PP      PP24112   0.157   9.144   2.479  0.0909 -0.0516  0.0262
14009PP      PP24113   3.967  10.943   0.572  0.2399  0.8105  0.2242
14010PP      PP24114   1.053   5.196  12.146  0.0587 -0.0270  0.0768
14011PP      PP24115  12.781   7.608  11.216 -0.2405 -0.1003  0.1834
14012PP      PP24116   7.509   9.109   2.469  0.1393  0.0406 -0.0211
14013PP      PP24117   4.460   8.425   4.578 -0.0533 -0.1849  0.0700
14014PP      PP24118  14.880   1.701   0.160 -0.2010  0.3287  0.0178
14015PP      PP24119  12.656   3.867  10.129 -0.2105  0.1940 -0.2738
14016PP      PP24120   0.513   8.416   2.465  0.3266  0.0968  0.0984
14017PP      PP24121   8.480   3.672   1.475 -0.0136 -0.0407 -0.1482
14018PP      PP24122   2.367  15.825   0.493  0.0784  0.1396 -0.0227
14019PP      PP24123   8.935  13.947   4.357 -0.0593  0.1358 -0.1640
14020PP      PP24124   6.690   2.054   3.224  0.0827  0.0834 -0.1288
14021PP      PP24125   1.251   5.184   2.606  0.3885  0.1146 -0.3589
14022PP      PP24126   1.033   2.085   9.346 -0.0289  0.3230 -0.0366
14023PP      PP24127  11.325   2.718  10.338  0.2534 -0.0867  0.0261
14024PP      PP24128  13.910  15.292   1.522  0.0243  0.0047  0.3816
14025PP      PP24129   8.212  14.286   3.996  0.2023 -0.0095  0.0327
14026PP      PP24130  14.662   4.464   0.727 -0.0603  0.1357  0.0671
14027PP      PP24131   8.039   3.882  13.067 -0.1292 -0.0201 -0.0401
14028PP      PP24132   8.685   3.665   3.269 -0.2977  0.1912  0.1389
14029PP      PP24133   0.781  13.183   0.863  0.3716 -0.0852 -0.0142
14030PP      PP24134  13.872   5.755  12.174  0.1058  0.2438  0.0467
14031PP      PP24135  13.660   4.036   4.577  0.2353 -0.0012  0.1256
14032PP      PP24136   1.068  15.039  10.871 -0.1195 -0.1344 -0.0983
14033PP      PP24137  11.862  15.789   4.964  0.1366 -0.2861 -0.0816
14034PP      PP24138   2.938   7.872   2.299  0.0008 -0.0160  0.3138
14035PP      PP24139   8.778   2.424   9.741  0.2554  0.2471  0.0460
14036PP      PP24140  13.891   1.182   9.895  0.3363  0.0785  0.0815
14037PP      PP24141   7.183  12.316   4.651  0.2003 -0.0933 -0.0363
14038PP      PP24142   0.159  15.753   9.598 -0.1028  0.2174 -0.0053
14039PP      PP24143  13.373  15.505   2.407  0.1253  0.2092 -0.2519
14040PP      PP24144   0.966   1.444  12.986  0.0049 -0.1663  0.1073
14041PP      PP24145   4.386   6.120  11.940 -0.1693  0.1360  0.1158
14042PP      PP24146   2.682  11.490   2.877 -0.3299 -0.0647  0.1305
14043PP      PP24147   3.313   7.143  12.846  0.2580  0.2314 -0.1698
14044PP      PP24148  14.186  13.632  11.354 -0.0123 -0.0562  0.0447
14045PP      PP24149   5.213  13.841  12.040 -0.0793 -0.1587 -0.3355
14046PP      PP24150  14.214   2.975  11.893 -0.0053 -0.2387  0.0546
14047PP      PP24151  15.775   8.412   4.254  0.0856 -0.1721 -0.3083
14048PP      PP24152   9.840   0.871  12.341  0.2097  0.1806  0.0064
14049PP      PP24153   7.497   4.010  11.296 -0.1580 -0.0245 -0.1160
14050PP      PP24154   9.990  15.630  12.437 -0.0265 -0.0605  0.0612
14051PP      PP24155   3.012   8.146   1.321 -0.3266  0.1189 -0.2032
14052PP      PP24156   5.769   1.314   2.120 -0.1450 -0.3719 -0.0248
14053PP      PP24157  11.512   4.930   1.429 -0.1070 -0.1777  0.0579
14054PP      PP24158   6.876  10.405  10.468 -0.1341  0.2146  0.3004
14055PP      PP24159   2.112  12.510   0.764  0.2029  0.0811  0.0623
14056PP      PP24160   1.950  10.234   3.960 -0.0799 -0.0275  0.1476
14057PP      PP24161   3.065   0.235   0.239  0.1983 -0.2592 -0.3124
14058PP      PP24162   5.361   1.635   2.030 -0.2788  0.3987  0.2278
14059PP      PP24163  13.424  10.971   2.909  0.3028  0.3648  0.0839
14060PP      PP24164   6.773   2.458   2.759 -0.0222 -0.0703  0.0166
14061PP      PP24165  15.637  11.902   8.518  0.0279  0.0187 -0.0610
14062PP      PP24166   6.809   1.745  10.778  0.2801  0.3182  0.0774
14063PP      PP24167   9.443   3.181   3.517 -0.2079 -0.0985  0.2022
14064PP      PP24168   7.640   1.411  10.287  0.0482 -0.0918 -0.3530
14065PP      PP24169  11.897   9.433  10.487  0.3951 -0.4059 -0.1109
14066PP      PP24170   8.979  12.837  10.164 -0.3831  0.1394  0.2970
14067PP      PP24171   6.349  10.221   1.550 -0.2299 -0.0830 -0.0348
14068PP      PP24172   3.279   2.794   3.091 -0.3763 -0.0277  0.1300
14069PP      PP24173   7.997  14.762   9.087  0.1805  0.3264 -0.1837
14070PP      PP24174   4.678   6.861   9.259 -0.0451  0.0781  0.1387
14071PP      PP24175  13.265  12.524  11.244 -0.2796 -0.0227 -0.3856
14072PP      PP24176   6.992  13.334  12.713  0.1615 -0.4524  0.0947
14073PP      PP24177   7.900  10.157  12.245 -0.2342  0.1837 -0.0633
14074PP      PP24178   0.675   8.161   1.881  0.1244  0.1448 -0.0253
14075PP      PP24179   3.786  11.747  10.000 -0.0037  0.3003 -0.1337
14076PP      PP24180   8.631   7.884   2.004 -0.4561 -0.4251 -0.2750
14077PP      PP24181  15.582   0.873  12.925  0.1540  0.1139 -0.0736
14078PP      PP24182   7.391  15.020  11.873 -0.2258 -0.0507  0.0257
14079PP      PP24183   3.606   2.534   2.561 -0.5704  0.1320 -0.1505
14080PP      PP24184  12.389  14.092   9.411 -0.1380 -0.0727 -0.2006
14081PP      PP24185   0.357   9.768   1.179  0.0355  0.0315  0.0074
14082PP      PP24186  14.493  10.182  11.204 -0.0503 -0.0069 -0.0219
14083PP      PP24187   4.366   1.671   9.046  0.0263 -0.0566  0.0373
14084PP      PP24188  11.371   1.903   1.844  0.1358 -0.1875 -0.2921
14085PP      PP24189   5.113  11.216   2.523  0.3461 -0.1750  0.2873
14086PP      PP24190  13.002   1.136  11.719 -0.0227  0.1813  0.0205
14087PP      PP24191   3.296   6.899   1.506  0.0960  0.1425  0.1036
14088PP      PP24192  14.179   0.344   3.800  0.0714  0.1569 -0.0375
14089PP      PP24193   0.110   7.113   2.809  0.0992 -0.0384 -0.0294
14090PP      PP24194   5.280   8.651   2.695 -0.1223 -0.0100 -0.1039
14091PP      PP24195   2.910  13.761   8.181 -0.1841 -0.1137  0.4291
14092PP      PP24196   6.380   1.310  10.811 -0.2306 -0.1846 -0.1320
14093PP      PP24197   7.379  14.952   1.667  0.1909  0.2137  0.4308
14094PP      PP24198   4.406  12.251   8.767 -0.0392 -0.2213 -0.1123
14095PP      PP24199   2.256   0.571   1.088  0.0617  0.0484 -0.1470
14096PP      PP24200  14.174   5.580   1.445 -0.2381  0.0686 -0.0964
14097PP      PP24201  10.312  13.403   0.085  0.2951  0.1571  0.0758
14098PP      PP24202   1.636  13.690   9.920  0.1813  0.3006 -0.2836
14099PP      PP24203  12.827  12.865   0.761  0.1838 -0.2858  0.2285
14100PP      PP24204  11.217   0.185   9.625 -0.0974  0.0740  0.2947
14101PP      PP24205   0.629   9.838   2.792 -0.0214  0.0623 -0.0452
14102PP      PP24206  10.820  14.437  12.352  0.1078  0.3223  0.1237
14103PP      PP24207  14.397  10.635   2.352  0.1575 -0.1109 -0.0388
14104PP      PP24208   2.242   4.048  12.203  0.2029 -0.2434  0.1767
14105PP      PP24209   6.536   1.432   1.950  0.2023 -0.0127 -0.0065
14106PP      PP24210   9.178   9.908   2.889  0.3138 -0.3052  0.0856
14107PP      PP24211   3.752   1.105   0.253 -0.1752  0.0076 -0.2078
14108PP      PP24212  13.526   2.533  12.887  0.0924  0.1680  0.1151
14109PP      PP24213  12.772  12.445   4.053  0.1035 -0.0829 -0.0134
14110PP      PP24214   9.848   6.214  11.463 -0.0117 -0.1640  0.0460
14111PP      PP24215  12.125   8.661   3.661 -0.0965 -0.0691  0.0806
14112PP      PP24216  14.664   6.506  12.914  0.3199  0.1377 -0.1909
14113PP      PP24217  15.769  12.302   3.620  0.2152 -0.2041  0.2690
14114PP      PP24218  11.056   3.948  11.370 -0.2526 -0.3158  0.0105
14115PP      PP24219  12.257  12.601  10.414 -0.4100 -0.2908  0.2016
14116PP      PP24220  14.193   6.585  11.798  0.0211  0.1995  0.1388
14117PP      PP24221  11.791   2.880  11.859 -0.2116  0.2502 -0.0496
14118PP      PP24222   9.980  11.949  12.940  0.0084  0.0560  0.0304
14119PP      PP24223   2.327   6.081   1.976 -0.1408  0.1539 -0.0744
14120PP      PP24224   9.684   2.722  11.542 -0.0166  0.4040  0.1093
14121PP      PP24225   4.643   4.009  12.260  0.2304 -0.2431  0.2085
14122PP      PP24226  10.421   2.644  12.566 -0.3080 -0.2158  0.3646
14123PP      PP24227   9.407  15.712   3.928  0.0915 -0.0597  0.3847
14124PP      PP24228   9.057   2.553   2.906 -0.3085 -0.1311  0.3868
14125PP      PP24229  15.552   4.260   3.937  0.0621  0.0968  0.0371
14126PP      PP24230   7.084   4.662   3.850  0.1819 -0.1804  0.0560
14127PP      PP24231  15.047  11.206  10.512  0.2524 -0.3587  0.0268
14128PP      PP24232   9.911  15.224   2.326 -0.3212 -0.0635  0.0691
14129PP      PP24233   5.075   1.115   0.956  0.3074  0.1799  0.2223
14130PP      PP24234   6.852   4.962  10.997  0.1504 -0.1350  0.0707
14131PP      PP24235   1.568  11.458  10.382  0.2537 -0.1457  0.3261
14132PP      PP24236  11.421   6.818  12.546 -0.2036 -0.0184 -0.1496
14133PP      PP24237   8.661   3.146  13.159 -0.1555 -0.0121 -0.1838
14134PP      PP24238   7.629  12.714   3.804  0.3223  0.2093  0.0698
14135PP      PP24239   9.904   7.410   3.420 -0.1525 -0.1656  0.0372
14136PP      PP24240  14.370   2.028   3.473 -0.1233  0.1693 -0.0019
14137PP      PP24241   8.934   6.409   2.858 -0.1999 -0.0791  0.2683
14138PP      PP24242   7.977  11.079   9.099 -0.0642 -0.0970  0.2688
14139PP      PP24243  14.856   7.118  11.459  0.2757  0.1397 -0.0503
14140PP      PP24244   0.652   4.430  11.112  0.1327 -0.2686 -0.0737
14141PP      PP24245  14.257  12.419   1.968  0.0088 -0.0019  0.0536
14142PP      PP24246   6.176   6.040   9.599  0.2188 -0.1045  0.0776
14143PP      PP24247   9.520   2.556  11.024 -0.0689  0.0602  0.0111
14144PP      PP24248  13.860   4.586   1.383 -0.3883  0.3131 -0.2412
14145PP      PP24249   7.146  12.993  11.468  0.1478  0.0168  0.0850
14146PP      PP24250  10.735  15.139   9.424  0.1496 -0.1548  0.1154
14147PP      PP24251   7.049   9.610   1.285 -0.1473  0.1536 -0.1554
14148PP      PP24252  14.942   8.058   1.277  0.0380 -0.2729 -0.2899
14149PP      PP24253   1.779   2.233   1.281  0.2930 -0.0750 -0.0042
14150PP      PP24254   7.236   3.268   2.342  0.1623 -0.1148 -0.2114
14151PP      PP24255  13.469   3.044   2.320  0.1731 -0.1211  0.2146
14152PP      PP24256   1.353   5.253  13.332 -0.0481 -0.2397 -0.2157
14153PP      PP24257   3.789   6.009   1.994  0.3055 -0.1012  0.0144
14154PP      PP24258   2.123   1.517  11.714 -0.0014 -0.3135  0.0145
14155PP      PP24259  11.996  13.909  12.477 -0.0750  0.0311  0.3664
14156PP      PP24260   6.073   1.653   2.810  0.1019  0.2298 -0.1043
14157PP      PP24261  13.202   2.220   4.258  0.2839 -0.2492  0.1854
14158PP      PP24262  14.964  15.580  10.141 -0.1451  0.0234 -0.2563
14159PP      PP24263   8.493   6.737   4.630  0.0383 -0.0489 -0.0373
14160PP      PP24264  12.531   9.066  11.626  0.1363 -0.0871 -0.2035
14161PP      PP24265  10.519   2.324  12.932 -0.0242 -0.0632  0.1441
14162PP      PP24266  12.824   2.011  12.755  0.0167  0.2705 -0.0796
14163PP      PP24267   3.814  14.752   1.688  0.2199  0.2096 -0.0312
14164PP      PP24268   0.319  11.967   2.215  0.0949  0.0991 -0.2890
14165PP      PP24269  11.968   5.720  13.274 -0.0659 -0.0640  0.0039
14166PP      PP24270   4.404  11.694   0.330 -0.3904  0.1691 -0.1159
14167PP      PP24271   7.847   0.528   9.726 -0.2380  0.0683 -0.0794
14168PP      PP24272   2.554   5.491   1.237  0.1801  0.1735  0.2629
14169PP      PP24273   6.083   0.915   3.304 -0.2950  0.0953 -0.1524
14170PP      PP24274  11.277  10.306   9.449 -0.1478 -0.0551 -0.1729
14171PP      PP24275   1.156   0.573   0.140 -0.1530  0.1422  0.2300
14172PP      PP24276   4.647  11.422   9.299 -0.0133  0.0610  0.2805
14173PP      PP24277  14.782   0.147  10.165 -0.1306 -0.0447 -0.0207
14174PP      PP24278   4.562   8.110   2.170  0.1985 -0.3254  0.2276
14175PP      PP24279   5.366  12.207   9.060  0.0269  0.3335  0.0469
14176PP      PP24280  15.392   2.071   9.406 -0.2445  0.0887 -0.1974
14177PP      PP24281   4.677   5.709  10.262 -0.1154 -0.1719 -0.0961
14178PP      PP24282  14.881   4.904   0.783 -0.2164 -0.0524 -0.0357
14179PP      PP24283  15.362  11.091  10.890 -0.1075 -0.2266  0.1355
14180PP      PP24284  13.833  13.112   0.913  0.3173 -0.0052 -0.1804
14181PP      PP24285  14.889  15.924  12.682  0.2770  0.2071  0.1450
14182PP      PP24286  11.541  15.747  11.956 -0.0848 -0.0673  0.2830
14183PP      PP24287   9.627   9.050   0.869 -0.1123  0.1693  0.0609
14184PP      PP24288   2.483  11.558  13.372 -0.0976 -0.0616 -0.2079
14185PP      PP24289   2.895   1.624   9.933  0.1226  0.2161 -0.1208
14186PP      PP24290   7.783   3.171  10.209 -0.3007  0.1650  0.0599
14187PP      PP24291   0.336  13.232  13.382 -0.1115 -0.0159  0.4151
14188PP      PP24292  11.342  14.332   2.614  0.3101  0.2968  0.1106
14189PP      PP24293  14.291   5.021   1.466  0.3178  0.0288  0.1744
14190PP      PP24294  13.932  14.420   9.183  0.3582  0.1595 -0.0644
14191PP      PP24295   3.388   1.109  11.679  0.5049 -0.1431  0.2631
14192PP      PP24296   2.160  11.462   2.744  0.0128 -0.0558 -0.0052
14193PP      PP24297   9.939  12.547   9.294  0.0254  0.1360 -0.0966
14194PP      PP24298   3.770   0.157   3.134 -0.1787 -0.2378 -0.1056
14195PP      PP24299   4.224   8.937   3.699  0.0708  0.0331  0.1474
14196PP      PP24300   7.688   0.886   3.163  0.2004  0.0291 -0.0253
14197PP      PP24301  11.491  10.281   1.712  0.2287 -0.1226 -0.4667
14198PP      PP24302  10.403   8.401   1.639  0.1476  0.0838  0.0253
14199PP      PP24303   4.117   1.690   3.286  0.0262 -0.1051  0.1162
14200PP      PP24304  15.585   3.145  11.807  0.1409  0.2515  0.2611
14201PP      PP24305   4.378   0.011  10.546  0.1988  0.0231  0.0795
14202PP      PP24306  13.397  13.671   4.159  0.1576  0.2761 -0.0229
14203PP      PP24307  15.081  14.662  10.506 -0.0581 -0.2435 -0.0600
14204PP      PP24308   0.132   3.283  13.305  0.1175  0.3006  0.0480
14205PP      PP24309   5.105   0.011  10.502  0.3232 -0.1412  0.2060
14206PP      PP24310   5.401   3.534   1.020  0.0117 -0.1098  0.0308
14207PP      PP24311  14.797  14.146   9.265 -0.0983  0.1818  0.1196
14208PP      PP24312   5.716   3.568  11.319  0.0616 -0.3491 -0.2272
14209PP      PP24313  13.759  13.842   1.518  0.0454 -0.1533 -0.1580
14210PP      PP24314   5.322   3.688   0.387  0.0334  0.0995  0.1172
14211PP      PP24315   5.204   3.263   9.221  0.2914 -0.0396 -0.2875
14212PP      PP24316   9.222   1.052   4.214  0.2222 -0.4802 -0.3221
14213PP      PP24317  13.741   8.460   2.164  0.1863 -0.0140  0.3335
14214PP      PP24318   6.932  10.074  12.191 -0.0354  0.2013 -0.0012
14215PP      PP24319  12.033  15.683  12.780  0.0912 -0.5498 -0.1907
14216PP      PP24320  14.045   2.378   3.534 -0.1410  0.0641 -0.0931
14217PP      PP24321   1.729   9.489   4.025 -0.0316 -0.1285 -0.2975
14218PP      PP24322   3.558  10.269  11.569  0.0614  0.2327  0.0907
14219PP      PP24323   1.167  13.129   3.449  0.1361  0.2769  0.0544
14220PP      PP24324  11.367   1.065   2.591  0.0065  0.5234 -0.1720
14221PP      PP24325   3.516   5.747   9.021 -0.0695  0.2118 -0.3952
14222PP      PP24326  10.654  15.006  13.204 -0.1794  0.1606 -0.1027
14223PP      PP24327  13.532  10.450   9.357  0.0520 -0.0717  0.3269
14224PP      PP24328   2.941  14.318   8.315  0.1214 -0.1756 -0.0853
14225PP      PP24329  14.467   1.735   1.058 -0.2787  0.1200 -0.0536
14226PP      PP24330  11.899  10.637   3.007 -0.0522  0.1960  0.0648
14227PP      PP24331  10.009  15.556   9.247 -0.0519 -0.0359  0.0333
14228PP      PP24332  11.259  15.618   8.912 -0.1533 -0.1930  0.2016
14229PP      PP24333   0.844  14.237   2.425 -0.0738 -0.2141 -0.0882
14230PP      PP24334   7.290  14.611   3.476 -0.3039  0.0165 -0.2148
14231PP      PP24335  11.999   2.839   1.951  0.0168  0.1203  0.0490
14232PP      PP24336   7.371   4.696   1.693 -0.3761 -0.1284 -0.1195
14233PP      PP24337   5.214   2.689   0.266 -0.5259 -0.0074  0.0479
14234PP      PP24338  11.813   5.467   4.253 -0.1096 -0.2131 -0.2709
14235PP      PP24339   2.918   7.742   9.275 -0.0635 -0.0944 -0.1173
14236PP      PP24340  10.772   2.773  10.205 -0.0413 -0.2980 -0.0022
14237PP      PP24341  12.581   7.642   3.553 -0.0382  0.0707  0.1292
14238PP      PP24342   3.203  14.045   1.144 -0.0609  0.3960 -0.0221
14239PP      PP24343   2.865   7.580  11.601  0.1879 -0.1374 -0.1753
14240PP      PP24344   9.640   0.114   9.889 -0.1509  0.2654  0.1300
14241PP      PP24345   4.257  15.793   3.609  0.1734  0.1258  0.1710
14242PP      PP24346   6.786   1.052  12.998  0.0750 -0.1098  0.0599
14243PP      PP24347   9.887  15.742   8.820  0.0834  0.1948 -0.1195
14244PP      PP24348   0.550   5.688   3.470  0.0442 -0.2829 -0.1491
14245PP      PP24349  11.912   8.426  12.840 -0.0649  0.1722 -0.0547
14246PP      PP24350   5.466   6.359   4.580 -0.1373  0.2656  0.0807
14247PP      PP24351  11.925   0.965  12.683 -0.1162 -0.1128  0.3014
14248PP      PP24352   2.737  11.580  12.957 -0.0311 -0.0286 -0.1627
14249PP      PP24353   5.539   0.014   0.646  0.4499 -0.0358  0.4060
14250PP      PP24354   6.899  14.695   0.302  0.1780  0.2562 -0.2312
14251PP      PP24355   1.510   0.519  12.950 -0.1245  0.1597  0.0306
14252PP      PP24356  13.373  11.793  12.033  0.2192 -0.0527 -0.1194
14253PP      PP24357  14.124   9.854   4.044  0.2708  0.2920 -0.2058
14254PP      PP24358  11.381   7.238  11.948  0.1349 -0.1928  0.3884
14255PP      PP24359   4.440   1.100   2.662  0.2149 -0.1475 -0.3892
14256PP      PP24360   6.376   8.741   9.821  0.1318  0.4000  0.1348
14257PP      PP24361   9.822  13.960   3.934  0.0991  0.1373  0.1977
14258PP      PP24362   9.260   3.008  10.688 -0.1285 -0.3719  0.0277
14259PP      PP24363  12.924   1.356   2.991  0.1911  0.3739 -0.0144
14260PP      PP24364   7.423   5.298   9.692 -0.0027  0.0763 -0.1793
14261PP      PP24365  13.936  10.361  11.004  0.1608 -0.0912  0.3002
14262PP      PP24366   8.174   1.518  11.941 -0.1897  0.0530  0.2532
14263PP      PP24367  15.270  10.452   2.182  0.1489 -0.1124  0.0506
14264PP      PP24368   7.034  11.249  12.224  0.2812  0.1590  0.3492
14265PP      PP24369   6.875   0.284   0.502  0.0985 -0.1978 -0.1864
14266PP      PP24370   3.630   6.827   1.917  0.2150  0.1076 -0.1284
14267PP      PP24371   8.813   8.330   9.149 -0.1123 -0.0424 -0.0017
14268PP      PP24372   9.478  14.280   3.062  0.1503 -0.2870 -0.3378
14269PP      PP24373   4.084   8.880  10.242 -0.2439  0.1019  0.3551
14270PP      PP24374   9.703   1.018  12.795  0.2471  0.3520 -0.0151
14271PP      PP24375   1.840   2.761   9.160  0.1356 -0.0713  0.0323
14272PP      PP24376   2.351   7.827  11.008 -0.0625 -0.2210  0.0895
14273PP      PP24377   1.148   2.287   3.466  0.0557 -0.3223 -0.0963
14274PP      PP24378   2.278  15.555   2.703 -0.1076  0.1030  0.0127
14275PP      PP24379   2.211   2.464   9.487 -0.0515  0.0059 -0.2849
14276PP      PP24380   0.205   6.128   9.346  0.1110 -0.3766 -0.4931
14277PP      PP24381  13.629   4.633   4.791  0.1679  0.2847  0.0309
14278PP      PP24382   8.518   3.281  12.627  0.0551 -0.3212  0.0463
14279PP      PP24383   0.431  10.563   3.811 -0.2820 -0.1710 -0.1941
14280PP      PP24384   4.938   9.006  10.758 -0.0255  0.3091  0.0045
14281PP      PP24385   1.828   6.135  13.277  0.1704 -0.2666  0.1431
14282PP      PP24386   5.580   2.970   0.005 -0.0643  0.0050 -0.4512
14283PP      PP24387  15.652  12.443   0.932  0.2081 -0.4592 -0.2886
14284PP      PP24388   3.929  14.889  10.971  0.1219  0.0396  0.3021
14285PP      PP24389  10.797  14.696  11.766  0.1264  0.1405 -0.0021
14286PP      PP24390   6.997   3.069  11.036 -0.1518  0.2408  0.1115
14287PP      PP24391  13.960   3.043   0.936 -0.4217 -0.2366  0.0641
14288PP      PP24392  15.170  11.736   2.104  0.3024  0.4351 -0.3061
14289PP      PP24393   8.181   4.271  12.575  0.2212  0.1852 -0.2920
14290PP      PP24394   9.014   8.602   5.368 -0.4282  0.1127 -0.3601
14291PP      PP24395   6.066  14.125   1.756  0.0078 -0.0447  0.1066
14292PP      PP24396   5.710  13.166  11.925 -0.1376  0.3443 -0.1649
14293PP      PP24397   8.256   1.601   1.180  0.0248  0.3098 -0.0712
14294PP      PP24398   0.656   8.976   8.941  0.0100 -0.1035  0.2066
14295PP      PP24399  11.238   3.457  11.410  0.0704  0.0813 -0.0436
14296PP      PP24400   6.043  12.443   9.851  0.1754 -0.1179 -0.2806
14297PP      PP24401  14.712  11.598   2.500  0.1947  0.0809  0.1882
14298PP      PP24402   9.876   1.075   3.964  0.2538 -0.1778  0.0493
14299PP      PP24403  14.470   6.684   1.223 -0.1728  0.1685 -0.0404
14300PP      PP24404  13.882   0.421  10.199 -0.1309 -0.1537 -0.3429
14301PP      PP24405  15.620   8.584   3.690  0.0285  0.0906 -0.0235
14302PP      PP24406  12.256  14.522  11.669  0.1878  0.3784 -0.3220
14303PP      PP24407  15.030  15.535   9.064  0.0157 -0.1179 -0.0929
14304PP      PP24408   1.388   1.235  12.648  0.2672 -0.1776  0.1706
14305PP      PP24409  11.120   6.143  11.948 -0.3440 -0.0904  0.0242
14306PP      PP24410  13.095   3.449  10.988  0.0325  0.0377 -0.1916
14307PP      PP24411  11.881  14.974   9.239 -0.0440 -0.1164  0.1502
14308PP      PP24412   9.045   9.159  11.649  0.1168 -0.1165  0.2178
14309PP      PP24413  11.332   1.315  10.309 -0.1265  0.2137  0.2498
14310PP      PP24414   4.655  11.042   3.386 -0.1790  0.1643  0.0407
14311PP      PP24415   1.726   9.185   1.579  0.2228  0.2438  0.1724
14312PP      PP24416   4.282   1.521  12.795  0.0064 -0.0982  0.0503
14313PP      PP24417   4.877   9.671   4.116 -0.0037 -0.0583  0.2317
14314PP      PP24418   9.180  15.014   9.556  0.1465  0.1409  0.0748
14315PP      PP24419   2.244   4.252   3.155  0.0519  0.0158 -0.1710
14316PP      PP24420   1.379  10.507   0.551  0.0448 -0.2380 -0.1350
14317PP      PP24421   4.165  12.020   3.837 -0.2159  0.2360  0.1036
14318PP      PP24422   8.619   4.361   9.288 -0.0794  0.2665 -0.0555
14319PP      PP24423   3.187   8.319   0.114 -0.1387  0.0825  0.0266
14320PP      PP24424  13.525   7.813  12.497 -0.0373  0.1321 -0.2318
14321PP      PP24425   4.706  11.348   1.175  0.1135 -0.0213  0.3826
14322PP      PP24426   9.002  13.885  10.219 -0.0333 -0.0149  0.2215
14323PP      PP24427   3.530  10.095   0.554 -0.1636 -0.4220  0.2826
14324PP      PP24428   8.158   7.196   2.268 -0.0306  0.0599 -0.1199
14325PP      PP24429   4.934   7.748   1.940  0.2714 -0.1865  0.2607
14326PP      PP24430   3.023  13.402   4.239 -0.2468  0.1656 -0.3262
14327PP      PP24431   9.127   7.380   5.062  0.2478 -0.1858 -0.2229
14328PP      PP24432  15.182   4.463   9.192 -0.1449 -0.0112 -0.0516
14329PP      PP24433   6.656  11.226  11.157  0.2617  0.0275 -0.2909
14330PP      PP24434   2.105   3.027  11.568 -0.0830  0.1427 -0.1046
14331PP      PP24435   1.723   2.068   0.837 -0.1360 -0.0293  0.0224
14332PP      PP24436  14.630   4.975  11.058  0.0734  0.2343  0.2094
14333PP      PP24437  15.555  15.734  12.752  0.0576  0.1779 -0.2199
14334PP      PP24438   2.235  14.507   0.283  0.1268 -0.0227 -0.0342
14335PP      PP24439   3.277  11.551  13.036  0.0053  0.0999 -0.0251
14336PP      PP24440   7.296   6.330  11.230 -0.1225 -0.2281 -0.0387
14337PP      PP24441   8.818  15.102   3.950  0.0217 -0.2992  0.1374
14338PP      PP24442  14.250   6.442  10.704  0.1854  0.1157 -0.1252
14339PP      PP24443  14.389  12.839   8.903  0.1070 -0.0041  0.1520
14340PP      PP24444   3.784   0.672  11.816 -0.0061  0.3155 -0.2520
14341PP      PP24445   3.040   1.788   0.202  0.0766 -0.3006  0.3816
14342PP      PP24446   0.416  11.300  11.759  0.5134 -0.1522 -0.0871
14343PP      PP24447   3.221   9.828   0.093  0.1247 -0.0974 -0.0634
14344PP      PP24448  11.160  10.087   9.987  0.0797  0.1805 -0.1606
14345PP      PP24449  10.988   8.619   1.018  0.1043  0.1583 -0.0538
14346PP      PP24450   7.270   1.939   0.856  0.0613  0.1285 -0.0537
14347PP      PP24451   5.015  15.299   1.290 -0.0598  0.0852 -0.1075
14348PP      PP24452   7.817   5.399  10.192  0.0749  0.0728 -0.2072
14349PP      PP24453   6.595  13.297   0.507 -0.0938 -0.0984 -0.1065
14350PP      PP24454   2.030  10.831  13.199 -0.1622  0.1746  0.0394
14351PP      PP24455   0.554   6.278  13.279 -0.0980  0.1139 -0.4287
14352PP      PP24456   9.739   1.458   2.302  0.2960 -0.1021 -0.0520
14353PP      PP24457   3.565   5.419  11.993  0.1649  0.0517  0.0081
14354PP      PP24458   9.003   1.020   3.405 -0.1924 -0.3878 -0.0345
14355PP      PP24459   9.763  14.929  12.031 -0.0060  0.0090  0.0556
14356PP      PP24460   0.743   1.408   1.748 -0.1022  0.0238 -0.1448
14357PP      PP24461   1.099  10.620  12.999  0.4112 -0.1704 -0.1344
14358PP      PP24462  12.299   3.262  13.370 -0.1950  0.2732 -0.1840
14359PP      PP24463   2.079   4.954   2.468 -0.0511  0.2107  0.2979
14360PP      PP24464   1.626   0.513  12.390 -0.1918  0.1887  0.0561
14361PP      PP24465  10.719   7.313  12.222 -0.0702  0.3157 -0.0480
14362PP      PP24466   8.078  12.305   3.974  0.3088  0.2579 -0.0563
14363PP      PP24467  10.910  11.443  11.709 -0.0579  0.1993 -0.1951
14364PP      PP24468   4.932   6.733   1.522  0.0330 -0.0758 -0.1131
14365PP      PP24469   7.729   4.835  13.184  0.0555  0.1474  0.0260
14366PP      PP24470  10.049  10.848   9.830 -0.0975 -0.3862  0.2086
14367PP      PP24471  14.705   6.118  12.095 -0.1495  0.1155 -0.2477
14368PP      PP24472   5.712  14.186  12.064  0.2047 -0.0290  0.1716
14369PP      PP24473   6.171   2.122   2.187  0.0535 -0.0057  0.1113
14370PP      PP24474   8.260   6.195  12.667 -0.2025  0.0019 -0.1252
14371PP      PP24475  10.341  11.310   4.527  0.1580  0.1253  0.0385
14372PP      PP24476  12.185  14.116   1.396 -0.3284 -0.0728 -0.3375
14373PP      PP24477   2.922   2.106   1.780  0.1270 -0.0374  0.1471
14374PP      PP24478   7.142   1.726   8.675  0.0155 -0.1432  0.0229
14375PP      PP24479   5.490   0.062   9.362 -0.2456 -0.0049 -0.1441
14376PP      PP24480  12.621   6.681  11.296  0.2254 -0.3572  0.1713
14377PP      PP24481   3.747  10.868  10.170  0.3407 -0.2020  0.0075
14378PP      PP24482  12.606  15.343  11.713 -0.0430  0.2720 -0.0918
14379PP      PP24483  15.463   3.962   0.472  0.2564  0.1255 -0.1701
14380PP      PP24484   9.984   9.749   4.262  0.2903 -0.1739 -0.0854
14381PP      PP24485   0.427  13.979   0.429  0.1070  0.0324 -0.1235
14382PP      PP24486   3.020   2.966  12.515  0.0758  0.1574  0.0514
14383PP      PP24487   3.005   6.116   1.830  0.0439 -0.0850 -0.1370
14384PP      PP24488   0.058   4.475   2.249 -0.2702 -0.2694  0.1499
14385PP      PP24489  12.255  14.954   9.798  0.0615  0.0006 -0.0453
14386PP      PP24490  14.765   4.374   0.260 -0.3430  0.0483  0.2459
14387PP      PP24491   6.469  14.193  10.470 -0.0198 -0.2918 -0.0021
14388PP      PP24492  10.741   2.337  10.723 -0.1461  0.0336 -0.1011
14389PP      PP24493   2.043   6.844  10.016 -0.0466  0.1038  0.1365
14390PP      PP24494   1.359  14.333  12.038 -0.2245 -0.1293 -0.0816
14391PP      PP24495   2.592   4.333   3.482  0.1388  0.1594 -0.1780
14392PP      PP24496   7.016  13.689   3.691  0.0418  0.3520 -0.0038
14393PP      PP24497   6.374   2.108   3.665  0.2327 -0.2251  0.0362
14394PP      PP24498   9.868   2.881   3.169  0.1867 -0.0209 -0.0286
14395PP      PP24499   1.551  13.317  12.179 -0.0719  0.2660  0.0743
14396PP      PP24500  12.995  10.774   3.197 -0.6581  0.0366  0.0892
14397PP      PP24501   9.983  10.924   3.196 -0.4439 -0.1223 -0.2758
14398PP      PP24502   4.166  12.280   2.596 -0.1586  0.1135  0.1489
14399PP      PP24503   0.624  14.441   1.884 -0.1996 -0.0848 -0.1055
14400PP      PP24504   4.021  12.580  12.787 -0.1369  0.3089  0.0697
14401PP      PP24505   3.225   5.745   4.528  0.2035  0.3225 -0.2827
14402PP      PP24506  11.360   8.098   3.860  0.1773 -0.3116  0.0494
14403PP      PP24507   6.130   0.570  10.394 -0.1050 -0.3796 -0.0831
14404PP      PP24508  11.157   6.893   3.781  0.2245 -0.0481 -0.0490
14405PP      PP24509   6.965   3.910   9.394 -0.0242  0.0075 -0.0769
14406PP      PP24510  13.297   1.423  10.768 -0.0541  0.0100  0.0506
14407PP      PP24511   3.124   8.003   3.212  0.0410 -0.1176 -0.2276
14408PP      PP24512  12.964  12.678   0.199  0.0635 -0.2982  0.0759
14409PP      PP24513   8.798   3.030   4.044  0.0581 -0.2890 -0.0811
14410PP      PP24514   7.594  11.842   0.844 -0.1551  0.0546 -0.2136
14411PP      PP24515  10.058  11.335   3.522 -0.3500  0.0543 -0.1707
14412PP      PP24516  10.935   4.800  13.342  0.2159  0.0626  0.0428
14413PP      PP24517  11.893  13.980   9.500  0.0278  0.3889 -0.1401
14414PP      PP24518   7.701   9.216   2.005 -0.2741 -0.0523 -0.0973
14415PP      PP24519   3.439   2.122   0.035 -0.0058  0.2091 -0.2208
14416PP      PP24520   5.771   9.678   9.077  0.2349  0.0691 -0.0327
14417PP      PP24521  12.188  13.293   2.861  0.1313  0.1444  0.2941
14418PP      PP24522   6.170   3.147   1.678  0.0957  0.0620 -0.1662
14419PP      PP24523  11.811   8.926  12.841 -0.0241  0.2160  0.0688
14420PP      PP24524   4.376   9.364   2.799  0.1154 -0.0387 -0.2621
14421PP      PP24525   3.951   5.967  10.937  0.3977 -0.0560  0.3394
14422PP      PP24526   5.723   9.615   0.541  0.0503  0.0360 -0.2669
14423PP      PP24527   4.282  11.838   9.959 -0.2458 -0.1312  0.1309
14424PP      PP24528   7.941   9.257   9.539  0.1399  0.0171  0.0451
14425PP      PP24529   9.118   6.573   1.334  0.3188 -0.0454 -0.0797
14426PP      PP24530  11.520  15.553   0.953  0.0917 -0.0017 -0.1732
14427PP      PP24531  12.001   1.206  10.149  0.0615  0.0578 -0.0449
14428PP      PP24532   4.962  11.247   3.898  0.3468 -0.1811  0.1971
14429PP      PP24533  11.790   4.962   0.317  0.0138  0.1375  0.0036
14430PP      PP24534  14.340   0.178  12.363  0.1908  0.2892  0.3802
14431PP      PP24535  15.635  15.414   1.999  0.1260  0.3643  0.1573
14432PP      PP24536   3.503   0.122  10.586  0.0242 -0.3441  0.1601
14433PP      PP24537   0.904   4.423   8.799 -0.1537  0.0374 -0.0256
14434PP      PP24538   3.767  12.224   2.948 -0.1769 -0.1163  0.1104
14435PP      PP24539   4.847   3.122   0.344 -0.0780 -0.3206  0.3620
14436PP      PP24540   3.226  10.557   0.570 -0.0946 -0.1288 -0.0114
14437PP      PP24541  12.358  15.236  10.302  0.0128  0.1745  0.1317
14438PP      PP24542   1.988   1.922  12.309 -0.0298 -0.0379  0.0228
14439PP      PP24543  12.138   9.534   4.579 -0.1114  0.0001 -0.2971
14440PP      PP24544   0.088  13.861   0.773  0.1004  0.0460 -0.2979
14441PP      PP24545   1.853   2.042   8.819  0.4006  0.1560  0.0906
14442PP      PP24546  12.323   4.233   9.792 -0.0943 -0.0510  0.1099
14443PP      PP24547   6.738   5.904   1.848  0.1384  0.1847  0.0734
14444PP      PP24548   1.544   1.608  10.567 -0.0583 -0.0360  0.2733
14445PP      PP24549  10.411   9.048   3.316  0.1695 -0.1748 -0.2771
14446PP      PP24550   0.336  12.480  11.803 -0.2352 -0.0376  0.3338
14447PP      PP24551   1.702   3.875   3.386 -0.1588 -0.2057  0.1240
14448PP      PP24552   1.904   8.170   2.662 -0.2007  0.3930 -0.3354
14449PP      PP24553   6.722  13.243  11.167 -0.0801  0.1962  0.0500
14450PP      PP24554   6.678  10.803   3.591  0.1416  0.3307  0.0908
14451PP      PP24555  10.086   5.978   3.633  0.1171  0.2809 -0.1570
14452PP      PP24556  11.883  13.398   2.110 -0.2304  0.0155  0.0724
14453PP      PP24557   6.614   4.476   4.086  0.0797 -0.3022 -0.3200
14454PP      PP24558  15.080   2.167   0.137 -0.1646  0.0284 -0.3158
14455PP      PP24559  10.005   6.825  11.147 -0.3477 -0.1243 -0.2573
14456PP      PP24560  15.801  12.440   2.687  0.2100  0.0593 -0.1360
14457PP      PP24561   7.803   6.749   3.335 -0.1504 -0.0397  0.0760
14458PP      PP24562  15.044   2.660   9.863 -0.0253  0.0675 -0.1868
14459PP      PP24563   9.784   6.169  12.678  0.4422  0.0425  0.2853
14460PP      PP24564  13.311  15.558  13.253 -0.0114 -0.0827  0.1514
14461PP      PP24565   9.545   5.770   1.013 -0.1308  0.2050 -0.0094
14462PP      PP24566   5.738  13.884   3.892 -0.1161  0.2474 -0.4280
14463PP      PP24567   2.941  10.240  10.226 -0.0201  0.0892 -0.2643
14464PP      PP24568  12.603   2.754  13.338  0.0475  0.3766  0.1348
14465PP      PP24569   5.656   0.195   8.898  0.1596  0.1033  0.3333
14466PP      PP24570   3.038   3.665   2.138 -0.1445  0.0076 -0.1432
14467PP      PP24571  11.550   1.770   3.450  0.3235 -0.1440 -0.2097
14468PP      PP24572   4.734   2.271   9.476 -0.0187  0.1523 -0.0893
14469PP      PP24573  12.393  12.716   4.283  0.4065 -0.3298 -0.2111
14470PP      PP24574   8.461  11.269   8.877  0.0432  0.2441  0.5383
14471PP      PP24575   9.908   4.620   3.606 -0.0125  0.1778  0.0131
14472PP      PP24576  12.453   4.495  12.990 -0.0935  0.3112 -0.2494
14473PP      PP24577   3.228  14.119   2.281  0.0188  0.2265  0.0183
14474PP      PP24578  13.248  10.619   4.515 -0.2481 -0.0695 -0.2020
14475PP      PP24579   3.901   5.963  10.205 -0.0322 -0.2566  0.0939
14476PP      PP24580   4.291   5.741   9.856 -0.0085 -0.0064  0.2166
14477PP      PP24581   2.630  14.848   0.452 -0.2859  0.2818  0.1239
14478PP      PP24582   2.775  14.995  11.350 -0.0079  0.1756 -0.1720
14479PP      PP24583  13.356  14.130   9.782 -0.2170  0.1176  0.2883
14480PP      PP24584  11.078   4.097   3.955  0.0096  0.0492 -0.3845
14481PP      PP24585   7.831   5.507   4.020  0.2307  0.2484  0.0997
14482PP      PP24586   1.794   8.025   1.112 -0.1142 -0.1817 -0.2553
14483PP      PP24587  15.001   9.077   1.325 -0.3462 -0.2049  0.1390
14484PP      PP24588   9.331  15.813  10.279 -0.2352  0.3031  0.2056
14485PP      PP24589   8.348   1.116   9.650 -0.1152  0.3512 -0.0977
14486PP      PP24590  14.245   5.563   2.881 -0.0271  0.4707 -0.0053
14487PP      PP24591   0.249   4.318   3.261 -0.0337 -0.4391  0.0090
14488PP      PP24592   5.820  11.676  10.646  0.0693 -0.0743 -0.0113
14489PP      PP24593   4.445   7.825  10.892 -0.1666 -0.2528 -0.0168
14490PP      PP24594  13.900  10.625  13.230 -0.1950 -0.1342  0.1607
14491PP      PP24595   9.461   0.151  13.025  0.1909  0.2522  0.1579
14492PP      PP24596  15.198   0.734   2.647  0.0690  0.3518 -0.0009
14493PP      PP24597   5.295  12.794  12.056 -0.2482 -0.0943  0.2237
14494PP      PP24598   8.744   8.770   4.355 -0.1411 -0.2731  0.1112
14495PP      PP24599   5.333   8.915   4.740 -0.2741 -0.0497 -0.0027
14496PP      PP24600   5.965   2.659  11.134 -0.0510 -0.2522 -0.1042
14497PP      PP24601   4.118   6.399  13.051  0.1436  0.0046 -0.3252
14498PP      PP24602   2.025   1.091  10.242 -0.4003  0.1069  0.1320
14499PP      PP24603  11.728   8.472  10.792 -0.3749 -0.1360 -0.1591
14500PP      PP24604  13.038   8.124   0.209  0.0592 -0.3031 -0.1776
14501PP      PP24605   4.685   1.200  12.858  0.3154 -0.0703 -0.1621
14502PP      PP24606   2.451  10.038   1.957  0.0703  0.0617  0.1467
14503PP      PP24607  14.821   2.885  10.988 -0.0328  0.2234  0.0095
14504PP      PP24608  12.218   3.813   3.941 -0.2376  0.1509  0.2052
14505PP      PP24609   4.481  14.554   8.931  0.0638  0.2466 -0.0452
14506PP      PP24610  10.878   1.586   0.099 -0.0029 -0.1180  0.1816
14507PP      PP24611   6.925   3.866  13.002 -0.2175  0.1374  0.0535
14508PP      PP24612   4.656  15.508   2.327 -0.0251  0.2053  0.2597
14509PP      PP24613   3.855  15.732  12.630  0.3032 -0.0719 -0.1284
14510PP      PP24614  14.689  13.253   9.405 -0.2294  0.3197  0.0705
14511PP      PP24615   0.167  15.230   0.262 -0.1622 -0.0476  0.1267
14512PP      PP24616  13.344   6.105  11.724  0.1240  0.1042  0.1561
14513PP      PP24617  11.444   2.457  11.464  0.2509  0.2787 -0.2021
14514PP      PP24618   9.231   9.170   9.754 -0.1968  0.1304 -0.0053
14515PP      PP24619  10.778   4.477   2.163 -0.1021  0.0568 -0.0797
14516PP      PP24620  14.368  13.106   9.891 -0.0902 -0.0372 -0.1023
14517PP      PP24621   7.977  13.391   1.731 -0.0248  0.0005  0.0408
14518PP      PP24622  15.809   8.588   3.226  0.0238  0.1065 -0.0975
14519PP      PP24623   1.858  13.339   7.850  0.2802 -0.1088  0.0049
14520PP      PP24624   9.144  10.580   3.707 -0.1693 -0.0510  0.1255
14521PP      PP24625  10.162   2.320   1.147  0.1418  0.0281 -0.1669
14522PP      PP24626   8.763   8.623   1.353  0.0529  0.1385  0.0350
14523PP      PP24627   6.499  14.270   2.764  0.1088  0.0397  0.1542
14524PP      PP24628  15.758   9.120   4.330 -0.0265  0.1958 -0.1583
14525PP      PP24629   8.126  12.077  10.187  0.0660 -0.0821  0.2440
14526PP      PP24630   0.074  14.209   9.689  0.1805  0.1287 -0.1924
14527PP      PP24631  11.028  14.600  10.009  0.3973  0.0191  0.1577
14528PP      PP24632  10.360   8.271   9.564 -0.3493  0.3593  0.0024
14529PP      PP24633  13.475  15.707  11.067 -0.3806 -0.2070 -0.2349
14530PP      PP24634   2.143   1.870  12.808  0.1404 -0.3894  0.3804
14531PP      PP24635  14.346   1.952   8.625  0.0870  0.2032 -0.3441
14532PP      PP24636   9.878   1.207   0.429 -0.1278  0.1277 -0.0124
14533PP      PP24637  14.786  13.100   8.846 -0.2345 -0.0806 -0.2129
14534PP      PP24638   5.437   1.642   3.613 -0.2280 -0.1288  0.3578
14535PP      PP24639   1.156   5.680   1.143  0.0053  0.1690  0.2663
14536PP      PP24640   8.650   9.075   3.976 -0.4202  0.1874  0.3789
14537PP      PP24641   9.380   4.007  13.339 -0.3214  0.2137  0.2010
14538PP      PP24642  11.695   6.553  10.159 -0.0771  0.1861 -0.0790
14539PP      PP24643   8.277   6.078   9.486  0.0265  0.1976 -0.1437
14540PP      PP24644  12.157   9.030  10.187 -0.0904  0.0646  0.3646
14541PP      PP24645   7.387  10.285  11.966  0.3071  0.0942  0.1056
14542PP      PP24646   3.445   4.488  12.903 -0.1655  0.1491 -0.0164
14543PP      PP24647   1.139  10.326   4.745 -0.2536 -0.0187  0.1935
14544PP      PP24648   8.228  15.291  10.690  0.0194  0.2591  0.2304
14545PP      PP24649  13.383   5.159   9.713 -0.0353 -0.0176 -0.1428
14546PP      PP24650   3.079   0.194  12.160  0.0318  0.2104  0.0711
14547PP      PP24651  11.158  10.314   4.514 -0.3566 -0.1203 -0.2361
14548PP      PP24652  13.971  14.518   0.870 -0.3932  0.1804  0.4277
14549PP      PP24653  12.275   2.260   2.543  0.1087  0.1896 -0.1133
14550PP      PP24654   9.309   6.671   4.391  0.0856 -0.3490 -0.3632
14551PP      PP24655  11.731  15.946   4.418  0.0831  0.0108  0.3218
14552PP      PP24656   5.775   4.518   1.856 -0.1873  0.2025  0.0145
14553PP      PP24657   6.355  12.890   2.180  0.1510  0.0697 -0.0494
14554PP      PP24658  15.591  14.522   1.500 -0.0221  0.2973 -0.2398
14555PP      PP24659   6.754   7.461   3.405 -0.0090  0.1634 -0.0552
14556PP      PP24660  13.538   1.023  11.126 -0.0314  0.2888  0.1335
14557PP      PP24661   6.192   8.730   2.022 -0.4150  0.2716  0.0739
14558PP      PP24662  13.801  15.813  10.255 -0.0777  0.3782 -0.0033
14559PP      PP24663  14.788  15.938   0.244 -0.0997 -0.2812  0.0426
14560PP      PP24664   9.692  15.293   1.463  0.3407 -0.0378 -0.2190
14561PP      PP24665  14.707   7.074   8.925 -0.1416  0.1002  0.1034
14562PP      PP24666   4.057  10.772  13.063 -0.1516  0.1970  0.0315
14563PP      PP24667   5.787   8.670  10.629  0.1791  0.1641 -0.2241
14564PP      PP24668   6.987   2.469   0.179  0.0693  0.1066 -0.2659
14565PP      PP24669  12.713  14.566   1.969 -0.3115 -0.0455  0.0087
14566PP      PP24670  14.863  11.206  11.592 -0.0338 -0.2687  0.2848
14567PP      PP24671   1.660   5.945   3.985  0.3302  0.4512 -0.0580
14568PP      PP24672   2.656   6.038  12.451 -0.0406  0.0284  0.0548
14569PP      PP24673   6.088   8.541   1.586  0.1807  0.0982  0.0821
14570PP      PP24674   1.303   3.933   3.812 -0.1422 -0.4244  0.1683
14571PP      PP24675  13.949  14.246  11.471  0.1789  0.0745  0.1514
14572PP      PP24676   4.640  13.385   4.233  0.2832 -0.2978  0.0069
14573PP      PP24677  13.192   8.642   0.285  0.0027 -0.0739  0.1375
14574PP      PP24678  15.047   5.579  11.415 -0.0677 -0.2144 -0.0521
14575PP      PP24679  13.270   9.255  12.190 -0.0798  0.1827 -0.0005
14576PP      PP24680   8.214   4.443  11.472 -0.0429  0.0607  0.0021
14577PP      PP24681   0.253   2.945  11.442 -0.2486 -0.4539  0.1831
14578PP      PP24682   9.347  13.590  12.655  0.1291 -0.0865  0.3282
14579PP      PP24683  13.314  14.430   8.470 -0.1541 -0.1330 -0.0501
14580PP      PP24684  13.415  15.019   9.184  0.1437 -0.0952 -0.3588
14581PP      PP24685  15.630   7.629   0.596 -0.0845 -0.1234 -0.2767
14582PP      PP24686  14.466   3.128   8.898 -0.1105 -0.0131  0.0499
14583PP      PP24687   8.478   7.638  11.544 -0.2553  0.2977  0.4857
14584PP      PP24688   4.783   7.344   3.079  0.0898  0.1361  0.0681
14585PP      PP24689   0.294   1.342   2.299 -0.0432 -0.0297  0.1366
14586PP      PP24690   7.132   9.694   8.511 -0.1230  0.1000  0.1156
14587PP      PP24691  10.335   8.631   3.509 -0.2100  0.1009 -0.1107
14588PP      PP24692  12.559   2.397  10.421 -0.2064 -0.0698 -0.1484
14589PP      PP24693  13.611  10.637  12.704  0.1933  0.2562  0.0146
14590PP      PP24694   6.267   4.345  12.601 -0.1011  0.2376 -0.1907
14591PP      PP24695   1.322  10.963  12.011 -0.0504  0.0491  0.1248
14592PP      PP24696  15.563   5.049   1.276  0.1151  0.1498 -0.0397
14593PP      PP24697   4.925   0.417  11.239  0.0040  0.1251 -0.1165
14594PP      PP24698  13.988   3.526  12.044  0.0473 -0.1818  0.4356
14595PP      PP24699  12.482  15.302   3.348 -0.0629 -0.2758 -0.0882
14596PP      PP24700  13.018   7.848   3.958 -0.2273  0.2799 -0.4937
14597PP      PP24701  12.857   7.392   4.107  0.0129  0.3171  0.0803
14598PP      PP24702  12.872   9.013   1.870  0.1103 -0.1651 -0.1934
14599PP      PP24703   6.953   3.381  13.135  0.0997 -0.0666 -0.1006
14600PP      PP24704   1.351   2.192   1.609 -0.1208  0.0703 -0.1652
14601PP      PP24705   3.665  13.320  10.097  0.0716  0.0459  0.0286
14602PP      PP24706  14.876   9.438  11.536 -0.2767  0.0223  0.1206
14603PP      PP24707  12.559   2.398   1.429  0.0820  0.3081 -0.0554
14604PP      PP24708   3.787   8.783  10.832 -0.2133 -0.0425  0.4250
14605PP      PP24709   0.329   0.115   9.212  0.1565 -0.0981  0.0526
14606PP      PP24710   6.485   7.249  13.391 -0.2873  0.1784  0.3079
14607PP      PP24711  14.780  11.066  12.023  0.1221 -0.1198 -0.0644
14608PP      PP24712   5.634  11.269  11.066 -0.1583 -0.0524  0.2124
14609PP      PP24713  10.918  10.129   1.645  0.2397  0.2071  0.0950
14610PP      PP24714   5.921  15.003   9.745  0.0327  0.1985 -0.0632
14611PP      PP24715  15.145   1.782  13.130  0.0549 -0.0155 -0.1177
14612PP      PP24716  14.901   3.499   9.013  0.2448  0.2242 -0.1015
14613PP      PP24717  15.156   0.925   1.226  0.3904  0.1416  0.3628
14614PP      PP24718  15.608  13.059  12.628  0.0002  0.0919  0.2945
14615PP      PP24719   7.094   3.848   9.983 -0.0866 -0.1099  0.2738
14616PP      PP24720   4.130   2.118   9.286 -0.1222 -0.0649  0.1666
14617PP      PP24721   2.466   6.814   0.637 -0.2696  0.0873  0.0982
14618PP      PP24722  12.408  13.332   2.038  0.3293  0.1917  0.0767
14619PP      PP24723  14.125   5.458   2.260 -0.1667  0.0167 -0.1917
14620PP      PP24724  13.617  13.565  11.572 -0.3058  0.2426  0.4186
14621PP      PP24725   2.808  10.427   1.914 -0.1335  0.0566 -0.1199
14622PP      PP24726   9.573   6.765   1.179  0.0293  0.2283 -0.0864
14623PP      PP24727   0.256  11.684   1.784  0.1316  0.2397  0.0515
14624PP      PP24728   2.293   4.842   3.420  0.5102 -0.2575  0.3261
14625PP      PP24729   6.803   1.333   3.948 -0.0128 -0.1655  0.0300
14626PP      PP24730  10.876  13.428  13.276  0.1648 -0.0577 -0.0574
14627PP      PP24731   0.459   0.171  10.395 -0.2105  0.0627  0.1035
14628PP      PP24732  13.675   8.795   2.961 -0.0496  0.1775 -0.0909
14629PP      PP24733  13.702   6.300  12.519 -0.0672 -0.0661 -0.2969
14630PP      PP24734   7.933  13.642   0.774  0.0376 -0.3141  0.0429
14631PP      PP24735  13.290   2.866   0.493  0.1238  0.2365  0.1036
14632PP      PP24736   1.170   6.398  11.995  0.3240 -0.0673  0.1294
14633PP      PP24737   1.840  14.531  12.185  0.0592  0.2869  0.0342
14634PP      PP24738   7.394   2.578   9.720 -0.2078  0.0849 -0.0580
14635PP      PP24739   1.483   1.811   9.274 -0.1597  0.0675  0.2208
14636PP      PP24740   8.143   0.257  11.525  0.0766 -0.1310  0.0067
14637PP      PP24741   0.242   4.915  11.172  0.3137  0.4794 -0.0837
14638PP      PP24742   9.992  14.024  10.184 -0.0024 -0.0003 -0.1945
14639PP      PP24743   8.024  15.111   4.285 -0.1818  0.1186  0.1006
14640PP      PP24744   4.517   5.531   4.364  0.0203  0.3036  0.0216
14641PP      PP24745  15.336   6.970  11.093 -0.2650 -0.1475  0.1055
14642PP      PP24746   5.392  15.131   9.788 -0.1167  0.2489 -0.0107
14643PP      PP24747   7.226  13.594   3.165  0.0454 -0.0892  0.0755
14644PP      PP24748  11.223   4.987   0.349  0.0482  0.0772 -0.1674
14645PP      PP24749   5.243  12.831   0.285 -0.0006  0.3996 -0.3919
14646PP      PP24750   4.944  13.122   0.527 -0.1563 -0.0883  0.4051
14647PP      PP24751  13.799  12.392   2.969  0.0346  0.1723  0.0616
14648PP      PP24752  12.263   9.917   0.410 -0.2822  0.1270  0.0099
14649PP      PP24753  11.417   2.179   2.928 -0.0048 -0.0361  0.0325
14650PP      PP24754   3.588   6.129   3.609  0.1433  0.0824  0.2598
14651PP      PP24755  13.668   1.501   0.313  0.0910  0.0121  0.0171
14652PP      PP24756   4.970   8.984  12.951 -0.1855 -0.0795  0.2452
14653PP      PP24757   3.843  15.807   8.699  0.1643 -0.0163 -0.2278
14654PP      PP24758   2.753   1.847   2.892  0.1129 -0.0431  0.0348
14655PP      PP24759  15.620   8.478   2.776 -0.0839 -0.2826  0.0589
14656PP      PP24760   6.582   7.248   9.834 -0.0730  0.1432 -0.3134
14657PP      PP24761   0.048   1.331  11.000 -0.2450 -0.6309 -0.0059
14658PP      PP24762  13.705  14.725  10.850 -0.0434  0.2456  0.0892
14659PP      PP24763   9.389   0.060   1.937  0.0932 -0.0920  0.2358
14660PP      PP24764  13.640   3.367  11.598 -0.1299 -0.3076  0.2771
14661PP      PP24765  15.739   3.568   1.131  0.3167 -0.0929 -0.2049
14662PP      PP24766  10.733  13.009   0.387  0.1020  0.1166  0.4076
14663PP      PP24767  11.163   1.423   3.445  0.0243  0.1355  0.2299
14664PP      PP24768   4.553   8.498  10.169  0.0585  0.0257 -0.1461
14665PP      PP24769   0.066  14.944   0.663 -0.4070  0.1711 -0.1715
14666PP      PP24770  12.068   0.222  11.192 -0.2357  0.0418 -0.2999
14667PP      PP24771  12.040   6.214   0.041 -0.2597 -0.2108  0.2236
14668PP      PP24772  11.945   0.325   3.477  0.0221 -0.0030 -0.1895
14669PP      PP24773   3.351  12.727   3.536 -0.1857 -0.0628 -0.0166
14670PP      PP24774   5.567  15.247   3.286  0.1172 -0.0231 -0.3169
14671PP      PP24775   6.121   8.051   1.471 -0.0194 -0.1614  0.2878
14672PP      PP24776   0.772  13.109   9.742  0.0971  0.3006 -0.0454
14673PP      PP24777   8.964  14.862  12.692  0.2049 -0.1132 -0.0475
14674PP      PP24778  11.643  10.993   9.295  0.1395 -0.1768  0.0995
14675PP      PP24779  10.409   1.939   9.847 -0.1605 -0.1833 -0.1099
14676PP      PP24780  13.012   2.492  10.302 -0.1587  0.3837 -0.4247
14677PP      PP24781  15.739   3.216  11.256 -0.1716  0.3076  0.0853
14678PP      PP24782   5.064   4.861   0.504 -0.1166  0.1293  0.1922
14679PP      PP24783   6.253   1.455   2.416 -0.1597  0.0468  0.2401
14680PP      PP24784   7.957   5.109  12.273 -0.0046 -0.0342 -0.0008
14681PP      PP24785   8.371  13.510  11.946  0.1803 -0.1515 -0.1921
14682PP      PP24786   8.012   4.972  12.804  0.1686 -0.4368  0.1229
14683PP      PP24787   8.855   5.558   2.691 -0.1933 -0.2567  0.0114
14684PP      PP24788   6.842   6.619  11.886 -0.1426  0.0398 -0.0366
14685PP      PP24789  15.341  11.836  11.945  0.1742 -0.1036  0.0828
14686PP      PP24790   6.898   7.457  12.294  0.0234 -0.2154 -0.1098
14687PP      PP24791   8.317  11.189  10.564  0.0119 -0.0778 -0.1441
14688PP      PP24792   6.014   6.447   0.529 -0.1750 -0.2106  0.0171
14689PP      PP24793  10.481  12.119  12.015 -0.0011 -0.0917 -0.0849
14690PP      PP24794  13.270   6.690  10.557 -0.2601  0.1017  0.0514
14691PP      PP24795  11.112   7.152  12.900  0.2389  0.0523 -0.0723
14692PP      PP24796  12.930   8.963   4.599  0.0342 -0.1281 -0.0226
14693PP      PP24797   9.093   7.863   3.780  0.2202  0.1890 -0.1167
14694PP      PP24798  14.582  12.590  10.030  0.1833 -0.2698 -0.0575
14695PP      PP24799   6.379  10.590   4.362 -0.2419 -0.2321  0.1978
14696PP      PP24800   0.272   0.688  10.226  0.1157 -0.0248  0.0012
14697PP      PP24801  13.839  10.970  10.818  0.0238 -0.2637 -0.0248
14698PP      PP24802   8.565   0.366   0.862 -0.1449 -0.0435  0.0756
14699PP      PP24803   0.907  14.868  12.815  0.1540 -0.3235 -0.1768
14700PP      PP24804  13.049  10.613   9.150  0.1272 -0.0525  0.1822
14701PP      PP24805   6.704   4.585   2.961 -0.2573  0.1721 -0.0496
14702PP      PP24806  10.754   1.600   9.554 -0.2945 -0.2287  0.1823
14703PP      PP24807  10.448  12.907  10.398  0.4224  0.0487 -0.2996
14704PP      PP24808  12.719   1.761   0.743 -0.0706  0.3520 -0.0792
14705PP      PP24809   6.462   5.674   3.297  0.3372 -0.0901  0.2588
14706PP      PP24810   4.766   1.842  12.810  0.1798  0.0416 -0.3232
14707PP      PP24811  12.657   6.523   2.018 -0.1459  0.2540 -0.4906
14708PP      PP24812   6.232   7.587   4.804 -0.3421  0.0949  0.1189
14709PP      PP24813   2.937  10.316   2.360 -0.2637  0.0277 -0.0787
14710PP      PP24814  11.417  11.552   2.069 -0.2712 -0.0278  0.3849
14711PP      PP24815   8.949   5.972  11.128 -0.1429 -0.0419 -0.1327
14712PP      PP24816   8.475   6.726  11.246  0.1815 -0.4168 -0.0109
14713PP      PP24817  13.266   7.864   0.999  0.0638  0.0501 -0.2012
14714PP      PP24818   6.882   4.219   9.747  0.0859  0.0867 -0.0566
14715PP      PP24819   2.917   2.198   0.011  0.3886 -0.1012  0.2493
14716PP      PP24820   8.183   8.110   9.504  0.2554  0.2124  0.0976
14717PP      PP24821   5.723  12.260   0.406  0.1368  0.2063 -0.0732
14718PP      PP24822   2.937   4.987  12.344 -0.0553 -0.1604 -0.1374
14719PP      PP24823  15.517  13.269   3.215 -0.2821  0.3620 -0.0069
14720PP      PP24824  13.153  11.370   1.955 -0.2272 -0.0210 -0.0759
14721PP      PP24825  14.954   0.370  10.643  0.2037  0.2090  0.6363
14722PP      PP24826   3.136   7.633   1.166 -0.1382 -0.2659 -0.2678
14723PP      PP24827   4.860   9.959  13.198  0.0609  0.4920  0.1695
14724PP      PP24828  12.258  11.179   3.862  0.2561 -0.0588 -0.0008
14725PP      PP24829   1.193  13.428   3.011 -0.0397  0.0766 -0.0390
14726PP      PP24830   5.844   6.440   1.780 -0.0105  0.1989  0.0795
14727PP      PP24831  10.446   5.301  12.115 -0.2690 -0.1572 -0.0834
14728PP      PP24832  14.875  11.021  10.960 -0.1706  0.2462  0.2326
14729PP      PP24833   2.996   5.927   2.500  0.0843 -0.0702  0.3685
14730PP      PP24834   9.319  13.125   0.209 -0.1069 -0.1060  0.0588
14731PP      PP24835  11.725  15.316   3.540 -0.0192 -0.0075 -0.0057
14732PP      PP24836   2.629  13.004   0.660 -0.3453 -0.3014 -0.0602
14733PP      PP24837  12.833   2.545   4.529  0.0692 -0.0583 -0.0603
14734PP      PP24838   2.213  12.066   3.528  0.0436  0.0642 -0.0667
14735PP      PP24839  11.350  15.897   2.479  0.0799  0.0411 -0.2763
14736PP      PP24840  14.112   8.665   9.271 -0.1261  0.0574 -0.3484
14737PP      PP24841  15.608   9.755  10.982  0.1398  0.1196 -0.0002
14738PP      PP24842  10.282   9.399   1.845  0.1521 -0.3163  0.0828
14739PP      PP24843   9.847  15.768   2.132  0.1629 -0.2515  0.2678
14740PP      PP24844   4.318  12.676   0.873  0.0557 -0.0164  0.3575
14741PP      PP24845  11.406   0.985  12.674 -0.0475  0.5090  0.0387
14742PP      PP24846   5.790   1.692   2.430  0.0391  0.2348  0.2124
14743PP      PP24847  15.617   5.621   8.847 -0.0794 -0.0304  0.1389
14744PP      PP24848   5.968  14.996   3.083 -0.0584  0.3440  0.0735
14745PP      PP24849  15.545   5.830   3.227 -0.1515  0.0441 -0.2665
14746PP      PP24850  13.964   7.401   4.656  0.2531 -0.5276 -0.1618
14747PP      PP24851  13.964  10.033   1.979  0.2761 -0.0570  0.1511
14748PP      PP24852   4.350   7.931  12.523 -0.2988  0.0996 -0.3954
14749PP      PP24853   6.906   4.353   1.124 -0.3224 -0.0996  0.2046
14750PP      PP24854   5.182  11.115  11.947 -0.0603  0.2024 -0.3859
14751PP      PP24855   4.668  13.597   1.319 -0.1775 -0.2326 -0.0899
14752PP      PP24856  14.578   2.767   8.613 -0.2741 -0.0064  0.0413
14753PP      PP24857   4.513  10.399  13.134  0.1162 -0.0018 -0.1732
14754PP      PP24858   7.841  12.483   0.784 -0.1935  0.1118 -0.1982
14755PP      PP24859   1.074  14.595   9.758  0.1735  0.4545 -0.3833
14756PP      PP24860  13.207  15.863  12.528  0.0934  0.2090 -0.0571
14757PP      PP24861   5.789   4.285   4.349 -0.0370  0.1385  0.2433
14758PP      PP24862  14.374   3.811   0.834  0.1483  0.1291  0.0506
14759PP      PP24863   4.928   2.822  11.505  0.1460  0.1399 -0.3299
14760PP      PP24864   8.664  15.023  10.368  0.1239  0.1006 -0.0591
14761PP      PP24865   8.478  12.759   8.649  0.0187  0.0488  0.0242
14762PP      PP24866  10.738  12.288  12.627  0.0308  0.0245  0.0360
14763PP      PP24867  14.433   1.418  12.701 -0.0048 -0.2974  0.1954
14764PP      PP24868   5.486   1.185  11.716  0.0100 -0.1276 -0.0795
14765PP      PP24869   6.222   4.841   9.366 -0.2457  0.1013  0.2359
14766PP      PP24870   1.494   1.571   0.972 -0.3482 -0.0919 -0.0431
14767PP      PP24871   5.411  13.533  11.627  0.3359 -0.0263 -0.2350
14768PP      PP24872  13.487   7.460  11.954 -0.0513 -0.2280 -0.5758
14769PP      PP24873   6.262  11.220   0.813  0.1989  0.1977 -0.0658
14770PP      PP24874   5.181  15.919   8.625 -0.1531  0.3231 -0.0686
14771PP      PP24875   6.116   5.555   4.108 -0.1470  0.1190 -0.2031
14772PP      PP24876   3.716  11.490   8.878  0.1121 -0.3953  0.0342
14773PP      PP24877   5.301  14.392   2.866 -0.0152 -0.0208  0.0019
14774PP      PP24878  11.288   4.943   0.895  0.0543  0.1499 -0.3033
14775PP      PP24879   1.398   6.826   2.585  0.0230  0.0305  0.0507
14776PP      PP24880   1.475   8.883  10.723  0.2514  0.1232 -0.1935
14777PP      PP24881   9.112   8.800  13.358  0.2780  0.2964  0.0610
14778PP      PP24882  12.375  14.312   4.375 -0.1076 -0.0032 -0.1130
14779PP      PP24883   7.284  10.430   0.834 -0.1709  0.2662 -0.2940
14780PP      PP24884   2.443   5.268  10.588  0.0743 -0.1493 -0.1807
14781PP      PP24885  15.361   0.970   0.745  0.0733 -0.1278 -0.3896
14782PP      PP24886  10.983  13.543   2.750 -0.2065 -0.0486 -0.2256
14783PP      PP24887   1.167  12.731  10.762 -0.2444 -0.1993 -0.0523
14784PP      PP24888   6.431   4.554   1.238  0.0591  0.1792  0.0411
14785PP      PP24889   6.980  11.944  11.679 -0.0384 -0.2600  0.1270
14786PP      PP24890   8.849   5.718   1.403  0.1354 -0.1592 -0.0806
14787PP      PP24891   7.806  11.634  10.009 -0.3027 -0.0877  0.2694
14788PP      PP24892   5.103   6.113  10.179 -0.0797 -0.2817  0.3531
14789PP      PP24893   5.447  14.682   3.716 -0.0954  0.0074 -0.0841
14790PP      PP24894  12.585   6.975  11.723 -0.2021  0.2312  0.0496
14791PP      PP24895  11.340   7.296   1.385 -0.0666  0.2577  0.2508
14792PP      PP24896  10.189   2.198  12.543 -0.1200  0.3935  0.0484
14793PP      PP24897   3.500   8.974   1.815 -0.3006 -0.3227 -0.1770
14794PP      PP24898   7.648   1.324   9.782  0.0698 -0.1559  0.0221
14795PP      PP24899   0.620   9.516   3.995  0.2876  0.1038 -0.1189
14796PP      PP24900   3.473   3.705   9.696 -0.1769  0.0628 -0.1508
14797PP      PP24901  11.073   5.596  12.635  0.2265 -0.1339 -0.0104
14798PP      PP24902  11.942   5.494   0.974 -0.2672 -0.0137 -0.2580
14799PP      PP24903   0.271   1.200   8.594 -0.0010  0.0449 -0.1475
14800PP      PP24904  13.198   8.080  13.115  0.2442  0.0633 -0.0639
14801PP      PP24905  10.229  13.785   3.170 -0.1266  0.3297 -0.0923
14802PP      PP24906   8.503   0.159   3.201  0.0507  0.0404 -0.1841
14803PP      PP24907  10.785   3.349  12.604  0.1729  0.0399  0.2154
14804PP      PP24908  12.224   6.153   1.916  0.4383  0.1234  0.2100
14805PP      PP24909  14.949  10.305   4.092 -0.0078 -0.0137  0.1118
14806PP      PP24910  13.148   3.775   0.084 -0.0934 -0.0889  0.1903
14807PP      PP24911  13.481   6.002  12.208 -0.0207 -0.0361  0.0131
14808PP      PP24912   7.530   0.258  10.048 -0.0845 -0.0452 -0.1915
14809PP      PP24913   7.857   9.724   0.762  0.0361 -0.0772  0.0510
14810PP      PP24914   3.453   9.139   2.661  0.2546  0.2089 -0.2365
14811PP      PP24915  13.291   6.348  10.184 -0.2390 -0.1739  0.3138
14812PP      PP24916   8.241  14.743   1.249  0.0859 -0.0290 -0.2086
14813PP      PP24917   9.037   3.861   3.698  0.1148  0.1278 -0.2155
14814PP      PP24918   9.336   1.328  10.447  0.3902  0.0496 -0.2552
14815PP      PP24919  11.059   9.863   9.436  0.1382  0.2272  0.0486
14816PP      PP24920  11.640  14.089   1.378  0.2486 -0.1031  0.0092
14817PP      PP24921   9.437   0.460  12.053 -0.0323 -0.0782 -0.0231
14818PP      PP24922   9.939   3.394  11.236  0.0512  0.2469 -0.0980
14819PP      PP24923   8.707   3.991   1.821 -0.0345 -0.1484 -0.1534
14820PP      PP24924  12.745   7.812   1.308 -0.2579 -0.0283  0.0114
14821PP      PP24925   7.944  10.374   2.221  0.1589  0.1439  0.2273
14822PP      PP24926  11.545   3.201   9.208 -0.0877  0.0497 -0.3302
14823PP      PP24927   5.950   6.003   2.460  0.2377  0.0587  0.4131
14824PP      PP24928  14.709   1.783   1.521  0.0929 -0.0939  0.1324
14825PP      PP24929   7.458  10.804   4.163 -0.0178 -0.0933  0.2246
14826PP      PP24930   8.816  10.787  12.000 -0.1747 -0.2162 -0.2057
14827PP      PP24931   1.386   6.986  10.700  0.0851  0.0317  0.4366
14828PP      PP24932   2.159  11.131   0.207 -0.4105 -0.3082 -0.1653
14829PP      PP24933   5.326   8.353   4.308 -0.0587 -0.1749 -0.0825
14830PP      PP24934   9.837   8.240   5.246  0.1777 -0.0578 -0.1379
14831PP      PP24935   7.220   7.465  13.206  0.0608  0.2874 -0.1360
14832PP      PP24936   8.300  11.739   9.792  0.1079 -0.1660 -0.0482
14833PP      PP24937   1.703  14.587   1.846  0.1005 -0.4081 -0.2730
14834PP      PP24938   6.612   0.230   4.490 -0.2002 -0.0513  0.2499
14835PP      PP24939   9.547   9.601   3.244  0.2060 -0.0427  0.1435
14836PP      PP24940   8.991   3.996  10.027 -0.0536 -0.0943 -0.4124
14837PP      PP24941   8.375  11.757   4.102 -0.0398 -0.4205  0.0250
14838PP      PP24942   6.207   0.236  13.083 -0.1104 -0.0804 -0.0958
14839PP      PP24943   7.943   5.949   4.344  0.1553  0.2299 -0.1945
14840PP      PP24944  14.485   4.586   3.938  0.1765  0.5853 -0.0306
14841PP      PP24945  15.265   3.810  11.399  0.0147  0.4457  0.0623
14842PP      PP24946  15.392   3.500  13.286 -0.1809 -0.0390 -0.0116
14843PP      PP24947   4.014  11.667   3.479 -0.1849 -0.2570 -0.0073
14844PP      PP24948   5.788  14.847  11.172  0.3330  0.1161  0.2792
14845PP      PP24949   3.284   6.971   2.321  0.1253 -0.1453 -0.0657
14846PP      PP24950  10.496   1.364   0.886 -0.1964 -0.1744  0.0079
14847PP      PP24951   4.515  14.027   9.078 -0.1151  0.3231 -0.1439
14848PP      PP24952   1.809   0.655   9.953 -0.0683 -0.0822  0.0014
14849PP      PP24953  14.223  14.458  10.027  0.4639 -0.1260 -0.1098
14850PP      PP24954   9.815   5.853  11.778  0.2335 -0.0734  0.2139
14851PP      PP24955  13.034   5.516  10.300 -0.1052 -0.0115 -0.6523
14852PP      PP24956   4.016  13.025  13.235 -0.0263 -0.3063  0.2211
14853PP      PP24957  12.888   5.380   1.741 -0.0765 -0.2083 -0.0989
14854PP      PP24958  13.060  11.661  12.570 -0.1118 -0.0032 -0.0387
14855PP      PP24959  14.335   3.954   1.616  0.0305 -0.0538  0.0142
14856PP      PP24960  13.927   9.143  12.772 -0.1505  0.0857  0.1497
14857PP      PP24961   8.659   7.321  12.234 -0.0001  0.4779 -0.2526
14858PP      PP24962   6.743   8.100   4.046 -0.1371 -0.0190 -0.1245
14859PP      PP24963   1.784  15.199   2.817 -0.0100 -0.1834  0.1425
14860PP      PP24964   7.723  12.116   2.778 -0.3588  0.1503 -0.0871
14861PP      PP24965  14.740  10.276  11.646 -0.0584  0.0075 -0.1778
14862PP      PP24966  12.073  15.089   3.922 -0.1597  0.2772 -0.0864
14863PP      PP24967   0.980   9.179  11.209 -0.3796 -0.0104  0.2267
14864PP      PP24968   8.499   7.954   3.165 -0.1063  0.1493 -0.0842
14865PP      PP24969   7.748   7.190   0.766 -0.0544 -0.2840 -0.1095
14866PP      PP24970   3.512  13.613   8.726  0.1959 -0.2460 -0.1774
14867PP      PP24971   7.059  13.900   9.232 -0.0457 -0.0748  0.2007
14868PP      PP24972   3.212  12.354  10.156 -0.2642 -0.0506 -0.1945
14869PP      PP24973  14.115  13.101  11.001  0.3677  0.1925 -0.0360
14870PP      PP24974  14.389   9.201   0.675  0.1886 -0.0485 -0.1934
14871PP      PP24975   9.339   5.079  11.987 -0.0367 -0.0799 -0.1321
14872PP      PP24976   9.674   8.669   9.565 -0.0108  0.0484 -0.0839
14873PP      PP24977   8.383  15.064  12.284 -0.2625 -0.2974 -0.3405
14874PP      PP24978  14.766  10.935   2.850  0.1771  0.3352  0.1071
14875PP      PP24979   2.364  14.063   0.993 -0.0802 -0.0469  0.0322
14876PP      PP24980   7.573   1.989  11.170  0.0125 -0.0945  0.0828
14877PP      PP24981  11.858   9.464   8.688 -0.1795  0.0340  0.0672
14878PP      PP24982   7.196  15.912  10.145 -0.0774  0.2221  0.2974
14879PP      PP24983  10.552   4.328   0.766 -0.0974 -0.0819  0.1281
14880PP      PP24984  13.273  14.054  13.176  0.2183 -0.0423  0.1270
14881PP      PP24985  14.602   0.229   4.124  0.2011  0.0199  0.1400
14882PP      PP24986   1.399   3.359  12.308  0.1519 -0.1545  0.1512
14883PP      PP24987   4.837   9.310  12.466 -0.2515 -0.1333 -0.1872
14884PP      PP24988   5.108   6.704   4.469  0.0426 -0.2688  0.2729
14885PP      PP24989   4.478  10.043  10.569  0.3521 -0.1602  0.3834
14886PP      PP24990   2.324   5.365  12.979 -0.2620  0.1301 -0.1752
14887PP      PP24991  12.374   0.999   4.091 -0.1816  0.0200  0.1459
14888PP      PP24992  11.244  10.258  11.471  0.0249 -0.1954 -0.0626
14889PP      PP24993  11.496   9.914   4.728  0.2764 -0.0046 -0.1663
14890PP      PP24994   7.071  10.773  10.773  0.2082 -0.2492 -0.1003
14891PP      PP24995  13.242  13.732   3.602 -0.0420  0.0464  0.0516
14892PP      PP24996  10.405  13.620   1.265 -0.0283 -0.5392  0.0488
14893PP      PP24997   5.059   8.798   3.767  0.0087 -0.0690 -0.1899
14894PP      PP24998  14.898   1.115   0.007  0.2611 -0.1548 -0.2130
14895PP      PP24999   0.904   2.005   9.804 -0.3253 -0.0907 -0.1263
14896PP      PP25000  15.480  13.536   1.955  0.3812  0.0514 -0.2751
14897PP      PP25001  14.066   5.622  11.171  0.2737 -0.2153  0.1446
14898PP      PP25002   3.335   8.774   0.319  0.2213  0.1132 -0.1290
14899PP      PP25003   4.956  15.378  13.143  0.0157  0.2559 -0.1064
14900PP      PP25004   5.978  14.271   2.872  0.1029  0.2279  0.0801
14901PP      PP25005   5.833   9.693   0.009  0.1509 -0.0265  0.2632
14902PP      PP25006   0.013  12.201   3.157  0.2896  0.1285  0.1342
14903PP      PP25007   8.062   5.235   2.467 -0.0836 -0.0627 -0.3736
14904PP      PP25008   9.125  14.905  10.074 -0.0526 -0.0101  0.1721
14905PP      PP25009   7.562   7.845  10.800 -0.0529 -0.1214 -0.1589
14906PP      PP25010   5.872   2.699  10.312 -0.1586 -0.0827 -0.1531
14907PP      PP25011   6.011   9.613  11.373 -0.1408 -0.0067  0.1223
14908PP      PP25012  12.414   9.376   9.725  0.2395  0.0941  0.3134
14909PP      PP25013   7.781   5.977   2.005 -0.1122 -0.0039  0.1866
14910PP      PP25014  12.768  13.655   0.884  0.1245  0.4222 -0.1161
14911PP      PP25015  11.228   8.809   1.828  0.0612  0.0888 -0.0185
14912PP      PP25016  10.843   8.815   3.133  0.0285  0.2864 -0.1081
14913PP      PP25017  12.750   6.610   1.171 -0.2411 -0.0011 -0.0921
14914PP      PP25018   2.226   5.709   4.523  0.1603 -0.1043 -0.0298
14915PP      PP25019   4.225   4.044  10.039  0.0689 -0.0353  0.0433
14916PP      PP25020   0.922   2.178  11.666  0.1953  0.0500 -0.2867
14917PP      PP25021  10.272  14.198   2.836 -0.3945 -0.0581  0.1048
14918PP      PP25022   5.824   5.168   2.657 -0.1035 -0.4100  0.0150
14919PP      PP25023   2.251   8.883  12.084 -0.4521  0.3631 -0.3749
14920PP      PP25024  14.977   1.433  12.662 -0.0981  0.0370 -0.0310
14921PP      PP25025  15.674   8.454  13.177  0.2096  0.0836 -0.1995
14922PP      PP25026   5.056   3.981   9.584  0.2317 -0.2099  0.1634
14923PP      PP25027  12.831   1.544   1.893 -0.2959 -0.3210 -0.0361
14924PP      PP25028   7.105  13.850  11.550 -0.2828 -0.1551 -0.1135
14925PP      PP25029   1.286   4.492  10.614 -0.3660  0.4426  0.0473
14926PP      PP25030   4.550   7.076  11.812 -0.2757 -0.0131  0.1906
14927PP      PP25031   0.168   3.622  12.766 -0.0017 -0.0182  0.3240
14928PP      PP25032   3.177  13.066  13.364 -0.1478  0.1340 -0.2360
14929PP      PP25033   1.701   8.450  10.952 -0.0029 -0.1814 -0.2467
14930PP      PP25034  14.916   2.367  10.289  0.0975  0.2153 -0.1178
14931PP      PP25035   5.690   8.811   1.232  0.2060  0.0868  0.0665
14932PP      PP25036   8.531   3.334   0.690  0.1351  0.1008 -0.0746
14933PP      PP25037   1.583   3.082  11.393  0.1599  0.1483 -0.2217
14934PP      PP25038   4.011   9.719  13.172  0.1015 -0.1838  0.0317
14935PP      PP25039  13.007   5.586  12.913 -0.0684  0.2242  0.0017
14936PP      PP25040  12.497   6.701   9.419  0.3307  0.3075 -0.1374
14937PP      PP25041   1.876   7.912  10.895 -0.2413 -0.0002 -0.2141
14938PP      PP25042   8.736  15.228   9.939  0.6238  0.4014  0.0358
14939PP      PP25043  13.819  13.093  12.426 -0.1538  0.0074  0.5818
14940PP      PP25044  13.824   7.403   9.408  0.1304 -0.1748  0.0000
14941PP      PP25045   7.742  10.612  12.084  0.1052 -0.2845  0.1779
14942PP      PP25046   3.958  11.299   9.326  0.1271 -0.0228 -0.0869
14943PP      PP25047   2.155  13.546   1.282 -0.1528 -0.1344 -0.0777
14944PP      PP25048  11.793  14.878   5.228 -0.1167  0.2128 -0.0420
14945PP      PP25049   5.195  10.203  11.379 -0.1527 -0.2502 -0.4512
14946PP      PP25050   1.853   3.851  11.890  0.1015  0.0555 -0.2354
14947PP      PP25051  11.637   9.785  11.708 -0.2731  0.1464  0.1805
14948PP      PP25052  12.726  15.537   1.473 -0.1533  0.0965  0.1877
14949PP      PP25053   1.911   2.180   2.735 -0.2236  0.2512 -0.2825
14950PP      PP25054  14.321   8.626   1.572 -0.1891  0.0518 -0.0049
14951PP      PP25055  11.133  11.149   1.776  0.2685  0.0748  0.0643
14952PP      PP25056   5.086  10.747  12.393  0.1463 -0.0601 -0.4638
14953PP      PP25057   2.109   9.361   3.049  0.2534  0.2033  0.0006
14954PP      PP25058  14.762   4.701  12.303  0.1148 -0.0424 -0.4475
14955PP      PP25059   9.148  15.686  10.813 -0.1127 -0.0407  0.1799
14956PP      PP25060  14.598   5.641  10.451  0.1221 -0.2072 -0.1131
14957PP      PP25061  11.093  11.905   4.457  0.0195 -0.0898 -0.1508
14958PP      PP25062  14.823  10.117   0.696 -0.1687  0.0521 -0.2184
14959PP      PP25063   5.234  10.082   9.670  0.2492 -0.0097  0.1474
14960PP      PP25064   0.697  13.925  11.349  0.2516  0.1036  0.1515
14961PP      PP25065   4.761   8.566   3.390 -0.2759 -0.1525  0.1221
14962PP      PP25066   7.236  11.321  12.998 -0.0118 -0.2277 -0.4292
14963PP      PP25067  10.675   9.834   2.030  0.1529  0.0671 -0.2323
14964PP      PP25068  13.691   3.030   3.262 -0.0137 -0.1085  0.0981
14965PP      PP25069   8.375  13.665   4.463 -0.2292  0.0641  0.1047
14966PP      PP25070  11.082   7.540   3.072  0.4042 -0.3949  0.3787
14967PP      PP25071   2.263   9.667   0.417 -0.1887  0.0773  0.2479
14968PP      PP25072   1.131  11.752  11.607  0.2913 -0.2320  0.1012
14969PP      PP25073   1.827   0.748   1.243 -0.1469  0.1780  0.1136
14970PP      PP25074   3.877   1.586   2.222 -0.1430 -0.2071  0.2555
14971PP      PP25075   3.611   4.216   8.952 -0.0166 -0.0201  0.0384
14972PP      PP25076   6.667  13.399   2.155 -0.0797  0.3768  0.0000
14973PP      PP25077   2.460   7.940  11.468  0.2535  0.0289  0.0205
14974PP      PP25078   4.073   3.972   7.772  0.2031  0.0888  0.3079
14975PP      PP25079   7.552   6.488  12.140  0.0118  0.0841  0.0108
14976PP      PP25080  13.231   3.541   2.300 -0.2368 -0.0680 -0.3112
14977PP      PP25081   9.650   7.536   0.338  0.0172 -0.3784  0.1681
14978PP      PP25082   0.376  11.856  12.520  0.0783  0.0033 -0.0079
14979PP      PP25083   9.335   1.519  11.902 -0.2850  0.0353  0.0247
14980PP      PP25084  15.160   0.818   0.315  0.1056  0.0103  0.2664
14981PP      PP25085   5.149   7.663  13.380  0.0542 -0.1952 -0.3084
14982PP      PP25086   4.212  15.253  11.259 -0.2233  0.4346 -0.6630
14983PP      PP25087   5.137   1.128  13.058  0.2290 -0.0565 -0.2035
14984PP      PP25088   9.556   1.824  13.139 -0.0378 -0.1053  0.0381
14985PP      PP25089   9.501  15.562   2.355 -0.2029 -0.0837 -0.0312
14986PP      PP25090   5.855   8.153  12.412  0.1381 -0.2307  0.0330
14987PP      PP25091  13.277   3.783   1.199  0.0787  0.1847  0.0212
14988PP      PP25092   8.927  11.499  11.543 -0.0482  0.1965  0.1452
14989PP      PP25093  15.181   6.155   3.214  0.0558  0.0343  0.0775
14990PP      PP25094  15.565   3.258  10.612 -0.0911 -0.2989 -0.1992
14991PP      PP25095  14.080   5.612  11.745 -0.4694  0.0320  0.0031
14992PP      PP25096   6.719   4.209   2.051 -0.1487  0.0759  0.0903
14993PP      PP25097  11.971  11.822  10.528  0.2078 -0.1380 -0.1679
14994PP      PP25098   7.341   9.521   0.921  0.1405 -0.2742 -0.2722
14995PP      PP25099  13.525   7.662  10.658 -0.0634 -0.0516  0.1291
14996PP      PP25100   2.470  14.908   2.561  0.4118  0.0303  0.0819
14997PP      PP25101   5.188   3.377   2.104 -0.0220 -0.1745 -0.1835
14998PP      PP25102  10.374   1.243  13.354 -0.3617 -0.2541  0.0248
14999PP      PP25103  12.885  10.269  11.014 -0.0403  0.1258 -0.2375
15000PP      PP25104   2.442  10.563  10.775  0.0804 -0.1864  0.1789
15001PP      PP25105   4.895   5.974  10.678 -0.2727  0.3406  0.2603
15002PP      PP25106  10.292   4.826   2.565 -0.1119 -0.1253  0.0771
15003PP      PP25107   6.424   8.392   1.154  0.1118 -0.3845  0.0830
15004PP      PP25108  12.590   2.248   0.179 -0.2624  0.2251 -0.0399
15005PP      PP25109  10.648   1.969  11.427  0.1562  0.0674 -0.4620
15006PP      PP25110   7.522   3.720   2.246 -0.0301  0.1846 -0.2601
15007PP      PP25111  15.099  12.412   2.162 -0.1541  0.4403  0.5953
15008PP      PP25112   3.899   1.697   0.696  0.2740 -0.0740  0.0336
15009PP      PP25113   3.641   8.194  13.331  0.3609  0.3699 -0.0532
15010PP      PP25114  13.136   2.254  10.799 -0.0140 -0.0538  0.3004
15011PP      PP25115   1.363   3.739   9.704 -0.1019  0.0091  0.3485
15012PP      PP25116  10.003   7.184   2.922  0.2603  0.1087 -0.3992
15013PP      PP25117   5.097   4.607  13.378  0.0188 -0.0357 -0.0082
15014PP      PP25118  13.580  12.120  11.525 -0.2316 -0.0465 -0.2256
15015PP      PP25119   3.352  10.037   4.166  0.1557 -0.3480  0.1141
15016PP      PP25120   8.529  12.079   3.631  0.1814  0.2137 -0.1960
15017PP      PP25121   3.203  10.726  13.314 -0.0961  0.1729  0.1233
15018PP      PP25122   0.962   6.348   1.799  0.1802  0.0123 -0.0307
15019PP      PP25123   9.635   1.066   2.694 -0.0888  0.2809 -0.1451
15020PP      PP25124   3.652   0.663   2.188  0.1451  0.0673 -0.3113
15021PP      PP25125  10.573  15.803  12.913  0.2304 -0.2218  0.0105
15022PP      PP25126  10.128   4.395   2.157 -0.2368  0.1731  0.0416
15023PP      PP25127   4.822   0.290   2.312  0.1617 -0.0299  0.0729
15024PP      PP25128   6.045   2.471   3.384  0.2966 -0.1874 -0.0716
15025PP      PP25129  12.758   0.800   2.481  0.1459  0.0282 -0.1030
15026PP      PP25130   1.358   3.492   1.288  0.0704  0.0293 -0.0130
15027PP      PP25131   3.673  11.825   3.847 -0.2367 -0.0327 -0.0454
15028PP      PP25132  10.917   5.093  11.485 -0.0058  0.2040 -0.1227
15029PP      PP25133  13.592  14.016   3.795  0.0514 -0.0390 -0.2492
15030PP      PP25134   6.107   5.319   1.259  0.1707  0.0234  0.1769
15031PP      PP25135  11.079   4.726   9.650  0.1987 -0.0464  0.2095
15032PP      PP25136  10.164   0.675   4.088  0.0964  0.2767  0.2848
15033PP      PP25137  15.355  13.017  11.951  0.0758  0.3015  0.0468
15034PP      PP25138   7.110   3.716  10.420  0.1641  0.0877 -0.0052
15035PP      PP25139   3.035   0.667   3.479 -0.1158 -0.0203 -0.3018
15036PP      PP25140  11.097  15.629   1.378  0.0101  0.1417  0.1098
15037PP      PP25141   8.097  12.142   4.478  0.1643 -0.3276 -0.2623
15038PP      PP25142   0.772   3.790   1.044  0.0939 -0.0111  0.0286
15039PP      PP25143   4.232   8.224  11.516 -0.3339  0.1654 -0.1732
15040PP      PP25144  11.158  14.782  10.854 -0.4211  0.0321 -0.1617
15041PP      PP25145  14.543   5.871   8.738 -0.0140  0.1780 -0.1468
15042PP      PP25146   2.655   6.376   3.254  0.1731 -0.1884 -0.2996
15043PP      PP25147   9.796  14.485  11.729 -0.0188  0.0085  0.2915
15044PP      PP25148   2.832   2.495   2.647  0.0889  0.0552  0.0819
15045PP      PP25149   7.476  10.061   3.583  0.3844 -0.2169  0.1699
15046PP      PP25150   6.827   2.642   1.302 -0.0904 -0.0426 -0.0006
15047PP      PP25151   7.396   4.120   0.258 -0.2760 -0.2394 -0.4882
15048PP      PP25152   7.786   3.222   2.352  0.1785  0.3354  0.0487
15049PP      PP25153   0.500   4.793   3.086  0.0718  0.0550  0.2603
15050PP      PP25154  12.663   4.081   0.751  0.2589 -0.0032 -0.0767
15051PP      PP25155   8.586   6.478   2.052  0.3476 -0.0033  0.1050
15052PP      PP25156   4.329   6.843  13.127 -0.1508 -0.0916  0.0896
15053PP      PP25157  10.058  13.760   0.468 -0.5059  0.1037 -0.3019
15054PP      PP25158  13.292  14.563  13.278 -0.0943  0.1456 -0.1305
15055PP      PP25159   4.005  11.754  13.399  0.3786  0.2182  0.0881
15056PP      PP25160   2.961   4.409  11.268 -0.1439 -0.0052 -0.3178
15057PP      PP25161  15.273   9.935  12.417 -0.0877  0.1512  0.2089
15058PP      PP25162   1.224  12.040   8.655 -0.0658  0.0582  0.1740
15059PP      PP25163   3.647  10.695   1.665  0.0700 -0.0974 -0.0499
15060PP      PP25164  14.479   8.394   0.222 -0.4102 -0.1703  0.0634
15061PP      PP25165  13.929  12.132   2.469  0.1834  0.1841  0.2108
15062PP      PP25166  15.357  12.513  11.814  0.0564 -0.1442  0.1056
15063PP      PP25167  13.840   4.047   3.088  0.1869  0.0737 -0.1239
15064PP      PP25168   0.001   6.456   3.818  0.1193 -0.0756 -0.0316
15065PP      PP25169   0.756   6.757   1.019  0.4379  0.2455  0.1675
15066PP      PP25170   6.546   4.482  10.314  0.1485  0.0495  0.0139
15067PP      PP25171   9.026   1.126  11.769 -0.0808 -0.0282  0.0895
15068PP      PP25172   9.044  15.584   2.219  0.4043  0.0566  0.1633
15069PP      PP25173   4.601  11.752  11.838 -0.0631 -0.0715 -0.1438
15070PP      PP25174   1.172   0.184   9.831  0.1547  0.0115  0.1646
15071PP      PP25175   1.577   9.420  10.295  0.3113  0.1061  0.3243
15072PP      PP25176  11.291   0.562  11.244 -0.0746 -0.4303  0.1541
15073PP      PP25177   3.276   4.363   2.796 -0.2431 -0.0651 -0.0177
15074PP      PP25178   6.603   8.405   2.005  0.1049  0.0848 -0.1788
15075PP      PP25179   4.985   3.964   1.374  0.0876  0.0701 -0.3416
15076PP      PP25180  10.856  13.020   2.066 -0.3757  0.1197 -0.2195
15077PP      PP25181   1.144   5.890   4.241  0.1584  0.1738 -0.0188
15078PP      PP25182  11.838   5.555   2.435 -0.2413 -0.0339  0.2107
15079PP      PP25183   4.486  14.534   1.144  0.2702  0.2046 -0.0054
15080PP      PP25184  15.227   9.137   0.852  0.0016  0.2252 -0.2641
15081PP      PP25185   7.864  11.989  12.542  0.0506  0.2234 -0.1292
15082PP      PP25186  15.536   2.612   8.889 -0.0698 -0.0680  0.2343
15083PP      PP25187   6.575   9.861   1.173 -0.2738 -0.0003  0.0084
15084PP      PP25188  10.873  13.934   1.886 -0.0909 -0.0409 -0.1242
15085PP      PP25189   6.208   3.032  10.909 -0.0869  0.0343  0.1169
15086PP      PP25190   1.716   1.501   8.231  0.0417  0.2530  0.1199
15087PP      PP25191   4.129  13.116   2.018 -0.1002 -0.1081  0.0631
15088PP      PP25192  11.063   0.366  10.706 -0.0188  0.0370  0.5551
15089PP      PP25193   2.845   3.764   1.526 -0.1522  0.1943  0.1479
15090PP      PP25194   8.479  10.793   8.921  0.1224 -0.0390  0.6007
15091PP      PP25195   3.504   8.339   0.508  0.0383  0.1865 -0.1602
15092PP      PP25196   8.993   7.213  13.258 -0.0202 -0.0112 -0.2979
15093PP      PP25197   6.051   4.180   3.503 -0.0319 -0.3147  0.0249
15094PP      PP25198  11.065   0.074  13.334  0.1293 -0.1582 -0.0035
15095PP      PP25199  14.222   5.474   3.920 -0.0743 -0.1828 -0.1294
15096PP      PP25200  13.097   9.586   4.481  0.0817  0.0490 -0.2474
15097PP      PP25201  14.546  10.864  12.458  0.1434 -0.3786 -0.2240
15098PP      PP25202   0.915  12.338  10.269  0.0487 -0.0415 -0.1657
15099PP      PP25203  11.651   7.023  10.011 -0.0742 -0.0840  0.1110
15100PP      PP25204   8.791   1.695  12.850 -0.1898 -0.0708  0.0463
15101PP      PP25205   9.574   0.038   0.716  0.1008 -0.0822  0.0371
15102PP      PP25206  12.625   3.081   0.371  0.0623 -0.1052 -0.1735
15103PP      PP25207   2.073  12.908  10.672  0.2094  0.0081 -0.2657
15104PP      PP25208   7.474   5.795   1.261 -0.4085  0.3790  0.0938
15105PP      PP25209   4.752   2.948  12.795 -0.1524  0.0888 -0.0103
15106PP      PP25210  10.113  10.644   0.351  0.0381 -0.1239  0.3264
15107PP      PP25211  11.042   6.731  10.717  0.0778 -0.0418  0.2583
15108PP      PP25212  12.211   2.729  11.108 -0.0881 -0.0916 -0.1783
15109PP      PP25213   6.527  12.843  12.460 -0.1587 -0.0581  0.1914
15110PP      PP25214   5.830   2.532   2.110  0.2273 -0.0923  0.1040
15111PP      PP25215  11.438  10.172   0.822  0.1666 -0.0126  0.0655
15112PP      PP25216   2.756   3.328  12.746 -0.1841 -0.2861 -0.0316
15113PP      PP25217   4.833   8.848   2.951  0.0206 -0.2640  0.3370
15114PP      PP25218   6.301   2.872   3.659  0.0618 -0.0970  0.1166
15115PP      PP25219   6.722  14.630  10.703 -0.0382  0.1028 -0.0340
15116PP      PP25220  12.536  15.334   4.020 -0.0371  0.1866 -0.3329
15117PP      PP25221   6.253  15.623   9.993 -0.1967  0.0263 -0.0262
15118PP      PP25222   5.973   5.569   9.547  0.0316 -0.1263  0.1183
15119PP      PP25223  13.050  13.615  11.371  0.0285 -0.1442 -0.0134
15120PP      PP25224  11.316   0.059   0.695 -0.0659 -0.0100 -0.0105
15121PP      PP25225  10.759   6.780  10.279 -0.2034 -0.0097 -0.2464
15122PP      PP25226  11.076  10.622   0.129 -0.0862 -0.2418 -0.0629
15123PP      PP25227  11.841   6.222  12.950  0.0090 -0.2021  0.2689
15124PP      PP25228   9.394  15.946   3.488 -0.1516 -0.3547  0.0634
15125PP      PP25229  11.195  11.175  10.733  0.1246  0.0704 -0.1683
15126PP      PP25230   5.398   7.604   5.048 -0.2572 -0.3816 -0.4267
15127PP      PP25231  11.739  12.990   3.048  0.2548  0.1898  0.0484
15128PP      PP25232   0.616  15.785  12.409 -0.1587 -0.0304  0.2034
15129PP      PP25233  13.384  13.697   0.869  0.0456 -0.0931 -0.0141
15130PP      PP25234  15.775  12.677  12.310 -0.1215 -0.0775  0.3699
15131PP      PP25235   3.427   4.691  11.283 -0.1084  0.0833 -0.2925
15132PP      PP25236   8.188   0.031  12.384 -0.0516  0.4336 -0.0275
15133PP      PP25237  10.248   4.154  12.905  0.3138 -0.1727  0.2350
15134PP      PP25238  14.785   9.814  11.869  0.0123 -0.2535  0.1745
15135PP      PP25239   5.073   5.006   1.263  0.0656  0.0667  0.1906
15136PP      PP25240  15.019   1.282  10.466  0.1248 -0.0048  0.1489
15137PP      PP25241   3.502  14.555   9.311  0.3313  0.0068  0.0892
15138PP      PP25242  13.379  15.417  11.522 -0.0881  0.1310  0.0442
15139PP      PP25243   2.535  13.479  11.189 -0.1618  0.0840 -0.3641
15140PP      PP25244   0.295  10.224   2.129  0.1965  0.0998 -0.0817
15141PP      PP25245  14.006   2.721  12.730  0.2272  0.1669 -0.3337
15142PP      PP25246  10.319   8.142   3.578  0.1144 -0.1795 -0.4061
15143PP      PP25247   2.436  13.623   2.185  0.1125  0.2093 -0.1810
15144PP      PP25248   9.809   0.954   9.440 -0.0509  0.1763 -0.2610
15145PP      PP25249   2.603   7.203   2.674 -0.1693  0.1806  0.2057
15146PP      PP25250   3.001  15.053   0.801  0.1832  0.1055  0.2843
15147PP      PP25251  11.151  12.027   2.151 -0.2846 -0.1704 -0.2435
15148PP      PP25252   6.068   9.239   0.278  0.2255  0.2994  0.0547
15149PP      PP25253   1.910   1.534  10.895 -0.0803 -0.1771 -0.0334
15150PP      PP25254   0.915   7.552   3.807  0.0517 -0.2316 -0.0357
15151PP      PP25255   8.900  11.533  11.063 -0.0805 -0.3034  0.0188
15152PP      PP25256   5.223   9.149   2.756  0.0188  0.1990 -0.2019
15153PP      PP25257  13.023   9.864  11.348 -0.0868 -0.0007  0.1596
15154PP      PP25258  15.339   5.621  12.616 -0.0292 -0.0355  0.2486
15155PP      PP25259  15.123   0.113   1.013  0.1975  0.1736 -0.0599
15156PP      PP25260   5.778   0.643   0.405 -0.0619  0.0284  0.2066
15157PP      PP25261   6.170   5.548   0.777 -0.0931  0.0401 -0.1522
15158PP      PP25262   5.050   9.322  10.367 -0.0872  0.2098  0.2814
15159PP      PP25263  10.944   0.839  10.970 -0.1302 -0.0055 -0.1968
15160PP      PP25264   2.446  14.651   3.201  0.2972  0.1475  0.1724
15161PP      PP25265  13.634   7.130   0.779  0.2618 -0.3090 -0.1672
15162PP      PP25266   0.661  12.211   9.547 -0.1031  0.1323 -0.0377
15163PP      PP25267   1.653  15.100   3.320 -0.1564 -0.1813 -0.1458
15164PP      PP25268  13.887   7.421   3.766 -0.0212 -0.2390  0.0739
15165PP      PP25269  10.528   0.265   1.563 -0.1758  0.1043 -0.2009
15166PP      PP25270  15.744   0.379   7.527 -0.1534  0.0477  0.4365
15167PP      PP25271   6.467  14.821   2.886 -0.4092  0.2210  0.2249
15168PP      PP25272  12.634   6.964   2.748  0.4218 -0.1156 -0.1264
15169PP      PP25273  11.066  14.122   4.324  0.2023  0.1335 -0.0687
15170PP      PP25274   2.019  10.148   9.425 -0.0486 -0.0631 -0.2405
15171PP      PP25275  14.637   9.357   2.950  0.0314 -0.1047  0.1305
15172PP      PP25276   1.033   0.200  13.129 -0.2373 -0.2652 -0.0834
15173PP      PP25277  14.004   0.053  11.984  0.0035 -0.2622 -0.3032
15174PP      PP25278  13.483   3.615  10.548  0.0578  0.0802  0.3013
15175PP      PP25279   0.281  13.855   8.589 -0.1092 -0.0733  0.0552
15176PP      PP25280  13.276  11.142  10.939  0.1754  0.1221 -0.3312
15177PP      PP25281   3.040  12.117  12.421 -0.2333  0.2412 -0.1613
15178PP      PP25282   8.429  13.744   0.551 -0.1721  0.0478 -0.0440
15179PP      PP25283  15.039  12.913   1.938  0.0227 -0.3734 -0.3645
15180PP      PP25284   2.211   6.795  13.147  0.0230 -0.0178  0.1362
15181PP      PP25285   9.976  11.598   9.584 -0.1218  0.0555 -0.0613
15182PP      PP25286  15.887  15.426   8.536 -0.0415 -0.1741 -0.2275
15183PP      PP25287   4.806  15.289   9.491  0.2258  0.1464 -0.0819
15184PP      PP25288   5.155   7.411  10.653  0.2741  0.1122 -0.1603
15185PP      PP25289   0.579   9.294   1.976  0.1203  0.2707 -0.1131
15186PP      PP25290   2.220   5.496  11.083 -0.0527  0.3274  0.1008
15187PP      PP25291   5.813   8.491  12.829 -0.0816 -0.0004  0.1493
15188PP      PP25292   7.264  12.127   1.556 -0.1054  0.3470  0.0468
15189PP      PP25293  14.743  14.100  12.144 -0.2154  0.0528  0.2268
15190PP      PP25294   0.025   1.680   9.179 -0.3488 -0.0782  0.2916
15191PP      PP25295   6.104   4.347   0.428  0.1598 -0.1446 -0.0311
15192PP      PP25296   3.088   0.745  12.757  0.2950 -0.1516 -0.0739
15193PP      PP25297  12.694   4.448   2.055  0.2546 -0.0149 -0.1149
15194PP      PP25298   5.082  13.244   8.194  0.4104 -0.0187 -0.2140
15195PP      PP25299   5.206  13.723   1.957  0.0311  0.3613 -0.1870
15196PP      PP25300   3.738   4.024  10.287 -0.2972 -0.0408 -0.1600
15197PP      PP25301   1.699  14.849   0.570 -0.0492  0.1557  0.3425
15198PP      PP25302  10.481  14.253  12.001  0.1454 -0.0395  0.1245
15199PP      PP25303   8.838   8.114   1.485 -0.1006 -0.3728 -0.2412
15200PP      PP25304   5.194   4.870  10.532 -0.1191 -0.1858  0.0582
15201PP      PP25305   8.331   8.704  10.844  0.2706 -0.1187  0.2271
15202PP      PP25306   1.568   8.861  13.047 -0.3204 -0.2805 -0.3271
15203PP      PP25307   3.172   0.127   1.399  0.2030 -0.0454  0.1217
15204PP      PP25308   0.977  14.696  11.668 -0.1043  0.1187 -0.1891
15205PP      PP25309   0.860  12.568   2.643 -0.1384 -0.2907  0.0419
15206PP      PP25310  10.860   4.291   9.572 -0.1691  0.1513 -0.3740
15207PP      PP25311   0.123   8.210   0.037 -0.2500  0.2034 -0.0576
15208PP      PP25312   4.165   7.401   8.548 -0.2210 -0.0797 -0.0952
15209PP      PP25313  13.866  11.075   3.966  0.0697  0.0716  0.0652
15210PP      PP25314  12.325  11.140  10.053  0.0232 -0.0012  0.1633
15211PP      PP25315   1.165   0.102   1.877 -0.1518  0.1212  0.4676
15212PP      PP25316   1.712   0.079   2.120 -0.3145 -0.0157  0.0066
15213PP      PP25317  11.149   6.442  10.161 -0.1961 -0.2335  0.0259
15214PP      PP25318  13.300  12.791  13.215  0.1574  0.0141  0.0767
15215PP      PP25319  13.224  10.407  11.394 -0.2714 -0.2061 -0.0799
15216PP      PP25320  12.351   6.514   3.006  0.1251 -0.0692 -0.0261
15217PP      PP25321   0.405  13.412   9.640  0.1413  0.0598  0.1624
15218PP      PP25322   9.846  10.092   1.437  0.3305  0.2148  0.0649
15219PP      PP25323  12.556   2.998   2.160 -0.0355 -0.0417 -0.1000
15220PP      PP25324   4.968   8.083   0.629 -0.0067 -0.3360 -0.3216
15221PP      PP25325   2.961   4.920  10.764  0.3403 -0.0389 -0.0812
15222PP      PP25326  14.197   7.476  11.785  0.3580  0.3961  0.1463
15223PP      PP25327  12.516  11.173   2.052 -0.0968  0.1891 -0.1134
15224PP      PP25328   4.370   2.065  11.988  0.0668 -0.1561 -0.3359
15225PP      PP25329   8.256   5.635   9.879 -0.1456 -0.3601  0.1981
15226PP      PP25330  12.105   8.782  10.703  0.0280  0.0272  0.1358
15227PP      PP25331   9.065   9.018  10.232  0.0794 -0.1656  0.2975
15228PP      PP25332   3.176   8.767   3.653  0.1032  0.2516 -0.1581
15229PP      PP25333  12.296   0.307   0.778 -0.0029  0.0370  0.3409
15230PP      PP25334  13.270   5.166   1.352  0.2777  0.0667 -0.0433
15231PP      PP25335  10.042   5.627   1.277 -0.1887  0.1122 -0.0725
15232PP      PP25336   4.286  14.388   2.530  0.2640 -0.2214  0.0463
15233PP      PP25337   1.142   8.013   9.081 -0.0034  0.1077 -0.1374
15234PP      PP25338   7.717  12.641  10.530  0.1141  0.0908 -0.1422
15235PP      PP25339   0.791   4.797   1.492  0.0828 -0.0318 -0.0660
15236PP      PP25340  15.608  10.610  11.665  0.0762  0.0759  0.0283
15237PP      PP25341  15.829  12.199   8.951 -0.1152 -0.0027 -0.2965
15238PP      PP25342   7.329  15.123   2.469  0.1709  0.0315  0.1431
15239PP      PP25343   1.051   4.778  12.393  0.0015 -0.2372 -0.1293
15240PP      PP25344   8.202  15.628   9.353 -0.1141  0.0814  0.0515
15241PP      PP25345   2.161  14.902   3.543  0.0946  0.0728 -0.0029
15242PP      PP25346   5.701   1.714   4.389  0.0677  0.0538 -0.4055
15243PP      PP25347   4.346  13.779  10.187 -0.2887 -0.1950 -0.1338
15244PP      PP25348   2.994  13.572   1.903  0.0566  0.2456 -0.0004
15245PP      PP25349  10.109  14.534   1.198  0.0462  0.1158 -0.2203
15246PP      PP25350   0.853   4.061   3.241 -0.0926 -0.1089 -0.0692
15247PP      PP25351   6.212   8.062  11.399  0.0665 -0.0319  0.0540
15248PP      PP25352   9.214   0.974   0.138 -0.1310  0.1179  0.0402
15249PP      PP25353  11.710   4.764  12.807  0.0892 -0.2004 -0.0295
15250PP      PP25354   4.477  13.582   3.130 -0.1361  0.0546  0.1676
15251PP      PP25355   6.997  12.522  11.726 -0.1701  0.1625  0.0921
15252PP      PP25356  13.066   7.412   0.781 -0.0189  0.0129  0.0859
15253PP      PP25357   5.278   5.013   9.088 -0.0121  0.0233 -0.0940
15254PP      PP25358   6.152  11.888   3.132 -0.1355 -0.0002  0.0286
15255PP      PP25359  11.611  11.697  11.944 -0.0227  0.1990 -0.0420
15256PP      PP25360   6.384  14.470  13.069  0.1313 -0.0614 -0.1808
15257PP      PP25361  15.154  14.307  12.455  0.0166 -0.0958 -0.0670
15258PP      PP25362  11.838   6.439  11.387  0.0067 -0.0797  0.1578
15259PP      PP25363   9.949   8.110  10.441 -0.1953 -0.0372  0.0748
15260PP      PP25364   3.375   8.500  10.628 -0.2015 -0.0300 -0.3170
15261PP      PP25365   0.044   3.862  11.195 -0.0990 -0.3302  0.0277
15262PP      PP25366   1.627  12.673  13.309  0.0156 -0.1564  0.2375
15263PP      PP25367   7.461  10.535   8.667  0.2896 -0.0448 -0.2451
15264PP      PP25368   1.202   8.617  13.249 -0.1659  0.0227  0.1732
15265PP      PP25369   1.552  10.153   2.191 -0.2201  0.0464 -0.0455
15266PP      PP25370  13.849   2.771   0.329 -0.0683  0.2346  0.2155
15267PP      PP25371   6.517   5.472   8.853  0.1398  0.0600 -0.3110
15268PP      PP25372  11.824  12.907   9.809 -0.1117 -0.2156  0.2439
15269PP      PP25373   2.853   9.920   2.918  0.1082 -0.0365 -0.0421
15270PP      PP25374   5.138  13.319  11.295  0.4243  0.0734  0.2051
15271PP      PP25375   3.254  13.859   9.363 -0.0169  0.0449  0.0167
15272PP      PP25376  11.380   3.222  10.300  0.1208  0.2004  0.2413
15273PP      PP25377  15.711   9.845   0.403 -0.4817 -0.4332 -0.1054
15274PP      PP25378   2.522   7.520  13.270  0.2524  0.0933  0.3559
15275PP      PP25379  15.414   7.017   1.598  0.1698  0.0240  0.0572
15276PP      PP25380  12.632   4.607   9.535  0.2874  0.1742  0.4345
15277PP      PP25381   7.432  12.110  11.683 -0.1485 -0.3654 -0.1134
15278PP      PP25382  11.318   1.744   0.507 -0.1578 -0.0968 -0.0635
15279PP      PP25383  15.227  11.340   1.753 -0.0257 -0.2603  0.3022
15280PP      PP25384   1.378  14.811  11.910 -0.0665  0.3192 -0.0831
15281PP      PP25385  11.234  12.097  12.484 -0.1255  0.2465 -0.0701
15282PP      PP25386   8.122   7.895  12.129 -0.4389 -0.2694  0.1625
15283PP      PP25387  10.990   1.137  12.501  0.2642 -0.1650  0.1003
15284PP      PP25388   5.426  15.811  13.063  0.0744  0.1486 -0.0387
15285PP      PP25389  13.036  13.788  10.061 -0.0831 -0.1921  0.1211
15286PP      PP25390   1.309   6.828  13.238  0.1857  0.0432 -0.1687
15287PP      PP25391   1.789   5.279  13.062 -0.4042 -0.2724 -0.1091
15288PP      PP25392   1.929  10.948   2.857 -0.0390  0.1503  0.0177
15289PP      PP25393  15.441   8.497  10.473 -0.0524  0.1307 -0.1348
15290PP      PP25394   7.145   2.027   9.681  0.0527 -0.0740 -0.1441
15291PP      PP25395   0.300  15.006  10.211  0.0504  0.0918  0.2662
15292PP      PP25396  10.010  14.963   8.951 -0.3180 -0.0538 -0.1879
15293PP      PP25397   4.015   4.475  10.089 -0.2500 -0.1411  0.3269
15294PP      PP25398   4.903  10.655  11.122  0.0789  0.3019 -0.2603
15295PP      PP25399   2.478  10.786   8.847  0.0354  0.0941 -0.3781
15296PP      PP25400  15.006   6.647  13.378 -0.0022  0.1807  0.1628
15297PP      PP25401  12.749   9.857  10.730 -0.0377 -0.3120 -0.2521
15298PP      PP25402   1.490   9.818   3.750 -0.1176 -0.3694 -0.1164
15299PP      PP25403  12.369   9.526   1.359  0.2751 -0.0229 -0.0738
15300PP      PP25404   9.608  13.269   1.020  0.0185  0.0127  0.0931
15301PP      PP25405   0.400   9.509  12.386  0.0479  0.3572 -0.2246
15302PP      PP25406  15.767   6.938   3.648  0.3848  0.1731  0.1697
15303PP      PP25407   6.820  11.853   0.082  0.0673 -0.1148 -0.2200
15304PP      PP25408   5.888   9.290  10.574  0.3292 -0.0374  0.0299
15305PP      PP25409   2.517   2.067   9.653 -0.1260  0.1753 -0.0892
15306PP      PP25410   9.468   9.253   4.162 -0.3643  0.0864 -0.2731
15307PP      PP25411  11.734   1.822   3.021 -0.1626  0.1191  0.2410
15308PP      PP25412   9.359  15.431  12.275  0.2824 -0.4071  0.4411
15309PP      PP25413   4.928   3.887  10.789  0.0426 -0.1774  0.0401
15310PP      PP25414   4.182   8.553   4.112  0.1083 -0.2026 -0.1603
15311PP      PP25415  12.231   0.992  11.705  0.0413 -0.1194  0.3427
15312PP      PP25416   2.362   0.562   1.663 -0.1186  0.0780 -0.1819
15313PP      PP25417   7.521  10.396  12.480  0.0216 -0.1150 -0.0191
15314PP      PP25418   3.095  11.231  11.318 -0.1874  0.1238 -0.1001
15315PP      PP25419   1.431   7.802  13.309  0.0754 -0.0519 -0.0951
15316PP      PP25420   9.200   8.846   1.151  0.3150 -0.3379  0.0912
15317PP      PP25421   8.777  10.754  10.027 -0.0346 -0.1181  0.0119
15318PP      PP25422   7.621  12.097  11.119  0.2648  0.0606 -0.1506
15319PP      PP25423   7.539  10.816   0.501 -0.1635 -0.1699  0.1485
15320PP      PP25424  12.216  12.107   0.034 -0.0827  0.0082 -0.2017
15321PP      PP25425   1.105   8.367   1.699  0.0947  0.1142 -0.3915
15322PP      PP25426  12.422   9.015   0.655 -0.0040 -0.0723  0.1409
15323PP      PP25427  12.734  12.492  11.418  0.0092 -0.1538  0.0097
15324PP      PP25428   2.819   6.899   2.368 -0.0493 -0.0559 -0.1846
15325PP      PP25429   6.101  10.868   3.905 -0.0754  0.0333 -0.3462
15326PP      PP25430  10.269  15.378   5.236 -0.0380  0.0391 -0.0365
15327PP      PP25431   0.340   8.872  11.957  0.0131 -0.0583 -0.0756
15328PP      PP25432   0.997   5.852   3.736  0.3049 -0.0192  0.1140
15329PP      PP25433   6.048  15.663  10.960  0.1480 -0.0974 -0.0170
15330PP      PP25434  10.488   4.877  11.660  0.1027  0.1414  0.0508
15331PP      PP25435   1.022  13.846   9.203 -0.0581 -0.2387  0.3156
15332PP      PP25436  14.436  11.717  11.186 -0.4985 -0.1087 -0.1002
15333PP      PP25437   2.864  13.879  10.363 -0.1936  0.2427  0.0193
15334PP      PP25438  15.236  12.959   8.729  0.1364  0.1409 -0.0682
15335PP      PP25439  12.280   5.728   1.429 -0.3104 -0.1416  0.2151
15336PP      PP25440   1.118   4.128  12.643  0.2090  0.2885 -0.1062
15337PP      PP25441   6.977   8.855   2.638  0.0661 -0.0646 -0.0910
15338PP      PP25442   8.604   7.162  10.619 -0.1354  0.1763 -0.1828
15339PP      PP25443  15.596   9.329  11.185  0.1480 -0.0919  0.4742
15340PP      PP25444   1.443   9.441   1.167 -0.0809  0.0933 -0.0851
15341PP      PP25445   7.904  14.286  13.378  0.1036 -0.3212 -0.1745
15342PP      PP25446  10.750   0.402  12.891 -0.1664  0.2661  0.0532
15343PP      PP25447   0.738   5.041  12.776 -0.1050 -0.0884 -0.0681
15344PP      PP25448   2.923  13.876   0.760  0.3881 -0.1269 -0.0316
15345PP      PP25449  14.894   6.531   0.452  0.0103  0.0163  0.3267
15346PP      PP25450   8.383   7.877   0.356  0.2194 -0.2345 -0.1253
15347PP      PP25451   7.871   8.042   1.363  0.0223  0.1565  0.0213
15348PP      PP25452   7.857   6.269  11.678  0.1002 -0.1800  0.1807
15349PP      PP25453   0.569   5.734   9.597  0.2015 -0.3711 -0.2938
15350PP      PP25454  10.621  11.446   0.827 -0.0666 -0.0854  0.0604
15351PP      PP25455  10.868   1.202   1.309 -0.1820  0.0178 -0.0645
15352PP      PP25456   9.580   5.919   3.807  0.2857 -0.1245  0.2083
15353PP      PP25457   5.613   2.587   0.606 -0.1290  0.0145 -0.2022
15354PP      PP25458   8.756   6.073  12.597 -0.1670 -0.0765 -0.0579
15355PP      PP25459   8.953  15.547   4.214  0.2314  0.1126 -0.2881
15356PP      PP25460  13.505  10.813  11.181 -0.0974 -0.2579 -0.4258
15357PP      PP25461   4.211   2.709   1.632 -0.0351 -0.1152 -0.2074
15358PP      PP25462   1.610   5.119   0.873 -0.1892 -0.1233  0.1742
15359PP      PP25463   5.004   4.426  12.237 -0.3921 -0.0204 -0.1244
15360PP      PP25464   4.181  12.178  11.964  0.1195 -0.1139 -0.0363
15361PP      PP25465   2.510  15.445  12.775  0.0754 -0.2813  0.0239
15362PP      PP25466  15.902  11.558  12.581 -0.0960  0.2596  0.1006
15363PP      PP25467   7.688   8.480  11.450 -0.0632  0.1745 -0.1059
15364PP      PP25468   5.882   6.183   2.967 -0.2155  0.2552 -0.1197
15365PP      PP25469  10.243   2.259  11.626 -0.3536  0.0349 -0.1402
15366PP      PP25470   4.434  10.766  11.367 -0.0808 -0.2738  0.1683
15367PP      PP25471  15.004  11.260   2.338 -0.0880 -0.2480  0.1869
15368PP      PP25472   6.552   4.325  11.541 -0.1796 -0.1362 -0.0646
15369PP      PP25473   7.015   7.841   1.548 -0.1089  0.3068  0.0593
15370PP      PP25474   1.151  13.455   1.265 -0.2500  0.3337 -0.3061
15371PP      PP25475   1.371   3.332  13.222 -0.3970  0.1268 -0.0903
15372PP      PP25476   4.393  14.233   0.285  0.1805  0.1712  0.2423
15373PP      PP25477   4.696  13.756   1.867  0.3307  0.3213  0.2197
15374PP      PP25478   4.012  13.463   9.664 -0.0608  0.2111  0.1381
15375PP      PP25479  11.266   5.473  12.219  0.1257  0.1703 -0.2154
15376PP      PP25480  15.731   7.770   2.239  0.3646 -0.2102  0.0841
15377PP      PP25481  11.765   6.046   3.188 -0.0856  0.1088  0.1407
15378PP      PP25482  11.139  12.319   1.657  0.1079  0.3353  0.3928
15379PP      PP25483  13.777   1.754  11.642  0.2129 -0.1392  0.0401
15380PP      PP25484   8.197  12.121   0.017  0.1296  0.2116 -0.2638
15381PP      PP25485  15.269   4.973   9.712 -0.0514  0.3028 -0.0548
15382PP      PP25486   6.695   1.036  11.565 -0.0219  0.2204  0.0298
15383PP      PP25487   9.909   3.644   1.991  0.4415  0.0440 -0.0851
15384PP      PP25488  11.399  15.676   4.744  0.3061  0.1852 -0.1863
15385PP      PP25489  14.762  10.552  10.876  0.0876  0.3650  0.0289
15386PP      PP25490  14.293  12.944   1.255  0.1940  0.0708  0.0978
15387PP      PP25491  15.623   9.887   2.744  0.0761  0.0258  0.1117
15388PP      PP25492  13.005   5.227   3.838  0.1156 -0.5273  0.1298
15389PP      PP25493   3.339  15.004  12.752  0.0915  0.1354  0.0443
15390PP      PP25494  13.425   5.951   3.805  0.3306  0.1138 -0.0081
15391PP      PP25495   4.806  14.462   1.890 -0.0546 -0.1010  0.2736
15392PP      PP25496   9.866   8.083   2.743  0.2622  0.2046  0.0690
15393PP      PP25497  15.460  11.770   1.442 -0.2567  0.2611 -0.0739
15394PP      PP25498   9.014   9.445   4.103 -0.0995  0.3389 -0.1418
15395PP      PP25499  13.209   6.137  12.625  0.3110 -0.0488 -0.2919
15396PP      PP25500   3.435   0.952   9.380  0.0670 -0.2085 -0.0302
15397PP      PP25501  10.023   2.354  12.064  0.0888  0.1213 -0.2503
15398PP      PP25502   5.971   7.602   4.226 -0.3376 -0.0742  0.1233
15399PP      PP25503   3.566  15.514   9.252 -0.2359 -0.1418 -0.0672
15400PP      PP25504   0.206   0.513   0.177 -0.2165 -0.1058 -0.1841
15401PP      PP25505   4.620   4.337   2.316 -0.1465  0.0215 -0.0141
15402PP      PP25506  15.390   0.571   1.753  0.2244  0.2746  0.2847
15403PP      PP25507   4.092   8.018   9.737 -0.0664 -0.2000 -0.0606
15404PP      PP25508  12.352   8.539  11.593  0.0505  0.1594  0.0685
15405PP      PP25509  15.722   7.309   1.835 -0.1207  0.1362 -0.0579
15406PP      PP25510  10.431  15.388   2.493 -0.2304 -0.0227 -0.0923
15407PP      PP25511   0.563   9.652  12.947 -0.1219 -0.0250 -0.0715
15408PP      PP25512   6.754  15.559   9.947 -0.4115  0.0643  0.0800
15409PP      PP25513   8.982  13.245   3.774  0.1201 -0.2130 -0.2744
15410PP      PP25514   8.548   3.493  11.781  0.0777 -0.0424  0.0804
15411PP      PP25515  11.710  12.553   3.874 -0.2462 -0.0035 -0.1204
15412PP      PP25516   6.995  13.627   0.171 -0.2844  0.1464  0.1712
15413PP      PP25517   2.459  10.595   2.240 -0.0834 -0.2735 -0.2400
15414PP      PP25518  15.324  12.979   9.911 -0.0569 -0.1192 -0.1510
15415PP      PP25519  15.642  10.454   0.742  0.2883  0.0324  0.0870
15416PP      PP25520   4.598  14.126   1.507  0.3253 -0.0768 -0.3346
15417PP      PP25521   4.207   6.761  11.594 -0.0078  0.0766 -0.0188
15418PP      PP25522  14.884  10.565   1.773  0.0201 -0.1379  0.0848
15419PP      PP25523   9.945   3.010   2.589  0.0664 -0.0083 -0.5134
15420PP      PP25524   2.761  12.081   4.206  0.0373 -0.0206 -0.0225
15421PP      PP25525   0.887  10.897  12.215 -0.0215  0.0011 -0.0256
15422PP      PP25526   1.464   1.208   2.217 -0.0541  0.2718  0.0723
15423PP      PP25527  14.448   4.761  10.247  0.1852 -0.1111 -0.0123
15424PP      PP25528  14.737  15.767   2.054  0.2758  0.0749  0.0995
15425PP      PP25529  15.365   0.110   1.543  0.0768 -0.0737  0.1481
15426PP      PP25530  12.503   2.958   4.301  0.0761  0.0700 -0.1154
15427PP      PP25531   9.622   5.896   3.294 -0.0939 -0.0229 -0.3076
15428PP      PP25532  10.709  12.151   8.954  0.2408  0.0684  0.1490
15429PP      PP25533   1.003   4.443  13.395  0.0906 -0.2126  0.0120
15430PP      PP25534   6.173  10.416   2.231 -0.3790  0.2502  0.1965
15431PP      PP25535  11.313  11.825   9.464 -0.0789 -0.0069  0.2279
15432PP      PP25536  12.003   9.270   3.288 -0.0319  0.1140 -0.2368
15433PP      PP25537   7.209   8.524   9.457  0.0675  0.1668 -0.1952
15434PP      PP25538  15.133   9.550  11.062  0.0679 -0.0964  0.1591
15435PP      PP25539   0.056  14.933   3.172 -0.0726 -0.0879 -0.0839
15436PP      PP25540   0.650  15.198   1.175 -0.1090  0.1965  0.0767
15437PP      PP25541  15.099   1.306   0.457  0.0557 -0.0230  0.0869
15438PP      PP25542  11.871  11.820  13.218 -0.5290 -0.3357 -0.2720
15439PP      PP25543  14.231   4.922   2.735  0.1732  0.0828  0.1248
15440PP      PP25544   5.940   4.669   1.273 -0.1277 -0.0213 -0.0833
15441PP      PP25545   8.868  15.261  10.879 -0.0314 -0.3123 -0.1170
15442PP      PP25546   4.496   4.717   2.631  0.1703  0.1739 -0.1615
15443PP      PP25547  13.901  14.289  10.514 -0.1174  0.3181  0.1711
15444PP      PP25548  15.143  11.218  13.118  0.2322 -0.0380 -0.0851
15445PP      PP25549  11.154  15.192  11.244 -0.2756  0.0556  0.0294
15446PP      PP25550   6.401  15.092   8.976  0.1123 -0.1139 -0.1715
15447PP      PP25551  14.515   6.034   9.609  0.0725  0.0529 -0.1678
15448PP      PP25552   8.522   8.977  11.924  0.2389  0.1429  0.1050
15449PP      PP25553   1.061  11.831   2.055 -0.0771  0.0758  0.0891
15450PP      PP25554  14.244   4.800   9.270  0.1924 -0.4665 -0.1369
15451PP      PP25555   0.293  10.722   2.096 -0.1840  0.2068  0.0213
15452PP      PP25556   2.044   0.097  11.236  0.1322  0.0951 -0.0575
15453PP      PP25557   5.528  11.817   1.934 -0.3872 -0.2634  0.0343
15454PP      PP25558   4.555  13.720   0.013  0.3015  0.0106 -0.0799
15455PP      PP25559  11.718  12.144   1.307 -0.0088 -0.2889 -0.1679
15456PP      PP25560  15.434   0.644  11.353 -0.1236 -0.0194 -0.1153
15457PP      PP25561   5.819   5.973   9.922 -0.2245 -0.0018 -0.1905
15458PP      PP25562   3.017  13.196   0.426 -0.0365  0.4075 -0.0024
15459PP      PP25563   0.478  12.989   0.393 -0.3319  0.1967  0.1544
15460PP      PP25564  12.635   2.019  10.822  0.1454 -0.0970 -0.0964
15461PP      PP25565  11.465  12.723   4.421  0.0552 -0.3247 -0.0262
15462PP      PP25566  13.304  12.499  10.711 -0.0327  0.3102  0.1869
15463PP      PP25567  15.425   0.545   3.160  0.2784 -0.1554  0.0793
15464PP      PP25568  13.083  14.152  11.286 -0.0303 -0.2985 -0.5608
15465PP      PP25569  10.571  11.001   3.855 -0.1664 -0.0699  0.1589
15466PP      PP25570   4.710   9.572   4.541 -0.1008 -0.2052  0.2375
15467PP      PP25571   9.476   3.175  10.079 -0.0126  0.0844 -0.0900
15468PP      PP25572   3.761   7.633  12.411  0.0165  0.0216  0.0806
15469PP      PP25573   4.535  15.706  13.324  0.0252  0.1727 -0.2880
15470PP      PP25574  10.795   4.781  10.151 -0.1399  0.1495  0.0370
15471PP      PP25575   7.722   5.483   2.122 -0.2113  0.1884  0.0352
15472PP      PP25576   1.844   4.730   0.666 -0.1903  0.1796 -0.0202
15473PP      PP25577   3.784   0.724   3.288  0.0901  0.1528  0.1293
15474PP      PP25578   5.040   0.038  11.711 -0.1650 -0.2301  0.2735
15475PP      PP25579   3.808  10.890   9.569  0.3086 -0.3002  0.0049
15476PP      PP25580  10.835   0.998  12.060 -0.3423 -0.0380  0.0507
15477PP      PP25581  14.363   2.216   9.166 -0.0597 -0.0292 -0.1933
15478PP      PP25582   1.581  14.721   8.975 -0.1323 -0.0416  0.0390
15479PP      PP25583   9.169   3.314  13.231  0.1715 -0.0708  0.3210
15480PP      PP25584   4.125  13.948  12.745  0.1117 -0.1584  0.0868
15481PP      PP25585   5.519  10.634   8.972 -0.0079  0.3461  0.0229
15482PP      PP25586   6.080  14.734   0.003 -0.2113 -0.1181 -0.1714
15483PP      PP25587   3.274  14.192   9.738  0.0998 -0.1199 -0.0196
15484PP      PP25588   5.197   2.105   1.895 -0.0613 -0.0010 -0.0833
15485PP      PP25589   3.132  14.374   2.701 -0.1573  0.0352 -0.1721
15486PP      PP25590   5.937  11.003  12.916 -0.0803  0.4845 -0.2954
15487PP      PP25591  14.658  15.148   2.002  0.2731 -0.0270 -0.1506
15488PP      PP25592   9.798   9.782   0.362  0.0164 -0.1447  0.6698
15489PP      PP25593   9.729  14.186  10.964 -0.0640  0.0990 -0.1479
15490PP      PP25594   6.817   9.515   1.743  0.0058  0.2004 -0.1264
15491PP      PP25595   0.017   4.049  11.718 -0.2191  0.0450 -0.0278
15492PP      PP25596   9.527   1.486   4.158  0.0164  0.0864  0.0778
15493PP      PP25597   9.934  15.857   3.064 -0.0404  0.0489  0.0574
15494PP      PP25598   0.554   8.056   0.320 -0.1792  0.0510  0.1909
15495PP      PP25599   2.127   6.467   0.751  0.2871 -0.2098 -0.2917
15496PP      PP25600  11.602   5.198   8.701  0.2064 -0.0305 -0.0060
15497PP      PP25601   0.522   2.591   8.890  0.2373 -0.0835 -0.0368
15498PP      PP25602   8.933   8.324   2.034  0.1483  0.0726 -0.0550
15499PP      PP25603  13.258  10.421   2.979 -0.2445 -0.0947  0.3244
15500PP      PP25604  15.794  14.739   0.238  0.0758  0.0975  0.1344
15501PP      PP25605   7.783   2.396   2.455  0.1355  0.1007 -0.0983
15502PP      PP25606  14.951  11.272   9.686  0.0003 -0.1224  0.1106
15503PP      PP25607   8.929  14.372  12.085  0.2420  0.2862 -0.2128
15504PP      PP25608   7.446   4.022   8.583 -0.1474  0.1701  0.0753
15505PP      PP25609   3.149  12.822  10.557 -0.1684  0.2013  0.1266
15506PP      PP25610  11.160   4.415   0.723  0.2383  0.1130  0.0533
15507PP      PP25611  13.992  11.960  10.478 -0.0708  0.1952 -0.1112
15508PP      PP25612   7.074  14.092   0.375 -0.2004 -0.0020  0.0459
15509PP      PP25613   9.763   5.737   9.881 -0.4029 -0.0132  0.2587
15510PP      PP25614   7.399   8.498   0.952  0.3221  0.0370 -0.1078
15511PP      PP25615   8.583   8.076  10.752  0.1570  0.3930 -0.0438
15512PP      PP25616  14.053   6.554   2.398  0.1039 -0.2178 -0.2095
15513PP      PP25617  12.102   6.334   9.184  0.1134  0.0075 -0.0990
15514PP      PP25618   3.255   2.657   0.023  0.4194  0.5640  0.0433
15515PP      PP25619   7.338  15.603   3.172  0.0318  0.0533 -0.2062
15516PP      PP25620   7.029   4.730   8.776 -0.3004 -0.1447 -0.0967
15517PP      PP25621   1.695  12.805   0.926  0.1046  0.1852  0.0198
15518PP      PP25622  13.979   5.534   8.278  0.2706 -0.2314 -0.2385
15519PP      PP25623   4.835  15.235  10.071  0.0515  0.1595 -0.0500
15520PP      PP25624   2.349   6.791  10.416  0.2177 -0.3944  0.0694
15521PP      PP25625   1.905   1.658   3.498  0.0808 -0.0604 -0.1467
15522PP      PP25626   5.156  10.273   3.775 -0.0200 -0.2186  0.1550
15523PP      PP25627  13.092   5.120  12.676  0.0118 -0.1116 -0.3413
15524PP      PP25628   9.428   2.879   1.078  0.1493 -0.3120 -0.0218
15525PP      PP25629   0.861   2.504  12.642  0.1477  0.2089 -0.0776
15526PP      PP25630   5.816  14.504   1.593  0.3074 -0.0373 -0.0940
15527PP      PP25631   5.144   1.719  10.903 -0.0688 -0.0287  0.2584
15528PP      PP25632   8.573   1.260   3.261  0.0641  0.0756  0.0257
15529PP      PP25633   8.735   9.046   1.632 -0.2246  0.1167  0.3083
15530PP      PP25634   4.097   4.263   4.145  0.2696  0.3408 -0.0173
15531PP      PP25635  14.118  13.546   0.273  0.1422  0.2018 -0.0815
15532PP      PP25636  13.012  14.750   9.749 -0.1746  0.1692  0.1490
15533PP      PP25637  11.331   7.044   2.852  0.0599  0.0264  0.1288
15534PP      PP25638   4.253  10.399  12.567  0.2372 -0.0648  0.4012
15535PP      PP25639   2.376   0.984   0.050 -0.0806 -0.1908  0.2025
15536PP      PP25640   3.891  12.130  12.931  0.0370 -0.1168 -0.1907
15537PP      PP25641   3.823   7.542   4.924  0.1995 -0.2282  0.2285
15538PP      PP25642   8.960   4.812  11.751 -0.0872 -0.2110  0.0536
15539PP      PP25643  12.579   9.006   3.423 -0.0244 -0.0071 -0.1147
15540PP      PP25644   4.168   5.937  11.507  0.0241 -0.2534 -0.0633
15541PP      PP25645   3.004   0.844  13.270  0.0324 -0.0671  0.1382
15542PP      PP25646  11.292   7.464   2.559 -0.1766  0.1790  0.0281
15543PP      PP25647   0.057  10.458  11.929 -0.0280  0.0328 -0.0501
15544PP      PP25648   0.532  13.043   1.489  0.1414  0.0967 -0.3112
15545PP      PP25649   5.575   7.699   9.464 -0.0762 -0.0432 -0.0366
15546PP      PP25650   0.014   2.556  11.328 -0.1277 -0.1418  0.0551
15547PP      PP25651  15.745   5.316  12.839 -0.0331 -0.0435 -0.1583
15548PP      PP25652  11.737   6.282   1.128  0.0605  0.0117  0.1556
15549PP      PP25653   2.953  15.483  10.625  0.2078  0.3516  0.2115
15550PP      PP25654  12.871   3.152   0.792  0.1017  0.0925  0.1744
15551PP      PP25655   8.924   0.887   2.010 -0.1761 -0.5797  0.0931
15552PP      PP25656   1.630   7.165  11.071 -0.2738 -0.0382 -0.1248
15553PP      PP25657  14.082   6.737   1.850  0.0705  0.3383 -0.0368
15554PP      PP25658   7.064  15.554   2.378  0.1278  0.3697  0.1529
15555PP      PP25659   6.216  14.820  12.713 -0.6022  0.0448  0.1809
15556PP      PP25660   4.511   3.859   3.029 -0.1793 -0.0581  0.0817
15557PP      PP25661   1.610  12.138   9.871  0.0508 -0.0805  0.1393
15558PP      PP25662   4.088  10.399  11.782  0.0234  0.0612  0.2015
15559PP      PP25663   5.272  12.392  10.192  0.2866 -0.0264  0.3430
15560PP      PP25664   2.335  13.372  12.971 -0.0028  0.0541 -0.1121
15561PP      PP25665  12.329   9.984   4.112  0.2383  0.0832  0.1019
15562PP      PP25666  12.466  13.601  10.643 -0.1758  0.3144  0.0961
15563PP      PP25667   5.550   0.659  11.780 -0.0992  0.2245 -0.1322
15564PP      PP25668  12.127   1.080   1.923  0.4048 -0.0026 -0.1189
15565PP      PP25669   0.447   8.546   1.635  0.2329  0.0524  0.1972
15566PP      PP25670   0.882  12.831  12.431  0.1951 -0.0457 -0.0679
15567PP      PP25671  13.537   0.358   9.856  0.0219 -0.1437 -0.1477
15568PP      PP25672   8.847   2.377   3.414  0.0235  0.1118 -0.1341
15569PP      PP25673   0.694  15.927  10.787 -0.3840  0.0543 -0.0475
15570PP      PP25674   3.093  14.411   0.695  0.2769 -0.0092 -0.0324
15571PP      PP25675   0.032   0.296   9.729  0.0483 -0.1366  0.0286
15572PP      PP25676   8.681   2.335   0.649  0.1802  0.0911 -0.0875
15573PP      PP25677   3.261   2.146  11.787 -0.0737 -0.0565  0.1559
15574PP      PP25678   4.589  12.222  11.708  0.0109 -0.0974  0.1446
15575PP      PP25679  14.961  12.753  11.862  0.1212 -0.0114  0.0170
15576PP      PP25680   1.569   7.047   3.440  0.2999  0.0292  0.1882
15577PP      PP25681  11.429   9.761   1.711  0.2197  0.1402  0.2013
15578PP      PP25682   4.102   0.272   0.012 -0.0873 -0.0505 -0.2859
15579PP      PP25683  11.985   6.051  10.934 -0.0424  0.3156 -0.1172
15580PP      PP25684   1.968  14.160   0.141  0.4483 -0.0133  0.0534
15581PP      PP25685   3.024  13.490   8.602  0.0114 -0.1334 -0.0702
15582PP      PP25686   3.520   5.338   8.646 -0.0481  0.0184  0.0144
15583PP      PP25687   1.759   5.928   9.252  0.0745 -0.1863 -0.1124
15584PP      PP25688  13.975   6.536   0.302 -0.2319 -0.2669 -0.2718
15585PP      PP25689   9.079  10.045  12.907 -0.1475  0.0912 -0.0217
15586PP      PP25690  15.024   1.685   1.135  0.1617 -0.0200 -0.0642
15587PP      PP25691   6.213  10.197  11.330 -0.1912 -0.2738  0.0465
15588PP      PP25692  10.876  13.070   9.678 -0.0755  0.0920  0.3223
15589PP      PP25693   8.250   8.118  11.713 -0.1475 -0.1996 -0.2685
15590PP      PP25694  10.452   8.076   1.229 -0.2163  0.1206  0.0061
15591PP      PP25695  11.082  15.864   3.826  0.0224  0.1362  0.0544
15592PP      PP25696  14.639  13.455   0.305 -0.3606 -0.0841  0.0840
15593PP      PP25697   6.136   4.690   2.660 -0.3254 -0.1174 -0.1335
15594PP      PP25698   1.421  14.830   0.973 -0.1111  0.1572 -0.3359
15595PP      PP25699  14.089  14.015   2.621 -0.0015 -0.2060 -0.1607
15596PP      PP25700  11.722   8.790  10.034  0.0523 -0.3173 -0.1698
15597PP      PP25701  11.591   1.536   1.356  0.2344 -0.2939 -0.2033
15598PP      PP25702   7.805  14.189   1.006 -0.1491 -0.0438  0.5386
15599PP      PP25703   4.261  13.521   8.007 -0.1000  0.1925 -0.0631
15600PP      PP25704   3.932   7.542   1.295  0.1141  0.2298  0.0840
15601PP      PP25705   8.653   8.456   2.440  0.1307  0.1335  0.2853
15602PP      PP25706   0.477   7.926   2.760 -0.1299 -0.0400 -0.0676
15603PP      PP25707   7.221   0.137   1.444 -0.0498  0.1299  0.0493
15604PP      PP25708   3.557   3.737  10.993  0.0579  0.0990  0.0578
15605PP      PP25709   9.425  13.291  13.089 -0.0706 -0.3263 -0.0668
15606PP      PP25710  10.254   1.797  12.889 -0.1186 -0.0315  0.2662
15607PP      PP25711   2.883   6.045  10.595  0.1003 -0.0150  0.1832
15608PP      PP25712  11.707  11.747  11.084 -0.4301  0.1605  0.2704
15609PP      PP25713   5.516  10.951   9.416  0.0464 -0.3702 -0.2283
15610PP      PP25714  15.379   4.090   2.784  0.3038 -0.1361  0.3786
15611PP      PP25715   4.101  12.714   2.895 -0.1160 -0.1536  0.0669
15612PP      PP25716   3.248   9.874   2.632  0.1200  0.2014 -0.2540
15613PP      PP25717   5.270   0.867  10.117  0.2258 -0.0718  0.1166
15614PP      PP25718  14.014   9.633   1.680 -0.2414  0.1246  0.0210
15615PP      PP25719   6.700   9.921   0.140 -0.1836 -0.1876  0.0802
15616PP      PP25720   4.127   2.931   2.552  0.0029 -0.0874  0.1440
15617PP      PP25721  12.450   9.276  12.228 -0.1862 -0.0481  0.1516
15618PP      PP25722   1.217  15.048  12.372  0.0707 -0.2689  0.2622
15619PP      PP25723   1.304   5.988  11.588  0.3562  0.4031 -0.0676
15620PP      PP25724  15.376  10.877   1.899 -0.1973  0.2323 -0.0360
15621PP      PP25725  15.557   5.652   1.197 -0.1143  0.2656  0.2106
15622PP      PP25726   5.900   8.603   9.851  0.1519  0.0211  0.0629
15623PP      PP25727   5.957   5.842  12.910  0.0836 -0.0759 -0.2217
15624PP      PP25728   4.348   4.978   2.136 -0.0216  0.1883 -0.3631
15625PP      PP25729  14.185  11.653   2.605  0.0313 -0.2068  0.2989
15626PP      PP25730   8.183   9.276  10.818  0.3078  0.1598  0.3068
15627PP      PP25731  13.159   1.139   1.650  0.1457 -0.2234  0.0126
15628PP      PP25732   6.392  13.497   0.874 -0.1995 -0.0592 -0.0332
15629PP      PP25733   4.439   4.447  12.002 -0.1648  0.1305 -0.2093
15630PP      PP25734   4.598   7.534  12.566  0.0286  0.0854  0.2524
15631PP      PP25735   1.101   6.700   9.047  0.0873  0.1234 -0.2353
15632PP      PP25736   8.203  14.153  12.730 -0.0529  0.0177 -0.0075
15633PP      PP25737   0.920   2.665   0.284 -0.0961 -0.0470  0.0411
15634PP      PP25738   8.218   1.089   9.086  0.0945  0.0608  0.0590
15635PP      PP25739   7.373  13.227  11.036 -0.1863  0.2462 -0.1018
15636PP      PP25740  11.232  14.615   4.343  0.0391 -0.1283  0.2336
15637PP      PP25741   9.787   0.910   3.504  0.1007 -0.0857 -0.1348
15638PP      PP25742   4.851   6.077  12.469 -0.0624  0.1078 -0.0924
15639PP      PP25743   7.784   6.331  10.313 -0.0016 -0.1413 -0.0884
15640PP      PP25744   8.364   3.167   1.699  0.2885 -0.0995 -0.0554
15641PP      PP25745  13.008   7.398  10.806 -0.0955  0.0687 -0.2274
15642PP      PP25746   6.693   7.311  11.840  0.0033 -0.1778  0.0121
15643PP      PP25747   7.811   6.200   1.491 -0.2419 -0.1002  0.0443
15644PP      PP25748   6.454  15.849   8.583 -0.4199  0.0449 -0.1901
15645PP      PP25749   1.411  11.517  11.969  0.3237 -0.3008 -0.2450
15646PP      PP25750   6.759  10.672   2.703 -0.0225 -0.1062 -0.0836
15647PP      PP25751  14.230  13.034   9.277 -0.1681 -0.1992 -0.1734
15648PP      PP25752  12.837   9.847   4.066 -0.2005  0.1049  0.4953
15649PP      PP25753   9.287  14.051  11.020 -0.0574 -0.0769 -0.2907
15650PP      PP25754  14.675   0.401  12.090  0.2827 -0.0919  0.0459
15651PP      PP25755   0.824  15.312  12.531 -0.0633  0.1249 -0.4058
15652PP      PP25756   7.545  10.875  11.107 -0.3467 -0.0814 -0.1474
15653PP      PP25757   5.867   8.313   0.001  0.0236  0.2425 -0.2652
15654PP      PP25758  12.788   3.686   2.603  0.1860 -0.1960  0.1616
15655PP      PP25759  13.217   4.265  11.994  0.1442  0.0553 -0.0315
15656PP      PP25760   1.375  12.409  10.443 -0.2630  0.1890  0.1072
15657PP      PP25761   4.776   5.933   1.182 -0.2381  0.1757 -0.2370
15658PP      PP25762   7.306   2.842   1.086 -0.2414  0.0249 -0.2543
15659PP      PP25763   6.178   6.790  13.253 -0.0137 -0.3699  0.0637
15660PP      PP25764   5.650  15.571   0.972  0.0180 -0.1999 -0.1518
15661PP      PP25765   2.849  14.816   3.634  0.0404 -0.2567 -0.0482
15662PP      PP25766  13.132  15.295   9.603 -0.3209 -0.1577  0.1364
15663PP      PP25767   6.988   0.379   1.865 -0.1109  0.1228  0.1475
15664PP      PP25768  10.848  13.361  11.543  0.2458  0.1275  0.1065
15665PP      PP25769  14.157   0.098   9.980  0.0867 -0.0877 -0.0580
15666PP      PP25770   1.190  14.483   2.083  0.0995 -0.0931 -0.1759
15667PP      PP25771   0.296   4.854   9.215  0.1789 -0.1547  0.0746
15668PP      PP25772   3.425   2.608   0.875  0.0664 -0.2088  0.0140
15669PP      PP25773   2.765  13.024   8.259 -0.1036 -0.0663 -0.0450
15670PP      PP25774   0.744  14.073   8.436 -0.0620  0.0388 -0.2647
15671PP      PP25775   0.829  11.186   1.266 -0.2768  0.0903 -0.1193
15672PP      PP25776   3.801  14.956   2.173  0.0925  0.1525  0.3945
15673PP      PP25777   5.746  13.149  10.444  0.3496  0.0273  0.1573
15674PP      PP25778   3.533  13.193   7.385  0.1918  0.0730  0.2763
15675PP      PP25779   3.196  12.926   2.682  0.0057  0.0896 -0.0674
15676PP      PP25780   5.686  13.979   0.978  0.0884 -0.0152  0.2729
15677PP      PP25781  15.801  10.900   2.210 -0.2715  0.0428  0.2554
15678PP      PP25782   1.804   9.748   2.946  0.0846 -0.0136 -0.1553
15679PP      PP25783  13.301   4.899   4.126 -0.3076 -0.3948  0.0460
15680PP      PP25784   3.045   2.481  11.449 -0.0455  0.0911  0.0545
15681PP      PP25785  11.046  15.619   2.888  0.0204  0.1807  0.2134
15682PP      PP25786  12.190   6.359   0.474 -0.1291 -0.3216  0.2938
15683PP      PP25787   2.230  14.401   1.321 -0.2025 -0.0646  0.1530
15684PP      PP25788   9.356   0.822  12.498 -0.1627  0.2474  0.0875
15685PP      PP25789   2.816  12.907  10.034 -0.0443  0.0971  0.2818
15686PP      PP25790   2.238   8.020   0.103 -0.0170 -0.2491 -0.1901
15687PP      PP25791   7.549   6.139   9.784 -0.4708 -0.0432  0.0004
15688PP      PP25792   1.383   8.787   3.076 -0.1970 -0.1769  0.3346
15689PP      PP25793   6.655  14.651   2.271 -0.0686  0.2172 -0.0291
15690PP      PP25794   2.970   0.040   8.611 -0.1833 -0.1138 -0.2605
15691PP      PP25795  14.885   0.547  12.549 -0.3856 -0.2011 -0.2831
15692PP      PP25796   9.661   2.431   9.653  0.1398 -0.0757 -0.3229
15693PP      PP25797  15.643  15.250   2.913  0.0344  0.3093  0.0277
15694PP      PP25798  10.533   6.744   2.522 -0.0776  0.0789 -0.0454
15695PP      PP25799   0.370   1.537   2.953 -0.2368 -0.0930 -0.0404
15696PP      PP25800   3.442   2.615  11.822 -0.0429  0.2937  0.5070
15697PP      PP25801  14.993  13.451   3.554 -0.1143 -0.3940  0.0620
15698PP      PP25802   2.321   5.363   9.579 -0.0883 -0.1071  0.2191
15699PP      PP25803  10.499  10.868   0.109  0.1623 -0.2050  0.1390
15700PP      PP25804  13.945   1.747  10.457 -0.0504 -0.0203  0.0248
15701PP      PP25805  13.341  15.850   3.591  0.0561  0.2200 -0.0963
15702PP      PP25806   5.994   9.261  12.884  0.0685 -0.1019  0.1004
15703PP      PP25807   3.569  12.382   3.895 -0.0133 -0.2856  0.0990
15704PP      PP25808   0.994  15.724   3.910 -0.0789  0.1543 -0.1212
15705PP      PP25809  12.634  12.327  10.066 -0.0321 -0.2066  0.1344
15706PP      PP25810   7.773  14.102   1.500  0.0010 -0.0001  0.1035
15707PP      PP25811   4.945   3.155  12.019  0.0715  0.2105  0.1544
15708PP      PP25812   9.642  14.485   3.604 -0.0022 -0.1170 -0.1203
15709PP      PP25813   0.817   7.873  10.055  0.1011 -0.1680 -0.0928
15710PP      PP25814   1.153  11.029   8.447 -0.0479 -0.4362  0.1491
15711PP      PP25815   6.987  12.655   1.144  0.0555 -0.0125  0.3592
15712PP      PP25816   4.899   6.739   2.058 -0.3407 -0.1420  0.1520
15713PP      PP25817   7.875   4.338  10.479 -0.2564 -0.1647 -0.1932
15714PP      PP25818   5.575   7.322   9.779 -0.0722 -0.1268  0.1267
15715PP      PP25819   4.781  13.091   9.208 -0.2614  0.2059 -0.1373
15716PP      PP25820   4.720  14.422   0.687 -0.2965  0.2208  0.0405
15717PP      PP25821   3.788   5.611   2.498 -0.1113  0.0692 -0.0008
15718PP      PP25822   9.251   0.247   0.387  0.0549  0.0120  0.1078
15719PP      PP25823  10.546  11.102   1.189 -0.2680  0.0408  0.3089
15720PP      PP25824   1.770  14.074  10.593 -0.1021  0.2694 -0.2871
15721PP      PP25825  11.999   2.472  11.589 -0.0620  0.1707 -0.1615
15722PP      PP25826  13.809   6.571   8.983  0.0056 -0.2003 -0.2106
15723PP      PP25827   9.184  10.145   1.624  0.1759  0.1553  0.3263
15724PP      PP25828   5.608  12.680  12.826  0.1440 -0.2386 -0.2694
15725PP      PP25829   9.382  12.184  12.491 -0.1228  0.0826  0.2290
15726PP      PP25830  12.196   9.028  13.261 -0.1235  0.1785  0.0583
15727PP      PP25831   8.069   4.476  13.089  0.2517  0.0409  0.1142
15728PP      PP25832   1.314   2.434  12.329 -0.2246 -0.0221 -0.0626
15729PP      PP25833  14.307   0.652   3.326 -0.0627  0.1170  0.3956
15730PP      PP25834  11.634   7.980  10.428 -0.0716  0.0747  0.0931
15731PP      PP25835  13.093  10.737  12.158 -0.0985  0.0947 -0.0513
15732PP      PP25836  10.787  14.309   0.584  0.0016 -0.0234  0.3386
15733PP      PP25837   4.039   1.456   8.456 -0.0116 -0.1742 -0.0612
15734PP      PP25838  14.370   7.289  10.222 -0.1518 -0.0300 -0.0214
15735PP      PP25839  12.575   0.610  10.883  0.1730  0.4710 -0.0459
15736PP      PP25840   1.901   2.189   0.268 -0.2996 -0.2444 -0.2341
15737PP      PP25841   0.103   9.903   9.435 -0.0220  0.2627  0.0973
15738PP      PP25842  13.059  14.404   3.035  0.1611 -0.3437  0.1577
15739PP      PP25843   5.008   6.022   3.406 -0.0520 -0.0447 -0.1258
15740PP      PP25844  14.894   9.736   4.256  0.4086 -0.0517 -0.1765
15741PP      PP25845   6.627   7.261   0.516  0.0154  0.2423  0.2245
15742PP      PP25846   9.418   8.573  12.256 -0.2538  0.1354  0.1006
15743PP      PP25847  11.473   6.249   9.513  0.0171  0.0944  0.1817
15744PP      PP25848  13.885   5.663   0.199 -0.2474 -0.2386 -0.2310
15745PP      PP25849   6.716   0.806   1.848  0.0651 -0.0736  0.2846
15746PP      PP25850   7.728   5.909   3.806 -0.1715  0.3114 -0.0057
15747PP      PP25851   5.609   4.040   3.185 -0.1697  0.2213 -0.0913
15748PP      PP25852   6.899   5.348   4.633  0.0201 -0.1593  0.0979
15749PP      PP25853  11.684  12.429   1.839 -0.0936 -0.2843 -0.1322
15750PP      PP25854   5.571   7.211  10.362 -0.1811 -0.0402 -0.2171
15751PP      PP25855   9.078   4.776   2.029  0.2506  0.1279  0.1119
15752PP      PP25856  11.090   2.181   2.142 -0.0963 -0.1692  0.1864
15753PP      PP25857   7.332   0.732   0.054 -0.0850 -0.3620  0.2127
15754PP      PP25858   1.354  11.499   0.483 -0.0359 -0.1892  0.1064
15755PP      PP25859  10.228   5.211   1.553 -0.0201  0.3092 -0.1354
15756PP      PP25860  10.535   4.695   9.197  0.0226  0.0828  0.1716
15757PP      PP25861   9.168  15.483   9.842  0.1482 -0.1002  0.1521
15758PP      PP25862   3.271  15.589   0.608  0.0047  0.1160 -0.0854
15759PP      PP25863   6.931   1.572  13.256  0.0271  0.1310 -0.3379
15760PP      PP25864  10.802  13.549  12.404 -0.1809 -0.2780 -0.4303
15761PP      PP25865   0.558  15.610   9.362  0.2068  0.0102 -0.0351
15762PP      PP25866   4.293  13.828  11.570 -0.0660  0.1996  0.2753
15763PP      PP25867   2.314   4.411  13.124  0.1204  0.1825 -0.1914
15764PP      PP25868  12.874   3.653  10.614  0.2106  0.0412  0.1032
15765PP      PP25869  11.106   7.523   0.554  0.2215  0.0455  0.3175
15766PP      PP25870  13.260  13.031   1.565 -0.1816  0.0412 -0.3167
15767PP      PP25871  14.965   2.963  13.122  0.1571 -0.2129  0.3543
15768PP      PP25872  14.674   0.507   2.593 -0.2106  0.2067  0.0798
15769PP      PP25873   2.915   2.143   3.218 -0.1888  0.1639 -0.0582
15770PP      PP25874   2.920  14.447  11.558  0.1688 -0.3118  0.0599
15771PP      PP25875  12.846  10.902   1.831 -0.0895 -0.1467  0.3002
15772PP      PP25876  12.115   2.038  11.790  0.2613 -0.3295  0.1365
15773PP      PP25877  13.594  13.346   1.801  0.0285 -0.2937 -0.1210
15774PP      PP25878   1.687   3.184   9.040  0.2883  0.2076  0.0390
15775PP      PP25879   5.750   0.035  11.733  0.0847 -0.1973  0.1386
15776PP      PP25880   8.257   3.277  12.183  0.0141  0.1511  0.1140
15777PP      PP25881  15.052  14.133  13.335  0.2325 -0.2638  0.3353
15778PP      PP25882   9.305  15.264  12.786 -0.3486  0.1053 -0.1725
15779PP      PP25883   1.798   5.720   3.346 -0.0417  0.0682  0.1404
15780PP      PP25884   5.412   5.836  11.993  0.2944  0.0631  0.3466
15781PP      PP25885  10.039  13.283   4.033  0.2625  0.2543 -0.4595
15782PP      PP25886   9.542   8.628  12.783  0.0065 -0.1253  0.1409
15783PP      PP25887   2.364   8.903   1.083  0.0988 -0.1366 -0.2482
15784PP      PP25888  13.501  13.254   2.773 -0.0472 -0.1250 -0.0696
15785PP      PP25889  15.018   3.455   0.353  0.1406 -0.0432 -0.0486
15786PP      PP25890   3.967   6.019  13.349  0.0413 -0.2831 -0.0028
15787PP      PP25891  11.155  13.425  11.941  0.2100 -0.0711 -0.0762
15788PP      PP25892  10.934  10.882  11.616 -0.0434  0.0297 -0.0725
15789PP      PP25893   3.196  11.532   2.170 -0.0441  0.2467  0.0312
15790PP      PP25894   5.303   5.071   4.779 -0.1337  0.1783 -0.2541
15791PP      PP25895   5.185   8.836   1.694  0.0912  0.0452  0.1233
15792PP      PP25896   0.013   4.783   3.207 -0.2121  0.0781  0.1118
15793PP      PP25897   0.933  13.328   1.753 -0.3301  0.0734 -0.0654
15794PP      PP25898   4.260   0.457   9.307  0.1672  0.0637  0.2986
15795PP      PP25899  13.222  15.387   1.879  0.2250  0.0451  0.0566
15796PP      PP25900   6.437  10.595   0.269  0.0263 -0.1986  0.0079
15797PP      PP25901   9.045  11.911   3.611  0.0654  0.3366 -0.0520
15798PP      PP25902   9.955   3.117   9.916 -0.1658  0.1769 -0.1379
15799PP      PP25903   5.900   9.070   0.789 -0.1452  0.1031 -0.0943
15800PP      PP25904   6.493   3.710   3.386  0.4278  0.1091 -0.0397
15801PP      PP25905   7.716  13.042  11.314 -0.0166  0.1417 -0.0812
15802PP      PP25906  10.839   5.066   9.187 -0.3096  0.0338  0.0360
15803PP      PP25907   3.907   7.152   0.467  0.0279 -0.0930  0.0086
15804PP      PP25908  14.679   0.989   2.684 -0.0978  0.2351  0.0075
15805PP      PP25909   7.399  12.509  11.332 -0.3075  0.3453  0.4663
15806PP      PP25910   7.410   5.788  10.093  0.0991  0.1096  0.3533
15807PP      PP25911  13.768   0.073  11.335 -0.3030  0.1142  0.1847
15808PP      PP25912   5.944   7.009  10.715 -0.3873 -0.0144  0.1443
15809PP      PP25913  14.983   8.566  10.355  0.1034 -0.2050  0.3139
15810PP      PP25914   5.987   3.907  12.695 -0.0824 -0.3891 -0.0129
15811PP      PP25915  10.281   1.818   0.981  0.1968 -0.0012  0.1470
15812PP      PP25916   6.400   7.651  10.013 -0.1559  0.0347  0.3674
15813PP      PP25917   0.711  12.894  11.045 -0.0240  0.1050  0.2708
15814PP      PP25918  14.103  13.885  10.909 -0.1136 -0.0396  0.0794
15815PP      PP25919   1.516  12.258  12.251 -0.1357 -0.0918  0.0806
15816PP      PP25920  11.436   5.209  12.670  0.0204 -0.2888 -0.1977
15817PP      PP25921  12.524  11.396  12.679  0.0760  0.0986 -0.2065
15818PP      PP25922   6.640   6.838   4.680 -0.2682  0.3269  0.0784
15819PP      PP25923  15.086  14.019   2.008  0.1748  0.1823  0.1773
15820PP      PP25924   5.962  15.503   2.984 -0.0180 -0.0448  0.1947
15821PP      PP25925   6.425  15.223   1.989  0.1425  0.0003  0.4201
15822PP      PP25926   1.065   7.333   0.016  0.1562 -0.3687  0.2179
15823PP      PP25927   6.668  13.384   3.891  0.4025 -0.1457 -0.0140
15824PP      PP25928  12.608   8.296   1.423  0.0649  0.0058 -0.0523
15825PP      PP25929   5.708  14.109   9.915  0.1156 -0.1616 -0.1328
15826PP      PP25930   5.915  13.262   0.033 -0.0928  0.1233 -0.0903
15827PP      PP25931   8.425   5.272   2.872  0.0590  0.1668 -0.1072
15828PP      PP25932   0.242  11.042  10.793  0.0158 -0.1999  0.2304
15829PP      PP25933   0.735  11.071   9.251  0.0472  0.0873  0.2040
15830PP      PP25934   7.061   5.710   3.648  0.0202  0.2343 -0.1148
15831PP      PP25935   5.218   7.619  12.547 -0.0701 -0.1659 -0.1655
15832PP      PP25936   5.291  12.873  10.264 -0.0961  0.0072  0.3004
15833PP      PP25937  11.833   6.279   2.380  0.1223 -0.1410  0.0990
15834PP      PP25938  13.621  14.995  12.888  0.1560 -0.0746 -0.2976
15835PP      PP25939   4.647  11.385   1.666  0.3956 -0.0502 -0.0580
15836PP      PP25940  10.481   3.729   1.601  0.0812  0.3032 -0.2821
15837PP      PP25941  15.772  14.256  10.578  0.1574 -0.0163 -0.1868
15838PP      PP25942   2.277  14.425   2.253 -0.2603  0.2951 -0.0288
15839PP      PP25943  15.076  13.314   1.214  0.1124 -0.1684 -0.1026
15840PP      PP25944  11.673   8.436   1.532  0.0022 -0.0459  0.0276
15841PP      PP25945   0.597   1.109  13.136 -0.0541  0.1334 -0.3609
15842PP      PP25946  15.462   9.632  12.846  0.0282 -0.2633 -0.2155
15843PP      PP25947  15.175   6.467  11.922  0.2846  0.0359  0.2195
15844PP      PP25948   2.283   8.399   3.468 -0.3939 -0.0298  0.0963
15845PP      PP25949  10.533  14.312   2.047 -0.4339 -0.3063  0.1227
15846PP      PP25950  15.500   7.369   3.706 -0.0544  0.2568 -0.2097
15847PP      PP25951   3.903  12.919  10.253 -0.1334 -0.1731  0.0061
15848PP      PP25952   8.886  13.755   3.652  0.2492  0.2015 -0.0952
15849PP      PP25953   6.141   5.496   2.511  0.0576  0.1469  0.1458
15850PP      PP25954  11.444   8.036   3.351  0.0243  0.3738  0.1848
15851PP      PP25955   6.617   5.206  11.741  0.2753  0.0171  0.1758
15852PP      PP25956  13.855  13.762   9.711  0.0057 -0.0615  0.0714
15853PP      PP25957   8.028   2.407   1.979 -0.5339 -0.1319  0.0465
15854PP      PP25958  11.182  11.834   2.935  0.3825 -0.1005  0.1496
15855PP      PP25959   6.032  15.801   3.413 -0.0868  0.0835  0.1455
15856PP      PP25960   9.587  11.792   4.531 -0.1772 -0.0278 -0.2518
15857PP      PP25961   8.072  13.964   3.300  0.1424 -0.0146 -0.0686
15858PP      PP25962   7.181   7.187  12.791  0.2786 -0.3113 -0.0046
15859PP      PP25963  15.643  11.976  12.477 -0.0824 -0.3288 -0.4123
15860PP      PP25964   8.857  10.714   8.231 -0.1695  0.1896  0.1827
15861PP      PP25965  11.261   6.226   1.311 -0.0460 -0.2037 -0.1993
15862PP      PP25966   9.610   6.511  11.016 -0.2788  0.3555 -0.1848
15863PP      PP25967  14.146   5.036  12.700 -0.3024 -0.1856  0.1342
15864PP      PP25968   9.100  12.607   9.220  0.1845  0.0641  0.4973
15865PP      PP25969   4.600   6.152  10.014  0.2944 -0.1871  0.0300
15866PP      PP25970  11.846   3.830  13.292 -0.0615  0.0399 -0.1177
15867PP      PP25971   0.069  10.732  10.276  0.0042 -0.1427 -0.2114
15868PP      PP25972   7.130   3.648  11.442  0.2862  0.3355  0.0323
15869PP      PP25973   5.285  15.022   8.424 -0.0155 -0.0713 -0.2799
15870PP      PP25974  13.215  10.005  13.212  0.0516  0.0360 -0.2485
15871PP      PP25975   4.353   6.442  10.860 -0.0447 -0.0301 -0.2539
15872PP      PP25976  12.673   8.017  10.793 -0.0733 -0.2480 -0.1756
15873PP      PP25977   4.509   3.083   3.487  0.1178 -0.1687 -0.1817
15874PP      PP25978   8.610   7.623   0.739 -0.0611 -0.0326 -0.1547
15875PP      PP25979  12.653   1.864   9.776  0.3833  0.0271 -0.1118
15876PP      PP25980  15.597  11.429   9.949  0.0121  0.0518  0.0318
15877PP      PP25981  10.322   5.050   3.460 -0.2304 -0.0328  0.0642
15878PP      PP25982   1.420   7.616   4.481 -0.1211 -0.1808  0.1464
15879PP      PP25983   0.161   7.126  12.350  0.0409  0.1837  0.1212
15880PP      PP25984   5.407  13.878   8.891  0.2375  0.1378  0.2593
15881PP      PP25985  15.571  14.516  10.270 -0.1231  0.0484 -0.1838
15882PP      PP25986   1.357  10.806   0.028  0.0085  0.1124 -0.2339
15883PP      PP25987   1.014   0.898  10.456  0.2216 -0.0115 -0.2292
15884PP      PP25988  12.960   7.279   9.927  0.2253 -0.2827 -0.1126
15885PP      PP25989  14.691   9.793   2.388 -0.2607  0.2755 -0.2048
15886PP      PP25990   0.371   2.741  11.017  0.0549  0.3429  0.1275
15887PP      PP25991   8.075   9.230   0.385 -0.0001  0.0672  0.0093
15888PP      PP25992   4.704  14.809  13.071 -0.1280 -0.0034  0.3177
15889PP      PP25993   0.475   3.988  11.449  0.0367 -0.3057  0.0660
15890PP      PP25994  12.034  15.517  11.729 -0.3280 -0.2763 -0.1067
15891PP      PP25995  10.255  13.836  12.081  0.0342  0.0345  0.1874
15892PP      PP25996  15.337   7.886   8.885 -0.0118 -0.1444 -0.1934
15893PP      PP25997   4.341  10.545   2.502 -0.2177  0.2821 -0.0205
15894PP      PP25998   9.428  10.194  11.653  0.1570 -0.1152  0.2062
15895PP      PP25999   1.797  13.365   0.935 -0.2101 -0.2418 -0.2187
15896PP      PP26000   8.994   9.677   0.472 -0.0112  0.1902 -0.0186
15897PP      PP26001  15.663   0.358  12.875  0.0301 -0.1576 -0.2976
15898PP      PP26002   8.408   6.172  10.379 -0.2830 -0.2868 -0.1777
15899PP      PP26003  12.411  11.837  10.304 -0.1045 -0.1906  0.1376
15900PP      PP26004   3.764  13.757  12.335 -0.0258  0.0861  0.3239
15901PP      PP26005   9.211   4.449   0.374 -0.1388  0.1051  0.1235
15902PP      PP26006   5.794   1.304   3.262  0.1335 -0.1948 -0.3519
15903PP      PP26007   6.598  15.499   1.042  0.1837 -0.3316 -0.2553
15904PP      PP26008   1.901  15.586   3.185  0.0347 -0.0589  0.2312
15905PP      PP26009   0.805   2.738  10.293 -0.2749  0.2705  0.1782
15906PP      PP26010   4.990  13.282   1.075 -0.0360  0.3460  0.0406
15907PP      PP26011  11.143   0.564  11.958 -0.1381  0.2797  0.0760
15908PP      PP26012  11.673   6.104   1.808 -0.3354  0.1228  0.0471
15909PP      PP26013  12.527  13.711   9.054  0.2536  0.0832  0.2431
15910PP      PP26014  10.570  14.669   0.238  0.1927 -0.1710  0.1722
15911PP      PP26015   1.932   7.060   1.997  0.1373  0.2552 -0.0755
15912PP      PP26016   4.761   6.180   2.623 -0.1464 -0.2456  0.2406
15913PP      PP26017  12.769  11.530  13.392  0.1455  0.1513  0.1002
15914PP      PP26018  10.151   7.066   4.581 -0.2010  0.0507 -0.1121
15915PP      PP26019   4.632   2.044   3.214  0.1132  0.0311  0.0537
15916PP      PP26020   9.736  12.657   0.203  0.1601 -0.0346 -0.1886
15917PP      PP26021  12.090   1.813   2.621 -0.0459  0.0207 -0.3328
15918PP      PP26022   4.408   2.444  10.582 -0.4157 -0.0483 -0.1785
15919PP      PP26023  11.666   0.143   2.103 -0.0992 -0.3165  0.0219
15920PP      PP26024   5.098   5.096   0.013  0.0588 -0.1894 -0.3157
15921PP      PP26025   0.204  11.785  11.648  0.1103  0.0561 -0.0583
15922PP      PP26026   0.475   5.672   2.987 -0.0782  0.2912 -0.0177
15923PP      PP26027   4.641   1.358   9.597 -0.2116  0.2969  0.2456
15924PP      PP26028   0.757   0.624  13.201  0.0757 -0.1757 -0.0511
15925PP      PP26029   8.429   0.316  10.237  0.0042  0.0770 -0.2449
15926PP      PP26030   7.833   6.802  11.878 -0.1508  0.0794 -0.1060
15927PP      PP26031   0.831  13.066  11.604  0.0984  0.0532 -0.2001
15928PP      PP26032   1.005   4.429  11.606  0.0207 -0.1989  0.4069
15929PP      PP26033   3.501   9.378  12.005 -0.2938  0.2735  0.1140
15930PP      PP26034  11.129   0.633  12.506 -0.2349  0.2945 -0.0076
15931PP      PP26035  10.210   9.870   3.798 -0.0036 -0.0465 -0.1913
15932PP      PP26036   7.717   2.354   9.386 -0.0181  0.0507  0.3111
15933PP      PP26037   8.467   3.585   1.984  0.1219 -0.0923  0.1731
15934PP      PP26038  10.845   3.732  10.588  0.0986  0.1788  0.1399
15935PP      PP26039   2.316   6.900   1.209 -0.1528  0.1334  0.1019
15936PP      PP26040   2.735   4.758   3.098  0.0647  0.1816 -0.0999
15937PP      PP26041   0.803  14.016   3.372 -0.0982 -0.2957 -0.2903
15938PP      PP26042  12.180   9.247  12.696 -0.1593  0.0792 -0.0234
15939PP      PP26043  14.013  13.602   2.291  0.0238 -0.2431 -0.1372
15940PP      PP26044   8.367  12.742  13.033 -0.1060  0.1793 -0.1186
15941PP      PP26045  12.005  14.388   9.791 -0.1831 -0.1141  0.0261
15942PP      PP26046   9.252   0.649  11.598 -0.0325 -0.3115  0.0348
15943PP      PP26047   4.083  15.270   8.360  0.1733 -0.1530 -0.0226
15944PP      PP26048   1.509   6.213   4.352 -0.0689  0.1250  0.2575
15945PP      PP26049   5.240  15.531  10.145 -0.0663 -0.1974 -0.1217
15946PP      PP26050  14.776   0.594  11.583  0.0240 -0.0233 -0.0181
15947PP      PP26051  12.796   9.752   0.935 -0.1877  0.1446  0.0631
15948PP      PP26052   9.480  12.135  11.310  0.0347 -0.0159  0.0786
15949PP      PP26053   2.842  14.330  10.620 -0.2438 -0.1454 -0.1985
15950PP      PP26054  11.336   3.471   9.635 -0.1731  0.0840 -0.0670
15951PP      PP26055   9.399  13.360   2.978  0.0164 -0.1241  0.2939
15952PP      PP26056   4.741   4.149   9.169 -0.1388  0.4186 -0.1061
15953PP      PP26057   1.102  12.654   0.027  0.0703 -0.0691  0.3246
15954PP      PP26058  12.542   2.566   3.989  0.1705  0.0489  0.2732
15955PP      PP26059   9.225  15.162   4.256  0.0188 -0.0859 -0.1349
15956PP      PP26060   8.569  11.001  12.401  0.0613 -0.1049  0.1981
15957PP      PP26061   0.361  12.278   8.067  0.2826 -0.2930 -0.4213
15958PP      PP26062  12.508  13.082   1.228 -0.0478 -0.1386 -0.3204
15959PP      PP26063   4.127   4.762   3.823 -0.1025 -0.2780 -0.3732
15960PP      PP26064   7.862   2.483   3.001  0.0631 -0.1204  0.1835
15961PP      PP26065  15.775  15.885   2.249 -0.2088  0.2494 -0.1170
15962PP      PP26066  10.976   1.453   4.292 -0.1663 -0.0879 -0.2288
15963PP      PP26067   6.449   1.515  12.415 -0.2038  0.2267 -0.0473
15964PP      PP26068   5.064   5.613  12.502  0.0095 -0.0484  0.0567
15965PP      PP26069   9.156   6.798   3.286  0.1959 -0.1752  0.0940
15966PP      PP26070   9.322  13.378   4.530  0.0932 -0.3277 -0.3416
15967PP      PP26071  15.887  14.019  11.865  0.2313 -0.2885 -0.1836
15968PP      PP26072   2.103   1.594   8.571 -0.0881 -0.4649 -0.3703
15969PP      PP26073   8.533   9.866  11.441  0.1347 -0.0123 -0.0152
15970PP      PP26074   7.961   2.007   3.861 -0.0377 -0.0505  0.2018
15971PP      PP26075   5.606  12.042   2.349 -0.2644 -0.2350 -0.3339
15972PP      PP26076   2.385   3.575  12.375  0.0885  0.1572  0.0270
15973PP      PP26077  10.158   4.398   2.734 -0.2928 -0.2376  0.1176
15974PP      PP26078   7.499  10.633  12.997  0.0882 -0.1571  0.2086
15975PP      PP26079   3.045   2.658   9.906  0.2304  0.0504  0.0346
15976PP      PP26080   9.291  14.245   1.785 -0.0423 -0.2926 -0.0892
15977PP      PP26081   9.390  10.544   3.244 -0.0857  0.2357  0.1498
15978PP      PP26082  13.294   0.058  11.461  0.1057  0.1202  0.2862
15979PP      PP26083   8.062  15.538  12.562 -0.0250 -0.1195  0.0005
15980PP      PP26084  15.845  14.482   0.791 -0.0939 -0.0262  0.1716
15981PP      PP26085   3.079   8.382  12.302 -0.0810  0.1274 -0.1374
15982PP      PP26086   5.124   6.468   2.397  0.1862 -0.0815  0.0409
15983PP      PP26087  12.402   0.350  11.595 -0.0535 -0.1245  0.1658
15984PP      PP26088  13.186  12.349  12.179  0.2226  0.1605  0.0577
15985PP      PP26089  11.943   8.703  12.370 -0.1715  0.2413  0.4251
15986PP      PP26090   8.135   8.702   3.308  0.1735 -0.1104  0.1625
15987PP      PP26091   4.087  13.348   8.970 -0.1724  0.0471 -0.0493
15988PP      PP26092   6.690   6.051   3.529  0.0593  0.0968  0.0563
15989PP      PP26093   8.031   9.137   2.580  0.1763  0.0347  0.0778
15990PP      PP26094  11.807   0.271   0.873  0.0277  0.1152 -0.1649
15991PP      PP26095  12.015   9.586  11.992  0.0435  0.0790 -0.0171
15992PP      PP26096   6.524   8.847   2.350 -0.0484  0.1070  0.0244
15993PP      PP26097   5.809   8.148   9.660 -0.3227 -0.0185  0.0831
15994PP      PP26098  15.627   8.910  13.400 -0.0306 -0.0668  0.1910
15995PP      PP26099   5.055   1.629  10.429 -0.1828 -0.0385 -0.2287
15996PP      PP26100  12.763  11.230   0.544 -0.2189  0.1649  0.0327
15997PP      PP26101   0.160   7.490  11.530  0.1563 -0.2680 -0.2441
15998PP      PP26102   2.982   4.510   9.719 -0.0753 -0.3537 -0.2047
15999PP      PP26103  13.137   0.256   2.027  0.0310  0.3726  0.1375
16000PP      PP26104   5.577  10.689  13.188  0.0573 -0.1053 -0.0188
16001PP      PP26105  15.933   2.470   3.275 -0.0352  0.1531 -0.0620
16002PP      PP26106  10.269  13.343   0.660 -0.0448  0.2791 -0.0092
16003PP      PP26107  12.932  13.733   4.520 -0.0334 -0.2821  0.2788
16004PP      PP26108  13.842   1.915   0.119  0.0913 -0.1109 -0.1093
16005PP      PP26109   9.429  12.657   1.132 -0.0509  0.0250  0.0851
16006PP      PP26110   6.223  10.480  10.717 -0.1642 -0.1980 -0.2559
16007PP      PP26111   6.030   7.907  10.593  0.2372  0.0782  0.3642
16008PP      PP26112  10.901   2.566  11.206  0.0169  0.3224 -0.2592
16009PP      PP26113  15.017   9.462   9.768  0.2167  0.1222 -0.0378
16010PP      PP26114   6.883   2.264   3.662 -0.0033  0.0771  0.2547
16011PP      PP26115   5.992   6.611  10.385 -0.1725 -0.2851 -0.0122
16012PP      PP26116   6.694  13.432   9.004 -0.0254 -0.1119  0.0146
16013PP      PP26117   8.218  13.202   2.372 -0.1906 -0.0285  0.0426
16014PP      PP26118  11.050   9.816   2.606 -0.1103  0.1994  0.1664
16015PP      PP26119   6.975   9.055  12.369 -0.0119  0.1742 -0.0946
16016PP      PP26120   1.655   3.080  11.911 -0.3690 -0.0940 -0.0986
16017PP      PP26121  10.448  11.814   1.626  0.0988 -0.2004  0.0407
16018PP      PP26122  11.725   3.084   2.376  0.0669 -0.3178  0.0233
16019PP      PP26123  13.192   3.976  10.393  0.0109  0.1181  0.2206
16020PP      PP26124   8.767   8.071   9.585 -0.1740  0.2506 -0.4220
16021PP      PP26125   8.673  15.481   0.566 -0.0030  0.2126  0.0077
16022PP      PP26126  12.002   1.203   1.469 -0.1277  0.0721 -0.0565
16023PP      PP26127   2.492   5.880  12.883 -0.0591  0.0487 -0.1868
16024PP      PP26128   7.448   3.837  13.015  0.1570 -0.0745 -0.2005
16025PP      PP26129   4.286   7.151   9.395  0.1290 -0.0933 -0.0133
16026PP      PP26130  10.151  11.465   0.834 -0.2402  0.0178  0.4354
16027PP      PP26131   5.878   6.924  12.157  0.0311 -0.1182  0.1077
16028PP      PP26132  11.131   8.395   1.486 -0.1208  0.1216 -0.0049
16029PP      PP26133   7.976   6.294  13.101 -0.0491  0.0574 -0.1993
16030PP      PP26134   9.842  12.677  10.809 -0.2137 -0.2620 -0.0416
16031PP      PP26135   6.157   7.465   0.774 -0.2568 -0.0955  0.0331
16032PP      PP26136   5.493   9.731  11.212  0.2594 -0.2513  0.0689
16033PP      PP26137   9.494  11.206   0.165 -0.0274  0.2053  0.0708
16034PP      PP26138  12.954   6.637   3.102 -0.2337 -0.0141  0.1979
16035PP      PP26139   8.289  11.295   3.912  0.1775  0.3200  0.2425
16036PP      PP26140  10.591  15.568   9.505 -0.1023  0.1192 -0.1553
16037PP      PP26141   4.522   9.506  10.588  0.0650  0.0799 -0.0038
16038PP      PP26142   2.956   6.894   1.884  0.1941 -0.3191 -0.4135
16039PP      PP26143   4.715   7.559  11.677  0.0128  0.2807 -0.0726
16040PP      PP26144  15.789   2.356  10.490 -0.2502  0.4668  0.0836
16041PP      PP26145   4.467   3.430   4.096 -0.2516  0.0630 -0.2184
16042PP      PP26146   1.982  11.644  11.918  0.1986  0.2576 -0.1486
16043PP      PP26147   8.535   3.850  10.277  0.0903  0.3587  0.0518
16044PP      PP26148  14.895   1.015   8.419  0.0385 -0.1060 -0.2948
16045PP      PP26149   9.933  13.731  10.586  0.0842  0.4081  0.3369
16046PP      PP26150   4.410  12.631  11.498  0.2114 -0.5515  0.3752
16047PP      PP26151  10.049  14.188   3.456  0.1178 -0.2543  0.2161
16048PP      PP26152   2.449   2.799   1.180  0.1793 -0.2015  0.0179
16049PP      PP26153  13.262  14.926  11.274  0.1385 -0.0195 -0.0759
16050PP      PP26154   3.818   4.657   4.201 -0.2767 -0.1686 -0.2440
16051PP      PP26155   4.809   5.556  13.386  0.1394  0.2794 -0.0652
16052PP      PP26156   4.294   6.731   0.359  0.1432 -0.0529 -0.0583
16053PP      PP26157  14.583   9.470  10.162  0.2287 -0.0363  0.1100
16054PP      PP26158   3.621  11.438  13.371 -0.0064  0.0490 -0.0284
16055PP      PP26159   2.385   4.614   1.558 -0.0742 -0.0471  0.0647
16056PP      PP26160   5.142   5.155   3.753  0.2862 -0.2951  0.3248
16057PP      PP26161   0.136  10.512   1.294  0.2049 -0.0743 -0.1434
16058PP      PP26162   1.617  11.621  10.859 -0.2755 -0.2933 -0.1174
16059PP      PP26163   8.266  15.153   0.501  0.1838 -0.0315  0.1574
16060PP      PP26164  11.114   1.969  10.703  0.1723 -0.0953  0.0520
16061PP      PP26165   4.807   3.510   1.811 -0.1238 -0.0490 -0.1513
16062PP      PP26166   1.656   7.214  11.567 -0.1338 -0.1158  0.0245
16063PP      PP26167   4.328  11.568  11.176  0.1537 -0.0951  0.3708
16064PP      PP26168   1.971   2.029  11.027 -0.1185 -0.0609 -0.2815
16065PP      PP26169   1.944  13.833   8.897  0.2847  0.1678 -0.0144
16066PP      PP26170   1.343  12.910  12.410  0.0544 -0.2784  0.3334
16067PP      PP26171  14.056  10.166   0.015 -0.0465  0.1993  0.0730
16068PP      PP26172   7.247   9.745   3.985 -0.0545  0.0834  0.0106
16069PP      PP26173  12.585   5.971   1.135 -0.4409 -0.1011 -0.1634
16070PP      PP26174  15.842   7.409  10.083 -0.1144  0.1517 -0.0498
16071PP      PP26175   5.014   4.522   1.377 -0.0943  0.1474  0.0044
16072PP      PP26176   5.721   3.566   2.135 -0.1057  0.2338 -0.2293
16073PP      PP26177   9.470   9.645  10.765 -0.1153  0.0865  0.2948
16074PP      PP26178   6.153  10.634   1.687  0.4100  0.2567 -0.4961
16075PP      PP26179   0.770   6.052   0.881 -0.1982  0.3669  0.0915
16076PP      PP26180   9.834  13.144   0.577  0.0278 -0.0777  0.4352
16077PP      PP26181   3.203   9.059  12.427  0.0293  0.2363 -0.2335
16078PP      PP26182   7.517  12.848   0.568 -0.3160  0.1637 -0.1126
16079PP      PP26183   0.974  14.708   1.688  0.1118  0.4449 -0.2451
16080PP      PP26184  12.138   7.771   1.150  0.0242  0.0838 -0.3318
16081PP      PP26185  11.348  13.669   1.106 -0.3778  0.2728  0.0039
16082PP      PP26186  14.538   5.352   1.921 -0.4220  0.4570  0.2018
16083PP      PP26187   9.719  10.939   8.533 -0.1383  0.1301 -0.0437
16084PP      PP26188   7.502  12.166   9.303 -0.0225 -0.2092  0.1470
16085PP      PP26189  14.879  14.539   0.367 -0.0188  0.1519 -0.0626
16086PP      PP26190   9.841   4.066   2.367  0.0818  0.0471 -0.4950
16087PP      PP26191  14.389  13.876   9.352 -0.1467  0.1585  0.0408
16088PP      PP26192  14.697   5.899   3.765  0.1864  0.0945 -0.0153
16089PP      PP26193   3.970   3.786   2.294 -0.2025 -0.1739  0.1359
16090PP      PP26194  12.565   6.057  11.315  0.0110  0.2974  0.2858
16091PP      PP26195   2.922   2.701   1.867  0.0693  0.1452  0.1431
16092PP      PP26196  12.268  14.223  10.466 -0.1544 -0.5355  0.0289
16093PP      PP26197   1.897  14.108   9.520  0.0996 -0.0098  0.0018
16094PP      PP26198   4.963  14.074   2.662  0.0637 -0.0731 -0.0392
16095PP      PP26199  12.436   2.355  12.955  0.4010 -0.0798  0.2951
16096PP      PP26200   2.570   2.380  13.062  0.3689 -0.0569 -0.1829
16097PP      PP26201   8.649   1.385   9.916 -0.4513  0.1048 -0.4534
16098PP      PP26202   3.828  12.171   3.482  0.0019 -0.0877 -0.0535
16099PP      PP26203  13.625  10.990   4.524 -0.0051 -0.1660 -0.1179
16100PP      PP26204   7.158   3.844   1.047 -0.0617  0.2135  0.0299
16101PP      PP26205   5.779   5.437  12.139 -0.3341 -0.4060 -0.2096
16102PP      PP26206  10.424   4.598  13.077  0.1947 -0.1074 -0.0709
16103PP      PP26207  12.608   6.341   1.606 -0.0011  0.0110  0.0305
16104PP      PP26208   0.891   3.926   2.801  0.1295  0.1765 -0.1462
16105PP      PP26209   4.706   3.254  11.571 -0.0485 -0.1783  0.1746
16106PP      PP26210   2.196  14.453  11.214 -0.2080  0.3387 -0.1733
16107PP      PP26211   4.842   8.553   1.974 -0.0743  0.2023 -0.0776
16108PP      PP26212  14.698   3.182   9.374 -0.2342 -0.0151  0.0341
16109PP      PP26213   7.196  12.306   3.021  0.0019  0.0659 -0.0589
16110PP      PP26214   4.142  13.510   3.502  0.1805 -0.0203 -0.1783
16111PP      PP26215   1.914  12.208   9.243  0.0036 -0.1872  0.0717
16112PP      PP26216  13.565   9.798   0.784 -0.0111 -0.1206  0.1080
16113PP      PP26217   6.235  13.124   4.070 -0.2808 -0.1242 -0.2241
16114PP      PP26218   2.496   9.249  13.051 -0.0030  0.2790 -0.2951
16115PP      PP26219   5.722   3.834   3.664 -0.3357 -0.0247 -0.1876
16116PP      PP26220  14.681   3.257  11.371 -0.3039 -0.1035 -0.2182
16117PP      PP26221   5.051  11.319   2.065 -0.3926  0.1582  0.3390
16118PP      PP26222   7.907  10.418   3.274  0.1361 -0.3260  0.0553
16119PP      PP26223   7.830  15.573   4.666 -0.0405  0.1358  0.1100
16120PP      PP26224  15.128   5.584  12.121  0.0127 -0.2159 -0.2947
16121PP      PP26225   0.396   6.658   9.599 -0.3459  0.0328 -0.1473
16122PP      PP26226  13.186  14.412   3.876 -0.2401 -0.0803 -0.0307
16123PP      PP26227   6.464   5.775  10.537  0.1331 -0.2876  0.0949
16124PP      PP26228   8.030   8.801   4.832  0.3494 -0.2308  0.0785
16125PP      PP26229  12.047   5.463   0.439  0.1165  0.1759 -0.1391
16126PP      PP26230   3.718   7.505   0.847 -0.1517 -0.1612 -0.2213
16127PP      PP26231  14.183  14.963   3.619  0.2774 -0.2271 -0.0091
16128PP      PP26232  14.604   5.555  10.922  0.1689  0.0429 -0.1459
16129PP      PP26233   5.939   4.909   3.601 -0.0930  0.0989  0.3264
16130PP      PP26234  14.761  10.323   2.197  0.1135 -0.0477 -0.0404
16131PP      PP26235   1.558   3.308   3.087 -0.0307 -0.1642 -0.0965
16132PP      PP26236   2.852  10.596  11.861 -0.0548  0.1988 -0.1884
16133PP      PP26237  10.467   4.046  11.231 -0.0286  0.1786 -0.0893
16134PP      PP26238  10.169   1.785  10.334 -0.2427 -0.2595  0.2724
16135PP      PP26239  15.794   5.224  11.028 -0.0604 -0.0008 -0.0614
16136PP      PP26240   0.824   1.833   0.425  0.1461 -0.2844 -0.1022
16137PP      PP26241  11.628   5.833   9.148  0.2312  0.0399  0.1978
16138PP      PP26242   4.215   6.111   4.298 -0.3756  0.0104 -0.1264
16139PP      PP26243   3.352   5.622   2.729  0.2002  0.1384  0.0820
16140PP      PP26244   9.551   5.015   2.921 -0.0097 -0.2101  0.0922
16141PP      PP26245  15.876   4.942   0.479  0.1358  0.3268 -0.2299
16142PP      PP26246   6.587  12.475  12.042  0.2361 -0.0463 -0.2220
16143PP      PP26247   0.773   3.774   8.340  0.1354  0.1248 -0.2132
16144PP      PP26248   0.999   9.036   2.849  0.0011  0.2757  0.4232
16145PP      PP26249   1.593   9.623   2.302 -0.1268  0.1177 -0.0876
16146PP      PP26250  12.667   0.722   9.000 -0.1386  0.3378 -0.2283
16147PP      PP26251   4.523   4.271  13.038  0.1386  0.0715  0.0414
16148PP      PP26252   4.776   5.217  11.957 -0.3357  0.1712  0.1676
16149PP      PP26253   5.264  10.205   2.917 -0.2811 -0.0691 -0.0461
16150PP      PP26254   1.472   2.706   3.381  0.0196  0.2711 -0.0074
16151PP      PP26255   5.943   2.518   0.111  0.0198  0.1637  0.2507
16152PP      PP26256  13.794  14.861  10.302  0.0340  0.1360  0.2219
16153PP      PP26257  13.056   2.649   0.125 -0.1903 -0.1002  0.4739
16154PP      PP26258   9.742   3.600  11.736  0.1537 -0.1560 -0.1526
16155PP      PP26259   4.577   5.867   2.219 -0.0957 -0.4036  0.0288
16156PP      PP26260  12.044   4.782   8.931  0.4076  0.2739  0.3177
16157PP      PP26261   0.301   1.216   1.123 -0.0823  0.2911 -0.2298
16158PP      PP26262   2.069   2.183  10.520 -0.1793  0.2377 -0.0992
16159PP      PP26263   3.974  12.188   9.612  0.1503 -0.1438 -0.1694
16160PP      PP26264   1.440   7.524   1.280  0.1168  0.1534 -0.0953
16161PP      PP26265   0.956   8.053  13.362  0.2763  0.3221 -0.0419
16162PP      PP26266   1.035  10.101  12.529  0.0260  0.3974  0.0981
16163PP      PP26267   9.357   2.707  12.736  0.2303  0.0091 -0.1068
16164PP      PP26268   3.155   4.007   4.709  0.1792  0.3204  0.3127
16165PP      PP26269   1.970  11.910   1.854  0.0449 -0.0954  0.0695
16166PP      PP26270  12.363   3.819   2.870  0.3389 -0.4435 -0.2665
16167PP      PP26271  14.084  11.706   9.793  0.0471 -0.0116 -0.3619
16168PP      PP26272   2.213   4.484   1.050  0.0686  0.0235  0.0170
16169PP      PP26273   2.125  12.463  11.358 -0.2715 -0.0415 -0.0623
16170PP      PP26274  14.375   8.408   3.903 -0.0827  0.1775  0.1064
16171PP      PP26275  13.824  15.564   0.487  0.2442 -0.3297  0.0187
16172PP      PP26276   0.318   9.091   4.290  0.1540 -0.1837 -0.0399
16173PP      PP26277  15.138  15.276   2.095  0.4647  0.1002 -0.3003
16174PP      PP26278   3.164   2.796   9.159 -0.3903  0.1778 -0.2339
16175PP      PP26279  13.487   0.545  13.339  0.1924  0.0926 -0.1314
16176PP      PP26280   6.934  13.438   2.692  0.2351 -0.0292 -0.1163
16177PP      PP26281   9.167  15.687   9.350  0.0443  0.4986 -0.2050
16178PP      PP26282  11.265   3.011   4.106 -0.0160 -0.0560  0.1226
16179PP      PP26283   2.509   4.090   0.797  0.2457  0.1153 -0.4670
16180PP      PP26284  13.846  10.026  10.621  0.0131 -0.2800 -0.2507
16181PP      PP26285  15.041   2.948   2.315  0.1447  0.5015  0.1584
16182PP      PP26286   6.817   2.934   0.908  0.2465  0.0818  0.0675
16183PP      PP26287   4.966   2.692   9.317  0.1654 -0.0975 -0.1851
16184PP      PP26288   6.658   0.046  13.191 -0.2222  0.1358  0.1723
16185PP      PP26289   3.701   5.075   2.150 -0.0652  0.0479 -0.0902
16186PP      PP26290   9.332   5.772   0.512  0.0822  0.1867  0.0297
16187PP      PP26291  12.570  14.883   2.398  0.1397 -0.2362  0.0609
16188PP      PP26292   0.842   3.758   0.547  0.0570  0.0911 -0.0876
16189PP      PP26293  11.113   3.755   3.418 -0.0647  0.2414  0.1052
16190PP      PP26294  15.428  14.331   1.053 -0.0535 -0.0936  0.4087
16191PP      PP26295   7.165   4.972   9.246  0.1001  0.0321 -0.3555
16192PP      PP26296  14.629  12.685   2.131 -0.2961  0.3165 -0.0682
16193PP      PP26297  14.163  15.757   9.589  0.0342  0.2639  0.0463
16194PP      PP26298   3.672  11.070  12.204 -0.2832 -0.0594  0.1251
16195PP      PP26299   9.899  11.749   2.215  0.0620  0.2442  0.3144
16196PP      PP26300  15.334   6.023  11.179  0.1835 -0.1451  0.2599
16197PP      PP26301   9.520   8.125   3.734  0.0882  0.1196  0.1328
16198PP      PP26302  12.637  10.649   2.269 -0.0238 -0.0131 -0.0086
16199PP      PP26303   7.271   8.230   2.734  0.2602 -0.1302 -0.2640
16200PP      PP26304   5.908   5.918   0.069  0.2629  0.0940 -0.0614
16201PP      PP26305   5.856  10.953   1.457  0.0091 -0.0176  0.2796
16202PP      PP26306   0.818   1.687  11.239 -0.0938 -0.3951 -0.2025
16203PP      PP26307  13.392   9.234   4.639 -0.2541 -0.1551  0.0264
16204PP      PP26308   2.174   1.610   1.656  0.0782  0.1811  0.0908
16205PP      PP26309   7.215   6.682   1.106 -0.0010 -0.2961 -0.1602
16206PP      PP26310  13.307   9.321   2.992  0.3867  0.2300 -0.0887
16207PP      PP26311   2.950   8.944   2.767 -0.0615 -0.0946 -0.0082
16208PP      PP26312  12.673  10.750   8.543 -0.0637  0.0325  0.2488
16209PP      PP26313   0.010   2.083   9.560  0.2175  0.0577 -0.3199
16210PP      PP26314  11.692   0.361   9.486  0.2499 -0.0651  0.1660
16211PP      PP26315  12.848   1.270  12.692  0.1407  0.0119  0.0566
16212PP      PP26316   6.232   2.742   4.201  0.1698 -0.1227 -0.2067
16213PP      PP26317  14.000   4.967   9.747  0.0121 -0.0371 -0.3584
16214PP      PP26318   6.562   9.886  10.799 -0.2101 -0.0422  0.1129
16215PP      PP26319   6.443   2.332   0.134  0.0396 -0.2698  0.1309
16216PP      PP26320  14.556   5.202  12.349 -0.0831 -0.3149  0.0085
16217PP      PP26321   8.733  12.422  12.091 -0.4773  0.1348  0.0450
16218PP      PP26322   3.231  15.899  13.277  0.2027 -0.4169  0.0524
16219PP      PP26323   4.308   5.834  12.396 -0.0945 -0.1448  0.0126
16220PP      PP26324  15.086  11.534  10.110  0.1002 -0.0068  0.2153
16221PP      PP26325  10.204   0.719   1.166 -0.1829 -0.4290 -0.3496
16222PP      PP26326  12.162  14.758  10.337  0.1338 -0.0746  0.0434
16223PP      PP26327   2.009  10.431   2.004 -0.2842  0.0684 -0.0796
16224PP      PP26328   1.543   7.406   0.146  0.0194 -0.1115 -0.2821
16225PP      PP26329  14.097   7.691   3.386  0.1426 -0.0588  0.2279
16226PP      PP26330   6.813   6.863  11.044 -0.0636 -0.1024  0.1294
16227PP      PP26331   0.136  10.078   0.872 -0.0785 -0.0924 -0.0658
16228PP      PP26332   3.822  11.520  12.438 -0.0903  0.2300  0.0214
16229PP      PP26333   2.788   8.644   2.441 -0.0559  0.0300  0.1463
16230PP      PP26334   4.102   4.113  10.576 -0.4405 -0.1754  0.1670
16231PP      PP26335   2.227  11.490  10.268 -0.5451 -0.4423 -0.3022
16232PP      PP26336   9.081   5.868  10.058  0.0559  0.0499 -0.1731
16233PP      PP26337   3.471   1.975   1.516 -0.3373  0.1965 -0.0224
16234PP      PP26338   7.523  13.789  12.687  0.4211  0.1139 -0.0691
16235PP      PP26339   9.688   0.402   1.697  0.1479 -0.1587  0.1663
16236PP      PP26340   0.058   4.208   8.763 -0.1162  0.3357 -0.0781
16237PP      PP26341  14.631   3.787   8.670  0.1943 -0.2850  0.0239
16238PP      PP26342  14.207  13.096  12.913 -0.3434  0.0614  0.0520
16239PP      PP26343  12.497   4.685   1.532 -0.1080 -0.3188  0.1269
16240PP      PP26344  15.895   5.253  11.522 -0.0378 -0.1102 -0.1444
16241PP      PP26345  13.514   4.654   9.713 -0.2656  0.1332  0.2284
16242PP      PP26346  11.041   2.847   1.625  0.1026 -0.0882  0.0785
16243PP      PP26347   7.574  12.606   2.812  0.0129  0.2955  0.0409
16244PP      PP26348  10.866   7.095   2.580  0.2129 -0.0546 -0.2044
16245PP      PP26349  12.256   7.858   3.234 -0.1251  0.1970  0.0481
16246PP      PP26350   6.277   0.980   1.969 -0.0424 -0.2616 -0.1384
16247PP      PP26351   0.376   0.885  12.336 -0.4449 -0.0316 -0.1354
16248PP      PP26352   8.668   7.329   0.330 -0.0539  0.0350  0.0711
16249PP      PP26353  14.284   6.525   4.291  0.3166  0.1459  0.0108
16250PP      PP26354   1.590  15.414  12.579  0.0351  0.1130  0.0068
16251PP      PP26355  11.588   9.849   9.128  0.1764 -0.1584  0.0594
16252PP      PP26356   7.992   6.156   0.234  0.3760  0.0214  0.0132
16253PP      PP26357   9.957  15.401   3.758 -0.0823 -0.3053 -0.3262
16254PP      PP26358   4.350   4.344  10.976  0.3564  0.3244  0.1534
16255PP      PP26359  11.400   1.077   1.464  0.2749  0.2708 -0.1436
16256PP      PP26360  15.500   7.960  10.125  0.1826  0.0731  0.0783
16257PP      PP26361  15.332  12.631   1.571  0.3018  0.2460 -0.0118
16258PP      PP26362   8.319   3.967  11.772 -0.0497  0.2274  0.0678
16259PP      PP26363   1.701   1.984  10.204  0.0739  0.2026  0.1996
16260PP      PP26364   4.522   8.075   0.784  0.0122 -0.2274  0.0285
16261PP      PP26365  12.399  15.854   2.008 -0.2723  0.2246 -0.2114
16262PP      PP26366   1.819   6.822  10.515  0.0502  0.0198 -0.0815
16263PP      PP26367   1.622   4.766  13.160  0.0630 -0.0600  0.1559
16264PP      PP26368   7.868   1.473   3.420  0.1581  0.1041  0.1260
16265PP      PP26369  13.563   6.527   3.834 -0.2265 -0.0706  0.1692
16266PP      PP26370  10.501   6.678  10.764 -0.2041 -0.1572 -0.0541
16267PP      PP26371  12.592   8.364   2.372 -0.0192 -0.0803  0.1996
16268PP      PP26372   2.805  14.689  12.086 -0.1253  0.1262 -0.0141
16269PP      PP26373   7.625   7.413   3.711  0.2101  0.1262 -0.3214
16270PP      PP26374   0.770   0.364   2.164 -0.0263  0.1742 -0.0986
16271PP      PP26375   9.539  13.852   1.375  0.0706 -0.2296  0.1092
16272PP      PP26376   5.159   1.533  12.006  0.0749 -0.2134  0.1565
16273PP      PP26377  12.078  12.134   1.692  0.0971 -0.0979  0.2133
16274PP      PP26378   1.786   2.718   0.561  0.0117 -0.1282  0.0081
16275PP      PP26379  12.178   7.022   2.969 -0.1698  0.1773  0.2707
16276PP      PP26380  12.885   4.383   0.356  0.1717  0.0718 -0.0188
16277PP      PP26381  14.828   4.055   2.880 -0.3003  0.0673 -0.1341
16278PP      PP26382   4.693   5.664  12.125 -0.1327 -0.0426 -0.0785
16279PP      PP26383   4.505   7.340   8.922 -0.2408  0.1079 -0.2135
16280PP      PP26384   5.898   1.105   2.564 -0.2915  0.0188 -0.2541
16281PP      PP26385   1.890   3.659   1.260 -0.1557 -0.0029  0.0322
16282PP      PP26386   9.687   6.786   3.115  0.0962 -0.0226 -0.0024
16283PP      PP26387   1.075   3.206   2.527 -0.0271  0.1600  0.0128
16284PP      PP26388  11.621  10.658   2.499 -0.0675 -0.1134  0.2529
16285PP      PP26389  13.727  13.014  11.969 -0.0257  0.0934 -0.0867
16286PP      PP26390   4.373  15.717  11.463 -0.0536 -0.1718  0.2512
16287PP      PP26391   0.087   8.457   0.799  0.1836 -0.4211 -0.3779
16288PP      PP26392   8.564   3.704   3.789  0.3336  0.4171 -0.1999
16289PP      PP26393   9.421   1.256   1.455 -0.2484  0.0912 -0.2918
16290PP      PP26394  12.305   8.641   4.178  0.3831 -0.1807 -0.0076
16291PP      PP26395  13.194  11.095   1.513 -0.0784 -0.0046  0.0231
16292PP      PP26396  11.494   2.810   9.506 -0.0261  0.0338 -0.0784
16293PP      PP26397  12.837   4.588  12.026  0.0648  0.0051 -0.1622
16294PP      PP26398   0.725   6.798   4.413  0.1442 -0.0984  0.1075
16295PP      PP26399  13.303   9.415  11.055  0.1792 -0.2715  0.2424
16296PP      PP26400   2.567  10.198   0.282 -0.0801  0.3228 -0.3838
16297PP      PP26401   2.106   0.268   0.243  0.3910  0.1064 -0.2030
16298PP      PP26402  15.634   7.375   2.789 -0.2825  0.2214 -0.0855
16299PP      PP26403  12.564  13.052  11.757 -0.4001 -0.2301  0.0465
16300PP      PP26404   3.628  14.315   1.456  0.3102 -0.2614  0.0512
16301PP      PP26405   4.021   9.406   3.719  0.0584  0.2121 -0.3093
16302PP      PP26406   5.783  10.097   0.667  0.1064 -0.0002 -0.1479
16303PP      PP26407  13.697  11.689   2.438  0.2571 -0.0768  0.0873
16304PP      PP26408  15.419   9.713  11.516  0.0978  0.1112  0.2079
16305PP      PP26409  11.579   5.905   9.908 -0.3230  0.0070 -0.1709
16306PP      PP26410   0.518  14.315   9.910 -0.3136 -0.0971  0.1360
16307PP      PP26411  12.710   4.001   3.898  0.1056 -0.3457 -0.1973
16308PP      PP26412   4.189   0.804   2.244 -0.0171  0.1379 -0.1217
16309PP      PP26413  10.914  15.107   0.224 -0.2494 -0.0143 -0.1315
16310PP      PP26414   0.061  15.487   3.321 -0.0560  0.2180 -0.2479
16311PP      PP26415   8.928  12.457   3.566 -0.0892 -0.4191  0.1932
16312PP      PP26416   0.863   5.907  11.280 -0.0012 -0.0890  0.2346
16313PP      PP26417  15.509  11.365   3.924 -0.0297  0.1367  0.0190
16314PP      PP26418   2.530  10.925   3.594  0.1156 -0.1628 -0.2222
16315PP      PP26419   3.819   0.633   0.458 -0.2248 -0.1180 -0.2094
16316PP      PP26420   5.205   3.303   8.535  0.0475  0.0730  0.1320
16317PP      PP26421   4.396   7.894  10.125 -0.1198 -0.0825 -0.1110
16318PP      PP26422  10.641   9.227  11.204 -0.1492 -0.2550  0.1720
16319PP      PP26423   0.383  12.089   0.272 -0.0678 -0.2390  0.1023
16320PP      PP26424   4.173  11.602   1.598  0.1344  0.1063  0.2427
16321PP      PP26425  13.542   8.719  11.679 -0.0160 -0.0664 -0.0629
16322PP      PP26426   9.539   8.751  11.682 -0.2454  0.0239  0.0562
16323PP      PP26427   7.739   1.092  11.098 -0.0996 -0.1961 -0.1183
16324PP      PP26428   1.517   0.301   1.269 -0.1427 -0.2501 -0.2919
16325PP      PP26429  13.005  12.602   2.559  0.1609 -0.0070  0.0796
16326PP      PP26430   4.622  13.487  12.075 -0.0610 -0.0057 -0.1682
16327PP      PP26431   8.541   2.130   0.204 -0.0441 -0.3966  0.0245
16328PP      PP26432   1.951   2.112   1.704 -0.0674  0.1425 -0.1660
16329PP      PP26433   5.010  11.719   1.714 -0.1077 -0.0263  0.1138
16330PP      PP26434   4.673  15.092  11.109 -0.0030 -0.1290 -0.2773
16331PP      PP26435   2.018   0.177  10.694 -0.0046  0.1092  0.1345
16332PP      PP26436  15.523   4.561   2.133 -0.1923 -0.1465  0.1404
16333PP      PP26437   5.364  11.663  12.917 -0.2351 -0.2728  0.1567
16334PP      PP26438  14.614  12.021   2.838 -0.1405  0.1093  0.1902
16335PP      PP26439   2.781   4.997   1.715  0.1143 -0.0433 -0.0473
16336PP      PP26440  14.771   8.909  10.081  0.1340 -0.0695  0.4674
16337PP      PP26441  10.821  11.981  10.544 -0.0453  0.2991  0.3471
16338PP      PP26442  11.358  14.562   1.353 -0.0035  0.1190 -0.1579
16339PP      PP26443  14.336  11.451  11.622 -0.0349  0.3111  0.1048
16340PP      PP26444   7.744  13.466   2.680  0.1723  0.3838  0.1996
16341PP      PP26445   8.732  14.515  10.543 -0.1439 -0.0192 -0.0666
16342PP      PP26446  15.849  15.721  11.222 -0.0407 -0.2522 -0.0237
16343PP      PP26447   8.291   8.275  13.300  0.0275 -0.0217 -0.1576
16344PP      PP26448   9.505   4.849   4.328  0.0141 -0.6171  0.1426
16345PP      PP26449  11.775   3.073   4.018  0.0499 -0.0592  0.0381
16346PP      PP26450   4.222   4.019  12.724 -0.1897  0.0645 -0.1668
16347PP      PP26451  14.040  10.066  11.494 -0.2234  0.3094  0.0662
16348PP      PP26452  13.141  10.741  10.622 -0.0395 -0.0810  0.2311
16349PP      PP26453  11.029   4.026  12.086  0.0749 -0.1589  0.3521
16350PP      PP26454   1.644   3.080   1.111 -0.0940  0.2147  0.2401
16351PP      PP26455   6.499  11.991   2.581 -0.2984 -0.0279  0.3615
16352PP      PP26456  15.739   7.279  11.887  0.0349 -0.1948  0.0949
16353PP      PP26457  10.988   6.784   1.216  0.2583  0.0924 -0.0500
16354PP      PP26458   0.033   4.266  12.608 -0.2498  0.0808  0.2051
16355PP      PP26459   3.020   0.123   0.751 -0.3606 -0.0598  0.0287
16356PP      PP26460   3.127  11.599   3.168  0.2023  0.1835 -0.0593
16357PP      PP26461  14.958   8.286  12.592 -0.0365  0.3392  0.0774
16358PP      PP26462  14.392  10.378  12.388 -0.0977  0.1398  0.2115
16359PP      PP26463  14.771   2.041   9.361  0.0798  0.2730 -0.4065
16360PP      PP26464  14.333   1.511   2.192  0.1794  0.2645  0.0012
16361PP      PP26465   2.073  11.738   0.184  0.2990 -0.1235 -0.1888
16362PP      PP26466   1.613   4.963  10.547  0.1613  0.0406 -0.1849
16363PP      PP26467   9.617   3.141  12.579 -0.2299 -0.0572  0.0353
16364PP      PP26468   1.915   5.389   0.552  0.0575  0.1173 -0.0188
16365PP      PP26469   0.394   2.065  10.452 -0.0104  0.1157  0.2435
16366PP      PP26470   8.362  12.033   3.179  0.0638  0.1184 -0.1046
16367PP      PP26471   1.821   7.248   0.479  0.1201 -0.1033 -0.0759
16368PP      PP26472  11.996   4.517   2.795  0.0238 -0.1566 -0.3751
16369PP      PP26473   7.283   7.919  12.362  0.0417  0.0310  0.0193
16370PP      PP26474  13.763   7.614  11.558 -0.1008  0.1600  0.3147
16371PP      PP26475  13.957   2.037   9.374  0.2521  0.0494 -0.0210
16372PP      PP26476   9.906   2.507   2.772 -0.2524  0.0660 -0.0494
16373PP      PP26477   7.954   6.759  11.325  0.0429 -0.2034  0.1634
16374PP      PP26478  12.251  12.210   9.605 -0.1915 -0.0885 -0.0125
16375PP      PP26479  10.482   3.677  10.086 -0.1375  0.0484  0.0757
16376PP      PP26480  13.852   7.526   9.982 -0.1207 -0.1357 -0.0771
16377PP      PP26481   9.654   6.639   2.577  0.3522  0.0646  0.0473
16378PP      PP26482  11.712   6.988   3.197  0.1747 -0.0493  0.0169
16379PP      PP26483   1.733  11.627   3.999 -0.4401 -0.2018  0.1090
16380PP      PP26484  14.915   5.808  12.950  0.1694 -0.1215  0.1771
16381PP      PP26485   2.055   1.568   0.807  0.1146  0.0553 -0.0930
16382PP      PP26486  15.769   3.004   2.248 -0.2039 -0.0111 -0.0077
16383PP      PP26487   5.154  12.875  11.009  0.3023 -0.1064 -0.1281
16384PP      PP26488   0.450   6.415   0.933  0.0205 -0.2323 -0.3299
16385PP      PP26489   5.154  10.308  12.822  0.2700  0.1213 -0.3730
16386PP      PP26490   3.144   4.016  10.994 -0.0630 -0.0079  0.0313
16387PP      PP26491  13.082  11.167   3.454  0.1124  0.2899 -0.1477
16388PP      PP26492  12.495   8.202   9.765 -0.0359 -0.3641  0.2390
16389PP      PP26493   3.363  11.462   0.990 -0.1885 -0.0877 -0.0267
16390PP      PP26494  11.130   7.118   0.872  0.0736 -0.3057  0.1446
16391PP      PP26495  12.362   1.588   1.802  0.1048  0.0852  0.0092
16392PP      PP26496   7.091  14.670  11.043  0.1316 -0.3833 -0.1153
16393PP      PP26497   5.538   7.102   5.020  0.0318  0.2182 -0.2973
16394PP      PP26498  14.105  14.395  12.004 -0.3201 -0.0442 -0.0484
16395PP      PP26499   6.431   0.941   1.006 -0.3697  0.0681 -0.0323
16396PP      PP26500   7.637  11.557  12.416 -0.2299 -0.1558 -0.0060
16397PP      PP26501   9.815  14.477  13.235  0.2585 -0.2838 -0.0649
16398PP      PP26502  14.270  10.969   9.259 -0.1866  0.0947 -0.2231
16399PP      PP26503   2.326  11.201   0.967 -0.1999 -0.0602  0.1640
16400PP      PP26504   2.144  10.215  10.842 -0.0246 -0.1675 -0.0288
16401PP      PP26505   3.248   9.485   2.259  0.1338  0.1997 -0.0323
16402PP      PP26506   2.438  12.075  10.738  0.1200 -0.0526 -0.4454
16403PP      PP26507  12.661   3.690  13.208 -0.2288 -0.1414  0.1629
16404PP      PP26508  13.163  12.539   9.637 -0.2902  0.0416  0.0480
16405PP      PP26509   2.382  12.397  12.872 -0.4713  0.1169  0.1453
16406PP      PP26510   8.867   0.277   1.889  0.1373 -0.2440 -0.1350
16407PP      PP26511   5.960   2.269   1.680  0.0561  0.0095 -0.1670
16408PP      PP26512  11.651  13.955   9.993 -0.2076 -0.0372 -0.1194
16409PP      PP26513   7.848   0.852   3.683  0.1995 -0.2732  0.2086
16410PP      PP26514   8.290  14.720   0.779  0.2775 -0.1310  0.1428
16411PP      PP26515   3.555   7.209   2.718 -0.0288  0.0857  0.2643
16412PP      PP26516   3.809  15.787   9.646 -0.1080  0.2147 -0.0151
16413PP      PP26517  10.524   4.191  12.138 -0.0973 -0.0445  0.3286
16414PP      PP26518  12.626   9.811  13.106  0.0225 -0.0524 -0.3353
16415PP      PP26519   7.183  10.178   0.252  0.3246 -0.1985 -0.1587
16416PP      PP26520   0.598   8.046  11.123 -0.0927 -0.2292 -0.2433
16417PP      PP26521   8.604   5.346   2.351 -0.1046 -0.0381  0.2892
16418PP      PP26522  11.915   1.009   4.289 -0.2660 -0.0956 -0.0112
16419PP      PP26523  13.702   3.587   2.499  0.1282  0.0901 -0.2067
16420PP      PP26524   7.388   6.578  11.678  0.0506 -0.1734  0.0089
16421PP      PP26525  12.855   7.602  13.205  0.0450 -0.0292  0.2445
16422PP      PP26526  12.279   0.070   3.110  0.1557  0.0560 -0.0019
16423PP      PP26527   0.387   8.186   8.984  0.3955 -0.1134 -0.0189
16424PP      PP26528   9.679  14.846   1.269 -0.0406 -0.0523  0.1244
16425PP      PP26529   5.363  10.650   1.461 -0.3001 -0.2057 -0.3187
16426PP      PP26530   5.663   2.405  10.667 -0.0859  0.1311 -0.1438
16427PP      PP26531   0.934   3.586  13.298  0.3229  0.0441 -0.1159
16428PP      PP26532   2.697   5.618  13.225 -0.6181  0.1047  0.2038
16429PP      PP26533  15.885  15.146   2.464  0.0485 -0.3192  0.0908
16430PP      PP26534  15.621   2.508   9.499  0.2492  0.1624  0.0531
16431PP      PP26535   3.893   4.838   3.383  0.0555 -0.0353  0.2756
16432PP      PP26536   0.007   2.997  12.761 -0.1677  0.0867 -0.1645
16433PP      PP26537  10.998  14.475  13.373 -0.1394  0.0003  0.0152
16434PP      PP26538   0.465   0.522   1.818  0.0884 -0.0887  0.0261
16435PP      PP26539   5.068   5.809   0.711  0.2571  0.0848  0.0740
16436PP      PP26540  14.884  15.875   1.560  0.0635 -0.1001  0.0256
16437PP      PP26541   2.845   7.804   2.773  0.2360  0.3720 -0.0148
16438PP      PP26542  15.480  13.028  10.375 -0.1817  0.2191  0.0064
16439PP      PP26543   0.326  11.603   3.666  0.0555  0.1135 -0.0468
16440PP      PP26544   5.969   3.571   8.383 -0.0463 -0.1025  0.1061
16441PP      PP26545   4.556   1.228   1.687  0.1375 -0.1131 -0.2635
16442PP      PP26546   7.715   8.100   2.975 -0.1541 -0.0353  0.0831
16443PP      PP26547  15.142  14.313   1.466  0.0309  0.0278 -0.1307
16444PP      PP26548   7.043  13.057   3.222  0.0256 -0.0282 -0.0326
16445PP      PP26549   7.277   8.432   8.970 -0.0837  0.0529 -0.0583
16446PP      PP26550  15.372   1.181   9.047 -0.1718 -0.3457 -0.1501
16447PP      PP26551   1.224   3.945   0.160 -0.2259 -0.1299  0.0150
16448PP      PP26552   6.196   5.815  11.522 -0.2726  0.1587  0.1596
16449PP      PP26553   8.447  14.484   1.599  0.0253 -0.0459  0.0002
16450PP      PP26554   1.195  10.126   1.873 -0.0598  0.0469  0.4051
16451PP      PP26555   0.651   2.748  11.713  0.1712  0.0819 -0.0656
16452PP      PP26556   9.608   2.666  13.323  0.2674  0.0742 -0.1816
16453PP      PP26557   0.559  15.045  10.619 -0.1887 -0.1318 -0.1125
16454PP      PP26558  13.978   1.476   9.469  0.3174  0.3774  0.0715
16455PP      PP26559  15.580  12.985  13.134  0.0297  0.1198  0.2602
16456PP      PP26560  12.267   6.076   3.310  0.1868  0.4440 -0.1345
16457PP      PP26561   3.139   2.408   3.630 -0.0008 -0.0567 -0.0360
16458PP      PP26562  11.747   8.011  12.676 -0.1210  0.0325 -0.0292
16459PP      PP26563  15.293  14.327   9.333 -0.1398 -0.0283  0.0069
16460PP      PP26564   1.107   7.111   1.180 -0.2357 -0.1875 -0.1404
16461PP      PP26565  10.969   7.444   4.417 -0.1755 -0.1140 -0.1945
16462PP      PP26566   6.674  13.654  10.440  0.1334  0.0560 -0.0397
16463PP      PP26567   0.959   1.203   9.433  0.1280 -0.2918  0.1453
16464PP      PP26568   2.773  10.850  10.478  0.1426  0.0171 -0.0094
16465PP      PP26569   7.908  15.078   0.132 -0.2271  0.3474  0.1196
16466PP      PP26570  12.055   1.707   3.422  0.0506  0.0851  0.1127
16467PP      PP26571   0.549   7.831  11.531 -0.0196  0.1356 -0.1812
16468PP      PP26572  10.770  12.043   3.425  0.0857  0.0215  0.0125
16469PP      PP26573   0.754   3.460   1.395 -0.2835 -0.1501 -0.1697
16470PP      PP26574   5.450  14.609   9.744  0.1180 -0.0986  0.0035
16471PP      PP26575  11.067   6.343   1.706 -0.3965 -0.1149  0.1400
16472PP      PP26576   1.439  12.909   8.735 -0.0798  0.0549  0.0030
16473PP      PP26577  10.816   1.183  10.378 -0.2820  0.1921  0.0526
16474PP      PP26578   2.916   3.891   3.183  0.2064 -0.3752  0.1244
16475PP      PP26579   7.776   8.232  12.465 -0.0357 -0.1419 -0.3177
16476PP      PP26580  10.906   0.556   9.323 -0.0648 -0.1273 -0.2281
16477PP      PP26581   0.731   3.038   1.649  0.0712  0.1044  0.4508
16478PP      PP26582   5.956   9.859  10.949 -0.1638  0.0602 -0.0890
16479PP      PP26583   2.636  12.804   2.492 -0.4023 -0.1524  0.1232
16480PP      PP26584  12.510  12.573  10.930 -0.2932  0.0009 -0.0604
16481PP      PP26585   6.054   6.346  13.092  0.4828  0.1051 -0.0887
16482PP      PP26586   4.293   6.321   0.154 -0.1873  0.2830 -0.1791
16483PP      PP26587   0.690  12.530  10.663 -0.1270 -0.2386 -0.0619
16484PP      PP26588   9.305   6.094  11.908  0.0045 -0.1773 -0.2597
16485PP      PP26589   0.847   2.206  10.261 -0.0467 -0.2293  0.1631
16486PP      PP26590  11.278   9.473   2.997  0.1956 -0.4331  0.2063
16487PP      PP26591   3.451   2.215  12.652  0.0457  0.1972  0.0270
16488PP      PP26592   7.489   0.142  13.288 -0.0683  0.1731  0.0185
16489PP      PP26593  10.807   5.028   2.242  0.1031 -0.1347 -0.1642
16490PP      PP26594   3.957  14.594   0.437 -0.0012  0.2977  0.1662
16491PP      PP26595   2.789  11.677   3.921 -0.1946  0.2393 -0.3740
16492PP      PP26596  11.078  13.812  11.556  0.0717 -0.0034  0.3383
16493PP      PP26597   8.713   1.043   4.069  0.1064 -0.1035  0.0391
16494PP      PP26598   1.396   0.537   9.523  0.1084  0.1598  0.1529
16495PP      PP26599   8.014   4.623   8.242 -0.1069  0.1616 -0.2699
16496PP      PP26600  14.135  15.177  11.589  0.1174  0.1208 -0.0461
16497PP      PP26601   5.515   8.568  12.325  0.1632  0.0995 -0.0744
16498PP      PP26602  14.434   9.880   1.909 -0.0854 -0.2407  0.1493
16499PP      PP26603  12.816   3.219  13.294 -0.1598 -0.1854  0.3452
16500PP      PP26604  14.363  10.504   1.326 -0.1892  0.2163  0.1318
16501PP      PP26605  13.930   0.448   3.139  0.2237 -0.3004  0.0807
16502PP      PP26606  10.611  12.506  11.743 -0.0877 -0.0424  0.2604
16503PP      PP26607   0.021  13.484   2.778 -0.0791  0.4499 -0.0348
16504PP      PP26608   8.844  13.662   4.771 -0.2874  0.0223  0.1613
16505PP      PP26609  13.086  15.888   1.562 -0.2042  0.4040  0.1985
16506PP      PP26610   7.188   2.430  13.159  0.1733 -0.2682 -0.2815
16507PP      PP26611   0.831   3.937  12.280 -0.1365 -0.0377 -0.0132
16508PP      PP26612  14.394   4.537  12.805  0.1481  0.1881 -0.0268
16509PP      PP26613  11.551  15.495   3.145 -0.1334  0.2699  0.1239
16510PP      PP26614   9.020   8.217   4.194  0.0519 -0.1304 -0.3731
16511PP      PP26615   6.981   5.483   3.202  0.1213  0.1086 -0.1203
16512PP      PP26616   9.529   8.465   9.076  0.0021 -0.0543  0.2453
16513PP      PP26617   8.913  12.557   9.753 -0.3015  0.3288 -0.0878
16514PP      PP26618   3.192   2.948   2.652 -0.0076  0.0476 -0.2629
16515PP      PP26619   9.712   5.964   1.546  0.0891  0.1210  0.0144
16516PP      PP26620  15.255   8.437   9.873 -0.0380  0.2112  0.1426
16517PP      PP26621  10.857  14.869  10.480 -0.1195 -0.3208 -0.1580
16518PP      PP26622  14.695   2.066   0.507  0.2426  0.0189 -0.1379
16519PP      PP26623  15.242   2.289   4.074  0.1337  0.0584 -0.1004
16520PP      PP26624   8.583  12.866   3.972  0.0606 -0.0296  0.1538
16521PP      PP26625   6.621   0.836   3.095  0.0378  0.2431 -0.0458
16522PP      PP26626   0.043  15.495   9.083 -0.0073  0.0008  0.0148
16523PP      PP26627   1.160  14.131  11.040 -0.0102 -0.3774 -0.5522
16524PP      PP26628  12.426   2.657   9.267 -0.2571  0.1604  0.1935
16525PP      PP26629   5.650   1.876  10.836 -0.2803 -0.2119  0.1008
16526PP      PP26630   9.013  12.187  11.663  0.3628  0.2061  0.1854
16527PP      PP26631  12.210   9.701  10.799  0.1082 -0.3470  0.0526
16528PP      PP26632  14.540   8.251  13.013 -0.2872  0.1057 -0.0099
16529PP      PP26633   0.437   9.870  11.661  0.2838 -0.0894  0.1938
16530PP      PP26634   7.833   4.974   0.775 -0.1472 -0.0215 -0.1275
16531PP      PP26635   5.963  10.495  12.754 -0.1503  0.0567 -0.0534
16532PP      PP26636  14.193   5.970  12.547  0.2197 -0.1696  0.1033
16533PP      PP26637   7.125  11.640   0.909  0.1345  0.5776  0.1186
16534PP      PP26638  10.585   0.987   9.984  0.1244 -0.1796  0.1003
16535PP      PP26639  11.009   5.601   2.172  0.2414  0.2448  0.2485
16536PP      PP26640   4.524   9.946   2.276  0.1381  0.2307 -0.0045
16537PP      PP26641  14.497  15.204   2.776  0.1547  0.0606  0.2220
16538PP      PP26642  11.468  11.888  11.501 -0.2033  0.0157 -0.1101
16539PP      PP26643   1.509   3.356   0.680  0.0865 -0.0442 -0.1766
16540PP      PP26644   6.655   6.422  12.309  0.1202  0.2730 -0.2138
16541PP      PP26645  15.748  11.843   2.039  0.1511 -0.2290  0.1363
16542PP      PP26646   7.372  10.605   9.914  0.3042  0.1063 -0.1339
16543PP      PP26647  10.901   2.615  12.856  0.1370 -0.2551 -0.0796
16544PP      PP26648  11.490   9.996   3.664  0.2478 -0.0252 -0.1104
16545PP      PP26649   9.246  12.008   4.178  0.2131 -0.2586 -0.2604
16546PP      PP26650   5.401  11.491   0.050 -0.1272  0.1410  0.0042
16547PP      PP26651   7.410   9.098   1.253  0.1845 -0.2366  0.3777
16548PP      PP26652   9.870   5.077   9.131 -0.0125 -0.0226 -0.0073
16549PP      PP26653  11.774   9.134   0.761 -0.2995  0.4014  0.0705
16550PP      PP26654   8.805  11.846  11.963 -0.1341  0.1681 -0.1202
16551PP      PP26655  11.613  13.046   1.722  0.4404 -0.0548  0.1710
16552PP      PP26656   6.985  12.575  12.440  0.2052  0.1241 -0.2491
16553PP      PP26657   0.664  14.982  11.161 -0.1127  0.0143 -0.0618
16554PP      PP26658   9.809  12.307  13.191 -0.3362  0.0994  0.2865
16555PP      PP26659   5.645   7.365  10.855  0.1536  0.1787 -0.3044
16556PP      PP26660  12.274   4.154  10.873 -0.0532 -0.0453 -0.0279
16557PP      PP26661  11.285   9.153   4.098  0.2729 -0.2883 -0.0824
16558PP      PP26662  15.828   6.203   3.155  0.0288 -0.1305  0.1832
16559PP      PP26663   2.832  11.694  11.120 -0.2143 -0.2417  0.0649
16560PP      PP26664  10.768  10.387   8.739 -0.0529  0.1220  0.1707
16561PP      PP26665  14.119  15.606  12.778  0.4804 -0.1909 -0.2003
16562PP      PP26666  10.145   8.554   0.226  0.1506 -0.0875 -0.0005
16563PP      PP26667   7.117   7.705  12.786 -0.0427 -0.1306  0.1110
16564PP      PP26668   0.717   8.761  12.555  0.0186  0.2949  0.1750
16565PP      PP26669   0.937  13.477   0.015 -0.1015  0.0229 -0.0889
16566PP      PP26670  15.418  11.296   1.240 -0.2046 -0.1412  0.0709
16567PP      PP26671  10.146   2.429   1.722  0.2770 -0.2931 -0.0961
16568PP      PP26672   0.924   3.084   0.508 -0.0606  0.2616 -0.0240
16569PP      PP26673   9.834   3.558   8.918 -0.1301  0.2908 -0.0439
16570PP      PP26674   1.518   0.976  10.263  0.1031  0.3267 -0.1165
16571PP      PP26675   1.694   6.163   0.371 -0.0959  0.1240  0.0938
16572PP      PP26676   2.323  12.271   3.078  0.0311  0.0382 -0.1535
16573PP      PP26677  10.724   7.034  13.196 -0.0498 -0.1118 -0.0621
16574PP      PP26678   4.303  14.744  12.581  0.2100 -0.2414 -0.0606
16575PP      PP26679  10.753   1.963   4.161  0.0598  0.2777  0.4021
16576PP      PP26680   8.310  12.461  12.558  0.0862 -0.1307 -0.0455
16577PP      PP26681   3.964   5.748   3.474 -0.0913  0.0612 -0.0892
16578PP      PP26682   4.157  10.818  10.657  0.2341  0.0370 -0.1426
16579PP      PP26683   6.907   2.060   0.519 -0.0836 -0.0970 -0.0672
16580PP      PP26684  10.169  15.754  10.699  0.1103  0.4537 -0.0904
16581PP      PP26685   5.754   5.976  11.229  0.4217 -0.0047  0.1699
16582PP      PP26686  14.277   2.342  12.536  0.0512  0.0796  0.2132
16583PP      PP26687   2.257   4.049   9.086 -0.0095 -0.0229  0.1599
16584PP      PP26688  14.787   8.025   0.035  0.0065 -0.0079 -0.0007
16585PP      PP26689   8.468  12.549  10.077  0.2297 -0.0304  0.2730
16586PP      PP26690   5.875   4.909  11.313  0.0408 -0.1818  0.2174
16587PP      PP26691   3.336   7.971  10.911  0.0553 -0.4645 -0.1081
16588PP      PP26692   8.663   5.878   4.038  0.0702 -0.1412 -0.3463
16589PP      PP26693   1.652   3.508  12.808  0.1352  0.0911 -0.2980
16590PP      PP26694   6.433   2.066   1.742 -0.1783  0.2842 -0.1108
16591PP      PP26695  12.527  10.879  11.422 -0.0536  0.1311 -0.0166
16592PP      PP26696   8.876   1.288  12.603  0.0319 -0.2190  0.0755
16593PP      PP26697   3.404   4.279  13.330  0.1933 -0.0209 -0.0412
16594PP      PP26698   2.388   2.620   2.261  0.0554 -0.0049  0.0498
16595PP      PP26699  12.598   3.115  12.374  0.0472  0.0038  0.0809
16596PP      PP26700  14.365  14.253   0.222  0.1624  0.0153  0.0818
16597PP      PP26701   5.679  15.290  11.980 -0.2070  0.0038 -0.0468
16598PP      PP26702   9.742   0.296  12.430 -0.3795 -0.2366  0.4546
16599PP      PP26703   8.060   3.896  12.191 -0.1401  0.1419  0.1579
16600PP      PP26704   2.050  10.102   0.225 -0.0056 -0.0736 -0.1452
16601PP      PP26705   1.349   4.236  13.123 -0.4744 -0.2865 -0.1977
16602PP      PP26706   2.692  11.127   0.267  0.1768  0.0037  0.0716
16603PP      PP26707   6.820   1.673   9.898  0.0287 -0.0137 -0.0067
16604PP      PP26708   2.824   6.889  10.597 -0.2574 -0.1102  0.1003
16605PP      PP26709  11.628   2.593   1.226  0.3178 -0.0670  0.1253
16606PP      PP26710   5.664  11.688   9.828 -0.0889 -0.2694 -0.1470
16607PP      PP26711  11.052   5.942   9.224  0.1778  0.1213  0.1689
16608PP      PP26712   3.652   6.336   4.712  0.0942  0.1950 -0.1450
16609PP      PP26713  15.624  11.807   9.230 -0.1865 -0.0861 -0.2102
16610PP      PP26714  13.086   5.026  11.295  0.1258  0.1117  0.3252
16611PP      PP26715   0.681   0.149   3.760  0.0527 -0.2843  0.1895
16612PP      PP26716   9.699   0.030  10.745  0.0814 -0.0531 -0.0875
16613PP      PP26717   6.646   7.613  10.491 -0.0270  0.1114 -0.1172
16614PP      PP26718  13.382   8.884   0.671 -0.1444  0.1637  0.0400
16615PP      PP26719  10.159   3.137  10.823  0.1960 -0.3056  0.1182
16616PP      PP26720   0.365  15.052   8.269 -0.2100 -0.0178  0.0024
16617PP      PP26721   6.900   4.818  13.184  0.1705  0.1454  0.1976
16618PP      PP26722   9.002   9.263  11.115 -0.2992 -0.0587  0.0644
16619PP      PP26723   7.212   9.348   3.592 -0.2468 -0.3843  0.1065
16620PP      PP26724   7.528   8.972   0.088 -0.2092  0.1351 -0.1060
16621PP      PP26725   5.943  15.742   9.574  0.3409  0.2938  0.1451
16622PP      PP26726  10.186   5.750  13.169  0.1133  0.1598 -0.3310
16623PP      PP26727  14.518  10.683  10.240  0.0390 -0.2223  0.2103
16624PP      PP26728  15.862  14.575  11.098 -0.0277  0.2121 -0.0345
16625PP      PP26729  13.686   5.768  11.551  0.5056  0.1170  0.0858
16626PP      PP26730  10.070   0.312   1.372  0.2665  0.3069 -0.2472
16627PP      PP26731  12.757   9.318   0.492  0.0209  0.1439  0.0052
16628PP      PP26732   4.386  11.828   4.287 -0.0661 -0.1239 -0.3192
16629PP      PP26733   9.187  15.175   1.526 -0.1569 -0.0611 -0.4076
16630PP      PP26734   9.314  10.359  13.236 -0.0717 -0.0252 -0.0518
16631PP      PP26735   8.497  14.624  11.916 -0.2717 -0.0639 -0.2010
16632PP      PP26736   3.812   7.581  10.673 -0.1960 -0.1959  0.0637
16633PP      PP26737  13.981   7.471  10.979 -0.1484  0.1608 -0.0731
16634PP      PP26738  11.626   6.458   4.117 -0.0463  0.2878  0.1938
16635PP      PP26739   0.722   8.156  10.625 -0.0986  0.0264 -0.3243
16636PP      PP26740  14.252   6.147   9.219  0.0793  0.1067 -0.0194
16637PP      PP26741  10.209  14.023  13.145 -0.0636 -0.2630  0.2233
16638PP      PP26742   8.253  15.653   0.272 -0.0169  0.0650 -0.1917
16639PP      PP26743  13.976   3.573   0.578  0.0809  0.4369 -0.2691
16640PP      PP26744   4.479   1.743   3.609 -0.2596 -0.0113  0.2108
16641PP      PP26745   4.882   2.495   3.228  0.2643  0.1390  0.0937
16642PP      PP26746  14.511  11.972  10.378 -0.1236 -0.3540  0.0534
16643PP      PP26747   8.276   1.681   9.722  0.3139 -0.4137 -0.0114
16644PP      PP26748   2.516   6.121   4.453 -0.1633 -0.0119  0.0151
16645PP      PP26749   5.351   5.566   0.079  0.1923 -0.0251  0.1208
16646PP      PP26750  15.737  15.121   8.116  0.0122 -0.1632  0.0740
16647PP      PP26751   6.287   9.563  10.474 -0.0574  0.0647  0.1746
16648PP      PP26752   9.981   9.441   0.750  0.2935  0.4141  0.1694
16649PP      PP26753  10.065   6.273   1.699 -0.0144 -0.1670  0.1976
16650PP      PP26754   2.297   2.579   3.718  0.3477  0.0700  0.2033
16651PP      PP26755   3.502  12.587   4.608  0.0775  0.0337  0.1314
16652PP      PP26756   8.312  10.950   9.623  0.1324  0.1434 -0.1988
16653PP      PP26757  11.517   3.198   0.577  0.2213 -0.2598 -0.0826
16654PP      PP26758   3.124   6.412  12.659 -0.1747 -0.2372 -0.0770
16655PP      PP26759   3.546  13.995  11.331  0.0171  0.1304  0.3022
16656PP      PP26760   4.291   0.530   0.578 -0.2211  0.1673 -0.0968
16657PP      PP26761  14.656   1.727   8.212 -0.1832  0.0322 -0.1370
16658PP      PP26762  12.625  15.866   0.168  0.0733 -0.0702  0.0919
16659PP      PP26763   9.627   2.197   9.117 -0.1657 -0.2318  0.0880
16660PP      PP26764   7.124   6.986   0.287 -0.0599 -0.1998  0.3387
16661PP      PP26765   5.251   6.378  10.553 -0.2747  0.0355 -0.0447
16662PP      PP26766  14.474  11.424  12.168  0.1284 -0.1172 -0.3212
16663PP      PP26767  10.575  14.008  10.939 -0.1449  0.0542  0.0299
16664PP      PP26768   9.929   3.621  12.718  0.0691 -0.2250  0.1354
16665PP      PP26769   0.723   0.499  11.539  0.5047 -0.0012 -0.2160
16666PP      PP26770   5.708  15.508  12.548  0.0966 -0.1986 -0.2029
16667PP      PP26771  13.689  13.899  12.866  0.0033  0.0363  0.3745
16668PP      PP26772   1.776  14.651   2.355 -0.1618  0.0166  0.0694
16669PP      PP26773  10.900   5.791  10.677  0.2236  0.2020  0.2223
16670PP      PP26774   7.323   7.546   9.165 -0.1118  0.2347  0.0790
16671PP      PP26775  11.960   7.744   4.106  0.2381 -0.1531 -0.0699
16672PP      PP26776  12.310   0.725  11.312 -0.1195  0.0348  0.3664
16673PP      PP26777  11.747  10.200  12.909  0.2128 -0.0976  0.1878
16674PP      PP26778  11.141  10.184   2.118  0.0216 -0.0765  0.1408
16675PP      PP26779   4.355  12.474   1.315  0.3386  0.0772 -0.0406
16676PP      PP26780  11.491  15.730   0.140  0.1653 -0.0496  0.1314
16677PP      PP26781   0.399   6.726   1.853  0.1247  0.0790  0.4341
16678PP      PP26782   7.022  13.504   0.653  0.1712  0.0429  0.1991
16679PP      PP26783   9.940   8.941  11.905 -0.2074  0.0118  0.0598
16680PP      PP26784   5.623   2.656   3.013 -0.2337  0.2793  0.1067
16681PP      PP26785  15.932   9.635  12.723 -0.1581  0.0990  0.2788
16682PP      PP26786   7.019   6.549   4.057  0.1559 -0.2524 -0.1304
16683PP      PP26787   6.639   3.250   1.730 -0.2347  0.0314  0.1609
16684PP      PP26788   5.127  15.902  11.218  0.0517 -0.2549 -0.3094
16685PP      PP26789   2.993   8.511   3.241 -0.1064 -0.3488 -0.1209
16686PP      PP26790   3.209  12.561   9.641 -0.0485  0.0065  0.2386
16687PP      PP26791   4.109   4.658  12.920 -0.3620 -0.0630 -0.2050
16688PP      PP26792   9.884   5.681   0.558 -0.2002  0.0429  0.4317
16689PP      PP26793   1.320   8.169  12.918  0.1717  0.0102 -0.0149
16690PP      PP26794  14.036   1.068   8.573 -0.3663 -0.1035  0.1666
16691PP      PP26795  12.919  11.705   8.871  0.1091 -0.4236 -0.4022
16692PP      PP26796   5.786  14.355   3.769 -0.0841  0.1814 -0.4235
16693PP      PP26797   3.418  13.051   3.946 -0.3029  0.2962  0.0939
16694PP      PP26798   0.487  14.450   3.219 -0.2291  0.5200  0.3136
16695PP      PP26799   5.414   8.077  11.617  0.2397 -0.0572  0.0650
16696PP      PP26800   6.856  13.789   2.389 -0.2675 -0.1546  0.2348
16697PP      PP26801  12.982  14.844   2.668 -0.1822  0.1264  0.2202
16698PP      PP26802  10.585  13.667   0.439 -0.0542  0.0178  0.0182
16699PP      PP26803   8.181   6.818   0.976 -0.1049 -0.0968  0.0469
16700PP      PP26804   8.568   5.582  11.824 -0.2450 -0.0545  0.0871
16701PP      PP26805  10.343  14.794   5.491  0.4205  0.1080 -0.1134
16702PP      PP26806   0.476   0.303   8.437  0.1833 -0.0460  0.0916
16703PP      PP26807   3.498  11.073  11.734  0.1066  0.0299  0.1425
16704PP      PP26808   4.396  14.946   3.505 -0.0282  0.2092 -0.1922
16705PP      PP26809   0.640   0.464  12.265 -0.4083  0.3659 -0.1695
16706PP      PP26810  14.218   1.538  10.873 -0.2041 -0.0219  0.3150
16707PP      PP26811  11.470  10.214  13.386 -0.1568 -0.1416  0.0404
16708PP      PP26812   0.616   3.189  11.881 -0.2668 -0.2862 -0.1306
16709PP      PP26813   9.276   7.205  11.723 -0.2169 -0.1396 -0.2164
16710PP      PP26814  13.371   4.434  10.122  0.4865 -0.1348  0.5095
16711PP      PP26815   6.558   8.736  12.309 -0.3007 -0.1442 -0.0109
16712PP      PP26816  11.671   7.619  11.871 -0.1552  0.0974  0.0164
16713PP      PP26817  15.138   7.132   2.786  0.2760 -0.4397 -0.0244
16714PP      PP26818   4.722  10.201   2.815 -0.0920  0.1275 -0.1924
16715PP      PP26819  13.095  13.540   2.644  0.0873  0.1369 -0.2276
16716PP      PP26820  12.790  11.707   0.536  0.1319  0.0999  0.1093
16717PP      PP26821   8.293  15.891  11.168 -0.0301  0.0158  0.0355
16718PP      PP26822   2.981   8.040   4.156 -0.2269  0.1678 -0.0342
16719PP      PP26823   7.511   5.871   3.410  0.1311  0.0141  0.2146
16720PP      PP26824   5.525   6.530   9.194  0.0722  0.3026 -0.0369
16721PP      PP26825  12.122   5.919   9.951 -0.0622  0.4401  0.0436
16722PP      PP26826  15.507   2.177   0.424  0.1393 -0.5477  0.0293
16723PP      PP26827  15.590   8.321  11.612  0.1634  0.1941  0.2442
16724PP      PP26828   7.253  10.249   3.957 -0.2496  0.2091 -0.0856
16725PP      PP26829   6.665  13.913   8.790  0.1291  0.1440 -0.4720
16726PP      PP26830  10.746  15.654   9.059 -0.0168  0.0240 -0.0981
16727PP      PP26831   0.453   4.566  12.812 -0.0323 -0.2123  0.0726
16728PP      PP26832   3.451   6.171   0.957  0.5286  0.1554  0.3866
16729PP      PP26833   0.154   2.322   2.355 -0.0329  0.1533  0.2158
16730PP      PP26834   1.245   6.112   0.861 -0.2338 -0.1313  0.0340
16731PP      PP26835   4.996  14.129   9.115  0.0489  0.2002  0.1201
16732PP      PP26836   3.165  14.661   1.089  0.2137 -0.1640  0.0513
16733PP      PP26837  15.568   7.654  12.270  0.1946  0.0244 -0.1545
16734PP      PP26838   9.340  14.572  11.460  0.2403  0.2496 -0.1266
16735PP      PP26839   3.778   8.996  11.986 -0.2188 -0.2018  0.2353
16736PP      PP26840   0.395  15.082  12.168 -0.3134 -0.0188  0.1937
16737PP      PP26841   0.967   5.985  13.297  0.0702 -0.1156 -0.2141
16738PP      PP26842  14.080  11.406  10.763  0.1217 -0.5425 -0.0310
16739PP      PP26843   6.764   5.006   4.050 -0.2150  0.2494 -0.3683
16740PP      PP26844   7.942   3.920   0.429  0.1077 -0.0121  0.0108
16741PP      PP26845  12.086   4.591   9.387  0.1201 -0.0826  0.0339
16742PP      PP26846  13.160  13.091   2.444 -0.0168  0.4242 -0.1555
16743PP      PP26847   4.010  13.274   3.883 -0.1535 -0.1245 -0.0606
16744PP      PP26848  14.635  11.480   0.414 -0.0497  0.3480  0.0114
16745PP      PP26849  13.122   1.898   9.908 -0.2811  0.0506  0.1963
16746PP      PP26850   4.779   6.484   3.158  0.1245  0.0869  0.1697
16747PP      PP26851   5.243  14.676   0.861 -0.0113  0.1262  0.0875
16748PP      PP26852   8.197  10.194   0.802  0.1075  0.3345  0.1129
16749PP      PP26853   0.289   0.573   2.843  0.1911  0.1065 -0.0152
16750PP      PP26854   6.619  13.046   3.525  0.0624  0.1033  0.2845
16751PP      PP26855   7.901   6.185   3.425  0.0301  0.0827 -0.2162
16752PP      PP26856   9.532  14.122   4.505 -0.0286 -0.3229 -0.0849
16753PP      PP26857   8.447   7.491   5.018 -0.2659 -0.2120 -0.4072
16754PP      PP26858   8.256   7.246   4.605 -0.0332  0.3462  0.3542
16755PP      PP26859   2.860   8.597  10.873 -0.1237  0.1083  0.2169
16756PP      PP26860   4.150   2.726   3.035  0.0848  0.0486 -0.0226
16757PP      PP26861   8.778   1.568  12.184  0.2520  0.1798 -0.1819
16758PP      PP26862  15.813   3.359   1.755  0.2462  0.2084 -0.1609
16759PP      PP26863   9.626  13.727   4.895 -0.0253  0.0803  0.2110
16760PP      PP26864   3.794   1.372  10.102 -0.0707  0.1170 -0.1582
16761PP      PP26865  15.218   7.204  12.067  0.2225 -0.1350 -0.1542
16762PP      PP26866  12.791   1.645   1.282  0.1855  0.2085 -0.0533
16763PP      PP26867   1.499   5.523  12.693 -0.0169  0.1945  0.1324
16764PP      PP26868   3.243  12.935  12.517  0.2297  0.0745 -0.0051
16765PP      PP26869   5.366   1.920   2.538 -0.0404  0.1501  0.2914
16766PP      PP26870   8.796  14.607   2.842 -0.1106 -0.0529 -0.0724
16767PP      PP26871  10.240  13.139  12.816 -0.0904  0.1200 -0.1235
16768PP      PP26872  10.601   6.893   3.637  0.0108  0.1544  0.1185
16769PP      PP26873  10.867   0.165   2.823 -0.0438 -0.0444 -0.2169
16770PP      PP26874   9.977   5.345  10.681  0.0114  0.1318 -0.3992
16771PP      PP26875   4.411   9.396   0.593 -0.0182  0.0596  0.2364
16772PP      PP26876   1.459  13.803   2.943  0.0034  0.1006 -0.0454
16773PP      PP26877   5.101   6.658  11.402 -0.1057 -0.2687 -0.0665
16774PP      PP26878   6.430  13.577  10.921 -0.1314 -0.1650  0.3513
16775PP      PP26879   4.308   5.150   4.728  0.3327  0.0728 -0.0529
16776PP      PP26880   1.392   5.559  12.049  0.0513 -0.1706  0.0891
16777PP      PP26881   7.360   6.299   0.897  0.0308 -0.0069  0.3764
16778PP      PP26882   1.523   7.028   1.517  0.0693  0.1229 -0.1137
16779PP      PP26883  10.242   9.997   4.638  0.2282  0.1700 -0.0996
16780PP      PP26884   6.696   7.185  12.738  0.2023  0.0125 -0.0132
16781PP      PP26885  13.240  10.881   0.511  0.1044 -0.2098  0.0244
16782PP      PP26886   9.158   8.055  10.719 -0.2214  0.0002  0.0830
16783PP      PP26887   5.352  11.884  10.446 -0.0114 -0.0515  0.0246
16784PP      PP26888  12.428   0.638  10.000  0.3239 -0.0475  0.2795
16785PP      PP26889  10.920   3.378   2.458 -0.3279  0.3973 -0.2403
16786PP      PP26890   5.266  10.276  13.345  0.1810  0.2544  0.2297
16787PP      PP26891   6.403   8.310  11.964  0.1526  0.1734  0.1292
16788PP      PP26892  11.734  14.961   3.096  0.1463 -0.0318  0.0779
16789PP      PP26893   7.989  14.033  10.209  0.2605  0.1698 -0.0228
16790PP      PP26894   8.712   0.934  11.380  0.0348  0.1958  0.3076
16791PP      PP26895   2.598   0.255   0.078 -0.1238  0.1416  0.1258
16792PP      PP26896   4.942  15.564  10.938  0.1242  0.0217 -0.0261
16793PP      PP26897   1.647   1.640  11.930  0.1622 -0.0112  0.0909
16794PP      PP26898  15.833  12.147   0.603 -0.1075  0.0128 -0.1710
16795PP      PP26899   0.731  14.154  10.825 -0.0755  0.2347 -0.0275
16796PP      PP26900  15.075   7.534   2.421 -0.0695 -0.0726  0.0082
16797PP      PP26901   0.797  10.020  10.823 -0.1234  0.0008 -0.0636
16798PP      PP26902   0.059  13.815   2.399 -0.1914 -0.2953 -0.3036
16799PP      PP26903   9.054   7.844  11.719  0.0367 -0.0482  0.2233
16800PP      PP26904   0.398  12.391  10.276  0.3439 -0.0182  0.2843
16801PP      PP26905  10.794   0.172   4.681 -0.1000 -0.0272  0.0038
16802PP      PP26906   1.419   1.664  12.385 -0.3175 -0.0133 -0.2784
16803PP      PP26907  11.305  14.041   3.836  0.0063 -0.1236  0.1430
16804PP      PP26908   8.697   5.887   3.511 -0.2370  0.0606 -0.1402
16805PP      PP26909  15.693   3.052   0.765 -0.2107  0.2852  0.0380
16806PP      PP26910   4.075  11.325  13.129 -0.1547  0.2026  0.0783
16807PP      PP26911  11.587   5.939  11.261 -0.3677 -0.0161 -0.0095
16808PP      PP26912   7.043   8.077  11.946  0.3093 -0.0627 -0.0046
16809PP      PP26913   8.108  12.171  10.695 -0.0544 -0.1647  0.1240
16810PP      PP26914   4.269   6.232   2.330 -0.1237 -0.0493  0.1836
16811PP      PP26915   6.373   3.018   2.647 -0.2090  0.0579 -0.0310
16812PP      PP26916  10.314  12.302   3.303 -0.2701 -0.2237  0.0792
16813PP      PP26917  10.142  14.721   9.678 -0.1134 -0.0041 -0.0437
16814PP      PP26918  13.692   3.703   9.590  0.0954 -0.1272 -0.0163
16815PP      PP26919   1.459   9.141   2.575  0.3558 -0.0176  0.0546
16816PP      PP26920   3.399   8.135   2.396  0.1682  0.0958 -0.0524
16817PP      PP26921   6.630   9.309   0.194 -0.0528 -0.0126 -0.0765
16818PP      PP26922   7.692  12.023  13.079 -0.0936 -0.1858  0.2338
16819PP      PP26923  10.234   5.803  11.514  0.2388 -0.2190  0.0444
16820PP      PP26924  15.048   4.351   8.655  0.2396  0.1748 -0.1076
16821PP      PP26925   1.385   0.902   1.431  0.1444 -0.0304 -0.0708
16822PP      PP26926   1.240   6.849  12.186  0.3686  0.0825  0.5781
16823PP      PP26927   1.775  15.246   9.789  0.2751  0.0323  0.0552
16824PP      PP26928   3.601   5.023   9.942 -0.2169  0.0398  0.0144
16825PP      PP26929   2.648   7.705   8.900  0.0134  0.1319 -0.1124
16826PP      PP26930   7.670   3.440  12.474 -0.1117  0.0957 -0.1174
16827PP      PP26931   4.048   3.868   4.469 -0.2692  0.0710 -0.1374
16828PP      PP26932   8.018   9.003  12.107 -0.0002 -0.1257 -0.1397
16829PP      PP26933   7.821   3.006   0.225  0.0984  0.2998 -0.1661
16830PP      PP26934   8.238   5.566  10.477  0.1347 -0.0399 -0.2494
16831PP      PP26935  10.767   8.066  12.025  0.1181  0.3355  0.4386
16832PP      PP26936   0.148  15.803   1.356  0.3859  0.0272 -0.0377
16833PP      PP26937   1.609  14.550   9.481  0.1182  0.0563 -0.0075
16834PP      PP26938  10.618  15.097  12.647  0.0437 -0.1750 -0.1441
16835PP      PP26939   1.332  11.042   3.138  0.0976 -0.0952 -0.3567
16836PP      PP26940   3.101  10.638   2.657 -0.0803 -0.0042 -0.1884
16837PP      PP26941   0.209   3.816   8.500  0.2377 -0.1056 -0.2639
16838PP      PP26942   2.280  11.123   3.244 -0.1944  0.2674 -0.3579
16839PP      PP26943  11.913   0.175   0.334 -0.0873  0.1381 -0.1302
16840PP      PP26944   9.233   7.279  10.339  0.0276 -0.2802 -0.2257
16841PP      PP26945   8.092  10.044  10.097  0.0589  0.0867  0.0434
16842PP      PP26946   6.405  15.880  12.407  0.0748 -0.2900  0.0620
16843PP      PP26947   5.997  11.205   2.702 -0.0716  0.4342  0.2490
16844PP      PP26948   0.331   7.346   1.796  0.0379  0.2377  0.1622
16845PP      PP26949   9.712   5.337  11.623 -0.0343 -0.0729 -0.0043
16846PP      PP26950   4.613   8.151  10.532 -0.0283  0.1462  0.0776
16847PP      PP26951   2.299  14.993  11.544 -0.0970  0.0118  0.1539
16848PP      PP26952   3.066   4.717  10.327 -0.2555  0.0926  0.2097
16849PP      PP26953  15.041  10.414  11.274  0.0716 -0.0521 -0.0031
16850PP      PP26954  12.923   3.362  12.021 -0.1614 -0.1434  0.0375
16851PP      PP26955   9.605  13.038  10.017 -0.2209 -0.2386 -0.1816
16852PP      PP26956   5.599   5.159   1.234 -0.0347 -0.1560  0.2937
16853PP      PP26957  15.468   5.991  11.660  0.3530  0.0959 -0.0986
16854PP      PP26958   8.682  12.386   1.253  0.1332  0.0073  0.2406
16855PP      PP26959   2.105   1.948   9.247  0.1345 -0.1436 -0.1968
16856PP      PP26960  11.043   1.690  10.296 -0.0101 -0.1478 -0.1027
16857PP      PP26961   3.155   1.531  12.508  0.3559  0.3047 -0.1087
16858PP      PP26962  10.721  14.486   4.667  0.1628 -0.0637 -0.0538
16859PP      PP26963   5.629  11.364  12.004  0.0201  0.0274 -0.0557
16860PP      PP26964   3.371  10.318  10.779  0.2546 -0.0001  0.3281
16861PP      PP26965   9.018  15.792   0.637  0.0443 -0.0909 -0.2618
16862PP      PP26966   2.432   5.692   2.860  0.2092  0.0898  0.0033
16863PP      PP26967   4.428   9.463   1.860  0.1673 -0.0511 -0.1623
16864PP      PP26968  15.690  11.381   0.796  0.0337  0.1095  0.0255
16865PP      PP26969  12.753  10.323  10.099  0.0987  0.1902  0.0206
16866PP      PP26970   5.310  14.315   4.090 -0.0572 -0.2424  0.1509
16867PP      PP26971   6.805  15.280   3.461 -0.0566 -0.0155  0.2032
16868PP      PP26972  11.589   6.146  11.744  0.0318  0.0119  0.0031
16869PP      PP26973   7.525   7.505   4.191 -0.0177 -0.0728 -0.0783
16870PP      PP26974   5.969  15.507  11.571  0.0731 -0.2784  0.1189
16871PP      PP26975  12.272   2.230   8.802  0.0018 -0.0645  0.4141
16872PP      PP26976   4.803   5.254  11.358  0.2183  0.0304 -0.0546
16873PP      PP26977   8.482   0.293   9.697  0.1929 -0.4198 -0.1613
16874PP      PP26978   3.235  14.892  13.313 -0.1102  0.0567  0.0592
16875PP      PP26979   4.525   8.920  10.964  0.3336 -0.1393 -0.1497
16876PP      PP26980   9.275  11.438   4.278  0.1407 -0.3221  0.1965
16877PP      PP26981   4.124  13.369  10.328 -0.3638  0.0061 -0.0767
16878PP      PP26982  15.322  14.890   3.849 -0.1963  0.2053  0.0100
16879PP      PP26983   8.125  11.603   0.215  0.2653  0.1291 -0.0280
16880PP      PP26984  13.438   4.644   1.620  0.2422  0.1984 -0.1193
16881PP      PP26985  12.000  13.005   0.111 -0.0903  0.1032  0.0477
16882PP      PP26986   1.058  11.038   0.822 -0.2328 -0.1182 -0.1837
16883PP      PP26987   1.306   2.321  10.069 -0.4407 -0.0931  0.1961
16884PP      PP26988   2.654   1.829   9.132 -0.2742  0.3604 -0.1462
16885PP      PP26989   3.095   6.138   3.333 -0.0289 -0.1069 -0.2764
16886PP      PP26990   3.279  14.588  10.669  0.0469 -0.2788 -0.1907
16887PP      PP26991  14.715  14.079   2.976 -0.3263 -0.2286  0.3033
16888PP      PP26992   0.817   3.478  11.521 -0.0178 -0.4505  0.0272
16889PP      PP26993   6.300   2.897  11.585 -0.0110  0.0213  0.0411
16890PP      PP26994   6.522   7.187  10.733  0.0806 -0.1535 -0.3723
16891PP      PP26995   9.556   8.973  10.098  0.2687 -0.0057  0.1455
16892PP      PP26996  10.768   4.435  11.735 -0.2056 -0.0499  0.1806
16893PP      PP26997   0.945  12.940   3.050 -0.1009 -0.1413  0.0098
16894PP      PP26998   6.914   2.260  11.251 -0.0452 -0.1474 -0.2227
16895PP      PP26999   5.704  15.077   1.156  0.0113 -0.2736 -0.1366
16896PP      PP27000   4.711  11.977  10.249  0.0583 -0.2192 -0.0423
16897PP      PP27001   1.761  15.045   2.060 -0.2253 -0.1837 -0.3511
16898PP      PP27002  10.280   1.637   4.857  0.1380  0.1117  0.4462
16899PP      PP27003   4.602  11.833   9.022 -0.2566 -0.4638 -0.1037
16900PP      PP27004   9.206   1.483  13.324  0.3999  0.0357  0.0488
16901PP      PP27005  12.836   8.654   9.628  0.1890  0.1483 -0.0096
16902PP      PP27006   4.470   1.852   9.593 -0.0287 -0.0111 -0.1861
16903PP      PP27007  14.897  10.646   3.217 -0.2470  0.1917  0.0432
16904PP      PP27008   6.323  15.768   0.015 -0.1213 -0.1207  0.0364
16905PP      PP27009   2.290   9.803   2.813  0.0953  0.1068 -0.0908
16906PP      PP27010  12.698   4.496   3.766 -0.2432  0.1130 -0.0137
16907PP      PP27011   8.473  13.740   8.971 -0.1156  0.0389  0.0006
16908PP      PP27012   9.905   3.117  11.662  0.0361 -0.2628 -0.1388
16909PP      PP27013   6.156  10.967  12.412 -0.0450  0.1739  0.3924
16910PP      PP27014   6.369   0.498   1.152  0.1361  0.2330  0.0589
16911PP      PP27015  15.198   3.734   3.194  0.0456 -0.1306 -0.0187
16912PP      PP27016  15.258   6.063  12.218  0.2523 -0.3125  0.1590
16913PP      PP27017   5.118  11.267   9.322 -0.0757  0.2524 -0.0665
16914PP      PP27018   2.505   2.789  12.884  0.1556 -0.2620  0.2100
16915PP      PP27019  14.581   3.073   4.152 -0.1499 -0.0010  0.2465
16916PP      PP27020   6.262  14.054   3.381 -0.1162  0.0920  0.0566
16917PP      PP27021   1.376   6.531   8.665  0.2904 -0.1651  0.2117
16918PP      PP27022  11.061  14.764   3.777 -0.2845 -0.0821  0.0499
16919PP      PP27023   7.185   1.186   9.952  0.1165  0.1210  0.1772
16920PP      PP27024   0.359   3.388   8.430 -0.1455  0.3280 -0.1898
16921PP      PP27025  13.791   0.907   3.163  0.1496  0.0909 -0.2014
16922PP      PP27026  10.565  12.309   1.850 -0.0309  0.0865 -0.0699
16923PP      PP27027   0.279  11.023  13.199  0.0205  0.1254  0.1841
16924PP      PP27028   4.052   3.583  10.199  0.1096 -0.0807 -0.0330
16925PP      PP27029   5.493   4.690   0.357 -0.0916  0.0315  0.1430
16926PP      PP27030   1.643   5.522   2.567  0.0974  0.2835  0.1665
16927PP      PP27031  11.878   6.520  10.825 -0.1137 -0.1197  0.1045
16928PP      PP27032   2.207  12.149   2.221 -0.0039 -0.2046  0.2685
16929PP      PP27033   4.157  15.279   9.464 -0.0722  0.1234 -0.3734
16930PP      PP27034  14.909   7.215  10.955 -0.1054 -0.1155  0.2741
16931PP      PP27035   5.353  15.338   0.495 -0.1708  0.2065  0.0370
16932PP      PP27036  10.757   7.714   2.188  0.0054 -0.1477 -0.0228
16933PP      PP27037   8.829   3.756  10.878  0.2040 -0.2628  0.1158
16934PP      PP27038  11.463   9.241   1.766 -0.0280  0.1485  0.2618
16935PP      PP27039   9.064   5.076   1.512 -0.1665  0.0723  0.2577
16936PP      PP27040   5.935  11.753   2.649  0.3222  0.0054 -0.3432
16937PP      PP27041  11.150   1.441  10.805  0.1125 -0.0717  0.0589
16938PP      PP27042  15.436   8.892   1.300  0.3244 -0.1649  0.1177
16939PP      PP27043  11.649   4.824   3.067  0.0973  0.1883  0.0754
16940PP      PP27044  11.119  14.142  10.215  0.4623  0.1956 -0.2033
16941PP      PP27045  12.397   3.482   0.667 -0.1532  0.0736  0.0407
16942PP      PP27046   0.918  15.031   7.970  0.0463  0.1821  0.2487
16943PP      PP27047   8.527   2.876  11.809  0.1481 -0.0539 -0.0544
16944PP      PP27048  12.891  15.061   9.137 -0.1112  0.0143 -0.2781
16945PP      PP27049   4.921  13.212   2.020 -0.0678 -0.1318  0.0679
16946PP      PP27050  12.500   9.970  11.239  0.0663 -0.0203 -0.0515
16947PP      PP27051  15.299   9.329   9.385 -0.1385  0.1723  0.0992
16948PP      PP27052   3.901   4.216  13.130 -0.1085  0.1367 -0.1936
16949PP      PP27053   0.082  12.959   2.644 -0.1252  0.0471  0.0889
16950PP      PP27054   9.013   0.930   0.619  0.0538 -0.1109 -0.1858
16951PP      PP27055   3.016  15.420   3.281 -0.3560 -0.1208 -0.2096
16952PP      PP27056   0.717   2.734   3.482  0.0774  0.1911  0.1121
16953PP      PP27057   3.645   7.783   9.679  0.1965 -0.1596 -0.0145
16954PP      PP27058   7.166   7.188  10.023 -0.2950  0.3149 -0.1069
16955PP      PP27059   4.638   9.362  10.053  0.0322  0.3064 -0.0186
16956PP      PP27060   8.567   7.463  10.264 -0.0965  0.1444  0.0836
16957PP      PP27061  13.675  14.029  10.144  0.0137  0.0429  0.2373
16958PP      PP27062   3.618  11.684   1.395 -0.0364 -0.0972  0.3222
16959PP      PP27063   8.556   1.419   0.868 -0.0176 -0.0623 -0.2027
16960PP      PP27064   7.810  14.416  11.955 -0.0227 -0.1127  0.1338
16961PP      PP27065   0.394   2.640   2.936  0.1771 -0.3383  0.1129
16962PP      PP27066   2.626  13.181   0.013  0.0879 -0.2053  0.1882
16963PP      PP27067   1.110   6.681  10.927 -0.1283 -0.1256  0.1587
16964PP      PP27068  10.646  10.755  10.579  0.0364  0.0795 -0.0463
16965PP      PP27069  13.371  14.367   3.435 -0.2870 -0.1021 -0.1572
16966PP      PP27070  15.670  10.901  12.096 -0.1454  0.1070 -0.0981
16967PP      PP27071  12.774  12.123   4.474 -0.0372  0.0631  0.1129
16968PP      PP27072   7.511   0.489   9.291 -0.0041 -0.0457  0.0760
16969PP      PP27073  13.353  15.404  12.668  0.2263 -0.0097 -0.0396
16970PP      PP27074  13.875  13.201   0.003  0.1465  0.1153  0.0691
16971PP      PP27075  14.521   9.445  12.001  0.0106  0.1060  0.2242
16972PP      PP27076  13.179   2.410  12.559 -0.0418  0.2128  0.1870
16973PP      PP27077  13.367  11.849   3.709  0.1005 -0.1181 -0.4556
16974PP      PP27078   2.020  14.527   9.821  0.1389 -0.1711 -0.0078
16975PP      PP27079   1.155  15.709   1.440 -0.0005 -0.1966 -0.0807
16976PP      PP27080  12.883  13.164   3.482 -0.1176 -0.2414  0.3140
16977PP      PP27081   7.820  13.500  13.388  0.4421  0.0593  0.2479
16978PP      PP27082  15.281   1.511   2.163 -0.1786  0.0367 -0.0572
16979PP      PP27083  12.362   2.423   5.009 -0.1863 -0.1828 -0.1215
16980PP      PP27084  11.677  10.503  12.193 -0.1135 -0.2228  0.1626
16981PP      PP27085   3.658   7.431  11.584  0.1189  0.2659 -0.0208
16982PP      PP27086   5.074   2.575   1.601  0.2096 -0.0761 -0.2998
16983PP      PP27087   5.747   1.085   0.142 -0.4538  0.3372 -0.3338
16984PP      PP27088   9.925   4.805   1.618 -0.0391  0.0760  0.2657
16985PP      PP27089   6.994  13.446  10.744  0.1588 -0.0101  0.0741
16986PP      PP27090   3.240  12.643   9.137  0.2091 -0.1541 -0.0128
16987PP      PP27091  14.031   7.026   0.359 -0.0009  0.0031 -0.0508
16988PP      PP27092   2.369   8.464  10.858 -0.1463  0.3074  0.0336
16989PP      PP27093   7.143  13.249   4.020 -0.2379  0.1700 -0.2125
16990PP      PP27094   8.730  13.924   1.750  0.1182 -0.0230 -0.0338
16991PP      PP27095  11.974   0.380  10.002 -0.2799  0.0619 -0.0935
16992PP      PP27096  12.187   2.585  10.226  0.0962 -0.0384  0.0725
16993PP      PP27097   2.601   0.484  11.849  0.0936  0.0293 -0.0128
16994PP      PP27098   3.958   3.381   9.330  0.3883 -0.2157  0.2105
16995PP      PP27099   5.029   7.123  10.046 -0.2313  0.1560 -0.0234
16996PP      PP27100  15.557   3.638   8.341  0.2222  0.1080  0.1097
16997PP      PP27101   5.881  12.961   2.058  0.0680  0.3901 -0.1638
16998PP      PP27102   5.236   4.692  11.612  0.1273 -0.0882  0.0593
16999PP      PP27103   8.721   5.527   4.413  0.3555  0.1058 -0.4152
17000PP      PP27104   9.043   4.660   2.539 -0.1417 -0.1431 -0.5200
17001PP      PP27105   3.922   9.055   3.048  0.1482 -0.0720 -0.0482
17002PP      PP27106  12.987  14.697   0.630 -0.2020  0.0273 -0.0160
17003PP      PP27107   7.640   7.208   4.694 -0.0946  0.0570 -0.1458
17004PP      PP27108  11.147   0.415   3.738 -0.2628 -0.1500  0.1320
17005PP      PP27109  13.878  15.863   2.368 -0.0690 -0.0420 -0.1138
17006PP      PP27110   7.868   4.076   4.187  0.0909  0.1083 -0.1624
17007PP      PP27111  12.114  13.435   3.992 -0.1398  0.3007 -0.0634
17008PP      PP27112   8.796  10.637  11.523  0.2114 -0.0762  0.1657
17009PP      PP27113   3.449   8.159  12.078  0.1183 -0.0093  0.0558
17010PP      PP27114  11.362  12.263   0.548 -0.3401  0.2059 -0.2624
17011PP      PP27115   4.594   4.756  13.223  0.0717  0.0466 -0.0616
17012PP      PP27116   0.862  13.673  10.743 -0.1978  0.0210  0.1148
17013PP      PP27117  11.841   7.288   1.223 -0.1691 -0.0243  0.2193
17014PP      PP27118   8.687   4.272   1.212 -0.3289  0.0332 -0.0018
17015PP      PP27119   8.715   0.333  12.298  0.0531  0.1985  0.1662
17016PP      PP27120   5.004   6.953   3.358 -0.1594  0.0603  0.1244
17017PP      PP27121   7.416   2.937  11.385 -0.1029  0.0529  0.0208
17018PP      PP27122   4.811  12.500  10.660 -0.1055  0.2165 -0.0644
17019PP      PP27123   1.626   4.616  11.010 -0.2083  0.0151 -0.3371
17020PP      PP27124  12.493   4.964   3.703 -0.0613 -0.0413  0.1033
17021PP      PP27125   0.404   7.507  10.103 -0.0751 -0.1365 -0.1422
17022PP      PP27126   6.355   4.778   8.832 -0.0006  0.0870  0.0609
17023PP      PP27127   4.211   3.537   0.871 -0.0226 -0.0434 -0.0463
17024PP      PP27128  14.059   5.945   3.107 -0.0865 -0.0329  0.0618
17025PP      PP27129  10.213   7.457  12.498  0.2716 -0.0687  0.0197
17026PP      PP27130   2.149  10.532   2.643  0.0420  0.1741 -0.2686
17027PP      PP27131   5.237  14.101   0.616  0.2125  0.1018 -0.1699
17028PP      PP27132  13.002   2.851   8.996 -0.0967 -0.0442  0.0024
17029PP      PP27133   7.785  13.552   8.882  0.0014  0.0611  0.3492
17030PP      PP27134   9.214  12.283  13.345 -0.0744  0.0737 -0.4216
17031PP      PP27135   0.622   0.753   3.285  0.2609 -0.0313  0.0027
17032PP      PP27136   0.225   4.557  12.176  0.0241  0.0423  0.4031
17033PP      PP27137  14.938   5.073  11.971  0.0621  0.1665  0.1435
17034PP      PP27138  13.014   2.767   2.228 -0.2070 -0.5204 -0.3255
17035PP      PP27139   0.819   6.249   2.888 -0.2472 -0.0488  0.2171
17036PP      PP27140  10.011   1.836   2.994 -0.0416  0.1140 -0.2340
17037PP      PP27141   8.403   0.107  11.960 -0.0959 -0.0281  0.1057
17038PP      PP27142   1.220   6.649   4.174  0.0034  0.0127 -0.0546
17039PP      PP27143  10.458   3.225  13.331 -0.0342 -0.0236 -0.2456
17040PP      PP27144  12.256  10.695   1.116 -0.2232 -0.3810 -0.2516
17041PP      PP27145   4.326   8.435   3.612 -0.0111  0.2148 -0.0448
17042PP      PP27146  11.914   8.555  13.388 -0.1798  0.1392 -0.0587
17043PP      PP27147   9.023   4.074  10.498  0.3364  0.0187  0.0822
17044PP      PP27148  15.484   2.427   3.562 -0.0028 -0.4410  0.1513
17045PP      PP27149   8.462   9.343   2.683  0.0144  0.1120 -0.0563
17046PP      PP27150  15.887  14.758  10.637 -0.0010  0.1306 -0.1333
17047PP      PP27151   7.915   2.822  11.780  0.1849 -0.0845  0.2780
17048PP      PP27152   0.385   8.780   2.803  0.1777 -0.0343  0.0610
17049PP      PP27153   1.431  15.409  10.723 -0.0105 -0.1028  0.0491
17050PP      PP27154  14.116  12.444   8.772  0.2348 -0.0395 -0.0477
17051PP      PP27155  10.899   9.128   4.947 -0.1163 -0.0815 -0.0284
17052PP      PP27156  13.013   2.598  12.988  0.0969  0.2626 -0.0168
17053PP      PP27157  12.405   6.051   4.519  0.0738 -0.2218  0.0650
17054PP      PP27158   5.660   8.514  11.392  0.2014  0.0183 -0.1131
17055PP      PP27159   7.353   0.093   9.577 -0.1082 -0.0606  0.0681
17056PP      PP27160  13.766   1.314  10.725  0.0994 -0.0177 -0.0754
17057PP      PP27161  14.310   2.870   1.990  0.0860  0.1023 -0.0479
17058PP      PP27162   2.389  13.813   3.607  0.4808 -0.2106 -0.0410
17059PP      PP27163   3.667   9.768   1.161  0.1581 -0.0317  0.2603
17060PP      PP27164  12.953   5.658   2.834  0.2535  0.0663 -0.0727
17061PP      PP27165   6.249   3.499  10.233  0.3351  0.2183  0.0221
17062PP      PP27166   3.471   5.117  11.556 -0.1091 -0.0305 -0.3436
17063PP      PP27167   5.264   3.337  10.121  0.1143  0.1076 -0.0258
17064PP      PP27168   3.892   8.570   9.186  0.2130  0.0509  0.1071
17065PP      PP27169  13.111  11.415  10.483  0.2213  0.0079 -0.1547
17066PP      PP27170   3.461   5.471   9.511  0.0489  0.0284 -0.0810
17067PP      PP27171  13.515   9.749   9.888  0.2429  0.0186 -0.2287
17068PP      PP27172  15.531   9.829   0.873  0.0219 -0.2091  0.0726
17069PP      PP27173  15.891  12.778  11.794  0.2219 -0.0670 -0.1904
17070PP      PP27174   8.532   1.215  11.828 -0.1976  0.0286 -0.3915
17071PP      PP27175   5.951   2.358   1.022 -0.0386 -0.0361 -0.0130
17072PP      PP27176  14.202   2.998   9.364  0.1067  0.0483 -0.1439
17073PP      PP27177  11.502   7.605   0.986  0.1952 -0.0089 -0.0626
17074PP      PP27178   4.575   4.072   1.672  0.2197 -0.0867  0.1246
17075PP      PP27179   2.732   0.982  10.470 -0.0544  0.0282 -0.2880
17076PP      PP27180   9.187   5.749   3.546  0.2288  0.2736 -0.0805
17077PP      PP27181  12.438  13.631   4.362 -0.2344 -0.0399  0.0130
17078PP      PP27182   2.922   1.088  11.853 -0.0010 -0.0469  0.0720
17079PP      PP27183   5.115  14.267  10.948 -0.0853 -0.0017  0.4109
17080PP      PP27184  15.615  11.934  11.528 -0.0227  0.2718  0.2032
17081PP      PP27185  10.582   5.557   9.256  0.1322  0.0161 -0.1281
17082PP      PP27186   5.314   1.749   9.085  0.1326 -0.0830  0.2568
17083PP      PP27187   3.568  14.863  11.378  0.0750 -0.0176  0.0820
17084PP      PP27188  15.153   2.060   9.908  0.2743  0.1185  0.1150
17085PP      PP27189   2.647   9.629  11.681  0.0535  0.1432  0.0790
17086PP      PP27190  13.765  14.986   0.564  0.1307 -0.3218  0.1435
17087PP      PP27191   2.222   4.101   3.904 -0.2411  0.3748 -0.1378
17088PP      PP27192   2.665  13.182   9.681  0.1187 -0.0271  0.0862
17089PP      PP27193   2.706  12.961   3.020  0.1145  0.0218  0.0374
17090PP      PP27194   0.148   3.160  10.835  0.3167  0.2835 -0.0578
17091PP      PP27195  10.565   6.238  12.062 -0.4548  0.4466 -0.2535
17092PP      PP27196  13.790   5.307   2.684 -0.0721 -0.1429  0.1151
17093PP      PP27197   9.407  15.694  11.745  0.0864 -0.1057  0.0739
17094PP      PP27198  10.351   6.759   0.590 -0.0268 -0.3193  0.2238
17095PP      PP27199  10.071  10.289   4.035 -0.0490 -0.4004  0.3249
17096PP      PP27200   0.935  11.918   3.061  0.0178 -0.1065 -0.0361
17097PP      PP27201   8.678  11.755   2.743 -0.1241 -0.1938 -0.0733
17098PP      PP27202   9.688  13.145  10.969 -0.1957 -0.1185  0.5733
17099PP      PP27203  14.779   7.051   3.179  0.1072  0.1930 -0.0158
17100PP      PP27204   1.396  12.002   4.049  0.1540 -0.2101  0.0265
17101PP      PP27205  13.765   4.912   0.713  0.2525  0.0959  0.3503
17102PP      PP27206  12.966  10.733  11.105 -0.0934 -0.4010  0.3079
17103PP      PP27207   2.426  12.100  11.233 -0.3102 -0.1761  0.0932
17104PP      PP27208   7.019   4.178   2.580  0.3228 -0.1364  0.2693
17105PP      PP27209  14.174   3.146   0.368 -0.2150  0.0289 -0.1729
17106PP      PP27210   2.561  14.116  11.262 -0.2775  0.0722  0.1094
17107PP      PP27211   9.444   5.750   1.924 -0.0535 -0.0539 -0.1758
17108PP      PP27212  12.408   5.423   0.856 -0.2315  0.2173  0.0801
17109PP      PP27213  12.186  12.734   9.388 -0.0528  0.0414 -0.0050
17110PP      PP27214   5.850   8.379   1.140  0.4502  0.2454  0.0821
17111PP      PP27215   7.458  13.250   8.687  0.0217 -0.0083  0.2758
17112PP      PP27216   0.999  14.306  10.221 -0.0664  0.0297  0.0522
17113PP      PP27217   2.583   1.003   0.979  0.1146  0.1754 -0.2322
17114PP      PP27218  12.559  12.263  13.041 -0.0442  0.1432  0.0333
17115PP      PP27219   0.148   7.654  12.095  0.2163 -0.0011  0.1539
17116PP      PP27220   2.447  10.628  12.790  0.2644  0.2507 -0.0794
17117PP      PP27221  15.618  15.275  12.404 -0.2560 -0.4309  0.3828
17118PP      PP27222   5.352   3.791  13.073 -0.3226 -0.0066 -0.0907
17119PP      PP27223   5.180  10.943   0.110  0.0705  0.1223 -0.3079
17120PP      PP27224  15.597   0.548  10.349 -0.0037  0.1469 -0.0297
17121PP      PP27225  10.681   1.380   2.143  0.0610  0.3121  0.3279
17122PP      PP27226  11.412   9.331  10.586  0.2191 -0.1198 -0.2746
17123PP      PP27227   8.268   2.476   0.955  0.1767  0.0999  0.0339
17124PP      PP27228   3.249   3.122  11.744 -0.2655 -0.1813  0.0082
17125PP      PP27229  10.823   1.810  13.035  0.3299 -0.0226  0.0625
17126PP      PP27230   9.938  12.071   2.622 -0.2101 -0.1304  0.4379
17127PP      PP27231  14.437   4.442   2.828  0.0773  0.1628 -0.0412
17128PP      PP27232  14.623  12.489   1.091 -0.1729 -0.3899 -0.2055
17129PP      PP27233   7.686  15.331   1.065 -0.2905  0.2128 -0.3118
17130PP      PP27234   7.900   3.056  11.248 -0.2293 -0.3083 -0.3951
17131PP      PP27235  15.798   0.047   9.166  0.1275 -0.1114 -0.0202
17132PP      PP27236   6.753   7.986   3.487 -0.0966  0.0071  0.0010
17133PP      PP27237   7.675  11.182  12.854  0.0992 -0.1719  0.0141
17134PP      PP27238  15.889  14.232   1.214 -0.2174 -0.5404  0.1010
17135PP      PP27239   5.439   5.974   0.378 -0.1723 -0.0310  0.1897
17136PP      PP27240   2.434   9.528   4.048  0.2511  0.1960  0.3229
17137PP      PP27241  12.185  13.836   3.553  0.0089 -0.4314 -0.3477
17138PP      PP27242  12.059   6.893  10.345  0.3684  0.0064 -0.0792
17139PP      PP27243  13.940  13.351  10.573 -0.0129  0.1116 -0.0750
17140PP      PP27244  10.775   8.589  10.840  0.1651 -0.0339  0.0161
17141PP      PP27245  13.711  11.546  10.404  0.0949 -0.1544  0.1297
17142PP      PP27246   9.569   3.088  13.091 -0.1425 -0.0580  0.0275
17143PP      PP27247  12.724   1.288   3.838 -0.0970 -0.0972  0.1400
17144PP      PP27248   2.838  13.047  11.640 -0.0087  0.1876 -0.0465
17145PP      PP27249   3.292  10.608   2.073  0.2374 -0.0402 -0.1187
17146PP      PP27250   3.659  12.581   9.346 -0.0664  0.1633  0.3890
17147PP      PP27251  13.533  10.385   8.887 -0.0312  0.0342  0.4585
17148PP      PP27252  11.597   4.655   3.996  0.0281  0.0257 -0.1993
17149PP      PP27253  11.822   4.600   8.500  0.0271 -0.0769  0.0198
17150PP      PP27254   7.581   8.653  10.273  0.2298 -0.2229  0.4140
17151PP      PP27255   7.987   9.043  13.274 -0.1636 -0.0095  0.1292
17152PP      PP27256   3.291   3.658   1.709 -0.0001 -0.1059 -0.0643
17153PP      PP27257   6.586   4.117   3.745 -0.1840 -0.3411 -0.0587
17154PP      PP27258  11.791  14.471  10.252 -0.1670  0.2737 -0.1011
17155PP      PP27259  11.697  14.755  12.354 -0.0758  0.0535 -0.0672
17156PP      PP27260   7.139  11.205  11.054  0.3084 -0.2957 -0.2335
17157PP      PP27261   9.497  10.290  12.584  0.0159 -0.0445 -0.2136
17158PP      PP27262  11.231  12.357   0.083 -0.3406 -0.1329  0.0399
17159PP      PP27263   2.228   6.352  10.052 -0.0072  0.0004  0.1427
17160PP      PP27264  14.782  11.672   9.425  0.1549  0.0734 -0.0036
17161PP      PP27265  11.183  12.295   3.171 -0.0881 -0.2507 -0.1670
17162PP      PP27266   8.812  12.874  11.142  0.2118 -0.0800  0.1937
17163PP      PP27267  15.876   1.357   1.863 -0.1771 -0.1628 -0.0231
17164PP      PP27268   4.996   8.189   2.362 -0.1353 -0.1395 -0.0947
17165PP      PP27269   7.689   6.824  10.813 -0.0954 -0.1863 -0.0675
17166PP      PP27270   4.298   5.768   2.685 -0.0592  0.2575 -0.3216
17167PP      PP27271  15.767   8.964   2.819  0.1195 -0.1976  0.0372
17168PP      PP27272  11.969  13.256   1.108  0.0471  0.1753 -0.0434
17169PP      PP27273   0.027  11.711   8.867  0.0607  0.2305  0.0107
17170PP      PP27274   2.519   8.877  10.225 -0.3195  0.2726 -0.2180
17171PP      PP27275   4.110  11.160   3.694 -0.2729  0.2741 -0.3631
17172PP      PP27276   8.700   7.222  11.719 -0.1345 -0.0077 -0.1095
17173PP      PP27277   3.268  15.608   8.753  0.0267  0.1302 -0.0860
17174PP      PP27278   0.162  14.897   8.838 -0.1151  0.1273 -0.1086
17175PP      PP27279   7.343   0.595   1.116  0.2781  0.4307  0.2610
17176PP      PP27280   3.851   6.791  10.283 -0.3250 -0.2522  0.0321
17177PP      PP27281   7.053   4.322  13.208 -0.0848 -0.1915 -0.0670
17178PP      PP27282  12.395   5.586  11.059  0.2829  0.0993  0.1103
17179PP      PP27283  14.705  14.422   2.612 -0.0249 -0.0691  0.0183
17180PP      PP27284   3.767  15.661   0.732 -0.3388 -0.2179 -0.0169
17181PP      PP27285   0.216  13.327   8.557  0.4154  0.0263 -0.1838
17182PP      PP27286   6.505  10.105   3.546 -0.1907 -0.0736  0.2380
17183PP      PP27287  15.142   0.092   9.306  0.0094  0.4425  0.0850
17184PP      PP27288   1.579   4.023  12.708  0.0342 -0.2297  0.1379
17185PP      PP27289  14.917   9.943   9.078  0.1153 -0.0542  0.0984
17186PP      PP27290   9.905  11.830   0.009 -0.2390  0.0381  0.1192
17187PP      PP27291  11.983   7.557   1.647  0.1494 -0.1284 -0.1179
17188PP      PP27292   7.837   1.863   9.941  0.3393  0.2635 -0.1606
17189PP      PP27293  13.794   5.054   1.280  0.2338  0.0708  0.0017
17190PP      PP27294   4.689  12.680  11.921  0.2835  0.3106 -0.0923
17191PP      PP27295   3.646  10.508   0.831  0.2673  0.0317  0.0153
17192PP      PP27296   7.854  13.554  11.263  0.1440 -0.4213 -0.1279
17193PP      PP27297   5.779  12.782   8.932 -0.1126 -0.0899  0.1114
17194PP      PP27298   3.048   6.436   2.728  0.0135 -0.2914  0.2093
17195PP      PP27299   1.861   0.224   8.418  0.1040 -0.1092  0.0028
17196PP      PP27300   9.340   0.567   9.943  0.1094 -0.0733 -0.1047
17197PP      PP27301   8.761   0.724   9.802 -0.1654  0.0868 -0.1099
17198PP      PP27302   0.677   0.219   2.637 -0.0220  0.0150 -0.3339
17199PP      PP27303   6.913   5.444   9.337 -0.3879  0.0023 -0.0419
17200PP      PP27304   2.691   1.181  12.292  0.0303 -0.0608  0.0410
17201PP      PP27305   5.215  12.260   0.323 -0.1227 -0.1929 -0.2509
17202PP      PP27306   2.478   6.706   9.090 -0.0552  0.0208 -0.3009
17203PP      PP27307  13.735  12.224   3.762 -0.2117 -0.2638 -0.3062
17204PP      PP27308   9.574  13.694   9.230  0.1395  0.2867  0.0925
17205PP      PP27309   6.692   0.321   3.322 -0.3812  0.0768 -0.1563
17206PP      PP27310   0.643  13.966  10.343  0.2752 -0.0773 -0.3013
17207PP      PP27311   5.096   9.263   9.701  0.0277  0.0342  0.1240
17208PP      PP27312   5.544   5.946  10.355 -0.1084 -0.0560  0.3143
17209PP      PP27313   9.707   0.361   3.321  0.0555 -0.2846 -0.0245
17210PP      PP27314   8.698  11.439   0.252  0.0305  0.2520  0.2213
17211PP      PP27315   5.196   9.435  12.766  0.1558  0.0892  0.0002
17212PP      PP27316  13.619   4.466   0.730  0.1258  0.1789 -0.1014
17213PP      PP27317   2.109  15.213   2.370  0.3239  0.5233  0.3183
17214PP      PP27318   2.059   7.446   2.236 -0.0105 -0.2996  0.0098
17215PP      PP27319   7.561   5.363   2.581 -0.1485  0.1867  0.1453
17216PP      PP27320   6.205   5.502  12.416 -0.0512  0.3106  0.0161
17217PP      PP27321   9.758  13.210   2.591 -0.0232 -0.0644  0.2713
17218PP      PP27322   8.242  14.459  10.221  0.1742  0.3152  0.1178
17219PP      PP27323   6.327  11.431   1.426 -0.2636  0.0393 -0.1158
17220PP      PP27324  14.957  11.508   1.247  0.2343 -0.2717 -0.0210
17221PP      PP27325  11.224  14.179   1.691 -0.0564 -0.2793  0.0760
17222PP      PP27326   6.410   2.334   1.364  0.0232 -0.3887  0.1958
17223PP      PP27327  13.114   2.479  11.230 -0.2845 -0.0665  0.0348
17224PP      PP27328   4.192  14.433   9.312  0.4206 -0.3162 -0.3077
17225PP      PP27329  14.516  10.221   0.266 -0.1309  0.0431 -0.3713
17226PP      PP27330   6.680  15.001  12.609  0.2428  0.0141  0.2492
17227PP      PP27331   6.926   7.404  10.871 -0.0741  0.0629  0.0425
17228PP      PP27332  13.991   1.825   1.126 -0.0086  0.1773 -0.0533
17229PP      PP27333  14.876   2.640   2.778 -0.1578  0.1750 -0.0899
17230PP      PP27334  11.645  10.645  10.424  0.0502  0.4704 -0.0959
17231PP      PP27335  13.149   3.767  11.722  0.2619 -0.2381  0.2431
17232PP      PP27336   0.868  12.815   1.813  0.0267 -0.2145 -0.0462
17233PP      PP27337  13.655   7.487   1.822  0.2028 -0.0379 -0.1273
17234PP      PP27338   0.969  12.348   9.142  0.3714  0.1401  0.0406
17235PP      PP27339  11.500  14.624   0.792 -0.0413 -0.4214  0.0915
17236PP      PP27340  10.075   9.402  10.825 -0.2716  0.2820  0.1014
17237PP      PP27341   2.638   5.207   3.379 -0.1788  0.1677 -0.0659
17238PP      PP27342   4.760   6.885   4.708  0.3917 -0.1011  0.0343
17239PP      PP27343   9.720   7.006   3.650  0.1722  0.0139 -0.3239
17240PP      PP27344   3.646   1.015  12.137 -0.1902 -0.1055  0.0202
17241PP      PP27345   7.995  13.133  13.070  0.0391  0.2094  0.0619
17242PP      PP27346   6.509  10.793   2.308  0.5262 -0.0832  0.1521
17243PP      PP27347   0.420   9.986   3.211  0.1038  0.0281  0.3768
17244PP      PP27348   7.700  13.674   8.418  0.0898 -0.2508 -0.5586
17245PP      PP27349  15.621   9.248  12.565 -0.0027 -0.0095 -0.1915
17246PP      PP27350  10.589   9.446   4.018  0.0161  0.0376  0.2924
17247PP      PP27351  14.559  14.665  12.760 -0.0162  0.1475  0.3018
17248PP      PP27352  10.179   0.965  12.886 -0.1114  0.2824  0.2474
17249PP      PP27353   6.727  12.330  10.764  0.0859 -0.1237  0.3655
17250PP      PP27354   2.662  13.845   4.186 -0.1828 -0.3096  0.1829
17251PP      PP27355   7.891  10.092   2.637 -0.1031  0.3499  0.1585
17252PP      PP27356  11.163   3.504   3.881 -0.1264  0.0143 -0.2596
17253PP      PP27357  14.968   4.499  12.877  0.1717  0.2783 -0.1767
17254PP      PP27358   8.436   7.975   4.986  0.0654  0.2836  0.0927
17255PP      PP27359   3.483   7.461   0.326  0.2261  0.2922 -0.0424
17256PP      PP27360   6.143  11.991   0.453  0.1376 -0.0828 -0.4094
17257PP      PP27361  12.614   6.125   9.637  0.3364 -0.0629 -0.0497
17258PP      PP27362   4.659   8.353  12.727  0.2925 -0.1946 -0.1209
17259PP      PP27363   6.504   7.716   1.327  0.0539  0.0159 -0.0112
17260PP      PP27364   5.623   3.211   8.791  0.2398  0.1436 -0.0301
17261PP      PP27365  15.269  12.257  12.258 -0.0507 -0.3660 -0.3802
17262PP      PP27366   0.281  13.207  10.177  0.2900  0.0865  0.2439
17263PP      PP27367   1.677  10.170  10.685 -0.2423 -0.0626  0.4425
17264PP      PP27368  14.994  12.062  10.258 -0.0678 -0.3550 -0.0432
17265PP      PP27369   9.832  11.391   3.016 -0.1670  0.3558 -0.1523
17266PP      PP27370   2.277  12.891  13.227 -0.1556 -0.3691  0.1996
17267PP      PP27371   1.358   2.502   0.507  0.0571  0.1881  0.1985
17268PP      PP27372   0.433   4.693   3.589 -0.3198  0.2991  0.2756
17269PP      PP27373  13.939   6.107   8.788  0.0924  0.0460 -0.2018
17270PP      PP27374  11.488   5.890  12.472  0.2225  0.0047  0.0727
17271PP      PP27375   2.347   0.142   8.420  0.1316  0.3535 -0.2320
17272PP      PP27376  11.918   0.449   4.256 -0.0947 -0.2534 -0.1982
17273PP      PP27377   4.249   5.962   1.281 -0.0532  0.1040  0.1087
17274PP      PP27378   0.788   2.945   9.419  0.1334 -0.2680 -0.1071
17275PP      PP27379  13.847   8.863  13.291  0.2526 -0.0401  0.2867
17276PP      PP27380   8.546   1.158   2.736 -0.2366 -0.0092 -0.0589
17277PP      PP27381  13.709   5.301   8.668  0.0215 -0.0786 -0.0291
17278PP      PP27382   9.088   2.040   1.128  0.1033  0.0031  0.3485
17279PP      PP27383   6.070  10.641  13.243 -0.2421  0.1000 -0.1267
17280PP      PP27384   7.031  15.171   1.434  0.0279 -0.2330 -0.1315
17281PP      PP27385   4.797  10.264  10.191  0.4238 -0.2130 -0.1380
17282PP      PP27386  11.251  11.536   0.745  0.2402 -0.1138  0.0534
17283PP      PP27387   2.441  10.802   1.239  0.2209  0.0495 -0.0309
17284PP      PP27388  15.918   2.046  11.353  0.0317 -0.1504  0.1185
17285PP      PP27389   8.895   7.183   3.821  0.1608  0.0969  0.6229
17286PP      PP27390   3.487   4.747   1.106 -0.3065  0.2810  0.0831
17287PP      PP27391  15.392   1.222   2.664 -0.1577 -0.0362  0.1795
17288PP      PP27392  15.885   4.929   1.912 -0.1665 -0.0239  0.1966
17289PP      PP27393   5.146  15.252  11.808  0.0056  0.4081 -0.3191
17290PP      PP27394  12.833  13.943   9.609  0.0191  0.0639 -0.1739
17291PP      PP27395   7.801   9.090  10.057  0.1879  0.1011 -0.1247
17292PP      PP27396  11.405   6.330  10.639 -0.0524  0.1110 -0.3024
17293PP      PP27397   1.170  13.976  12.566  0.1673  0.0415 -0.0694
17294PP      PP27398  14.078  10.330   3.494  0.2195  0.0599  0.0244
17295PP      PP27399  13.691   6.520   2.875  0.0775  0.2019  0.0553
17296PP      PP27400   1.870   2.652  11.249  0.1482 -0.2253  0.1120
17297PP      PP27401   5.790   0.592  10.949 -0.0383  0.3213 -0.0027
17298PP      PP27402  14.712   0.447   8.056 -0.1408  0.1085 -0.0667
17299PP      PP27403  15.776   4.926   2.404 -0.0722  0.2021 -0.0210
17300PP      PP27404   2.248   6.930   3.846 -0.0196  0.0631 -0.0108
17301PP      PP27405   4.757  10.012   3.751 -0.2393  0.3062  0.0214
17302PP      PP27406   6.849  13.676   9.966 -0.1755  0.5520  0.0021
17303PP      PP27407   3.727  14.375   0.806 -0.1124  0.0913 -0.1456
17304PP      PP27408   6.551   5.753  12.761 -0.0158  0.4972 -0.1291
17305PP      PP27409   1.007   1.098   2.762  0.3572  0.1024  0.3009
17306PP      PP27410  12.490   9.339  10.633  0.0644 -0.3774 -0.1099
17307PP      PP27411   4.948   7.765   5.077  0.3330  0.2404 -0.2202
17308PP      PP27412   9.982   4.257  13.310  0.1301  0.1947  0.0465
17309PP      PP27413   8.375  14.383  10.820  0.0619 -0.0011 -0.3625
17310PP      PP27414   2.564  10.120  10.572  0.1888 -0.1925 -0.0246
17311PP      PP27415   6.484  11.976  11.818 -0.1985 -0.0363 -0.0140
17312PP      PP27416   4.384   6.404   2.840  0.0242  0.1575  0.1228
17313PP      PP27417   1.117   7.787  10.473  0.0437 -0.0160  0.2639
17314PP      PP27418   1.631   1.125   0.735 -0.0766 -0.0290  0.1523
17315PP      PP27419  12.852   9.544   2.709  0.0091 -0.4198  0.1232
17316PP      PP27420  12.532   2.142  11.329 -0.1735  0.0712 -0.0034
17317PP      PP27421   7.606  13.232   4.324  0.5287 -0.0031  0.2239
17318PP      PP27422  12.725  12.033   0.118  0.1103 -0.2552  0.1730
17319PP      PP27423  11.428   8.267   1.965 -0.0933 -0.1561 -0.1446
17320PP      PP27424  15.803   0.765  12.506  0.3383  0.0844 -0.1815
17321PP      PP27425   9.709   9.184  13.222  0.0886  0.0950  0.3682
17322PP      PP27426   4.779   1.784   9.991 -0.0820 -0.0710  0.0998
17323PP      PP27427   0.645  13.806   2.453  0.1138  0.1042 -0.0652
17324PP      PP27428  15.022  11.494  12.042  0.0829 -0.2408  0.1724
17325PP      PP27429  12.009  13.061  12.403  0.2476  0.2246 -0.0498
17326PP      PP27430  13.680   3.965  12.797 -0.0995 -0.0623  0.2797
17327PP      PP27431   2.906  10.482  10.819 -0.2384 -0.4129  0.0568
17328PP      PP27432   7.093   2.325   3.116  0.0702 -0.1151  0.1593
17329PP      PP27433   1.916   7.840   1.908  0.3028 -0.3106 -0.2507
17330PP      PP27434   9.278  13.735   3.983  0.1305 -0.3255 -0.1345
17331PP      PP27435   7.707  12.333   3.244  0.3556 -0.1910 -0.0517
17332PP      PP27436  12.540   1.360  11.972 -0.4284  0.4417 -0.0303
17333PP      PP27437   2.963  14.902   1.726 -0.1128  0.0466  0.0904
17334PP      PP27438  12.970   0.464  13.341 -0.5400  0.0533  0.2427
17335PP      PP27439   5.221   4.888   4.317  0.0307  0.1208 -0.2577
17336PP      PP27440   4.495   3.264   2.471  0.0437  0.0781  0.1168
17337PP      PP27441  14.157  10.879   0.583 -0.5239 -0.2638 -0.0910
17338PP      PP27442   7.188   7.118   3.787  0.0435  0.2540  0.0293
17339PP      PP27443   1.517  13.431  12.732  0.1355 -0.0623 -0.0068
17340PP      PP27444   8.528   2.320  11.032  0.0261  0.3117  0.1328
17341PP      PP27445  12.168   3.320   4.181  0.2067  0.1553 -0.0390
17342PP      PP27446  12.957   4.246   9.831 -0.0294 -0.1849  0.0252
17343PP      PP27447   4.648  14.492  11.714  0.0246 -0.0249  0.1377
17344PP      PP27448   3.051   0.615   9.459  0.0433 -0.1130  0.0928
17345PP      PP27449  14.474   7.068  11.740 -0.1155  0.0443 -0.2451
17346PP      PP27450   4.424   0.604  13.282 -0.1837 -0.2086 -0.2389
17347PP      PP27451   4.419   5.475  13.089 -0.2462 -0.0002  0.3281
17348PP      PP27452  15.123   2.434   8.661 -0.0041  0.1097 -0.3607
17349PP      PP27453  15.119  11.769   2.683  0.2566  0.0939  0.1353
17350PP      PP27454   9.160   8.282   1.129  0.0575  0.2202  0.3063
17351PP      PP27455  13.449   2.955  13.388  0.1345 -0.3072  0.2341
17352PP      PP27456   9.162   8.325   2.482 -0.1263 -0.2220  0.1703
17353PP      PP27457  11.887  10.213   2.600  0.0208 -0.2721  0.2357
17354PP      PP27458   2.738  10.102  11.756 -0.2868 -0.0662 -0.0103
17355PP      PP27459  14.888  10.788   2.375  0.0583  0.2334 -0.1121
17356PP      PP27460   8.047   9.702   3.568  0.2561  0.2806 -0.1266
17357PP      PP27461   2.579   7.759   9.691  0.1557  0.1127 -0.1760
17358PP      PP27462  12.174   7.733  12.046  0.0279  0.1451  0.1582
17359PP      PP27463   9.839  11.850   4.999 -0.1172 -0.0787 -0.2341
17360PP      PP27464  11.594  14.430   5.106  0.0088 -0.1426 -0.0716
17361PP      PP27465  11.753  13.964   1.872 -0.1256  0.1829 -0.0809
17362PP      PP27466   6.965   4.639  10.135  0.0506  0.1136 -0.0008
17363PP      PP27467   2.734  10.172  12.771  0.6666  0.2598 -0.1710
17364PP      PP27468   2.483   1.355  13.150  0.3294 -0.0243 -0.5577
17365PP      PP27469  12.688   3.923  11.078  0.1071  0.4419  0.0771
17366PP      PP27470   6.876   2.898   2.508 -0.2810 -0.1603 -0.0080
17367PP      PP27471   0.755   1.236   3.259  0.2239  0.1699 -0.1799
17368PP      PP27472   1.090   8.374   0.287  0.1860  0.0839 -0.1203
17369PP      PP27473  15.253   8.646   0.885  0.0109 -0.0406  0.1205
17370PP      PP27474   6.183   8.036   4.102  0.1390  0.2365 -0.1195
17371PP      PP27475   8.862   9.680   2.550  0.0146  0.0245  0.0535
17372PP      PP27476   9.132   5.474  10.362  0.0641  0.1995  0.2599
17373PP      PP27477   7.073  10.924  13.243 -0.1640 -0.2408  0.4712
17374PP      PP27478   2.810   9.734  10.301 -0.0955  0.0661  0.0265
17375PP      PP27479   0.357  15.268   2.900  0.1370  0.0189  0.4953
17376PP      PP27480   1.336   5.675   2.920  0.1124  0.2460  0.0460
17377PP      PP27481  14.270   6.012   4.082  0.1677  0.2785 -0.0627
17378PP      PP27482   6.292   6.247   1.827  0.4336  0.0220 -0.0915
17379PP      PP27483   0.539  10.543  13.103  0.2249 -0.3768  0.1046
17380PP      PP27484   7.696  14.660   2.524  0.1064  0.1454  0.0370
17381PP      PP27485   6.234   0.071  10.287  0.2495  0.0589 -0.0287
17382PP      PP27486   4.965   7.113   9.538  0.1580  0.2261  0.1345
17383PP      PP27487   2.347   8.184   9.414 -0.0873  0.1218  0.0669
17384PP      PP27488  10.585   2.471   9.076 -0.0314  0.1005  0.0475
17385PP      PP27489   0.118  12.300  12.306 -0.2704  0.3804  0.0273
17386PP      PP27490  13.034  10.276  10.531  0.1819 -0.2775  0.0221
17387PP      PP27491   4.345   2.697  10.114  0.0749 -0.1623 -0.1414
17388PP      PP27492   5.862   2.952   3.944  0.0129 -0.0319  0.0896
17389PP      PP27493  11.528  11.115   9.731 -0.0927  0.0650 -0.0964
17390PP      PP27494  15.174  10.132  11.831 -0.0109  0.0837  0.0598
17391PP      PP27495   8.642  13.594  10.502 -0.2836 -0.1770  0.2145
17392PP      PP27496   0.233  11.343  11.240  0.2091 -0.0478  0.0157
17393PP      PP27497   4.634   7.790   3.212  0.0066  0.0781 -0.2356
17394PP      PP27498  15.177   4.559   3.093  0.3298  0.2162 -0.0605
17395PP      PP27499   5.982   4.150  12.126  0.0156 -0.1056  0.1545
17396PP      PP27500  11.264   1.845   2.554 -0.1248  0.2684  0.0464
17397PP      PP27501   6.833   6.297   1.058  0.0682  0.0708 -0.1220
17398PP      PP27502   1.713   8.810   8.990  0.2530 -0.1915  0.0237
17399PP      PP27503  10.414   9.054  10.631  0.1534 -0.0657  0.2527
17400PP      PP27504   9.387  12.645   1.836 -0.0078  0.2112  0.0549
17401PP      PP27505   1.076   6.711   3.080  0.1794  0.1795  0.1650
17402PP      PP27506   9.510   4.047  10.424 -0.0057  0.0531  0.3756
17403PP      PP27507   6.758  14.508  12.724  0.0648 -0.0932  0.5851
17404PP      PP27508   5.497   9.868   4.612  0.0244 -0.1529  0.0960
17405PP      PP27509   7.114  15.130  12.789  0.1699 -0.1661 -0.2682
17406PP      PP27510  12.697  14.097  13.376 -0.0712  0.0142  0.0643
17407PP      PP27511   0.748   2.965   3.015 -0.1131 -0.1529 -0.4142
17408PP      PP27512  12.931  13.310  10.982 -0.0314 -0.0304 -0.4198
17409PP      PP27513   4.869   7.296  12.209 -0.1873 -0.2541 -0.1306
17410PP      PP27514   7.099  13.578   1.352  0.1072  0.3418 -0.1894
17411PP      PP27515   5.698   3.234  10.350 -0.0953 -0.1834  0.0772
17412PP      PP27516   7.787   1.292   1.127 -0.1366 -0.0756  0.0372
17413PP      PP27517   6.051   3.639   1.794 -0.1169 -0.0238 -0.0583
17414PP      PP27518   8.064  15.542   2.016  0.0648 -0.0683 -0.1678
17415PP      PP27519   7.506  12.376   4.203 -0.0037  0.2918 -0.0062
17416PP      PP27520  13.223  10.553  10.110 -0.0506  0.1590 -0.0631
17417PP      PP27521  14.570   1.314   3.942  0.0345 -0.1057 -0.3136
17418PP      PP27522   3.055   6.697   3.202  0.1370  0.0869  0.1391
17419PP      PP27523  10.091  14.732   0.709 -0.4200  0.0428 -0.2083
17420PP      PP27524  11.077  13.951  12.235  0.0955  0.0152 -0.0177
17421PP      PP27525   1.504  15.562   0.257  0.1889 -0.0403  0.2193
17422PP      PP27526  10.310  15.941   9.175 -0.1617  0.1385 -0.0738
17423PP      PP27527  15.738   9.250   1.102 -0.0480  0.1500 -0.1676
17424PP      PP27528  14.235   0.487  11.745 -0.0416  0.1510 -0.1709
17425PP      PP27529  13.652  12.813  10.938 -0.0056 -0.2880  0.2019
17426PP      PP27530   9.765   8.028   0.378 -0.1747 -0.0856  0.0156
17427PP      PP27531  13.412   6.364   2.402  0.0136 -0.0347 -0.1642
17428PP      PP27532   5.774   7.837  11.125 -0.0195  0.2044 -0.2649
17429PP      PP27533   4.447   8.321   9.713 -0.1482  0.1351 -0.0429
17430PP      PP27534   3.719  13.204   2.227  0.1008  0.1454  0.0579
17431PP      PP27535  15.725  15.174  10.910 -0.0509 -0.0350 -0.0438
17432PP      PP27536  10.017   3.827   9.870 -0.1114 -0.1016 -0.3886
17433PP      PP27537  13.935   5.762   9.210 -0.1141  0.1209 -0.0750
17434PP      PP27538   3.262   2.455   1.431  0.0396  0.0546  0.0300
17435PP      PP27539  14.786   9.643  10.578 -0.1359 -0.2420  0.2255
17436PP      PP27540  13.622   5.134  12.778 -0.2752  0.0066  0.1308
17437PP      PP27541  14.213  15.265   0.960 -0.4784 -0.0020  0.1759
17438PP      PP27542   2.506   0.752  12.602  0.0470  0.0678 -0.1774
17439PP      PP27543  12.185   8.002   2.372 -0.2840  0.0412 -0.0132
17440PP      PP27544   3.090   8.385   2.118  0.0811 -0.2401 -0.0947
17441PP      PP27545   6.963   8.910  10.670 -0.0502  0.1479 -0.0307
17442PP      PP27546   3.437  14.856   2.585 -0.0274 -0.4436  0.1418
17443PP      PP27547  10.456  13.772   3.605  0.3418  0.0447 -0.0363
17444PP      PP27548  11.730   7.178  11.144 -0.0654  0.0539  0.1739
17445PP      PP27549   2.173   9.772  10.503  0.0759  0.1283 -0.1708
17446PP      PP27550   1.606   7.328   2.674  0.0051  0.1102 -0.0146
17447PP      PP27551  15.410   2.239   1.609 -0.1303  0.4651 -0.1276
17448PP      PP27552  14.919   2.430  10.806  0.1413  0.2254  0.1252
17449PP      PP27553   9.405   3.193  12.014 -0.2985  0.1610 -0.2319
17450PP      PP27554  13.455   4.936   2.705  0.0489  0.1328  0.0719
17451PP      PP27555   3.127  12.603   8.221 -0.0494  0.1593  0.1190
17452PP      PP27556   5.049  14.611   8.096  0.1501  0.1938 -0.0790
17453PP      PP27557   1.149   8.584   0.733 -0.1402 -0.0068 -0.0801
17454PP      PP27558   0.657   0.191   1.558  0.3956  0.1019 -0.0804
17455PP      PP27559  13.023   3.354   1.329  0.0233 -0.2226 -0.0731
17456PP      PP27560  15.376  15.334   0.863  0.1553  0.2326  0.0711
17457PP      PP27561   7.397   6.003  12.868  0.2884  0.4414 -0.0953
17458PP      PP27562   7.341   5.878   1.722 -0.1174  0.1143 -0.0905
17459PP      PP27563  12.430   3.577   9.338 -0.2033  0.2139 -0.1368
17460PP      PP27564  11.981   5.697   1.871  0.1903 -0.0131 -0.2100
17461PP      PP27565   1.046   3.191   3.379  0.2228  0.2437  0.0596
17462PP      PP27566   8.379  12.713   2.172  0.5581  0.3776  0.1083
17463PP      PP27567   2.422  10.069  10.014 -0.0355  0.0091 -0.0347
17464PP      PP27568   6.528  13.433   1.363  0.0601 -0.1716  0.0622
17465PP      PP27569   0.121   8.229   3.531 -0.2972 -0.1930 -0.0785
17466PP      PP27570  10.968  12.961   1.118  0.1255  0.2496  0.0095
17467PP      PP27571   1.627   0.183  10.052  0.0342  0.2458 -0.1649
17468PP      PP27572   3.370   3.665  11.658  0.1272  0.2549  0.1573
17469PP      PP27573  15.327   9.144  12.959 -0.0592  0.0851  0.1279
17470PP      PP27574  13.710  13.820  10.635  0.2170  0.1074 -0.0498
17471PP      PP27575  10.219   9.777  12.122 -0.1358  0.0959  0.0989
17472PP      PP27576  14.023   1.013   9.113  0.1361  0.0039  0.0154
17473PP      PP27577  14.080   0.491  12.716  0.4099 -0.2815  0.1741
17474PP      PP27578  14.478  11.998   3.379  0.1103 -0.0856 -0.1917
17475PP      PP27579   7.173   7.186   0.825 -0.3439 -0.0424 -0.0926
17476PP      PP27580  10.609   5.915  11.085  0.1187  0.5058 -0.0074
17477PP      PP27581  14.868  13.439   2.770  0.3248 -0.1117  0.0776
17478PP      PP27582   5.295   7.140  13.137 -0.2372 -0.1162  0.0538
17479PP      PP27583  12.814   2.773   8.503 -0.0881 -0.0695 -0.0624
17480PP      PP27584   9.897  11.784   1.288 -0.4336 -0.1332 -0.0391
17481PP      PP27585   9.468  13.911  10.554 -0.2939  0.0526  0.1109
17482PP      PP27586   6.183   9.723   3.893  0.0354 -0.0849  0.2058
17483PP      PP27587  12.789   4.284   4.352 -0.0419 -0.1701  0.1933
17484PP      PP27588   1.702  15.921   8.962  0.1028  0.1827  0.0770
17485PP      PP27589   4.171  11.732  10.391  0.0485  0.0580  0.1510
17486PP      PP27590   2.603   1.482   9.513  0.1803 -0.2022  0.0321
17487PP      PP27591   3.887   6.237   3.226  0.0890 -0.1693 -0.1923
17488PP      PP27592   2.276   7.566  11.765 -0.4150 -0.0270  0.1186
17489PP      PP27593  13.134   4.933  11.839  0.0678 -0.0663  0.1210
17490PP      PP27594  12.462   4.648   2.662  0.0527  0.1907  0.0838
17491PP      PP27595  10.045  14.439  11.267 -0.0589 -0.1620 -0.1350
17492PP      PP27596  12.956   4.553   0.917 -0.0236  0.2079  0.2035
17493PP      PP27597  12.613   7.793  12.255  0.0121  0.0510  0.1064
17494PP      PP27598   7.261  10.824  12.067  0.1711  0.2022 -0.0811
17495PP      PP27599  14.015  11.104  11.251  0.0073 -0.1820  0.1753
17496PP      PP27600   1.179  14.321   9.232 -0.3035 -0.2495  0.1001
17497PP      PP27601   2.938  14.597   2.176  0.3483 -0.1047  0.1834
17498PP      PP27602  11.503   4.024   0.197  0.1188 -0.0857  0.2387
17499PP      PP27603   1.180   9.453   8.329  0.0653  0.2418  0.1049
17500PP      PP27604  15.601   2.427  12.786  0.1697 -0.0054 -0.1517
17501PP      PP27605  15.840   5.205   9.066 -0.1228 -0.0657  0.1855
17502PP      PP27606   9.173   8.637   9.814 -0.2857 -0.1746 -0.1541
17503PP      PP27607   4.444  15.518   1.596  0.1093 -0.2257  0.0202
17504PP      PP27608  12.370  15.380   0.180 -0.1448  0.1993 -0.1175
17505PP      PP27609   0.681   3.694   1.963  0.4034 -0.3244 -0.1184
17506PP      PP27610   8.812  14.402   1.942  0.0496  0.1241 -0.1769
17507PP      PP27611  15.939   2.063  13.009 -0.0935  0.0167 -0.5125
17508PP      PP27612   5.912  10.719  11.456 -0.2531 -0.0655 -0.0895
17509PP      PP27613  12.534   2.645   2.568 -0.0232  0.2743 -0.1228
17510PP      PP27614  14.219   8.699   9.777  0.1641  0.0455  0.2954
17511PP      PP27615  11.343  10.976  12.326  0.1862  0.1368 -0.0459
17512PP      PP27616   6.589   1.640   2.707  0.0235 -0.0363  0.1081
17513PP      PP27617   6.188   8.173   1.951  0.5388 -0.1405 -0.1870
17514PP      PP27618  11.627   9.914   2.145 -0.1833 -0.2417 -0.0404
17515PP      PP27619  15.520   4.198  11.170  0.0569  0.0073 -0.2982
17516PP      PP27620   6.745  10.408  13.326  0.0949 -0.2000  0.0422
17517PP      PP27621   5.623   7.142  11.698 -0.3424 -0.1958 -0.0491
17518PP      PP27622   0.622  11.651  12.108 -0.1703 -0.2055 -0.0848
17519PP      PP27623   0.048   6.104   2.617  0.2325  0.0829  0.2390
17520PP      PP27624   3.671  11.131   1.413  0.2638  0.2213  0.1620
17521PP      PP27625  10.333   0.772  12.062  0.1425  0.0367  0.0471
17522PP      PP27626   3.508  15.430   1.933  0.1748  0.0915  0.2016
17523PP      PP27627  14.939   9.157   3.933  0.1859 -0.2963 -0.1368
17524PP      PP27628  13.745  12.015  10.034  0.1553 -0.1073  0.0858
17525PP      PP27629  12.640   6.362  13.391  0.0362 -0.2643 -0.0748
17526PP      PP27630   2.809   2.329   2.181 -0.0757  0.0509  0.1660
17527PP      PP27631   3.190  13.116   2.164 -0.0785  0.0878 -0.2138
17528PP      PP27632   4.399   2.302   0.288 -0.2930  0.0981  0.2841
17529PP      PP27633   4.737  11.331  12.006 -0.2154 -0.0009  0.0851
17530PP      PP27634   3.061   0.141  11.657 -0.1463 -0.0128 -0.1569
17531PP      PP27635   5.059   0.009   0.402  0.0674  0.0715 -0.0995
17532PP      PP27636   3.945   5.551   1.144  0.5878  0.0895 -0.0142
17533PP      PP27637   8.243   0.823  11.490  0.1383 -0.0545 -0.3450
17534PP      PP27638  12.567   9.156   2.532 -0.2134 -0.1258 -0.1188
17535PP      PP27639   1.230   5.204   3.855 -0.2560 -0.0541  0.1992
17536PP      PP27640   8.393  11.953  12.720  0.0300 -0.0112 -0.0263
17537PP      PP27641   9.263   0.313  10.717 -0.2997 -0.1068 -0.1869
17538PP      PP27642  14.879  12.975   2.579 -0.0841  0.3253  0.2095
17539PP      PP27643   4.221   0.681  12.849  0.1366 -0.0478  0.0796
17540PP      PP27644   8.731  10.616   9.555 -0.2669 -0.4074  0.0142
17541PP      PP27645  11.690   8.915  10.552  0.2593  0.2567  0.0611
17542PP      PP27646  15.814   6.135   8.804  0.2560 -0.0594 -0.3380
17543PP      PP27647   0.318  13.609  12.095 -0.2882 -0.0471  0.1118
17544PP      PP27648  12.428   0.453   4.022 -0.1395  0.2353 -0.3641
17545PP      PP27649   8.252  15.227  11.709 -0.2498 -0.0056  0.2243
17546PP      PP27650  10.563  13.614   2.301  0.1274 -0.3244 -0.0463
17547PP      PP27651   2.655   0.149   1.599 -0.0846 -0.3015  0.1379
17548PP      PP27652  14.710   3.590   2.975 -0.1603 -0.1559 -0.1469
17549PP      PP27653   1.891   2.578   1.641  0.0950  0.3090  0.0421
17550PP      PP27654  15.151  14.612   9.913 -0.0269 -0.2804 -0.0839
17551PP      PP27655   9.740  13.922   3.132  0.0874 -0.0948  0.1930
17552PP      PP27656  11.433   7.827   4.451 -0.1719 -0.1446  0.1828
17553PP      PP27657   4.189  12.833   8.610  0.0350 -0.0979 -0.1859
17554PP      PP27658  12.032   4.451   0.782  0.2873 -0.0779 -0.2973
17555PP      PP27659  10.146  10.434  10.772  0.1261  0.2182  0.2304
17556PP      PP27660   3.367   8.936   4.096 -0.2133  0.1021 -0.2293
17557PP      PP27661   1.904   0.971   0.282  0.0911 -0.1882  0.0295
17558PP      PP27662  13.124   2.918  12.247 -0.0761  0.1145 -0.1528
17559PP      PP27663   3.727   2.430  11.445 -0.0334  0.2375  0.1015
17560PP      PP27664  12.140   1.539   2.245  0.1919  0.3098 -0.0025
17561PP      PP27665  12.246  15.141   5.522  0.3124 -0.0690  0.0051
17562PP      PP27666  13.257   6.268   2.900  0.0246  0.2189  0.1311
17563PP      PP27667   7.510  15.906   3.461  0.3889 -0.0330 -0.1679
17564PP      PP27668   4.264   3.219   2.987 -0.0265  0.0958 -0.1819
17565PP      PP27669   5.367   1.869   0.762 -0.1699 -0.0280 -0.3542
17566PP      PP27670  13.523   5.429   9.082  0.0652 -0.0491 -0.3325
17567PP      PP27671   4.206   4.209   2.024  0.2068 -0.1150 -0.2205
17568PP      PP27672   3.505   3.816   2.423  0.4787 -0.2779 -0.0751
17569PP      PP27673  13.864  10.225  12.469  0.0754  0.1342  0.0806
17570PP      PP27674   8.481   9.641  10.929  0.0341  0.2295  0.4246
17571PP      PP27675   7.013   5.609   0.387 -0.2899  0.0667 -0.0287
17572PP      PP27676  10.210  10.860  12.968 -0.1428  0.0871  0.0115
17573PP      PP27677  10.810  11.596   9.909 -0.0474  0.1848  0.0275
17574PP      PP27678   5.312  13.745   9.829  0.2600  0.3680  0.1530
17575PP      PP27679   9.701  11.033   1.383 -0.3143  0.0945  0.1796
17576PP      PP27680  14.111  12.007   2.934 -0.2353 -0.0435 -0.1350
17577PP      PP27681  13.694   0.958  10.329 -0.0506  0.3638  0.2305
17578PP      PP27682   4.904  15.790   3.094  0.1631  0.3141  0.0406
17579PP      PP27683  14.735   0.848  10.428  0.0215 -0.1090  0.0595
17580PP      PP27684   9.424   9.070  12.074 -0.2601 -0.0177  0.0043
17581PP      PP27685   3.398   9.089  12.887  0.0221 -0.4291 -0.1191
17582PP      PP27686   4.031   3.894   3.326 -0.3138 -0.0539  0.1006
17583PP      PP27687   8.382   4.894   0.888 -0.0482  0.0807 -0.1894
17584PP      PP27688   3.311  13.046   3.152  0.1397 -0.3197 -0.0752
17585PP      PP27689   2.429   8.354  12.421  0.0224  0.1273 -0.1724
17586PP      PP27690   5.221   3.339  11.626 -0.1327  0.0673 -0.1427
17587PP      PP27691   6.833   8.282   3.016 -0.2870  0.0960  0.1935
17588PP      PP27692  12.233   6.422   4.033  0.2160  0.1814 -0.1508
17589PP      PP27693   6.114   1.488   0.299 -0.1805  0.0163  0.3206
17590PP      PP27694  10.615   1.297   3.381  0.2306 -0.1145 -0.0641
17591PP      PP27695  11.042  11.039   9.903 -0.2721  0.1663 -0.0973
17592PP      PP27696   4.005   3.863  11.269  0.0394 -0.1919 -0.0047
17593PP      PP27697   7.025  12.185  12.760  0.1128  0.2038 -0.3753
17594PP      PP27698   0.507  11.769   0.844  0.0025 -0.2782  0.0430
17595PP      PP27699   7.621   1.349  12.870  0.1751  0.0068  0.0609
17596PP      PP27700   6.226   8.751  12.765 -0.1756  0.1734 -0.0222
17597PP      PP27701   1.992  11.572   1.471 -0.0391  0.1538  0.2374
17598PP      PP27702   0.501  14.186  12.854  0.0078  0.0619 -0.1861
17599PP      PP27703   6.154   0.361   8.963  0.1847 -0.2475  0.3939
17600PP      PP27704  10.513  15.352   9.942 -0.1277  0.2677  0.0088
17601PP      PP27705  11.487  11.231  11.161  0.1499  0.0441 -0.0646
17602PP      PP27706  10.890  10.672   3.597  0.0568  0.3355  0.0899
17603PP      PP27707  15.799  13.893   8.827 -0.1191 -0.0009  0.0314
17604PP      PP27708   8.432  14.312  11.318 -0.2112 -0.1084 -0.2291
17605PP      PP27709   1.899   6.178   1.501  0.3142  0.2468  0.2043
17606PP      PP27710   1.346  13.248   9.178 -0.2249  0.0536  0.0899
17607PP      PP27711  11.614  11.400  13.142  0.0013  0.3470  0.1557
17608PP      PP27712  14.213  15.935   0.296 -0.0149 -0.0397 -0.2763
17609PP      PP27713  15.768   3.874  10.054  0.1363  0.1214  0.0832
17610PP      PP27714   3.938   7.524   2.682  0.1956  0.1896  0.2752
17611PP      PP27715  13.805  12.610  12.529 -0.3545  0.0058  0.0224
17612PP      PP27716   4.008   4.132  12.201  0.1589 -0.0625  0.2065
17613PP      PP27717   7.464   0.644   3.920 -0.1584 -0.0540 -0.1866
17614PP      PP27718  11.427   6.229   3.739 -0.0815  0.2347 -0.1225
17615PP      PP27719   6.526  14.086   2.022 -0.0222 -0.0360 -0.0836
17616PP      PP27720   0.044  11.248  12.171  0.0551 -0.4009 -0.1630
17617PP      PP27721   8.544   8.458   3.223  0.1261 -0.1423  0.0496
17618PP      PP27722   3.759  14.079   8.610 -0.1509 -0.0914  0.0944
17619PP      PP27723  10.297   8.457  10.708 -0.2590 -0.0128 -0.1619
17620PP      PP27724   1.945  14.906  13.139 -0.2113  0.5481 -0.0686
17621PP      PP27725  15.321   1.053   3.435 -0.0151  0.2286 -0.2672
17622PP      PP27726   5.924   8.064   3.225 -0.0086 -0.1102 -0.0644
17623PP      PP27727  11.111   9.521   0.903  0.0159  0.3535 -0.0993
17624PP      PP27728   6.467  12.685   9.835 -0.0680  0.0486 -0.0922
17625PP      PP27729  15.511   3.986  13.255  0.2885 -0.1373 -0.3410
17626PP      PP27730   7.498  14.171   8.445  0.1925 -0.1047  0.2449
17627PP      PP27731   7.903  12.203   8.954  0.1554 -0.0139 -0.1344
17628PP      PP27732   1.902   5.630   9.714  0.0215  0.0524  0.3916
17629PP      PP27733  10.980   6.532   2.592 -0.0679 -0.1225 -0.0600
17630PP      PP27734   6.216   8.400   9.473 -0.0283  0.0594 -0.3028
17631PP      PP27735   9.143  13.939   8.588 -0.0184 -0.0126  0.1601
17632PP      PP27736   3.642   4.250   3.280 -0.0754 -0.1775 -0.0198
17633PP      PP27737   4.857   8.354   9.341 -0.1378 -0.2973  0.1015
17634PP      PP27738   2.071   7.981  12.361  0.1831  0.0401 -0.3362
17635PP      PP27739   5.689   4.865   4.514  0.0796 -0.2692  0.0686
17636PP      PP27740   3.486  13.215   1.746 -0.1305  0.0120  0.0035
17637PP      PP27741   9.590   7.570   4.830  0.1151  0.0904 -0.0692
17638PP      PP27742   5.865   2.022   0.621  0.2745  0.1766 -0.0795
17639PP      PP27743   4.635  13.339  10.268  0.2269 -0.0251 -0.2881
17640PP      PP27744  12.085  12.121  10.078  0.0120  0.0423  0.0174
17641PP      PP27745  12.587  14.178   3.818 -0.1252 -0.0238 -0.0133
17642PP      PP27746   9.087   6.668   3.888 -0.0612 -0.2674  0.2478
17643PP      PP27747   6.782   1.176  12.539  0.0933 -0.0534  0.2167
17644PP      PP27748   6.562  15.434  11.047  0.0183  0.0682  0.0779
17645PP      PP27749  10.677  12.173   2.963 -0.1564  0.1307 -0.1106
17646PP      PP27750   4.790  13.596   8.000 -0.1800  0.0688  0.0402
17647PP      PP27751   1.989  11.917  11.039  0.1650 -0.2831 -0.0525
17648PP      PP27752  15.629  11.075  11.388 -0.0663  0.0971 -0.2577
17649PP      PP27753   6.984  14.208   2.242  0.0380  0.0310 -0.1032
17650PP      PP27754   5.230   7.368   2.584 -0.2239 -0.1335 -0.1407
17651PP      PP27755  12.721  15.665   3.056  0.0256 -0.0018  0.0754
17652PP      PP27756   7.531   9.405  11.276  0.1143 -0.0631  0.0508
17653PP      PP27757   9.076   0.158   3.924 -0.1719  0.1669 -0.1235
17654PP      PP27758  10.756  12.795  12.827 -0.0272  0.1351 -0.0942
17655PP      PP27759   8.316   2.189   9.662 -0.2694  0.2139 -0.1683
17656PP      PP27760   4.661   1.158   9.118 -0.0233 -0.1811  0.1805
17657PP      PP27761   7.724   1.359  11.869 -0.0586  0.3141 -0.3389
17658PP      PP27762   8.803   3.009   9.695  0.0361  0.2333 -0.1725
17659PP      PP27763   3.809  13.478  12.771 -0.0213 -0.1048  0.1557
17660PP      PP27764  11.606  13.762  12.148 -0.0737 -0.0524 -0.3684
17661PP      PP27765   8.605  14.199  13.085 -0.0288  0.2726  0.0219
17662PP      PP27766   9.769   3.699   1.020  0.3812  0.1474 -0.1370
17663PP      PP27767  14.713   7.522  11.880  0.2395  0.2481  0.0758
17664PP      PP27768   1.173   3.114   9.072 -0.0751  0.1714 -0.1464
17665PP      PP27769  12.597  14.815  12.065 -0.0142 -0.0544 -0.0046
17666PP      PP27770   7.624   1.800   1.243  0.1621  0.1240 -0.1285
17667PP      PP27771   5.974  12.228   2.689 -0.1146 -0.2900 -0.0247
17668PP      PP27772  10.106   2.597   9.428 -0.2454 -0.3122 -0.4680
17669PP      PP27773   7.474   2.411  12.741 -0.0265 -0.0034 -0.0193
17670PP      PP27774   7.532   0.501   1.742  0.1736  0.2602  0.0982
17671PP      PP27775  14.937   0.472   9.594  0.1688  0.1715  0.1512
17672PP      PP27776   6.580   5.448   1.490  0.0567 -0.2242  0.1627
17673PP      PP27777   1.319   1.371  11.321  0.0350 -0.4343  0.3247
17674PP      PP27778   8.039   7.712   3.038 -0.0622  0.0397  0.2126
17675PP      PP27779  15.500  15.229  12.904  0.2364 -0.1314  0.1562
17676PP      PP27780  13.936   9.642  12.849  0.0163  0.0110  0.0786
17677PP      PP27781   1.798  13.648  11.306 -0.1386  0.2524 -0.1412
17678PP      PP27782   6.938  12.882  10.787 -0.1509  0.0967 -0.3618
17679PP      PP27783   4.450  13.117   2.888  0.0927  0.2229 -0.4005
17680PP      PP27784   5.972   8.545   3.346 -0.2028 -0.1900  0.0912
17681PP      PP27785  13.144   4.608   5.013  0.0002  0.3316  0.0737
17682PP      PP27786   1.147   2.919  12.192  0.2093 -0.1876  0.1430
17683PP      PP27787   6.048   7.384  11.946  0.1364  0.1012 -0.0669
17684PP      PP27788   5.736  10.703   4.265  0.2459  0.0086  0.0478
17685PP      PP27789   5.533   7.391   0.160  0.2263 -0.1694 -0.1073
17686PP      PP27790  14.331  14.340   9.480  0.1497  0.2837 -0.2280
17687PP      PP27791   0.115  10.956   4.059 -0.1451  0.0330  0.0565
17688PP      PP27792   2.076   3.753   0.457  0.1313 -0.3352 -0.3393
17689PP      PP27793   1.730  10.815   3.305  0.0958 -0.0582 -0.0625
17690PP      PP27794   6.447   3.062   1.249  0.1692 -0.1640  0.0006
17691PP      PP27795   3.556   9.719   3.486 -0.1202  0.0124 -0.0217
17692PP      PP27796   3.376   8.849   3.130  0.3455  0.0727 -0.0188
17693PP      PP27797  11.460  12.839   0.839  0.0213  0.0139 -0.1268
17694PP      PP27798   6.555   5.621   0.142 -0.1980 -0.2050  0.1517
17695PP      PP27799  12.880   3.084   1.811 -0.2096  0.2456  0.2970
17696PP      PP27800  15.150  10.062   2.559  0.2992 -0.0245  0.3750
17697PP      PP27801  11.722  10.356   4.459  0.1249 -0.0268  0.2696
17698PP      PP27802  11.575   9.266   1.205  0.0033  0.0475  0.1607
17699PP      PP27803   1.284  10.141  11.199  0.0019  0.3226 -0.0722
17700PP      PP27804   3.716   6.313   9.417 -0.6538 -0.0255  0.0086
17701PP      PP27805   2.761  11.138   8.606  0.1547  0.0196 -0.4038
17702PP      PP27806   8.537   6.157   0.931  0.0720 -0.0697  0.1685
17703PP      PP27807   9.024   6.518   1.866  0.1156  0.3045  0.3238
17704PP      PP27808   5.891   9.560   2.437 -0.0558  0.0847  0.2252
17705PP      PP27809  15.110   8.585   2.581 -0.1349 -0.1855 -0.1469
17706PP      PP27810   0.795  12.179  12.855  0.1507 -0.0381 -0.3537
17707PP      PP27811  13.266  11.741  10.182 -0.3654 -0.2748  0.1170
17708PP      PP27812  11.361  10.990  13.238 -0.1558  0.1269 -0.2163
17709PP      PP27813   1.419   6.920   2.097 -0.1369  0.1980 -0.1767
17710PP      PP27814  13.768   6.381   1.999 -0.0736 -0.0056 -0.0543
17711PP      PP27815   5.870   5.355  12.712 -0.2518  0.1682 -0.2077
17712PP      PP27816   5.621   8.538   1.773  0.0293  0.2593 -0.0226
17713PP      PP27817   2.786  14.320   3.480 -0.0900  0.0568 -0.0216
17714PP      PP27818   7.763   3.456  13.031  0.1007 -0.3337 -0.1801
17715PP      PP27819   7.007   2.715  12.715 -0.2201 -0.1907 -0.1874
17716PP      PP27820   2.390   7.296   4.203 -0.0591  0.1534  0.1083
17717PP      PP27821  10.791   0.452   2.446  0.0167  0.1193 -0.3456
17718PP      PP27822  13.906   0.699   9.731 -0.1720 -0.2088 -0.3050
17719PP      PP27823   1.341  12.191   0.165 -0.1426  0.1358  0.4626
17720PP      PP27824  10.188   8.228   0.829 -0.1154  0.1177 -0.0480
17721PP      PP27825   8.860  14.197   9.823 -0.2452  0.1330  0.1074
17722PP      PP27826  10.641   5.754  12.951  0.0869 -0.0070  0.1472
17723PP      PP27827   8.539  13.017  10.443 -0.1631 -0.1823 -0.1440
17724PP      PP27828  13.449   6.957  12.137  0.3703 -0.3855 -0.0549
17725PP      PP27829   0.981   0.837   9.125 -0.2666 -0.0217 -0.0428
17726PP      PP27830  13.680   7.964   9.731  0.0301  0.1941 -0.0177
17727PP      PP27831   0.241   0.064  12.157 -0.4266 -0.1375  0.0533
17728PP      PP27832  11.257   1.119   3.895  0.2546 -0.3038  0.0367
17729PP      PP27833  13.460  14.731   1.948 -0.1941 -0.0500  0.0855
17730PP      PP27834  14.907   6.565   4.203 -0.0849 -0.2727  0.0068
17731PP      PP27835   7.598  15.486  11.272  0.6317 -0.0305 -0.2350
17732PP      PP27836  15.681  10.700   9.425 -0.2552 -0.0534 -0.1907
17733PP      PP27837   4.292   3.469  11.698 -0.0894  0.0709  0.1239
17734PP      PP27838  12.439  13.254   0.750 -0.1639  0.2839  0.1474
17735PP      PP27839   9.081  14.790   1.179  0.1155  0.0020  0.1558
17736PP      PP27840  12.155   1.896   9.706 -0.0810  0.2161  0.0109
17737PP      PP27841  13.483   0.879   9.860 -0.2061 -0.2917  0.1288
17738PP      PP27842  14.232   2.956  10.410 -0.0241 -0.2973 -0.0339
17739PP      PP27843  10.252  13.720   1.926  0.1007  0.1286  0.3161
17740PP      PP27844   3.502   6.658   2.872 -0.0244 -0.1291  0.2967
17741PP      PP27845  11.944  13.166  12.901 -0.2355  0.1318 -0.2345
17742PP      PP27846   3.448   8.032   3.763 -0.0398 -0.3924 -0.1804
17743PP      PP27847   5.399  13.802  12.578  0.2838 -0.0639 -0.2788
17744PP      PP27848  11.575  11.291   2.456 -0.1193  0.0668 -0.1938
17745PP      PP27849   5.003   1.694   3.427  0.0760 -0.0112 -0.1149
17746PP      PP27850  12.303  11.615   9.883 -0.1175 -0.0797 -0.0684
17747PP      PP27851   7.209  13.370  13.230  0.1724  0.1186  0.1732
17748PP      PP27852   6.543  10.825   0.794  0.4300  0.3018 -0.3547
17749PP      PP27853   0.327   5.436  11.207  0.1518  0.4323  0.0470
17750PP      PP27854  11.037   5.089   8.738  0.2138  0.0778 -0.1390
17751PP      PP27855   0.044   3.593  12.124  0.1888 -0.5067  0.2715
17752PP      PP27856   5.833   7.933   3.680 -0.0486  0.2298 -0.2496
17753PP      PP27857   2.659   6.760   3.643 -0.2514  0.0946  0.0305
17754PP      PP27858   3.149   3.057   9.544  0.0754 -0.3781 -0.2534
17755PP      PP27859   4.945   5.066   1.759  0.0220  0.2171 -0.1735
17756PP      PP27860   5.236   2.164   3.641  0.1729  0.0804 -0.0002
17757PP      PP27861  13.921   8.708  12.023  0.2809 -0.0361  0.0848
17758PP      PP27862  12.309  10.355   3.512 -0.1846  0.2872  0.0738
17759PP      PP27863   5.265   1.425   2.946 -0.2253  0.0920 -0.0844
17760PP      PP27864   3.726   6.388  10.014 -0.1470  0.1330  0.0045
17761PP      PP27865   1.248  15.391   2.923  0.2023  0.0562 -0.2524
17762PP      PP27866  14.356   6.127   0.587 -0.1742 -0.3290 -0.1254
17763PP      PP27867   6.336   5.346  11.268 -0.0182 -0.1170 -0.1062
17764PP      PP27868  12.126  10.527  10.310 -0.0969 -0.2828  0.0796
17765PP      PP27869   4.533   1.072  10.704  0.0562  0.0514 -0.1585
17766PP      PP27870   3.538  11.289   4.456 -0.1752 -0.0409 -0.3667
17767PP      PP27871  14.399   4.019   0.337 -0.1694 -0.0213 -0.0195
17768PP      PP27872  13.744  13.305   9.569 -0.0654  0.2019 -0.0565
17769PP      PP27873   1.205  13.638   3.585 -0.0356 -0.1667  0.0201
17770PP      PP27874   5.205  11.924   9.920 -0.0587  0.4420 -0.0791
17771PP      PP27875   4.422   7.934   3.628  0.2304 -0.0583  0.1800
17772PP      PP27876   2.259   0.267   2.536 -0.0373  0.1434  0.1899
17773PP      PP27877   0.629   4.882  10.863 -0.1375  0.0665  0.1444
17774PP      PP27878  11.111  13.532   0.409 -0.0049 -0.0662 -0.0319
17775PP      PP27879   5.236   8.856   0.687  0.0483  0.1283  0.2926
17776PP      PP27880   8.312   8.294   2.830  0.1978  0.3410  0.0440
17777PP      PP27881   3.666   6.589   2.400 -0.1420  0.0150  0.0383
17778PP      PP27882   1.245   0.911   0.451 -0.0616  0.3393 -0.2611
17779PP      PP27883   3.413   7.224   1.120 -0.1947 -0.0098  0.0041
17780PP      PP27884  11.514   8.104  11.760  0.1232  0.2246  0.0031
17781PP      PP27885   0.864  13.308   9.298  0.1873  0.1112  0.0996
17782PP      PP27886   6.398   4.818  12.538 -0.1161  0.1614 -0.0143
17783PP      PP27887   8.906   3.744  13.318 -0.0892 -0.1772  0.0803
17784PP      PP27888  12.291   6.911   1.962  0.0748 -0.0238  0.0553
17785PP      PP27889  13.286  15.536  12.025  0.1537 -0.1443  0.1542
17786PP      PP27890  11.127   6.893  11.409  0.1245  0.0322 -0.0367
17787PP      PP27891   1.080   1.788   1.891 -0.1240 -0.2333 -0.5115
17788PP      PP27892  13.591   9.418   1.505  0.0701 -0.1160  0.2040
17789PP      PP27893  13.100   0.429   9.993  0.2479 -0.1793  0.0055
17790PP      PP27894   6.185   2.596  10.676  0.0147  0.4595  0.0500
17791PP      PP27895   0.997  10.592   8.679  0.1775  0.1408  0.1161
17792PP      PP27896   2.746  11.337   3.499  0.0814 -0.3974 -0.2246
17793PP      PP27897   6.194  14.489   4.350  0.1275  0.2915  0.2806
17794PP      PP27898  14.600   0.081  11.689  0.3226  0.1532 -0.1007
17795PP      PP27899  12.963   0.968   9.864 -0.2640  0.1755  0.0160
17796PP      PP27900   2.678   2.660   0.199  0.1982  0.2290  0.4954
17797PP      PP27901   2.439   7.060  10.853 -0.2137  0.1737  0.2126
17798PP      PP27902   0.010  12.766  10.276 -0.2228 -0.2147 -0.2317
17799PP      PP27903  14.471  13.073   2.735  0.0705  0.2553 -0.1327
17800PP      PP27904   2.646  14.428   2.737  0.1900 -0.1733 -0.1612
17801PP      PP27905   2.859  15.277  13.231 -0.0067 -0.4627 -0.0122
17802PP      PP27906   1.782  12.514   1.465  0.3394 -0.4944 -0.1592
17803PP      PP27907   3.088  11.406  10.456 -0.2223 -0.0401  0.1124
17804PP      PP27908  12.625   8.622   0.927  0.1342 -0.0742 -0.2181
17805PP      PP27909  11.090   4.706   4.067 -0.0067  0.0275  0.1695
17806PP      PP27910   3.872   8.052   3.435  0.0626  0.1852 -0.0190
17807PP      PP27911  12.613  10.012   1.876 -0.2722 -0.1612 -0.3234
17808PP      PP27912  15.352   9.054   2.549  0.2149 -0.2946  0.0494
17809PP      PP27913  11.533  12.204  11.003 -0.0572  0.5039  0.0358
17810PP      PP27914  14.128  15.022   9.221 -0.0201  0.1493  0.2489
17811PP      PP27915  15.936   9.003  12.992  0.1864  0.1578 -0.0512
17812PP      PP27916  12.758   3.895   1.575 -0.1139 -0.1784  0.2308
17813PP      PP27917   8.983  12.590   1.535 -0.1940  0.3580 -0.1297
17814PP      PP27918   5.280  13.406   8.611  0.2108  0.1529 -0.0216
17815PP      PP27919   2.024  10.919  11.476 -0.0135 -0.2187  0.0187
17816PP      PP27920   1.307  14.064   3.361  0.1891  0.0203 -0.1237
17817PP      PP27921  10.381   4.917   1.233 -0.0696  0.3519 -0.3713
17818PP      PP27922  13.153   2.713   3.859 -0.0411  0.1669 -0.2486
17819PP      PP27923   5.895  15.533  10.515  0.2242 -0.2905 -0.0948
17820PP      PP27924  12.216   4.367   2.252  0.0855  0.2285  0.2166
17821PP      PP27925   7.116   0.577  13.042 -0.2410 -0.1423  0.2037
17822PP      PP27926  14.504  11.102   3.316  0.0735  0.1118 -0.2257
17823PP      PP27927   8.839   8.210   0.110 -0.3667 -0.0286  0.3071
17824PP      PP27928  11.678  10.000   9.602  0.2442  0.3510 -0.3189
17825PP      PP27929  11.780  10.816   4.138  0.2204 -0.0474 -0.0705
17826PP      PP27930  14.655   9.390   2.078  0.0045 -0.2517  0.1866
17827PP      PP27931   7.457  15.581   2.711  0.0486 -0.5243  0.0439
17828PP      PP27932   6.204   6.759   9.229  0.0080  0.4064 -0.0835
17829PP      PP27933  10.772  12.435   9.843 -0.0325 -0.0360 -0.0001
17830PP      PP27934   4.242  11.057   2.469 -0.0939 -0.1313 -0.1391
17831PP      PP27935  11.609   0.458   3.098  0.0096  0.1109  0.0079
17832PP      PP27936  13.176  11.092  10.030  0.2448  0.2445 -0.1208
17833PP      PP27937  14.903  12.066   3.651 -0.3147 -0.0523 -0.0853
17834PP      PP27938   0.553  12.515   0.084 -0.0122  0.2560  0.0019
17835PP      PP27939   7.511   9.910  12.339 -0.0479  0.0292  0.0379
17836PP      PP27940   0.620   1.174  10.436  0.0788  0.2892 -0.0640
17837PP      PP27941  14.054   0.719  13.315 -0.0524  0.0395 -0.0770
17838PP      PP27942   3.427   7.659  10.112  0.1826  0.3737  0.1357
17839PP      PP27943   9.902   4.544   0.336  0.1381  0.3722 -0.1802
17840PP      PP27944   4.414   0.174   0.981 -0.0804 -0.0883  0.0566
17841PP      PP27945   4.982  12.757   8.077 -0.1321 -0.1584 -0.2220
17842PP      PP27946  11.373   2.707   2.131 -0.2059  0.0181  0.1083
17843PP      PP27947   3.431   2.203   1.953  0.1595  0.0105  0.0333
17844PP      PP27948   9.491   3.936   2.005 -0.1741 -0.5791 -0.0934
17845PP      PP27949  10.767   1.278  13.002  0.2418  0.0288  0.1262
17846PP      PP27950  11.315   0.993  12.125 -0.3301 -0.3100  0.3005
17847PP      PP27951   6.413   9.340   9.481  0.1876  0.0259 -0.1697
17848PP      PP27952   9.432  12.704  12.352 -0.3248  0.2367 -0.3330
17849PP      PP27953  10.156  14.684   2.721  0.1265 -0.1008 -0.2159
17850PP      PP27954   2.032   0.678   3.591  0.1329 -0.0377  0.0753
17851PP      PP27955  13.049  15.107  11.798 -0.0058 -0.3023 -0.0150
17852PP      PP27956  11.252   0.247   4.477  0.1554 -0.0267 -0.0576
17853PP      PP27957   3.181   3.112   2.217 -0.2141 -0.2695 -0.0514
17854PP      PP27958   3.734   9.750   0.209  0.3062  0.0058  0.4110
17855PP      PP27959   7.203  11.957  13.233  0.1700  0.0806  0.4609
17856PP      PP27960   9.102   4.333   9.666  0.0641  0.1634  0.1206
17857PP      PP27961  12.157  10.862  13.219  0.0032  0.1258 -0.0742
17858PP      PP27962   8.579   5.476   9.163  0.1117 -0.1818 -0.3142
17859PP      PP27963  14.589  10.438   9.834 -0.1050  0.0289 -0.2293
17860PP      PP27964   2.325   1.708  11.243  0.3214  0.3952  0.0530
17861PP      PP27965   3.390  13.803  10.220 -0.0153  0.2012 -0.0798
17862PP      PP27966   5.824   3.998  10.248 -0.0013  0.0131  0.3949
17863PP      PP27967   7.692   5.602  10.699 -0.0818 -0.0454  0.1449
17864PP      PP27968  11.720  12.888   9.289  0.1630 -0.1015  0.1212
17865PP      PP27969   1.225  13.514   9.595  0.0313  0.0803  0.3325
17866PP      PP27970   8.191   4.788   2.883 -0.0822 -0.1085 -0.3009
17867PP      PP27971  10.159  10.419  13.304  0.0306  0.1631 -0.1511
17868PP      PP27972  15.782   6.350   9.587 -0.0580  0.2886  0.1344
17869PP      PP27973   7.993   2.296  10.384  0.0850 -0.2290  0.1268
17870PP      PP27974  10.227   2.745   9.851 -0.3677  0.2327  0.0769
17871PP      PP27975   6.850   6.402  11.419 -0.1441  0.1833  0.0225
17872PP      PP27976   0.768   6.959   9.369 -0.1003  0.2070  0.1079
17873PP      PP27977   7.519  13.318   0.892  0.1874 -0.0832 -0.0587
17874PP      PP27978  13.423   0.486  11.172  0.0143  0.2205  0.2398
17875PP      PP27979  15.013   5.098   3.314 -0.0211  0.4176  0.0037
17876PP      PP27980  13.263   1.762   2.875  0.0247 -0.1270 -0.0381
17877PP      PP27981  14.695   6.674   4.681  0.1056  0.3082  0.0368
17878PP      PP27982   0.328   6.475  11.183 -0.3397  0.2661 -0.1826
17879PP      PP27983   9.674  11.702   0.522 -0.0398  0.0008  0.0649
17880PP      PP27984   5.100   2.380   1.172 -0.1027 -0.1422  0.3075
17881PP      PP27985   1.054  10.652   9.206 -0.0828 -0.0078  0.0104
17882PP      PP27986  15.671   7.833  11.794  0.3775  0.3467  0.0681
17883PP      PP27987   4.393  12.956   3.890 -0.0050 -0.1268 -0.2666
17884PP      PP27988   8.578  15.453   3.275  0.0428 -0.3117 -0.2756
17885PP      PP27989  14.987   2.300   3.583  0.0267  0.1582  0.1989
17886PP      PP27990   8.635   0.246   1.411 -0.1089  0.0570 -0.0841
17887PP      PP27991   9.550   5.073   1.711  0.0954 -0.2180  0.0409
17888PP      PP27992   8.551   2.375   9.281  0.3144 -0.2048 -0.0519
17889PP      PP27993   3.918  14.866   9.671 -0.0407  0.2374  0.3193
17890PP      PP27994   3.401   0.721   9.863  0.0495 -0.3006  0.1318
17891PP      PP27995  10.624  10.761  10.030  0.0440  0.0206 -0.1807
17892PP      PP27996   1.545   4.568   1.673 -0.0536  0.2736 -0.2750
17893PP      PP27997   1.357   8.273   9.551 -0.3328 -0.3909 -0.3274
17894PP      PP27998  11.497   8.529  13.043 -0.3004  0.0395  0.2793
17895PP      PP27999  11.028  12.289  13.029  0.0655 -0.0268  0.1504
17896PP      PP28000   8.973   3.710   2.824  0.4360 -0.1932  0.0386
17897PP      PP28001  11.081  14.666   0.464 -0.2176  0.1587  0.1886
17898PP      PP28002  12.124   5.209   3.851 -0.0033 -0.4044 -0.1214
17899PP      PP28003   7.956   8.623   0.180 -0.1433 -0.0705 -0.0744
17900PP      PP28004   5.082   2.909  13.170 -0.0593 -0.2019 -0.2231
17901PP      PP28005  10.912  10.085   1.147 -0.3944  0.3972 -0.1909
17902PP      PP28006   7.302   8.633  12.653  0.2498 -0.0804 -0.0528
17903PP      PP28007   5.519  12.881   2.932  0.0398 -0.3066  0.0325
17904PP      PP28008   8.940  13.534   2.728 -0.1363 -0.2176  0.1595
17905PP      PP28009  15.676   1.500  12.038  0.0454 -0.0281 -0.1053
17906PP      PP28010   8.600  11.321   9.790  0.2964  0.2084 -0.3425
17907PP      PP28011  12.965   2.468   9.333 -0.1256  0.0202 -0.1682
17908PP      PP28012  12.185  13.937   0.119  0.1426 -0.2690 -0.0860
17909PP      PP28013   0.615  14.736  12.431  0.1921  0.1430 -0.1013
17910PP      PP28014  13.533   8.471  13.182 -0.3596  0.2435 -0.1312
17911PP      PP28015   1.154  10.360   9.964  0.0053  0.1053 -0.1729
17912PP      PP28016   2.703  12.624  13.287 -0.0625 -0.0059  0.1415
17913PP      PP28017   8.039   2.929   8.849  0.0635 -0.0368  0.4163
17914PP      PP28018   5.662  12.942  12.390 -0.1228  0.0188 -0.2696
17915PP      PP28019   2.064  10.908   1.784 -0.1592  0.1938 -0.0419
17916PP      PP28020   1.035   4.244   0.929  0.0969  0.2869  0.1722
17917PP      PP28021  11.860   1.684  10.142  0.3493  0.1250 -0.4926
17918PP      PP28022   5.177  12.066   2.682  0.2123  0.2527  0.2515
17919PP      PP28023   4.988   8.532  10.342 -0.0668  0.1022 -0.0128
17920PP      PP28024   4.357   2.127  12.602 -0.0921  0.0285 -0.0140
17921PP      PP28025  10.875   6.488   3.534  0.2883 -0.0292 -0.2043
17922PP      PP28026  14.802  15.224   9.823 -0.2364 -0.2288 -0.0966
17923PP      PP28027   4.820   3.570   9.396 -0.2121 -0.1914  0.3392
17924PP      PP28028   7.953  14.621   8.594 -0.0263  0.2813  0.1942
17925PP      PP28029   8.598  14.112  11.828  0.0023  0.0412  0.1439
17926PP      PP28030   4.568  11.841   1.431 -0.1688  0.3124  0.1697
17927PP      PP28031   8.746   6.478   4.319  0.0696  0.0359 -0.1854
17928PP      PP28032   2.975   1.469  13.264 -0.0657 -0.0806  0.4752
17929PP      PP28033   4.446  15.191   9.035 -0.1702 -0.2215 -0.4172
17930PP      PP28034   3.312   9.637   0.552 -0.1294  0.1425 -0.2365
17931PP      PP28035  12.973  12.787  10.996  0.0017 -0.1315 -0.1444
17932PP      PP28036  13.487   2.004  10.273 -0.2572  0.0775 -0.0166
17933PP      PP28037   6.101  12.673  12.640  0.0832  0.2667 -0.1021
17934PP      PP28038   3.319   3.547  12.150 -0.0357 -0.0686  0.0013
17935PP      PP28039   4.878   2.223   0.039 -0.4635 -0.1028  0.1042
17936PP      PP28040   6.148  15.036   4.002 -0.2480  0.0900  0.3423
17937PP      PP28041   5.896  13.400   1.604  0.3099  0.1071  0.0836
17938PP      PP28042  14.121   6.937  10.737 -0.3196 -0.2008  0.1992
17939PP      PP28043   1.598   5.111   9.061 -0.0536  0.1183 -0.0812
17940PP      PP28044  10.542   7.405   0.553 -0.3200  0.1463  0.1575
17941PP      PP28045  11.536  11.506  10.617 -0.0493  0.0612 -0.0415
17942PP      PP28046   3.985  10.904  11.730  0.2868 -0.0663 -0.0233
17943PP      PP28047  12.439   6.997   4.234  0.0881  0.3014 -0.0327
17944PP      PP28048   0.849   3.445   9.175  0.3689  0.3184  0.0658
17945PP      PP28049  14.352  12.094  10.819 -0.1092  0.1806  0.1834
17946PP      PP28050  11.883   5.519  10.866 -0.1451 -0.0582 -0.3710
17947PP      PP28051   2.881   0.808  11.405  0.3275  0.1010 -0.3129
17948PP      PP28052  13.942   7.069  12.875  0.0543 -0.3001 -0.0845
17949PP      PP28053  14.470   6.736   0.701 -0.2235 -0.0177  0.5266
17950PP      PP28054   6.211  12.149  12.921  0.3714  0.1311  0.1571
17951PP      PP28055   8.972  13.400  12.870 -0.1371 -0.0786 -0.0835
17952PP      PP28056   2.519   2.734  11.686  0.2933 -0.0168 -0.0494
17953PP      PP28057   4.374   1.662  12.385  0.1653 -0.1180 -0.0727
17954PP      PP28058  13.330  11.709  11.477 -0.1458  0.1787  0.0885
17955PP      PP28059  14.782  12.055  11.220  0.0476 -0.1192  0.0395
17956PP      PP28060  10.861   9.570  12.420  0.2039 -0.2118  0.1191
17957PP      PP28061   4.927   8.910  10.036  0.1204  0.0000 -0.1661
17958PP      PP28062   7.853   2.041  12.645 -0.0396 -0.2268 -0.2490
17959PP      PP28063  15.438  12.155  10.575  0.1560  0.0061  0.2519
17960PP      PP28064   4.552  15.359  12.875  0.0597 -0.3620  0.0469
17961PP      PP28065   7.033   7.497   2.917  0.0272  0.0892  0.2187
17962PP      PP28066   3.367   5.792  10.266 -0.2040  0.1348  0.3397
17963PP      PP28067  11.607   8.608   0.994 -0.0452 -0.0736 -0.0971
17964PP      PP28068  11.323   7.863  11.333 -0.1728 -0.0674  0.2115
17965PP      PP28069   0.505   5.822  11.571  0.2334  0.2065 -0.2372
17966PP      PP28070   2.598   2.928   3.903 -0.1219  0.1951 -0.1603
17967PP      PP28071  12.157  12.474   3.097  0.2196  0.1022  0.1361
17968PP      PP28072   4.057   1.205   1.969  0.1342 -0.3336 -0.2218
17969PP      PP28073  13.521   2.788   9.026 -0.1010  0.0301 -0.0002
17970PP      PP28074  15.476  10.233  10.109 -0.1692 -0.0280  0.2476
17971PP      PP28075   0.987  11.214   0.274  0.2015 -0.2456 -0.1118
17972PP      PP28076   1.654   7.957   9.865  0.1188 -0.1933 -0.2224
17973PP      PP28077  13.196   7.697   2.168 -0.3542 -0.1609 -0.0012
17974PP      PP28078   0.223   1.889   2.513 -0.1629  0.3041 -0.1604
17975PP      PP28079   1.999  14.032  12.139  0.0754 -0.1467  0.3676
17976PP      PP28080   4.763  13.449  12.534 -0.1162 -0.0349  0.2181
17977PP      PP28081   9.834  14.352   9.869 -0.2758 -0.0138  0.1886
17978PP      PP28082   4.795   2.453   2.042  0.0975 -0.4773 -0.0506
17979PP      PP28083   2.350   4.800   4.408  0.0767  0.2284  0.0439
17980PP      PP28084  13.826  13.661  12.440  0.0057  0.0805  0.0258
17981PP      PP28085   2.966   1.486   2.420  0.1676 -0.0701  0.2224
17982PP      PP28086  12.378   8.465  13.322  0.0456  0.0027 -0.0095
17983PP      PP28087  15.419   0.605   3.935  0.1116 -0.0152 -0.1715
17984PP      PP28088   2.115  12.242   9.850 -0.1266 -0.2563  0.2181
17985PP      PP28089   1.673  10.467   9.299  0.0157  0.0916  0.0868
17986PP      PP28090  14.775   9.696   3.775  0.0325  0.1438  0.1069
17987PP      PP28091  11.623   8.784   3.196  0.1880  0.0414  0.0141
17988PP      PP28092  11.055   4.189   8.563  0.0886  0.3718 -0.1495
17989PP      PP28093   9.023   7.780   1.071  0.0184  0.2480  0.1488
17990PP      PP28094  14.112  13.842   3.177 -0.2461  0.1560  0.2987
17991PP      PP28095   0.504   9.270   0.316  0.1142 -0.2164 -0.2432
17992PP      PP28096   0.802   6.886   2.131 -0.1163 -0.0069  0.3824
17993PP      PP28097   2.410   0.597  11.343 -0.4957  0.2132 -0.0106
17994PP      PP28098   1.581   5.753  10.194  0.1228  0.0710 -0.1277
17995PP      PP28099  11.008  14.007   2.935  0.0074 -0.1647 -0.2088
17996PP      PP28100   7.713   7.541  13.179  0.0515 -0.0782 -0.0562
17997PP      PP28101  10.815   4.649   1.096 -0.2143 -0.1203 -0.0005
17998PP      PP28102   4.439  12.801  13.123  0.1828 -0.0587  0.2481
17999PP      PP28103   2.283  14.202   3.036  0.2821  0.1287 -0.0356
18000PP      PP28104  15.793   1.488   3.237 -0.0166  0.0212  0.0250
18001PP      PP28105  13.693  11.573   1.911  0.2345 -0.1569 -0.2828
18002PP      PP28106   2.031   9.744   3.757  0.2916 -0.0448 -0.2368
18003PP      PP28107   7.843  13.511   3.197 -0.1559 -0.1124 -0.2911
18004PP      PP28108  11.872   1.444   4.601  0.0549  0.0853 -0.0509
18005PP      PP28109   0.629  10.956  11.333 -0.1249  0.0939  0.0153
18006PP      PP28110   4.979   1.453  12.532  0.1674  0.1715 -0.1510
18007PP      PP28111   9.884   9.467  12.895 -0.3786  0.1292 -0.0733
18008PP      PP28112   5.058   4.165  10.390 -0.0264 -0.2191  0.3025
18009PP      PP28113  15.939   9.247   0.197 -0.0451  0.2500  0.2438
18010PP      PP28114  10.671  10.668   2.997  0.2002  0.0872 -0.3409
18011PP      PP28115   2.028  13.242   4.045 -0.1066  0.1919 -0.1234
18012PP      PP28116   9.251  14.697   0.338 -0.0791 -0.1790 -0.0793
18013PP      PP28117   8.044  15.606   1.420 -0.2396 -0.1896 -0.3052
18014PP      PP28118  11.871  15.890   1.591 -0.2985 -0.0746 -0.0630
18015PP      PP28119  10.985   2.702   3.560  0.0452  0.0251  0.4534
18016PP      PP28120   1.292  14.112   0.516 -0.2372 -0.1174  0.0899
18017PP      PP28121  12.719   5.335   1.239 -0.1214 -0.2029 -0.0621
18018PP      PP28122   7.201  12.661   0.282  0.2728 -0.0526  0.2377
18019PP      PP28123   8.541   6.579  12.459  0.1546 -0.0905  0.1711
18020PP      PP28124  12.159  13.218  10.847  0.1025 -0.2955  0.1950
18021PP      PP28125   3.325  10.435   3.445 -0.0302 -0.1469  0.1077
18022PP      PP28126  12.530   0.297  13.192  0.1131  0.1448 -0.0655
18023PP      PP28127   7.358   6.177   3.861 -0.1346  0.3024  0.0761
18024PP      PP28128   1.178   3.471   0.305  0.2657  0.1959 -0.0131
18025PP      PP28129  10.697  11.271   9.218 -0.2596 -0.3110 -0.0527
18026PP      PP28130  11.173  10.055  10.979  0.2622  0.1261  0.1560
18027PP      PP28131   5.659   9.093   2.186  0.1374  0.4487  0.1861
18028PP      PP28132  14.966  11.030   0.326  0.0931 -0.4825  0.0375
18029PP      PP28133   7.482   3.138   9.772  0.0725  0.0959 -0.0364
18030PP      PP28134   6.769   0.208   3.970 -0.2067  0.0090 -0.0725
18031PP      PP28135  12.316   2.470   0.750 -0.0468  0.0767  0.1701
18032PP      PP28136   7.737   6.242  12.581  0.2651 -0.0006 -0.1207
18033PP      PP28137   1.063  11.313   3.690  0.0439 -0.2192 -0.0801
18034PP      PP28138   7.889   8.061   0.184 -0.0679  0.4794 -0.0110
18035PP      PP28139  10.797   3.412  11.715 -0.1263 -0.0541  0.0142
18036PP      PP28140   0.617   8.020  11.984 -0.0644  0.3656 -0.1209
18037PP      PP28141   5.943   8.460   3.858 -0.2388  0.2767  0.0502
18038PP      PP28142   5.992  11.029  11.880 -0.2887  0.0125 -0.2008
18039PP      PP28143  11.226   2.844  13.196 -0.0028  0.1377  0.0879
18040PP      PP28144  12.480  15.401   8.997 -0.3970 -0.0535  0.0297
18041PP      PP28145   8.024   3.150  12.709 -0.1016  0.0251 -0.0636
18042PP      PP28146   0.605  13.998   1.575 -0.2152  0.1825  0.1999
18043PP      PP28147   3.945  13.889  11.084 -0.1463  0.1423 -0.2288
18044PP      PP28148   7.688   7.374   9.780  0.1297  0.1876 -0.0644
18045PP      PP28149   4.313   9.278   3.286  0.4248 -0.1297 -0.1369
18046PP      PP28150   2.326  12.877   9.843 -0.1000 -0.0868  0.1109
18047PP      PP28151  11.643  13.362  10.561  0.3834  0.1658  0.0414
18048PP      PP28152   7.960  15.173  10.225 -0.0251 -0.0591 -0.2632
18049PP      PP28153   1.059   3.959  11.795 -0.1862 -0.0117 -0.3438
18050PP      PP28154   6.208  11.680   9.242  0.4372 -0.3082 -0.0458
18051PP      PP28155   1.068  15.885   2.346 -0.0276 -0.1023 -0.1563
18052PP      PP28156   9.574   5.844   2.400  0.1942  0.3914  0.1066
18053PP      PP28157  12.952   1.862   4.004 -0.0979  0.1580  0.5643
18054PP      PP28158   4.800   7.539   0.600 -0.0092  0.0152  0.2116
18055PP      PP28159  12.188   8.793   3.119 -0.1881  0.0204  0.0218
18056PP      PP28160  14.321   2.972  11.026  0.2004  0.0081  0.2368
18057PP      PP28161  11.195  15.501   3.476 -0.2334  0.0342 -0.2447
18058PP      PP28162   5.389  14.099   9.375 -0.2012 -0.3240  0.2489
18059PP      PP28163   4.688   0.816  12.240  0.0577  0.0144 -0.2301
18060PP      PP28164   7.165   9.728   9.523 -0.2067 -0.0405  0.5172
18061PP      PP28165   6.409  12.961  12.012  0.1322  0.2055  0.0112
18062PP      PP28166  10.741   6.636   4.073  0.0065 -0.1886 -0.1965
18063PP      PP28167   5.752   9.060   3.354  0.5461 -0.1122 -0.0686
18064PP      PP28168  12.749  13.275   4.419  0.1687 -0.2824 -0.2131
18065PP      PP28169   6.641  15.001  10.356 -0.0674 -0.2267 -0.1233
18066PP      PP28170   2.471   5.004  12.255 -0.2022  0.0045  0.2234
18067PP      PP28171   7.444   6.791   0.668  0.0336 -0.1217 -0.0555
18068PP      PP28172   4.409   8.930   2.035 -0.0171 -0.0266  0.2214
18069PP      PP28173   5.449  10.630   3.148  0.0584 -0.1434 -0.3946
18070PP      PP28174   3.389  15.111   3.144 -0.0680  0.2319  0.0621
18071PP      PP28175   3.625  11.152   2.781  0.1081  0.0193  0.1078
18072PP      PP28176  12.565  12.337   1.827  0.2752  0.0006 -0.0678
18073PP      PP28177   5.681   0.297  12.960 -0.0777 -0.1968 -0.1230
18074PP      PP28178  11.502  10.833   1.593 -0.0135  0.0528 -0.0514
18075PP      PP28179   9.904  15.773  11.616  0.1788 -0.2506  0.1648
18076PP      PP28180   9.237   6.365   0.760 -0.1875 -0.2780  0.1514
18077PP      PP28181   3.027  11.175   1.327 -0.1165 -0.0197  0.0226
18078PP      PP28182  13.760   8.481   4.496  0.5402 -0.0926 -0.0083
18079PP      PP28183  15.229   8.070  13.031  0.0599  0.0699  0.1799
18080PP      PP28184   0.579  11.159   3.665 -0.2615 -0.0982  0.0977
18081PP      PP28185  14.798  13.503   0.815  0.5316  0.1284  0.1461
18082PP      PP28186   0.792   7.102   3.001 -0.2536  0.2798 -0.0649
18083PP      PP28187  10.878   8.411   0.100  0.0360 -0.0173  0.1535
18084PP      PP28188   8.389   7.332   3.235 -0.1950 -0.1262 -0.0968
18085PP      PP28189   6.514  12.715  13.024  0.1817 -0.0373  0.0922
18086PP      PP28190   6.711   6.991   3.645  0.2919 -0.0609 -0.1050
18087PP      PP28191  10.304   4.043   1.184 -0.1005 -0.1371  0.2248
18088PP      PP28192   9.485  10.165  10.724  0.0622 -0.3409  0.0478
18089PP      PP28193   1.926  10.911   9.042 -0.3923  0.1072 -0.3345
18090PP      PP28194  11.467   2.085  10.213  0.2057  0.0846 -0.0746
18091PP      PP28195   7.173   8.799   9.974 -0.1153  0.1018  0.1705
18092PP      PP28196   5.398   2.927   3.868  0.1869  0.1764 -0.0353
18093PP      PP28197   6.079   5.363   0.276  0.1167 -0.1014  0.3658
18094PP      PP28198   7.444   6.893   4.256 -0.0454  0.1561  0.1347
18095PP      PP28199  12.293   2.879   9.794 -0.0834  0.3735  0.3642
18096PP      PP28200   8.953   3.461   9.209 -0.2136 -0.2096 -0.0051
18097PP      PP28201  10.579   8.843  12.286 -0.1876  0.3861  0.1416
18098PP      PP28202   5.727  12.275   1.373 -0.1512 -0.2020  0.1701
18099PP      PP28203   7.289  12.767   8.597 -0.1332  0.1171  0.0178
18100PP      PP28204   0.763   6.230  12.307 -0.0591  0.1004 -0.2791
18101PP      PP28205  14.225   2.363   9.667 -0.1278  0.4975  0.1906
18102PP      PP28206   5.999  12.922   9.644 -0.1418 -0.0894  0.2784
18103PP      PP28207   7.958   6.858   9.902 -0.1645 -0.0434 -0.1480
18104PP      PP28208  12.340  11.333   4.514  0.3535 -0.0786 -0.1408
18105PP      PP28209   5.869  11.415   1.256  0.1265 -0.0424  0.0105
18106PP      PP28210  13.594   5.377  11.028  0.1608  0.3779  0.0889
18107PP      PP28211   5.216   4.199   1.824  0.2573  0.3161  0.2536
18108PP      PP28212   7.665   5.861   2.462  0.1853  0.2264  0.1894
18109PP      PP28213   3.603   4.420   1.598 -0.2715  0.0591 -0.0166
18110PP      PP28214   9.524  12.079  12.024  0.1147 -0.0950 -0.2696
18111PP      PP28215   1.644  11.159   8.631 -0.2189 -0.2402  0.2769
18112PP      PP28216  14.076   7.238  13.309  0.0445 -0.0019 -0.0819
18113PP      PP28217   0.743   4.936   2.469 -0.0702  0.0138 -0.0426
18114PP      PP28218  15.081   3.130  10.582  0.0722 -0.0245  0.2315
18115PP      PP28219   6.665   3.672   0.017 -0.2342 -0.3409 -0.2096
18116PP      PP28220   5.461  13.320  10.777  0.0435  0.1035  0.0387
18117PP      PP28221   0.835   8.709  12.092  0.2191  0.1047 -0.1800
18118PP      PP28222   5.437   0.511   9.711  0.1011  0.1276 -0.1399
18119PP      PP28223   5.321   3.409  12.213  0.2727 -0.0467 -0.2467
18120PP      PP28224  15.493   5.651   2.024  0.5860  0.2723  0.2359
18121PP      PP28225  11.916   9.569   1.099 -0.2397  0.0176  0.1231
18122PP      PP28226   3.863   0.144   9.212  0.2572  0.1540  0.2506
18123PP      PP28227   3.608  13.397   2.923  0.3213 -0.1180  0.0660
18124PP      PP28228   4.696   0.313   1.401 -0.1555  0.2452  0.3591
18125PP      PP28229   5.494   2.928   2.466  0.2855 -0.0501 -0.0302
18126PP      PP28230   8.377   9.852   2.601  0.1010 -0.1187  0.0056
18127PP      PP28231   9.737  10.533   9.514 -0.0066  0.1737  0.2638
18128PP      PP28232   2.217  11.503   4.235 -0.2105  0.2598  0.0465
18129PP      PP28233  13.810   9.742   1.229  0.0652 -0.2442 -0.1018
18130PP      PP28234  12.281   0.321  10.453  0.4871  0.2263  0.2191
18131PP      PP28235   5.492   7.352  12.243 -0.1517 -0.0406  0.2532
18132PP      PP28236   5.888   8.302   2.789 -0.0011  0.1829 -0.1592
18133PP      PP28237   9.608   3.253   2.917 -0.0479 -0.0570  0.2201
18134PP      PP28238  13.961   8.990   4.612 -0.2377 -0.2825  0.0009
18135PP      PP28239   8.382   9.370   0.820  0.1259  0.0510  0.3204
18136PP      PP28240   8.029   4.522   0.780 -0.3295 -0.0846  0.0899
18137PP      PP28241  11.150   8.621   9.992 -0.1481  0.4274  0.1382
18138PP      PP28242   7.522  12.295  13.398  0.0837  0.2820  0.0772
18139PP      PP28243  14.808   5.394   3.703 -0.0804  0.2758 -0.1702
18140PP      PP28244  10.627   2.667   3.182  0.1606 -0.0790 -0.3451
18141PP      PP28245  15.497  14.150   2.762  0.2374 -0.0649 -0.0983
18142PP      PP28246   1.744   7.201   1.096 -0.0280 -0.4447 -0.0698
18143PP      PP28247  14.413  15.699   0.728 -0.0794  0.3324 -0.1235
18144PP      PP28248   7.545   4.879   3.032  0.1976 -0.1486 -0.0233
18145PP      PP28249  15.630   0.602   2.242 -0.3577  0.0177  0.2960
18146PP      PP28250  14.432   9.037   4.370 -0.1006  0.0333 -0.1804
18147PP      PP28251   5.448   1.453   1.071 -0.0756  0.0595 -0.1684
18148PP      PP28252   7.151  12.191   9.682 -0.0565 -0.0558 -0.1701
18149PP      PP28253   2.883   1.824  12.116 -0.1797  0.2231 -0.1258
18150PP      PP28254  13.793  15.625  10.716  0.1073 -0.2085 -0.1746
18151PP      PP28255  10.211  15.783  13.237  0.0354 -0.0095  0.0953
18152PP      PP28256   6.614  13.985  11.570 -0.2142  0.3433 -0.1004
18153PP      PP28257   4.830  10.912  11.623  0.0435 -0.0983 -0.3331
18154PP      PP28258   1.141   0.852   2.291  0.3237 -0.2465 -0.2724
18155PP      PP28259  10.744   5.577   0.553 -0.0955 -0.1313  0.2832
18156PP      PP28260   5.873  13.162   3.309 -0.0277 -0.3440 -0.0801
18157PP      PP28261  13.359   4.314   0.127 -0.0013 -0.3417  0.2062
18158PP      PP28262   8.844   9.220   3.505 -0.0048  0.0753 -0.0732
18159PP      PP28263   8.091   6.146  10.010 -0.1572 -0.0551 -0.0733
18160PP      PP28264   0.101  10.797   3.588 -0.1672 -0.1984 -0.0565
18161PP      PP28265  13.306   5.777  11.246 -0.1206 -0.0786  0.0281
18162PP      PP28266   5.012   1.276   2.223  0.3212 -0.0235 -0.3206
18163PP      PP28267   3.031   3.653  10.136 -0.0725 -0.1176  0.0311
18164PP      PP28268   2.797  15.667   9.146 -0.0624  0.0306 -0.2600
18165PP      PP28269   7.039   1.953  12.980 -0.0228  0.3702 -0.3517
18166PP      PP28270   1.352  13.759  11.531  0.1717  0.0504  0.1807
18167PP      PP28271  15.418  11.960  11.099 -0.1772  0.0405  0.0964
18168PP      PP28272  11.318  10.700  11.872  0.2466  0.1375  0.0614
18169PP      PP28273   2.587   4.496  10.019  0.0138 -0.0153 -0.0164
18170PP      PP28274  14.330  12.900   3.590 -0.2414 -0.1241  0.1720
18171PP      PP28275  11.571   0.251  13.375  0.2508 -0.2611  0.0349
18172PP      PP28276  11.950   6.716   1.094 -0.3154  0.0203  0.0071
18173PP      PP28277  11.560  15.522   1.434 -0.0367  0.1066  0.0920
18174PP      PP28278   9.400  10.362   4.287  0.1472 -0.0614 -0.0587
18175PP      PP28279   9.352  12.420  10.638  0.0430 -0.2705 -0.0813
18176PP      PP28280  10.171  14.663   3.245  0.3179 -0.3258 -0.0105
18177PP      PP28281   8.561  13.818   2.552  0.0578  0.4043  0.3377
18178PP      PP28282  15.079   2.228   3.057  0.1142 -0.1751  0.0919
18179PP      PP28283   3.265   2.583   2.238  0.2084 -0.0071 -0.3514
18180PP      PP28284  12.620   3.245   8.596  0.0830  0.0878 -0.1736
18181PP      PP28285   5.016   5.639  11.744 -0.1020  0.2727  0.0450
18182PP      PP28286  12.701  13.388   2.928  0.0695  0.2198 -0.2025
18183PP      PP28287   0.182   1.213   9.992  0.2496  0.1859 -0.0312
18184PP      PP28288   5.988   2.758   1.426  0.0476  0.1514  0.1889
18185PP      PP28289   5.597   6.408  10.178  0.2737 -0.3080  0.0504
18186PP      PP28290  10.378  14.638   1.627  0.0945  0.0429 -0.0027
18187PP      PP28291   1.928   0.531  11.044  0.0739 -0.2107  0.1667
18188PP      PP28292   8.737  13.557   9.867  0.0010  0.0536 -0.0391
18189PP      PP28293   9.915  11.349   8.810 -0.0160 -0.1598 -0.1643
18190PP      PP28294  15.767   3.842   3.273 -0.0396 -0.1076  0.0926
18191PP      PP28295   0.066   2.489  10.050 -0.0885 -0.0995 -0.0274
18192PP      PP28296   8.138   8.422  11.267  0.0336  0.0312  0.0667
18193PP      PP28297   0.670   4.591   0.929 -0.0858  0.0230 -0.2277
18194PP      PP28298  13.266   9.860  10.760  0.1689  0.0540  0.0119
18195PP      PP28299  14.407   7.360  11.314 -0.2482  0.1970  0.1841
18196PP      PP28300   3.111   4.699   9.083  0.1519  0.0570  0.1887
18197PP      PP28301   6.253   5.498  13.172  0.1866  0.0946  0.1920
18198PP      PP28302   1.926   9.889   0.686  0.1894 -0.0612  0.0084
18199PP      PP28303   5.738   3.427   3.898  0.1148  0.1123  0.1915
18200PP      PP28304   3.978  14.036   1.169  0.0469  0.4337  0.0712
18201PP      PP28305   5.409   4.108   2.726  0.0016  0.3432  0.0433
18202PP      PP28306  10.225   6.371   0.849 -0.2648  0.1058 -0.3547
18203PP      PP28307   6.693   5.894  11.692 -0.0191 -0.0812  0.1771
18204PP      PP28308   8.187   6.584  10.723  0.0568 -0.0724 -0.2557
18205PP      PP28309   6.499  14.863  11.139 -0.0735  0.2501  0.0711
18206PP      PP28310   2.022  15.733   9.827 -0.0071 -0.0027 -0.1698
18207PP      PP28311   6.540   7.297   1.067 -0.2057 -0.0542 -0.0245
18208PP      PP28312  10.069   6.452   2.396 -0.1525 -0.1775  0.1465
18209PP      PP28313   6.937   4.902   1.351 -0.3795 -0.3079  0.0092
18210PP      PP28314  12.369   9.540  11.504 -0.6127 -0.0381 -0.0830
18211PP      PP28315  13.385   5.875   4.432 -0.0495 -0.0441 -0.4276
18212PP      PP28316   0.156  15.152   1.983  0.0897  0.0118 -0.1462
18213PP      PP28317   3.282   4.256   2.278  0.1238  0.0519 -0.0434
18214PP      PP28318  11.178  10.888   3.224 -0.2076 -0.1555  0.1161
18215PP      PP28319  14.085   8.266  12.818 -0.2392 -0.0761 -0.0169
18216PP      PP28320   7.238   5.520   2.203  0.0493  0.2229  0.0347
18217PP      PP28321   9.461   4.545  11.902 -0.1010  0.2760 -0.2893
18218PP      PP28322  13.576  11.074  10.366 -0.2698  0.1998 -0.1582
18219PP      PP28323  12.375  15.730  10.388  0.2485  0.3632 -0.0015
18220PP      PP28324   2.342   4.363   2.660  0.0901  0.1545  0.0695
18221PP      PP28325   9.678  12.742   3.895  0.1232  0.1649  0.0185
18222PP      PP28326  10.507  12.228  11.335  0.1500  0.2200  0.0018
18223PP      PP28327  14.661  13.224   2.248 -0.2012 -0.2230 -0.5378
18224PP      PP28328   4.017  10.876   1.129 -0.0638  0.0565 -0.1350
18225PP      PP28329   2.097   2.687  10.244  0.0614 -0.1290  0.0279
18226PP      PP28330   7.860   1.533   1.591  0.0974  0.3404 -0.1590
18227PP      PP28331   8.564  12.743   1.645 -0.3123  0.0185  0.1907
18228PP      PP28332   1.763   9.475   3.454 -0.0101 -0.0789 -0.0615
18229PP      PP28333   8.419  10.292   8.406  0.3829  0.3511 -0.1208
18230PP      PP28334  11.441   8.034  10.849 -0.0587  0.0163  0.4804
18231PP      PP28335  15.639  15.774   3.541 -0.1801  0.1021  0.0907
18232PP      PP28336  13.298   6.378  13.365  0.0561  0.2479  0.1397
18233PP      PP28337  11.763  13.720   0.792 -0.1335 -0.1538 -0.0717
18234PP      PP28338   1.102   7.753   2.016 -0.1154 -0.0562 -0.0844
18235PP      PP28339   6.306  10.012   0.764  0.0547  0.0430 -0.2875
18236PP      PP28340  15.257   1.727  10.216 -0.1429 -0.0197  0.1592
18237PP      PP28341   9.472  12.498   9.554 -0.0130  0.0897 -0.0167
18238PP      PP28342  13.868   4.076   2.554  0.1103 -0.0189  0.2488
18239PP      PP28343  15.247  10.259   0.939 -0.1843 -0.0606  0.0256
18240PP      PP28344  12.376   4.982   9.296  0.3554 -0.2847  0.0043
18241PP      PP28345   5.553   9.171  10.000  0.0306 -0.1772  0.1256
18242PP      PP28346  15.548   7.470  12.729  0.2307  0.0004 -0.0002
18243PP      PP28347  13.150   1.020   0.223 -0.1260 -0.2816 -0.0208
18244PP      PP28348  13.883   4.109   0.312  0.2667 -0.0230  0.0703
18245PP      PP28349   9.602   6.842   4.759 -0.0897 -0.1104  0.2119
18246PP      PP28350  15.514  13.398   9.042  0.1660  0.0592  0.1030
18247PP      PP28351  15.768  13.153   3.700  0.2790  0.3198  0.0001
18248PP      PP28352  14.725   5.469  11.819  0.0616  0.1234 -0.2094
18249PP      PP28353   4.117  12.406   4.185 -0.2827  0.3223 -0.1860
18250PP      PP28354   5.589   8.810   3.742 -0.0075  0.0917 -0.0100
18251PP      PP28355  14.937   6.113   4.147 -0.2041  0.0436 -0.1644
18252PP      PP28356   7.392   2.154   0.339 -0.0390  0.0632 -0.0219
18253PP      PP28357   3.414   1.167  12.713  0.0756 -0.2512 -0.0461
18254PP      PP28358  13.940  12.853   2.826 -0.2648 -0.0806  0.3886
18255PP      PP28359  14.933  14.559  12.039 -0.0992 -0.0408  0.1131
18256PP      PP28360  11.439   6.534   2.687 -0.3406  0.0662  0.2058
18257PP      PP28361   1.750  14.158  11.726 -0.1904 -0.0477  0.2131
18258PP      PP28362  11.450   4.022   2.770 -0.1716 -0.0886  0.1317
18259PP      PP28363  14.523   4.334   8.654  0.1590  0.1898 -0.3152
18260PP      PP28364  11.074  10.862   1.349  0.1276 -0.1971 -0.1304
18261PP      PP28365   8.655   8.485   0.844  0.1292 -0.0416  0.2401
18262PP      PP28366   2.310  13.907   0.431 -0.0344 -0.0182 -0.0642
18263PP      PP28367  10.578   3.974   8.655  0.0055  0.1326  0.1342
18264PP      PP28368   3.598  14.144  10.637  0.2028 -0.4196  0.0074
18265PP      PP28369   4.926   8.530  13.182  0.0676 -0.1930  0.0370
18266PP      PP28370  11.381  13.901   0.554  0.2225 -0.3280 -0.1125
18267PP      PP28371   2.959  14.058   3.081  0.4049  0.2176  0.1689
18268PP      PP28372   3.360  14.549  12.441 -0.1169 -0.1555  0.1576
18269PP      PP28373   1.700  13.662  11.877 -0.1729 -0.1763 -0.0807
18270PP      PP28374  13.877   9.281   2.744 -0.0684 -0.2987  0.1952
18271PP      PP28375   8.324   8.807  10.007 -0.1228  0.1106  0.1280
18272PP      PP28376  10.482  14.864  11.354  0.0915  0.2286  0.1345
18273PP      PP28377  12.145   7.892  10.643 -0.1205 -0.0769 -0.1551
18274PP      PP28378  15.035   7.814  10.844  0.1524 -0.1158 -0.1757
18275PP      PP28379   9.486   9.432  10.225 -0.1162 -0.0446  0.0683
18276PP      PP28380   1.526  10.087   9.621 -0.0239 -0.3718 -0.1770
18277PP      PP28381   1.952   8.151   4.360  0.2258  0.1796 -0.0138
18278PP      PP28382   8.463   5.107   4.270 -0.1902 -0.1247 -0.1382
18279PP      PP28383  14.901  15.067  12.898  0.1122 -0.3269 -0.0562
18280PP      PP28384   2.710   2.523  12.513  0.2761  0.0820 -0.0990
18281PP      PP28385   1.164  12.382  12.584  0.1371 -0.1376 -0.0252
18282PP      PP28386   3.520  15.283  11.688 -0.1048  0.2351 -0.1276
18283PP      PP28387   9.310   2.477   1.993  0.0074 -0.0185 -0.1830
18284PP      PP28388  15.704  10.245   1.212  0.0716 -0.1061  0.0665
18285PP      PP28389   4.060  13.190   0.815  0.0160  0.0892  0.0646
18286PP      PP28390  14.543   9.147  10.513 -0.1040  0.3839  0.1394
18287PP      PP28391  15.427   6.483   0.630  0.2074 -0.0713 -0.0083
18288PP      PP28392   5.194   9.190   5.198 -0.1059 -0.0851  0.2862
18289PP      PP28393   7.734   3.673   0.808 -0.0871  0.2340  0.2041
18290PP      PP28394  11.094   8.282  10.618 -0.0532  0.1842  0.0153
18291PP      PP28395  13.975  11.849  10.998  0.0772  0.1887 -0.2338
18292PP      PP28396   2.678  12.272   2.440  0.2460 -0.3071 -0.0141
18293PP      PP28397  13.228  13.448   3.180  0.0295 -0.0386 -0.1891
18294PP      PP28398   1.057   9.940  10.367  0.0483  0.2204  0.2915
18295PP      PP28399  14.061  11.920   4.324 -0.2077  0.1694  0.1041
18296PP      PP28400   5.199   6.285   1.802 -0.1390 -0.0554 -0.1665
18297PP      PP28401   6.520   7.681   4.319 -0.2314 -0.0856 -0.0858
18298PP      PP28402  10.492   3.416   9.275 -0.1404 -0.3559  0.0634
18299PP      PP28403  12.626  13.039  12.695 -0.0105  0.0798 -0.1418
18300PP      PP28404   6.708  10.442  10.983  0.0983 -0.3432  0.1155
18301PP      PP28405  13.566   0.506  12.508 -0.0054 -0.3164 -0.1686
18302PP      PP28406   6.330   8.244   2.917 -0.2706  0.3206 -0.3129
18303PP      PP28407   5.906   1.783   1.097 -0.1825 -0.2509  0.0705
18304PP      PP28408   7.609   1.515  11.335  0.0601 -0.1735  0.4168
18305PP      PP28409   6.907  14.253   1.153  0.2471  0.1364 -0.3051
18306PP      PP28410  15.814   2.699  11.764 -0.0456 -0.3042 -0.1437
18307PP      PP28411  13.766  10.634   3.741  0.1455 -0.1396 -0.0320
18308PP      PP28412   3.882   9.158   9.810 -0.1973 -0.2375 -0.1912
18309PP      PP28413  15.104  13.359  13.358  0.2411 -0.3400 -0.1881
18310PP      PP28414   3.428  10.833   3.104 -0.1259  0.0240 -0.3334
18311PP      PP28415   7.259   4.986   2.400 -0.0298 -0.1639  0.0309
18312PP      PP28416  11.063  10.016   4.951  0.3253  0.0420 -0.3179
18313PP      PP28417   3.430  14.594   2.047  0.0839  0.0854 -0.0568
18314PP      PP28418   0.689  12.871   3.914  0.1241 -0.1379  0.1537
18315PP      PP28419   0.743   4.779  11.957  0.2035 -0.1207  0.2363
18316PP      PP28420  12.932   7.367   2.547  0.1761 -0.2122  0.1256
18317PP      PP28421   4.129   8.430   2.747 -0.1694 -0.2922 -0.1570
18318PP      PP28422   5.573   9.673   1.058 -0.3151 -0.5266  0.1822
18319PP      PP28423  10.106  14.264   1.799  0.3233  0.0967 -0.0377
18320PP      PP28424   9.308  10.385   2.768 -0.2285  0.1596  0.0109
18321PP      PP28425   6.139   5.495   3.629 -0.4662  0.3172 -0.1474
18322PP      PP28426   3.827   9.974   4.434  0.0063  0.2528  0.0476
18323PP      PP28427   1.810  11.919   8.868 -0.0839  0.1363 -0.1331
18324PP      PP28428  12.885   5.910  10.939 -0.3660 -0.1803 -0.1576
18325PP      PP28429  13.094  13.116  12.901 -0.2474  0.0675  0.1594
18326PP      PP28430   8.228   2.724  12.219  0.0489  0.0398 -0.0659
18327PP      PP28431   1.833  11.041   4.526 -0.3574  0.1875 -0.1562
18328PP      PP28432  12.789  13.685   2.087  0.3405 -0.1688  0.1132
18329PP      PP28433   5.712   2.985  10.787  0.0237  0.3476  0.3391
18330PP      PP28434   0.738   8.684  11.169 -0.1096  0.0171 -0.1976
18331PP      PP28435   3.285   6.931  10.593 -0.2417 -0.3275 -0.3213
18332PP      PP28436   4.740   7.513  10.043  0.3106 -0.1408 -0.0405
18333PP      PP28437  12.152   5.846   9.084  0.0506 -0.1745  0.0208
18334PP      PP28438   5.651  13.633  10.275  0.1356 -0.1979  0.0087
18335PP      PP28439   3.927   1.099  12.811 -0.1059  0.1694 -0.1010
18336PP      PP28440   9.148   7.787  13.125  0.0569  0.0225 -0.0248
18337PP      PP28441  12.483   7.648  12.858  0.1174 -0.1650 -0.2383
18338PP      PP28442   9.718   7.641   0.787 -0.3644 -0.1700 -0.0667
18339PP      PP28443  14.460  13.356   1.203  0.0865 -0.3146  0.2867
18340PP      PP28444   6.499   7.203   3.008 -0.1710  0.0824  0.1870
18341PP      PP28445   9.338  11.676  11.182 -0.0198  0.0920 -0.0194
18342PP      PP28446   8.428  11.266   2.093  0.0442 -0.1459  0.0275
18343PP      PP28447   1.960   0.879  12.492 -0.1703 -0.0310  0.0287
18344PP      PP28448  13.188   5.113  13.297 -0.0749 -0.1588  0.0121
18345PP      PP28449   0.904   4.010  13.058 -0.6063 -0.0391 -0.6112
18346PP      PP28450   5.952  14.288  10.344 -0.2230 -0.2476 -0.2419
18347PP      PP28451   8.018  15.724  11.634  0.0739  0.0892 -0.0915
18348PP      PP28452   1.447  12.788   0.447 -0.2510 -0.0068 -0.0167
18349PP      PP28453   6.924   0.247   1.047  0.1062 -0.3276 -0.0444
18350PP      PP28454   2.474   9.670  13.390  0.2811  0.0559  0.0885
18351PP      PP28455   9.991   9.453   1.427  0.2444  0.2596 -0.2402
18352PP      PP28456   1.867   0.071   3.391 -0.1141  0.0518 -0.0986
18353PP      PP28457  10.632   5.991   9.569 -0.0539 -0.1473  0.0202
18354PP      PP28458  10.549   3.654  12.111 -0.2523 -0.1202 -0.1499
18355PP      PP28459  12.224   2.983  11.597  0.1181 -0.2416 -0.2241
18356PP      PP28460   6.606   5.276  12.962 -0.0947 -0.0447  0.2596
18357PP      PP28461   6.596   3.985  10.099  0.0360 -0.2626 -0.2665
18358PP      PP28462   0.212   8.384   2.011 -0.2107 -0.0276  0.1683
18359PP      PP28463  12.356   3.695  10.620  0.3788  0.2285  0.2579
18360PP      PP28464   7.333   4.176  12.670  0.0912 -0.0180  0.0724
18361PP      PP28465  13.036   2.110   0.495  0.2298 -0.1570  0.1216
18362PP      PP28466   3.471  10.892   3.663  0.0978  0.1769 -0.0679
18363PP      PP28467  11.470   4.520   0.328  0.1821 -0.2246  0.0034
18364PP      PP28468  10.872  13.546   4.427  0.0455 -0.1385  0.1580
18365PP      PP28469   2.178   1.821   2.128  0.0227 -0.1400  0.0135
18366PP      PP28470  13.586   9.599  10.376 -0.2841  0.1535  0.0729
18367PP      PP28471  11.775  12.086  12.355  0.0514 -0.2719 -0.1704
18368PP      PP28472  14.093  11.114  10.291  0.2443  0.1741 -0.0576
18369PP      PP28473   6.246   8.697   0.727  0.0330 -0.0908 -0.2695
18370PP      PP28474   7.952   8.455   0.925 -0.1936  0.2061  0.1609
18371PP      PP28475   2.068  10.772  10.978 -0.1868  0.0269 -0.0615
18372PP      PP28476  12.884  11.246   9.199 -0.0806  0.0035  0.1198
18373PP      PP28477  13.253   0.067   0.132  0.0935  0.2904 -0.2346
18374PP      PP28478   8.208   5.781  11.139  0.0412  0.2404 -0.3975
18375PP      PP28479   9.784  10.329   4.582 -0.0287 -0.3930 -0.0012
18376PP      PP28480   8.547  10.060  12.885  0.1781  0.3094  0.0305
18377PP      PP28481  10.440   6.626  13.090 -0.0465  0.0094  0.0285
18378PP      PP28482  13.471   8.872  11.136  0.0571 -0.2923 -0.1852
18379PP      PP28483  14.050  14.007   1.979  0.1776 -0.1096  0.1387
18380PP      PP28484   2.710   6.454  10.373  0.2808  0.0181 -0.1521
18381PP      PP28485  12.564   9.580  12.653 -0.1137 -0.0881  0.0810
18382PP      PP28486   3.610  14.420  11.023 -0.1654  0.1269 -0.1372
18383PP      PP28487   7.063   0.444   4.339  0.0558 -0.2355 -0.1300
18384PP      PP28488   1.052  15.460   0.507 -0.2296 -0.1547  0.1678
18385PP      PP28489   3.393  11.125   9.300 -0.1293  0.0719  0.0602
18386PP      PP28490   6.464   8.432   0.320 -0.1157 -0.2473  0.0299
18387PP      PP28491  13.005   9.533   9.696 -0.0847 -0.3459 -0.1191
18388PP      PP28492   3.415   1.624  10.004  0.2850 -0.4593  0.4520
18389PP      PP28493   6.783  15.661   3.039 -0.0053  0.1468  0.0181
18390PP      PP28494   0.381  11.286   0.799  0.1547  0.0333  0.0437
18391PP      PP28495   0.506   1.077   2.793  0.0970  0.0404  0.0344
18392PP      PP28496  13.859   7.292   3.029 -0.0592 -0.1902  0.0221
18393PP      PP28497   5.914   6.535   9.591  0.1863  0.0348  0.1265
18394PP      PP28498  15.002   5.824   1.106 -0.3811 -0.1754 -0.3211
18395PP      PP28499   1.155   9.232  10.749 -0.2676 -0.2358  0.0621
18396PP      PP28500  14.063  13.709   3.659  0.0747 -0.2338  0.2888
18397PP      PP28501   9.279   4.850   9.722  0.0002  0.3107  0.2690
18398PP      PP28502   9.115  11.142   8.178  0.0906 -0.1033 -0.0768
18399PP      PP28503   7.812  13.277   0.478 -0.3452 -0.1211 -0.4429
18400PP      PP28504  12.642   9.845   9.813  0.2397  0.3021 -0.0928
18401PP      PP28505   7.133  14.930   3.855 -0.0141 -0.1477  0.1555
18402PP      PP28506   5.881   1.341   9.879 -0.1267  0.1394  0.1959
18403PP      PP28507  11.597   3.553   0.911 -0.0244  0.0894 -0.1357
18404PP      PP28508  14.651  12.221   8.766  0.0102  0.0091 -0.1463
18405PP      PP28509  14.885  10.025  10.837  0.1308 -0.0168 -0.2875
18406PP      PP28510  12.002  12.454   0.354 -0.0813 -0.1777 -0.1681
18407PP      PP28511  15.512   0.221   2.587  0.0102 -0.1989  0.0667
18408PP      PP28512   1.489   0.454   3.266  0.1547  0.0034  0.1988
18409PP      PP28513   1.250   9.590  11.286 -0.2350 -0.1835  0.1608
18410PP      PP28514  14.650  11.344   3.771  0.1641  0.1921  0.2937
18411PP      PP28515   6.421  15.648   9.276 -0.2171  0.0041 -0.1181
18412PP      PP28516   4.596  14.912   2.919 -0.1444  0.0570 -0.1211
18413PP      PP28517   4.137  15.373   3.781 -0.0041  0.4275 -0.0312
18414PP      PP28518   4.991   0.503  11.922  0.0033  0.3323 -0.1289
18415PP      PP28519  10.085   2.338  10.085 -0.0374 -0.0952 -0.0945
18416PP      PP28520   0.677  12.858  10.267 -0.0079 -0.1437 -0.2127
18417PP      PP28521   1.647   0.882   3.389 -0.0907 -0.1110  0.1510
18418PP      PP28522  10.687   9.783   3.618  0.2457 -0.1155 -0.0315
18419PP      PP28523   5.826  13.877   9.126 -0.1586 -0.0909 -0.5088
18420PP      PP28524   2.291  15.688  10.835 -0.1345  0.2560  0.0277
18421PP      PP28525   5.523   4.052  12.670  0.0566  0.2909  0.1521
18422PP      PP28526   7.528   1.592   9.155 -0.0638 -0.0373  0.1554
18423PP      PP28527   4.992   0.478  10.211 -0.2070 -0.0926 -0.1035
18424PP      PP28528   3.665   7.316  12.049  0.3652 -0.0778 -0.3429
18425PP      PP28529   3.568   9.687   1.834  0.0099 -0.0980  0.2046
18426PP      PP28530   5.152   6.795   2.870 -0.2494  0.0395  0.0155
18427PP      PP28531   5.567   9.230   8.861 -0.0975  0.1159  0.1626
18428PP      PP28532   7.625   8.255   9.335 -0.1144 -0.0578 -0.0147
18429PP      PP28533   6.817   2.780  11.378  0.3572 -0.1682  0.2456
18430PP      PP28534   0.471   5.820  10.568 -0.1051  0.4501 -0.3171
18431PP      PP28535  15.117   0.249   2.865  0.3821 -0.1755  0.1616
18432PP      PP28536   2.957  11.906   1.177  0.1054 -0.5480 -0.1594
18433PP      PP28537   3.203  12.513   0.017  0.1823  0.1400 -0.2519
18434PP      PP28538   4.911   6.081  11.966  0.1302  0.1495  0.1767
18435PP      PP28539  10.971  10.724   4.765  0.0063 -0.0541 -0.0977
18436PP      PP28540   8.812   1.722   3.202  0.1311  0.2696  0.0648
18437PP      PP28541   0.494   0.956   1.614  0.2201  0.1104  0.1517
18438PP      PP28542   9.991  15.617   2.594 -0.0701 -0.2251 -0.2794
18439PP      PP28543   4.261  10.239   3.111 -0.1542  0.0010 -0.0507
18440PP      PP28544   4.769   9.199   2.486 -0.2096  0.1396  0.1990
18441PP      PP28545  10.349  11.600  12.696  0.0602  0.1180 -0.0815
18442PP      PP28546  11.212   5.369  11.742  0.1383 -0.1906 -0.1041
18443PP      PP28547   6.158  13.403   2.909 -0.0031 -0.2928  0.0736
18444PP      PP28548   7.985   2.548  10.956  0.0048 -0.2084  0.0862
18445PP      PP28549  12.718   6.824   9.863  0.0554 -0.0864 -0.3076
18446PP      PP28550   1.188   9.101   8.985 -0.1874  0.3193 -0.2834
18447PP      PP28551   8.735  11.066   4.081  0.0762  0.1204  0.2277
18448PP      PP28552   0.183  14.717   2.200  0.1556  0.0124 -0.3054
18449PP      PP28553  12.386   8.223   0.775 -0.3390 -0.2277 -0.0296
18450PP      PP28554   6.341  15.657   1.672  0.1285 -0.2887  0.0771
18451PP      PP28555  15.078   1.038   3.008 -0.1425 -0.1213 -0.0302
18452PP      PP28556   9.984  15.566  10.232  0.2261  0.0281  0.1889
18453PP      PP28557   5.167  13.840  10.267  0.1928 -0.1823 -0.0384
18454PP      PP28558  12.112  13.224   1.578  0.1813  0.0103 -0.1659
18455PP      PP28559   5.410   0.095   3.850 -0.1893 -0.0462  0.1388
18456PP      PP28560   9.728  15.106   0.556  0.1894  0.3060  0.3340
18457PP      PP28561   0.967   5.968  12.789 -0.3303 -0.0042  0.0595
18458PP      PP28562  14.769   6.294   0.938  0.0030 -0.0235 -0.1767
18459PP      PP28563   3.780   1.993   3.045  0.1570  0.1969  0.0229
18460PP      PP28564  13.586  15.176  11.956  0.1128 -0.1672 -0.2415
18461PP      PP28565   8.813  10.409   9.052  0.2870  0.2307 -0.6701
18462PP      PP28566   0.706  12.564  11.535  0.0442 -0.0405  0.2750
18463PP      PP28567  15.939  11.105   1.272 -0.2510 -0.1290 -0.1959
18464PP      PP28568  12.291   6.823  12.197  0.1262  0.4346 -0.4199
18465PP      PP28569   0.387  10.299   4.270  0.0978 -0.0126  0.0412
18466PP      PP28570   4.283   5.962  12.937  0.0749  0.0028  0.0731
18467PP      PP28571  11.464  11.946   1.701 -0.0943  0.1829 -0.3030
18468PP      PP28572  10.128   7.823   9.358 -0.0768 -0.1181 -0.4091
18469PP      PP28573   0.532   4.115   8.960  0.1503 -0.1152  0.0616
18470PP      PP28574   1.813   6.749  11.329 -0.0225 -0.0486 -0.1057
18471PP      PP28575   7.553   5.988  12.144 -0.1506 -0.1122 -0.3599
18472PP      PP28576   1.212  12.763  11.288 -0.0750  0.1228  0.2634
18473PP      PP28577  10.568  14.642   2.932 -0.0633  0.0042 -0.2337
18474PP      PP28578   8.674   6.909   2.315  0.1037 -0.1789  0.0395
18475PP      PP28579   2.176   3.234   1.227  0.0475 -0.2465 -0.1746
18476PP      PP28580  13.342   5.950   0.899 -0.0567  0.1495 -0.0691
18477PP      PP28581   7.425   9.334   9.743  0.3023  0.2314  0.0027
18478PP      PP28582   9.220  10.603   1.940  0.0967  0.0318 -0.0580
18479PP      PP28583  10.570   4.212   2.529 -0.2073 -0.2878 -0.0931
18480PP      PP28584   2.227   5.332   0.112  0.0448 -0.2856 -0.0151
18481PP      PP28585  14.762   1.122  12.398  0.0951  0.2309 -0.0148
18482PP      PP28586   9.225  11.167   0.567  0.1066  0.0852  0.0525
18483PP      PP28587   6.086   6.101   8.717  0.4208 -0.1433  0.0830
18484PP      PP28588   5.174   2.598  12.798  0.3179  0.0922 -0.1174
18485PP      PP28589   4.152   6.735  12.618 -0.0735 -0.1394  0.2844
18486PP      PP28590  14.773   1.107   3.448  0.1752 -0.0335  0.1101
18487PP      PP28591   7.262  11.250   1.241  0.0439 -0.0739 -0.1146
18488PP      PP28592   7.055  12.635   9.914  0.2725 -0.3129 -0.1201
18489PP      PP28593   1.534  12.949   3.189 -0.1524 -0.2451 -0.0675
18490PP      PP28594  11.829  11.891   2.119 -0.2401 -0.0461 -0.0689
18491PP      PP28595  11.724   3.956  10.349  0.2584  0.1304 -0.1746
18492PP      PP28596  12.140  10.157   8.888 -0.0200 -0.1096 -0.5132
18493PP      PP28597  15.702   9.668  10.321  0.0604 -0.0222  0.1377
18494PP      PP28598   1.652   7.306   9.201  0.1286  0.0513  0.2243
18495PP      PP28599  15.942   2.327   0.785  0.1203 -0.2360  0.1833
18496PP      PP28600   4.417   5.538   1.418  0.0017 -0.2081 -0.3012
18497PP      PP28601   0.812  10.908  13.352 -0.0841  0.1329  0.2416
18498PP      PP28602   4.124   1.763  11.015  0.0711 -0.5896 -0.0721
18499PP      PP28603   2.766   5.616  10.403  0.1291  0.1600 -0.1912
18500PP      PP28604  14.078   1.491   3.853  0.0277  0.0235  0.1787
18501PP      PP28605   6.748   2.475  11.800 -0.1037 -0.0579  0.0510
18502PP      PP28606  12.634   5.686  12.121 -0.1978 -0.4646  0.2098
18503PP      PP28607  11.118  15.901  12.724  0.3109 -0.2296 -0.4265
18504PP      PP28608   2.888   1.014   3.788 -0.4280 -0.0756 -0.1115
18505PP      PP28609   1.303   2.828  13.229 -0.0103  0.0574 -0.0247
18506PP      PP28610   2.967  11.788   0.671  0.1877  0.1994 -0.2230
18507PP      PP28611  12.788  14.507   3.490  0.1166 -0.1730 -0.1057
18508PP      PP28612  12.289  12.266   3.988 -0.0624  0.0084 -0.1070
18509PP      PP28613   0.349   5.954   0.659  0.3507 -0.1119 -0.1176
18510PP      PP28614  10.988   2.194   8.999 -0.0751  0.2136  0.1238
18511PP      PP28615  12.204   4.985   2.918  0.1149 -0.2699 -0.1066
18512PP      PP28616   6.358   2.141   2.634 -0.0789 -0.2316  0.0018
18513PP      PP28617  11.535  15.651   3.853  0.1500  0.3117 -0.0358
18514PP      PP28618   7.692   9.777  10.391 -0.2348  0.1683 -0.0670
18515PP      PP28619  12.631   7.677   9.776 -0.1491 -0.1237 -0.2212
18516PP      PP28620   7.092   5.398   1.292 -0.1232  0.1125  0.3322
18517PP      PP28621  15.304   9.863   1.599  0.0882  0.0429  0.3384
18518PP      PP28622  12.473  15.764   9.380  0.0947 -0.0322 -0.4297
18519PP      PP28623   3.807   6.621   5.123 -0.0141  0.1585 -0.1440
18520PP      PP28624   6.331   7.232   2.156 -0.4410 -0.0765 -0.0923
18521PP      PP28625  15.217   8.581   4.018  0.1549  0.0170  0.0924
18522PP      PP28626  14.083  12.524   1.062  0.0878 -0.0074  0.0360
18523PP      PP28627  14.908  12.888   1.412 -0.0791  0.0690 -0.0331
18524PP      PP28628   1.427   4.302   2.371 -0.0488 -0.0023 -0.2222
18525PP      PP28629  10.382  11.294   3.141 -0.3460 -0.0518 -0.2559
18526PP      PP28630  11.354  15.261   5.017 -0.4404  0.1002  0.0147
18527PP      PP28631  10.309   9.641  11.245 -0.2960  0.1364 -0.1129
18528PP      PP28632   5.506  12.763   2.285  0.1795 -0.1799  0.1415
18529PP      PP28633  15.166   9.670   2.849  0.0690  0.0210 -0.3685
18530PP      PP28634   0.937   2.365   0.747 -0.3106  0.0551  0.1736
18531PP      PP28635   4.805   9.703   2.635 -0.0839 -0.0054 -0.1925
18532PP      PP28636   9.315   8.514   0.446 -0.0129  0.1323  0.0131
18533PP      PP28637  14.602  13.453  10.165 -0.0704  0.0777  0.2174
18534PP      PP28638   3.847  13.793   3.107 -0.1719  0.1686  0.2117
18535PP      PP28639   5.112  11.121  11.224  0.1601  0.3767 -0.3333
18536PP      PP28640  15.744  13.952   0.388  0.1496  0.1825 -0.0303
18537PP      PP28641   0.901   7.193  10.398 -0.0257 -0.0699 -0.0467
18538PP      PP28642   6.145   0.182   2.493 -0.1626  0.4151 -0.2464
18539PP      PP28643  11.907   5.439  10.039  0.3602  0.0107 -0.0092
18540PP      PP28644   4.781   5.607   9.747  0.0300  0.1845 -0.2875
18541PP      PP28645  14.832   8.237   4.084 -0.0717 -0.1639  0.1699
18542PP      PP28646  15.188  11.942   8.996  0.1445  0.0198 -0.2354
18543PP      PP28647   9.170  10.583   0.687  0.2733 -0.0077 -0.0713
18544PP      PP28648  12.214  11.530   1.832  0.1298  0.0064 -0.0654
18545PP      PP28649   2.486   4.852  11.004 -0.0350  0.0608 -0.2795
18546PP      PP28650  11.857   3.369  10.688 -0.1328  0.2318 -0.1499
18547PP      PP28651   9.305  13.447   0.598  0.1554  0.2906 -0.2410
18548PP      PP28652  15.088   1.354   1.485 -0.0812 -0.1745 -0.0613
18549PP      PP28653   7.964   7.476   2.609 -0.1533 -0.2371 -0.2148
18550PP      PP28654   8.870   4.520  10.153 -0.1277  0.0524 -0.0073
18551PP      PP28655   6.613   7.678  13.104  0.0653  0.3166 -0.1776
18552PP      PP28656  13.033   5.904   9.961  0.0302 -0.1342 -0.1362
18553PP      PP28657   6.037   3.659   8.897 -0.1870  0.0762 -0.0798
18554PP      PP28658  12.105   8.075  13.165  0.3182 -0.3076 -0.3318
18555PP      PP28659   6.521   9.291  12.191 -0.0770  0.2293 -0.0497
18556PP      PP28660   2.936   3.382   2.587 -0.0099 -0.2154 -0.2185
18557PP      PP28661  13.425   8.367  10.894 -0.2435  0.2458 -0.1370
18558PP      PP28662   0.914   7.639  11.946 -0.0723  0.0346  0.1122
18559PP      PP28663   8.806  10.612   2.774 -0.0854  0.0463 -0.6034
18560PP      PP28664   7.138   1.749  11.294 -0.2631 -0.0926  0.1818
18561PP      PP28665  14.869  13.682  11.541 -0.0228  0.4964 -0.1521
18562PP      PP28666   4.814   0.892   1.982 -0.3007  0.0424  0.0725
18563PP      PP28667  10.665  14.898   0.680 -0.2771  0.1324  0.1136
18564PP      PP28668  14.713   6.675  11.856  0.3203  0.1021  0.2733
18565PP      PP28669   5.139   1.295   9.203 -0.0749  0.2402 -0.0237
18566PP      PP28670   0.237   0.971  10.769 -0.3096  0.2192 -0.1329
18567PP      PP28671   2.845   2.951  11.410  0.0974 -0.0741  0.1457
18568PP      PP28672   4.940   8.222   1.198 -0.1629 -0.0554 -0.0497
18569PP      PP28673   9.375  13.467   3.508 -0.1396 -0.3372  0.1226
18570PP      PP28674  15.476  12.603   9.037  0.1322 -0.2607  0.1965
18571PP      PP28675   1.544   4.080  10.917 -0.1761 -0.3281  0.0610
18572PP      PP28676   8.111  12.389   1.829  0.3327  0.0189 -0.0955
18573PP      PP28677   5.082  10.876   3.460  0.1619 -0.4854 -0.1410
18574PP      PP28678  10.726   6.283  12.876 -0.0673  0.0228  0.2735
18575PP      PP28679   0.730  13.812  12.191 -0.1766  0.1968  0.1953
18576PP      PP28680  15.594   6.663   1.173 -0.2370  0.2733  0.0977
18577PP      PP28681   7.056  10.296  11.370  0.0175  0.1935 -0.0346
18578PP      PP28682   5.147  11.441   0.944 -0.1540 -0.0426 -0.2111
18579PP      PP28683   1.319   7.125   8.882 -0.0273 -0.3518 -0.1317
18580PP      PP28684  13.384  10.869   8.880  0.2863  0.2973  0.0774
18581PP      PP28685  12.858   9.475  11.651 -0.2906  0.1012 -0.2567
18582PP      PP28686   6.962  10.524  12.374  0.2434 -0.1124  0.1670
18583PP      PP28687  12.072   2.082   2.052 -0.0607  0.3567 -0.1061
18584PP      PP28688   2.501   8.422  11.343  0.0022  0.0662  0.1617
18585PP      PP28689  12.926  13.500  11.895  0.0700 -0.0479 -0.1434
18586PP      PP28690   7.034  11.371   8.801 -0.0915  0.0367 -0.3548
18587PP      PP28691  11.459   8.884  11.029  0.5533 -0.3326  0.0397
18588PP      PP28692   7.166  10.776   3.779 -0.2124  0.2182 -0.1105
18589PP      PP28693  15.335   8.751   9.021 -0.1959 -0.0873  0.0098
18590PP      PP28694  10.230   3.934   3.497  0.1162  0.2146 -0.1806
18591PP      PP28695   2.135   3.157   3.837  0.1863  0.1570 -0.0569
18592PP      PP28696  10.848  12.655   3.991 -0.1513  0.0263  0.0690
18593PP      PP28697   1.920   2.080  11.810 -0.0526  0.0005 -0.1823
18594PP      PP28698   7.556  11.012   1.685  0.0303 -0.0622 -0.0325
18595PP      PP28699  10.915  12.152   3.908 -0.3582 -0.2789  0.3017
18596PP      PP28700   5.791   4.472  11.765 -0.3697 -0.0720 -0.1065
18597PP      PP28701  15.060   9.753   3.347 -0.1718 -0.0699 -0.0653
18598PP      PP28702   1.171   2.134  12.743 -0.2396  0.0120 -0.0340
18599PP      PP28703  12.357   8.348  10.603 -0.0098  0.1525 -0.3757
18600PP      PP28704  13.300  11.418   0.604 -0.0582 -0.2314  0.0518
18601PP      PP28705   8.884   0.389   3.543 -0.1888  0.2723  0.0792
18602PP      PP28706   7.687  12.121   3.743 -0.2791 -0.0906  0.5760
18603PP      PP28707   4.930   0.502  13.293 -0.2633  0.0575  0.1881
18604PP      PP28708   0.297   7.784   3.611 -0.1536  0.1032 -0.2186
18605PP      PP28709  15.383  15.052   9.620 -0.1319  0.0291  0.1236
18606PP      PP28710   1.737   5.292   3.693  0.1390  0.2388  0.0943
18607PP      PP28711  11.514  13.619   9.592 -0.0082 -0.2402  0.1105
18608PP      PP28712   9.868   9.399   4.564  0.2629  0.1487 -0.4324
18609PP      PP28713   9.254   1.722   1.480 -0.3215 -0.4060  0.1760
18610PP      PP28714   7.657  14.210  12.915 -0.4544 -0.1041  0.1477
18611PP      PP28715  15.007   0.746   7.517 -0.0020  0.1536  0.1973
18612PP      PP28716   1.587  10.106   0.423 -0.0929 -0.0863 -0.0128
18613PP      PP28717   2.333  12.601  10.407  0.1042  0.2897  0.1087
18614PP      PP28718  10.036  13.620  11.600 -0.1563  0.4321  0.1563
18615PP      PP28719  13.651   6.415   1.121  0.1693 -0.2256  0.2734
18616PP      PP28720   3.241   9.074   1.305 -0.0741 -0.0235  0.2037
18617PP      PP28721   8.646   8.591   3.851  0.1847  0.3910  0.0100
18618PP      PP28722   5.662  12.041   2.988  0.0407 -0.1144 -0.1253
18619PP      PP28723  13.638  13.817   2.079  0.3461  0.0770  0.2503
18620PP      PP28724  15.560  12.616   0.487  0.2070 -0.0789  0.1866
18621PP      PP28725  10.987  11.402  11.244  0.0949 -0.0917  0.2141
18622PP      PP28726  14.498   3.081   1.477  0.1947  0.0758 -0.3502
18623PP      PP28727  12.533   1.900   2.275 -0.0425 -0.0802 -0.0745
18624PP      PP28728  14.217   8.234  10.457  0.4339  0.0246  0.0578
18625PP      PP28729  13.845  14.283   9.678  0.2347 -0.0530 -0.0072
18626PP      PP28730   8.200   0.462   3.576  0.0147  0.0016  0.0512
18627PP      PP28731  10.245   9.996  11.686  0.2424 -0.1698  0.0259
18628PP      PP28732  14.613   7.195   2.627 -0.0404  0.0259  0.1116
18629PP      PP28733   4.408   3.536   1.455 -0.2474  0.1984 -0.1865
18630PP      PP28734   2.783  10.635   0.320  0.0228 -0.1403  0.2438
18631PP      PP28735   6.862   9.281  10.296 -0.2094 -0.1617  0.0066
18632PP      PP28736  12.291   6.451  10.451  0.2799  0.1026 -0.2141
18633PP      PP28737   4.638   6.837  10.227  0.1604  0.0666  0.0795
18634PP      PP28738   3.574  11.275   9.795 -0.1346  0.1815 -0.1717
18635PP      PP28739  14.814   3.205  11.941 -0.0874  0.1359 -0.3021
18636PP      PP28740   0.365   1.736  12.989 -0.0236 -0.0546 -0.1085
18637PP      PP28741   2.790  10.231   3.955 -0.0751 -0.0208 -0.1500
18638PP      PP28742   9.286   7.963   8.994 -0.0984 -0.2420  0.3155
18639PP      PP28743   2.032   7.044   9.063  0.0124 -0.4337  0.3379
18640PP      PP28744   3.948   4.794   9.707 -0.0899  0.0823  0.1826
18641PP      PP28745   0.030   5.927  10.329 -0.0490  0.2983 -0.2321
18642PP      PP28746   1.036   6.150   0.404  0.3284  0.2505 -0.2779
18643PP      PP28747   7.980   7.577   1.619  0.2447  0.3006 -0.2948
18644PP      PP28748   3.203   9.986   3.663  0.1027  0.1333  0.2164
18645PP      PP28749   3.413   7.811   2.784  0.1752  0.1386  0.0128
18646PP      PP28750  11.314   3.749  10.797  0.2416  0.2341 -0.2017
18647PP      PP28751  13.436  12.088   0.663  0.0527  0.0387  0.1337
18648PP      PP28752   1.489   4.589  10.142  0.1689 -0.0855 -0.1511
18649PP      PP28753   1.563   5.109  12.356  0.2778 -0.0330 -0.2288
18650PP      PP28754   4.127  14.293  12.357 -0.0371  0.0682 -0.1536
18651PP      PP28755   7.789   8.425   4.597  0.3920 -0.1403 -0.0033
18652PP      PP28756   3.917   1.945  12.273  0.1084  0.0658 -0.0844
18653PP      PP28757   6.640   3.711   0.564  0.1711 -0.1376  0.3133
18654PP      PP28758   1.341   5.118  12.787  0.0693  0.3657 -0.1201
18655PP      PP28759  12.241  15.313   2.273 -0.0223 -0.3325  0.1577
18656PP      PP28760   5.669  11.413   8.543 -0.0248 -0.0533 -0.2622
18657PP      PP28761   2.905  13.476   3.093 -0.0211  0.4106 -0.0970
18658PP      PP28762  14.034  15.839   2.899 -0.2891 -0.1382  0.2270
18659PP      PP28763   8.323  15.543  12.097 -0.1412 -0.1169  0.0555
18660PP      PP28764   8.454   9.496   2.192  0.1655 -0.2911 -0.0181
18661PP      PP28765  11.780   2.159   2.585  0.1090  0.2520  0.2153
18662PP      PP28766  11.555   0.442  12.619 -0.0577 -0.4564 -0.1760
18663PP      PP28767   3.175   1.615   9.520 -0.1249 -0.0423 -0.2131
18664PP      PP28768   7.776   8.567  13.075 -0.0185  0.1944 -0.0358
18665PP      PP28769  15.038  12.196  13.199 -0.0480  0.1983  0.0229
18666PP      PP28770   7.829   0.953  13.255 -0.0066  0.0325 -0.0808
18667PP      PP28771  11.322   0.597   1.278  0.0538 -0.1848 -0.2305
18668PP      PP28772   0.428   9.120  11.022 -0.0990 -0.1490  0.0382
18669PP      PP28773  10.238  10.905  11.928  0.0773 -0.3179 -0.1346
18670PP      PP28774   2.563   3.193  11.874  0.2486 -0.3102  0.0986
18671PP      PP28775  11.529   7.273   2.061  0.1031  0.0281 -0.1665
18672PP      PP28776   8.711  12.103   9.937 -0.0432  0.0356 -0.0504
18673PP      PP28777   8.157  10.272   1.291  0.4186  0.0211 -0.0913
18674PP      PP28778  13.988  11.497  12.058  0.0423 -0.1385  0.1390
18675PP      PP28779  10.453   8.754   4.958  0.0862 -0.1949  0.0776
18676PP      PP28780  14.357   9.797  13.220 -0.1861 -0.0784  0.1696
18677PP      PP28781   9.243  10.561   9.923 -0.1417 -0.1494  0.1739
18678PP      PP28782  14.636  14.886   0.697 -0.0469 -0.0577  0.0206
18679PP      PP28783   5.948  10.849   0.947 -0.0090  0.0330  0.1683
18680PP      PP28784   1.975   2.413   3.252 -0.2032 -0.0807 -0.1210
18681PP      PP28785  10.286  13.242   2.118 -0.1848 -0.2761 -0.2367
18682PP      PP28786   9.131   7.724   9.502  0.0972  0.3162  0.0729
18683PP      PP28787  14.073   5.132   3.587  0.0290  0.0613 -0.1350
18684PP      PP28788   5.729   3.653   2.868 -0.0580  0.0466 -0.1326
18685PP      PP28789  13.097  11.773   1.458 -0.0803 -0.3017  0.1601
18686PP      PP28790   7.051   1.876  11.843  0.0824 -0.4368 -0.0647
18687PP      PP28791   9.346   1.294   0.495 -0.2878  0.2348  0.0157
18688PP      PP28792   8.218  10.579   9.302  0.2049  0.1971  0.1902
18689PP      PP28793  12.280  15.237   4.473 -0.2065  0.1107 -0.3900
18690PP      PP28794  12.506   0.444   1.230  0.2863 -0.2150 -0.0608
18691PP      PP28795   3.994   9.724  10.551  0.1099  0.0276  0.0751
18692PP      PP28796  14.342   2.030  10.698 -0.1764  0.4977  0.1279
18693PP      PP28797   0.301   8.877  10.560  0.1192  0.3114 -0.0173
18694PP      PP28798  10.818  13.021   3.547 -0.0681  0.1501  0.0882
18695PP      PP28799   6.748  11.393   1.918 -0.1451 -0.0696  0.2180
18696PP      PP28800   4.629   7.351   8.415  0.1890 -0.0646 -0.0527
18697PP      PP28801   4.681   0.124  10.915  0.1512  0.1717 -0.1338
18698PP      PP28802   0.033   4.257   9.738  0.0889 -0.0006  0.1363
18699PP      PP28803  12.339  11.966   2.126 -0.2366 -0.0155  0.0431
18700PP      PP28804  13.490  15.146   2.711 -0.1057  0.3711  0.0394
18701PP      PP28805  14.583   5.307   2.425  0.0525 -0.2414 -0.0003
18702PP      PP28806   6.576   0.089   1.362  0.1271 -0.0664 -0.1573
18703PP      PP28807   3.020   6.212  12.103  0.1470 -0.0812  0.2329
18704PP      PP28808   5.268   5.139   2.403  0.0989 -0.4327  0.2736
18705PP      PP28809  10.135  15.629   9.799  0.3436 -0.3216 -0.0787
18706PP      PP28810  14.617   2.326  11.601 -0.1624  0.3050  0.1333
18707PP      PP28811  10.349   8.566   2.406 -0.1668  0.1873 -0.0624
18708PP      PP28812   7.157   0.185   2.502  0.0612  0.3381  0.0547
18709PP      PP28813  13.661  12.825   1.928 -0.0122 -0.2207 -0.2327
18710PP      PP28814   1.584   4.813   2.693 -0.2244 -0.1396  0.0802
18711PP      PP28815   0.443   4.586   8.786  0.0018  0.2080  0.2617
18712PP      PP28816  11.531  12.870  13.091  0.2506 -0.0855  0.1402
18713PP      PP28817   5.947   2.857  12.642 -0.1155 -0.0652 -0.1045
18714PP      PP28818  11.499   8.392   0.201 -0.1245 -0.0266 -0.1702
18715PP      PP28819   6.645  10.886  12.207 -0.0851  0.2319  0.1738
18716PP      PP28820  13.026   9.348  10.620 -0.0777 -0.0236 -0.0286
18717PP      PP28821   0.436   0.725   8.051  0.2881  0.2454  0.0295
18718PP      PP28822   5.245   5.694   3.854  0.3611  0.3140  0.0101
18719PP      PP28823   6.278  10.514   2.810 -0.1813  0.0172 -0.5431
18720PP      PP28824  14.229  14.640   4.082  0.0423  0.2972  0.2974
18721PP      PP28825   5.148  14.035   1.597 -0.2390  0.2788  0.4223
18722PP      PP28826   1.458  11.307   8.116 -0.1588 -0.0734 -0.3250
18723PP      PP28827  13.593  11.644  12.491 -0.1284 -0.0283  0.0571
18724PP      PP28828   6.313   7.657   3.764 -0.1802  0.0175 -0.3235
18725PP      PP28829   5.194   5.166  10.928 -0.1057  0.3625  0.2872
18726PP      PP28830   1.890  13.238   2.174  0.0862 -0.0658  0.1137
18727PP      PP28831   3.235  15.387   2.802 -0.0902 -0.3160  0.1596
18728PP      PP28832   1.776   6.387   4.856 -0.1960 -0.0883  0.0603
18729PP      PP28833  10.780   6.775   2.998  0.1378 -0.1379  0.0186
18730PP      PP28834   5.040  12.117  10.921  0.3024 -0.3205  0.4219
18731PP      PP28835  14.616   4.310  12.004 -0.2446  0.1791 -0.1061
18732PP      PP28836   2.845   9.938  13.193  0.0607 -0.2519  0.2078
18733PP      PP28837   4.646  13.865  12.869  0.2530  0.3858  0.2018
18734PP      PP28838   8.047   5.323  10.942 -0.3249 -0.2676  0.2165
18735PP      PP28839  12.035   1.596  12.710 -0.0446  0.0051 -0.0856
18736PP      PP28840   3.503   2.818  10.415 -0.3724  0.1436 -0.2879
18737PP      PP28841   7.593   2.812   4.336  0.2568 -0.1596  0.1401
18738PP      PP28842  15.889   2.222  11.832 -0.2955 -0.4671  0.1125
18739PP      PP28843   0.929   3.297   8.691  0.1896 -0.2639 -0.2029
18740PP      PP28844   2.552   7.912  12.170  0.0460  0.3197 -0.3622
18741PP      PP28845   9.867   0.683  11.769  0.2852  0.0141  0.1024
18742PP      PP28846   8.775   8.295  11.548 -0.2807  0.2735 -0.2493
18743PP      PP28847   8.767   8.497  10.945 -0.0607 -0.1517  0.2212
18744PP      PP28848  11.398   3.207  11.889 -0.2467 -0.1858  0.4570
18745PP      PP28849  15.084   1.457   8.182 -0.0147 -0.1083 -0.1936
18746PP      PP28850   5.381  14.336   1.239 -0.0020 -0.0300 -0.1863
18747PP      PP28851   2.737   4.078  12.312 -0.0811 -0.1873  0.0351
18748PP      PP28852  11.394   6.835   0.565  0.0905 -0.0923  0.4383
18749PP      PP28853   8.537   4.477  11.787 -0.0258 -0.0525  0.3336
18750PP      PP28854   0.911  14.542   8.224  0.3964 -0.1954 -0.0064
18751PP      PP28855   4.294   4.215   2.630  0.2122 -0.1963 -0.2405
18752PP      PP28856  10.871  14.493   1.527  0.1778 -0.1326 -0.0039
18753PP      PP28857   0.051  10.056  10.200 -0.0621  0.0510  0.1457
18754PP      PP28858   3.738   8.735   2.593 -0.1618  0.0625  0.0928
18755PP      PP28859  15.223   8.118   3.672  0.0332 -0.1876  0.2428
18756PP      PP28860   5.574   5.732  12.480  0.1202  0.0661 -0.4328
18757PP      PP28861  10.849   2.933   8.862 -0.0337  0.0449 -0.0771
18758PP      PP28862  14.453   6.026  13.111 -0.0142  0.1120 -0.1773
18759PP      PP28863  14.197   0.885   2.292 -0.2486  0.1909 -0.2051
18760PP      PP28864   7.061  10.197   9.973 -0.2379  0.3626 -0.0397
18761PP      PP28865   1.418   7.498   3.978 -0.0595  0.0170  0.0010
18762PP      PP28866  10.384   5.112   9.477 -0.1064  0.0107 -0.3046
18763PP      PP28867  12.275  13.717   2.388  0.1883  0.0793 -0.1647
18764PP      PP28868  10.191  15.544   1.426  0.0570  0.2411  0.1501
18765PP      PP28869   1.118   5.013  11.621 -0.0845 -0.0919  0.1438
18766PP      PP28870   9.140   8.583   1.686 -0.2961  0.3709  0.0076
18767PP      PP28871   6.021  12.456   3.115  0.1566 -0.1852 -0.0935
18768PP      PP28872   3.281  10.208  12.504 -0.1477 -0.0973 -0.0245
18769PP      PP28873   1.503  10.514  11.996  0.2118 -0.0346  0.0199
18770PP      PP28874  13.780   2.568   3.121  0.0679 -0.0442 -0.1914
18771PP      PP28875  14.123   9.590   3.098  0.0397  0.0756 -0.1387
18772PP      PP28876  10.402   4.074  10.466  0.1580 -0.2855 -0.8490
18773PP      PP28877   2.329   5.961   1.224  0.1043  0.1909  0.3229
18774PP      PP28878   9.960   2.814   1.003 -0.1224  0.0445  0.0382
18775PP      PP28879   7.113   6.104   3.056 -0.0749  0.4573  0.0322
18776PP      PP28880  12.733   2.640  10.854 -0.2083  0.4612  0.3953
18777PP      PP28881  14.323   5.596  13.326 -0.0476  0.1957  0.1617
18778PP      PP28882  13.199   8.770  10.550 -0.0604  0.1930  0.2552
18779PP      PP28883   8.128   7.007  13.355 -0.2069 -0.0345 -0.3060
18780PP      PP28884   4.163   5.905   0.457 -0.1813 -0.1286 -0.0551
18781PP      PP28885  13.476  15.463   4.111 -0.0513 -0.2864 -0.0766
18782PP      PP28886  15.410  14.401   0.532 -0.0705 -0.2737  0.3016
18783PP      PP28887   3.739   5.948   4.433 -0.0537 -0.1040  0.0526
18784PP      PP28888   6.946  11.284   2.720  0.0203  0.1285 -0.0818
18785PP      PP28889  10.413   6.572   3.272 -0.1442  0.2205 -0.1880
18786PP      PP28890   8.173   2.899  13.162 -0.0688 -0.1990 -0.0304
18787PP      PP28891   3.321  11.605  11.524  0.3070  0.2147  0.0181
18788PP      PP28892  14.753  10.337   9.380  0.1460 -0.1163  0.3916
18789PP      PP28893  11.047   3.332  10.770 -0.2851 -0.1576  0.1173
18790PP      PP28894   9.633  15.506  10.572  0.1108  0.0103  0.2216
18791PP      PP28895   9.917   2.179   2.043 -0.4568 -0.0757  0.2498
18792PP      PP28896   6.304   1.360  11.464  0.1266 -0.1155 -0.2050
18793PP      PP28897   3.546   4.586   3.735  0.0855 -0.1003  0.2476
18794PP      PP28898   1.040   0.773   8.615  0.0095  0.1199 -0.2028
18795PP      PP28899   2.170  13.456   0.577 -0.1751 -0.0456 -0.0662
18796PP      PP28900  10.842   0.732  11.535 -0.1023  0.0806  0.1400
18797PP      PP28901  15.505  10.830   1.134 -0.0259 -0.0614  0.2031
18798PP      PP28902   0.957  15.605   9.824 -0.1606 -0.3974 -0.2025
18799PP      PP28903   1.290   2.910   0.783 -0.0362 -0.0004  0.2341
18800PP      PP28904  15.440  12.419  11.314  0.0124 -0.0999  0.0086
18801PP      PP28905   0.674   7.520   9.669 -0.2502  0.0463  0.0360
18802PP      PP28906  12.857   5.083   9.372  0.3089 -0.1198  0.0188
18803PP      PP28907   0.417   2.207   1.047  0.0543  0.0457  0.1214
18804PP      PP28908   2.298  11.458   1.834 -0.0573 -0.1093  0.1634
18805PP      PP28909  10.600   3.788   9.599 -0.0518  0.0644  0.1145
18806PP      PP28910   2.970  13.823   8.990  0.2713  0.1633 -0.1711
18807PP      PP28911   0.392  15.381   8.776 -0.2941 -0.0915 -0.1390
18808PP      PP28912  10.761  11.845  12.819  0.0059  0.3011 -0.1132
18809PP      PP28913  11.537  11.025   2.867  0.1704  0.0187  0.0951
18810PP      PP28914   3.616   2.938   9.598  0.1030  0.0262  0.2852
18811PP      PP28915   3.707   7.245   9.304 -0.2960 -0.1639 -0.4465
18812PP      PP28916   4.959   1.611   0.723 -0.1259 -0.2703 -0.0281
18813PP      PP28917  11.743   9.480   2.196 -0.1638 -0.1567 -0.0051
18814PP      PP28918   9.717   2.615   2.345  0.2280 -0.0797 -0.0897
18815PP      PP28919   5.269   3.554   9.676 -0.2112 -0.0612  0.0289
18816PP      PP28920   5.683  14.697   2.760  0.1243  0.0871  0.1118
18817PP      PP28921   8.833   7.956  10.369  0.1527 -0.6568  0.0356
18818PP      PP28922   0.579  15.558  11.093  0.0044  0.2154 -0.2483
18819PP      PP28923  12.282   4.155  10.369  0.2018  0.1637 -0.1650
18820PP      PP28924   1.421  10.263  12.969 -0.1390  0.1980  0.1228
18821PP      PP28925  15.068   2.067  11.618 -0.0015 -0.3072  0.0452
18822PP      PP28926   7.876  12.753  12.768 -0.0256 -0.1236 -0.1855
18823PP      PP28927   6.840  14.801   1.822 -0.0178  0.0376 -0.0391
18824PP      PP28928   6.285  11.557   1.890 -0.2398  0.0904 -0.2088
18825PP      PP28929   0.371  13.145  11.741  0.1754  0.1360 -0.0227
18826PP      PP28930  10.214  15.671   4.757  0.2183  0.0545  0.0897
18827PP      PP28931  10.717  15.773  10.602 -0.0966  0.1235  0.1486
18828PP      PP28932  11.294   3.758   4.298 -0.0048  0.3078 -0.0623
18829PP      PP28933   2.022  10.428  11.363  0.2073  0.1948  0.0302
18830PP      PP28934   8.200   1.054   0.965 -0.0863 -0.0203  0.0896
18831PP      PP28935   7.007   6.592   3.529 -0.1548 -0.1069  0.0236
18832PP      PP28936   2.657   8.736  12.311  0.0039  0.0746  0.1441
18833PP      PP28937   1.046   6.470  13.020 -0.0213 -0.2760 -0.5408
18834PP      PP28938   5.650   3.511   9.198 -0.0370 -0.3116  0.2662
18835PP      PP28939   6.281   6.221   3.295  0.1227  0.0818  0.1982
18836PP      PP28940  13.101  12.195  11.714 -0.0797  0.2705  0.0206
18837PP      PP28941   1.472   5.484   4.195 -0.1999 -0.1425  0.1538
18838PP      PP28942   7.852  13.215   3.867  0.0240  0.0873 -0.2341
18839PP      PP28943   9.249   2.224  12.444  0.3486  0.0680 -0.0465
18840PP      PP28944  11.425  10.499   3.099 -0.0741 -0.2067 -0.0453
18841PP      PP28945  14.486  11.598   1.378  0.0766 -0.2284 -0.1777
18842PP      PP28946   2.612   6.567  10.913 -0.1893  0.1218  0.0132
18843PP      PP28947   3.348   3.189   0.955  0.1787  0.1724  0.0529
18844PP      PP28948  14.346  12.812  12.457  0.2337 -0.0346  0.0098
18845PP      PP28949  13.493  11.215   2.348 -0.1388 -0.2394 -0.2826
18846PP      PP28950   4.086   6.674   3.081 -0.4326 -0.1408  0.1910
18847PP      PP28951  15.206  10.942  12.273  0.1134 -0.0169  0.0160
18848PP      PP28952   3.520   0.789   0.790  0.1569  0.1343  0.0899
18849PP      PP28953   8.441  12.522  11.048 -0.1684 -0.3214 -0.2387
18850PP      PP28954   8.344   3.351  11.161  0.0721 -0.0113 -0.0146
18851PP      PP28955   2.393   8.454   2.056  0.0076 -0.0946 -0.1524
18852PP      PP28956   4.902   1.304  11.618  0.0946  0.0940  0.1460
18853PP      PP28957   7.418   1.043   2.671  0.2740  0.2165 -0.1815
18854PP      PP28958   6.764  11.783  13.019  0.2476 -0.0075 -0.2027
18855PP      PP28959   6.703   9.415  10.862  0.1786 -0.1265  0.0391
18856PP      PP28960  13.081   0.965   8.685  0.0277 -0.0652  0.1661
18857PP      PP28961  15.571  13.866   1.086  0.2109  0.1392  0.0274
18858PP      PP28962  14.938   2.262  12.079 -0.3590  0.0667  0.1400
18859PP      PP28963   8.616   7.721   1.360 -0.1279 -0.2882 -0.0857
18860PP      PP28964  10.138   2.903   1.423 -0.2434 -0.2781 -0.2057
18861PP      PP28965   6.273   0.159  11.090  0.0644 -0.0143  0.1014
18862PP      PP28966   0.867  15.882  11.307  0.1557  0.1460  0.2165
18863PP      PP28967  12.133  10.725   4.479  0.1317 -0.0572 -0.0347
18864PP      PP28968  15.907   5.384   2.150 -0.1316 -0.1630 -0.1352
18865PP      PP28969  11.719   8.305  11.316  0.0841  0.3716  0.1690
18866PP      PP28970  11.269   2.817   0.353 -0.1010 -0.0255 -0.3569
18867PP      PP28971  14.511   6.860   0.244 -0.2141  0.0312 -0.2017
18868PP      PP28972   6.875  11.832   9.874  0.2614  0.2530  0.2164
18869PP      PP28973   1.171   1.345  10.328  0.0378  0.0957  0.0640
18870PP      PP28974  13.432  11.293   8.596 -0.1249  0.0518  0.3216
18871PP      PP28975  12.678   2.792   1.094  0.0302 -0.1125  0.0487
18872PP      PP28976   6.493  14.528   1.384  0.0020 -0.1814 -0.1557
18873PP      PP28977  10.151   1.447   3.487 -0.1903 -0.1394  0.0575
18874PP      PP28978   2.247   1.262  10.656  0.0538  0.0313  0.0266
18875PP      PP28979   2.373  13.440   8.178 -0.1541 -0.2059 -0.0035
18876PP      PP28980  13.934   7.681   4.192 -0.0215 -0.0694  0.1990
18877PP      PP28981   6.394   9.711   2.540 -0.1501 -0.1707 -0.3239
18878PP      PP28982  13.708  15.436   3.050 -0.0218 -0.1314 -0.0046
18879PP      PP28983   3.489   7.849   4.224 -0.1362 -0.2415  0.2156
18880PP      PP28984  10.221  14.681  11.944  0.1413 -0.3092 -0.2874
18881PP      PP28985   1.860   6.695   1.307  0.0933 -0.2838 -0.4510
18882PP      PP28986  15.626  12.853   1.257  0.2097  0.3132  0.0450
18883PP      PP28987   8.576  12.437   9.052 -0.2641  0.2473 -0.0103
18884PP      PP28988   9.042   6.993   0.474  0.0071 -0.3745 -0.1122
18885PP      PP28989   9.974   7.624   4.551  0.3231  0.0006  0.0661
18886PP      PP28990  13.431   1.387  10.092 -0.0239  0.4618 -0.1285
18887PP      PP28991  10.926   1.098   0.072  0.3681  0.0516  0.1141
18888PP      PP28992   6.695   6.642   0.219  0.0861 -0.2500  0.0421
18889PP      PP28993   5.296   7.527   4.140  0.0927  0.0968  0.1591
18890PP      PP28994   5.870   8.722   9.350  0.0836 -0.1660  0.1619
18891PP      PP28995   0.288  12.549   2.433 -0.5421  0.0929 -0.0918
18892PP      PP28996   7.098   8.731   0.267  0.0979 -0.2046  0.2362
18893PP      PP28997   1.678   7.792   2.357 -0.0279 -0.0081 -0.2284
18894PP      PP28998  14.663   0.237   3.615  0.0360  0.0316  0.0963
18895PP      PP28999   5.046   9.865   3.274 -0.0877 -0.2420 -0.3933
18896PP      PP29000  12.609  12.417   9.080 -0.1694  0.0964 -0.0123
18897PP      PP29001  14.095   8.136   2.407  0.0142  0.0555  0.0159
18898PP      PP29002   7.719   9.058  12.861  0.0266 -0.1624 -0.1312
18899PP      PP29003   7.815   1.043   4.628 -0.0438 -0.1534  0.2802
18900PP      PP29004   6.978   2.422   9.945  0.0636 -0.2336  0.1447
18901PP      PP29005   5.347   4.329   4.168  0.1845  0.0483  0.2464
18902PP      PP29006   6.140  12.055   4.043  0.0197 -0.3404 -0.1327
18903PP      PP29007   8.926  14.864  12.175  0.1094 -0.1460 -0.2162
18904PP      PP29008  11.203  12.342   9.616 -0.2375 -0.0073  0.1576
18905PP      PP29009   5.537  10.205   4.212  0.2395  0.2578 -0.1041
18906PP      PP29010   4.577   7.452   1.541  0.5210  0.1000  0.3940
18907PP      PP29011  15.400   7.179   4.947  0.1349 -0.1697 -0.0023
18908PP      PP29012   0.232   8.886   1.939 -0.0270  0.1163  0.1464
18909PP      PP29013   5.253  12.388   1.707 -0.1808 -0.2079 -0.1184
18910PP      PP29014   0.012   2.427   0.291  0.0824 -0.0561 -0.1099
18911PP      PP29015  15.509   4.316   9.538 -0.1590 -0.1268 -0.1913
18912PP      PP29016   2.275   5.809   9.336  0.2491 -0.0256 -0.2862
18913PP      PP29017  12.995  13.407   4.036  0.0635 -0.2600  0.2632
18914PP      PP29018   8.390  12.710   2.640  0.0561 -0.0126 -0.1501
18915PP      PP29019   3.670   9.466   4.459  0.2793 -0.0440  0.1393
18916PP      PP29020  11.800  12.591  10.851  0.0561  0.3544  0.2379
18917PP      PP29021  14.883  12.440   2.637  0.0258 -0.0293  0.0378
18918PP      PP29022  10.178   3.355  10.282 -0.2180 -0.1257 -0.0143
18919PP      PP29023  12.682  10.364  11.467 -0.1510 -0.0022  0.0047
18920PP      PP29024   5.993   0.981  10.679  0.2703  0.0198 -0.1877
18921PP      PP29025  15.491  10.617  11.123  0.3197 -0.1892 -0.0902
18922PP      PP29026   6.038   1.851   9.629 -0.3405  0.1768 -0.0120
18923PP      PP29027  15.080  14.637  11.610  0.1702 -0.1592  0.2353
18924PP      PP29028   1.107   6.470   2.231 -0.0112 -0.1788 -0.1233
18925PP      PP29029  14.598   9.527   1.587 -0.1760  0.0652  0.3818
18926PP      PP29030  15.185  13.529  12.871  0.0313  0.0888  0.0808
18927PP      PP29031  13.111  14.982  12.614 -0.3621 -0.0751 -0.0751
18928PP      PP29032   1.874  12.657  12.338  0.0701  0.0290 -0.0913
18929PP      PP29033   9.147   9.083   0.685 -0.0928 -0.2352  0.1033
18930PP      PP29034  10.294   1.311  10.462 -0.2034 -0.0216  0.0382
18931PP      PP29035   9.595  10.827  12.651  0.0818  0.2639  0.0360
18932PP      PP29036   8.520   0.533   3.977 -0.4011 -0.2425 -0.0291
18933PP      PP29037   8.721  10.961   0.442  0.0245  0.0004 -0.0967
18934PP      PP29038  14.220   0.817  10.077  0.4530  0.0228 -0.0572
18935PP      PP29039   1.944   4.079   0.812  0.0811 -0.1679  0.0107
18936PP      PP29040   1.989   3.090   8.691 -0.0358 -0.1724 -0.1184
18937PP      PP29041   6.018   3.074  13.161  0.3121  0.0114  0.3808
18938PP      PP29042   8.927  14.052  10.685 -0.2101  0.1170  0.2385
18939PP      PP29043   2.424   2.918  11.169  0.0292  0.1236  0.1080
18940PP      PP29044   9.731  15.754   4.723  0.0126  0.3874  0.2996
18941PP      PP29045  12.945   0.301  11.766 -0.0138  0.0487 -0.1982
18942PP      PP29046  13.694  11.658   0.226  0.2401 -0.4667  0.0936
18943PP      PP29047   4.382   4.526   1.492  0.1547  0.1878  0.1353
18944PP      PP29048  13.667   9.229   1.907  0.0822 -0.1030 -0.0949
18945PP      PP29049  11.427  13.801  10.436 -0.0014 -0.0956 -0.1302
18946PP      PP29050   6.162   3.814  10.622 -0.0012 -0.2664  0.1276
18947PP      PP29051   1.472  14.451  10.387  0.0538 -0.1137 -0.0070
18948PP      PP29052  11.368  14.932   3.457 -0.0270  0.0290 -0.0703
18949PP      PP29053   4.224  14.657  11.987  0.3173 -0.2367  0.1205
18950PP      PP29054   6.501  13.321  10.062 -0.2533  0.1930  0.0881
18951PP      PP29055  14.211   1.178   4.284 -0.1036 -0.1934  0.4626
18952PP      PP29056   8.630   7.882  12.069  0.2070  0.3044  0.0990
18953PP      PP29057   2.451  10.185   8.701 -0.2129  0.2420  0.1514
18954PP      PP29058  15.144   4.534  11.326  0.1879  0.2214 -0.1960
18955PP      PP29059   9.989   4.968  11.829 -0.2309  0.1849  0.0202
18956PP      PP29060   2.250   7.207   8.679 -0.1460  0.2823  0.1356
18957PP      PP29061   1.738   9.149  11.882 -0.0601  0.3909 -0.0513
18958PP      PP29062   5.757   6.393  12.004  0.1782  0.0336 -0.0068
18959PP      PP29063  13.862   8.674   1.694  0.0752 -0.0991 -0.0817
18960PP      PP29064  11.799   0.785   2.749 -0.2248  0.2323 -0.2369
18961PP      PP29065   2.826  11.550  12.490  0.1273 -0.0098 -0.0671
18962PP      PP29066  13.500   1.833   9.540 -0.1848  0.2862 -0.1962
18963PP      PP29067   1.349   4.309   3.310  0.1219 -0.0676 -0.0683
18964PP      PP29068   7.222  15.015   8.526 -0.0271 -0.0909  0.2169
18965PP      PP29069   0.517   5.268  11.657 -0.2035  0.0885 -0.1353
18966PP      PP29070   2.941   3.960   0.471  0.0246 -0.1738  0.1016
18967PP      PP29071  15.930   3.406   3.547 -0.0109 -0.1575 -0.0816
18968PP      PP29072   4.023  11.877   2.147 -0.2449 -0.1530 -0.0547
18969PP      PP29073   1.612   2.356  10.981  0.3191  0.3399 -0.3402
18970PP      PP29074  10.368   7.607   9.811 -0.1273  0.0885 -0.0642
18971PP      PP29075   5.525   5.489   9.181 -0.3508 -0.0231 -0.7144
18972PP      PP29076   7.544   2.076  13.095  0.3018  0.0978 -0.1447
18973PP      PP29077   6.081  14.137  13.392  0.0905  0.2749  0.0961
18974PP      PP29078  10.733   7.751  11.518 -0.1047  0.3010  0.1136
18975PP      PP29079   7.027   5.626   9.749  0.0665 -0.1461 -0.2593
18976PP      PP29080   1.342   0.553   2.678  0.2282  0.0856  0.2348
18977PP      PP29081   7.274   8.185  11.168  0.1858  0.1809 -0.1174
18978PP      PP29082   8.061   6.288   1.049  0.0766  0.2391  0.2212
18979PP      PP29083   3.083  10.747   1.656 -0.1758  0.1126  0.0711
18980PP      PP29084  14.701   4.334   9.986  0.0121  0.1295  0.1736
18981PP      PP29085  14.446  14.573   9.019  0.0967 -0.0839 -0.1081
18982PP      PP29086  14.376  15.233   8.816  0.2906  0.1767 -0.0838
18983PP      PP29087   2.795   6.776   1.305  0.1954 -0.0608 -0.5368
18984PP      PP29088   8.332  15.093   2.678  0.0107 -0.0462 -0.0282
18985PP      PP29089  11.412  13.706   2.465 -0.0892  0.0740  0.0788
18986PP      PP29090  15.708  13.566   8.420  0.2874 -0.0501  0.2966
18987PP      PP29091   9.140   4.293   2.118  0.4339  0.0756 -0.0160
18988PP      PP29092   7.119  11.422   4.254  0.3650 -0.0949  0.3760
18989PP      PP29093   6.996   1.653   3.082  0.0523  0.0218  0.0717
18990PP      PP29094   4.027   4.383   3.599 -0.1797  0.1045  0.4947
18991PP      PP29095   1.477   0.619   0.928  0.0500  0.0501  0.3118
18992PP      PP29096  12.562   1.602   9.335  0.0315 -0.0812 -0.0260
18993PP      PP29097   0.279  15.883   0.432 -0.4423  0.0927  0.3074
18994PP      PP29098   9.798  12.364   4.913  0.4607 -0.1071 -0.3318
18995PP      PP29099   0.151  13.614  11.051  0.1235  0.0323  0.0737
18996PP      PP29100   4.659   2.791  12.267 -0.2783  0.0564  0.0735
18997PP      PP29101   5.655  10.465  10.568 -0.0151 -0.1444  0.0160
18998PP      PP29102   7.324  14.590   4.181  0.4921  0.2999 -0.1648
18999PP      PP29103   1.099  13.432  12.480 -0.1975 -0.0774 -0.2119
19000PP      PP29104  10.734  13.760  11.900 -0.0193  0.2003  0.0492
19001PP      PP29105  10.749   1.866   3.554  0.1772 -0.0758  0.0581
19002PP      PP29106   7.716  15.284  10.688 -0.1600  0.0832 -0.0894
19003PP      PP29107  15.387   4.693  10.505 -0.0405  0.0207 -0.0390
19004PP      PP29108   6.835   4.607   9.421  0.0122 -0.0573 -0.1275
19005PP      PP29109   4.429  13.203   0.550 -0.0980  0.1243  0.0521
19006PP      PP29110   1.758   5.090   0.220 -0.0282  0.0908 -0.1702
19007PP      PP29111   3.676  15.343   9.765  0.2628  0.2657 -0.1223
19008PP      PP29112  15.259  10.354  10.757 -0.0622 -0.2461 -0.2642
19009PP      PP29113   6.178   9.676   3.416 -0.1041  0.3182  0.2477
19010PP      PP29114  11.868   6.074  10.367  0.0507 -0.0287  0.0545
19011PP      PP29115   2.484  15.871  10.444 -0.2276 -0.1947 -0.0906
19012PP      PP29116  13.501  15.838   1.988 -0.0220 -0.3362  0.1693
19013PP      PP29117   9.977  12.046   3.640  0.2580  0.2151 -0.0112
19014PP      PP29118   4.964  14.027   1.135  0.2954 -0.0457 -0.1300
19015PP      PP29119  12.875  13.536  12.521 -0.0172 -0.0431  0.1266
19016PP      PP29120   6.653   8.859   0.460  0.0419  0.2405 -0.0794
19017PP      PP29121  13.223   6.981   1.113 -0.2944  0.0802  0.1271
19018PP      PP29122   9.635   9.974   1.971  0.1168 -0.0095 -0.0407
19019PP      PP29123   4.903   1.363   1.365  0.0146  0.2058  0.4229
19020PP      PP29124   1.444   4.600  12.607  0.1645  0.0740 -0.1444
19021PP      PP29125   1.116   8.477  10.768  0.0278 -0.0875 -0.1916
19022PP      PP29126   6.594  14.102  10.935  0.1013  0.2002 -0.1518
19023PP      PP29127   3.657  11.657   3.130 -0.0311 -0.0151  0.2635
19024PP      PP29128   7.197   0.749   9.676  0.1995 -0.1937  0.0217
19025PP      PP29129  14.139   1.222  10.465  0.0075  0.0027  0.3214
19026PP      PP29130  10.432  10.272   1.255  0.1153  0.1082 -0.2820
19027PP      PP29131  10.096   1.994   9.035  0.0158  0.0943 -0.1728
19028PP      PP29132   8.706   8.305   4.551  0.0838  0.0907 -0.2495
19029PP      PP29133  13.513  12.862   9.593 -0.2317 -0.1148  0.1257
19030PP      PP29134  14.591  15.528  11.955 -0.1879  0.1032  0.3540
19031PP      PP29135   5.769   4.981  11.852 -0.0584 -0.1178  0.0150
19032PP      PP29136  14.723   4.856   1.690  0.0825 -0.0221  0.0306
19033PP      PP29137  10.313   1.727   9.385 -0.0239  0.1540 -0.1024
19034PP      PP29138   4.228   6.885  11.047  0.2021  0.2276  0.0778
19035PP      PP29139   1.681  11.935   0.457 -0.2448 -0.0017  0.2819
19036PP      PP29140  10.351   0.844  10.481 -0.2904 -0.1106  0.2151
19037PP      PP29141   8.969   3.517   0.372  0.1349  0.0310  0.0087
19038PP      PP29142  10.333   3.277  12.460  0.1631 -0.2788 -0.2466
19039PP      PP29143  11.142   7.578  10.909 -0.0364  0.1408  0.0297
19040PP      PP29144   9.522   8.057   3.041  0.1432 -0.2494 -0.0194
19041PP      PP29145  13.400  10.337   0.106 -0.0899  0.3325  0.1298
19042PP      PP29146   9.601   7.668   3.919 -0.2954 -0.0300  0.2800
19043PP      PP29147   5.686   2.629  13.079 -0.0120 -0.2864  0.0553
19044PP      PP29148   2.509  15.587   1.223 -0.0842  0.0603 -0.0531
19045PP      PP29149  11.567  10.985   2.079  0.0363 -0.1323  0.0154
19046PP      PP29150  11.607  10.009  11.204  0.3915 -0.2524  0.1250
19047PP      PP29151  14.851  13.012   0.894 -0.3311  0.0688  0.1496
19048PP      PP29152   6.642  10.081   9.599 -0.2229  0.1839  0.0613
19049PP      PP29153  13.910  12.719  13.034  0.0130 -0.0584  0.0235
19050PP      PP29154  11.151   6.086  11.050  0.0935 -0.1738  0.0576
19051PP      PP29155  13.883   7.029   9.975 -0.2610  0.0922 -0.1031
19052PP      PP29156  10.640   2.817   2.620  0.3374 -0.0385 -0.1537
19053PP      PP29157   6.952  15.686   9.365  0.2871 -0.0489 -0.0886
19054PP      PP29158   3.601  12.508  10.427  0.0618  0.4688 -0.3696
19055PP      PP29159   5.467   4.343  13.084 -0.2167  0.0916  0.0153
19056PP      PP29160   4.609   3.537  12.034  0.0821  0.1149  0.2270
19057PP      PP29161   6.288   0.121   9.767  0.2241  0.4984 -0.1715
19058PP      PP29162  13.955   2.455   1.627  0.2170  0.1960 -0.2252
19059PP      PP29163   0.866  15.858  10.262  0.0603  0.3046 -0.0150
19060PP      PP29164   2.069  11.084  12.689 -0.2021 -0.1805  0.1183
19061PP      PP29165  14.405   8.140  12.450 -0.0273  0.2808  0.1158
19062PP      PP29166  11.946   0.880   9.689  0.1566 -0.2133 -0.0621
19063PP      PP29167  12.054   4.836   2.324 -0.4697  0.1499 -0.1750
19064PP      PP29168   0.391   6.851   0.650 -0.3349  0.2175  0.1523
19065PP      PP29169  11.264  13.650   4.114  0.0073 -0.4137  0.0455
19066PP      PP29170  15.487  11.933   2.945 -0.1479  0.1119  0.1096
19067PP      PP29171   6.552   7.987   1.710  0.0329 -0.0059  0.2102
19068PP      PP29172  10.368   8.724  11.114 -0.1056  0.2201 -0.2391
19069PP      PP29173   2.518  12.571   3.467  0.2228  0.2943 -0.0175
19070PP      PP29174   6.886  11.096   2.267  0.0437  0.1649 -0.0863
19071PP      PP29175  13.378   2.505   2.454 -0.1153  0.1811 -0.0183
19072PP      PP29176  13.643   9.630   3.903  0.1312 -0.1475  0.2355
19073PP      PP29177  12.697  14.642   4.551 -0.4901  0.0872 -0.1991
19074PP      PP29178  15.027   9.783   0.018 -0.1891  0.0768 -0.2458
19075PP      PP29179   6.077  12.251  11.646  0.2480  0.0260 -0.0062
19076PP      PP29180   5.362   1.161   9.681  0.2199 -0.0989 -0.4583
19077PP      PP29181   8.934  15.613   3.667 -0.1600 -0.0465 -0.0638
19078PP      PP29182   0.216   8.048  10.328 -0.1944 -0.0952 -0.0535
19079PP      PP29183  11.434   8.395   4.368 -0.1549 -0.1383 -0.1410
19080PP      PP29184   9.371   3.313  11.559 -0.3437 -0.2694  0.0012
19081PP      PP29185  10.554  12.588  12.269  0.0207  0.1681  0.2376
19082PP      PP29186   1.704   0.783   2.416  0.0363  0.1925  0.0732
19083PP      PP29187   9.008   9.559  10.114 -0.2953 -0.1628  0.3254
19084PP      PP29188   4.342   1.667   2.452  0.2671 -0.2744 -0.0029
19085PP      PP29189   6.256   5.923   0.420 -0.0318  0.2760  0.0022
19086PP      PP29190  15.148  12.129  11.642  0.3157 -0.1340  0.2836
19087PP      PP29191  11.875   1.767   1.016 -0.0047 -0.3473  0.0802
19088PP      PP29192  12.315  12.749   0.908 -0.1920 -0.0341 -0.0113
19089PP      PP29193  14.614   2.943   3.593 -0.0925 -0.4324 -0.0397
19090PP      PP29194   7.214  11.314   3.297 -0.0088  0.0359 -0.1086
19091PP      PP29195   9.839   3.508   4.302  0.1598 -0.1675 -0.2720
19092PP      PP29196  12.905   2.145  13.242  0.4349  0.3300  0.2328
19093PP      PP29197  15.467   8.821  10.885 -0.0587 -0.2941 -0.0309
19094PP      PP29198   8.979  13.193  10.542 -0.0569  0.0471 -0.0436
19095PP      PP29199   5.727   4.558   0.796 -0.3305 -0.0849  0.1600
19096PP      PP29200   1.322  11.739  12.916 -0.0273  0.0726 -0.0162
19097PP      PP29201   8.969   2.602   8.772 -0.1442  0.4464 -0.0048
19098PP      PP29202  14.488   5.165   3.225 -0.2091  0.2780  0.1363
19099PP      PP29203   7.799  11.008   9.907  0.3324 -0.0080 -0.1042
19100PP      PP29204   3.985  10.741   4.008 -0.3363  0.1600 -0.0282
19101PP      PP29205  12.567   1.694  12.424  0.0796  0.1028  0.3687
19102PP      PP29206  11.822  10.021  12.125  0.0837  0.1205 -0.2397
19103PP      PP29207  15.321   3.294  12.271 -0.1138  0.1212  0.0920
19104PP      PP29208  15.272  12.522   2.911 -0.2294 -0.1403  0.3563
19105PP      PP29209   7.218   3.007   4.031  0.0754  0.1342 -0.1441
19106PP      PP29210  11.202   2.396   4.210 -0.2970 -0.0068  0.0843
19107PP      PP29211  11.341  11.246   0.265 -0.2633  0.2118  0.1977
19108PP      PP29212   0.496  13.005   8.345 -0.0959  0.3049  0.2730
19109PP      PP29213  15.574   9.290  11.716 -0.2302 -0.0948 -0.0223
19110PP      PP29214   9.624  10.164  11.190 -0.0733  0.0657  0.1887
19111PP      PP29215   0.040  15.028  13.212  0.0212  0.1213 -0.0221
19112PP      PP29216   7.050   7.659   4.259  0.2957 -0.1684  0.2545
19113PP      PP29217   0.626   2.002   3.045  0.1502  0.1963  0.0623
19114PP      PP29218  10.731  13.769   9.960 -0.1753  0.2109 -0.0631
19115PP      PP29219  10.971   8.416   4.234  0.0186 -0.0171 -0.0005
19116PP      PP29220  15.786   1.857   1.792  0.1345 -0.2179 -0.3417
19117PP      PP29221   4.714   1.386   0.326  0.0102 -0.3118 -0.1150
19118PP      PP29222   8.889   0.729  12.038 -0.3364 -0.1725  0.0957
19119PP      PP29223   6.253   9.226   3.765 -0.1100 -0.0383 -0.0333
19120PP      PP29224   9.268  13.694   0.035 -0.0271 -0.1091  0.2393
19121PP      PP29225   3.312   5.952  12.446  0.2472  0.3929 -0.0721
19122PP      PP29226   4.577   6.357   3.969  0.1941  0.1395 -0.2047
19123PP      PP29227  10.831   6.629   9.805  0.0336 -0.0151  0.0851
19124PP      PP29228   2.830   8.828   1.439  0.0082 -0.0702  0.0926
19125PP      PP29229   6.314  10.467   1.069  0.1268  0.0536 -0.2817
19126PP      PP29230   5.248   6.974  12.013  0.4502  0.2357  0.1156
19127PP      PP29231   5.042  15.637  12.736  0.0898 -0.1942 -0.1491
19128PP      PP29232  10.545   7.653   3.876  0.0272  0.1776  0.1885
19129PP      PP29233  12.656   8.048  13.163 -0.2567 -0.2178 -0.1192
19130PP      PP29234   3.281  15.870   9.150 -0.0839  0.0028 -0.3358
19131PP      PP29235   5.790   5.520   2.053 -0.1840 -0.1840  0.0129
19132PP      PP29236  14.774   4.910   0.237 -0.0260 -0.0391 -0.0296
19133PP      PP29237  11.830  13.635   1.403  0.2104  0.0883  0.2433
19134PP      PP29238   4.728  13.569   0.816  0.2270 -0.1575 -0.1513
19135PP      PP29239   8.718   9.916   8.746 -0.1382 -0.0669 -0.1106
19136PP      PP29240   3.211  15.555   9.540  0.4252  0.2814  0.1055
19137PP      PP29241   7.473   9.789   0.299 -0.1817  0.0388  0.2035
19138PP      PP29242   5.446  15.938  12.519  0.0425  0.0236  0.0576
19139PP      PP29243   4.449  15.739  12.638 -0.2230  0.0328  0.1995
19140PP      PP29244  11.284   3.841   0.615 -0.0547  0.0024 -0.0313
19141PP      PP29245   9.904  12.913   2.997  0.0445 -0.1333  0.0954
19142PP      PP29246   7.132   9.897  11.657  0.0923 -0.0523  0.4158
19143PP      PP29247   5.113   3.762  12.531 -0.1560  0.2344  0.0434
19144PP      PP29248   8.794   2.444   1.134  0.0082 -0.2805 -0.3525
19145PP      PP29249  15.182   3.357  11.512 -0.0087 -0.0707  0.3042
19146PP      PP29250   7.967  11.483   0.725  0.0022 -0.1056  0.1406
19147PP      PP29251   1.038   3.798  10.080 -0.0190  0.3467  0.1649
19148PP      PP29252   9.591   0.460   9.498  0.0951 -0.0094 -0.1906
19149PP      PP29253  15.561   2.096   8.508 -0.0368  0.3245  0.0751
19150PP      PP29254   4.158   9.373  11.881 -0.0655  0.1354 -0.3943
19151PP      PP29255  12.033  15.625  13.339 -0.1491 -0.1814  0.0426
19152PP      PP29256   2.450   6.208  11.887 -0.0216 -0.1571  0.0095
19153PP      PP29257  11.542   4.948   2.007  0.2550 -0.0097  0.1429
19154PP      PP29258  14.143  10.860   1.558  0.2215 -0.2546 -0.0588
19155PP      PP29259  13.525  14.891   4.187  0.1789  0.2892  0.2698
19156PP      PP29260   4.607   5.374  12.579 -0.0525 -0.0647  0.0148
19157PP      PP29261  10.113   0.339  10.999  0.0042  0.1085 -0.3786
19158PP      PP29262   1.406   6.338   0.014  0.5167  0.3615 -0.0161
19159PP      PP29263   3.438  12.343   8.509 -0.1875  0.2639  0.1494
19160PP      PP29264   2.297  12.008  10.276  0.2824  0.2911  0.1038
19161PP      PP29265  11.810  15.728   0.582 -0.0394 -0.3813  0.1608
19162PP      PP29266  12.600  14.054   4.787 -0.0430  0.1133  0.1379
19163PP      PP29267  10.144   5.506  12.546 -0.3155 -0.2449 -0.2075
19164PP      PP29268  14.010   3.775  10.674  0.4547 -0.2624  0.0759
19165PP      PP29269   7.254  15.771  12.545 -0.1228 -0.0289  0.1176
19166PP      PP29270   9.531   7.797   1.261  0.2461  0.2350  0.0267
19167PP      PP29271   8.872   8.056   0.608  0.1801  0.1199 -0.1984
19168PP      PP29272   5.739   3.570  10.782 -0.0292 -0.3586  0.0305
19169PP      PP29273   5.967  10.992   2.238  0.0244  0.2028  0.2284
19170PP      PP29274  14.967   8.045   2.678  0.0258  0.0856  0.2265
19171PP      PP29275   4.658   4.443   3.074  0.0569 -0.4223  0.1225
19172PP      PP29276   2.225  15.115   3.051  0.0932  0.1410 -0.3406
19173PP      PP29277  11.617   7.290  13.189 -0.3525  0.1412  0.2449
19174PP      PP29278   1.892  12.817   8.941  0.0942  0.1402  0.0662
19175PP      PP29279   1.504  11.043   0.611 -0.2473  0.1247  0.0114
19176PP      PP29280   0.945  15.763   9.018  0.0086  0.1651 -0.1278
19177PP      PP29281   6.586   2.560   3.358 -0.4052  0.0200  0.2659
19178PP      PP29282   7.394   3.399   1.177  0.0610 -0.2661  0.1788
19179PP      PP29283   8.324  13.581  11.297 -0.0954  0.0141  0.3880
19180PP      PP29284   3.974   7.156  13.355 -0.2531 -0.0816 -0.0531
19181PP      PP29285   1.697   6.733  11.929  0.3544  0.0450 -0.1696
19182PP      PP29286   7.588  12.486   1.946  0.1297  0.0633 -0.0880
19183PP      PP29287  13.525   9.951  11.183 -0.2421  0.0720  0.0960
19184PP      PP29288   4.081   7.686  11.594  0.0543 -0.0959  0.1927
19185PP      PP29289  12.993   0.122   3.304  0.3093 -0.0567 -0.0999
19186PP      PP29290   1.878   4.326   3.543  0.1686  0.0648  0.0843
19187PP      PP29291   6.468  10.554  12.599 -0.0540 -0.3331 -0.1747
19188PP      PP29292   2.526  14.894   2.071 -0.1005  0.0096 -0.0468
19189PP      PP29293  13.577   3.470  12.646  0.0717  0.0680  0.2412
19190PP      PP29294   1.533   3.302   9.928 -0.0900 -0.1715 -0.0016
19191PP      PP29295   3.656  13.152   8.626  0.4065 -0.0562  0.4781
19192PP      PP29296   5.477   7.891   3.301  0.3328  0.0462  0.0358
19193PP      PP29297  14.702  13.041  13.161 -0.2190  0.0848 -0.1296
19194PP      PP29298  11.481  15.408  12.760 -0.2045  0.1251  0.5925
19195PP      PP29299  13.671   8.378   3.219  0.2122  0.0395 -0.0406
19196PP      PP29300   1.641   8.892   4.115 -0.0846  0.0016 -0.0085
19197PP      PP29301  15.504   6.534  12.433 -0.1107  0.0508  0.0293
19198PP      PP29302  10.561   6.040   3.474  0.1767 -0.1886  0.0622
19199PP      PP29303   3.285   4.123  12.388  0.0156 -0.0262 -0.2331
19200PP      PP29304  11.436  13.545   1.718 -0.2173  0.0958  0.1279
19201PP      PP29305   7.265   9.289   8.744 -0.2791  0.0495  0.0497
19202PP      PP29306  13.735  10.200  12.938  0.2574 -0.0896 -0.1409
19203PP      PP29307   5.407   7.481  11.294  0.0708 -0.3018  0.1419
19204PP      PP29308  14.014   7.984   2.953 -0.1275 -0.0363  0.4277
19205PP      PP29309   4.955  14.145   3.744 -0.0084 -0.2196 -0.0152
19206PP      PP29310   9.232   2.089  10.798  0.0534 -0.1715  0.0157
19207PP      PP29311  14.344   0.552   0.502 -0.0376 -0.0868 -0.0935
19208PP      PP29312  10.616   4.748   9.691  0.1047 -0.0729  0.0230
19209PP      PP29313   4.514  15.215  13.356 -0.3283 -0.1146  0.3847
19210PP      PP29314  12.213   2.732   8.847  0.1852 -0.1937  0.0231
19211PP      PP29315   9.893   3.780   1.507  0.1419 -0.0128 -0.1152
19212PP      PP29316  15.481   6.020  10.630 -0.0455 -0.3086  0.2117
19213PP      PP29317   5.262   0.891  11.041  0.1662 -0.2932 -0.2094
19214PP      PP29318  13.573   6.824   9.457  0.0490  0.1686 -0.0871
19215PP      PP29319   9.978  13.252  12.030 -0.1149  0.3192 -0.0156
19216PP      PP29320  10.604   8.094  10.740  0.0927  0.2541  0.2563
19217PP      PP29321   4.476  11.617   3.761  0.4422 -0.2984  0.0010
19218PP      PP29322   6.333   2.326   4.458 -0.4127 -0.3142  0.1069
19219PP      PP29323  14.769  13.967   0.352 -0.0444  0.0754 -0.0632
19220PP      PP29324   8.222   1.439   2.518  0.0205  0.0777 -0.1476
19221PP      PP29325  10.348   9.768   1.339 -0.2131 -0.0550 -0.0391
19222PP      PP29326   0.733  11.541   3.352 -0.2230 -0.0421 -0.4337
19223PP      PP29327   9.255  13.266  12.279 -0.1091 -0.3043  0.1463
19224PP      PP29328  13.245  12.574   0.683 -0.0030  0.0276 -0.0356
19225PP      PP29329   3.996   9.031  11.218 -0.3562 -0.1296  0.0358
19226PP      PP29330  10.493   9.075   9.486  0.1395  0.2089  0.0431
19227PP      PP29331   9.044  14.133   2.339  0.0139 -0.1921 -0.2647
19228PP      PP29332  11.831   1.640   1.822 -0.2704  0.2445  0.2853
19229PP      PP29333   8.177   3.669  12.623 -0.1771 -0.0455  0.1563
19230PP      PP29334  14.670   8.104  10.653 -0.0902  0.3220 -0.0180
19231PP      PP29335   0.111  11.702   8.156  0.1288  0.1953  0.0623
19232PP      PP29336   8.643   4.499  11.204  0.1032 -0.1990  0.3192
19233PP      PP29337  14.324  15.586   2.416  0.0436 -0.1815  0.2479
19234PP      PP29338   3.913   9.919   3.943  0.0858  0.0644 -0.0579
19235PP      PP29339   7.148   9.371  11.590  0.1400  0.2834 -0.0145
19236PP      PP29340  10.531   7.821   1.698 -0.1992  0.0541  0.0570
19237PP      PP29341  15.113   7.148   9.363  0.2898 -0.2045 -0.0411
19238PP      PP29342   6.082  15.686   8.906 -0.1520  0.2078  0.2636
19239PP      PP29343  11.395   4.152  12.566 -0.0177 -0.0231  0.0360
19240PP      PP29344  10.801   5.213   9.760  0.2606 -0.1186  0.1430
19241PP      PP29345   7.365   8.124   1.309  0.0198  0.3423  0.1456
19242PP      PP29346   2.095   5.389   2.639 -0.2617 -0.1680  0.3034
19243PP      PP29347   3.743  10.035   2.756 -0.3031 -0.0298 -0.2587
19244PP      PP29348   4.664   2.718   9.759  0.1483 -0.0779 -0.2248
19245PP      PP29349  11.507  13.978   2.932 -0.0338  0.2205  0.1821
19246PP      PP29350  13.354  13.284  12.512 -0.0548  0.1208  0.0694
19247PP      PP29351   8.948  10.298   8.541  0.4070 -0.1166 -0.2563
19248PP      PP29352   2.197   7.713  12.817 -0.0613  0.1054 -0.2313
19249PP      PP29353  10.367   5.533   0.194  0.3316 -0.1299 -0.1925
19250PP      PP29354   5.237   2.023  12.684 -0.1373 -0.1166  0.2092
19251PP      PP29355   6.853   6.164  12.826  0.1880 -0.0514 -0.4123
19252PP      PP29356  13.256   8.676   3.171 -0.3787 -0.2050  0.0060
19253PP      PP29357  15.924  11.024   9.869 -0.0295 -0.3975 -0.0694
19254PP      PP29358  12.035  14.296  13.242  0.0553 -0.0014 -0.0541
19255PP      PP29359   4.672   3.739   1.064 -0.0787  0.1168 -0.0007
19256PP      PP29360  12.598   9.314   4.699  0.1262 -0.2658  0.0003
19257PP      PP29361   2.512   2.607  10.455  0.1280  0.2025 -0.0011
19258PP      PP29362   5.365   0.947   1.316 -0.3749 -0.0377  0.0767
19259PP      PP29363   9.600   7.821   9.792 -0.1597  0.2414 -0.1572
19260PP      PP29364  12.067  12.860   3.509 -0.0981  0.2891  0.1107
19261PP      PP29365   2.428   8.371  10.354  0.2478 -0.1465  0.0876
19262PP      PP29366   4.561  12.691   2.121 -0.1876 -0.4293  0.1162
19263PP      PP29367  10.974  12.693   4.466  0.0138  0.1475 -0.1915
19264PP      PP29368  10.609   4.818   4.045  0.1226  0.1223 -0.1848
19265PP      PP29369  10.116   9.449  11.725  0.0145 -0.1631 -0.0742
19266PP      PP29370   3.780   9.587   0.696 -0.2605  0.0302 -0.1556
19267PP      PP29371  10.444   9.064  11.703  0.3087  0.2587  0.0290
19268PP      PP29372   5.703   4.911   4.032 -0.0121 -0.0715 -0.2139
19269PP      PP29373   8.624   9.103  10.904  0.1522 -0.0433 -0.2048
19270PP      PP29374  10.246  12.945   0.291 -0.0490  0.0381  0.1258
19271PP      PP29375  11.585  14.445   3.156  0.0706  0.1582 -0.2683
19272PP      PP29376   7.112  14.993  10.595  0.0028  0.0239 -0.3404
19273PP      PP29377  14.224   2.120  12.055  0.4123  0.2647  0.0269
19274PP      PP29378   8.446   2.390  11.895  0.1559  0.1211  0.2384
19275PP      PP29379  14.062  10.992   1.076  0.1108  0.2887  0.1556
19276PP      PP29380   0.686  14.786   9.136 -0.4199 -0.1020 -0.0301
19277PP      PP29381  14.468  14.586  12.256 -0.0028 -0.1883  0.0186
19278PP      PP29382  14.073  13.891   1.020  0.0932  0.1989 -0.0303
19279PP      PP29383   1.674  14.942   8.579  0.0769 -0.2148  0.0520
19280PP      PP29384  15.586   7.221   2.344 -0.1195  0.0783  0.2740
19281PP      PP29385  15.550  14.652   8.107 -0.0804  0.3657  0.0471
19282PP      PP29386  15.911  12.588  12.790 -0.2173  0.0048 -0.0983
19283PP      PP29387   6.902   3.481   9.188  0.0772 -0.2327  0.1657
19284PP      PP29388   9.207   2.699   9.782  0.3525 -0.0382 -0.1754
19285PP      PP29389  13.171   3.501   2.877  0.0234  0.1276  0.0341
19286PP      PP29390   4.600   1.738   1.168 -0.2697  0.2554  0.1305
19287PP      PP29391  10.229  10.992  10.334 -0.1091 -0.2812 -0.1924
19288PP      PP29392  11.012   2.488   2.508  0.0556 -0.3087 -0.1009
19289PP      PP29393   3.278  15.768   2.391  0.0004 -0.2495 -0.1864
19290PP      PP29394   4.267   4.840  11.126  0.3836  0.2565  0.1423
19291PP      PP29395  14.425  12.521   1.507 -0.1198  0.2365 -0.2373
19292PP      PP29396   3.372  15.751  10.144  0.0742  0.0586 -0.0348
19293PP      PP29397   5.911   9.873   4.356 -0.2022 -0.1540 -0.0631
19294PP      PP29398  15.556   3.004  13.152  0.0392 -0.1721  0.1414
19295PP      PP29399   0.532  15.420   0.668  0.2380  0.2966  0.1942
19296PP      PP29400  13.526   5.595   9.982  0.1419 -0.0658 -0.0851
19297PP      PP29401   3.529   8.079   1.866 -0.2913 -0.0398  0.2836
19298PP      PP29402   7.806   0.222   3.778  0.1541  0.0658 -0.1633
19299PP      PP29403  13.255   2.369  11.665 -0.2574  0.0074 -0.1869
19300PP      PP29404  12.907   5.860   0.557 -0.0311 -0.0114  0.0244
19301PP      PP29405   9.913   3.438   3.675 -0.1440  0.1321  0.2266
19302PP      PP29406   6.697  12.914  11.608  0.2101  0.2323  0.3045
19303PP      PP29407   4.311   2.626   2.194  0.1493 -0.0197 -0.2397
19304PP      PP29408   9.294  15.144   2.504  0.1289  0.2643  0.0322
19305PP      PP29409   2.320  15.562  11.776  0.0562  0.0498  0.1001
19306PP      PP29410  15.723  13.424  13.260 -0.0709  0.0486 -0.1956
19307PP      PP29411  14.200   0.738  10.579  0.1791 -0.2842  0.2191
19308PP      PP29412  15.880  10.068  11.528  0.1926 -0.1347  0.1401
19309PP      PP29413   4.436   0.902   0.315  0.1984  0.0579  0.1342
19310PP      PP29414  11.739  14.660  13.321  0.1606  0.0954  0.0565
19311PP      PP29415   3.432  10.386   2.952  0.2396 -0.0510 -0.1677
19312PP      PP29416  15.363   0.099  10.231 -0.5252 -0.3461 -0.0303
19313PP      PP29417  12.567   6.440   3.487 -0.1369  0.0117 -0.1500
19314PP      PP29418   4.766  14.059   3.318 -0.2036 -0.0697  0.2629
19315PP      PP29419   4.818   8.079   0.152  0.2527  0.0866 -0.0472
19316PP      PP29420   4.535   4.662   9.965  0.1797  0.1433 -0.1516
19317PP      PP29421   4.077  11.899   1.219 -0.0943  0.2512  0.1100
19318PP      PP29422  11.421  10.506   4.893  0.1888 -0.0278 -0.2946
19319PP      PP29423  15.396  13.961  10.413  0.1630 -0.1964 -0.2027
19320PP      PP29424  12.056  13.732  10.361  0.0884  0.0011 -0.0009
19321PP      PP29425  10.108   1.695  12.412  0.2297 -0.0646 -0.0051
19322PP      PP29426   4.845   6.921  13.206 -0.0179 -0.0121 -0.0478
19323PP      PP29427  12.367   3.841   1.186  0.0219  0.1714  0.0123
19324PP      PP29428   6.228   9.554   8.913  0.0779  0.1817 -0.0148
19325PP      PP29429   3.987   0.777   1.731 -0.0621 -0.3714  0.0749
19326PP      PP29430   4.555   5.028   1.508  0.1741 -0.1395 -0.1476
19327PP      PP29431  10.366  13.298   3.491  0.2827  0.2222 -0.0641
19328PP      PP29432   6.511  12.289  12.562  0.0390  0.1421  0.0028
19329PP      PP29433   7.496   0.504   3.456  0.2346 -0.0185  0.1407
19330PP      PP29434  11.211   0.428  10.053 -0.0959  0.1714 -0.0389
19331PP      PP29435   6.849  15.494  10.493  0.1738 -0.0525  0.2734
19332PP      PP29436   3.920  12.548   0.567  0.4511 -0.0132 -0.1032
19333PP      PP29437   3.636  10.824  11.146  0.0073 -0.1189  0.0858
19334PP      PP29438   3.574   3.201  10.747  0.0834  0.3107 -0.2285
19335PP      PP29439   2.310   0.675  10.550  0.0576 -0.1409  0.0268
19336PP      PP29440  14.978  13.789  10.126  0.1390  0.2451  0.0233
19337PP      PP29441   2.216  12.475   1.741 -0.0438  0.0832  0.1424
19338PP      PP29442   1.817   1.408  12.567  0.1192 -0.0883 -0.1190
19339PP      PP29443   2.753  12.030   3.549  0.2660 -0.1138  0.0328
19340PP      PP29444   3.691   7.424  12.980  0.4314 -0.2096 -0.0075
19341PP      PP29445   9.623   8.374   9.974 -0.0773  0.0314  0.2340
19342PP      PP29446   1.252   4.948   1.723  0.2221 -0.0052  0.1178
19343PP      PP29447   4.700   7.144  10.835  0.2974  0.1535 -0.1494
19344PP      PP29448   2.447   5.143   2.873 -0.0446 -0.0932  0.2418
19345PP      PP29449  14.700  15.895  11.086  0.0942  0.1198 -0.2053
19346PP      PP29450  14.700  14.385   9.869  0.3166  0.1392  0.2483
19347PP      PP29451   5.800   4.057   8.963  0.2350 -0.3008  0.0635
19348PP      PP29452  12.377  14.814   4.228  0.0773  0.1676 -0.0238
19349PP      PP29453   8.382   6.039  13.320  0.0152  0.0326 -0.1611
19350PP      PP29454   5.917  15.580  13.011  0.1390  0.1199  0.1851
19351PP      PP29455   9.803  15.813   1.658 -0.2035  0.1937 -0.3082
19352PP      PP29456  10.462   5.276  13.001  0.0290  0.0438 -0.0115
19353PP      PP29457   7.399   8.956   4.460  0.0076 -0.0417 -0.0967
19354PP      PP29458  13.866   0.726  11.388 -0.2547 -0.2356  0.1557
19355PP      PP29459   6.134   2.407   0.545 -0.0353  0.3157  0.0647
19356PP      PP29460  11.305  15.384   0.454 -0.3217 -0.0387 -0.2581
19357PP      PP29461   2.386   1.426  12.633 -0.2289 -0.1261 -0.0031
19358PP      PP29462  15.140   9.389  12.515  0.0609  0.0764 -0.0962
19359PP      PP29463   4.751  14.012   9.962 -0.0169 -0.3512  0.3872
19360PP      PP29464   6.208   1.354   8.849  0.1101 -0.0274  0.1091
19361PP      PP29465   0.786  15.097   2.658 -0.1928  0.4822  0.0664
19362PP      PP29466   8.105   6.200   2.336  0.1211  0.0349  0.1761
19363PP      PP29467   8.079  13.786   1.306 -0.0194 -0.0007  0.1912
19364PP      PP29468   1.387   7.367   2.280 -0.0904 -0.2889 -0.2632
19365PP      PP29469  13.608  10.654   1.347 -0.2384 -0.0361  0.2781
19366PP      PP29470   3.434   1.926  12.215 -0.1395 -0.0321  0.0767
19367PP      PP29471  12.369  15.907   1.510  0.1453 -0.0178 -0.2687
19368PP      PP29472   9.169   2.052   0.379  0.2101 -0.2495  0.1237
19369PP      PP29473   1.259  14.882  13.208  0.0738  0.3423  0.0278
19370PP      PP29474   6.775  15.898  10.821 -0.2330 -0.1640 -0.2258
19371PP      PP29475   8.645   6.811   0.222  0.1887 -0.0387  0.3660
19372PP      PP29476  12.892   6.892  10.900 -0.1666 -0.0919 -0.1170
19373PP      PP29477   8.678   5.360  13.138  0.0291  0.2223 -0.0823
19374PP      PP29478  13.031   1.966   9.452 -0.1730  0.0736 -0.0520
19375PP      PP29479   6.942   2.739   3.683  0.0741  0.2470  0.0661
19376PP      PP29480   7.941  15.390   2.638 -0.0025  0.0685  0.1156
19377PP      PP29481   0.961   5.307   4.274  0.0006 -0.0570  0.1455
19378PP      PP29482  15.284   3.970   9.199 -0.1050 -0.1833  0.1441
19379PP      PP29483   7.713   5.514  12.076  0.0990  0.1579 -0.0450
19380PP      PP29484   3.368   0.013   2.838  0.3270  0.1431  0.3180
19381PP      PP29485   4.237   2.554  12.359  0.1054 -0.1622  0.3405
19382PP      PP29486  12.701   3.375  12.823 -0.0256 -0.1410  0.1505
19383PP      PP29487  14.571   6.893  11.044  0.0104  0.1834  0.1787
19384PP      PP29488  11.232   6.832   1.724  0.2525  0.0253 -0.2141
19385PP      PP29489   3.788  11.676  12.924 -0.1169 -0.0830  0.0631
19386PP      PP29490  11.508  13.174  10.091  0.2433  0.0884 -0.0107
19387PP      PP29491   8.880   5.093   3.459  0.2909 -0.0131  0.1717
19388PP      PP29492  12.365   7.677  11.525 -0.0818 -0.0428 -0.3053
19389PP      PP29493  12.879   0.068   1.138 -0.1378  0.2520 -0.2495
19390PP      PP29494   6.229   7.642  12.375  0.4212  0.0755  0.0325
19391PP      PP29495   7.817   4.848   1.342  0.0821  0.3140 -0.0865
19392PP      PP29496  11.968   0.327   1.333 -0.2634  0.2371 -0.0139
19393PP      PP29497  10.938   8.762   4.635  0.0974  0.0489  0.0353
19394PP      PP29498  14.103  14.741   8.674  0.0414  0.1616 -0.0346
19395PP      PP29499   9.461   1.102  10.932  0.1330  0.2821 -0.1073
19396PP      PP29500  12.421   9.698   8.910 -0.1721  0.1268 -0.1466
19397PP      PP29501  14.225   8.829  12.954 -0.2866  0.2883 -0.1009
19398PP      PP29502   9.769  10.240   0.139 -0.0275 -0.0444  0.3072
19399PP      PP29503   9.444   6.669  12.449 -0.0544  0.0104 -0.0646
19400PP      PP29504  12.298  12.514   1.364  0.2759  0.3858 -0.3291
19401PP      PP29505  10.883   3.340  10.246 -0.2201  0.0642 -0.2086
19402PP      PP29506  15.931   2.881  10.423  0.0560 -0.0689  0.1375
19403PP      PP29507  14.111   8.262  13.337  0.1904  0.2048 -0.0630
19404PP      PP29508   0.317  12.204   2.721 -0.1179  0.0839 -0.2024
19405PP      PP29509   4.869  11.583  11.418  0.1503 -0.2721  0.4175
19406PP      PP29510   9.278  13.262   2.509 -0.1954  0.0036 -0.0852
19407PP      PP29511   1.544  12.574   3.719 -0.0823 -0.1025  0.0434
19408PP      PP29512   4.924  13.616   2.355  0.2232  0.0586  0.0532
19409PP      PP29513   4.209  14.316   0.731 -0.2538  0.1154 -0.2753
19410PP      PP29514   8.340  10.714  11.846 -0.4260 -0.1477  0.0296
19411PP      PP29515   9.649   9.889  12.998 -0.4038  0.3648 -0.1193
19412PP      PP29516   0.511   1.374   0.694  0.0527 -0.0502  0.2126
19413PP      PP29517  10.730   1.841  11.983 -0.3397  0.0836  0.0732
19414PP      PP29518   2.646   3.735  11.962 -0.0659  0.1505 -0.1078
19415PP      PP29519  10.139  15.060   1.381  0.1572  0.1880  0.0532
19416PP      PP29520  13.089   9.755  10.322  0.0903  0.0003  0.0946
19417PP      PP29521   1.129   3.320   9.569  0.0296 -0.1683  0.0104
19418PP      PP29522   9.506  15.720  12.667  0.1903  0.0282 -0.1284
19419PP      PP29523   9.212  14.707   4.331  0.0131  0.2018 -0.2239
19420PP      PP29524  10.048   9.918   0.975 -0.3271 -0.0917  0.1712
19421PP      PP29525   1.629   5.147  11.709  0.4148 -0.1593 -0.1280
19422PP      PP29526   1.864  12.728   2.692  0.0079  0.2029  0.0758
19423PP      PP29527   1.578   0.220  13.370 -0.0177 -0.1437  0.3320
19424PP      PP29528   5.442  10.188   1.292  0.0942 -0.1534 -0.3103
19425PP      PP29529   9.439   3.471  10.558  0.0778  0.5235  0.0921
19426PP      PP29530  15.295  14.375   2.375  0.0128 -0.1401  0.0279
19427PP      PP29531   1.701  12.054   3.554 -0.4125  0.1237  0.1744
19428PP      PP29532  12.728  14.274  11.885 -0.1416 -0.1855 -0.0476
19429PP      PP29533   7.653   9.476   3.309 -0.0113  0.2255  0.2210
19430PP      PP29534   5.488   4.219   0.564 -0.0109  0.0707 -0.0826
19431PP      PP29535   3.204   0.637  11.931 -0.0415 -0.3120  0.0497
19432PP      PP29536   7.501   5.240   0.328  0.3045  0.0751 -0.0376
19433PP      PP29537   4.221   7.443   3.644  0.1493  0.0773  0.2290
19434PP      PP29538  11.460  11.869  10.287  0.0423  0.0086 -0.0433
19435PP      PP29539   6.321  14.355   0.293 -0.0122 -0.0609 -0.1660
19436PP      PP29540  14.688  14.991   0.243 -0.3037  0.2136 -0.0402
19437PP      PP29541  12.893   8.801  12.454 -0.0718 -0.0952 -0.5022
19438PP      PP29542   7.751  13.603  10.264 -0.0806 -0.3112 -0.2106
19439PP      PP29543   9.765  10.552   2.847  0.1425  0.0226  0.0805
19440PP      PP29544  10.215  12.628  13.263  0.0510  0.0467  0.1936
19441PP      PP29545  11.499  13.184   1.265  0.1748  0.0223 -0.0355
19442PP      PP29546  15.124   1.331  10.006 -0.0075  0.3382  0.2685
19443PP      PP29547   9.102  11.037  11.311  0.1004 -0.2393  0.2537
19444PP      PP29548  12.616   7.319  12.111  0.1060  0.0256  0.0967
19445PP      PP29549   1.440  13.744   8.999 -0.0876 -0.0367 -0.2703
19446PP      PP29550   3.999   9.221  13.019  0.2104  0.3144  0.0334
19447PP      PP29551   5.710   7.612   0.830  0.1377 -0.1272 -0.2620
19448PP      PP29552   1.832  13.332   8.933 -0.0002 -0.2206 -0.0136
19449PP      PP29553   5.251   4.614   0.952 -0.0869 -0.0415  0.0775
19450PP      PP29554  14.332  12.198   9.179  0.1057  0.4521 -0.0607
19451PP      PP29555   9.846   0.793  11.230 -0.0176 -0.5030  0.0272
19452PP      PP29556  13.146   1.104  10.420  0.1738 -0.1430 -0.2408
19453PP      PP29557   1.189   9.620   8.933 -0.0785  0.3345  0.3966
19454PP      PP29558   3.398  12.017   9.742  0.0492  0.2725 -0.0040
19455PP      PP29559   6.586   5.590   1.037  0.3082  0.3283  0.0522
19456PP      PP29560  12.513  14.294   3.142  0.0650  0.0868  0.0813
19457PP      PP29561   7.322   9.785   2.922  0.2510  0.0750 -0.0892
19458PP      PP29562  10.921  13.964   4.816 -0.2208  0.0177  0.4334
19459PP      PP29563   8.960   4.926  12.965  0.1822  0.0378  0.2784
19460PP      PP29564   8.223   8.925   1.185  0.0398 -0.2203  0.2027
19461PP      PP29565  11.545   2.898   1.704 -0.0646 -0.1758 -0.0188
19462PP      PP29566   8.818   2.656   1.684  0.0392 -0.0069 -0.0469
19463PP      PP29567   8.682   7.169  11.108 -0.0234 -0.4692  0.2304
19464PP      PP29568   2.753  14.287   8.894 -0.0698  0.3812  0.1659
19465PP      PP29569   3.694  15.676  12.040 -0.1462  0.2180  0.0871
19466PP      PP29570   2.820   4.196   9.222 -0.1530 -0.2050  0.1648
19467PP      PP29571  15.517  14.536  11.978 -0.0333  0.1165  0.0322
19468PP      PP29572   0.630   0.567  10.648 -0.2279 -0.2303 -0.3452
19469PP      PP29573   6.481   5.879   4.408  0.1412 -0.2799  0.2036
19470PP      PP29574  14.143   5.589   8.761  0.1316 -0.3548  0.0192
19471PP      PP29575  12.825   9.093   9.921  0.0833  0.1215  0.1259
19472PP      PP29576   8.903  11.334   0.941 -0.2503 -0.1954  0.0241
19473PP      PP29577   4.192   4.498  11.490  0.0863  0.1956 -0.0459
19474PP      PP29578   6.107  13.355   2.349 -0.0029 -0.0000  0.1482
19475PP      PP29579  13.367  10.944   4.066 -0.1230  0.0233  0.0588
19476PP      PP29580  15.324   9.454   1.246 -0.2456 -0.1351  0.2242
19477PP      PP29581   2.491   4.482  11.354 -0.1742 -0.2426 -0.1647
19478PP      PP29582   6.689  13.448  11.607  0.1103  0.0098  0.1890
19479PP      PP29583  12.526   0.298  12.103  0.0516  0.4136 -0.1072
19480PP      PP29584  11.898  14.245   8.833 -0.1244 -0.1003 -0.1857
19481PP      PP29585   8.573   8.576   1.803 -0.0189 -0.2594  0.0454
19482PP      PP29586  10.103  12.259   4.495  0.1318 -0.2170  0.0559
19483PP      PP29587  12.623   2.741  12.094  0.0836 -0.1173 -0.3809
19484PP      PP29588   1.685  10.120  11.619  0.1166  0.1813  0.1427
19485PP      PP29589   5.377  13.067   0.828 -0.0308  0.3015  0.3369
19486PP      PP29590   0.838   2.565  11.042  0.1136 -0.2671 -0.1430
19487PP      PP29591  14.917  12.260   9.794  0.0068 -0.1244 -0.2888
19488PP      PP29592  12.495   3.872   4.411 -0.2379 -0.0876  0.4030
19489PP      PP29593  14.685  14.285  11.655 -0.0245  0.1081 -0.3754
19490PP      PP29594   2.148   9.212   0.181 -0.1528 -0.1727 -0.3649
19491PP      PP29595   1.752   8.319  12.635 -0.1121 -0.0181 -0.1031
19492PP      PP29596   1.478   6.507   1.746 -0.0502  0.1160 -0.1013
19493PP      PP29597  10.608  10.043  13.019  0.2054 -0.0636 -0.2205
19494PP      PP29598   2.101  13.339   1.729  0.0458  0.1338  0.0463
19495PP      PP29599  10.059   6.033  11.082  0.0045 -0.3381  0.0238
19496PP      PP29600   4.939  14.990   0.641  0.1315 -0.1428  0.1081
19497PP      PP29601  14.801   5.747   1.523  0.2048  0.0638 -0.4630
19498PP      PP29602   9.987  14.298  12.798 -0.1918 -0.1930  0.1323
19499PP      PP29603   1.683  10.458   3.613  0.1050  0.4181  0.0319
19500PP      PP29604  14.117   9.526   2.203  0.3004  0.0092  0.0231
19501PP      PP29605  12.989   6.156   3.352 -0.2187 -0.3776  0.1603
19502PP      PP29606  15.020   0.324   8.395  0.2445  0.2591  0.0030
19503PP      PP29607   4.214  12.285   3.132  0.3636  0.1573 -0.0063
19504PP      PP29608   6.527   5.978  10.016 -0.0830  0.0053 -0.1027
19505PP      PP29609  15.340   2.914  12.738 -0.1487  0.0171  0.0499
19506PP      PP29610   4.660   3.716   3.621  0.1155  0.1896 -0.2266
19507PP      PP29611   9.856  10.448   8.528 -0.0344 -0.1422 -0.3300
19508PP      PP29612  15.720   0.934   3.179 -0.1014 -0.1276  0.0752
19509PP      PP29613  13.598  12.208  13.012  0.0186 -0.1143  0.2804
19510PP      PP29614   2.493  10.081   9.241  0.2735 -0.1117 -0.3270
19511PP      PP29615   9.588  12.172   0.324 -0.0144 -0.0663 -0.2106
19512PP      PP29616   0.011  10.273   3.607 -0.0649 -0.0463  0.0200
19513PP      PP29617   2.976   2.179   9.432  0.0244  0.2745  0.3056
19514PP      PP29618   2.855   7.749  11.048 -0.2222  0.2222 -0.0429
19515PP      PP29619  14.402   2.929  12.348 -0.1400 -0.2260 -0.1207
19516PP      PP29620   3.606   1.927   9.339 -0.0637  0.0494 -0.2132
19517PP      PP29621  15.872  14.519  13.209 -0.3089 -0.0295  0.0502
19518PP      PP29622  12.975  11.172   2.904  0.0681 -0.4771  0.2252
19519PP      PP29623   7.197   9.651   9.043  0.1081 -0.0152  0.0163
19520PP      PP29624  14.212  15.206  10.695  0.1560  0.1010  0.1065
19521PP      PP29625   5.467   7.546  12.996  0.0894 -0.1255  0.0901
19522PP      PP29626   5.147   9.672   1.234 -0.3285 -0.2062 -0.1427
19523PP      PP29627  10.853  15.019   3.374  0.0416  0.1423  0.3926
19524PP      PP29628   8.479   1.088   1.838  0.2839 -0.0804  0.0416
19525PP      PP29629   4.329   4.973   9.475  0.0984 -0.1084 -0.1952
19526PP      PP29630   6.880  12.096  12.272  0.2613 -0.2147 -0.2179
19527PP      PP29631   7.928   5.258   9.661 -0.0991  0.1124  0.0710
19528PP      PP29632  12.636   1.184  11.440  0.2651 -0.0511  0.0046
19529PP      PP29633   6.776   6.084   0.310 -0.0949 -0.0899  0.0765
19530PP      PP29634   6.126   1.491  11.943  0.0373 -0.1314  0.0115
19531PP      PP29635   9.961   3.496   2.582 -0.0931 -0.0478 -0.2323
19532PP      PP29636   0.376   8.652   1.120 -0.0663  0.3609  0.1407
19533PP      PP29637   0.468   9.652  10.051 -0.1312  0.2184 -0.0367
19534PP      PP29638   2.371   1.082   0.529 -0.0479  0.0154 -0.0892
19535PP      PP29639  15.150   3.039   0.664  0.1025 -0.2833  0.0243
19536PP      PP29640   8.542   3.448   8.922 -0.1950  0.1644  0.0982
19537PP      PP29641   8.191  12.704  11.917 -0.0464 -0.0956 -0.0912
19538PP      PP29642  14.484   2.492  10.600  0.0008  0.1046  0.3321
19539PP      PP29643   0.860   1.758   0.954 -0.1943 -0.2105 -0.3100
19540PP      PP29644   2.295   1.290   3.656 -0.1278  0.3135  0.0374
19541PP      PP29645  12.812   0.262   2.851  0.0542  0.1104 -0.1935
19542PP      PP29646   3.932   7.246   9.794 -0.3703 -0.0523 -0.0745
19543PP      PP29647   8.363  13.167   8.381 -0.0618 -0.0186 -0.2379
19544PP      PP29648   4.619   3.654  12.888 -0.2092  0.4510 -0.2887
19545PP      PP29649   1.708   1.271  11.606 -0.0557 -0.0888  0.1583
19546PP      PP29650   6.461  15.084  11.637 -0.1825 -0.0915  0.1119
19547PP      PP29651  15.407   9.060   3.982  0.2525  0.1613  0.1428
19548PP      PP29652   3.068  13.361  11.304  0.2368 -0.2990 -0.4463
19549PP      PP29653   7.363   1.526   4.034  0.2253  0.4432  0.0421
19550PP      PP29654   6.878   6.889   3.115  0.0657  0.2359 -0.1049
19551PP      PP29655   8.342  11.510   9.307 -0.0144  0.0111 -0.3953
19552PP      PP29656   0.116   8.051   0.588 -0.1911  0.1814  0.1109
19553PP      PP29657  11.613   3.710   3.132  0.0060 -0.1028 -0.0118
19554PP      PP29658  15.472  13.863  13.311  0.2455  0.0316  0.1462
19555PP      PP29659   3.615   3.886   1.455  0.0941 -0.3121  0.1361
19556PP      PP29660   6.465   5.078   3.560 -0.1711  0.1736 -0.0445
19557PP      PP29661  11.928  13.464  13.323  0.1367  0.2151  0.1887
19558PP      PP29662  12.436  12.523   3.532 -0.0014  0.0668 -0.1801
19559PP      PP29663   9.119   2.804   4.403 -0.3243  0.1041 -0.0186
19560PP      PP29664  13.517   2.496  10.469  0.1370 -0.0886 -0.1084
19561PP      PP29665   5.415  10.377  11.785  0.0562 -0.2910  0.0137
19562PP      PP29666   3.437  14.891   8.944 -0.0634 -0.0524  0.3964
19563PP      PP29667   3.883   0.226   0.929 -0.0999 -0.0268 -0.0770
19564PP      PP29668  12.447  15.195  11.264  0.0834  0.0518 -0.2124
19565PP      PP29669   5.765   8.111   9.189  0.0262  0.1332 -0.0347
19566PP      PP29670   6.256   9.012  13.269  0.1305 -0.3529 -0.1313
19567PP      PP29671   2.507  10.134  11.127 -0.1475  0.3612 -0.1633
19568PP      PP29672   4.370   6.415   1.487 -0.0352 -0.1912 -0.0595
19569PP      PP29673   2.632   1.500  11.794 -0.1320  0.0666  0.2010
19570PP      PP29674   7.792   8.212  10.397  0.1379  0.0077 -0.1364
19571PP      PP29675   8.205  14.600   2.575 -0.1951  0.0160 -0.0485
19572PP      PP29676  12.013  15.593  11.183  0.1566 -0.0334 -0.1804
19573PP      PP29677   7.133  13.111   9.092  0.1136  0.0368 -0.1543
19574PP      PP29678  15.454   3.307   9.666  0.0783  0.0577 -0.0756
19575PP      PP29679  12.825   8.337  10.432 -0.4852  0.2136  0.1601
19576PP      PP29680  12.619   6.564   0.479 -0.0903 -0.0046 -0.2841
19577PP      PP29681   6.601   9.913   2.105 -0.1938 -0.2303 -0.0636
19578PP      PP29682   9.545  14.622   0.824 -0.2238  0.4604 -0.0803
19579PP      PP29683   1.202   6.250   3.871 -0.3480 -0.1956  0.2293
19580PP      PP29684   7.157   1.051   3.950  0.0826 -0.2345  0.1693
19581PP      PP29685   3.958  14.988  11.628 -0.0483 -0.1470 -0.3454
19582PP      PP29686   8.757  14.851   1.643 -0.4795 -0.0971  0.1640
19583PP      PP29687   4.489   8.131   4.106  0.1738  0.0197 -0.0268
19584PP      PP29688   0.723   4.384  12.412  0.2208 -0.0852 -0.1851
19585PP      PP29689   6.249  13.338  11.318  0.2435 -0.1061  0.1190
19586PP      PP29690   4.882  13.999  12.401 -0.0660  0.2125 -0.1421
19587PP      PP29691  13.394   0.131   1.246  0.1531  0.1790 -0.0324
19588PP      PP29692   0.824  13.622   9.876  0.0333  0.0126 -0.0911
19589PP      PP29693  14.200   1.172  11.634  0.1130 -0.1615  0.0446
19590PP      PP29694   7.710   8.939   8.689 -0.2855  0.0376 -0.3296
19591PP      PP29695   5.388   8.093  12.482 -0.0345  0.2539  0.3962
19592PP      PP29696   4.690  11.224   0.152  0.0863  0.1439  0.1514
19593PP      PP29697   1.476  11.450   2.352 -0.0356 -0.2233  0.0858
19594PP      PP29698  14.528  10.749   0.904 -0.0764 -0.1370 -0.0252
19595PP      PP29699  13.560  14.608  11.825 -0.2136  0.2624 -0.1085
19596PP      PP29700  10.814   4.838   3.604  0.0038 -0.3229 -0.0721
19597PP      PP29701  11.374  11.564   9.918  0.1831 -0.5353  0.0636
19598PP      PP29702   1.324   9.249   4.206 -0.0697  0.1933 -0.2952
19599PP      PP29703  14.836   8.883   3.209 -0.1509  0.2105  0.2453
19600PP      PP29704   6.004   5.198   8.956 -0.0484 -0.1524  0.1592
19601PP      PP29705   9.874   0.527   9.999  0.1714 -0.1863  0.4285
19602PP      PP29706   5.718   2.276  12.075 -0.2128 -0.3450  0.2056
19603PP      PP29707   0.737  10.456   1.973 -0.4237  0.0040  0.0685
19604PP      PP29708   9.460   9.194   2.232  0.1122 -0.0878  0.0056
19605PP      PP29709   4.078   0.584   1.271  0.1063 -0.3136 -0.2651
19606PP      PP29710   9.747  10.468  10.451  0.1301  0.1477 -0.0104
19607PP      PP29711  12.193  12.441   2.192 -0.0157 -0.0350  0.0008
19608PP      PP29712   2.164  12.890   0.374  0.2799  0.3295  0.0819
19609PP      PP29713  12.714   6.369   4.226 -0.0585 -0.1716 -0.0070
19610PP      PP29714   7.878   0.450  10.377 -0.0552 -0.0678 -0.2949
19611PP      PP29715   0.126   4.393   9.238  0.0691 -0.0668  0.3667
19612PP      PP29716   9.557   6.021  13.098  0.0816  0.2345 -0.0040
19613PP      PP29717  12.650  14.429  11.259 -0.3902 -0.2316 -0.0321
19614PP      PP29718  11.803  10.455   0.581 -0.0294  0.1727 -0.0989
19615PP      PP29719  15.201   6.332   4.514  0.1225  0.1360 -0.2110
19616PP      PP29720   2.835   7.681   3.548  0.2886 -0.1566  0.1678
19617PP      PP29721  11.498   7.884   0.454 -0.1596 -0.2036 -0.1167
19618PP      PP29722   2.880   4.934   2.558 -0.2777 -0.2373 -0.2019
19619PP      PP29723  15.499   2.761   3.127  0.0468  0.0580  0.1607
19620PP      PP29724   2.480   0.444   0.559 -0.0287  0.0461 -0.4312
19621PP      PP29725   0.305   6.399  11.707  0.2044  0.1486 -0.0265
19622PP      PP29726  15.334  15.319   8.552  0.3051 -0.0298  0.2053
19623PP      PP29727  14.921  14.840  12.488  0.0968  0.1812 -0.0858
19624PP      PP29728  15.202   7.586  13.081 -0.1091  0.1768 -0.3924
19625PP      PP29729   5.410  10.323   1.829  0.1978  0.2900 -0.0499
19626PP      PP29730   7.157  15.132   9.487 -0.1549 -0.0408  0.0247
19627PP      PP29731   8.871   1.909  11.106  0.0763 -0.0720 -0.0053
19628PP      PP29732   4.302  15.029   2.538 -0.1556 -0.1072  0.1471
19629PP      PP29733   2.626   7.953   1.870 -0.0359 -0.2464 -0.0927
19630PP      PP29734  13.429  10.612   2.402  0.0267 -0.0303 -0.0041
19631PP      PP29735   3.511   6.222   8.973 -0.4193  0.2257 -0.1281
19632PP      PP29736   6.776  15.850   8.947  0.0148 -0.1287  0.1660
19633PP      PP29737   5.066   0.294   9.460 -0.1259 -0.4607 -0.0661
19634PP      PP29738   9.348   8.159   1.538  0.3834  0.0670  0.2115
19635PP      PP29739   6.189  13.934  10.741 -0.0968 -0.0972  0.0221
19636PP      PP29740  10.115  14.097  11.651 -0.0673  0.1855 -0.1050
19637PP      PP29741  12.608  12.707   2.210  0.0052  0.0439 -0.0376
19638PP      PP29742  12.958  13.779   5.144 -0.0355 -0.2842  0.0483
19639PP      PP29743   9.774  15.403   3.283 -0.1634  0.2319 -0.1782
19640PP      PP29744   1.026  10.426  12.108  0.1299  0.2102 -0.0755
19641PP      PP29745  12.937  11.135   2.342  0.2430 -0.2265 -0.1958
19642PP      PP29746   4.008  12.738  11.740  0.1493 -0.0155 -0.1972
19643PP      PP29747  15.592  12.697   8.498  0.0213 -0.1038 -0.0850
19644PP      PP29748  10.475   1.065   4.265  0.0298 -0.0364 -0.1821
19645PP      PP29749   7.941   8.913  10.524  0.1729 -0.0990 -0.2698
19646PP      PP29750   0.182  10.683   2.569  0.0577  0.1530  0.1255
19647PP      PP29751   6.008  14.306   1.220  0.1015 -0.0152  0.2638
19648PP      PP29752  15.340  12.300   3.379 -0.3558 -0.0039 -0.0136
19649PP      PP29753  10.262  13.376   4.509 -0.1793  0.1260 -0.0476
19650PP      PP29754  10.692  10.267   4.636  0.0386  0.3720 -0.1315
19651PP      PP29755   0.911  14.852   0.185 -0.2557 -0.1319 -0.1895
19652PP      PP29756   8.060   1.386  13.383  0.1709  0.1732  0.0032
19653PP      PP29757   1.057   9.084   1.445 -0.0326 -0.2952  0.4914
19654PP      PP29758  13.512   6.738   0.449  0.2220 -0.5394  0.1618
19655PP      PP29759  15.503  15.768   2.913 -0.4568  0.2268  0.0673
19656PP      PP29760   7.826   8.155   1.951 -0.1847 -0.1605 -0.1116
19657PP      PP29761   4.292   6.047   3.143 -0.2799  0.0121  0.2458
19658PP      PP29762   1.527   9.093   2.052  0.0477 -0.0888  0.0449
19659PP      PP29763   7.415   7.149   2.866 -0.1122  0.0002 -0.0630
19660PP      PP29764  14.644  14.204  12.591  0.1495  0.0363 -0.3774
19661PP      PP29765  10.048   8.560   9.251 -0.2834 -0.1985  0.0945
19662PP      PP29766  11.049  15.256   2.520  0.0724 -0.2030  0.3005
19663PP      PP29767  11.915   7.039  12.536 -0.2189  0.1906 -0.0572
19664PP      PP29768  15.055  11.290   2.809 -0.2673 -0.1396 -0.1551
19665PP      PP29769  12.147   2.751   0.285  0.2586 -0.2112 -0.3302
19666PP      PP29770   4.689   8.519   2.537 -0.2208 -0.0218 -0.2848
19667PP      PP29771   4.830   8.536  10.837 -0.0126 -0.0117 -0.3890
19668PP      PP29772  11.347  14.806   1.767  0.0040  0.1026 -0.0703
19669PP      PP29773   0.510  13.034   2.036  0.0788 -0.0201 -0.1875
19670PP      PP29774  13.723   4.616   0.232 -0.2835 -0.0363 -0.0805
19671PP      PP29775   3.827   8.464   3.782  0.0874 -0.0503  0.1657
19672PP      PP29776   7.940  13.849   2.428  0.1589 -0.0208  0.0293
19673PP      PP29777   3.240   4.540  10.844 -0.2191 -0.2939 -0.2114
19674PP      PP29778   4.038   0.132   0.485 -0.0082  0.1029 -0.1047
19675PP      PP29779   9.876   1.687  11.593  0.0098  0.1686 -0.2405
19676PP      PP29780   7.820   5.661   1.641 -0.3098  0.0074  0.1717
19677PP      PP29781   4.094  13.877   8.891 -0.1171  0.0387 -0.2325
19678PP      PP29782  12.510  14.379   0.415 -0.1235  0.2307 -0.1798
19679PP      PP29783   3.706   8.265  11.473 -0.0710  0.3635  0.2620
19680PP      PP29784   4.039  11.286   9.892 -0.1187  0.4271 -0.2776
19681PP      PP29785  10.761  10.065  11.508  0.0019 -0.0273  0.3676
19682PP      PP29786   8.268  11.321   4.434  0.1384  0.1502  0.0904
19683PP      PP29787   5.321   6.174  12.385  0.3076  0.3199 -0.1317
19684PP      PP29788   2.186   6.642   1.664  0.0658  0.2013 -0.2582
19685PP      PP29789   5.274  14.801  11.152 -0.0102  0.0388 -0.1196
19686PP      PP29790  15.706   7.814   4.922 -0.0595  0.0916  0.1374
19687PP      PP29791   1.586   9.293   8.736  0.0026  0.3273  0.0678
19688PP      PP29792   1.057   5.839  12.230 -0.0129 -0.0898  0.2392
19689PP      PP29793   9.785  13.612   4.450 -0.1704 -0.2037  0.1603
19690PP      PP29794   6.107  15.217  11.224  0.0616 -0.2759  0.0209
19691PP      PP29795   4.299   0.089   9.711 -0.1677 -0.0228 -0.1276
19692PP      PP29796  15.178   6.844   4.645  0.1378  0.1597  0.0177
19693PP      PP29797   5.091   7.731   4.637 -0.2404  0.3714  0.3552
19694PP      PP29798   4.043  11.074  11.169 -0.0978 -0.1451  0.2767
19695PP      PP29799   9.056  15.936  13.196 -0.2014  0.1845 -0.0468
19696PP      PP29800  12.016   9.884   3.686  0.1792  0.1187  0.4150
19697PP      PP29801   3.592  12.140  10.862 -0.0517 -0.1144 -0.1238
19698PP      PP29802  11.277   5.833   1.634  0.1075  0.0616 -0.4748
19699PP      PP29803   0.949  12.230   1.022 -0.0039  0.1232  0.1066
19700PP      PP29804   2.068   0.649  13.268  0.0142  0.3895 -0.3376
19701PP      PP29805   7.250   9.091  11.969 -0.0110 -0.0259 -0.1495
19702PP      PP29806   3.908   0.435   9.736 -0.2546  0.1067 -0.3656
19703PP      PP29807   5.127   0.220  12.864  0.1476  0.0145 -0.2379
19704PP      PP29808  15.915   0.887  11.175 -0.4601  0.0279 -0.0756
19705PP      PP29809  14.280   8.237   9.579  0.1065 -0.2980  0.1052
19706PP      PP29810  10.340   4.743   0.704  0.2616  0.2652 -0.0070
19707PP      PP29811  14.930  15.913   3.261  0.1761 -0.3638  0.5688
19708PP      PP29812   4.275   4.378   0.863 -0.1046 -0.1077 -0.1322
19709PP      PP29813   1.972   5.572   4.081 -0.2404  0.0988 -0.0487
19710PP      PP29814  15.077  11.252   0.799  0.0543 -0.3119  0.0428
19711PP      PP29815   0.154   6.252  10.740 -0.0977  0.0383  0.2912
19712PP      PP29816  15.033   6.656  11.254 -0.1860 -0.0383  0.0884
19713PP      PP29817   1.354   9.930   1.281 -0.2667 -0.1555 -0.0987
19714PP      PP29818   6.896  10.807  11.280 -0.1848 -0.3166 -0.0080
19715PP      PP29819   1.990   8.934   0.571  0.1217 -0.3320 -0.0675
19716PP      PP29820   6.243   7.120  12.407 -0.2701 -0.1299 -0.2535
19717PP      PP29821   3.243  14.009  11.731  0.0334 -0.2883 -0.1436
19718PP      PP29822  12.935  13.009  11.449  0.1024 -0.0322 -0.2359
19719PP      PP29823   2.387  11.086   2.093 -0.0770  0.0175  0.0934
19720PP      PP29824   5.270  12.081  12.454 -0.1981  0.1677 -0.0900
19721PP      PP29825   8.019   2.346  13.139  0.1593  0.2093 -0.2293
19722PP      PP29826   1.620   4.075   4.225  0.1715  0.0409  0.0778
19723PP      PP29827  11.648  15.562   9.699 -0.0045  0.1426 -0.0497
19724PP      PP29828   5.317   8.404  10.699 -0.1343  0.0857 -0.0521
19725PP      PP29829   1.416   6.249   9.130 -0.2064  0.3224 -0.2901
19726PP      PP29830   9.796  11.752  12.483 -0.0559 -0.0899 -0.3222
19727PP      PP29831  12.543   3.327   1.235 -0.1579 -0.2815  0.1287
19728PP      PP29832  10.755  11.427  10.789 -0.0270 -0.0569  0.5898
19729PP      PP29833   8.244   7.192   1.330 -0.2111 -0.3279  0.1594
19730PP      PP29834   2.077   7.507  12.367  0.0407 -0.0210  0.1987
19731PP      PP29835   3.843   0.759   9.195  0.1291 -0.2207 -0.3156
19732PP      PP29836  14.637  15.545   9.425  0.2904  0.3521  0.1560
19733PP      PP29837   3.037   9.485  12.130 -0.3409  0.4376  0.0202
19734PP      PP29838   8.269  13.501   2.762  0.0770 -0.1197  0.2490
19735PP      PP29839  14.578  11.199  10.058 -0.2513  0.1305  0.0649
19736PP      PP29840  15.065   1.957   8.415 -0.0157 -0.1914 -0.1574
19737PP      PP29841  13.381  11.513   3.260  0.0428 -0.1500  0.2333
19738PP      PP29842   0.006  15.020  12.682 -0.0054 -0.1728  0.0072
19739PP      PP29843   0.131  14.717   9.288  0.0041  0.4013  0.1594
19740PP      PP29844  14.784  11.650   8.875 -0.0836 -0.3828 -0.1476
19741PP      PP29845   1.750   7.918   0.301  0.0615  0.0848  0.2622
19742PP      PP29846  11.035   6.096   0.083  0.1698  0.0805  0.0209
19743PP      PP29847   1.586  10.660   1.865  0.0709 -0.0041 -0.1542
19744PP      PP29848   9.169  14.282   0.659  0.0458 -0.0812  0.0299
19745PP      PP29849   9.575   4.105  10.930 -0.1442 -0.1518 -0.0573
19746PP      PP29850  15.042   6.618   2.407  0.3541 -0.3621  0.2145
19747PP      PP29851   8.872  14.024  11.381 -0.0910  0.2520 -0.3550
19748PP      PP29852  12.389   7.674  13.359 -0.0504  0.0757 -0.2907
19749PP      PP29853   4.908   4.921   3.243  0.0960  0.0197 -0.0598
19750PP      PP29854   6.441  12.776  11.100 -0.0970  0.0986  0.0373
19751PP      PP29855   2.746   8.971  12.730  0.2140  0.2967 -0.2107
19752PP      PP29856  10.056   9.925   3.329  0.2789 -0.1980  0.2977
19753PP      PP29857   9.234  15.103  11.774  0.0759  0.0232  0.0998
19754PP      PP29858  12.991   7.144   3.076  0.0361  0.2207 -0.2206
19755PP      PP29859   0.610  13.504   1.377 -0.1531 -0.1006  0.1459
19756PP      PP29860   0.380   8.640  12.918  0.0260 -0.0273  0.1075
19757PP      PP29861   4.194   4.494   0.056  0.1190 -0.0269 -0.1508
19758PP      PP29862   4.093  15.289  12.605  0.1628 -0.0148 -0.1636
19759PP      PP29863  10.902   8.774  11.399  0.0336 -0.1395  0.1804
19760PP      PP29864   5.996  15.105  12.339 -0.1121  0.2199  0.0526
19761PP      PP29865   2.472   2.264   3.042  0.3260  0.2349  0.0694
19762PP      PP29866   8.575  12.977   3.391 -0.2537 -0.1934 -0.2426
19763PP      PP29867  15.926  15.692   0.170 -0.1724 -0.0872  0.1582
19764PP      PP29868  12.290  11.615   0.077 -0.2852 -0.0312 -0.1339
19765PP      PP29869   2.771   4.306  11.745 -0.0513 -0.0887  0.1720
19766PP      PP29870   5.078   3.269   3.381  0.2941  0.0237  0.2547
19767PP      PP29871   8.667  10.850  10.986  0.1720 -0.0988 -0.2307
19768PP      PP29872   9.881   1.806   4.128  0.1017 -0.0456 -0.0470
19769PP      PP29873   3.047   1.231   9.201  0.0665  0.0112 -0.2161
19770PP      PP29874   8.582   2.167  13.083  0.0311 -0.3204  0.1805
19771PP      PP29875  12.164   8.930  11.955 -0.0160 -0.0657  0.1282
19772PP      PP29876  15.929   9.600  11.733  0.0494 -0.0413  0.1141
19773PP      PP29877  14.609  15.672   8.890  0.0367  0.2863 -0.2580
19774PP      PP29878   5.809   9.461   3.660 -0.2762  0.2202  0.2281
19775PP      PP29879   1.165  14.837   9.330 -0.0998  0.1019  0.2634
19776CNL    PA129880   9.721   5.849   4.306 -0.1882 -0.2222 -0.0066
19776CNL    PA229881   9.525   5.779   4.493 -0.2313 -0.2939 -0.2286
19776CNL    PA329882   9.568   6.028   4.355  0.3963  0.3632  0.0269
19776CNL    PA429883   9.464   5.853   4.282  0.1506 -0.0205  0.3543
19777CNL    PA129884  12.872  13.795   8.609  0.1618 -0.1620  0.3398
19777CNL    PA229885  13.051  13.715   8.364  0.1945 -0.0033 -0.1645
19777CNL    PA329886  13.107  13.877   8.555 -0.1963  0.2565 -0.4362
19777CNL    PA429887  13.141  13.655   8.555 -0.2041  0.0448  0.0957
19778CNL    PA129888  12.768  12.690   4.557  0.2078 -0.1776 -0.4296
19778CNL    PA229889  13.024  12.612   4.694 -0.1409  0.0033 -0.0285
19778CNL    PA329890  12.921  12.560   4.466 -0.1292  0.0063  0.1034
19778CNL    PA429891  13.057  12.732   4.482  0.2526  0.3284  0.0872
19779CNL    PA129892  14.181   3.506   8.684 -0.2140  0.1977  0.3007
19779CNL    PA229893  13.904   3.651   8.714  0.1416  0.1781  0.1583
19779CNL    PA329894  14.182   3.716   8.702  0.3330 -0.1350  0.0058
19779CNL    PA429895  14.039   3.718   8.533 -0.5606 -0.1371  0.1887
19780CNL    PA129896  11.926   6.328   8.596  0.0801  0.0359 -0.1630
19780CNL    PA229897  11.707   6.283   8.373 -0.1574 -0.0396 -0.1908
19780CNL    PA329898  11.862   6.111   8.555  0.0934 -0.2974 -0.0482
19780CNL    PA429899  11.667   6.200   8.613  0.5981  0.2170  0.0311
19781CNL    PA129900   0.127  11.235   7.921  0.4170 -0.1636  0.1833
19781CNL    PA229901   0.159  11.008   8.114  0.3012 -0.1705 -0.0667
19781CNL    PA329902  -0.060  11.061   7.948 -0.6304  0.3985 -0.2512
19781CNL    PA429903   0.117  10.944   7.867  0.1026  0.2856  0.0403
19782CNL    PA129904   3.868   9.038   7.547  0.0721 -0.2379 -0.0382
19782CNL    PA229905   3.741   9.105   7.266  0.2749  0.0427  0.1610
19782CNL    PA329906   3.947   8.944   7.326  0.2662  0.3329 -0.0774
19782CNL    PA429907   3.735   8.883   7.328  0.1501 -0.2022 -0.1455
19783CNL    PA129908   7.043   8.416   5.679  0.0718 -0.0139  0.0388
19783CNL    PA229909   7.141   8.197   5.892 -0.1690  0.1515  0.0585
19783CNL    PA329910   6.930   8.378   5.904 -0.3878  0.0754  0.3248
19783CNL    PA429911   6.916   8.180   5.821  0.0677 -0.2455 -0.3005
19784CNL    PA129912  12.146   6.874   8.413 -0.1956 -0.0001  0.1509
19784CNL    PA229913  11.961   6.661   8.299  0.1310 -0.0937  0.0913
19784CNL    PA329914  11.936   6.933   8.315 -0.1275 -0.3223  0.1334
19784CNL    PA429915  12.009   6.853   8.145  0.4514  0.2305  0.0285
19785CNL    PA129916   8.626   5.894   1.958  0.2278  0.0188 -0.0369
19785CNL    PA229917   8.950   5.963   1.979 -0.3499 -0.0109 -0.0559
19785CNL    PA329918   8.786   5.755   2.083  0.2154  0.1643  0.0417
19785CNL    PA429919   8.857   5.763   1.870  0.1214 -0.0325 -0.3166
19786CNL    PA129920   6.500  11.386   2.361  0.2090 -0.0328 -0.0720
19786CNL    PA229921   6.467  11.487   2.648  0.1576 -0.1173 -0.1052
19786CNL    PA329922   6.471  11.613   2.418  0.5372  0.0539 -0.1526
19786CNL    PA429923   6.283  11.569   2.513  0.3224 -0.0895 -0.1715
19787CNL    PA129924   0.641   8.160   4.977 -0.1654  0.0330 -0.0901
19787CNL    PA229925   0.825   8.345   4.810  0.1244 -0.2421  0.0415
19787CNL    PA329926   0.882   8.179   5.000  0.4256  0.0246  0.3935
19787CNL    PA429927   0.889   8.118   4.781  0.0382 -0.0336  0.0968
19788CNL    PA129928  14.606  14.365   3.849  0.0772 -0.0118  0.1172
19788CNL    PA229929  14.659  14.106   3.982  0.1283 -0.2361 -0.2309
19788CNL    PA329930  14.667  14.182   3.725  0.2560 -0.0328 -0.3116
19788CNL    PA429931  14.834  14.189   3.833 -0.2667 -0.2397  0.2077
19789CNL    PA129932   0.394   2.861  13.299  0.0484 -0.2599  0.0605
19789CNL    PA229933   0.489   2.674  13.522  0.1453 -0.2207 -0.3061
19789CNL    PA329934   0.461   2.662  13.234  0.0480  0.4103 -0.2076
19789CNL    PA429935   0.641   2.716  13.328  0.0529  0.1078 -0.0256
19790CNL    PA129936  10.033  13.223   8.588 -0.1015  0.2487 -0.0553
19790CNL    PA229937   9.882  12.981   8.481  0.1225 -0.0447 -0.0935
19790CNL    PA329938   9.846  13.126   8.691 -0.2505 -0.1309 -0.1041
19790CNL    PA429939   9.749  13.197   8.513 -0.3032 -0.2657 -0.0170
19791CNL    PA129940  14.095  14.343  12.880 -0.0817 -0.2005  0.1750
19791CNL    PA229941  14.057  14.078  12.748  0.0336  0.1069  0.3415
19791CNL    PA329942  14.168  14.318  12.674 -0.4861 -0.0339  0.2221
19791CNL    PA429943  14.298  14.174  12.751  0.4560  0.0206 -0.1582
19792CNL    PA129944  14.341   3.888  11.937 -0.3378 -0.2497 -0.2092
19792CNL    PA229945  14.098   3.972  12.091  0.2177 -0.2461 -0.1138
19792CNL    PA329946  14.330   3.872  12.173 -0.3010  0.4502 -0.1449
19792CNL    PA429947  14.295   4.087  12.147 -0.2099 -0.1768 -0.0650
19793CNL    PA129948   5.651   6.046   4.914  0.1903 -0.2136 -0.4527
19793CNL    PA229949   5.909   6.127   5.028 -0.0657  0.0947  0.0913
19793CNL    PA329950   5.676   6.092   5.162 -0.0430  0.0048  0.2469
19793CNL    PA429951   5.801   5.935   5.154  0.0553  0.6129  0.1277
19794CNL    PA129952  14.781   3.583   3.972  0.3331  0.5543  0.2130
19794CNL    PA229953  15.051   3.566   4.054 -0.0670  0.1145  0.2298
19794CNL    PA329954  14.882   3.777   4.067 -0.1724  0.3094 -0.0097
19794CNL    PA429955  14.904   3.645   4.220  0.0627  0.1134  0.2386
19795CNL    PA129956   1.087   2.169   3.933  0.2436  0.0330 -0.1690
19795CNL    PA229957   1.211   1.941   4.107 -0.3233  0.1501 -0.2044
19795CNL    PA329958   0.995   1.967   3.983  0.1694 -0.1181 -0.2539
19795CNL    PA429959   1.163   1.902   3.889 -0.0968 -0.1978  0.1098
19796CNL    PA129960   5.637   7.866   5.524  0.0640  0.2969 -0.2088
19796CNL    PA229961   5.558   7.748   5.796 -0.0275 -0.1259  0.2204
19796CNL    PA329962   5.766   7.726   5.648 -0.1017  0.1492  0.3563
19796CNL    PA429963   5.755   7.883   5.807 -0.1302  0.1204 -0.0924
19797CNL    PA129964   3.879   1.931   8.422 -0.0440  0.0254 -0.2925
19797CNL    PA229965   3.814   2.092   8.193  0.1873  0.1320  0.1687
19797CNL    PA329966   3.684   2.096   8.424 -0.2187  0.0594  0.6707
19797CNL    PA429967   3.868   2.212   8.408 -0.1063 -0.1795  0.4820
19798CNL    PA129968   4.021  13.639   7.114 -0.1148  0.3364 -0.0108
19798CNL    PA229969   3.783  13.590   7.272 -0.2201 -0.4445  0.1818
19798CNL    PA329970   3.851  13.515   7.007 -0.0261  0.5470 -0.2822
19798CNL    PA429971   3.889  13.371   7.171 -0.2224 -0.3833  0.2433
19799CNL    PA129972   0.532  15.560   7.437  0.2020 -0.0148  0.0584
19799CNL    PA229973   0.744  15.709   7.599  0.1534 -0.1945  0.1261
19799CNL    PA329974   0.553  15.798   7.426 -0.2460 -0.0542  0.0705
19799CNL    PA429975   0.538  15.768   7.649 -0.0680 -0.3116 -0.3743
19800CNL    PA129976   2.917   3.943   4.272 -0.0584  0.1482  0.1189
19800CNL    PA229977   2.662   3.984   4.418 -0.2365 -0.0168 -0.2375
19800CNL    PA329978   2.757   3.774   4.264 -0.2646  0.2999  0.2487
19800CNL    PA429979   2.818   3.793   4.483  0.0222  0.0699 -0.2048
19801CNL    PA129980   0.325  11.175   3.226 -0.0172 -0.0533 -0.1639
19801CNL    PA229981   0.489  11.202   2.958  0.0211  0.1411  0.0267
19801CNL    PA329982   0.375  11.375   3.124  0.1311  0.1958  0.1979
19801CNL    PA429983   0.585  11.300   3.145  0.4209 -0.0293  0.0366
19802CNL    PA129984   0.005   4.680   4.010 -0.2716  0.0416 -0.2344
19802CNL    PA229985   0.217   4.529   4.144  0.0589  0.0080 -0.0369
19802CNL    PA329986   0.034   4.462   3.943  0.0651 -0.6162 -0.0611
19802CNL    PA429987   0.221   4.550   3.914 -0.3668  0.3186  0.1245
19803CNL    PA129988  14.425   0.446   7.401  0.0219  0.2995 -0.2639
19803CNL    PA229989  14.508   0.634   7.178  0.2454  0.2333  0.2422
19803CNL    PA329990  14.421   0.687   7.437 -0.0417 -0.1844  0.3059
19803CNL    PA429991  14.640   0.622   7.387 -0.1959  0.1152  0.0835
19804CNL    PA129992   7.842  10.564   4.482 -0.1950 -0.3457 -0.2584
19804CNL    PA229993   8.091  10.376   4.555 -0.0341 -0.0257  0.1547
19804CNL    PA329994   7.818  10.338   4.590 -0.3459  0.2511  0.1132
19804CNL    PA429995   7.903  10.295   4.416 -0.2404  0.0036  0.0565
19805CNL    PA129996  15.023   7.573  12.312 -0.1975  0.0798 -0.1055
19805CNL    PA229997  15.158   7.663  12.552  0.2070 -0.0875 -0.0744
19805CNL    PA329998  15.140   7.799  12.325  0.1211  0.4292 -0.2089
19805CNL    PA429999  14.967   7.817  12.473  0.3247  0.2680 -0.4391
19806CNL    PA130000  12.791   4.871   6.622 -0.1027  0.3421  0.1645
19806CNL    PA230001  12.962   4.816   6.874  0.0570  0.1968  0.0430
19806CNL    PA330002  12.980   4.704   6.619  0.2203  0.2275  0.1688
19806CNL    PA430003  13.066   4.896   6.681 -0.1417 -0.6767  0.0484
19807CNL    PA130004   8.744   9.768   3.694 -0.0100 -0.0108 -0.0121
19807CNL    PA230005   8.526   9.766   3.457 -0.0707  0.2670  0.0710
19807CNL    PA330006   8.745   9.603   3.537 -0.1171 -0.1907  0.0053
19807CNL    PA430007   8.537   9.571   3.618 -0.1616 -0.1012 -0.1903
19808CNL    PA130008   1.842   2.244   4.537  0.1006 -0.1115 -0.0681
19808CNL    PA230009   1.811   2.271   4.220 -0.2970  0.4562  0.2396
19808CNL    PA330010   1.675   2.392   4.429 -0.1497 -0.1476  0.1670
19808CNL    PA430011   1.879   2.462   4.356 -0.2565 -0.2531 -0.3096
19809CNL    PA130012   6.550  13.767   4.865 -0.3055  0.0079  0.2474
19809CNL    PA230013   6.502  13.863   5.170 -0.4445  0.0668 -0.3104
19809CNL    PA330014   6.597  13.633   5.084 -0.0089 -0.2804  0.1165
19809CNL    PA430015   6.745  13.787   5.114 -0.0852  0.2029  0.1281
19810CNL    PA130016   1.238   7.043   9.404 -0.0057  0.0330  0.3658
19810CNL    PA230017   1.426   7.159   9.638 -0.0277 -0.0474 -0.4276
19810CNL    PA330018   1.167   7.101   9.608  0.0081  0.4708 -0.0874
19810CNL    PA430019   1.326   6.965   9.689 -0.0358  0.3370 -0.3829
19811CNL    PA130020  12.314   5.080   4.676 -0.2731  0.0527 -0.1003
19811CNL    PA230021  12.257   5.105   4.964 -0.0561 -0.1774  0.0085
19811CNL    PA330022  12.134   5.175   4.749  0.3367 -0.1731 -0.2816
19811CNL    PA430023  12.080   4.999   4.847 -0.1358  0.4568 -0.2420
19812CNL    PA130024  15.817  14.189   7.812 -0.0280 -0.5166  0.0181
19812CNL    PA230025  15.705  14.187   7.538 -0.0234  0.1773  0.1981
19812CNL    PA330026  15.947  14.103   7.659  0.0087  0.0310  0.1627
19812CNL    PA430027  15.778  13.971   7.657 -0.1128  0.0869  0.7105
19813CNL    PA130028   4.742   7.962   5.558  0.2490 -0.0818 -0.2541
19813CNL    PA230029   4.608   7.967   5.836  0.1865  0.1802 -0.3384
19813CNL    PA330030   4.857   7.966   5.735 -0.4735 -0.7558  0.9137
19813CNL    PA430031   4.740   8.135   5.815 -0.3255  0.1917  0.3348
19814CNL    PA130032  10.285   4.575  10.235 -0.1620 -0.1191 -0.0150
19814CNL    PA230033  10.350   4.558  10.532  0.0791 -0.3991 -0.0683
19814CNL    PA330034  10.475   4.503  10.319 -0.3311 -0.3759 -0.3391
19814CNL    PA430035  10.493   4.693  10.406  0.0246  0.2392 -0.0102
19815CNL    PA130036   0.531  14.327   7.329 -0.0597 -0.0168 -0.4400
19815CNL    PA230037   0.240  14.388   7.314  0.2864  0.1432 -0.0862
19815CNL    PA330038   0.441  14.550   7.325 -0.1947 -0.0161 -0.1441
19815CNL    PA430039   0.390  14.487   7.143  0.0626  0.0199  0.3222
19816CNL    PA130040  11.348   8.020   8.785  0.2714  0.1558  0.1985
19816CNL    PA230041  11.168   8.108   8.536 -0.2529 -0.0410  0.3328
19816CNL    PA330042  11.331   8.244   8.742  0.1829 -0.0468 -0.3632
19816CNL    PA430043  11.405   8.183   8.559 -0.0502 -0.0040  0.2056
19817CNL    PA130044  13.213   8.188   2.087  0.0114 -0.1671 -0.1399
19817CNL    PA230045  13.022   8.218   2.343 -0.0099 -0.0865 -0.2911
19817CNL    PA330046  13.259   8.368   2.245 -0.0174  0.0540 -0.0257
19817CNL    PA430047  13.048   8.417   2.193 -0.3775 -0.1904 -0.0707
19818CNL    PA130048   4.560  13.841   7.610 -0.1153  0.0479 -0.0254
19818CNL    PA230049   4.758  14.087   7.596 -0.1520  0.2920 -0.5984
19818CNL    PA330050   4.742  13.850   7.438 -0.4591 -0.0340 -0.1589
19818CNL    PA430051   4.647  14.043   7.401 -0.0625 -0.0037  0.3840
19819CNL    PA130052   2.960   8.999   9.462 -0.0661  0.0109 -0.0942
19819CNL    PA230053   2.921   8.755   9.661 -0.2573 -0.2917  0.2323
19819CNL    PA330054   3.035   8.796   9.408  0.0843 -0.1134 -0.1369
19819CNL    PA430055   3.132   8.799   9.599 -0.1985 -0.1285 -0.3119
19820CNL    PA130056   8.775  15.311   8.771  0.1764  0.1115  0.3570
19820CNL    PA230057   8.781  15.295   8.442  0.3005  0.0497  0.3336
19820CNL    PA330058   8.570  15.220   8.635 -0.2334  0.2273 -0.1325
19820CNL    PA430059   8.620  15.397   8.568  0.1357 -0.3327  0.3802
19821CNL    PA130060  15.579  14.412   3.836  0.0466 -0.1132 -0.0790
19821CNL    PA230061  15.894  14.320   3.893 -0.0866  0.1688 -0.2594
19821CNL    PA330062  15.662  14.249   4.018  0.1671  0.2884  0.8148
19821CNL    PA430063  15.689  14.153   3.835  0.2085 -0.0190  0.3039
19822CNL    PA130064   0.443   6.298   8.848 -0.0225  0.0764 -0.0968
19822CNL    PA230065   0.375   6.344   8.551  0.0177 -0.2969  0.3411
19822CNL    PA330066   0.247   6.226   8.768 -0.0664 -0.4003 -0.1909
19822CNL    PA430067   0.232   6.432   8.724  0.1415  0.0017  0.0285
19823CNL    PA130068   5.805   0.139   0.062  0.0562 -0.0546  0.3179
19823CNL    PA230069   5.854  -0.166   0.032 -0.3317  0.3009  0.0125
19823CNL    PA330070   5.658   0.017  -0.063 -0.4174 -0.2669  0.3690
19823CNL    PA430071   5.866  -0.055  -0.171  0.1050 -0.0950  0.0225
19824CNL    PA130072  15.026   0.846   7.007  0.1699 -0.0179  0.0269
19824CNL    PA230073  14.882   0.587   7.016  0.0484  0.1620 -0.1058
19824CNL    PA330074  14.828   0.817   7.128 -0.0971 -0.0144 -0.0666
19824CNL    PA430075  14.733   0.772   6.930 -0.2937 -0.0646 -0.3232
19825CNL    PA130076  12.140   4.891   8.066  0.2127  0.0352  0.2062
19825CNL    PA230077  12.112   4.598   8.093 -0.3414 -0.1053 -0.2280
19825CNL    PA330078  12.049   4.723   7.882  0.2528 -0.0796 -0.2579
19825CNL    PA430079  12.273   4.655   7.909  0.5442 -0.1307  0.0473
19826CNL    PA130080   2.107  14.715   8.410  0.1309  0.1141 -0.0747
19826CNL    PA230081   1.957  14.603   8.667 -0.1873 -0.2680 -0.0702
19826CNL    PA330082   1.900  14.601   8.398 -0.5575 -0.3374  0.2038
19826CNL    PA430083   2.021  14.450   8.484 -0.4619 -0.2709 -0.2336
19827CNL    PA130084   0.071   4.816   8.475 -0.4261 -0.1572 -0.3714
19827CNL    PA230085   0.207   4.599   8.318  0.3241 -0.2935  0.1676
19827CNL    PA330086  -0.017   4.604   8.467  0.0772 -0.1552  0.0034
19827CNL    PA430087  -0.008   4.638   8.243 -0.1875 -0.3295 -0.0500
19828CNL    PA130088   2.994   8.661   7.658 -0.0890 -0.0016 -0.0167
19828CNL    PA230089   3.220   8.502   7.748 -0.0869  0.1285  0.2145
19828CNL    PA330090   2.989   8.449   7.599 -0.1864 -0.1995 -0.4966
19828CNL    PA430091   3.165   8.515   7.525  0.3225  0.0638  0.3719
19829CNL    PA130092  15.485   5.900   4.707  0.0045  0.1856 -0.3153
19829CNL    PA230093  15.557   5.681   4.524 -0.4330 -0.0258 -0.1130
19829CNL    PA330094  15.695   5.747   4.754 -0.0562 -0.0748  0.4626
19829CNL    PA430095  15.522   5.623   4.764 -0.5396  0.2981 -0.2574
19830CNL    PA130096  14.968  11.372   4.421  0.0702 -0.2602  0.0389
19830CNL    PA230097  14.969  11.337   4.718  0.0509  0.2309 -0.1434
19830CNL    PA330098  14.802  11.435   4.535  0.2261  0.0540 -0.2286
19830CNL    PA430099  14.802  11.211   4.607  0.1292 -0.0362  0.3850
19831CNL    PA130100  14.628   0.563   4.582 -0.0567 -0.2919  0.0950
19831CNL    PA230101  14.346   0.700   4.442  0.0107  0.3195  0.3681
19831CNL    PA330102  14.567   0.567   4.344  0.4428 -0.1359 -0.0337
19831CNL    PA430103  14.419   0.463   4.419  0.0416  0.3708  0.1557
19832CNL    PA130104   9.329  10.452   4.923 -0.0656  0.1329  0.0790
19832CNL    PA230105   9.364  10.184   4.781  0.0637  0.3744  0.3961
19832CNL    PA330106   9.487  10.289   4.997 -0.1457  0.5936  0.1599
19832CNL    PA430107   9.288  10.172   4.997  0.0670 -0.0837 -0.6313
19833CNL    PA130108   7.762   0.230   1.375  0.2810  0.1969  0.4058
19833CNL    PA230109   8.016   0.227   1.539  0.0925  0.1666 -0.3247
19833CNL    PA330110   7.943   0.348   1.313  0.2878  0.0715  0.1403
19833CNL    PA430111   7.930   0.441   1.491  0.0265 -0.1984  0.0406
19834CNL    PA130112  13.108   7.292   4.574 -0.1569  0.1345  0.2905
19834CNL    PA230113  12.989   7.364   4.860  0.1525  0.2611  0.0874
19834CNL    PA330114  13.167   7.203   4.773 -0.4160  0.1002 -0.1971
19834CNL    PA430115  13.215   7.377   4.867 -0.0675  0.0471  0.3083
19835CNL    PA130116   0.079  10.275   6.271 -0.1529 -0.1805  0.1374
19835CNL    PA230117   0.183  10.485   6.049  0.3461  0.1623 -0.1273
19835CNL    PA330118   0.266  10.392   6.280  0.4464 -0.3350  0.5988
19835CNL    PA430119   0.325  10.269   6.104  0.1794 -0.1455  0.0922
19836CNL    PA130120   0.255   9.796   8.041 -0.2605 -0.0713 -0.1074
19836CNL    PA230121   0.238   9.933   7.759 -0.2782  0.0601 -0.1972
19836CNL    PA330122   0.055   9.825   7.940 -0.1203  0.1762  0.1929
19836CNL    PA430123   0.117  10.049   7.949  0.0405  0.1940  0.1418
19837CNL    PA130124   9.481   4.348   4.735  0.2690 -0.0085 -0.3406
19837CNL    PA230125   9.514   4.658   4.741 -0.1049  0.1423 -0.1103
19837CNL    PA330126   9.399   4.487   4.934  0.1150  0.1938  0.3677
19837CNL    PA430127   9.608   4.547   4.932 -0.0224 -0.4662  0.4458
19838CNL    PA130128  11.806   5.687   8.664  0.1146 -0.2802 -0.0181
19838CNL    PA230129  11.889   5.750   8.363  0.4994  0.3340 -0.1336
19838CNL    PA330130  11.636   5.639   8.471 -0.2218  0.2446  0.1736
19838CNL    PA430131  11.682   5.847   8.425  0.3896 -0.2645  0.3423
19839CNL    PA130132  11.692   3.032   4.889  0.1958  0.1496  0.0555
19839CNL    PA230133  11.482   2.982   5.084 -0.0844 -0.1758 -0.0754
19839CNL    PA330134  11.489   3.055   4.828  0.4309 -0.2034 -0.1021
19839CNL    PA430135  11.457   2.858   4.869 -0.4885 -0.0432 -0.4490
19840CNL    PA130136  12.537   7.070   7.588 -0.0892 -0.1100 -0.2327
19840CNL    PA230137  12.304   7.213   7.469  0.0221  0.1887  0.2885
19840CNL    PA330138  12.503   7.313   7.629  0.4113  0.0569  0.3432
19840CNL    PA430139  12.528   7.328   7.422  0.0122  0.2474 -0.2817
19841CNL    PA130140  14.978  14.509   4.134  0.1918  0.0253 -0.3141
19841CNL    PA230141  15.244  14.338   4.212  0.3777 -0.3132 -0.1788
19841CNL    PA330142  14.966  14.286   4.191 -0.0033  0.4256 -0.2089
19841CNL    PA430143  15.109  14.263   4.019 -0.1629  0.1421  0.1865
19842CNL    PA130144   1.299   3.709   4.410 -0.2625  0.1206  0.0781
19842CNL    PA230145   1.197   3.568   4.168 -0.0905 -0.2696  0.0742
19842CNL    PA330146   1.085   3.783   4.348  0.0816  0.3356  0.0736
19842CNL    PA430147   1.224   3.820   4.171 -0.0140  0.1711 -0.2608
19843CNL    PA130148   2.059   2.508   7.395 -0.4293  0.1353  0.2683
19843CNL    PA230149   1.864   2.729   7.255 -0.0107  0.3268 -0.1126
19843CNL    PA330150   2.029   2.745   7.457  0.1488 -0.0746  0.2742
19843CNL    PA430151   2.078   2.793   7.250  0.1059  0.0901  0.1885
19844CNL    PA130152  13.640   9.434   9.015 -0.2614  0.1666 -0.0684
19844CNL    PA230153  13.502   9.288   8.773  0.0931  0.0766  0.0540
19844CNL    PA330154  13.703   9.455   8.811 -0.0776 -0.0861 -0.0960
19844CNL    PA430155  13.726   9.242   8.804 -0.1750  0.1138  0.0239
19845CNL    PA130156  14.701   8.369   9.937 -0.1536 -0.1640 -0.1272
19845CNL    PA230157  14.495   8.209  10.031 -0.1769 -0.2068  0.4420
19845CNL    PA330158  14.635   8.394  10.162 -0.3940 -0.1031 -0.0546
19845CNL    PA430159  14.437   8.438  10.035 -0.1104  0.1683 -0.0146
19846CNL    PA130160  11.629  13.006   4.806 -0.2292 -0.0472 -0.1688
19846CNL    PA230161  11.510  12.991   5.079  0.1553  0.0809 -0.0769
19846CNL    PA330162  11.456  12.832   4.897  0.0913  0.2049  0.0781
19846CNL    PA430163  11.629  12.803   5.018 -0.1808 -0.1497  0.0910
19847CNL    PA130164  10.809  12.696   7.930 -0.3729 -0.2867  0.1484
19847CNL    PA230165  10.715  12.612   7.658  0.1264 -0.0424 -0.2997
19847CNL    PA330166  10.591  12.661   7.880  0.1836 -0.2235 -0.1869
19847CNL    PA430167  10.632  12.825   7.754 -0.1669 -0.0106 -0.1032
19848CNL    PA130168   2.915  15.340   3.813  0.1684 -0.2589 -0.1267
19848CNL    PA230169   3.066  15.153   3.992  0.2085  0.1285 -0.0860
19848CNL    PA330170   3.132  15.277   3.740  0.2228  0.2553 -0.3314
19848CNL    PA430171   3.191  15.355   3.928  0.2506  0.3409 -0.0231
19849CNL    PA130172  12.697   4.858   4.155  0.1829  0.2481 -0.3954
19849CNL    PA230173  12.456   4.805   4.355 -0.0676 -0.2398 -0.1819
19849CNL    PA330174  12.499   4.998   4.215 -0.1739  0.1008 -0.0689
19849CNL    PA430175  12.429   4.841   4.133  0.0122 -0.4681 -0.0630
19850CNL    PA130176   9.866   2.924   4.353 -0.3867 -0.1301 -0.1112
19850CNL    PA230177   9.629   2.720   4.382  0.3451 -0.0802  0.2120
19850CNL    PA330178   9.775   2.840   4.162  0.5300 -0.0673 -0.3091
19850CNL    PA430179   9.829   2.644   4.251 -0.0326  0.4260  0.5991
19851CNL    PA130180  10.232   1.445   2.008 -0.1033 -0.0756  0.1490
19851CNL    PA230181  10.209   1.540   1.728 -0.2655 -0.0004 -0.3327
19851CNL    PA330182  10.139   1.660   1.933 -0.2891 -0.1472  0.0904
19851CNL    PA430183  10.338   1.717   1.885 -0.0514 -0.1625 -0.1595
19852CNL    PA130184   2.206   4.985  12.689 -0.1404  0.1726  0.0737
19852CNL    PA230185   1.963   5.116  12.536 -0.2913  0.0327 -0.1255
19852CNL    PA330186   1.967   5.014  12.788  0.0583  0.3112 -0.0910
19852CNL    PA430187   2.051   5.197  12.749 -0.3277 -0.0920  0.1456
19853CNL    PA130188   9.947   7.559   8.394  0.1630  0.4223  0.2600
19853CNL    PA230189   9.747   7.764   8.513  0.1162 -0.3624  0.0089
19853CNL    PA330190   9.869   7.738   8.264  0.1762  0.6111 -0.0354
19853CNL    PA430191   9.668   7.642   8.319  0.1489 -0.0581  0.1488
19854CNL    PA130192  13.655  13.083   9.135  0.0443 -0.1286  0.0178
19854CNL    PA230193  13.558  13.198   8.853  0.2910  0.2090  0.0940
19854CNL    PA330194  13.663  12.970   8.936 -0.1193 -0.1193 -0.5022
19854CNL    PA430195  13.453  12.974   8.881  0.3128 -0.1244  0.0743
19855CNL    PA130196   3.205  11.407   4.084  0.1210 -0.0186  0.2158
19855CNL    PA230197   3.414  11.620   4.203  0.6930 -0.1367  0.1960
19855CNL    PA330198   3.226  11.645   3.998  0.1893  0.2200 -0.0874
19855CNL    PA430199   3.156  11.670   4.217  0.0139  0.0118  0.2231
19856OST    PA130200   0.333   6.342   0.404  0.0874 -0.3702 -0.2263
19856OST    PA230201  -0.014   6.346   0.337 -0.4779 -0.3009 -0.3523
19856OST    PA330202  -0.014   6.608   0.305  0.2762 -0.1330 -0.1534
19856OST    PA430203  -0.186   6.307   0.225 -0.0826 -0.1335 -0.3022
19856OST    PA530204  -0.206   6.007   0.273 -0.1487  0.4891  0.1189
19856OST    PA630205  -0.010   6.001   0.389 -0.4087  0.2316 -0.1496
19857OST    PA130206  15.358   3.597   1.573 -0.6309  0.1104  0.0538
19857OST    PA230207  15.015   3.480   1.536 -0.2995 -0.4239 -0.2905
19857OST    PA330208  15.061   3.220   1.560 -0.3213  0.2317  0.0093
19857OST    PA430209  14.836   3.477   1.664 -0.1737 -0.2806 -0.4332
19857OST    PA530210  14.781   3.795   1.658  0.2919 -0.2273  0.1591
19857OST    PA630211  14.965   3.823   1.539  0.0207 -0.0224  0.3089
19858OST    PA130212   6.172  14.079   4.061 -0.1996  0.1216  0.0403
19858OST    PA230213   6.380  13.886   3.833  0.3846  0.2244 -0.2962
19858OST    PA330214   6.280  13.603   3.900 -0.0272 -0.3826  0.2607
19858OST    PA430215   6.569  13.816   3.799  0.0384  0.1745 -0.3557
19858OST    PA530216   6.745  14.113   3.754  0.3570  0.2707  0.0467
19858OST    PA630217   6.517  14.212   3.834 -0.0658  0.0603  0.0880
19859OST    PA130218  11.577   3.475  11.121 -0.1312  0.1244 -0.0292
19859OST    PA230219  11.691   3.482  11.465  0.0108 -0.1308  0.2635
19859OST    PA330220  11.604   3.205  11.414 -0.1170 -0.2848 -0.3910
19859OST    PA430221  11.715   3.469  11.638 -0.0445 -0.3393  0.0526
19859OST    PA530222  11.858   3.797  11.637 -0.2342  0.1117  0.0862
19859OST    PA630223  11.866   3.807  11.370  0.3764  0.2129 -0.0138
19860OST    PA130224   2.710  12.570   4.306 -0.2507 -0.0040  0.0723
19860OST    PA230225   2.399  12.717   4.370 -0.0147  0.3233  0.1968
19860OST    PA330226   2.460  12.985   4.260  0.0161  0.1025 -0.1711
19860OST    PA430227   2.273  12.775   4.509 -0.1475  0.0466  0.3826
19860OST    PA530228   2.098  12.516   4.573 -0.1080 -0.0028 -0.3675
19860OST    PA630229   2.209  12.403   4.396  0.2466  0.0673  0.0607
19861OST    PA130230   2.068   2.807   1.995  0.3155  0.1749 -0.0270
19861OST    PA230231   2.285   2.741   1.708 -0.0859  0.1115  0.1370
19861OST    PA330232   2.139   2.905   1.506  0.0126 -0.0634  0.1805
19861OST    PA430233   2.483   2.809   1.653  0.1311  0.0341 -0.2514
19861OST    PA530234   2.592   2.495   1.735  0.3732 -0.2778 -0.1825
19861OST    PA630235   2.331   2.426   1.803 -0.1219  0.1793 -0.1371
19862OST    PA130236  10.055   2.124   4.565  0.0611  0.1846 -0.1913
19862OST    PA230237  10.390   2.019   4.540 -0.1650  0.0143  0.0012
19862OST    PA330238  10.289   1.914   4.293  0.0542 -0.1924  0.1431
19862OST    PA430239  10.538   1.895   4.563  0.2816  0.3509  0.0356
19862OST    PA530240  10.573   1.929   4.907  0.0642  0.1976  0.3632
19862OST    PA630241  10.401   2.094   4.917 -0.2444 -0.1672  0.1080
19863OST    PA130242  11.917   9.202  12.260  0.0177 -0.3925 -0.4425
19863OST    PA230243  11.628   9.314  12.055 -0.2177 -0.1953 -0.1630
19863OST    PA330244  11.655   9.123  11.824 -0.0627  0.1813 -0.1490
19863OST    PA430245  11.431   9.311  12.059  0.5772 -0.3085  0.0979
19863OST    PA530246  11.389   9.459  12.313 -0.3808 -0.3027 -0.3188
19863OST    PA630247  11.623   9.514  12.337 -0.0938  0.0589  0.1063
19864OST    PA130248  15.276  10.638  13.070 -0.2936  0.1035  0.0342
19864OST    PA230249  15.079  10.611  12.751 -0.2673 -0.3035 -0.1163
19864OST    PA330250  15.064  10.890  12.745  0.3351 -0.0015  0.0600
19864OST    PA430251  15.090  10.582  12.544  0.4605  0.3059  0.2104
19864OST    PA530252  14.973  10.305  12.541  0.5775  0.3304 -0.1431
19864OST    PA630253  15.022  10.280  12.799  0.1268  0.0994  0.0927
19865OST    PA130254   9.773   6.794   4.254  0.2312  0.0900  0.0448
19865OST    PA230255   9.542   7.065   4.192  0.2802  0.2117 -0.0009
19865OST    PA330256   9.380   6.923   3.961 -0.0970 -0.2057 -0.1761
19865OST    PA430257   9.566   7.233   4.107  0.3305 -0.0364 -0.1276
19865OST    PA530258   9.657   7.406   4.339 -0.0425 -0.1474  0.2333
19865OST    PA630259   9.723   7.215   4.462  0.0509  0.0491 -0.3833
19866OST    PA130260   2.004   8.900   9.595 -0.0545  0.2967 -0.0248
19866OST    PA230261   2.178   9.174   9.695 -0.2548 -0.4660 -0.0061
19866OST    PA330262   2.009   9.298   9.493 -0.0427 -0.2045  0.2169
19866OST    PA430263   2.321   9.306   9.666  0.1445 -0.1502 -0.1397
19866OST    PA530264   2.554   9.105   9.714 -0.2123  0.0008 -0.1623
19866OST    PA630265   2.418   8.938   9.790 -0.1588 -0.1469 -0.4057
19867OST    PA130266   6.607   0.218  12.021  0.2181  0.0949 -0.1936
19867OST    PA230267   6.852   0.336  12.236  0.2588  0.4214  0.0062
19867OST    PA330268   6.771   0.097  12.448 -0.0083  0.1983 -0.0059
19867OST    PA430269   7.031   0.348  12.299 -0.3397  0.4066  0.1092
19867OST    PA530270   7.113   0.476  12.020 -0.4825  0.0688 -0.0488
19867OST    PA630271   6.908   0.529  11.958 -0.3147  0.2850 -0.3917
19868OST    PA130272   0.002   1.176   3.603  0.1788 -0.0139 -0.1346
19868OST    PA230273   0.200   1.395   3.776  0.1959 -0.3308  0.0242
19868OST    PA330274  -0.041   1.594   3.822 -0.1986  0.2470 -0.3030
19868OST    PA430275   0.314   1.457   3.931  0.1346  0.2038  0.1293
19868OST    PA530276   0.575   1.297   3.833  0.0768 -0.4192 -0.1686
19868OST    PA630277   0.464   1.227   3.650  0.0222  0.2480  0.3132
19869OST    PA130278   5.359  13.596   3.819 -0.0821 -0.1062  0.2483
19869OST    PA230279   5.059  13.661   3.645 -0.1501 -0.0329 -0.0671
19869OST    PA330280   4.913  13.632   3.892 -0.1978  0.2958  0.2571
19869OST    PA430281   4.896  13.617   3.510  0.2973 -0.1262 -0.0818
19869OST    PA530282   5.030  13.564   3.258 -0.4386  0.2150 -0.3004
19869OST    PA630283   5.247  13.585   3.318  0.4433 -0.3798  0.0630
19870OST    PA130284   5.342  12.215   4.726 -0.3366  0.0233  0.0969
19870OST    PA230285   5.541  12.336   4.440  0.1015 -0.0193  0.0372
19870OST    PA330286   5.553  12.595   4.612 -0.1761  0.4297  0.0704
19870OST    PA430287   5.721  12.339   4.337 -0.1762 -0.3271 -0.2622
19870OST    PA530288   5.698  12.082   4.148 -0.0010 -0.1818 -0.2360
19870OST    PA630289   5.469  12.033   4.237  0.3145 -0.3585 -0.0228
19871OST    PA130290  15.671   4.755   9.016  0.0449  0.1780 -0.1246
19871OST    PA230291  15.688   4.497   8.747  0.2759 -0.3020  0.0743
19871OST    PA330292  15.622   4.734   8.566 -0.0777 -0.2528  0.1304
19871OST    PA430293  15.567   4.377   8.662 -0.0298 -0.1855  0.3048
19871OST    PA530294  15.453   4.212   8.887 -0.0613 -0.1190 -0.5644
19871OST    PA630295  15.630   4.286   9.049 -0.1557  0.0442  0.0787
19872OST    PA130296  15.937  15.783  10.042 -0.0060 -0.1924  0.0925
19872OST    PA230297  16.134  15.508  10.079  0.2815  0.2528 -0.2839
19872OST    PA330298  15.936  15.310  10.052  0.0925 -0.2493 -0.2230
19872OST    PA430299  16.210  15.442  10.251  0.0833  0.1192 -0.2145
19872OST    PA530300  16.436  15.671  10.169 -0.1446 -0.2012  0.1380
19872OST    PA630301  16.393  15.764   9.953 -0.1617 -0.0100 -0.0246
19873OST    PA130302   1.149   9.110   4.881 -0.0652 -0.0496 -0.0796
19873OST    PA230303   1.135   9.321   4.604  0.1684  0.0534  0.0280
19873OST    PA330304   1.363   9.453   4.737  0.2703  0.2047  0.6096
19873OST    PA430305   1.085   9.480   4.489  0.4239  0.2953  0.0645
19873OST    PA530306   0.884   9.301   4.295 -0.0012 -0.3353  0.1218
19873OST    PA630307   0.882   9.122   4.431 -0.1027  0.1301 -0.1356
19874OST    PA130308  13.213  10.552   9.652  0.0032  0.0826 -0.0777
19874OST    PA230309  12.857  10.575   9.636  0.1933  0.1566  0.0604
19874OST    PA330310  12.820  10.264   9.617 -0.0765 -0.4297  0.1680
19874OST    PA430311  12.674  10.600   9.716 -0.1844  0.1936 -0.2596
19874OST    PA530312  12.661  10.930   9.675 -0.0922 -0.1230 -0.4199
19874OST    PA630313  12.885  10.918   9.590 -0.1548 -0.1640 -0.2463
19875OST    PA130314  11.849   4.083   9.478 -0.0508  0.0124 -0.1624
19875OST    PA230315  11.518   4.105   9.664  0.1183  0.3861  0.3303
19875OST    PA330316  11.464   4.274   9.411  0.0606  0.4442 -0.1365
19875OST    PA430317  11.373   4.145   9.731 -0.1032  0.0155  0.1494
19875OST    PA530318  11.393   3.881   9.931 -0.2348 -0.2473  0.0211
19875OST    PA630319  11.585   3.805   9.848 -0.1659  0.3733 -0.5035
19876OST    PA130320   5.883   3.195  11.858 -0.1328  0.3689 -0.0639
19876OST    PA230321   5.847   3.521  11.982 -0.5091  0.2274 -0.1569
19876OST    PA330322   5.917   3.553  11.693 -0.2161 -0.4360  0.0159
19876OST    PA430323   5.961   3.679  12.063  0.1803  0.0541 -0.0256
19876OST    PA530324   5.889   3.532  12.345  0.1732  0.2168 -0.3175
19876OST    PA630325   5.779   3.336  12.261 -0.0942 -0.1956 -0.1083
19877OST    PA130326  15.377  15.847  11.941  0.0517 -0.1692  0.1049
19877OST    PA230327  15.401  15.639  11.659  0.0762  0.0502  0.1265
19877OST    PA330328  15.440  15.889  11.525  0.0289 -0.3124  0.0332
19877OST    PA430329  15.463  15.518  11.529 -0.0808  0.0150 -0.0789
19877OST    PA530330  15.515  15.257  11.711 -0.0638 -0.2923  0.3181
19877OST    PA630331  15.458  15.355  11.895 -0.2681 -0.3261  0.3816
19878OST    PA130332  12.205   7.253   0.887  0.0037 -0.3002 -0.1000
19878OST    PA230333  12.497   7.094   1.035 -0.1341 -0.0694  0.2732
19878OST    PA330334  12.515   7.368   1.125  0.3755  0.0606 -0.1616
19878OST    PA430335  12.708   7.054   0.999 -0.0752 -0.0325 -0.0303
19878OST    PA530336  12.622   6.831   0.787 -0.6983  0.0189 -0.0324
19878OST    PA630337  12.381   6.868   0.831  0.1622  0.5757  0.1630
19879OST    PA130338  14.392   0.809  11.316 -0.0459 -0.1017  0.2564
19879OST    PA230339  14.313   0.465  11.290  0.2824 -0.2248 -0.0302
19879OST    PA330340  14.583   0.430  11.259  0.0158  0.1510  0.3214
19879OST    PA430341  14.260   0.272  11.356  0.0159 -0.1094 -0.0999
19879OST    PA530342  13.998   0.313  11.148  0.1026  0.2565 -0.0850
19879OST    PA630343  14.073   0.533  11.049  0.2497  0.3316 -0.2261
19880OST    PA130344   7.423   5.094   4.622  0.1667 -0.0120  0.0414
19880OST    PA230345   7.349   5.453   4.656  0.0653  0.0939  0.0306
19880OST    PA330346   7.192   5.411   4.919 -0.0726 -0.2625 -0.0672
19880OST    PA430347   7.265   5.651   4.607  0.2468 -0.0187  0.2357
19880OST    PA530348   7.509   5.675   4.398  0.2627  0.3493 -0.2316
19880OST    PA630349   7.605   5.492   4.442 -0.1088  0.1797  0.3570
19881OST    PA130350   7.296   6.412   9.335 -0.1464 -0.0438  0.1866
19881OST    PA230351   7.405   6.517   8.995 -0.1562 -0.4713 -0.1339
19881OST    PA330352   7.138   6.510   8.892  0.6316 -0.1061 -0.2919
19881OST    PA430353   7.513   6.549   8.817 -0.0119 -0.0524 -0.5083
19881OST    PA530354   7.750   6.640   8.953  0.0624  0.0235  0.1116
19881OST    PA630355   7.687   6.645   9.186  0.1154  0.1670 -0.0143
19882OST    PA130356   0.336  10.743   0.209  0.2296 -0.1060  0.2215
19882OST    PA230357   0.560  10.744   0.470  0.2017  0.0781  0.0166
19882OST    PA330358   0.333  10.898   0.577  0.0392  0.0103 -0.4979
19882OST    PA430359   0.709  10.877   0.582 -0.2188  0.0995  0.4347
19882OST    PA530360   0.921  10.643   0.455  0.1047  0.0259 -0.0696
19882OST    PA630361   0.775  10.501   0.332  0.0596 -0.0818 -0.2848
19883OST    PA130362   2.998   5.760  12.797 -0.0970 -0.1282  0.0049
19883OST    PA230363   2.929   5.471  12.573 -0.0412 -0.2090 -0.1549
19883OST    PA330364   2.924   5.316  12.827  0.0763 -0.0905  0.0911
19883OST    PA430365   2.775   5.386  12.485  0.4484  0.2611 -0.3182
19883OST    PA530366   2.761   5.513  12.222 -0.1089 -0.2913 -0.0714
19883OST    PA630367   3.002   5.644  12.294  0.2075 -0.0493 -0.2400
19884OST    PA130368   5.268   7.587  10.193 -0.1027 -0.1317 -0.0135
19884OST    PA230369   5.220   7.845  10.440 -0.1947  0.2761 -0.1528
19884OST    PA330370   4.962   7.903  10.533  0.0497  0.2881  0.2422
19884OST    PA430371   5.279   8.023  10.424 -0.1705  0.1233 -0.0192
19884OST    PA530372   5.589   7.951  10.428 -0.5434  0.0310  0.2647
19884OST    PA630373   5.578   7.737  10.463  0.1241  0.1351  0.0217
19885OST    PA130374  12.970   1.588   9.040 -0.0987 -0.2107  0.0678
19885OST    PA230375  12.975   1.627   8.682 -0.1531  0.1750 -0.3056
19885OST    PA330376  12.886   1.355   8.687 -0.1851  0.2255 -0.3139
19885OST    PA430377  12.883   1.672   8.485 -0.0067  0.1936  0.3829
19885OST    PA530378  13.101   1.889   8.452 -0.0128 -0.2045  0.2048
19885OST    PA630379  13.176   1.910   8.683  0.2921  0.0599  0.0927
19886OST    PA130380   9.078   3.045   2.689  0.0674  0.3038 -0.2281
19886OST    PA230381   8.938   3.217   2.971 -0.0354  0.0758  0.3051
19886OST    PA330382   8.740   3.341   2.806  0.3183  0.1249  0.2766
19886OST    PA430383   8.939   3.347   3.124  0.0350  0.5065  0.0896
19886OST    PA530384   9.104   3.134   3.287  0.1798  0.0416 -0.3504
19886OST    PA630385   9.121   2.954   3.153 -0.1127  0.0244 -0.4835
19887OST    PA130386   2.045   3.983  10.744  0.2422 -0.1063 -0.1277
19887OST    PA230387   1.827   3.716  10.634 -0.0718 -0.1666 -0.3025
19887OST    PA330388   1.541   3.716  10.709 -0.2209  0.1514 -0.1443
19887OST    PA430389   1.864   3.515  10.631  0.1730 -0.0544  0.0966
19887OST    PA530390   2.064   3.477  10.394  0.0648 -0.0386 -0.5900
19887OST    PA630391   2.064   3.724  10.364 -0.0473 -0.0357 -0.1814
19888OST    PA130392  11.489   5.391   1.102  0.2678  0.0810 -0.2154
19888OST    PA230393  11.212   5.470   1.328 -0.1293 -0.0409  0.0208
19888OST    PA330394  11.264   5.744   1.210 -0.5915 -0.4355 -0.1912
19888OST    PA430395  11.039   5.516   1.408 -0.0453 -0.2802 -0.6713
19888OST    PA530396  10.909   5.254   1.398  0.4469 -0.3568 -0.2883
19888OST    PA630397  11.080   5.148   1.255  0.0236 -0.0449  0.0221
19889OST    PA130398  10.097   2.188  13.277  0.0498 -0.1150  0.2876
19889OST    PA230399   9.961   2.368  13.551 -0.1859 -0.3122 -0.0147
19889OST    PA330400  10.254   2.370  13.608  0.2192  0.0712  0.3669
19889OST    PA430401   9.924   2.498  13.666 -0.0321  0.0552 -0.2740
19889OST    PA530402   9.634   2.347  13.680  0.0294  0.1699  0.3085
19889OST    PA630403   9.661   2.229  13.466  0.3932  0.4711 -0.0334
19890OST    PA130404  10.988   3.620   9.270  0.1098  0.1658  0.0959
19890OST    PA230405  10.870   3.557   8.941 -0.2615 -0.4271 -0.2839
19890OST    PA330406  10.770   3.287   9.010 -0.1582 -0.1599  0.1383
19890OST    PA430407  10.768   3.591   8.763 -0.0667  0.1199  0.0967
19890OST    PA530408  11.002   3.747   8.627 -0.0669  0.3090 -0.3626
19890OST    PA630409  11.143   3.768   8.813  0.0418  0.1088  0.0418
19891OST    PA130410  14.077   3.183  11.451 -0.1506  0.0389  0.1672
19891OST    PA230411  14.278   3.457  11.589  0.1634  0.2980 -0.5311
19891OST    PA330412  14.462   3.285  11.719 -0.1346 -0.1236  0.3542
19891OST    PA430413  14.395   3.582  11.528 -0.0427  0.4022  0.2869
19891OST    PA530414  14.172   3.796  11.531 -0.4956 -0.3865  0.2908
19891OST    PA630415  14.009   3.648  11.594 -0.1534  0.0979 -0.2300
19892OST    PA130416  13.490   7.602   4.607  0.1143  0.0257 -0.0502
19892OST    PA230417  13.300   7.848   4.423 -0.2795  0.0454  0.1470
19892OST    PA330418  13.118   7.659   4.339  0.2453  0.2443 -0.1845
19892OST    PA430419  13.205   8.018   4.405  0.2631  0.3014 -0.2008
19892OST    PA530420  13.482   8.177   4.481 -0.0057 -0.4326  0.2200
19892OST    PA630421  13.621   8.018   4.422 -0.1277  0.2812 -0.2390
19893OST    PA130422   4.862  14.295  10.405 -0.0052  0.0456  0.2110
19893OST    PA230423   5.178  14.415  10.276 -0.0848 -0.4025 -0.2139
19893OST    PA330424   5.007  14.509  10.052  0.2890 -0.0315 -0.1141
19893OST    PA430425   5.380  14.413  10.158  0.1570  0.2817 -0.0802
19893OST    PA530426   5.540  14.269  10.378  0.2020  0.1750 -0.0100
19893OST    PA630427   5.337  14.265  10.528 -0.3659  0.2859 -0.0342
19894OST    PA130428  15.240  13.790  10.921 -0.1351  0.0465 -0.1285
19894OST    PA230429  15.494  13.948  11.106  0.1234  0.0127  0.1242
19894OST    PA330430  15.594  14.191  10.931 -0.0225 -0.1520  0.1188
19894OST    PA430431  15.655  13.910  11.185  0.3043 -0.4261 -0.0922
19894OST    PA530432  15.548  13.839  11.438  0.4576  0.1434 -0.0420
19894OST    PA630433  15.298  13.884  11.391  0.2412  0.3941  0.0439
19895OST    PA130434   7.411   7.932   1.795 -0.3137 -0.1763  0.3482
19895OST    PA230435   7.330   8.282   1.733 -0.1847 -0.1790  0.0639
19895OST    PA330436   7.606   8.305   1.634 -0.0903  0.0348 -0.1485
19895OST    PA430437   7.327   8.460   1.835 -0.0480  0.3525  0.0787
19895OST    PA530438   7.022   8.496   1.805  0.4165  0.4929 -0.1261
19895OST    PA630439   6.979   8.242   1.712 -0.1079 -0.0649  0.1224
19896OST    PA130440   1.970  13.801   0.910 -0.1674  0.2112 -0.0394
19896OST    PA230441   1.767  14.010   0.721  0.1915  0.2225  0.1969
19896OST    PA330442   1.773  13.797   0.530  0.0284  0.1896 -0.2269
19896OST    PA430443   1.739  14.150   0.580 -0.0341  0.1874 -0.1246
19896OST    PA530444   1.680  14.333   0.844  0.2182  0.1844  0.6114
19896OST    PA630445   1.711  14.193   1.004 -0.3134 -0.2004 -0.4117
19897OST    PA130446   9.100   3.564   4.077  0.0834  0.3300  0.3150
19897OST    PA230447   9.366   3.350   3.950  0.0018  0.0031  0.0710
19897OST    PA330448   9.407   3.547   3.733 -0.4384 -0.0209  0.0108
19897OST    PA430449   9.572   3.321   3.970  0.1432 -0.0493 -0.0001
19897OST    PA530450   9.513   3.013   4.088 -0.3044 -0.3928 -0.0160
19897OST    PA630451   9.271   3.040   4.036 -0.0406  0.3067  0.4667
19898OST    PA130452   5.302   7.263   3.082  0.1852 -0.1497  0.1872
19898OST    PA230453   5.360   7.264   3.428  0.3621  0.0431 -0.0069
19898OST    PA330454   5.577   7.076   3.390 -0.0113 -0.5548  0.3776
19898OST    PA430455   5.363   7.230   3.645 -0.1948 -0.3596 -0.0941
19898OST    PA530456   5.155   7.486   3.648  0.2807  0.2972  0.0737
19898OST    PA630457   5.121   7.534   3.419 -0.5775  0.1524  0.0436
19899OST    PA130458  14.076  10.471   0.390 -0.1539 -0.0093  0.0614
19899OST    PA230459  14.093  10.186   0.574 -0.2850 -0.1680 -0.2020
19899OST    PA330460  13.868  10.103   0.388  0.0285  0.3589  0.0990
19899OST    PA430461  14.168  10.010   0.584 -0.2379  0.1423 -0.1742
19899OST    PA530462  14.430  10.191   0.711 -0.0049 -0.2156 -0.0190
19899OST    PA630463  14.293  10.349   0.797  0.1438  0.2020  0.0068
19900OST    PA130464  15.251  14.031   3.663  0.0210  0.3297  0.1563
19900OST    PA230465  14.923  13.975   3.468 -0.2272 -0.0271 -0.2137
19900OST    PA330466  15.026  14.175   3.243 -0.2326  0.0325 -0.2944
19900OST    PA430467  14.739  13.976   3.432 -0.1891  0.0751  0.0421
19900OST    PA530468  14.580  13.829   3.676  0.2551  0.3540  0.4218
19900OST    PA630469  14.803  13.788   3.771  0.1069  0.0295 -0.1610
19901OST    PA130470  14.932   0.433   0.510  0.1438  0.1586  0.1535
19901OST    PA230471  14.967   0.690   0.794  0.0107  0.1105 -0.0714
19901OST    PA330472  15.159   0.526   0.933  0.1844 -0.2857  0.1257
19901OST    PA430473  14.865   0.751   0.972  0.0763 -0.3493 -0.0758
19901OST    PA530474  14.661   0.878   0.790  0.0039 -0.2315  0.1829
19901OST    PA630475  14.710   0.787   0.572  0.1196 -0.0366  0.1254
19902OST    PA130476  12.568   7.104   8.138 -0.2207  0.0491  0.0021
19902OST    PA230477  12.735   7.200   8.434 -0.0753  0.1005 -0.4427
19902OST    PA330478  12.831   7.435   8.317 -0.0006 -0.1002  0.2035
19902OST    PA430479  12.926   7.154   8.531  0.3987  0.0421  0.0548
19902OST    PA530480  12.809   6.891   8.641  0.1599  0.1709  0.3802
19902OST    PA630481  12.593   6.883   8.551 -0.0892 -0.2153  0.0535
19903OST    PA130482   2.934   1.677  11.434 -0.1306 -0.1469  0.1063
19903OST    PA230483   2.737   1.953  11.290  0.1268 -0.2926 -0.1039
19903OST    PA330484   2.672   1.984  11.553 -0.3534  0.4637  0.6280
19903OST    PA430485   2.614   2.099  11.227 -0.1902 -0.0939 -0.1563
19903OST    PA530486   2.533   1.981  10.951  0.2919  0.0964 -0.2777
19903OST    PA630487   2.668   1.770  10.992 -0.4429 -0.0503  0.1694
19904OST    PA130488   0.024   5.094  10.348 -0.2915  0.1659  0.0318
19904OST    PA230489   0.221   5.263  10.090 -0.2723  0.1195 -0.2536
19904OST    PA330490   0.130   5.506  10.320  0.5145  0.7353  0.4662
19904OST    PA430491   0.402   5.310  10.085  0.1748  0.0000  0.3793
19904OST    PA530492   0.487   5.050   9.922 -0.0488  0.0157  0.1015
19904OST    PA630493   0.282   4.916   9.985  0.1809 -0.5459 -0.1137
19905OST    PA130494  13.141   0.082   8.862 -0.1603 -0.1606 -0.1151
19905OST    PA230495  13.190   0.396   9.006  0.0136 -0.0061 -0.3862
19905OST    PA330496  12.995   0.573   8.854  0.2964  0.2118  0.1434
19905OST    PA430497  13.313   0.530   9.014 -0.0130  0.0743 -0.3824
19905OST    PA530498  13.488   0.447   9.232  0.0205  0.3986  0.3360
19905OST    PA630499  13.386   0.237   9.284  0.3139 -0.2993 -0.1940
19906OST    PA130500   2.861  14.867   8.610 -0.0101 -0.2600 -0.0849
19906OST    PA230501   2.538  14.754   8.695 -0.0451 -0.2786 -0.0321
19906OST    PA330502   2.563  14.987   8.856 -0.3057 -0.2858 -0.1147
19906OST    PA430503   2.407  14.652   8.802  0.4615  0.3277  0.3214
19906OST    PA530504   2.374  14.392   8.602 -0.2124  0.2707  0.2225
19906OST    PA630505   2.542  14.458   8.458 -0.0721  0.2380 -0.2306
19907OST    PA130506   0.334   4.435  10.180 -0.2516  0.0295  0.1558
19907OST    PA230507   0.549   4.499   9.885  0.1244 -0.2839 -0.0719
19907OST    PA330508   0.778   4.541  10.050 -0.0360  0.1479 -0.1784
19907OST    PA430509   0.646   4.408   9.739  0.4708 -0.0436  0.1766
19907OST    PA530510   0.468   4.516   9.530  0.7079 -0.3280 -0.2467
19907OST    PA630511   0.298   4.624   9.700 -0.0967  0.0981 -0.2159
19908OST    PA130512  13.042  12.897   8.669 -0.0612 -0.0605  0.2431
19908OST    PA230513  12.995  12.695   8.958  0.2162 -0.1316  0.2040
19908OST    PA330514  12.855  12.511   8.767  0.2117 -0.3751  0.7356
19908OST    PA430515  13.047  12.550   9.077  0.3329 -0.1415  0.0459
19908OST    PA530516  13.249  12.692   9.241 -0.0260  0.0369  0.4570
19908OST    PA630517  13.227  12.869   9.124  0.3221  0.1940 -0.1648
19909OST    PA130518   5.960   2.036   0.090  0.0048 -0.0451  0.0914
19909OST    PA230519   6.207   2.084  -0.168  0.1360  0.0792 -0.2804
19909OST    PA330520   5.998   2.297  -0.248  0.0856  0.7477  0.0077
19909OST    PA430521   6.300   2.049  -0.352  0.3296 -0.1221  0.1191
19909OST    PA530522   6.371   1.742  -0.255  0.4480 -0.6795 -0.1286
19909OST    PA630523   6.381   1.804  -0.023  0.0916 -0.1380 -0.0456
19910OST    PA130524   8.617  13.781  12.733  0.1760  0.0462 -0.3699
19910OST    PA230525   8.808  13.627  12.477  0.2703  0.1639 -0.2279
19910OST    PA330526   9.020  13.784  12.616 -0.1769  0.2770  0.1811
19910OST    PA430527   8.928  13.556  12.355 -0.0323  0.0831 -0.1159
19910OST    PA530528   8.795  13.299  12.219 -0.0436 -0.4195  0.3343
19910OST    PA630529   8.610  13.352  12.357  0.1475  0.2024 -0.0342
19911OST    PA130530   1.866   8.247  10.211 -0.0583  0.0331 -0.1800
19911OST    PA230531   1.983   7.997  10.399  0.0827  0.0703  0.0205
19911OST    PA330532   1.981   8.201  10.655  0.0213  0.0510  0.1971
19911OST    PA430533   2.133   7.893  10.453  0.0218 -0.0628 -0.0462
19911OST    PA530534   2.021   7.650  10.275  0.1905  0.0219 -0.0493
19911OST    PA630535   1.819   7.705  10.229  0.2060 -0.3015  0.0053
19912OST    PA130536   0.134   1.488   0.052 -0.0017 -0.2332 -0.3325
19912OST    PA230537   0.242   1.855  -0.008  0.4170  0.1935 -0.3874
19912OST    PA330538   0.537   1.815   0.020  0.1799 -0.4264  0.0122
19912OST    PA430539   0.243   2.040  -0.022  0.0042 -0.2989  0.0963
19912OST    PA530540  -0.063   2.048   0.092  0.0517  0.2206 -0.0819
19912OST    PA630541  -0.116   1.820   0.086 -0.2314  0.0126 -0.0606
19913OST    PA130542   9.508  13.451   8.766 -0.0948 -0.1087 -0.0379
19913OST    PA230543   9.449  13.097   8.798  0.2391  0.0490 -0.2452
19913OST    PA330544   9.496  12.942   8.568  0.3473 -0.2578  0.3047
19913OST    PA430545   9.495  12.950   8.919 -0.1726 -0.1251 -0.3759
19913OST    PA530546   9.317  13.038   9.178 -0.3011  0.2635  0.1856
19913OST    PA630547   9.195  13.232   9.047 -0.5721 -0.1117  0.3984
19914OST    PA130548   0.205   6.216  12.957  0.1433 -0.2417  0.1875
19914OST    PA230549   0.009   6.071  13.198 -0.2727 -0.1542 -0.3321
19914OST    PA330550   0.158   6.169  13.437 -0.3953  0.0482 -0.1563
19914OST    PA430551  -0.127   6.047  13.301  0.0871 -0.0399 -0.2283
19914OST    PA530552  -0.262   5.830  13.110  0.2686  0.0806  0.4300
19914OST    PA630553  -0.109   5.868  12.924  0.2545 -0.2120 -0.1761
19915OST    PA130554   4.106   2.065  11.433  0.4880  0.1385 -0.4559
19915OST    PA230555   4.128   2.206  11.114 -0.0516  0.1062  0.1106
19915OST    PA330556   4.249   2.468  11.211 -0.1038 -0.0629 -0.0341
19915OST    PA430557   4.071   2.274  10.954 -0.0166 -0.2401 -0.1337
19915OST    PA530558   3.843   2.121  10.870  0.2591  0.6650  0.0206
19915OST    PA630559   3.784   2.054  11.097 -0.1091 -0.0645  0.0723
19916OST    PA130560  11.946   0.836   3.809 -0.0044  0.2935 -0.0787
19916OST    PA230561  12.133   0.855   3.507 -0.1932  0.1657 -0.3353
19916OST    PA330562  12.363   0.872   3.691 -0.2903  0.0403  0.5199
19916OST    PA430563  12.257   0.787   3.355  0.2727  0.2736  0.3499
19916OST    PA530564  12.011   0.720   3.192 -0.1833  0.3851 -0.3126
19916OST    PA630565  11.856   0.757   3.340  0.2421  0.0538  0.0608
19917OST    PA130566   9.682  15.355   8.904  0.1532  0.4226  0.1005
19917OST    PA230567   9.455  15.076   8.918 -0.0195 -0.2714 -0.0640
19917OST    PA330568   9.616  14.851   8.945  0.1093 -0.2548 -0.1287
19917OST    PA430569   9.284  14.987   8.861  0.2359 -0.0852 -0.2330
19917OST    PA530570   9.076  15.158   9.056 -0.3379  0.2006 -0.0343
19917OST    PA630571   9.267  15.297   9.092 -0.0581  0.2340  0.0279
19918OST    PA130572   1.399   0.060  12.145 -0.0604 -0.0197 -0.0545
19918OST    PA230573   1.289   0.149  11.830  0.4138 -0.0125  0.0289
19918OST    PA330574   1.504  -0.038  11.728 -0.2640  0.1485  0.1979
19918OST    PA430575   1.248   0.223  11.674 -0.2494  0.0533 -0.3581
19918OST    PA530576   1.068   0.473  11.771  0.0341  0.0059  0.0163
19918OST    PA630577   1.074   0.399  11.988 -0.0519  0.3735 -0.3359
19919OST    PA130578  13.228  11.202  11.478 -0.0716  0.4608  0.3151
19919OST    PA230579  13.167  11.201  11.828  0.2045  0.0966 -0.5326
19919OST    PA330580  13.363  11.418  11.797 -0.8351 -0.0869  0.2569
19919OST    PA430581  13.110  11.285  11.993  0.0285  0.0999  0.2098
19919OST    PA530582  12.832  11.294  11.948  0.4450 -0.2064  0.4109
19919OST    PA630583  12.829  11.143  11.788  0.4553  0.1361  0.1327
19920OST    PA130584   1.488  11.559   1.437 -0.0254 -0.0325  0.1068
19920OST    PA230585   1.568  11.818   1.652  0.0216  0.0692 -0.1158
19920OST    PA330586   1.609  11.626   1.866 -0.3817 -0.4011 -0.1637
19920OST    PA430587   1.462  11.919   1.747  0.1230  0.0508 -0.3491
19920OST    PA530588   1.513  12.186   1.578  0.0338  0.0365 -0.6866
19920OST    PA630589   1.621  12.036   1.385  0.2832 -0.1528  0.1341
19921OST    PA130590   2.058   9.236   9.011  0.4508  0.0506 -0.4046
19921OST    PA230591   1.775   9.435   9.137 -0.3166 -0.2091  0.1795
19921OST    PA330592   1.792   9.632   8.914 -0.4865  0.0151  0.4781
19921OST    PA430593   1.566   9.484   9.164  0.0483 -0.0983  0.5132
19921OST    PA530594   1.459   9.254   9.365  0.1265  0.1742  0.2018
19921OST    PA630595   1.664   9.141   9.348 -0.1848 -0.3640 -0.1478
19922OST    PA130596   2.546   6.167  11.400 -0.2166 -0.1497  0.1494
19922OST    PA230597   2.581   5.821  11.425 -0.1747  0.2242 -0.2283
19922OST    PA330598   2.866   5.739  11.403  0.3558 -0.1374  0.3374
19922OST    PA430599   2.506   5.666  11.365 -0.1310  0.1646  0.4282
19922OST    PA530600   2.214   5.645  11.475 -0.2833 -0.1758  0.0321
19922OST    PA630601   2.258   5.881  11.562 -0.0076 -0.1258 -0.5938
19923OST    PA130602   1.060   6.829  11.562 -0.2052 -0.1573 -0.0666
19923OST    PA230603   1.139   7.060  11.293  0.4054 -0.2424  0.3342
19923OST    PA330604   1.403   6.901  11.294  0.0461 -0.1837  0.2471
19923OST    PA430605   1.170   7.155  11.097  0.1363 -0.0301  0.1533
19923OST    PA530606   0.867   7.101  10.998 -0.3142 -0.4283 -0.4122
19923OST    PA630607   0.766   7.034  11.166  0.2061  0.0158  0.1785
19924OST    PA130608  13.947   7.944  11.911 -0.0063  0.0957  0.0411
19924OST    PA230609  13.747   8.238  11.949  0.1282 -0.0142 -0.0912
19924OST    PA330610  13.751   8.366  11.665 -0.6196 -0.3328 -0.2160
19924OST    PA430611  13.581   8.357  12.001  0.1471 -0.1877  0.2968
19924OST    PA530612  13.637   8.395  12.291  0.0832 -0.1879 -0.2275
19924OST    PA630613  13.870   8.311  12.288 -0.0970 -0.1366  0.5120
19925OST    PA130614  13.435   2.723   4.328  0.0345  0.1558 -0.1508
19925OST    PA230615  13.378   3.066   4.274  0.0539  0.2565  0.3458
19925OST    PA330616  13.653   3.155   4.311  0.2663  0.2585 -0.6824
19925OST    PA430617  13.316   3.231   4.153  0.2161  0.0882 -0.3237
19925OST    PA530618  13.014   3.159   4.192  0.0644 -0.0726  0.2447
19925OST    PA630619  13.024   2.946   4.288 -0.2003 -0.1245 -0.0418
19926OST    PA130620  11.095   7.802   1.332 -0.1676 -0.1085 -0.2976
19926OST    PA230621  10.944   8.045   1.146  0.2037  0.4300  0.0201
19926OST    PA330622  10.818   8.115   1.430  0.1148  0.4029 -0.0684
19926OST    PA430623  10.839   8.175   1.035 -0.3166 -0.4805 -0.2443
19926OST    PA530624  11.002   8.103   0.795  0.2634  0.4557  0.3694
19926OST    PA630625  11.133   7.931   0.858  0.0041  0.1158 -0.5133
19927OST    PA130626  13.148  10.329   1.389  0.0952 -0.2053 -0.1470
19927OST    PA230627  13.467  10.166   1.403  0.3685  0.0585  0.2031
19927OST    PA330628  13.482  10.096   1.148  0.2394 -0.2227  0.5157
19927OST    PA430629  13.667  10.143   1.448 -0.2894 -0.1063  0.0308
19927OST    PA530630  13.607  10.028   1.739 -0.0863  0.3005  0.3082
19927OST    PA630631  13.372  10.070   1.742  0.0245 -0.2915  0.2444
19928OST    PA130632   9.594   4.676   1.157 -0.2883 -0.0423 -0.1540
19928OST    PA230633   9.300   4.876   1.070 -0.0005 -0.0615  0.0808
19928OST    PA330634   9.391   4.962   1.319  0.1279 -0.2760 -0.0328
19928OST    PA430635   9.206   5.020   1.032  0.0832 -0.2204  0.1721
19928OST    PA530636   9.120   4.936   0.750  0.3472  0.1988 -0.2470
19928OST    PA630637   9.195   4.715   0.778 -0.1053 -0.2068 -0.0444
19929OST    PA130638   2.856  10.291   8.912 -0.0972  0.0177 -0.0095
19929OST    PA230639   3.021  10.330   9.205  0.1150  0.1737  0.0722
19929OST    PA330640   2.891  10.141   9.428 -0.2360 -0.1023 -0.3921
19929OST    PA430641   3.009  10.457   9.306  0.1080  0.2341  0.1783
19929OST    PA530642   3.279  10.651   9.237  0.3212  0.1670  0.1699
19929OST    PA630643   3.339  10.478   9.042  0.0862 -0.5256 -0.2209
19930OST    PA130644  15.131  15.504  12.879  0.0121 -0.0656 -0.1998
19930OST    PA230645  15.039  15.720  13.141 -0.1631  0.4255 -0.1187
19930OST    PA330646  15.264  15.905  13.212  0.0018  0.3778 -0.4330
19930OST    PA430647  14.908  15.852  13.186  0.1107 -0.1104 -0.1410
19930OST    PA530648  14.701  15.642  13.319 -0.2036 -0.4222  0.1539
19930OST    PA630649  14.849  15.455  13.272 -0.0689  0.1515 -0.2028
19931OST    PA130650  12.219   1.256   9.429  0.0518 -0.1668  0.0551
19931OST    PA230651  12.493   1.169   9.224  0.2246  0.1286 -0.0188
19931OST    PA330652  12.744   1.181   9.405  0.0174  0.1218  0.3665
19931OST    PA430653  12.608   1.156   9.045 -0.3291 -0.0920 -0.2542
19931OST    PA530654  12.385   1.078   8.856 -0.4894 -0.1901  0.2084
19931OST    PA630655  12.208   1.099   8.999  0.1639  0.2534 -0.0098
19932OST    PA130656   5.437  13.180   1.311 -0.2324  0.1018  0.4061
19932OST    PA230657   5.483  12.835   1.265  0.3385  0.3258  0.1831
19932OST    PA330658   5.730  12.863   1.092  0.0866 -0.0482 -0.1182
19932OST    PA430659   5.436  12.635   1.196 -0.1572  0.0629 -0.1911
19932OST    PA530660   5.185  12.638   1.387  0.1658 -0.1817  0.2027
19932OST    PA630661   5.136  12.834   1.431 -0.2045 -0.2565  0.0197
19933OST    PA130662   1.950  11.962  11.547 -0.0217 -0.0764 -0.2943
19933OST    PA230663   1.924  11.636  11.463  0.1936  0.5920  0.2294
19933OST    PA330664   2.208  11.653  11.421 -0.3364 -0.0915  0.0799
19933OST    PA430665   1.898  11.479  11.375 -0.0061 -0.3120  0.1749
19933OST    PA530666   1.574  11.530  11.250  0.1246  0.2771  0.2460
19933OST    PA630667   1.592  11.745  11.365  0.1830  0.2124  0.0997
19934OST    PA130668   5.229   9.082  11.757  0.1904  0.0578 -0.1091
19934OST    PA230669   5.028   9.392  11.734 -0.4412  0.1570  0.2845
19934OST    PA330670   5.228   9.488  11.535  0.1869 -0.3480 -0.0039
19934OST    PA430671   4.873   9.501  11.670 -0.0407 -0.1994  0.1535
19934OST    PA530672   4.659   9.388  11.884 -0.1344 -0.0907  0.0749
19934OST    PA630673   4.802   9.238  11.968  0.1363  0.1905 -0.2688
19935OST    PA130674   5.208   2.737   0.783 -0.0164 -0.2272  0.1411
19935OST    PA230675   5.076   2.460   0.615 -0.1343  0.1112  0.1055
19935OST    PA330676   5.289   2.314   0.757 -0.2653 -0.2239  0.0408
19935OST    PA430677   5.067   2.295   0.467  0.1749 -0.1373  0.0470
19935OST    PA530678   4.815   2.428   0.355  0.0057 -0.0191  0.5536
19935OST    PA630679   4.815   2.640   0.489  0.1779 -0.0498 -0.2227
19936OST    PA130680  13.186   8.151  12.218 -0.0852 -0.1582 -0.0178
19936OST    PA230681  13.230   8.159  11.848 -0.2261  0.0314 -0.1828
19936OST    PA330682  12.961   8.270  11.762 -0.3719  0.2166  0.2271
19936OST    PA430683  13.337   8.218  11.676  0.2382 -0.2784  0.1534
19936OST    PA530684  13.566   7.963  11.660  0.0331 -0.6411 -0.1196
19936OST    PA630685  13.498   7.907  11.886  0.0831  0.0314 -0.2170
19937OST    PA130686   5.814  13.684  11.894  0.0693 -0.2862 -0.0932
19937OST    PA230687   6.099  13.579  11.717  0.3837 -0.0812  0.3874
19937OST    PA330688   5.939  13.706  11.503 -0.2925  0.3863 -0.0244
19937OST    PA430689   6.262  13.666  11.674  0.2380 -0.2903 -0.3986
19937OST    PA530690   6.385  13.543  11.949  0.1712 -0.0428 -0.2179
19937OST    PA630691   6.174  13.388  11.963 -0.2700 -0.3042  0.1714
19938OST    PA130692  12.495   1.502   8.721 -0.0704  0.2756 -0.2555
19938OST    PA230693  12.313   1.736   8.522 -0.0704 -0.0355  0.0958
19938OST    PA330694  12.574   1.865   8.486 -0.0682 -0.0623 -0.0658
19938OST    PA430695  12.234   1.804   8.346  0.0431  0.0695 -0.1453
19938OST    PA530696  11.964   1.666   8.436 -0.0483  0.2270 -0.3321
19938OST    PA630697  12.021   1.550   8.619  0.3207 -0.0917  0.1059
19939OST    PA130698  10.339   1.509   0.334  0.0126  0.0219 -0.2404
19939OST    PA230699  10.438   1.823   0.245 -0.2488  0.4800  0.0139
19939OST    PA330700  10.414   1.852   0.546 -0.2931  0.0642 -0.0109
19939OST    PA430701  10.478   2.026   0.187 -0.2332 -0.3529  0.0003
19939OST    PA530702  10.474   1.936  -0.121  0.2718 -0.1983  0.0941
19939OST    PA630703  10.459   1.707  -0.068  0.1946 -0.1066  0.2893
19940OST    PA130704  12.160   2.528  12.029 -0.1129  0.2889 -0.0365
19940OST    PA230705  11.979   2.571  12.341  0.1337 -0.0629 -0.0168
19940OST    PA330706  11.709   2.594  12.227 -0.0028 -0.0481  0.2299
19940OST    PA430707  11.947   2.480  12.534  0.1010 -0.3483 -0.1330
19940OST    PA530708  12.187   2.641  12.657 -0.0095  0.2720 -0.5317
19940OST    PA630709  12.286   2.704  12.470  0.1887  0.1876 -0.2704
19941OST    PA130710   7.940   7.212   8.889  0.2176 -0.0519  0.0417
19941OST    PA230711   7.979   7.196   9.223  0.2800  0.0616 -0.2900
19941OST    PA330712   7.673   7.214   9.313  0.0864 -0.0331  0.2932
19941OST    PA430713   8.035   7.100   9.401  0.0428  0.2155  0.2208
19941OST    PA530714   8.330   7.175   9.437 -0.0693  0.0720  0.1516
19941OST    PA630715   8.306   7.279   9.222 -0.0509 -0.1414 -0.4330
19942OST    PA130716   7.303   3.093   3.463 -0.0151 -0.2276 -0.3158
19942OST    PA230717   7.616   3.270   3.532  0.2035  0.0635 -0.1758
19942OST    PA330718   7.551   3.238   3.829 -0.1227  0.1692 -0.1206
19942OST    PA430719   7.772   3.368   3.569  0.1601 -0.2221  0.1850
19942OST    PA530720   7.845   3.476   3.270  0.6363  0.3307 -0.1486
19942OST    PA630721   7.646   3.355   3.182  0.2703 -0.2195  0.0793
19943OST    PA130722   5.752   9.276   4.117  0.1972  0.1615  0.1254
19943OST    PA230723   5.541   9.586   4.078  0.0469  0.0387 -0.0878
19943OST    PA330724   5.768   9.702   3.968  0.3473  0.0998  0.1332
19943OST    PA430725   5.448   9.757   4.137 -0.0419 -0.2135  0.1661
19943OST    PA530726   5.257   9.657   4.342 -0.4270  0.3997  0.0994
19943OST    PA630727   5.279   9.413   4.242 -0.0681 -0.1902  0.5458
19944OST    PA130728   2.041   5.297  11.526 -0.2119  0.0608  0.1907
19944OST    PA230729   2.307   5.077  11.550 -0.2591  0.1485 -0.0761
19944OST    PA330730   2.460   5.230  11.345  0.2334  0.0721  0.0191
19944OST    PA430731   2.376   4.900  11.508 -0.4852  0.0424 -0.0910
19944OST    PA530732   2.172   4.662  11.618 -0.5380 -0.3061  0.1619
19944OST    PA630733   2.052   4.894  11.693 -0.1136  0.0381  0.1760
19945OST    PA130734  11.193  14.254   5.291  0.3120 -0.0281 -0.3054
19945OST    PA230735  11.129  14.395   4.965  0.2604  0.4965  0.1411
19945OST    PA330736  10.909  14.534   5.060  0.1152  0.1081 -0.0716
19945OST    PA430737  11.187  14.525   4.830  0.0538  0.0033  0.1561
19945OST    PA530738  11.439  14.359   4.728  0.5063  0.0223  0.0850
19945OST    PA630739  11.342  14.147   4.826  0.1415 -0.1064  0.1814
19946OST    PA130740   2.501   7.353   1.268 -0.2116 -0.0229 -0.0019
19946OST    PA230741   2.642   7.659   1.181  0.1016 -0.0396 -0.2274
19946OST    PA330742   2.759   7.729   1.441 -0.0034  0.0834 -0.1506
19946OST    PA430743   2.627   7.811   1.121  0.0293 -0.4531  0.1371
19946OST    PA530744   2.530   7.774   0.810  0.0405 -0.5266  0.2140
19946OST    PA630745   2.567   7.565   0.839 -0.0073  0.0520  0.4190
19947OST    PA130746   2.486  15.300   9.118  0.0077  0.3794  0.0475
19947OST    PA230747   2.249  15.057   9.097 -0.0772  0.2156 -0.5140
19947OST    PA330748   2.466  14.854   9.141 -0.2323  0.4648 -0.2250
19947OST    PA430749   2.142  14.936   8.950 -0.0181  0.4320 -0.0144
19947OST    PA530750   1.959  15.131   8.839  0.2326  0.1572  0.2368
19947OST    PA630751   2.051  15.325   8.946  0.2387 -0.0594 -0.1592
19948OST    PA130752   1.414   2.478   1.998 -0.0631 -0.1329 -0.0299
19948OST    PA230753   1.126   2.703   2.044 -0.1758  0.1066  0.1583
19948OST    PA330754   1.273   2.887   2.210  0.1347 -0.3520  0.1720
19948OST    PA430755   0.944   2.750   2.090  0.2752 -0.2767  0.0324
19948OST    PA530756   0.799   2.557   1.898  0.5343  0.2814 -0.1112
19948OST    PA630757   0.990   2.454   1.817 -0.0545 -0.2285  0.3195
19949OST    PA130758   4.800   4.472   4.837 -0.2822  0.1960  0.2172
19949OST    PA230759   4.544   4.399   4.609 -0.1924  0.3497 -0.2749
19949OST    PA330760   4.560   4.087   4.667  0.0337  0.0768 -0.1836
19949OST    PA430761   4.520   4.364   4.414 -0.0821 -0.2713 -0.5601
19949OST    PA530762   4.460   4.663   4.351 -0.2728  0.1379  0.5262
19949OST    PA630763   4.498   4.737   4.562  0.1559  0.0594 -0.0899
19950OST    PA130764   9.877   4.540   4.172 -0.1016 -0.1671 -0.4402
19950OST    PA230765  10.031   4.815   4.002  0.1795 -0.1650 -0.4393
19950OST    PA330766  10.252   4.620   4.066  0.0594  0.4189  0.5766
19950OST    PA430767  10.135   4.930   3.889  0.2245  0.4548  0.3799
19950OST    PA530768   9.882   5.119   3.837  0.0098  0.4112  0.0298
19950OST    PA630769   9.749   4.995   3.983 -0.0287  0.0694  0.1978
19951OST    PA130770  15.913   3.083   1.207  0.2192 -0.2244 -0.0633
19951OST    PA230771  16.037   2.790   1.087  0.0969  0.1322 -0.1132
19951OST    PA330772  15.764   2.639   1.068  0.0757  0.1281  0.0672
19951OST    PA430773  16.143   2.626   1.118 -0.4085 -0.0364  0.2215
19951OST    PA530774  16.422   2.730   1.229  0.0566  0.6664  0.0934
19951OST    PA630775  16.336   2.936   1.216 -0.1947  0.1406 -0.0029
19952OST    PA130776   1.279   7.319   0.710  0.3368 -0.4726 -0.0073
19952OST    PA230777   1.289   7.026   0.482  0.3891 -0.1761 -0.2543
19952OST    PA330778   1.514   6.911   0.396  0.4213  0.0067 -0.2965
19952OST    PA430779   1.167   6.926   0.338 -0.0808 -0.0235  0.2532
19952OST    PA530780   0.915   6.868   0.491  0.3588  0.1264  0.2410
19952OST    PA630781   1.004   6.964   0.686 -0.0654 -0.1682 -0.2889
19953OST    PA130782   2.418   8.556   1.456 -0.0776 -0.0669  0.2328
19953OST    PA230783   2.507   8.200   1.409  0.0834 -0.2920 -0.1673
19953OST    PA330784   2.728   8.242   1.615  0.1609  0.0666 -0.0262
19953OST    PA430785   2.469   8.053   1.456 -0.3181  0.3460 -0.0247
19953OST    PA530786   2.270   7.968   1.219 -0.2906  0.1604 -0.0580
19953OST    PA630787   2.306   8.198   1.103  0.0013  0.1164 -0.0695
19954OST    PA130788  11.453  13.774  13.242  0.1793 -0.1623  0.0460
19954OST    PA230789  11.653  13.761  13.546  0.2186  0.1266  0.2293
19954OST    PA330790  11.477  13.539  13.625 -0.1910 -0.0961  0.0428
19954OST    PA430791  11.754  13.771  13.719 -0.1911  0.1187 -0.2554
19954OST    PA530792  11.749  14.082  13.685 -0.4491 -0.4675 -0.3971
19954OST    PA630793  11.706  14.089  13.441  0.2802  0.0138  0.0086
19955OST    PA130794  14.146   2.370   8.476  0.1527  0.0032 -0.0045
19955OST    PA230795  13.805   2.358   8.529 -0.2856 -0.0358 -0.8760
19955OST    PA330796  13.810   2.633   8.658  0.2465  0.0810  0.2372
19955OST    PA430797  13.634   2.367   8.462 -0.1009 -0.3321  0.0258
19955OST    PA530798  13.623   2.134   8.234  0.1304 -0.0940 -0.0583
19955OST    PA630799  13.840   2.074   8.298  0.2071 -0.0603  0.1534
19956OST    PA130800  14.760   9.881   2.893  0.0970 -0.1511  0.0463
19956OST    PA230801  14.552  10.041   3.151  0.0828 -0.4844 -0.0324
19956OST    PA330802  14.743  10.264   3.117  0.3398  0.1713 -0.0888
19956OST    PA430803  14.424  10.134   3.267 -0.1654  0.0288 -0.1043
19956OST    PA530804  14.316   9.882   3.433 -0.3407 -0.1718  0.2752
19956OST    PA630805  14.505   9.741   3.280  0.2606  0.1115  0.1434
19957OST    PA130806   1.381  10.731   9.650  0.0457  0.1876  0.0828
19957OST    PA230807   1.122  10.983   9.575 -0.0728 -0.2589 -0.2086
19957OST    PA330808   1.297  11.218   9.566  0.1223  0.3399  0.3126
19957OST    PA430809   0.970  11.106   9.649  0.1031 -0.1287 -0.4744
19957OST    PA530810   0.726  10.871   9.695 -0.0811 -0.2778 -0.2567
19957OST    PA630811   0.888  10.723   9.618 -0.2159 -0.2452 -0.2683
19958OST    PA130812   6.802  11.369   3.876  0.2960  0.2012  0.2004
19958OST    PA230813   6.995  11.691   3.856  0.5537 -0.4052  0.1690
19958OST    PA330814   7.105  11.507   3.653  0.1139 -0.2886  0.1523
19958OST    PA430815   7.022  11.855   3.735  0.0932 -0.1346 -0.1412
19958OST    PA530816   6.938  12.055   3.929 -0.3405  0.4837  0.2756
19958OST    PA630817   6.920  11.913   4.137 -0.0922 -0.2322  0.0169
19959OST    PA130818   5.075   2.851   1.233  0.0251 -0.0522 -0.0934
19959OST    PA230819   4.683   2.875   1.269 -0.1046  0.0489 -0.0520
19959OST    PA330820   4.781   2.856   0.978  0.1939 -0.0350 -0.1863
19959OST    PA430821   4.480   2.900   1.227  0.0450  0.1183 -0.0041
19959OST    PA530822   4.461   2.992   1.539  0.4236 -0.0336 -0.4591
19959OST    PA630823   4.661   2.896   1.621  0.0095 -0.1539 -0.1137
19960OST    PA130824   8.443  11.872   2.315 -0.3411  0.0491  0.1104
19960OST    PA230825   8.667  11.582   2.301 -0.2370 -0.0019  0.2359
19960OST    PA330826   8.530  11.461   2.508  0.4460  0.1612  0.0323
19960OST    PA430827   8.864  11.489   2.343 -0.0595 -0.3589 -0.0465
19960OST    PA530828   8.977  11.717   2.148  0.3714 -0.2421  0.1238
19960OST    PA630829   8.810  11.831   2.070  0.0742  0.0804  0.4222
19961OST    PA130830   6.778   5.552  10.196 -0.0140  0.2514  0.0355
19961OST    PA230831   6.684   5.240  10.298  0.4450 -0.1419 -0.2858
19961OST    PA330832   6.576   5.281   9.998 -0.1581  0.3016  0.1992
19961OST    PA430833   6.729   5.043  10.265  0.3874 -0.1950 -0.4445
19961OST    PA530834   6.929   5.047  10.525 -0.2881  0.1495  0.2666
19961OST    PA630835   6.913   5.255  10.581  0.2233 -0.2635 -0.1748
19962OST    PA130836   1.503   2.707   1.401 -0.1180  0.2630 -0.1572
19962OST    PA230837   1.237   2.578   1.216  0.0406  0.0194  0.0923
19962OST    PA330838   1.430   2.483   1.038  0.0493 -0.1818 -0.0068
19962OST    PA430839   1.106   2.612   1.088 -0.1627 -0.4717  0.1006
19962OST    PA530840   0.851   2.682   1.284 -0.2568 -0.1671 -0.0194
19962OST    PA630841   0.983   2.662   1.459 -0.0876  0.0950 -0.3656
19963OST    PA130842  11.359  14.331  11.462  0.1609 -0.3241 -0.1531
19963OST    PA230843  11.410  14.125  11.162  0.2127  0.1085 -0.2719
19963OST    PA330844  11.252  14.353  11.100  0.2381 -0.4090 -0.2651
19963OST    PA430845  11.480  14.081  10.970  0.2702 -0.0277 -0.3327
19963OST    PA530846  11.718  13.917  11.085  0.2221 -0.1885 -0.0281
19963OST    PA630847  11.578  13.906  11.340  0.1270  0.1498  0.1177
19964OST    PA130848   2.539   6.532   4.742 -0.0567 -0.1726 -0.1257
19964OST    PA230849   2.342   6.699   4.505 -0.2671 -0.0114  0.0815
19964OST    PA330850   2.071   6.626   4.551  0.3489 -0.1967  0.5431
19964OST    PA430851   2.319   6.806   4.337  0.0458  0.1018 -0.2351
19964OST    PA530852   2.579   6.998   4.314 -0.1341  0.4882  0.0438
19964OST    PA630853   2.663   6.921   4.519  0.0867 -0.0102 -0.1822
19965OST    PA130854   6.815   3.521  10.976 -0.0160  0.2295 -0.1181
19965OST    PA230855   6.685   3.647  10.660  0.2490 -0.0554 -0.2840
19965OST    PA330856   6.452   3.455  10.705 -0.5047  0.0699  0.3002
19965OST    PA430857   6.616   3.715  10.495  0.0171  0.0741  0.1487
19965OST    PA530858   6.674   4.020  10.563 -0.1335 -0.0096  0.1880
19965OST    PA630859   6.766   3.963  10.758 -0.0182 -0.1457 -0.1708
19966OST    PA130860  15.619   1.956   3.826  0.0236 -0.1390 -0.1979
19966OST    PA230861  15.332   1.731   3.833  0.2395 -0.0405  0.2075
19966OST    PA330862  15.152   1.958   3.854  0.0861 -0.4815  0.3601
19966OST    PA430863  15.235   1.598   3.947 -0.1531 -0.1594 -0.2465
19966OST    PA530864  15.359   1.364   3.756  0.3462  0.1502  0.2405
19966OST    PA630865  15.472   1.514   3.629 -0.1058  0.0744  0.1792
19967OST    PA130866  15.195  15.054   2.909 -0.0008 -0.0895 -0.0527
19967OST    PA230867  15.409  14.881   2.699 -0.0428 -0.0497  0.2511
19967OST    PA330868  15.348  15.094   2.458 -0.1709  0.2652  0.1675
19967OST    PA430869  15.464  14.731   2.583 -0.0877  0.1379 -0.1064
19967OST    PA530870  15.685  14.582   2.791 -0.3242 -0.1620  0.4393
19967OST    PA630871  15.635  14.731   2.945  0.2753 -0.4240  0.2396
19968OST    PA130872   7.356   8.866   2.927  0.0454 -0.1588  0.0686
19968OST    PA230873   7.160   9.091   3.096 -0.1183  0.0563 -0.1330
19968OST    PA330874   7.292   9.382   3.086 -0.0930  0.0667  0.0288
19968OST    PA430875   6.954   9.164   3.185  0.2851 -0.1141 -0.0639
19968OST    PA530876   6.791   8.920   3.239  0.3166  0.2429 -0.1536
19968OST    PA630877   6.963   8.766   3.111 -0.2221 -0.0353  0.0973
19969OST    PA130878   8.084  13.776   9.300 -0.1749 -0.0239 -0.2496
19969OST    PA230879   7.879  13.744   9.596 -0.4481 -0.2228 -0.0018
19969OST    PA330880   7.760  14.012   9.539  0.0395  0.1736  0.1344
19969OST    PA430881   7.875  13.783   9.818 -0.2245 -0.1599  0.3799
19969OST    PA530882   7.927  13.494   9.877  0.0496  0.1978  0.5939
19969OST    PA630883   7.916  13.394   9.642 -0.1265  0.3434 -0.1494
19970OST    PA130884  15.067  15.192  11.657  0.1591  0.1040 -0.2182
19970OST    PA230885  15.225  15.029  11.353  0.0953 -0.1627 -0.3026
19970OST    PA330886  14.969  15.096  11.212  0.5931 -0.2497  0.0678
19970OST    PA430887  15.317  15.101  11.216 -0.1154  0.2020 -0.0324
19970OST    PA530888  15.573  14.991  11.388 -0.2964 -0.0019 -0.1111
19970OST    PA630889  15.481  14.872  11.551 -0.0150 -0.1532 -0.2097
19971OST    PA130890   9.437  11.136  11.897 -0.0297 -0.0994 -0.0268
19971OST    PA230891   9.642  11.432  11.855 -0.0307 -0.1552  0.2616
19971OST    PA330892   9.738  11.456  12.134  0.1900  0.3562  0.0398
19971OST    PA430893   9.750  11.612  11.806  0.1675 -0.0663 -0.0333
19971OST    PA530894   9.657  11.587  11.474  0.0074  0.0540  0.4053
19971OST    PA630895   9.560  11.374  11.527  0.0353  0.0924 -0.2604
19972OST    PA130896  15.910   6.563  13.294  0.1797  0.1455  0.1761
19972OST    PA230897  15.546   6.491  13.243 -0.0005 -0.0330  0.0211
19972OST    PA330898  15.433   6.649  13.442 -0.4247 -0.3513 -0.4698
19972OST    PA430899  15.393   6.345  13.217  0.0409 -0.1042 -0.0328
19972OST    PA530900  15.521   6.299  12.944  0.2091 -0.1627  0.2566
19972OST    PA630901  15.718   6.381  12.966 -0.1281 -0.0697  0.5024
19973OST    PA130902   5.197  12.465   3.861 -0.1037 -0.1931  0.0702
19973OST    PA230903   5.232  12.437   4.229  0.1850  0.3127 -0.0686
19973OST    PA330904   5.444  12.680   4.205  0.2192  0.1630  0.4264
19973OST    PA430905   5.174  12.507   4.417 -0.3699 -0.1386  0.1874
19973OST    PA530906   4.879  12.446   4.392 -0.1256 -0.1959 -0.0773
19973OST    PA630907   4.892  12.294   4.218 -0.4991 -0.0225 -0.2476
19974OST    PA130908  13.922  11.372   4.332 -0.2356 -0.1629  0.1944
19974OST    PA230909  14.249  11.464   4.463  0.0751 -0.1361 -0.1373
19974OST    PA330910  14.115  11.629   4.630  0.2476 -0.7379 -0.2800
19974OST    PA430911  14.374  11.415   4.584 -0.2923  0.2913  0.0919
19974OST    PA530912  14.556  11.231   4.390  0.0484 -0.1393 -0.1461
19974OST    PA630913  14.415  11.295   4.190 -0.1694  0.2773  0.0919
19975OST    PA130914   7.493   0.412  11.709  0.3315  0.1737  0.0156
19975OST    PA230915   7.305   0.639  11.523 -0.2595  0.0384  0.0655
19975OST    PA330916   7.284   0.734  11.830  0.0449 -0.0163  0.2070
19975OST    PA430917   7.123   0.693  11.471 -0.1655  0.0153  0.3662
19975OST    PA530918   7.103   0.503  11.190 -0.0815 -0.0492  0.0412
19975OST    PA630919   7.324   0.438  11.246 -0.2315  0.1105 -0.2097
19976OST    PA130920  10.887   0.522  13.398 -0.0511 -0.0819  0.0711
19976OST    PA230921  10.655   0.538  13.654  0.1135 -0.0789 -0.3868
19976OST    PA330922  10.589   0.807  13.594  0.1656 -0.0642  0.2692
19976OST    PA430923  10.489   0.486  13.747  0.3462 -0.0057 -0.0963
19976OST    PA530924  10.562   0.211  13.848 -0.1489 -0.1195  0.2705
19976OST    PA630925  10.790   0.235  13.786  0.0297  0.0232 -0.0040
19977OST    PA130926   5.334   6.805   5.380  0.1343 -0.1224  0.0704
19977OST    PA230927   5.472   6.569   5.189 -0.4905 -0.0372  0.2333
19977OST    PA330928   5.751   6.474   5.253  0.1822 -0.0310  0.0862
19977OST    PA430929   5.400   6.379   5.141 -0.0660  0.0935 -0.1323
19977OST    PA530930   5.205   6.474   4.934  0.1041  0.0099 -0.1430
19977OST    PA630931   5.271   6.713   4.937  0.1010 -0.2918 -0.1118
19978OST    PA130932   7.775  11.792   4.240  0.1238 -0.0327 -0.0861
19978OST    PA230933   7.440  11.801   4.081  0.1235  0.3124 -0.3861
19978OST    PA330934   7.417  11.669   3.816  0.2593 -0.0016  0.4415
19978OST    PA430935   7.332  11.949   4.028  0.3968 -0.0047 -0.0148
19978OST    PA530936   7.277  12.060   4.337  0.6037  0.5111 -0.2463
19978OST    PA630937   7.305  11.823   4.391 -0.1574 -0.1878 -0.2573
19979OST    PA130938   7.856   0.659   2.677  0.2079 -0.1544  0.3840
19979OST    PA230939   8.084   0.654   2.947  0.0130 -0.2506 -0.2098
19979OST    PA330940   8.250   0.876   2.817  0.1031  0.6909  0.0406
19979OST    PA430941   8.279   0.572   3.038 -0.1896 -0.1432  0.1343
19979OST    PA530942   8.100   0.353   3.164  0.1981 -0.4442  0.7186
19979OST    PA630943   7.888   0.450   3.141  0.3498  0.0144 -0.1141
19980OST    PA130944  12.605  10.726   9.270  0.2887  0.3605 -0.1325
19980OST    PA230945  12.503  10.863   8.952 -0.2842 -0.3163 -0.0147
19980OST    PA330946  12.814  10.885   8.899  0.4017  0.1026 -0.5628
19980OST    PA430947  12.444  11.016   8.843  0.0905  0.2948  0.2568
19980OST    PA530948  12.205  10.841   8.691 -0.3638  0.1410 -0.0718
19980OST    PA630949  12.275  10.625   8.817 -0.1330 -0.0566  0.0331
19981OST    PA130950   5.797   4.880  10.387  0.2352 -0.1009 -0.0154
19981OST    PA230951   6.146   4.838  10.347 -0.2315 -0.2453  0.0664
19981OST    PA330952   6.110   4.564  10.410  0.4247  0.1258 -0.1370
19981OST    PA430953   6.285   4.802  10.221 -0.1938 -0.1428  0.1246
19981OST    PA530954   6.297   5.125  10.164  0.2131  0.0792 -0.2448
19981OST    PA630955   6.130   5.194  10.289  0.2916  0.3164  0.0260
19982OST    PA130956   2.432   1.163   8.620  0.1514  0.2123 -0.2533
19982OST    PA230957   2.544   1.440   8.399 -0.4219  0.3526 -0.1352
19982OST    PA330958   2.645   1.248   8.199 -0.1565  0.2654 -0.0637
19982OST    PA430959   2.544   1.587   8.266  0.1941  0.3272  0.3873
19982OST    PA530960   2.551   1.792   8.513  0.4739 -0.0329 -0.3650
19982OST    PA630961   2.513   1.637   8.709 -0.1535 -0.4590  0.4605
19983OST    PA130962   9.166   6.680   9.685 -0.1802 -0.2045  0.1089
19983OST    PA230963   9.125   6.972   9.519  0.1102 -0.1228  0.0537
19983OST    PA330964   9.098   6.790   9.311  0.3372 -0.2521 -0.1368
19983OST    PA430965   9.220   7.112   9.433 -0.0459 -0.3540 -0.3128
19983OST    PA530966   9.297   7.280   9.693  0.4460  0.2895  0.0146
19983OST    PA630967   9.170   7.119   9.815 -0.0520 -0.2172  0.0733
19984OST    PA130968   4.598  12.321  12.793  0.2037  0.0751 -0.3696
19984OST    PA230969   4.547  12.229  12.469 -0.0058  0.0843  0.0199
19984OST    PA330970   4.773  12.036  12.435 -0.1327 -0.1210 -0.1923
19984OST    PA430971   4.592  12.332  12.276  0.4308  0.0914 -0.0062
19984OST    PA530972   4.322  12.495  12.214 -0.2972  0.0611 -0.1651
19984OST    PA630973   4.265  12.424  12.413  0.4579 -0.0873 -0.2737
19985OST    PA130974   9.934  13.043   9.068  0.3550 -0.0270  0.2557
19985OST    PA230975  10.040  12.786   8.859 -0.4639  0.1776  0.1655
19985OST    PA330976   9.763  12.724   8.789 -0.1694 -0.1889 -0.4208
19985OST    PA430977  10.122  12.656   8.728 -0.0874  0.1196  0.2247
19985OST    PA530978  10.356  12.559   8.930 -0.2564 -0.1546 -0.1566
19985OST    PA630979  10.322  12.719   9.101 -0.1482 -0.1426  0.0476
19986OST    PA130980  15.012   0.952  11.112 -0.1399 -0.2392 -0.1398
19986OST    PA230981  14.941   1.019  11.468 -0.0842 -0.0672  0.4170
19986OST    PA330982  15.109   0.801  11.578  0.1581  0.2523  0.2760
19986OST    PA430983  14.824   1.043  11.631 -0.0389  0.2771 -0.0459
19986OST    PA530984  14.548   1.182  11.524 -0.2233 -0.2401  0.2664
19986OST    PA630985  14.659   1.204  11.306  0.3388 -0.1983  0.6563
19987OST    PA130986   2.481   6.300   9.518  0.1276  0.4545  0.3115
19987OST    PA230987   2.422   6.628   9.611 -0.0866  0.0763  0.6797
19987OST    PA330988   2.168   6.522   9.662  0.4515  0.0778  0.2043
19987OST    PA430989   2.347   6.802   9.535 -0.1962 -0.4842 -0.1775
19987OST    PA530990   2.631   6.935   9.475  0.0946 -0.3221  0.3631
19987OST    PA630991   2.751   6.745   9.549 -0.1570  0.1431  0.1516
19988OST    PA130992   1.053   8.630  10.321 -0.1916  0.0939  0.0506
19988OST    PA230993   1.350   8.827  10.245 -0.2270  0.0026  0.3350
19988OST    PA330994   1.157   9.034  10.360  0.3236  0.1727  0.1144
19988OST    PA430995   1.478   8.953  10.146  0.1356  0.0883  0.2400
19988OST    PA530996   1.725   8.728  10.072  0.1348 -0.2178 -0.0565
19988OST    PA630997   1.532   8.570  10.137 -0.0959  0.4347  0.0975
19989OST    PA130998   6.130   0.099   4.568 -0.0091 -0.2544 -0.0438
19989OST    PA230999   6.073   0.268   4.237  0.0857 -0.2547 -0.1282
19989OST    PA331000   6.373   0.294   4.178  0.4565  0.2148  0.1832
19989OST    PA431001   6.025   0.261   4.059  0.0023 -0.0909  0.1135
19989OST    PA531002   5.690   0.333   4.049  0.0272 -0.3299  0.1421
19989OST    PA631003   5.708   0.400   4.294  0.2018  0.3841 -0.0540
19990OST    PA131004   0.086   2.906   9.513  0.1404 -0.0835 -0.1464
19990OST    PA231005   0.040   3.190   9.732 -0.1661 -0.1337  0.3994
19990OST    PA331006   0.121   2.994   9.975 -0.1422  0.0899  0.1172
19990OST    PA431007  -0.026   3.332   9.849 -0.2633  0.2426  0.3419
19990OST    PA531008  -0.094   3.510   9.597 -0.0146 -0.0055  0.1192
19990OST    PA631009   0.009   3.393   9.442  0.1225  0.1185 -0.0953
19991OST    PA131010   5.420  12.887   3.801 -0.0319  0.0648 -0.3323
19991OST    PA231011   5.339  13.068   3.501  0.0901  0.1893  0.3527
19991OST    PA331012   5.499  13.269   3.624  0.1000  0.2040 -0.7091
19991OST    PA431013   5.305  13.171   3.333  0.2778 -0.2821 -0.4300
19991OST    PA531014   5.137  12.910   3.226  0.3289 -0.3495 -0.1364
19991OST    PA631015   5.196  12.771   3.390  0.1324  0.4966 -0.0523
19992OST    PA131016   8.967   4.392  12.579  0.0708 -0.0236 -0.1430
19992OST    PA231017   8.717   4.645  12.494 -0.2635 -0.0656 -0.2069
19992OST    PA331018   8.763   4.713  12.198 -0.3516 -0.0600 -0.1915
19992OST    PA431019   8.675   4.822  12.548  0.1375  0.4772  0.0821
19992OST    PA531020   8.562   4.791  12.836 -0.5562 -0.2078 -0.0429
19992OST    PA631021   8.602   4.563  12.844  0.0119  0.3155  0.0925
19993OST    PA131022   0.143   8.786   3.585 -0.2068  0.1764 -0.0161
19993OST    PA231023   0.256   8.715   3.910 -0.1797  0.0307  0.0106
19993OST    PA331024   0.044   8.863   4.045  0.0228  0.1452  0.1954
19993OST    PA431025   0.344   8.654   4.060  0.3580 -0.3903  0.0456
19993OST    PA531026   0.585   8.521   3.959  0.1146 -0.0166 -0.1076
19993OST    PA631027   0.536   8.521   3.752  0.1371 -0.0511  0.0003
19994OST    PA131028   8.865  13.675  11.821  0.1226  0.1690  0.3076
19994OST    PA231029   9.028  13.864  12.083 -0.4196 -0.2041  0.1097
19994OST    PA331030   9.273  13.746  11.934 -0.0629  0.1623  0.5339
19994OST    PA431031   9.122  13.952  12.238 -0.0091  0.0358 -0.1321
19994OST    PA531032   8.813  13.960  12.360 -0.0253 -0.1716 -0.0743
19994OST    PA631033   8.682  13.860  12.201 -0.0209 -0.1140  0.4189
19995OST    PA131034  13.405  11.900   9.693  0.0146 -0.0194 -0.0057
19995OST    PA231035  13.296  11.641   9.456  0.1942 -0.0196  0.0974
19995OST    PA331036  13.444  11.776   9.221 -0.3821 -0.1465  0.1972
19995OST    PA431037  13.135  11.571   9.332 -0.3580  0.3121 -0.3951
19995OST    PA531038  13.016  11.437   9.598  0.4494  0.0617  0.1540
19995OST    PA631039  13.184  11.512   9.770  0.0358  0.1052 -0.0668
19996OST    PA131040   7.245  10.726   1.472  0.0069 -0.2869  0.0324
19996OST    PA231041   6.905  10.741   1.337 -0.2581 -0.0299 -0.0726
19996OST    PA331042   6.799  10.614   1.584  0.1871  0.2359  0.2539
19996OST    PA431043   6.778  10.721   1.239  0.0520  0.2312 -0.0568
19996OST    PA531044   6.924  10.780   0.980 -0.3555 -0.1261 -0.1325
19996OST    PA631045   7.136  10.829   1.077 -0.0717 -0.2556 -0.1839
19997OST    PA131046  13.600  12.376   9.440  0.0203  0.0681  0.0608
19997OST    PA231047  13.581  12.553   9.125  0.0226  0.2713 -0.3077
19997OST    PA331048  13.376  12.344   9.074 -0.0789 -0.1557 -0.1177
19997OST    PA431049  13.610  12.612   8.942 -0.0049 -0.2761  0.2454
19997OST    PA531050  13.911  12.725   9.037 -0.9206 -0.1113  0.1773
19997OST    PA631051  13.897  12.657   9.233 -0.1734  0.1064 -0.1237
19998OST    PA131052  10.254  14.921  10.433 -0.0614 -0.0415  0.1250
19998OST    PA231053  10.084  15.222  10.539 -0.2302  0.0601 -0.0230
19998OST    PA331054   9.860  15.181  10.384  0.0549 -0.1451 -0.0948
19998OST    PA431055   9.984  15.297  10.720  0.1604 -0.0582 -0.2242
19998OST    PA531056  10.264  15.348  10.915  0.4955  0.1966  0.2954
19998OST    PA631057  10.388  15.264  10.732  0.0176  0.1969  0.5676
19999OST    PA131058   2.430   7.568   3.131  0.1314 -0.0786  0.2972
19999OST    PA231059   2.239   7.879   3.150  0.0886  0.0279 -0.0005
19999OST    PA331060   1.977   7.810   3.270  0.1229 -0.5701  0.1152
19999OST    PA431061   2.209   8.078   3.176 -0.0611  0.2383 -0.0397
19999OST    PA531062   2.342   8.129   2.884 -0.0058  0.0213  0.4302
19999OST    PA631063   2.419   7.937   2.829  0.0184  0.0781 -0.1125
20000OST    PA131064   0.631   4.892  10.318  0.2610  0.0070  0.2237
20000OST    PA231065   0.991   4.875  10.317  0.1438  0.0633 -0.3269
20000OST    PA331066   1.074   4.778  10.044  0.4171  0.2766 -0.1093
20000OST    PA431067   1.141   4.848  10.397  0.2762  0.4150  0.4225
20000OST    PA531068   1.161   5.052  10.627 -0.1384 -0.0323 -0.2423
20000OST    PA631069   0.945   5.153  10.567 -0.2010 -0.2418 -0.4906
20001OST    PA131070  15.607   1.224   0.069  0.1633 -0.1092  0.0604
20001OST    PA231071  15.467   1.557   0.116 -0.3865 -0.0681  0.3412
20001OST    PA331072  15.207   1.460  -0.012 -0.5933 -0.0677  0.0476
20001OST    PA431073  15.422   1.738   0.118  0.1790 -0.0255 -0.3377
20001OST    PA531074  15.571   1.789   0.404  0.1255  0.1537 -0.2947
20001OST    PA631075  15.686   1.562   0.418 -0.0102  0.1486  0.3793
20002OST    PA131076  10.161   8.660   9.896 -0.1920 -0.0104  0.1599
20002OST    PA231077  10.108   8.894   9.653 -0.2206  0.0640 -0.0837
20002OST    PA331078  10.276   8.716   9.512 -0.1790 -0.0526 -0.3818
20002OST    PA431079  10.025   8.983   9.487  0.2338  0.0176 -0.0219
20002OST    PA531080   9.840   9.152   9.656  0.1854 -0.0171  0.0632
20002OST    PA631081   9.933   9.143   9.872  0.0432  0.2033 -0.1195
20003OST    PA131082   1.365   4.089   1.872 -0.0202 -0.0741  0.3764
20003OST    PA231083   1.113   3.987   1.626 -0.0825  0.0857 -0.1036
20003OST    PA331084   0.876   4.029   1.800 -0.1563 -0.2204  0.4656
20003OST    PA431085   0.991   3.893   1.468 -0.2202 -0.0514 -0.3132
20003OST    PA531086   1.144   4.055   1.266  0.0154  0.0442  0.2259
20003OST    PA631087   1.306   4.174   1.403 -0.2014  0.0692  0.2294
20004OST    PA131088   7.986   5.821  12.374 -0.2375 -0.1809 -0.3674
20004OST    PA231089   8.005   5.752  12.725 -0.0636 -0.0051 -0.3262
20004OST    PA331090   7.725   5.828  12.659  0.0043 -0.1384 -0.0511
20004OST    PA431091   7.974   5.800  12.916 -0.1435 -0.0906  0.4958
20004OST    PA531092   8.285   5.785  12.961 -0.0828 -0.1302  0.4419
20004OST    PA631093   8.342   5.705  12.731 -0.0970  0.1222  0.0314
20005OST    PA131094   4.158   5.189  10.784  0.2253  0.2588  0.1674
20005OST    PA231095   3.835   5.198  10.671 -0.3462  0.1182 -0.4228
20005OST    PA331096   3.850   4.907  10.683  0.1521 -0.3917  0.1363
20005OST    PA431097   3.726   5.211  10.501 -0.4515 -0.1466  0.1199
20005OST    PA531098   3.655   5.534  10.472  0.0848  0.2226 -0.4929
20005OST    PA631099   3.818   5.544  10.636 -0.3548  0.1361 -0.4289
20006OST    PA131100   0.655   0.069   7.990 -0.1078 -0.4388 -0.0666
20006OST    PA231101   0.419  -0.073   8.238 -0.1819  0.1389 -0.3201
20006OST    PA331102   0.698  -0.188   8.293  0.0321 -0.2348 -0.0017
20006OST    PA431103   0.313  -0.256   8.282  0.4210 -0.7098  0.1509
20006OST    PA531104   0.003  -0.110   8.266 -0.0180  0.0944  0.1143
20006OST    PA631105   0.093   0.104   8.170 -0.0762  0.0803 -0.0609
20007OST    PA131106   6.322   6.868   9.678 -0.1366  0.0930  0.3391
20007OST    PA231107   6.020   7.067   9.734 -0.0704  0.1666  0.2562
20007OST    PA331108   6.150   7.205   9.512 -0.3817  0.3742 -0.2211
20007OST    PA431109   6.014   7.231   9.843  0.4953 -0.0179 -0.1633
20007OST    PA531110   5.895   7.040  10.071 -0.0809 -0.3555  0.3691
20007OST    PA631111   5.927   6.828   9.955 -0.2794 -0.0956  0.0655
20008OST    PA131112  15.285   3.814  12.406 -0.2034 -0.2911  0.2522
20008OST    PA231113  15.494   3.813  12.102 -0.0900  0.2485  0.0077
20008OST    PA331114  15.722   3.850  12.286 -0.1886 -0.4524  0.4006
20008OST    PA431115  15.565   3.907  11.940  0.0846  0.1482  0.1890
20008OST    PA531116  15.339   3.766  11.766  0.4062 -0.4053 -0.2192
20008OST    PA631117  15.246   3.608  11.962  0.0063 -0.2223 -0.0032
20009OST    PA131118  15.761   0.359   1.437  0.1433  0.0037 -0.2558
20009OST    PA231119  15.560   0.549   1.227  0.1497  0.0932  0.2375
20009OST    PA331120  15.287   0.451   1.317 -0.2929 -0.2003  0.3145
20009OST    PA431121  15.522   0.524   1.071 -0.1349  0.0680  0.2749
20009OST    PA531122  15.792   0.648   0.927  0.1329 -0.1527 -0.0931
20009OST    PA631123  15.887   0.673   1.132  0.1151  0.0463 -0.1629
20010OST    PA131124   8.739   5.590  11.308 -0.0337 -0.3206 -0.1329
20010OST    PA231125   8.597   5.288  11.196  0.1700  0.0358 -0.4275
20010OST    PA331126   8.314   5.390  11.274  0.0276 -0.2675 -0.2494
20010OST    PA431127   8.511   5.190  11.054  0.0675  0.0743 -0.3984
20010OST    PA531128   8.739   4.969  10.999 -0.1347 -0.4675 -0.0582
20010OST    PA631129   8.892   5.120  11.153  0.0063  0.0863  0.2411
20011OST    PA131130  10.298  14.407   4.254 -0.1140 -0.1042 -0.1826
20011OST    PA231131  10.573  14.311   4.046  0.2221 -0.5912  0.3467
20011OST    PA331132  10.785  14.456   4.198 -0.0333 -0.3177  0.1812
20011OST    PA431133  10.672  14.340   3.846  0.1207  0.2105  0.0128
20011OST    PA531134  10.418  14.215   3.683  0.5873  0.6870 -0.0232
20011OST    PA631135  10.280  14.164   3.897 -0.2202 -0.1356 -0.3565
20012OST    PA131136   9.938   4.507   4.653  0.3800 -0.1020 -0.0574
20012OST    PA231137  10.187   4.688   4.478  0.0247 -0.1730  0.0622
20012OST    PA331138  10.265   4.424   4.409  0.4488 -0.1956 -0.1877
20012OST    PA431139  10.360   4.779   4.425 -0.1598  0.0149  0.0657
20012OST    PA531140  10.210   5.035   4.278  0.0823  0.3915  0.4060
20012OST    PA631141   9.998   4.970   4.386 -0.1047  0.2171  0.0155
20013OST    PA131142  10.771  13.231  11.052 -0.2364 -0.2063  0.1145
20013OST    PA231143  10.546  13.484  10.912  0.4326  0.5063  0.4498
20013OST    PA331144  10.494  13.531  11.210  0.2369 -0.2053  0.4070
20013OST    PA431145  10.406  13.587  10.845 -0.1932 -0.0175 -0.1402
20013OST    PA531146  10.400  13.473  10.563 -0.2407 -0.2785 -0.4044
20013OST    PA631147  10.585  13.322  10.592 -0.0221 -0.3364  0.0907
20014OST    PA131148   8.824  15.076   0.269 -0.2946  0.1470  0.1802
20014OST    PA231149   8.999  15.079   0.601 -0.4775  0.1342  0.1634
20014OST    PA331150   9.079  15.338   0.507 -0.2699 -0.3506 -0.0224
20014OST    PA431151   9.189  15.034   0.670  0.0900 -0.1164 -0.0763
20014OST    PA531152   9.097  14.711   0.716 -0.0882  0.0590  0.5201
20014OST    PA631153   8.866  14.747   0.685  0.0921 -0.0350 -0.0092
20015OST    PA131154  14.040  12.749  10.148  0.0391 -0.2870  0.1765
20015OST    PA231155  14.194  12.791  10.465  0.0153 -0.1144  0.1211
20015OST    PA331156  14.208  13.087  10.407  0.1461 -0.5728  0.3100
20015OST    PA431157  14.239  12.806  10.670  0.1415 -0.1493 -0.1037
20015OST    PA531158  14.282  12.504  10.716 -0.1085 -0.0392 -0.0825
20015OST    PA631159  14.230  12.452  10.518  0.0652 -0.2947  0.1143
  15.94709  15.94709  13.40132
