frame t= 0.000
  948
    1CAP    PA1    1   1.010   3.906  -0.760
    1CAP    PA2    2   0.987   3.939  -0.514
    1CAP    PA3    3   0.934   4.133  -0.213
    1CAP    PA4    4   0.973   4.320   0.071
    1CAP    PA5    5   0.934   4.537   0.066
    1CAP    PA6    6   0.834   4.679   0.245
    1CAP    PA7    7   0.777   4.509   0.368
    1CAP    PA8    8   0.676   4.356   0.480
    1CAP    PA9    9   0.645   4.696   0.454
    2WN      WN   10   0.084   3.595   3.359
    3WN      WN   11   0.460   2.488   2.882
    4WN      WN   12   3.165   2.218   0.652
    5WN      WN   13   3.295   3.303   2.679
    6WN      WN   14   1.213   3.294   0.205
    7WN      WN   15   1.296   1.446   1.188
    8WN      WN   16   0.811   1.294   1.352
    9WN      WN   17   1.802   2.109   0.786
   10WN      WN   18   1.477   3.201   3.141
   11WN      WN   19   0.126   0.762   3.104
   12WN      WN   20   0.888   0.042   2.906
   13WN      WN   21   2.582   0.430   1.793
   14WN      WN   22   2.231   1.301   0.363
   15WN      WN   23   2.801   0.735   3.454
   16WN      WN   24   0.167   0.527   2.579
   17WN      WN   25   0.266   3.146   3.600
   18WN      WN   26   1.788   2.536   0.332
   19WN      WN   27   0.220   1.319   2.025
   20WN      WN   28   1.113   1.210   3.262
   21WN      WN   29   3.572   1.069   1.761
   22WN      WN   30   3.336   2.112   2.620
   23WN      WN   31   1.644   1.445   1.647
   24WN      WN   32   2.190   2.784   2.016
   25WN      WN   33   0.690   2.218   2.248
   26WN      WN   34   0.049   1.746   1.819
   27WN      WN   35   1.085   1.718   3.011
   28WN      WN   36   3.356   1.501   3.265
   29WN      WN   37   0.972   2.945   1.710
   30WN      WN   38   2.093   2.634   2.844
   31WN      WN   39   1.313   1.274   2.069
   32WN      WN   40   1.605   2.058   1.712
   33WN      WN   41   2.602   2.831   3.560
   34WN      WN   42   1.681   2.151   3.570
   35WN      WN   43   1.662   1.867   3.048
   36WN      WN   44   0.071   1.258   3.570
   37WN      WN   45   2.903   2.793   3.169
   38WN      WN   46   0.484   0.375   1.167
   39WN      WN   47   1.011   2.633   2.166
   40WN      WN   48   3.474   2.416   1.456
   41WN      WN   49   2.887   0.816   2.023
   42WN      WN   50   3.172   0.769   0.118
   43WN      WN   51   3.637   1.570   2.424
   44WN      WN   52   1.604   3.277   2.177
   45WN      WN   53   3.378   2.743   0.615
   46WN      WN   54   0.507   3.529   0.369
   47WN      WN   55   0.900   3.575   1.045
   48WN      WN   56   0.697   0.329   2.471
   49WN      WN   57   3.320   1.347   2.746
   50WN      WN   58   2.725   1.769   1.205
   51WN      WN   59   2.691   1.457   0.232
   52WN      WN   60   1.899   2.601   2.372
   53WN      WN   61   1.705   0.931   1.571
   54WN      WN   62   2.305   3.018   2.565
   55WN      WN   63   3.176   1.809   0.987
   56WN      WN   64   2.078   0.467   1.003
   57WN      WN   65   0.735   3.161   0.686
   58WN      WN   66   0.106   0.660   1.285
   59WN      WN   67   2.892   1.267   1.759
   60WN      WN   68   0.350   2.884   1.674
   61WN      WN   69   1.691   3.234   0.544
   62WN      WN   70   3.083   1.260   0.008
   63WN      WN   71   0.106   3.018   2.172
   64WN      WN   72   0.897   2.590   2.652
   65WN      WN   73   1.270   1.950   1.271
   66WN      WN   74   1.292   0.355   2.364
   67WN      WN   75   3.521   0.117   1.661
   68WN      WN   76   0.740   1.989   0.129
   69WN      WN   77   0.395   1.022   0.308
   70WN      WN   78   0.457   2.978   1.102
   71WN      WN   79   1.588   2.461   1.350
   72WN      WN   80   2.920   3.320   3.064
   73WN      WN   81   1.846   0.962   0.748
   74WN      WN   82   3.229   3.360   1.520
   75WN      WN   83   2.906   1.213   3.118
   76WN      WN   84   3.619   2.869   1.252
   77WN      WN   85   2.246   2.161   2.736
   78WN      WN   86   0.012   1.712   0.942
   79WN      WN   87   1.123   2.127   2.515
   80WN      WN   88   2.327   1.391   0.893
   81WN      WN   89   2.204   1.881   0.997
   82WN      WN   90   0.547   1.301   2.471
   83WN      WN   91   0.532   1.177   3.393
   84WN      WN   92   0.422   0.094   1.552
   85WN      WN   93   2.190   0.441   2.113
   86WN      WN   94   1.838   0.626   3.276
   87WN      WN   95   2.193   0.775   0.454
   88WN      WN   96   3.376   3.168   3.208
   89WN      WN   97   2.343   0.249   3.247
   90WN      WN   98   3.362   2.550   3.369
   91WN      WN   99   2.792   0.717   2.965
   92WN      WN  100   2.592   0.655   1.235
   93WN      WN  101   2.985   1.789   3.639
   94WN      WN  102   0.725   3.365   1.625
   95WN      WN  103   1.383   1.082   0.611
   96WN      WN  104   0.952   0.366   3.275
   97WN      WN  105   3.004   0.850   0.956
   98WN      WN  106   3.371   1.332   0.901
   99WN      WN  107   1.114   3.549   3.372
  100WN      WN  108   1.040   0.085   0.607
  101WN      WN  109   3.361   0.619   1.642
  102WN      WN  110   3.511   2.868   0.087
  103WN      WN  111   0.418   2.071   1.789
  104WN      WN  112   2.335   0.658   0.019
  105WN      WN  113   3.469   2.990   1.739
  106WN      WN  114   3.508   0.184   2.489
  107WN      WN  115   1.953   1.396   3.043
  108WN      WN  116   2.046   2.735   0.746
  109WN      WN  117   2.446   2.029   3.486
  110WN      WN  118   2.120   0.006   1.795
  111WN      WN  119   0.732   0.909   1.858
  112WN      WN  120   0.286   2.109   2.632
  113WN      WN  121   2.145   3.302   1.338
  114WN      WN  122   3.339   0.899   2.210
  115WN      WN  123   1.976   3.246   2.977
  116WN      WN  124   3.319   2.305   0.182
  117WN      WN  125   1.754   1.788   1.243
  118WN      WN  126   3.606   0.299   2.984
  119WN      WN  127   1.755   2.134   2.578
  120WN      WN  128   1.972   1.020   2.023
  121WN      WN  129   2.824   1.318   0.861
  122WN      WN  130   3.111   1.051   0.503
  123WN      WN  131   2.920   3.091   0.892
  124WN      WN  132   2.754   2.694   1.688
  125WN      WN  133   2.650   1.773   0.666
  126WN      WN  134   2.083   1.983   1.652
  127WN      WN  135   2.964   1.771   1.719
  128WN      WN  136   0.339   0.786   2.143
  129WN      WN  137   3.117   1.838   2.970
  130WN      WN  138   3.468   3.456   2.116
  131WN      WN  139   1.398   2.900   1.518
  132WN      WN  140   2.405   3.433   2.842
  133WN      WN  141   2.399   0.763   2.606
  134WN      WN  142   1.606   3.471   2.667
  135WN      WN  143   3.303   0.425   1.133
  136WN      WN  144   3.094   1.744   2.434
  137WN      WN  145   0.077   1.065   2.472
  138WN      WN  146   2.937   0.860   1.490
  139WN      WN  147   3.348   1.011   3.267
  140WN      WN  148   2.233   2.710   1.485
  141WN      WN  149   1.489   3.301   1.098
  142WN      WN  150   0.604   0.481   0.356
  143WN      WN  151   1.708   0.135   2.166
  144WN      WN  152   0.736   3.255   0.014
  145WN      WN  153   1.110   1.721   0.765
  146WN      WN  154   1.764   2.350   3.078
  147WN      WN  155   1.594   0.708   1.068
  148WN      WN  156   2.950   0.305   1.496
  149WN      WN  157   2.670   3.587   1.824
  150WN      WN  158   2.082   3.235   2.164
  151WN      WN  159   1.478   2.272   2.125
  152WN      WN  160   3.248   2.995   2.251
  153WN      WN  161   0.942   0.498   1.020
  154WN      WN  162   1.464   2.795   1.980
  155WN      WN  163   0.947   0.726   0.045
  156WN      WN  164   1.748   1.335   2.439
  157WN      WN  165   2.596   0.201   2.309
  158WN      WN  166   0.016   2.044   2.194
  159WN      WN  167   1.720   1.862   0.352
  160WN      WN  168   0.988   0.177   0.122
  161WN      WN  169   1.726   1.258   1.173
  162WN      WN  170   2.696   0.234   2.872
  163WN      WN  171   1.284   2.246   2.981
  164WN      WN  172   2.088   2.028   3.198
  165WN      WN  173   2.705   2.058   3.091
  166WN      WN  174   1.989   0.198   3.596
  167WN      WN  175   1.211   0.814   1.989
  168WN      WN  176   0.637   0.770   1.387
  169WN      WN  177   0.423   3.482   1.063
  170WN      WN  178   1.755   2.812   3.188
  171WN      WN  179   0.790   2.297   0.547
  172WN      WN  180   2.470   1.682   1.768
  173WN      WN  181   2.750   1.481   2.167
  174WN      WN  182   1.955   2.155   2.101
  175WN      WN  183   2.425   2.529   0.233
  176WN      WN  184   2.097   0.550   1.561
  177WN      WN  185   3.576   0.828   0.829
  178WN      WN  186   0.070   3.417   2.860
  179WN      WN  187   0.487   2.643   2.392
  180WN      WN  188   0.054   3.489   0.624
  181WN      WN  189   1.953   0.759   2.430
  182WN      WN  190   1.316   2.782   0.279
  183WN      WN  191   3.221   3.164   0.465
  184WN      WN  192   2.196   1.817   0.479
  185WN      WN  193   1.039   1.008   0.996
  186WN      WN  194   1.871   0.918   0.048
  187WN      WN  195   2.455   2.483   3.226
  188WN      WN  196   2.808   0.389   0.843
  189WN      WN  197   0.138   0.237   0.291
  190WN      WN  198   1.424   2.556   2.581
  191WN      WN  199   1.223   2.472   1.673
  192WN      WN  200   0.965   2.424   0.071
  193WN      WN  201   0.206   2.665   0.839
  194WN      WN  202   0.710   1.735   3.281
  195WN      WN  203   1.414   0.295   3.467
  196WN      WN  204   2.123   0.437   2.823
  197WN      WN  205   1.318   0.205   1.104
  198WN      WN  206   2.377   0.282   0.609
  199WN      WN  207   0.322   0.214   2.186
  200WN      WN  208   0.370   1.177   1.556
  201WN      WN  209   3.059   0.285   1.962
  202WN      WN  210   0.481   0.783   0.776
  203WN      WN  211   3.052   0.471   2.392
  204WN      WN  212   3.448   1.674   0.077
  205WN      WN  213   0.740   0.432   1.896
  206WN      WN  214   1.854   1.004   2.836
  207WN      WN  215   0.002   0.694   0.314
  208WN      WN  216   0.788   2.083   2.875
  209WN      WN  217   2.146   1.481   2.054
  210WN      WN  218   2.013   3.560   0.350
  211WN      WN  219   0.159   2.067   0.047
  212WN      WN  220   0.894   2.478   3.173
  213WN      WN  221   0.415   1.645   2.804
  214WN      WN  222   1.406   1.750   2.598
  215WN      WN  223   3.174   0.109   2.860
  216WN      WN  224   3.572   1.719   2.851
  217WN      WN  225   3.560   1.919   0.537
  218WN      WN  226   2.423   2.251   0.636
  219WN      WN  227   2.897   3.551   0.331
  220WN      WN  228   2.074   1.541   3.473
  221WN      WN  229   0.404   2.508   3.513
  222WN      WN  230   3.610   0.430   3.465
  223WN      WN  231   3.328   1.358   2.086
  224WN      WN  232   1.636   3.488   3.563
  225WN      WN  233   1.491   0.117   0.290
  226WN      WN  234   3.030   2.716   0.233
  227WN      WN  235   0.799   0.809   3.119
  228WN      WN  236   1.233   2.803   2.981
  229WN      WN  237   3.359   0.794   2.779
  230WN      WN  238   2.570   3.453   0.747
  231WN      WN  239   2.809   2.072   2.114
  232WN      WN  240   1.059   0.488   2.781
  233WN      WN  241   1.528   1.557   3.538
  234WN      WN  242   1.031   2.736   0.732
  235WN      WN  243   2.786   2.234   0.996
  236WN      WN  244   0.554   0.860   2.720
  237WN      WN  245   1.883   2.922   1.184
  238WN      WN  246   3.633   1.482   1.365
  239WN      WN  247   1.855   0.115   3.084
  240WN      WN  248   2.635   2.820   2.163
  241WN      WN  249   2.938   3.164   1.871
  242WN      WN  250   2.157   2.966   0.299
  243WN      WN  251   0.167   2.858   3.141
  244WN      WN  252   0.910   0.850   2.379
  245WN      WN  253   0.880   0.198   1.489
  246WN      WN  254   2.501   1.040   2.181
  247WN      WN  255   1.299   2.211   0.381
  248WN      WN  256   3.297   2.153   1.880
  249WN      WN  257   0.624   2.911   3.303
  250WN      WN  258   3.011   3.593   1.100
  251WN      WN  259   1.110   0.613   1.545
  252WN      WN  260   0.879   2.106   1.635
  253WN      WN  261   1.192   3.517   2.385
  254WN      WN  262   3.259   3.613   3.417
  255WN      WN  263   2.418   1.801   2.350
  256WN      WN  264   0.267   1.599   0.265
  257WN      WN  265   3.401   3.257   0.962
  258WN      WN  266   3.238   0.581   0.581
  259WN      WN  267   1.377   0.100   2.984
  260WN      WN  268   3.083   2.902   1.442
  261WN      WN  269   3.112   1.458   1.347
  262WN      WN  270   1.229   1.131   1.563
  263WN      WN  271   1.474   1.393   2.887
  264WN      WN  272   2.585   2.546   2.750
  265WN      WN  273   1.235   1.000   2.862
  266WN      WN  274   1.214   3.466   1.478
  267WN      WN  275   0.531   3.425   3.112
  268WN      WN  276   0.643   2.786   0.242
  269WN      WN  277   3.160   2.544   1.052
  270WN      WN  278   0.764   1.336   2.938
  271WN      WN  279   3.537   1.266   0.419
  272WN      WN  280   1.282   2.323   0.890
  273WN      WN  281   2.381   1.705   2.971
  274WN      WN  282   2.272   1.333   2.515
  275WN      WN  283   0.832   1.705   2.544
  276WN      WN  284   3.042   3.593   2.373
  277WN      WN  285   2.833   0.227   3.367
  278WN      WN  286   0.497   0.377   2.954
  279WN      WN  287   0.836   1.400   2.007
  280WN      WN  288   1.205   1.214   0.129
  281WN      WN  289   0.008   2.973   2.674
  282WN      WN  290   1.593   1.682   2.117
  283WN      WN  291   1.416   0.707   0.222
  284WN      WN  292   0.551   1.523   1.003
  285WN      WN  293   0.322   3.375   2.440
  286WN      WN  294   3.117   1.601   0.548
  287WN      WN  295   3.212   0.517   3.234
  288WN      WN  296   2.648   2.726   1.197
  289WN      WN  297   0.246   1.650   3.374
  290WN      WN  298   3.212   0.114   0.670
  291WN      WN  299   2.732   2.589   0.681
  292WN      WN  300   1.634   1.647   0.766
  293WN      WN  301   2.821   0.451   0.289
  294WN      WN  302   2.886   1.058   2.475
  295WN      WN  303   0.595   1.651   1.682
  296WN      WN  304   0.889   2.590   1.331
  297WN      WN  305   2.652   1.210   1.296
  298WN      WN  306   1.675   0.589   1.992
  299WN      WN  307   3.637   2.500   2.503
  300WN      WN  308   3.555   0.487   2.064
  301WN      WN  309   0.094   3.317   1.440
  302WN      WN  310   0.603   2.504   0.976
  303WN      WN  311   0.518   0.121   3.529
  304WN      WN  312   1.637   2.974   3.631
  305WN      WN  313   3.392   1.942   1.421
  306WN      WN  314   2.746   2.119   0.301
  307WN      WN  315   2.041   3.640   2.513
  308WN      WN  316   2.898   2.362   3.550
  309WN      WN  317   1.713   0.072   0.830
  310WN      WN  318   2.426   0.941   1.689
  311WN      WN  319   0.112   2.528   2.021
  312WN      WN  320   1.365   0.490   0.662
  313WN      WN  321   1.169   1.974   3.511
  314WN      WN  322   2.163   0.955   1.225
  315WN      WN  323   2.368   2.365   2.347
  316WN      WN  324   0.522   2.970   2.782
  317WN      WN  325   1.113   2.953   3.505
  318WN      WN  326   0.964   0.750   0.519
  319WN      WN  327   2.481   0.892   0.844
  320WN      WN  328   2.439   3.000   3.081
  321WN      WN  329   1.124   1.592   1.680
  322WN      WN  330   0.779   3.290   2.545
  323WN      WN  331   3.524   3.407   0.146
  324WN      WN  332   0.387   2.079   3.142
  325WN      WN  333   2.382   2.341   1.830
  326WN      WN  334   0.818   1.990   1.072
  327WN      WN  335   1.189   2.997   2.467
  328WN      WN  336   1.567   0.416   1.508
  329WN      WN  337   0.178   2.400   0.438
  330WN      WN  338   1.697   1.351   0.308
  331WN      WN  339   0.343   1.900   1.327
  332WN      WN  340   1.633   0.542   2.791
  333WN      WN  341   3.305   0.251   0.218
  334WN      WN  342   3.398   1.997   3.317
  335WN      WN  343   2.052   3.254   3.469
  336WN      WN  344   3.610   2.348   2.991
  337WN      WN  345   3.018   3.146   3.602
  338WN      WN  346   0.757   3.602   2.080
  339WN      WN  347   3.616   2.224   0.954
  340WN      WN  348   2.146   1.491   1.467
  341WN      WN  349   1.913   0.103   1.357
  342WN      WN  350   0.972   3.087   1.194
  343WN      WN  351   1.471   0.828   2.419
  344WN      WN  352   1.171   0.197   1.888
  345WN      WN  353   0.234   3.019   0.436
  346WN      WN  354   2.050   2.383   1.154
  347WN      WN  355   0.925   3.178   3.033
  348WN      WN  356   0.402   2.001   0.729
  349WN      WN  357   0.287   0.544   1.728
  350WN      WN  358   1.835   2.509   1.785
  351WN      WN  359   0.087   0.363   0.805
  352WN      WN  360   2.751   1.569   2.732
  353WN      WN  361   2.628   0.955   0.304
  354WN      WN  362   3.145   2.627   1.952
  355WN      WN  363   1.806   3.111   1.783
  356WN      WN  364   1.218   3.215   0.694
  357WN      WN  365   2.500   0.118   0.124
  358WN      WN  366   0.300   3.378   1.865
  359WN      WN  367   2.497   1.136   3.500
  360WN      WN  368   0.480   0.666   3.499
  361WN      WN  369   0.211   1.266   0.832
  362WN      WN  370   0.902   1.255   0.557
  363WN      WN  371   2.665   1.582   3.374
  364WN      WN  372   1.008   1.863   2.083
  365WN      WN  373   2.482   0.149   1.203
  366WN      WN  374   1.613   3.580   1.706
  367WN      WN  375   2.827   3.042   2.643
  368WN      WN  376   2.411   3.191   1.754
  369WN      WN  377   2.430   2.171   1.348
  370WN      WN  378   1.892   0.396   0.419
  371WN      WN  379   3.573   0.024   1.141
  372WN      WN  380   1.261   1.659   0.304
  373WN      WN  381   3.427   0.996   1.294
  374WN      WN  382   2.119   2.166   0.171
  375WN      WN  383   3.055   2.366   2.919
  376WN      WN  384   2.709   3.067   0.386
  377WN      WN  385   1.324   0.742   3.292
  378WN      WN  386   1.144   1.326   2.533
  379WN      WN  387   3.236   2.821   2.810
  380WN      WN  388   2.336   0.771   3.187
  381WN      WN  389   0.180   1.242   2.964
  382WN      WN  390   1.940   1.719   2.690
  383WN      WN  391   0.297   2.477   1.347
  384WN      WN  392   0.444   1.774   2.237
  385WN      WN  393   2.761   2.060   2.587
  386WN      WN  394   2.533   3.440   3.398
  387WN      WN  395   2.429   1.179   2.951
  388WN      WN  396   2.706   3.233   1.356
  389WN      WN  397   1.708   2.953   2.679
  390WN      WN  398   1.193   3.308   1.948
  391WN      WN  399   2.998   2.479   2.367
  392WN      WN  400   2.048   2.551   3.504
  393WN      WN  401   0.653   2.504   1.843
  394WN      WN  402   2.999   2.263   1.488
  395WN      WN  403   2.640   3.329   2.239
  396WN      WN  404   0.618   3.058   2.109
  397WN      WN  405   1.639   1.110   3.319
  398WN      WN  406   2.090   3.276   0.830
  399WN      WN  407   1.398   2.531   3.468
  400WN      WN  408   1.524   2.769   0.845
  401WN      WN  409   0.745   1.509   0.104
  402WN      WN  410   3.165   2.218   4.296
  403WN      WN  411   1.213   3.294   3.849
  404WN      WN  412   1.802   2.109   4.430
  405WN      WN  413   2.231   1.301   4.007
  406WN      WN  414   1.788   2.536   3.976
  407WN      WN  415   0.484   0.375   4.811
  408WN      WN  416   3.172   0.769   3.762
  409WN      WN  417   3.378   2.743   4.259
  410WN      WN  418   0.507   3.529   4.013
  411WN      WN  419   0.900   3.575   4.689
  412WN      WN  420   2.725   1.769   4.849
  413WN      WN  421   2.691   1.457   3.876
  414WN      WN  422   3.176   1.809   4.631
  415WN      WN  423   2.078   0.467   4.647
  416WN      WN  424   0.735   3.161   4.330
  417WN      WN  425   1.691   3.234   4.188
  418WN      WN  426   3.083   1.260   3.652
  419WN      WN  427   1.270   1.950   4.915
  420WN      WN  428   0.740   1.989   3.773
  421WN      WN  429   0.395   1.022   3.952
  422WN      WN  430   0.457   2.978   4.746
  423WN      WN  431   1.846   0.962   4.392
  424WN      WN  432   0.012   1.712   4.586
  425WN      WN  433   2.327   1.391   4.537
  426WN      WN  434   2.204   1.881   4.641
  427WN      WN  435   2.193   0.775   4.098
  428WN      WN  436   1.383   1.082   4.255
  429WN      WN  437   3.004   0.850   4.600
  430WN      WN  438   3.371   1.332   4.545
  431WN      WN  439   1.040   0.085   4.251
  432WN      WN  440   3.511   2.868   3.731
  433WN      WN  441   2.335   0.658   3.663
  434WN      WN  442   2.046   2.735   4.390
  435WN      WN  443   2.145   3.302   4.982
  436WN      WN  444   3.319   2.305   3.826
  437WN      WN  445   1.754   1.788   4.887
  438WN      WN  446   2.824   1.318   4.505
  439WN      WN  447   3.111   1.051   4.147
  440WN      WN  448   2.920   3.091   4.536
  441WN      WN  449   2.650   1.773   4.310
  442WN      WN  450   3.303   0.425   4.777
  443WN      WN  451   1.489   3.301   4.742
  444WN      WN  452   0.604   0.481   4.000
  445WN      WN  453   0.736   3.255   3.658
  446WN      WN  454   1.110   1.721   4.409
  447WN      WN  455   1.594   0.708   4.712
  448WN      WN  456   0.942   0.498   4.664
  449WN      WN  457   0.947   0.726   3.689
  450WN      WN  458   1.720   1.862   3.996
  451WN      WN  459   0.988   0.177   3.766
  452WN      WN  460   1.726   1.258   4.817
  453WN      WN  461   0.423   3.482   4.707
  454WN      WN  462   0.790   2.297   4.191
  455WN      WN  463   2.425   2.529   3.877
  456WN      WN  464   3.576   0.828   4.473
  457WN      WN  465   0.054   3.489   4.268
  458WN      WN  466   1.316   2.782   3.923
  459WN      WN  467   3.221   3.164   4.109
  460WN      WN  468   2.196   1.817   4.123
  461WN      WN  469   1.039   1.008   4.640
  462WN      WN  470   1.871   0.918   3.692
  463WN      WN  471   2.808   0.389   4.487
  464WN      WN  472   0.138   0.237   3.935
  465WN      WN  473   0.965   2.424   3.715
  466WN      WN  474   0.206   2.665   4.483
  467WN      WN  475   1.318   0.205   4.748
  468WN      WN  476   2.377   0.282   4.253
  469WN      WN  477   0.481   0.783   4.420
  470WN      WN  478   3.448   1.674   3.721
  471WN      WN  479   0.002   0.694   3.958
  472WN      WN  480   2.013   3.560   3.994
  473WN      WN  481   0.159   2.067   3.691
  474WN      WN  482   3.560   1.919   4.181
  475WN      WN  483   2.423   2.251   4.280
  476WN      WN  484   2.897   3.551   3.975
  477WN      WN  485   1.491   0.117   3.934
  478WN      WN  486   3.030   2.716   3.877
  479WN      WN  487   2.570   3.453   4.391
  480WN      WN  488   1.031   2.736   4.376
  481WN      WN  489   2.786   2.234   4.640
  482WN      WN  490   1.883   2.922   4.828
  483WN      WN  491   2.157   2.966   3.943
  484WN      WN  492   1.299   2.211   4.025
  485WN      WN  493   3.011   3.593   4.744
  486WN      WN  494   0.267   1.599   3.909
  487WN      WN  495   3.401   3.257   4.606
  488WN      WN  496   3.238   0.581   4.225
  489WN      WN  497   0.643   2.786   3.886
  490WN      WN  498   3.160   2.544   4.696
  491WN      WN  499   3.537   1.266   4.063
  492WN      WN  500   1.282   2.323   4.534
  493WN      WN  501   1.205   1.214   3.773
  494WN      WN  502   1.416   0.707   3.866
  495WN      WN  503   0.551   1.523   4.647
  496WN      WN  504   3.117   1.601   4.192
  497WN      WN  505   2.648   2.726   4.841
  498WN      WN  506   3.212   0.114   4.314
  499WN      WN  507   2.732   2.589   4.325
  500WN      WN  508   1.634   1.647   4.410
  501WN      WN  509   2.821   0.451   3.933
  502WN      WN  510   0.094   3.317   5.084
  503WN      WN  511   0.603   2.504   4.620
  504WN      WN  512   2.746   2.119   3.945
  505WN      WN  513   1.713   0.072   4.474
  506WN      WN  514   1.365   0.490   4.306
  507WN      WN  515   0.964   0.750   4.163
  508WN      WN  516   2.481   0.892   4.488
  509WN      WN  517   3.524   3.407   3.790
  510WN      WN  518   0.818   1.990   4.716
  511WN      WN  519   0.178   2.400   4.082
  512WN      WN  520   1.697   1.351   3.952
  513WN      WN  521   3.305   0.251   3.862
  514WN      WN  522   3.616   2.224   4.598
  515WN      WN  523   1.913   0.103   5.001
  516WN      WN  524   0.234   3.019   4.080
  517WN      WN  525   2.050   2.383   4.798
  518WN      WN  526   0.402   2.001   4.373
  519WN      WN  527   0.087   0.363   4.449
  520WN      WN  528   2.628   0.955   3.948
  521WN      WN  529   1.218   3.215   4.338
  522WN      WN  530   2.500   0.118   3.768
  523WN      WN  531   0.211   1.266   4.476
  524WN      WN  532   0.902   1.255   4.201
  525WN      WN  533   1.892   0.396   4.063
  526WN      WN  534   3.573   0.024   4.785
  527WN      WN  535   1.261   1.659   3.948
  528WN      WN  536   2.119   2.166   3.815
  529WN      WN  537   2.709   3.067   4.030
  530WN      WN  538   0.297   2.477   4.991
  531WN      WN  539   2.090   3.276   4.474
  532WN      WN  540   1.524   2.769   4.489
  533WN      WN  541   0.745   1.509   3.748
  534WN      WN  542   0.126   4.406   3.104
  535WN      WN  543   0.888   3.686   2.906
  536WN      WN  544   2.582   4.074   1.793
  537WN      WN  545   2.801   4.379   3.454
  538WN      WN  546   0.167   4.171   2.579
  539WN      WN  547   1.113   4.854   3.262
  540WN      WN  548   0.071   4.902   3.570
  541WN      WN  549   0.484   4.019   1.167
  542WN      WN  550   2.887   4.460   2.023
  543WN      WN  551   3.172   4.413   0.118
  544WN      WN  552   0.697   3.973   2.471
  545WN      WN  553   1.705   4.575   1.571
  546WN      WN  554   2.078   4.111   1.003
  547WN      WN  555   0.106   4.304   1.285
  548WN      WN  556   2.892   4.911   1.759
  549WN      WN  557   3.083   4.904   0.008
  550WN      WN  558   1.292   3.999   2.364
  551WN      WN  559   3.521   3.761   1.661
  552WN      WN  560   1.846   4.606   0.748
  553WN      WN  561   2.906   4.857   3.118
  554WN      WN  562   0.422   3.738   1.552
  555WN      WN  563   2.190   4.085   2.113
  556WN      WN  564   1.838   4.270   3.276
  557WN      WN  565   2.193   4.419   0.454
  558WN      WN  566   2.343   3.893   3.247
  559WN      WN  567   2.792   4.361   2.965
  560WN      WN  568   2.592   4.299   1.235
  561WN      WN  569   1.383   4.726   0.611
  562WN      WN  570   0.952   4.010   3.275
  563WN      WN  571   3.004   4.494   0.956
  564WN      WN  572   1.040   3.729   0.607
  565WN      WN  573   3.361   4.263   1.642
  566WN      WN  574   2.335   4.302   0.019
  567WN      WN  575   3.508   3.828   2.489
  568WN      WN  576   2.120   3.650   1.795
  569WN      WN  577   0.732   4.553   1.858
  570WN      WN  578   3.339   4.543   2.210
  571WN      WN  579   3.606   3.943   2.984
  572WN      WN  580   1.972   4.664   2.023
  573WN      WN  581   2.824   4.962   0.861
  574WN      WN  582   3.111   4.695   0.503
  575WN      WN  583   0.339   4.430   2.143
  576WN      WN  584   2.399   4.407   2.606
  577WN      WN  585   3.303   4.069   1.133
  578WN      WN  586   0.077   4.709   2.472
  579WN      WN  587   2.937   4.504   1.490
  580WN      WN  588   3.348   4.655   3.267
  581WN      WN  589   1.708   3.779   2.166
  582WN      WN  590   1.594   4.352   1.068
  583WN      WN  591   2.950   3.949   1.496
  584WN      WN  592   0.942   4.142   1.020
  585WN      WN  593   2.596   3.845   2.309
  586WN      WN  594   0.988   3.821   0.122
  587WN      WN  595   2.696   3.878   2.872
  588WN      WN  596   1.989   3.842   3.596
  589WN      WN  597   1.211   4.458   1.989
  590WN      WN  598   0.637   4.414   1.387
  591WN      WN  599   2.097   4.194   1.561
  592WN      WN  600   3.576   4.472   0.829
  593WN      WN  601   1.953   4.403   2.430
  594WN      WN  602   1.039   4.652   0.996
  595WN      WN  603   1.871   4.562   0.048
  596WN      WN  604   2.808   4.033   0.843
  597WN      WN  605   0.138   3.881   0.291
  598WN      WN  606   1.414   3.939   3.467
  599WN      WN  607   2.123   4.081   2.823
  600WN      WN  608   1.318   3.849   1.104
  601WN      WN  609   2.377   3.926   0.609
  602WN      WN  610   0.322   3.858   2.186
  603WN      WN  611   3.059   3.929   1.962
  604WN      WN  612   0.481   4.427   0.776
  605WN      WN  613   3.052   4.115   2.392
  606WN      WN  614   0.740   4.076   1.896
  607WN      WN  615   1.854   4.648   2.836
  608WN      WN  616   0.002   4.338   0.314
  609WN      WN  617   3.174   3.753   2.860
  610WN      WN  618   3.610   4.074   3.465
  611WN      WN  619   1.491   3.761   0.290
  612WN      WN  620   0.799   4.453   3.119
  613WN      WN  621   3.359   4.438   2.779
  614WN      WN  622   1.059   4.132   2.781
  615WN      WN  623   0.554   4.504   2.720
  616WN      WN  624   1.855   3.759   3.084
  617WN      WN  625   0.910   4.494   2.379
  618WN      WN  626   0.880   3.842   1.489
  619WN      WN  627   2.501   4.684   2.181
  620WN      WN  628   1.110   4.257   1.545
  621WN      WN  629   3.238   4.225   0.581
  622WN      WN  630   1.377   3.744   2.984
  623WN      WN  631   1.229   4.775   1.563
  624WN      WN  632   1.235   4.644   2.862
  625WN      WN  633   3.537   4.910   0.419
  626WN      WN  634   2.272   4.977   2.515
  627WN      WN  635   2.833   3.871   3.367
  628WN      WN  636   0.497   4.021   2.954
  629WN      WN  637   1.416   4.351   0.222
  630WN      WN  638   3.212   4.161   3.234
  631WN      WN  639   3.212   3.758   0.670
  632WN      WN  640   2.821   4.095   0.289
  633WN      WN  641   2.886   4.702   2.475
  634WN      WN  642   1.675   4.233   1.992
  635WN      WN  643   3.555   4.131   2.064
  636WN      WN  644   0.518   3.765   3.529
  637WN      WN  645   1.713   3.716   0.830
  638WN      WN  646   2.426   4.585   1.689
  639WN      WN  647   1.365   4.134   0.662
  640WN      WN  648   2.163   4.599   1.225
  641WN      WN  649   2.481   4.536   0.844
  642WN      WN  650   1.567   4.060   1.508
  643WN      WN  651   1.633   4.186   2.791
  644WN      WN  652   3.305   3.895   0.218
  645WN      WN  653   1.913   3.747   1.357
  646WN      WN  654   1.471   4.472   2.419
  647WN      WN  655   1.171   3.841   1.888
  648WN      WN  656   0.287   4.188   1.728
  649WN      WN  657   0.087   4.007   0.805
  650WN      WN  658   2.628   4.599   0.304
  651WN      WN  659   2.500   3.762   0.124
  652WN      WN  660   2.497   4.780   3.500
  653WN      WN  661   0.480   4.310   3.499
  654WN      WN  662   0.211   4.910   0.832
  655WN      WN  663   2.482   3.793   1.203
  656WN      WN  664   1.892   4.040   0.419
  657WN      WN  665   3.573   3.668   1.141
  658WN      WN  666   3.427   4.640   1.294
  659WN      WN  667   1.324   4.386   3.292
  660WN      WN  668   1.144   4.970   2.533
  661WN      WN  669   2.336   4.415   3.187
  662WN      WN  670   0.180   4.886   2.964
  663WN      WN  671   2.429   4.823   2.951
  664WN      WN  672   1.639   4.754   3.319
  665WN      WN  673   0.484   4.019   4.811
  666WN      WN  674   3.172   4.413   3.762
  667WN      WN  675   2.078   4.111   4.647
  668WN      WN  676   3.083   4.904   3.652
  669WN      WN  677   0.395   4.666   3.952
  670WN      WN  678   1.846   4.606   4.392
  671WN      WN  679   2.193   4.419   4.098
  672WN      WN  680   1.383   4.726   4.255
  673WN      WN  681   3.004   4.494   4.600
  674WN      WN  682   2.335   4.302   3.663
  675WN      WN  683   2.824   4.962   4.505
  676WN      WN  684   3.111   4.695   4.147
  677WN      WN  685   3.303   4.069   4.777
  678WN      WN  686   0.604   4.125   4.000
  679WN      WN  687   1.594   4.352   4.712
  680WN      WN  688   0.947   4.370   3.689
  681WN      WN  689   0.988   3.821   3.766
  682WN      WN  690   3.576   4.472   4.473
  683WN      WN  691   1.039   4.652   4.640
  684WN      WN  692   1.871   4.562   3.692
  685WN      WN  693   2.808   4.033   4.487
  686WN      WN  694   0.138   3.881   3.935
  687WN      WN  695   1.318   3.849   4.748
  688WN      WN  696   2.377   3.926   4.253
  689WN      WN  697   0.481   4.427   4.420
  690WN      WN  698   0.002   4.338   3.958
  691WN      WN  699   1.491   3.761   3.934
  692WN      WN  700   3.238   4.225   4.225
  693WN      WN  701   1.229   4.775   5.207
  694WN      WN  702   3.537   4.910   4.063
  695WN      WN  703   1.416   4.351   3.866
  696WN      WN  704   3.212   3.758   4.314
  697WN      WN  705   2.821   4.095   3.933
  698WN      WN  706   1.713   3.716   4.474
  699WN      WN  707   1.365   4.134   4.306
  700WN      WN  708   0.964   4.394   4.163
  701WN      WN  709   2.481   4.536   4.488
  702WN      WN  710   3.305   3.895   3.862
  703WN      WN  711   0.087   4.007   4.449
  704WN      WN  712   2.628   4.599   3.948
  705WN      WN  713   2.500   3.762   3.768
  706WN      WN  714   0.211   4.910   4.476
  707WN      WN  715   1.892   4.040   4.063
  708WN      WN  716   3.573   3.668   4.785
  709WN      WN  717   3.728   3.595   3.359
  710WN      WN  718   4.104   2.488   2.882
  711WN      WN  719   4.455   1.294   1.352
  712WN      WN  720   3.770   0.762   3.104
  713WN      WN  721   4.532   0.042   2.906
  714WN      WN  722   3.811   0.527   2.579
  715WN      WN  723   3.910   3.146   3.600
  716WN      WN  724   3.864   1.319   2.025
  717WN      WN  725   4.757   1.210   3.262
  718WN      WN  726   4.334   2.218   2.248
  719WN      WN  727   3.693   1.746   1.819
  720WN      WN  728   4.729   1.718   3.011
  721WN      WN  729   4.616   2.945   1.710
  722WN      WN  730   3.715   1.258   3.570
  723WN      WN  731   4.128   0.375   1.167
  724WN      WN  732   4.655   2.633   2.166
  725WN      WN  733   4.151   3.529   0.369
  726WN      WN  734   4.544   3.575   1.045
  727WN      WN  735   4.341   0.329   2.471
  728WN      WN  736   4.379   3.161   0.686
  729WN      WN  737   3.750   0.660   1.285
  730WN      WN  738   3.994   2.884   1.674
  731WN      WN  739   3.750   3.018   2.172
  732WN      WN  740   4.541   2.590   2.652
  733WN      WN  741   4.384   1.989   0.129
  734WN      WN  742   4.039   1.022   0.308
  735WN      WN  743   4.101   2.978   1.102
  736WN      WN  744   3.656   1.712   0.942
  737WN      WN  745   4.191   1.301   2.471
  738WN      WN  746   4.176   1.177   3.393
  739WN      WN  747   4.066   0.094   1.552
  740WN      WN  748   4.369   3.365   1.625
  741WN      WN  749   4.596   0.366   3.275
  742WN      WN  750   4.684   0.085   0.607
  743WN      WN  751   4.062   2.071   1.789
  744WN      WN  752   4.376   0.909   1.858
  745WN      WN  753   3.930   2.109   2.632
  746WN      WN  754   3.983   0.786   2.143
  747WN      WN  755   3.721   1.065   2.472
  748WN      WN  756   4.248   0.481   0.356
  749WN      WN  757   4.380   3.255   0.014
  750WN      WN  758   4.586   0.498   1.020
  751WN      WN  759   4.591   0.726   0.045
  752WN      WN  760   3.660   2.044   2.194
  753WN      WN  761   4.632   0.177   0.122
  754WN      WN  762   4.928   2.246   2.981
  755WN      WN  763   4.855   0.814   1.989
  756WN      WN  764   4.281   0.770   1.387
  757WN      WN  765   4.067   3.482   1.063
  758WN      WN  766   4.434   2.297   0.547
  759WN      WN  767   3.714   3.417   2.860
  760WN      WN  768   4.131   2.643   2.392
  761WN      WN  769   3.698   3.489   0.624
  762WN      WN  770   4.683   1.008   0.996
  763WN      WN  771   3.782   0.237   0.291
  764WN      WN  772   5.068   2.556   2.581
  765WN      WN  773   4.867   2.472   1.673
  766WN      WN  774   4.609   2.424   0.071
  767WN      WN  775   3.850   2.665   0.839
  768WN      WN  776   4.354   1.735   3.281
  769WN      WN  777   3.966   0.214   2.186
  770WN      WN  778   4.014   1.177   1.556
  771WN      WN  779   4.125   0.783   0.776
  772WN      WN  780   4.384   0.432   1.896
  773WN      WN  781   3.646   0.694   0.314
  774WN      WN  782   4.432   2.083   2.875
  775WN      WN  783   3.803   2.067   0.047
  776WN      WN  784   4.538   2.478   3.173
  777WN      WN  785   4.059   1.645   2.804
  778WN      WN  786   5.050   1.750   2.598
  779WN      WN  787   4.048   2.508   3.513
  780WN      WN  788   4.443   0.809   3.119
  781WN      WN  789   4.703   0.488   2.781
  782WN      WN  790   4.675   2.736   0.732
  783WN      WN  791   4.198   0.860   2.720
  784WN      WN  792   3.811   2.858   3.141
  785WN      WN  793   4.554   0.850   2.379
  786WN      WN  794   4.524   0.198   1.489
  787WN      WN  795   4.268   2.911   3.303
  788WN      WN  796   4.754   0.613   1.545
  789WN      WN  797   4.523   2.106   1.635
  790WN      WN  798   4.836   3.517   2.385
  791WN      WN  799   3.911   1.599   0.265
  792WN      WN  800   4.873   1.131   1.563
  793WN      WN  801   4.175   3.425   3.112
  794WN      WN  802   4.287   2.786   0.242
  795WN      WN  803   4.408   1.336   2.938
  796WN      WN  804   4.926   2.323   0.890
  797WN      WN  805   4.476   1.705   2.544
  798WN      WN  806   4.141   0.377   2.954
  799WN      WN  807   4.480   1.400   2.007
  800WN      WN  808   4.849   1.214   0.129
  801WN      WN  809   3.652   2.973   2.674
  802WN      WN  810   4.195   1.523   1.003
  803WN      WN  811   3.966   3.375   2.440
  804WN      WN  812   3.890   1.650   3.374
  805WN      WN  813   4.239   1.651   1.682
  806WN      WN  814   4.533   2.590   1.331
  807WN      WN  815   3.738   3.317   1.440
  808WN      WN  816   4.247   2.504   0.976
  809WN      WN  817   4.162   0.121   3.529
  810WN      WN  818   3.756   2.528   2.021
  811WN      WN  819   4.166   2.970   2.782
  812WN      WN  820   4.757   2.953   3.505
  813WN      WN  821   4.608   0.750   0.519
  814WN      WN  822   4.423   3.290   2.545
  815WN      WN  823   4.031   2.079   3.142
  816WN      WN  824   4.462   1.990   1.072
  817WN      WN  825   3.822   2.400   0.438
  818WN      WN  826   3.987   1.900   1.327
  819WN      WN  827   4.401   3.602   2.080
  820WN      WN  828   4.616   3.087   1.194
  821WN      WN  829   4.815   0.197   1.888
  822WN      WN  830   3.878   3.019   0.436
  823WN      WN  831   4.569   3.178   3.033
  824WN      WN  832   4.046   2.001   0.729
  825WN      WN  833   3.931   0.544   1.728
  826WN      WN  834   3.731   0.363   0.805
  827WN      WN  835   3.944   3.378   1.865
  828WN      WN  836   4.124   0.666   3.499
  829WN      WN  837   3.855   1.266   0.832
  830WN      WN  838   4.546   1.255   0.557
  831WN      WN  839   4.652   1.863   2.083
  832WN      WN  840   3.824   1.242   2.964
  833WN      WN  841   3.941   2.477   1.347
  834WN      WN  842   4.088   1.774   2.237
  835WN      WN  843   4.837   3.308   1.948
  836WN      WN  844   4.297   2.504   1.843
  837WN      WN  845   4.262   3.058   2.109
  838WN      WN  846   4.389   1.509   0.104
  839WN      WN  847   4.857   3.294   3.849
  840WN      WN  848   4.128   0.375   4.811
  841WN      WN  849   4.151   3.529   4.013
  842WN      WN  850   4.544   3.575   4.689
  843WN      WN  851   4.379   3.161   4.330
  844WN      WN  852   4.384   1.989   3.773
  845WN      WN  853   4.039   1.022   3.952
  846WN      WN  854   4.101   2.978   4.746
  847WN      WN  855   3.656   1.712   4.586
  848WN      WN  856   4.684   0.085   4.251
  849WN      WN  857   4.248   0.481   4.000
  850WN      WN  858   4.380   3.255   3.658
  851WN      WN  859   4.586   0.498   4.664
  852WN      WN  860   4.591   0.726   3.689
  853WN      WN  861   4.632   0.177   3.766
  854WN      WN  862   4.067   3.482   4.707
  855WN      WN  863   4.434   2.297   4.191
  856WN      WN  864   3.698   3.489   4.268
  857WN      WN  865   4.683   1.008   4.640
  858WN      WN  866   3.782   0.237   3.935
  859WN      WN  867   4.609   2.424   3.715
  860WN      WN  868   3.850   2.665   4.483
  861WN      WN  869   4.125   0.783   4.420
  862WN      WN  870   3.646   0.694   3.958
  863WN      WN  871   3.803   2.067   3.691
  864WN      WN  872   4.675   2.736   4.376
  865WN      WN  873   3.911   1.599   3.909
  866WN      WN  874   4.287   2.786   3.886
  867WN      WN  875   4.926   2.323   4.534
  868WN      WN  876   4.195   1.523   4.647
  869WN      WN  877   4.247   2.504   4.620
  870WN      WN  878   4.608   0.750   4.163
  871WN      WN  879   4.768   1.592   5.324
  872WN      WN  880   4.462   1.990   4.716
  873WN      WN  881   3.822   2.400   4.082
  874WN      WN  882   3.878   3.019   4.080
  875WN      WN  883   4.046   2.001   4.373
  876WN      WN  884   3.731   0.363   4.449
  877WN      WN  885   3.855   1.266   4.476
  878WN      WN  886   4.546   1.255   4.201
  879WN      WN  887   3.941   2.477   4.991
  880WN      WN  888   4.389   1.509   3.748
  881WN      WN  889   4.940   5.090   1.188
  882WN      WN  890   3.770   4.406   3.104
  883WN      WN  891   4.532   3.686   2.906
  884WN      WN  892   3.811   4.171   2.579
  885WN      WN  893   4.757   4.854   3.262
  886WN      WN  894   3.715   4.902   3.570
  887WN      WN  895   4.128   4.019   1.167
  888WN      WN  896   4.341   3.973   2.471
  889WN      WN  897   3.750   4.304   1.285
  890WN      WN  898   4.039   4.666   0.308
  891WN      WN  899   4.066   3.738   1.552
  892WN      WN  900   4.596   4.010   3.275
  893WN      WN  901   4.684   3.729   0.607
  894WN      WN  902   4.376   4.553   1.858
  895WN      WN  903   3.983   4.430   2.143
  896WN      WN  904   3.721   4.709   2.472
  897WN      WN  905   4.248   4.125   0.356
  898WN      WN  906   4.586   4.142   1.020
  899WN      WN  907   4.591   4.370   0.045
  900WN      WN  908   4.632   3.821   0.122
  901WN      WN  909   4.855   4.458   1.989
  902WN      WN  910   4.281   4.414   1.387
  903WN      WN  911   4.683   4.652   0.996
  904WN      WN  912   3.782   3.881   0.291
  905WN      WN  913   3.966   3.858   2.186
  906WN      WN  914   4.125   4.427   0.776
  907WN      WN  915   4.384   4.076   1.896
  908WN      WN  916   3.646   4.338   0.314
  909WN      WN  917   4.443   4.453   3.119
  910WN      WN  918   4.703   4.132   2.781
  911WN      WN  919   4.198   4.504   2.720
  912WN      WN  920   4.554   4.494   2.379
  913WN      WN  921   4.524   3.842   1.489
  914WN      WN  922   4.754   4.257   1.545
  915WN      WN  923   4.873   4.775   1.563
  916WN      WN  924   4.141   4.021   2.954
  917WN      WN  925   4.162   3.765   3.529
  918WN      WN  926   4.608   4.394   0.519
  919WN      WN  927   4.815   3.841   1.888
  920WN      WN  928   3.931   4.188   1.728
  921WN      WN  929   3.731   4.007   0.805
  922WN      WN  930   4.124   4.310   3.499
  923WN      WN  931   3.855   4.910   0.832
  924WN      WN  932   3.824   4.886   2.964
  925WN      WN  933   4.940   5.090   4.832
  926WN      WN  934   4.128   4.019   4.811
  927WN      WN  935   4.039   4.666   3.952
  928WN      WN  936   4.684   3.729   4.251
  929WN      WN  937   4.248   4.125   4.000
  930WN      WN  938   4.586   4.142   4.664
  931WN      WN  939   4.591   4.370   3.689
  932WN      WN  940   4.632   3.821   3.766
  933WN      WN  941   4.683   4.652   4.640
  934WN      WN  942   3.782   3.881   3.935
  935WN      WN  943   4.125   4.427   4.420
  936WN      WN  944   3.646   4.338   3.958
  937WN      WN  945   4.873   4.775   5.207
  938WN      WN  946   4.608   4.394   4.163
  939WN      WN  947   3.731   4.007   4.449
  940WN      WN  948   3.855   4.910   4.476
   5.00000   5.00000   5.00000
