[ moleculetype ]
; molname        nrexcl
PA                1


[ atoms ] 
; id type   PA nr   PA idue  atom   cgnr    charge

 1    TN3a     1      PA      PA1    1      0.00000
 2     TC5     1      PA      PA2    2      0.00000
 3     TC3     1      PA      PA3    3      0.00000
 4     TC3     1      PA      PA4    4      0.00000
 5     TC5     1      PA      PA5    5      0.00000


[ bonds ]
;   i     j   funct   length   force.c.

; bond group 1
    1     2       1        0         0           ; 

; bond group 2
    4     5       1        0         0           ; 

[ constraints ]

;   i     j   funct   length   

; constraint group 1
    2     3       1        0                   ; 

; constraint group 2
    4     3       1        0                  ; 

; constraint group 3
    2     4       1        0                  ; 



[ angles ]
;   i     j     k    funct     angle   force.c.

; angle group 1
    1     2     4      2       0         0           ;
; angle group 2
    5     4     2      2       0         0           ;
 ; angle group 3
    2     3     4      2       0         0
 
[ dihedrals ]
;   i     j     k    l   funct     angle   force.c.

; dihedral group 1
    2     3    4    5     1       0         0     1           ; 
 ; dihedral group 2   
    4     3    2    1     1       0         0     1           ;   
    
