[ moleculetype ]
; molname        nrexcl
PA               1


[ atoms ]
; id type resnr residue   atom  cgnr    charge     mass

1    TN3a     1      PA    PA1  1      0.00000     36.00
2     TC5     1      PA    PA2  2      0.00000     36.00
3     TC3     1      PA    PA3  3      0.00000     36.00
4     TC3     1      PA    PA4  4      0.00000     36.00
5     TC5     1      PA    PA5  5      0.00000     36.00


[ constraints ]
;   i     j   funct   length

; constraint type 1
    2     3       1    0.226      ; 1

; constraint type 2
    4     3       1    0.222      ; 2

; constraint type 3
    2     4       1    0.220      ; 3


[ bonds ]
;   i     j   funct   length   force.c.

; bond type 1
    1     2       1    0.247  9932.03           ; 1

; bond type 2
    4     5       1    0.245  9507.80           ; 2


[ angles ]
;   i     j     k   funct     angle   force.c.

; angle type 1
    1     2     4       2    156.04    534.63           ; 1

; angle type 2
    5     4     2       2    174.07   1166.27           ; 2

; angle type 3
    2     3     4       2     58.04    440.67           ; 3


[ dihedrals ]
;   i     j     k     l   funct     dihedral   force.c.   mult.

; dihedral type 1
    2     3     4     5       1         8.92    2.54       1     ; 1

; dihedral type 2
    4     3     2     1       1        -5.85    4.73       1     ; 2


