frame t= 0.000
  947
    1PA     PA1    1   3.099   1.058   4.095
    1PA     PA2    2   3.207   0.984   3.881
    1PA     PA3    3   3.413   0.961   3.969
    1PA     PA4    4   3.366   0.888   3.766
    1PA     PA5    5   3.582   0.787   3.694
    2WN      WN    6   0.084   3.595   3.359
    3WN      WN    7   0.460   2.488   2.882
    4WN      WN    8   3.165   2.218   0.652
    5WN      WN    9   3.295   3.303   2.679
    6WN      WN   10   1.213   3.294   0.205
    7WN      WN   11   1.296   1.446   1.188
    8WN      WN   12   0.811   1.294   1.352
    9WN      WN   13   1.802   2.109   0.786
   10WN      WN   14   1.477   3.201   3.141
   11WN      WN   15   0.126   0.762   3.104
   12WN      WN   16   0.888   0.042   2.906
   13WN      WN   17   2.582   0.430   1.793
   14WN      WN   18   2.231   1.301   0.363
   15WN      WN   19   2.801   0.735   3.454
   16WN      WN   20   0.167   0.527   2.579
   17WN      WN   21   0.266   3.146   3.600
   18WN      WN   22   1.788   2.536   0.332
   19WN      WN   23   0.220   1.319   2.025
   20WN      WN   24   1.113   1.210   3.262
   21WN      WN   25   3.572   1.069   1.761
   22WN      WN   26   3.336   2.112   2.620
   23WN      WN   27   1.644   1.445   1.647
   24WN      WN   28   2.190   2.784   2.016
   25WN      WN   29   0.690   2.218   2.248
   26WN      WN   30   0.049   1.746   1.819
   27WN      WN   31   1.085   1.718   3.011
   28WN      WN   32   3.356   1.501   3.265
   29WN      WN   33   0.972   2.945   1.710
   30WN      WN   34   2.093   2.634   2.844
   31WN      WN   35   1.313   1.274   2.069
   32WN      WN   36   1.605   2.058   1.712
   33WN      WN   37   2.602   2.831   3.560
   34WN      WN   38   1.681   2.151   3.570
   35WN      WN   39   1.662   1.867   3.048
   36WN      WN   40   0.071   1.258   3.570
   37WN      WN   41   2.903   2.793   3.169
   38WN      WN   42   0.484   0.375   1.167
   39WN      WN   43   1.011   2.633   2.166
   40WN      WN   44   3.474   2.416   1.456
   41WN      WN   45   2.887   0.816   2.023
   42WN      WN   46   3.172   0.769   0.118
   43WN      WN   47   3.637   1.570   2.424
   44WN      WN   48   1.604   3.277   2.177
   45WN      WN   49   3.378   2.743   0.615
   46WN      WN   50   0.507   3.529   0.369
   47WN      WN   51   0.900   3.575   1.045
   48WN      WN   52   0.697   0.329   2.471
   49WN      WN   53   3.320   1.347   2.746
   50WN      WN   54   2.725   1.769   1.205
   51WN      WN   55   2.691   1.457   0.232
   52WN      WN   56   1.899   2.601   2.372
   53WN      WN   57   1.705   0.931   1.571
   54WN      WN   58   2.305   3.018   2.565
   55WN      WN   59   3.176   1.809   0.987
   56WN      WN   60   2.078   0.467   1.003
   57WN      WN   61   0.735   3.161   0.686
   58WN      WN   62   0.106   0.660   1.285
   59WN      WN   63   2.892   1.267   1.759
   60WN      WN   64   0.350   2.884   1.674
   61WN      WN   65   1.691   3.234   0.544
   62WN      WN   66   3.083   1.260   0.008
   63WN      WN   67   0.106   3.018   2.172
   64WN      WN   68   0.897   2.590   2.652
   65WN      WN   69   1.270   1.950   1.271
   66WN      WN   70   1.292   0.355   2.364
   67WN      WN   71   3.521   0.117   1.661
   68WN      WN   72   0.740   1.989   0.129
   69WN      WN   73   0.395   1.022   0.308
   70WN      WN   74   0.457   2.978   1.102
   71WN      WN   75   1.588   2.461   1.350
   72WN      WN   76   2.920   3.320   3.064
   73WN      WN   77   1.846   0.962   0.748
   74WN      WN   78   3.229   3.360   1.520
   75WN      WN   79   2.906   1.213   3.118
   76WN      WN   80   3.619   2.869   1.252
   77WN      WN   81   2.246   2.161   2.736
   78WN      WN   82   0.012   1.712   0.942
   79WN      WN   83   1.123   2.127   2.515
   80WN      WN   84   2.327   1.391   0.893
   81WN      WN   85   2.204   1.881   0.997
   82WN      WN   86   0.547   1.301   2.471
   83WN      WN   87   0.532   1.177   3.393
   84WN      WN   88   0.422   0.094   1.552
   85WN      WN   89   2.190   0.441   2.113
   86WN      WN   90   1.838   0.626   3.276
   87WN      WN   91   2.193   0.775   0.454
   88WN      WN   92   3.376   3.168   3.208
   89WN      WN   93   2.343   0.249   3.247
   90WN      WN   94   3.362   2.550   3.369
   91WN      WN   95   2.792   0.717   2.965
   92WN      WN   96   2.592   0.655   1.235
   93WN      WN   97   2.985   1.789   3.639
   94WN      WN   98   0.725   3.365   1.625
   95WN      WN   99   1.383   1.082   0.611
   96WN      WN  100   0.952   0.366   3.275
   97WN      WN  101   3.004   0.850   0.956
   98WN      WN  102   3.371   1.332   0.901
   99WN      WN  103   1.114   3.549   3.372
  100WN      WN  104   1.040   0.085   0.607
  101WN      WN  105   3.361   0.619   1.642
  102WN      WN  106   3.511   2.868   0.087
  103WN      WN  107   0.418   2.071   1.789
  104WN      WN  108   2.335   0.658   0.019
  105WN      WN  109   3.469   2.990   1.739
  106WN      WN  110   3.508   0.184   2.489
  107WN      WN  111   1.953   1.396   3.043
  108WN      WN  112   2.046   2.735   0.746
  109WN      WN  113   2.446   2.029   3.486
  110WN      WN  114   2.120   0.006   1.795
  111WN      WN  115   0.732   0.909   1.858
  112WN      WN  116   0.286   2.109   2.632
  113WN      WN  117   2.145   3.302   1.338
  114WN      WN  118   3.339   0.899   2.210
  115WN      WN  119   1.976   3.246   2.977
  116WN      WN  120   3.319   2.305   0.182
  117WN      WN  121   1.754   1.788   1.243
  118WN      WN  122   3.606   0.299   2.984
  119WN      WN  123   1.755   2.134   2.578
  120WN      WN  124   1.972   1.020   2.023
  121WN      WN  125   2.824   1.318   0.861
  122WN      WN  126   3.111   1.051   0.503
  123WN      WN  127   2.920   3.091   0.892
  124WN      WN  128   2.754   2.694   1.688
  125WN      WN  129   2.650   1.773   0.666
  126WN      WN  130   2.083   1.983   1.652
  127WN      WN  131   2.964   1.771   1.719
  128WN      WN  132   0.339   0.786   2.143
  129WN      WN  133   3.117   1.838   2.970
  130WN      WN  134   3.468   3.456   2.116
  131WN      WN  135   1.398   2.900   1.518
  132WN      WN  136   2.405   3.433   2.842
  133WN      WN  137   2.399   0.763   2.606
  134WN      WN  138   1.606   3.471   2.667
  135WN      WN  139   3.303   0.425   1.133
  136WN      WN  140   3.094   1.744   2.434
  137WN      WN  141   0.077   1.065   2.472
  138WN      WN  142   2.937   0.860   1.490
  139WN      WN  143   3.348   1.011   3.267
  140WN      WN  144   2.233   2.710   1.485
  141WN      WN  145   1.489   3.301   1.098
  142WN      WN  146   0.604   0.481   0.356
  143WN      WN  147   1.708   0.135   2.166
  144WN      WN  148   0.736   3.255   0.014
  145WN      WN  149   1.110   1.721   0.765
  146WN      WN  150   1.764   2.350   3.078
  147WN      WN  151   1.594   0.708   1.068
  148WN      WN  152   2.950   0.305   1.496
  149WN      WN  153   2.670   3.587   1.824
  150WN      WN  154   2.082   3.235   2.164
  151WN      WN  155   1.478   2.272   2.125
  152WN      WN  156   3.248   2.995   2.251
  153WN      WN  157   0.942   0.498   1.020
  154WN      WN  158   1.464   2.795   1.980
  155WN      WN  159   0.947   0.726   0.045
  156WN      WN  160   1.748   1.335   2.439
  157WN      WN  161   2.596   0.201   2.309
  158WN      WN  162   0.016   2.044   2.194
  159WN      WN  163   1.720   1.862   0.352
  160WN      WN  164   0.988   0.177   0.122
  161WN      WN  165   1.726   1.258   1.173
  162WN      WN  166   2.696   0.234   2.872
  163WN      WN  167   1.284   2.246   2.981
  164WN      WN  168   2.088   2.028   3.198
  165WN      WN  169   2.705   2.058   3.091
  166WN      WN  170   1.989   0.198   3.596
  167WN      WN  171   1.211   0.814   1.989
  168WN      WN  172   0.637   0.770   1.387
  169WN      WN  173   0.423   3.482   1.063
  170WN      WN  174   1.755   2.812   3.188
  171WN      WN  175   0.790   2.297   0.547
  172WN      WN  176   2.470   1.682   1.768
  173WN      WN  177   2.750   1.481   2.167
  174WN      WN  178   1.955   2.155   2.101
  175WN      WN  179   2.425   2.529   0.233
  176WN      WN  180   2.097   0.550   1.561
  177WN      WN  181   3.576   0.828   0.829
  178WN      WN  182   0.070   3.417   2.860
  179WN      WN  183   0.487   2.643   2.392
  180WN      WN  184   0.054   3.489   0.624
  181WN      WN  185   1.953   0.759   2.430
  182WN      WN  186   1.316   2.782   0.279
  183WN      WN  187   3.221   3.164   0.465
  184WN      WN  188   2.196   1.817   0.479
  185WN      WN  189   1.039   1.008   0.996
  186WN      WN  190   1.871   0.918   0.048
  187WN      WN  191   2.455   2.483   3.226
  188WN      WN  192   2.808   0.389   0.843
  189WN      WN  193   0.138   0.237   0.291
  190WN      WN  194   1.424   2.556   2.581
  191WN      WN  195   1.223   2.472   1.673
  192WN      WN  196   0.965   2.424   0.071
  193WN      WN  197   0.206   2.665   0.839
  194WN      WN  198   0.710   1.735   3.281
  195WN      WN  199   1.414   0.295   3.467
  196WN      WN  200   2.123   0.437   2.823
  197WN      WN  201   1.318   0.205   1.104
  198WN      WN  202   2.377   0.282   0.609
  199WN      WN  203   0.322   0.214   2.186
  200WN      WN  204   0.370   1.177   1.556
  201WN      WN  205   3.059   0.285   1.962
  202WN      WN  206   0.481   0.783   0.776
  203WN      WN  207   3.052   0.471   2.392
  204WN      WN  208   3.448   1.674   0.077
  205WN      WN  209   0.740   0.432   1.896
  206WN      WN  210   1.854   1.004   2.836
  207WN      WN  211   0.002   0.694   0.314
  208WN      WN  212   0.788   2.083   2.875
  209WN      WN  213   2.146   1.481   2.054
  210WN      WN  214   2.013   3.560   0.350
  211WN      WN  215   0.159   2.067   0.047
  212WN      WN  216   0.894   2.478   3.173
  213WN      WN  217   0.415   1.645   2.804
  214WN      WN  218   1.406   1.750   2.598
  215WN      WN  219   3.174   0.109   2.860
  216WN      WN  220   3.572   1.719   2.851
  217WN      WN  221   3.560   1.919   0.537
  218WN      WN  222   2.423   2.251   0.636
  219WN      WN  223   2.897   3.551   0.331
  220WN      WN  224   2.074   1.541   3.473
  221WN      WN  225   0.404   2.508   3.513
  222WN      WN  226   3.610   0.430   3.465
  223WN      WN  227   3.328   1.358   2.086
  224WN      WN  228   1.636   3.488   3.563
  225WN      WN  229   1.491   0.117   0.290
  226WN      WN  230   3.030   2.716   0.233
  227WN      WN  231   0.799   0.809   3.119
  228WN      WN  232   1.233   2.803   2.981
  229WN      WN  233   3.359   0.794   2.779
  230WN      WN  234   2.570   3.453   0.747
  231WN      WN  235   2.809   2.072   2.114
  232WN      WN  236   1.059   0.488   2.781
  233WN      WN  237   1.528   1.557   3.538
  234WN      WN  238   1.031   2.736   0.732
  235WN      WN  239   2.786   2.234   0.996
  236WN      WN  240   0.554   0.860   2.720
  237WN      WN  241   1.883   2.922   1.184
  238WN      WN  242   3.633   1.482   1.365
  239WN      WN  243   1.855   0.115   3.084
  240WN      WN  244   2.635   2.820   2.163
  241WN      WN  245   2.938   3.164   1.871
  242WN      WN  246   2.157   2.966   0.299
  243WN      WN  247   0.167   2.858   3.141
  244WN      WN  248   0.910   0.850   2.379
  245WN      WN  249   0.880   0.198   1.489
  246WN      WN  250   2.501   1.040   2.181
  247WN      WN  251   1.299   2.211   0.381
  248WN      WN  252   3.297   2.153   1.880
  249WN      WN  253   0.624   2.911   3.303
  250WN      WN  254   3.011   3.593   1.100
  251WN      WN  255   1.110   0.613   1.545
  252WN      WN  256   0.879   2.106   1.635
  253WN      WN  257   1.192   3.517   2.385
  254WN      WN  258   3.259   3.613   3.417
  255WN      WN  259   2.418   1.801   2.350
  256WN      WN  260   0.267   1.599   0.265
  257WN      WN  261   3.401   3.257   0.962
  258WN      WN  262   3.238   0.581   0.581
  259WN      WN  263   1.377   0.100   2.984
  260WN      WN  264   3.083   2.902   1.442
  261WN      WN  265   3.112   1.458   1.347
  262WN      WN  266   1.229   1.131   1.563
  263WN      WN  267   1.474   1.393   2.887
  264WN      WN  268   2.585   2.546   2.750
  265WN      WN  269   1.235   1.000   2.862
  266WN      WN  270   1.214   3.466   1.478
  267WN      WN  271   0.531   3.425   3.112
  268WN      WN  272   0.643   2.786   0.242
  269WN      WN  273   3.160   2.544   1.052
  270WN      WN  274   0.764   1.336   2.938
  271WN      WN  275   3.537   1.266   0.419
  272WN      WN  276   1.282   2.323   0.890
  273WN      WN  277   2.381   1.705   2.971
  274WN      WN  278   2.272   1.333   2.515
  275WN      WN  279   0.832   1.705   2.544
  276WN      WN  280   3.042   3.593   2.373
  277WN      WN  281   2.833   0.227   3.367
  278WN      WN  282   0.497   0.377   2.954
  279WN      WN  283   0.836   1.400   2.007
  280WN      WN  284   1.205   1.214   0.129
  281WN      WN  285   0.008   2.973   2.674
  282WN      WN  286   1.593   1.682   2.117
  283WN      WN  287   1.416   0.707   0.222
  284WN      WN  288   0.551   1.523   1.003
  285WN      WN  289   0.322   3.375   2.440
  286WN      WN  290   3.117   1.601   0.548
  287WN      WN  291   3.212   0.517   3.234
  288WN      WN  292   2.648   2.726   1.197
  289WN      WN  293   0.246   1.650   3.374
  290WN      WN  294   3.212   0.114   0.670
  291WN      WN  295   2.732   2.589   0.681
  292WN      WN  296   1.634   1.647   0.766
  293WN      WN  297   2.821   0.451   0.289
  294WN      WN  298   2.886   1.058   2.475
  295WN      WN  299   0.595   1.651   1.682
  296WN      WN  300   0.889   2.590   1.331
  297WN      WN  301   2.652   1.210   1.296
  298WN      WN  302   1.675   0.589   1.992
  299WN      WN  303   3.637   2.500   2.503
  300WN      WN  304   3.555   0.487   2.064
  301WN      WN  305   0.094   3.317   1.440
  302WN      WN  306   0.603   2.504   0.976
  303WN      WN  307   0.518   0.121   3.529
  304WN      WN  308   1.637   2.974   3.631
  305WN      WN  309   3.392   1.942   1.421
  306WN      WN  310   2.746   2.119   0.301
  307WN      WN  311   2.041   3.640   2.513
  308WN      WN  312   2.898   2.362   3.550
  309WN      WN  313   1.713   0.072   0.830
  310WN      WN  314   2.426   0.941   1.689
  311WN      WN  315   0.112   2.528   2.021
  312WN      WN  316   1.365   0.490   0.662
  313WN      WN  317   1.169   1.974   3.511
  314WN      WN  318   2.163   0.955   1.225
  315WN      WN  319   2.368   2.365   2.347
  316WN      WN  320   0.522   2.970   2.782
  317WN      WN  321   1.113   2.953   3.505
  318WN      WN  322   0.964   0.750   0.519
  319WN      WN  323   2.481   0.892   0.844
  320WN      WN  324   2.439   3.000   3.081
  321WN      WN  325   1.124   1.592   1.680
  322WN      WN  326   0.779   3.290   2.545
  323WN      WN  327   3.524   3.407   0.146
  324WN      WN  328   0.387   2.079   3.142
  325WN      WN  329   2.382   2.341   1.830
  326WN      WN  330   0.818   1.990   1.072
  327WN      WN  331   1.189   2.997   2.467
  328WN      WN  332   1.567   0.416   1.508
  329WN      WN  333   0.178   2.400   0.438
  330WN      WN  334   1.697   1.351   0.308
  331WN      WN  335   0.343   1.900   1.327
  332WN      WN  336   1.633   0.542   2.791
  333WN      WN  337   3.305   0.251   0.218
  334WN      WN  338   3.398   1.997   3.317
  335WN      WN  339   2.052   3.254   3.469
  336WN      WN  340   3.610   2.348   2.991
  337WN      WN  341   3.018   3.146   3.602
  338WN      WN  342   0.757   3.602   2.080
  339WN      WN  343   3.616   2.224   0.954
  340WN      WN  344   2.146   1.491   1.467
  341WN      WN  345   1.913   0.103   1.357
  342WN      WN  346   0.972   3.087   1.194
  343WN      WN  347   1.471   0.828   2.419
  344WN      WN  348   1.171   0.197   1.888
  345WN      WN  349   0.234   3.019   0.436
  346WN      WN  350   2.050   2.383   1.154
  347WN      WN  351   0.925   3.178   3.033
  348WN      WN  352   0.402   2.001   0.729
  349WN      WN  353   0.287   0.544   1.728
  350WN      WN  354   1.835   2.509   1.785
  351WN      WN  355   0.087   0.363   0.805
  352WN      WN  356   2.751   1.569   2.732
  353WN      WN  357   2.628   0.955   0.304
  354WN      WN  358   3.145   2.627   1.952
  355WN      WN  359   1.806   3.111   1.783
  356WN      WN  360   1.218   3.215   0.694
  357WN      WN  361   2.500   0.118   0.124
  358WN      WN  362   0.300   3.378   1.865
  359WN      WN  363   2.497   1.136   3.500
  360WN      WN  364   0.480   0.666   3.499
  361WN      WN  365   0.211   1.266   0.832
  362WN      WN  366   0.902   1.255   0.557
  363WN      WN  367   2.665   1.582   3.374
  364WN      WN  368   1.008   1.863   2.083
  365WN      WN  369   2.482   0.149   1.203
  366WN      WN  370   1.613   3.580   1.706
  367WN      WN  371   2.827   3.042   2.643
  368WN      WN  372   2.411   3.191   1.754
  369WN      WN  373   2.430   2.171   1.348
  370WN      WN  374   1.892   0.396   0.419
  371WN      WN  375   3.573   0.024   1.141
  372WN      WN  376   1.261   1.659   0.304
  373WN      WN  377   3.427   0.996   1.294
  374WN      WN  378   2.119   2.166   0.171
  375WN      WN  379   3.055   2.366   2.919
  376WN      WN  380   2.709   3.067   0.386
  377WN      WN  381   1.324   0.742   3.292
  378WN      WN  382   1.144   1.326   2.533
  379WN      WN  383   3.236   2.821   2.810
  380WN      WN  384   2.336   0.771   3.187
  381WN      WN  385   0.180   1.242   2.964
  382WN      WN  386   1.940   1.719   2.690
  383WN      WN  387   0.297   2.477   1.347
  384WN      WN  388   0.444   1.774   2.237
  385WN      WN  389   2.761   2.060   2.587
  386WN      WN  390   2.533   3.440   3.398
  387WN      WN  391   2.429   1.179   2.951
  388WN      WN  392   2.706   3.233   1.356
  389WN      WN  393   1.708   2.953   2.679
  390WN      WN  394   1.193   3.308   1.948
  391WN      WN  395   2.998   2.479   2.367
  392WN      WN  396   2.048   2.551   3.504
  393WN      WN  397   0.653   2.504   1.843
  394WN      WN  398   2.999   2.263   1.488
  395WN      WN  399   2.640   3.329   2.239
  396WN      WN  400   0.618   3.058   2.109
  397WN      WN  401   1.639   1.110   3.319
  398WN      WN  402   2.090   3.276   0.830
  399WN      WN  403   1.398   2.531   3.468
  400WN      WN  404   1.524   2.769   0.845
  401WN      WN  405   0.745   1.509   0.104
  402WN      WN  406   3.165   2.218   4.296
  403WN      WN  407   1.213   3.294   3.849
  404WN      WN  408   1.802   2.109   4.430
  405WN      WN  409   2.231   1.301   4.007
  406WN      WN  410   1.788   2.536   3.976
  407WN      WN  411   0.484   0.375   4.811
  408WN      WN  412   3.378   2.743   4.259
  409WN      WN  413   0.507   3.529   4.013
  410WN      WN  414   0.900   3.575   4.689
  411WN      WN  415   2.725   1.769   4.849
  412WN      WN  416   2.691   1.457   3.876
  413WN      WN  417   3.176   1.809   4.631
  414WN      WN  418   2.078   0.467   4.647
  415WN      WN  419   0.735   3.161   4.330
  416WN      WN  420   1.691   3.234   4.188
  417WN      WN  421   3.083   1.260   3.652
  418WN      WN  422   1.270   1.950   4.915
  419WN      WN  423   0.740   1.989   3.773
  420WN      WN  424   0.395   1.022   3.952
  421WN      WN  425   0.457   2.978   4.746
  422WN      WN  426   1.846   0.962   4.392
  423WN      WN  427   0.012   1.712   4.586
  424WN      WN  428   2.327   1.391   4.537
  425WN      WN  429   2.204   1.881   4.641
  426WN      WN  430   2.193   0.775   4.098
  427WN      WN  431   1.383   1.082   4.255
  428WN      WN  432   3.004   0.850   4.600
  429WN      WN  433   3.371   1.332   4.545
  430WN      WN  434   1.040   0.085   4.251
  431WN      WN  435   3.511   2.868   3.731
  432WN      WN  436   2.335   0.658   3.663
  433WN      WN  437   2.046   2.735   4.390
  434WN      WN  438   2.145   3.302   4.982
  435WN      WN  439   3.319   2.305   3.826
  436WN      WN  440   1.754   1.788   4.887
  437WN      WN  441   2.824   1.318   4.505
  438WN      WN  442   2.920   3.091   4.536
  439WN      WN  443   2.650   1.773   4.310
  440WN      WN  444   3.303   0.425   4.777
  441WN      WN  445   1.489   3.301   4.742
  442WN      WN  446   0.604   0.481   4.000
  443WN      WN  447   0.736   3.255   3.658
  444WN      WN  448   1.110   1.721   4.409
  445WN      WN  449   1.594   0.708   4.712
  446WN      WN  450   0.942   0.498   4.664
  447WN      WN  451   0.947   0.726   3.689
  448WN      WN  452   1.720   1.862   3.996
  449WN      WN  453   0.988   0.177   3.766
  450WN      WN  454   1.726   1.258   4.817
  451WN      WN  455   0.423   3.482   4.707
  452WN      WN  456   0.790   2.297   4.191
  453WN      WN  457   2.425   2.529   3.877
  454WN      WN  458   3.576   0.828   4.473
  455WN      WN  459   0.054   3.489   4.268
  456WN      WN  460   1.316   2.782   3.923
  457WN      WN  461   3.221   3.164   4.109
  458WN      WN  462   2.196   1.817   4.123
  459WN      WN  463   1.039   1.008   4.640
  460WN      WN  464   1.871   0.918   3.692
  461WN      WN  465   2.808   0.389   4.487
  462WN      WN  466   0.138   0.237   3.935
  463WN      WN  467   0.965   2.424   3.715
  464WN      WN  468   0.206   2.665   4.483
  465WN      WN  469   1.318   0.205   4.748
  466WN      WN  470   2.377   0.282   4.253
  467WN      WN  471   0.481   0.783   4.420
  468WN      WN  472   3.448   1.674   3.721
  469WN      WN  473   0.002   0.694   3.958
  470WN      WN  474   2.013   3.560   3.994
  471WN      WN  475   0.159   2.067   3.691
  472WN      WN  476   3.560   1.919   4.181
  473WN      WN  477   2.423   2.251   4.280
  474WN      WN  478   2.897   3.551   3.975
  475WN      WN  479   1.491   0.117   3.934
  476WN      WN  480   3.030   2.716   3.877
  477WN      WN  481   2.570   3.453   4.391
  478WN      WN  482   1.031   2.736   4.376
  479WN      WN  483   2.786   2.234   4.640
  480WN      WN  484   1.883   2.922   4.828
  481WN      WN  485   2.157   2.966   3.943
  482WN      WN  486   1.299   2.211   4.025
  483WN      WN  487   3.011   3.593   4.744
  484WN      WN  488   0.267   1.599   3.909
  485WN      WN  489   3.401   3.257   4.606
  486WN      WN  490   3.238   0.581   4.225
  487WN      WN  491   0.643   2.786   3.886
  488WN      WN  492   3.160   2.544   4.696
  489WN      WN  493   3.537   1.266   4.063
  490WN      WN  494   1.282   2.323   4.534
  491WN      WN  495   1.205   1.214   3.773
  492WN      WN  496   1.416   0.707   3.866
  493WN      WN  497   0.551   1.523   4.647
  494WN      WN  498   3.117   1.601   4.192
  495WN      WN  499   2.648   2.726   4.841
  496WN      WN  500   3.212   0.114   4.314
  497WN      WN  501   2.732   2.589   4.325
  498WN      WN  502   1.634   1.647   4.410
  499WN      WN  503   2.821   0.451   3.933
  500WN      WN  504   0.094   3.317   5.084
  501WN      WN  505   0.603   2.504   4.620
  502WN      WN  506   2.746   2.119   3.945
  503WN      WN  507   1.713   0.072   4.474
  504WN      WN  508   1.365   0.490   4.306
  505WN      WN  509   0.964   0.750   4.163
  506WN      WN  510   2.481   0.892   4.488
  507WN      WN  511   3.524   3.407   3.790
  508WN      WN  512   0.818   1.990   4.716
  509WN      WN  513   0.178   2.400   4.082
  510WN      WN  514   1.697   1.351   3.952
  511WN      WN  515   3.305   0.251   3.862
  512WN      WN  516   3.616   2.224   4.598
  513WN      WN  517   1.913   0.103   5.001
  514WN      WN  518   0.234   3.019   4.080
  515WN      WN  519   2.050   2.383   4.798
  516WN      WN  520   0.402   2.001   4.373
  517WN      WN  521   0.087   0.363   4.449
  518WN      WN  522   2.628   0.955   3.948
  519WN      WN  523   1.218   3.215   4.338
  520WN      WN  524   2.500   0.118   3.768
  521WN      WN  525   0.211   1.266   4.476
  522WN      WN  526   0.902   1.255   4.201
  523WN      WN  527   1.892   0.396   4.063
  524WN      WN  528   3.573   0.024   4.785
  525WN      WN  529   1.261   1.659   3.948
  526WN      WN  530   2.119   2.166   3.815
  527WN      WN  531   2.709   3.067   4.030
  528WN      WN  532   0.297   2.477   4.991
  529WN      WN  533   2.090   3.276   4.474
  530WN      WN  534   1.524   2.769   4.489
  531WN      WN  535   0.745   1.509   3.748
  532WN      WN  536   0.126   4.406   3.104
  533WN      WN  537   0.888   3.686   2.906
  534WN      WN  538   2.582   4.074   1.793
  535WN      WN  539   2.801   4.379   3.454
  536WN      WN  540   0.167   4.171   2.579
  537WN      WN  541   1.113   4.854   3.262
  538WN      WN  542   0.071   4.902   3.570
  539WN      WN  543   0.484   4.019   1.167
  540WN      WN  544   2.887   4.460   2.023
  541WN      WN  545   3.172   4.413   0.118
  542WN      WN  546   0.697   3.973   2.471
  543WN      WN  547   1.705   4.575   1.571
  544WN      WN  548   2.078   4.111   1.003
  545WN      WN  549   0.106   4.304   1.285
  546WN      WN  550   2.892   4.911   1.759
  547WN      WN  551   3.083   4.904   0.008
  548WN      WN  552   1.292   3.999   2.364
  549WN      WN  553   3.521   3.761   1.661
  550WN      WN  554   0.395   4.666   0.308
  551WN      WN  555   1.846   4.606   0.748
  552WN      WN  556   2.906   4.857   3.118
  553WN      WN  557   0.422   3.738   1.552
  554WN      WN  558   2.190   4.085   2.113
  555WN      WN  559   1.838   4.270   3.276
  556WN      WN  560   2.193   4.419   0.454
  557WN      WN  561   2.343   3.893   3.247
  558WN      WN  562   2.792   4.361   2.965
  559WN      WN  563   2.592   4.299   1.235
  560WN      WN  564   1.383   4.726   0.611
  561WN      WN  565   0.952   4.010   3.275
  562WN      WN  566   3.004   4.494   0.956
  563WN      WN  567   1.040   3.729   0.607
  564WN      WN  568   3.361   4.263   1.642
  565WN      WN  569   2.335   4.302   0.019
  566WN      WN  570   3.508   3.828   2.489
  567WN      WN  571   2.120   3.650   1.795
  568WN      WN  572   0.732   4.553   1.858
  569WN      WN  573   3.339   4.543   2.210
  570WN      WN  574   3.606   3.943   2.984
  571WN      WN  575   1.972   4.664   2.023
  572WN      WN  576   2.824   4.962   0.861
  573WN      WN  577   3.111   4.695   0.503
  574WN      WN  578   0.339   4.430   2.143
  575WN      WN  579   2.399   4.407   2.606
  576WN      WN  580   3.303   4.069   1.133
  577WN      WN  581   0.077   4.709   2.472
  578WN      WN  582   2.937   4.504   1.490
  579WN      WN  583   3.348   4.655   3.267
  580WN      WN  584   0.604   4.125   0.356
  581WN      WN  585   1.708   3.779   2.166
  582WN      WN  586   1.594   4.352   1.068
  583WN      WN  587   2.950   3.949   1.496
  584WN      WN  588   0.942   4.142   1.020
  585WN      WN  589   0.947   4.370   0.045
  586WN      WN  590   2.596   3.845   2.309
  587WN      WN  591   0.988   3.821   0.122
  588WN      WN  592   2.696   3.878   2.872
  589WN      WN  593   1.989   3.842   3.596
  590WN      WN  594   1.211   4.458   1.989
  591WN      WN  595   0.637   4.414   1.387
  592WN      WN  596   2.097   4.194   1.561
  593WN      WN  597   3.576   4.472   0.829
  594WN      WN  598   1.953   4.403   2.430
  595WN      WN  599   1.039   4.652   0.996
  596WN      WN  600   1.871   4.562   0.048
  597WN      WN  601   2.808   4.033   0.843
  598WN      WN  602   0.138   3.881   0.291
  599WN      WN  603   1.414   3.939   3.467
  600WN      WN  604   2.123   4.081   2.823
  601WN      WN  605   1.318   3.849   1.104
  602WN      WN  606   2.377   3.926   0.609
  603WN      WN  607   0.322   3.858   2.186
  604WN      WN  608   3.059   3.929   1.962
  605WN      WN  609   0.481   4.427   0.776
  606WN      WN  610   3.052   4.115   2.392
  607WN      WN  611   0.740   4.076   1.896
  608WN      WN  612   1.854   4.648   2.836
  609WN      WN  613   0.002   4.338   0.314
  610WN      WN  614   3.174   3.753   2.860
  611WN      WN  615   3.610   4.074   3.465
  612WN      WN  616   1.491   3.761   0.290
  613WN      WN  617   0.799   4.453   3.119
  614WN      WN  618   3.359   4.438   2.779
  615WN      WN  619   1.059   4.132   2.781
  616WN      WN  620   0.554   4.504   2.720
  617WN      WN  621   1.855   3.759   3.084
  618WN      WN  622   0.910   4.494   2.379
  619WN      WN  623   0.880   3.842   1.489
  620WN      WN  624   2.501   4.684   2.181
  621WN      WN  625   1.110   4.257   1.545
  622WN      WN  626   3.238   4.225   0.581
  623WN      WN  627   1.377   3.744   2.984
  624WN      WN  628   1.229   4.775   1.563
  625WN      WN  629   1.235   4.644   2.862
  626WN      WN  630   3.537   4.910   0.419
  627WN      WN  631   2.272   4.977   2.515
  628WN      WN  632   2.833   3.871   3.367
  629WN      WN  633   0.497   4.021   2.954
  630WN      WN  634   1.416   4.351   0.222
  631WN      WN  635   3.212   4.161   3.234
  632WN      WN  636   3.212   3.758   0.670
  633WN      WN  637   2.821   4.095   0.289
  634WN      WN  638   2.886   4.702   2.475
  635WN      WN  639   1.675   4.233   1.992
  636WN      WN  640   3.555   4.131   2.064
  637WN      WN  641   0.518   3.765   3.529
  638WN      WN  642   1.713   3.716   0.830
  639WN      WN  643   2.426   4.585   1.689
  640WN      WN  644   1.365   4.134   0.662
  641WN      WN  645   2.163   4.599   1.225
  642WN      WN  646   0.964   4.394   0.519
  643WN      WN  647   2.481   4.536   0.844
  644WN      WN  648   1.567   4.060   1.508
  645WN      WN  649   1.633   4.186   2.791
  646WN      WN  650   3.305   3.895   0.218
  647WN      WN  651   1.913   3.747   1.357
  648WN      WN  652   1.471   4.472   2.419
  649WN      WN  653   1.171   3.841   1.888
  650WN      WN  654   0.287   4.188   1.728
  651WN      WN  655   0.087   4.007   0.805
  652WN      WN  656   2.628   4.599   0.304
  653WN      WN  657   2.500   3.762   0.124
  654WN      WN  658   2.497   4.780   3.500
  655WN      WN  659   0.480   4.310   3.499
  656WN      WN  660   0.211   4.910   0.832
  657WN      WN  661   2.482   3.793   1.203
  658WN      WN  662   1.892   4.040   0.419
  659WN      WN  663   3.573   3.668   1.141
  660WN      WN  664   3.427   4.640   1.294
  661WN      WN  665   1.324   4.386   3.292
  662WN      WN  666   1.144   4.970   2.533
  663WN      WN  667   2.336   4.415   3.187
  664WN      WN  668   0.180   4.886   2.964
  665WN      WN  669   2.429   4.823   2.951
  666WN      WN  670   1.639   4.754   3.319
  667WN      WN  671   0.484   4.019   4.811
  668WN      WN  672   3.172   4.413   3.762
  669WN      WN  673   2.078   4.111   4.647
  670WN      WN  674   3.083   4.904   3.652
  671WN      WN  675   0.395   4.666   3.952
  672WN      WN  676   1.846   4.606   4.392
  673WN      WN  677   2.193   4.419   4.098
  674WN      WN  678   1.383   4.726   4.255
  675WN      WN  679   3.004   4.494   4.600
  676WN      WN  680   1.040   3.729   4.251
  677WN      WN  681   2.335   4.302   3.663
  678WN      WN  682   2.824   4.962   4.505
  679WN      WN  683   3.111   4.695   4.147
  680WN      WN  684   3.303   4.069   4.777
  681WN      WN  685   0.604   4.125   4.000
  682WN      WN  686   1.594   4.352   4.712
  683WN      WN  687   0.942   4.142   4.664
  684WN      WN  688   0.947   4.370   3.689
  685WN      WN  689   0.988   3.821   3.766
  686WN      WN  690   3.576   4.472   4.473
  687WN      WN  691   1.039   4.652   4.640
  688WN      WN  692   1.871   4.562   3.692
  689WN      WN  693   2.808   4.033   4.487
  690WN      WN  694   0.138   3.881   3.935
  691WN      WN  695   1.318   3.849   4.748
  692WN      WN  696   2.377   3.926   4.253
  693WN      WN  697   0.481   4.427   4.420
  694WN      WN  698   0.002   4.338   3.958
  695WN      WN  699   1.491   3.761   3.934
  696WN      WN  700   3.238   4.225   4.225
  697WN      WN  701   1.229   4.775   5.207
  698WN      WN  702   3.537   4.910   4.063
  699WN      WN  703   1.416   4.351   3.866
  700WN      WN  704   3.212   3.758   4.314
  701WN      WN  705   2.821   4.095   3.933
  702WN      WN  706   1.713   3.716   4.474
  703WN      WN  707   1.365   4.134   4.306
  704WN      WN  708   0.964   4.394   4.163
  705WN      WN  709   2.481   4.536   4.488
  706WN      WN  710   3.305   3.895   3.862
  707WN      WN  711   0.087   4.007   4.449
  708WN      WN  712   2.628   4.599   3.948
  709WN      WN  713   2.500   3.762   3.768
  710WN      WN  714   0.211   4.910   4.476
  711WN      WN  715   1.892   4.040   4.063
  712WN      WN  716   3.573   3.668   4.785
  713WN      WN  717   3.728   3.595   3.359
  714WN      WN  718   4.104   2.488   2.882
  715WN      WN  719   4.455   1.294   1.352
  716WN      WN  720   3.770   0.762   3.104
  717WN      WN  721   4.532   0.042   2.906
  718WN      WN  722   3.811   0.527   2.579
  719WN      WN  723   3.910   3.146   3.600
  720WN      WN  724   3.864   1.319   2.025
  721WN      WN  725   4.757   1.210   3.262
  722WN      WN  726   4.334   2.218   2.248
  723WN      WN  727   3.693   1.746   1.819
  724WN      WN  728   4.729   1.718   3.011
  725WN      WN  729   4.616   2.945   1.710
  726WN      WN  730   3.715   1.258   3.570
  727WN      WN  731   4.128   0.375   1.167
  728WN      WN  732   4.655   2.633   2.166
  729WN      WN  733   4.151   3.529   0.369
  730WN      WN  734   4.544   3.575   1.045
  731WN      WN  735   4.341   0.329   2.471
  732WN      WN  736   4.379   3.161   0.686
  733WN      WN  737   3.750   0.660   1.285
  734WN      WN  738   3.994   2.884   1.674
  735WN      WN  739   3.750   3.018   2.172
  736WN      WN  740   4.541   2.590   2.652
  737WN      WN  741   4.384   1.989   0.129
  738WN      WN  742   4.039   1.022   0.308
  739WN      WN  743   4.101   2.978   1.102
  740WN      WN  744   3.656   1.712   0.942
  741WN      WN  745   4.191   1.301   2.471
  742WN      WN  746   4.176   1.177   3.393
  743WN      WN  747   4.066   0.094   1.552
  744WN      WN  748   4.369   3.365   1.625
  745WN      WN  749   4.596   0.366   3.275
  746WN      WN  750   4.684   0.085   0.607
  747WN      WN  751   4.062   2.071   1.789
  748WN      WN  752   4.376   0.909   1.858
  749WN      WN  753   3.930   2.109   2.632
  750WN      WN  754   3.983   0.786   2.143
  751WN      WN  755   3.721   1.065   2.472
  752WN      WN  756   4.248   0.481   0.356
  753WN      WN  757   4.380   3.255   0.014
  754WN      WN  758   4.586   0.498   1.020
  755WN      WN  759   4.591   0.726   0.045
  756WN      WN  760   3.660   2.044   2.194
  757WN      WN  761   4.632   0.177   0.122
  758WN      WN  762   4.928   2.246   2.981
  759WN      WN  763   4.855   0.814   1.989
  760WN      WN  764   4.281   0.770   1.387
  761WN      WN  765   4.067   3.482   1.063
  762WN      WN  766   4.434   2.297   0.547
  763WN      WN  767   3.714   3.417   2.860
  764WN      WN  768   4.131   2.643   2.392
  765WN      WN  769   3.698   3.489   0.624
  766WN      WN  770   4.683   1.008   0.996
  767WN      WN  771   3.782   0.237   0.291
  768WN      WN  772   5.068   2.556   2.581
  769WN      WN  773   4.867   2.472   1.673
  770WN      WN  774   4.609   2.424   0.071
  771WN      WN  775   3.850   2.665   0.839
  772WN      WN  776   4.354   1.735   3.281
  773WN      WN  777   3.966   0.214   2.186
  774WN      WN  778   4.014   1.177   1.556
  775WN      WN  779   4.125   0.783   0.776
  776WN      WN  780   4.384   0.432   1.896
  777WN      WN  781   3.646   0.694   0.314
  778WN      WN  782   4.432   2.083   2.875
  779WN      WN  783   3.803   2.067   0.047
  780WN      WN  784   4.538   2.478   3.173
  781WN      WN  785   4.059   1.645   2.804
  782WN      WN  786   5.050   1.750   2.598
  783WN      WN  787   4.048   2.508   3.513
  784WN      WN  788   4.443   0.809   3.119
  785WN      WN  789   4.703   0.488   2.781
  786WN      WN  790   4.675   2.736   0.732
  787WN      WN  791   4.198   0.860   2.720
  788WN      WN  792   3.811   2.858   3.141
  789WN      WN  793   4.554   0.850   2.379
  790WN      WN  794   4.524   0.198   1.489
  791WN      WN  795   4.268   2.911   3.303
  792WN      WN  796   4.754   0.613   1.545
  793WN      WN  797   4.523   2.106   1.635
  794WN      WN  798   4.836   3.517   2.385
  795WN      WN  799   3.911   1.599   0.265
  796WN      WN  800   4.873   1.131   1.563
  797WN      WN  801   4.175   3.425   3.112
  798WN      WN  802   4.287   2.786   0.242
  799WN      WN  803   4.408   1.336   2.938
  800WN      WN  804   4.926   2.323   0.890
  801WN      WN  805   4.476   1.705   2.544
  802WN      WN  806   4.141   0.377   2.954
  803WN      WN  807   4.480   1.400   2.007
  804WN      WN  808   4.849   1.214   0.129
  805WN      WN  809   3.652   2.973   2.674
  806WN      WN  810   4.195   1.523   1.003
  807WN      WN  811   3.966   3.375   2.440
  808WN      WN  812   3.890   1.650   3.374
  809WN      WN  813   4.239   1.651   1.682
  810WN      WN  814   4.533   2.590   1.331
  811WN      WN  815   3.738   3.317   1.440
  812WN      WN  816   4.247   2.504   0.976
  813WN      WN  817   4.162   0.121   3.529
  814WN      WN  818   3.756   2.528   2.021
  815WN      WN  819   4.166   2.970   2.782
  816WN      WN  820   4.757   2.953   3.505
  817WN      WN  821   4.608   0.750   0.519
  818WN      WN  822   4.423   3.290   2.545
  819WN      WN  823   4.031   2.079   3.142
  820WN      WN  824   4.462   1.990   1.072
  821WN      WN  825   3.822   2.400   0.438
  822WN      WN  826   3.987   1.900   1.327
  823WN      WN  827   4.401   3.602   2.080
  824WN      WN  828   4.616   3.087   1.194
  825WN      WN  829   4.815   0.197   1.888
  826WN      WN  830   3.878   3.019   0.436
  827WN      WN  831   4.569   3.178   3.033
  828WN      WN  832   4.046   2.001   0.729
  829WN      WN  833   3.931   0.544   1.728
  830WN      WN  834   3.731   0.363   0.805
  831WN      WN  835   3.944   3.378   1.865
  832WN      WN  836   4.124   0.666   3.499
  833WN      WN  837   3.855   1.266   0.832
  834WN      WN  838   4.546   1.255   0.557
  835WN      WN  839   4.652   1.863   2.083
  836WN      WN  840   3.824   1.242   2.964
  837WN      WN  841   3.941   2.477   1.347
  838WN      WN  842   4.088   1.774   2.237
  839WN      WN  843   4.837   3.308   1.948
  840WN      WN  844   4.297   2.504   1.843
  841WN      WN  845   4.262   3.058   2.109
  842WN      WN  846   4.389   1.509   0.104
  843WN      WN  847   4.857   3.294   3.849
  844WN      WN  848   4.128   0.375   4.811
  845WN      WN  849   4.151   3.529   4.013
  846WN      WN  850   4.544   3.575   4.689
  847WN      WN  851   4.379   3.161   4.330
  848WN      WN  852   4.384   1.989   3.773
  849WN      WN  853   4.039   1.022   3.952
  850WN      WN  854   4.101   2.978   4.746
  851WN      WN  855   3.656   1.712   4.586
  852WN      WN  856   4.684   0.085   4.251
  853WN      WN  857   4.248   0.481   4.000
  854WN      WN  858   4.380   3.255   3.658
  855WN      WN  859   4.586   0.498   4.664
  856WN      WN  860   4.591   0.726   3.689
  857WN      WN  861   4.632   0.177   3.766
  858WN      WN  862   4.067   3.482   4.707
  859WN      WN  863   4.434   2.297   4.191
  860WN      WN  864   3.698   3.489   4.268
  861WN      WN  865   4.683   1.008   4.640
  862WN      WN  866   3.782   0.237   3.935
  863WN      WN  867   4.609   2.424   3.715
  864WN      WN  868   3.850   2.665   4.483
  865WN      WN  869   4.125   0.783   4.420
  866WN      WN  870   3.803   2.067   3.691
  867WN      WN  871   4.675   2.736   4.376
  868WN      WN  872   3.911   1.599   3.909
  869WN      WN  873   4.287   2.786   3.886
  870WN      WN  874   4.926   2.323   4.534
  871WN      WN  875   4.195   1.523   4.647
  872WN      WN  876   4.247   2.504   4.620
  873WN      WN  877   4.608   0.750   4.163
  874WN      WN  878   4.768   1.592   5.324
  875WN      WN  879   4.462   1.990   4.716
  876WN      WN  880   3.822   2.400   4.082
  877WN      WN  881   3.878   3.019   4.080
  878WN      WN  882   4.046   2.001   4.373
  879WN      WN  883   3.731   0.363   4.449
  880WN      WN  884   3.855   1.266   4.476
  881WN      WN  885   4.546   1.255   4.201
  882WN      WN  886   3.941   2.477   4.991
  883WN      WN  887   4.389   1.509   3.748
  884WN      WN  888   4.940   5.090   1.188
  885WN      WN  889   3.770   4.406   3.104
  886WN      WN  890   4.532   3.686   2.906
  887WN      WN  891   3.811   4.171   2.579
  888WN      WN  892   4.757   4.854   3.262
  889WN      WN  893   3.715   4.902   3.570
  890WN      WN  894   4.128   4.019   1.167
  891WN      WN  895   4.341   3.973   2.471
  892WN      WN  896   3.750   4.304   1.285
  893WN      WN  897   4.039   4.666   0.308
  894WN      WN  898   4.066   3.738   1.552
  895WN      WN  899   4.596   4.010   3.275
  896WN      WN  900   4.684   3.729   0.607
  897WN      WN  901   4.376   4.553   1.858
  898WN      WN  902   3.983   4.430   2.143
  899WN      WN  903   3.721   4.709   2.472
  900WN      WN  904   4.248   4.125   0.356
  901WN      WN  905   4.586   4.142   1.020
  902WN      WN  906   4.591   4.370   0.045
  903WN      WN  907   4.632   3.821   0.122
  904WN      WN  908   4.855   4.458   1.989
  905WN      WN  909   4.281   4.414   1.387
  906WN      WN  910   4.683   4.652   0.996
  907WN      WN  911   3.782   3.881   0.291
  908WN      WN  912   3.966   3.858   2.186
  909WN      WN  913   4.125   4.427   0.776
  910WN      WN  914   4.384   4.076   1.896
  911WN      WN  915   3.646   4.338   0.314
  912WN      WN  916   4.443   4.453   3.119
  913WN      WN  917   4.703   4.132   2.781
  914WN      WN  918   4.198   4.504   2.720
  915WN      WN  919   4.554   4.494   2.379
  916WN      WN  920   4.524   3.842   1.489
  917WN      WN  921   4.754   4.257   1.545
  918WN      WN  922   4.873   4.775   1.563
  919WN      WN  923   4.141   4.021   2.954
  920WN      WN  924   4.162   3.765   3.529
  921WN      WN  925   4.608   4.394   0.519
  922WN      WN  926   4.815   3.841   1.888
  923WN      WN  927   3.931   4.188   1.728
  924WN      WN  928   3.731   4.007   0.805
  925WN      WN  929   4.124   4.310   3.499
  926WN      WN  930   3.855   4.910   0.832
  927WN      WN  931   3.824   4.886   2.964
  928WN      WN  932   4.940   5.090   4.832
  929WN      WN  933   4.128   4.019   4.811
  930WN      WN  934   4.039   4.666   3.952
  931WN      WN  935   4.684   3.729   4.251
  932WN      WN  936   4.248   4.125   4.000
  933WN      WN  937   4.586   4.142   4.664
  934WN      WN  938   4.591   4.370   3.689
  935WN      WN  939   4.632   3.821   3.766
  936WN      WN  940   4.683   4.652   4.640
  937WN      WN  941   3.782   3.881   3.935
  938WN      WN  942   4.125   4.427   4.420
  939WN      WN  943   3.646   4.338   3.958
  940WN      WN  944   4.873   4.775   5.207
  941WN      WN  945   4.608   4.394   4.163
  942WN      WN  946   3.731   4.007   4.449
  943WN      WN  947   3.855   4.910   4.476
   5.00000   5.00000   5.00000
